FOO
138240
    1MOL0     O    1   9.928   6.486   5.231 -0.3505 -0.7362  0.8109
    1MOL0     C    2   9.928   6.364   5.231  0.6950  0.4083  0.2279
    1MOL0     O    3   9.819   6.286   5.240  0.0189 -0.3949  0.2776
    1MOL0     C    4   9.700   6.347   5.223  0.6255 -0.0553  0.1255
    1MOL0     C    5   9.653   6.391   5.096  0.3927  0.1506  0.5850
    1MOL0     C    6   9.523   6.450   5.081  0.1517  0.0908 -0.6697
    1MOL0     C    7   9.438   6.463   5.188  0.1250  0.3753 -0.0415
    1MOL0     O    8   9.310   6.505   5.156  0.0990  0.2514 -0.3320
    1MOL0     C    9   9.214   6.542   5.254  0.2328 -0.6507 -0.5816
    1MOL0     C   10   9.087   6.580   5.194 -0.7587  0.7778 -0.0699
    1MOL0     C   11   9.015   6.468   5.107  0.5388  0.6115  0.1584
    1MOL0     C   12   8.860   6.501   5.102 -0.2524  0.1046 -0.6979
    1MOL0     C   13   8.776   6.422   4.999  0.7289  0.7901  0.6830
    1MOL0     C   14   8.735   6.288   5.051 -0.1753 -0.3369  0.1007
    1MOL0     C   15   8.607   6.284   5.127 -0.6418 -0.2263 -0.9179
    1MOL0     C   16   8.585   6.134   5.166  0.8297  0.0288  0.3353
    1MOL0     N   17   8.454   6.114   5.220 -0.1311 -0.1601 -0.3913
    1MOL0     C   18   8.328   6.143   5.164 -0.0697  0.3784 -0.1533
    1MOL0     C   19   8.239   6.114   5.255 -0.7962  0.1482  0.1648
    1MOL0     C   20   8.101   6.148   5.242 -0.1782 -0.0053  1.0627
    1MOL0     C   21   8.009   6.027   5.214  0.7717 -0.5916  0.0694
    1MOL0     C   22   7.854   6.075   5.222  0.3517  0.3132  0.6150
    1MOL0     C   23   7.787   6.109   5.086  0.1290 -0.4528 -0.3561
    1MOL0     O   24   7.869   6.184   4.991  0.5365 -0.2969  0.6779
    1MOL0     C   25   7.851   6.184   4.855  0.1597 -0.0807  0.2958
    1MOL0     C   26   7.950   6.222   4.760 -0.6248  0.6369 -0.2405
    1MOL0     C   27   7.931   6.222   4.624 -0.0071 -1.3475 -0.5090
    1MOL0     C   28   8.043   6.261   4.530  1.0222 -0.9304  0.0514
    1MOL0     C   29   7.799   6.186   4.577 -0.7784  0.3719  0.7112
    1MOL0     C   30   7.762   6.196   4.425 -0.9920 -0.8073  0.6066
    1MOL0     O   31   7.630   6.234   4.394 -0.0212  0.6418 -0.0433
    1MOL0     C   32   7.595   6.245   4.263  0.4485  0.5675 -0.4590
    1MOL0     C   33   7.607   6.136   4.166  0.3587 -0.1270  0.0361
    1MOL0     C   34   7.553   6.170   4.036  0.7507  0.7167 -0.7218
    1MOL0     C   35   7.474   6.287   4.008 -0.0423 -0.7556  0.2626
    1MOL0     O   36   7.407   6.321   3.896  0.2934 -0.5398  0.1452
    1MOL0     C   37   7.344   6.210   3.823 -0.2524 -0.4678 -0.0184
    1MOL0     C   38   7.318   6.261   3.676  0.2060 -0.4734  0.1151
    1MOL0     C   39   7.443   6.264   3.590  0.2087 -0.5005 -0.1078
    1MOL0     C   40   7.409   6.324   3.458  0.3363 -1.3992 -0.5494
    1MOL0     C   41   7.528   6.361   3.378 -0.4657 -0.1995 -0.0216
    1MOL0     C   42   7.576   6.232   3.313 -1.3446  0.6982 -0.3241
    1MOL0     C   43   7.672   6.260   3.206 -0.9498 -0.3061 -0.7780
    1MOL0     C   44   7.738   6.147   3.126 -0.2802 -0.4745  0.0756
    1MOL0    Cl   45   7.616   6.046   3.053 -0.2529 -0.0775 -0.7273
    1MOL0     C   46   7.480   6.390   4.101  0.0320  0.2806 -1.3678
    1MOL0     C   47   7.533   6.373   4.232  0.3405 -0.2207 -0.1539
    1MOL0     O   48   7.854   6.187   4.341 -0.1333 -0.2065  0.0579
    1MOL0     C   49   7.703   6.139   4.669 -0.1876  0.3429  0.6901
    1MOL0     C   50   7.731   6.140   4.803 -0.1168 -0.1481  1.1602
    1MOL0     N   51   8.301   6.064   5.377  0.2153 -0.2897 -0.1993
    1MOL0     N   52   8.426   6.067   5.346 -0.3205  0.5358  0.3675
    1MOL0     C   53   9.494   6.434   5.314 -0.4833 -0.1648  0.5251
    1MOL0     C   54   9.615   6.373   5.333  0.6923  0.5009 -0.3963
    1MOL0     C   55  10.068   6.303   5.227  0.9962 -1.0015  0.0712
    1MOL0     C   56  10.089   6.163   5.226 -0.5222  0.5115  0.3379
    1MOL0     C   57  10.213   6.109   5.216  0.6047 -0.3922 -0.1768
    1MOL0     C   58  10.321   6.187   5.207 -0.2888  0.4290 -0.3955
    1MOL0     O   59  10.438   6.115   5.197  0.3279  0.3906 -0.0872
    1MOL0     C   60  10.558   6.188   5.168 -0.3634  0.4062 -0.2691
    1MOL0     C   61  10.628   6.227   5.303  0.8297  0.3271 -0.3247
    1MOL0     C   62  10.774   6.264   5.279 -0.3128 -0.1094  0.3756
    1MOL0     C   63  10.792   6.415   5.300 -0.3391 -0.9908 -0.5190
    1MOL0     C   64  10.710   6.496   5.218 -0.6569  0.4787  0.6389
    1MOL0     C   65  10.640   6.567   5.145  0.0832 -0.0763 -0.4360
    1MOL0     C   66  10.308   6.326   5.204  0.6504 -0.6979 -0.3064
    1MOL0     C   67  10.185   6.385   5.216  0.5123 -0.2525  0.9078
    1MOL0     H   68   9.713   6.371   5.008  0.8493 -2.7253  1.4392
    1MOL0     H   69   9.493   6.472   4.979  1.6274  1.2897 -0.8759
    1MOL0     H   70   9.206   6.452   5.316  1.5367 -0.3790  0.0104
    1MOL0     H   71   9.242   6.618   5.327 -1.2683 -0.8538  0.2411
    1MOL0     H   72   9.020   6.604   5.277  0.8742  0.5959  1.3566
    1MOL0     H   73   9.094   6.668   5.129  1.7512 -2.3274 -4.5704
    1MOL0     H   74   9.058   6.469   5.007 -2.6580 -0.5922 -1.3636
    1MOL0     H   75   9.024   6.376   5.167 -0.5237  1.1861  1.2652
    1MOL0     H   76   8.806   6.480   5.194 -0.6507 -0.9009 -1.1448
    1MOL0     H   77   8.841   6.604   5.067 -1.4612  0.4903  0.9634
    1MOL0     H   78   8.686   6.481   4.976 -1.0109 -2.0193 -0.2399
    1MOL0     H   79   8.828   6.400   4.906 -1.1325 -3.2551  0.3716
    1MOL0     H   80   8.725   6.211   4.974 -0.4799 -2.6447  2.3258
    1MOL0     H   81   8.815   6.255   5.118 -0.4446  0.0762  0.6284
    1MOL0     H   82   8.603   6.355   5.210  0.5862  1.1751 -1.9752
    1MOL0     H   83   8.522   6.326   5.074 -2.5533  0.6985  2.5739
    1MOL0     H   84   8.670   6.094   5.221  0.7674  0.9188  1.0969
    1MOL0     H   85   8.579   6.075   5.074  0.3999 -0.8277  0.9040
    1MOL0     H   86   8.311   6.187   5.067 -0.1630 -1.9590 -1.2763
    1MOL0     H   87   8.070   6.202   5.332 -0.3881  0.0589  0.9530
    1MOL0     H   88   8.097   6.227   5.166 -0.6031 -0.3608  0.7085
    1MOL0     H   89   8.017   5.950   5.292 -0.5925  0.4446  1.2892
    1MOL0     H   90   8.030   5.989   5.114 -0.9937  0.1418 -0.6318
    1MOL0     H   91   7.854   6.154   5.297  0.2363 -0.6833  1.6926
    1MOL0     H   92   7.793   5.998   5.269 -0.8714  0.2986 -0.8963
    1MOL0     H   93   7.701   6.170   5.113  1.7385  0.6255  2.8306
    1MOL0     H   94   7.760   6.010   5.046  0.6424 -0.8698  0.3145
    1MOL0     H   95   8.045   6.257   4.800  0.3049 -0.5897 -1.2673
    1MOL0     H   96   8.070   6.173   4.470 -1.0920 -0.6124 -1.4962
    1MOL0     H   97   8.014   6.345   4.466  2.7115  1.1592  1.8729
    1MOL0     H   98   8.133   6.296   4.580  2.0388  1.5137 -3.1309
    1MOL0     H   99   7.660   6.046   4.196  1.6476  0.4108 -0.5495
    1MOL0     H  100   7.556   6.084   3.970 -0.3992 -1.0378  1.3782
    1MOL0     H  101   7.405   6.120   3.816 -1.7865 -1.7030  1.5778
    1MOL0     H  102   7.250   6.181   3.871 -1.6468  0.5780 -1.9734
    1MOL0     H  103   7.249   6.193   3.626  0.6265 -0.3393 -0.6580
    1MOL0     H  104   7.269   6.359   3.682  0.8412 -0.0826 -0.8645
    1MOL0     H  105   7.474   6.160   3.580  0.3123 -0.6377  1.4916
    1MOL0     H  106   7.514   6.326   3.645 -1.4755  2.0286 -0.6007
    1MOL0     H  107   7.346   6.260   3.395 -2.1516  1.9110 -1.6720
    1MOL0     H  108   7.345   6.410   3.481  2.1486 -0.8848  3.5600
    1MOL0     H  109   7.611   6.399   3.439 -0.2172 -1.8259  0.7117
    1MOL0     H  110   7.499   6.429   3.298  1.4131  0.3372 -0.3089
    1MOL0     H  111   7.624   6.170   3.389  0.0708  2.0360 -0.0731
    1MOL0     H  112   7.497   6.171   3.267 -0.2894  0.1040 -1.3984
    1MOL0     H  113   7.754   6.319   3.246 -0.2857 -0.0468 -2.4199
    1MOL0     H  114   7.620   6.321   3.132 -0.2674  0.9772 -0.2153
    1MOL0     H  115   7.791   6.083   3.197 -0.4291  0.5203  1.1229
    1MOL0     H  116   7.801   6.184   3.045 -0.1989  0.7953  0.6774
    1MOL0     H  117   7.434   6.485   4.074 -0.5712  0.4216  0.1147
    1MOL0     H  118   7.529   6.453   4.305 -0.8012 -1.2033  0.9092
    1MOL0     H  119   7.615   6.085   4.634 -1.2868  1.9023  0.9738
    1MOL0     H  120   7.659   6.101   4.873 -0.6842 -0.8035  0.2316
    1MOL0     H  121   9.429   6.460   5.397  0.7427 -0.3893  1.5803
    1MOL0     H  122   9.638   6.338   5.434 -0.0095 -1.2615 -0.8063
    1MOL0     H  123  10.016   6.084   5.227  1.7810 -1.7594  1.8450
    1MOL0     H  124  10.234   6.002   5.212  0.0897 -0.5054  0.0947
    1MOL0     H  125  10.625   6.125   5.108 -0.2483  1.2767 -1.0605
    1MOL0     H  126  10.541   6.281   5.113  1.3410  1.8161  1.4922
    1MOL0     H  127  10.622   6.142   5.371  1.5203 -0.2183 -0.9231
    1MOL0     H  128  10.581   6.314   5.349  0.5845  0.6311 -1.1433
    1MOL0     H  129  10.804   6.253   5.175  0.1372  1.2323  0.3355
    1MOL0     H  130  10.846   6.213   5.344 -0.3706 -0.8687 -0.1454
    1MOL0     H  131  10.891   6.453   5.274  0.1777  1.5380  4.1463
    1MOL0     H  132  10.768   6.445   5.402  2.8881  2.8736 -0.6634
    1MOL0     H  133  10.588   6.629   5.075  0.6423  0.6248 -0.2488
    1MOL0     H  134  10.395   6.388   5.184  2.0751 -2.8266 -1.1498
    1MOL0     H  135  10.167   6.492   5.214  1.0254 -0.1745  0.0669
    2MOL0     O  136   3.897   5.157   5.007 -0.5016  0.0148  0.1794
    2MOL0     C  137   3.905   5.266   5.064 -0.4242 -0.2394 -0.0300
    2MOL0     O  138   4.011   5.328   5.106  0.2508 -0.1045  0.0070
    2MOL0     C  139   4.124   5.297   5.045 -1.1393  0.1407  0.7186
    2MOL0     C  140   4.159   5.359   4.924  0.2666 -0.3308 -0.6668
    2MOL0     C  141   4.275   5.330   4.854 -0.6620  0.9013 -0.2953
    2MOL0     C  142   4.367   5.243   4.912  0.5850 -0.0469 -0.2244
    2MOL0     O  143   4.488   5.215   4.852 -0.7327  0.7793  0.4586
    2MOL0     C  144   4.507   5.211   4.708  0.6262 -0.1630  0.0346
    2MOL0     C  145   4.573   5.081   4.658  0.3214 -0.0181 -0.5478
    2MOL0     C  146   4.725   5.073   4.678 -0.0472  0.0387 -0.3787
    2MOL0     C  147   4.784   4.949   4.627 -0.3273  1.2970 -0.6830
    2MOL0     C  148   4.771   4.846   4.733  0.3033 -0.4296 -0.0736
    2MOL0     C  149   4.848   4.723   4.687  0.4875 -0.3162 -0.1117
    2MOL0     C  150   4.807   4.600   4.768 -0.5269 -0.6931 -0.5267
    2MOL0     C  151   4.699   4.518   4.699 -0.2503 -0.5331 -0.3755
    2MOL0     N  152   4.654   4.420   4.795 -0.5302  0.7383 -0.3036
    2MOL0     C  153   4.560   4.438   4.896 -0.3637  0.9323  0.5642
    2MOL0     C  154   4.547   4.313   4.939  0.5119  0.7945 -0.2689
    2MOL0     C  155   4.444   4.278   5.052  0.0809 -0.1801 -0.0969
    2MOL0     C  156   4.308   4.253   4.986  0.0837 -0.0365  0.7341
    2MOL0     C  157   4.226   4.143   5.057 -0.2226 -0.2982 -0.1082
    2MOL0     C  158   4.091   4.108   4.993  0.7343 -0.2969  0.1136
    2MOL0     O  159   4.108   4.079   4.851  0.7704 -0.2142  0.0271
    2MOL0     C  160   3.987   4.049   4.785 -0.1352 -0.0923 -0.3475
    2MOL0     C  161   3.954   4.127   4.680  0.4034  0.2021  0.6082
    2MOL0     C  162   3.840   4.107   4.600  0.3735 -0.4286  0.9105
    2MOL0     C  163   3.830   4.203   4.481 -0.3897  0.5030  0.8936
    2MOL0     C  164   3.742   4.004   4.636 -1.0602  0.3004 -0.2143
    2MOL0     C  165   3.613   3.971   4.564  0.0039  0.4523  0.4420
    2MOL0     O  166   3.523   3.884   4.626  1.0465  0.2265  0.0475
    2MOL0     C  167   3.386   3.884   4.584 -0.6059 -0.0477 -0.3385
    2MOL0     C  168   3.316   3.768   4.622 -0.8621  0.4335 -0.1549
    2MOL0     C  169   3.179   3.752   4.592 -0.3739  0.2851  0.7829
    2MOL0     C  170   3.117   3.850   4.505  0.5766 -0.8322 -0.9542
    2MOL0     O  171   2.991   3.825   4.458  0.6740 -0.1849  0.2248
    2MOL0     C  172   2.901   3.931   4.405 -0.2252  0.6289  0.7128
    2MOL0     C  173   2.799   3.856   4.328  0.4101 -0.1936 -0.0815
    2MOL0     C  174   2.697   3.771   4.400  0.7940 -0.2356  0.4035
    2MOL0     C  175   2.575   3.736   4.314  0.0001  1.2106  0.0831
    2MOL0     C  176   2.498   3.861   4.269 -0.0070  0.7328 -0.0715
    2MOL0     C  177   2.456   3.952   4.379  0.0951 -0.2364 -0.2618
    2MOL0     C  178   2.345   4.046   4.327  0.3823  0.4196 -0.1836
    2MOL0     C  179   2.304   4.165   4.411  0.9584 -0.2336 -0.0984
    2MOL0    Cl  180   2.440   4.270   4.429  0.8428 -0.1585  0.2360
    2MOL0     C  181   3.187   3.965   4.479 -0.5143 -0.2232 -0.0484
    2MOL0     C  182   3.319   3.988   4.516 -1.2127  0.7212 -0.1588
    2MOL0     O  183   3.599   4.027   4.453 -0.0057 -0.3180 -0.2376
    2MOL0     C  184   3.777   3.930   4.748 -0.0741  0.0021 -0.1814
    2MOL0     C  185   3.899   3.947   4.809 -0.7570  0.3108 -0.4449
    2MOL0     N  186   4.638   4.232   4.884  0.2205  0.9003  0.6835
    2MOL0     N  187   4.689   4.290   4.784  0.1352  0.4717  0.4952
    2MOL0     C  188   4.339   5.185   5.030 -0.5385  0.2563 -0.3331
    2MOL0     C  189   4.215   5.199   5.098 -0.1185 -0.4411  0.3838
    2MOL0     C  190   3.771   5.333   5.085 -0.6062  0.7772 -0.3336
    2MOL0     C  191   3.763   5.455   5.155  0.3489  0.7341  0.8266
    2MOL0     C  192   3.634   5.515   5.177 -0.6866 -0.3652 -0.3891
    2MOL0     C  193   3.516   5.455   5.125 -0.5696  0.0660 -0.5849
    2MOL0     O  194   3.387   5.498   5.154 -0.0975  0.0084 -0.3133
    2MOL0     C  195   3.363   5.637   5.185 -0.2386  0.8914 -0.2013
    2MOL0     C  196   3.222   5.670   5.142  1.0258 -0.6239 -0.8664
    2MOL0     C  197   3.113   5.590   5.225  0.0044 -0.8876  0.2415
    2MOL0     C  198   2.969   5.606   5.185 -0.0916  0.5783  0.6790
    2MOL0     C  199   2.901   5.703   5.268 -0.0749 -0.4410 -0.4965
    2MOL0     C  200   2.840   5.782   5.337  0.2332 -0.3641  0.5509
    2MOL0     C  201   3.532   5.340   5.046  0.4111 -0.7506  0.4232
    2MOL0     C  202   3.650   5.277   5.030 -0.1673 -0.5925  0.0145
    2MOL0     H  203   4.094   5.440   4.892  1.6282  1.5123  0.9489
    2MOL0     H  204   4.312   5.373   4.762  1.2634  0.1416  0.0695
    2MOL0     H  205   4.410   5.233   4.663  1.7693  3.1436 -1.1305
    2MOL0     H  206   4.571   5.291   4.670 -0.6984  1.1398  0.4794
    2MOL0     H  207   4.528   4.993   4.705  0.4278 -0.7481 -1.7448
    2MOL0     H  208   4.562   5.083   4.549  3.5495 -1.1852 -1.0013
    2MOL0     H  209   4.772   5.160   4.630 -2.8069  0.8295 -1.9078
    2MOL0     H  210   4.743   5.094   4.783  3.2013  0.5534 -0.9206
    2MOL0     H  211   4.743   4.907   4.535  2.4248 -1.5871 -0.7706
    2MOL0     H  212   4.889   4.970   4.605  0.3935 -1.8503 -0.6629
    2MOL0     H  213   4.807   4.889   4.827 -3.5494 -0.0970  1.4071
    2MOL0     H  214   4.665   4.820   4.740 -0.1154  1.0160 -0.5657
    2MOL0     H  215   4.835   4.698   4.581  1.1700 -2.8514  0.3394
    2MOL0     H  216   4.953   4.739   4.713 -0.1262  1.4733  1.4919
    2MOL0     H  217   4.893   4.532   4.769 -1.9615 -2.6972 -2.4438
    2MOL0     H  218   4.780   4.629   4.870  0.4248  1.0859 -0.7456
    2MOL0     H  219   4.750   4.480   4.610  1.0565 -0.9284  0.5127
    2MOL0     H  220   4.615   4.578   4.662  0.0959 -1.8727 -3.7030
    2MOL0     H  221   4.501   4.525   4.925 -0.1645  0.7393  1.5800
    2MOL0     H  222   4.489   4.203   5.117  1.9262  1.0171  0.0855
    2MOL0     H  223   4.441   4.367   5.116  1.6579  0.3658 -0.7408
    2MOL0     H  224   4.323   4.218   4.883 -0.9786  2.9588 -0.5520
    2MOL0     H  225   4.248   4.345   4.980  0.1720  0.0356  0.9520
    2MOL0     H  226   4.200   4.176   5.158  1.6770 -0.6146  0.5204
    2MOL0     H  227   4.288   4.054   5.068 -1.1887 -0.7427  2.2434
    2MOL0     H  228   4.029   4.197   5.005  1.6935  0.3627  0.3189
    2MOL0     H  229   4.040   4.034   5.055 -0.6744  1.6255  1.3943
    2MOL0     H  230   4.035   4.194   4.652  2.7178 -2.4358  0.5403
    2MOL0     H  231   3.899   4.287   4.473 -0.4759  0.4377 -1.4972
    2MOL0     H  232   3.834   4.146   4.388 -1.3263 -0.3408  1.3530
    2MOL0     H  233   3.729   4.245   4.484 -3.2141 -5.2907  1.1966
    2MOL0     H  234   3.366   3.696   4.686 -3.0457 -0.4272  0.6700
    2MOL0     H  235   3.130   3.662   4.626  2.7174 -1.3241  1.3144
    2MOL0     H  236   2.852   3.985   4.486 -1.8227  1.3208 -0.6606
    2MOL0     H  237   2.948   4.004   4.339  1.1734 -2.3867 -1.8755
    2MOL0     H  238   2.758   3.933   4.263  0.2251  2.1689  2.6151
    2MOL0     H  239   2.843   3.780   4.262 -0.2044 -0.1222 -0.5808
    2MOL0     H  240   2.669   3.825   4.490 -1.0602  1.2871 -0.9924
    2MOL0     H  241   2.741   3.674   4.422  3.0407  0.7400  0.4654
    2MOL0     H  242   2.611   3.685   4.223  1.0910  1.4011  0.3913
    2MOL0     H  243   2.518   3.676   4.385  1.0753 -1.4625 -1.1456
    2MOL0     H  244   2.402   3.830   4.227 -1.2777  3.7785  0.3674
    2MOL0     H  245   2.546   3.922   4.192 -0.7034  0.2326 -0.9226
    2MOL0     H  246   2.416   3.897   4.465 -2.5734  0.2135 -1.1248
    2MOL0     H  247   2.545   4.005   4.413 -0.5198 -0.1796  1.3463
    2MOL0     H  248   2.250   4.002   4.295  0.0834  1.5648 -0.9184
    2MOL0     H  249   2.396   4.094   4.243 -0.2448  0.6238 -0.4504
    2MOL0     H  250   2.273   4.133   4.511  0.9902  0.4448  0.1341
    2MOL0     H  251   2.219   4.218   4.366 -0.6740 -2.0145  0.7110
    2MOL0     H  252   3.127   4.047   4.440 -1.0894 -0.9184 -0.6744
    2MOL0     H  253   3.370   4.083   4.505 -2.2245  1.3574  0.5462
    2MOL0     H  254   3.712   3.849   4.778  1.9290 -2.0463 -1.0533
    2MOL0     H  255   3.924   3.879   4.890  0.1840  2.4936  1.2178
    2MOL0     H  256   4.409   5.111   5.068 -1.1793 -1.3934 -2.2009
    2MOL0     H  257   4.207   5.145   5.192  2.7121 -2.4466 -0.4031
    2MOL0     H  258   3.852   5.510   5.184  1.0737  0.9541 -1.6321
    2MOL0     H  259   3.634   5.608   5.232  0.7173 -0.2802 -0.4896
    2MOL0     H  260   3.374   5.663   5.291 -1.7100 -0.2554  0.2655
    2MOL0     H  261   3.427   5.703   5.125 -0.8264 -0.1277 -2.0194
    2MOL0     H  262   3.207   5.648   5.036  1.7307  2.0195 -1.5980
    2MOL0     H  263   3.203   5.777   5.155 -2.8354 -1.1274 -1.1316
    2MOL0     H  264   3.135   5.613   5.329 -0.3533  1.8321 -0.2132
    2MOL0     H  265   3.129   5.482   5.216 -2.8451 -1.3736 -0.0282
    2MOL0     H  266   2.923   5.508   5.198 -0.8461  0.9612  0.9503
    2MOL0     H  267   2.974   5.628   5.078  3.0141 -1.2597  0.3317
    2MOL0     H  268   2.809   5.853   5.410  0.6371 -2.5754  3.0363
    2MOL0     H  269   3.442   5.295   5.004  2.4947 -2.0147 -3.1730
    2MOL0     H  270   3.668   5.195   4.961 -0.3351  0.2270 -1.0208
    3MOL0     O  271   0.770   9.641   1.344  0.1970  0.5280 -0.7521
    3MOL0     C  272   0.719   9.639   1.459  0.3236 -0.8049  1.4162
    3MOL0     O  273   0.603   9.693   1.493  0.1100 -0.4565 -0.3426
    3MOL0     C  274   0.525   9.781   1.416 -0.1201 -0.2330  0.2960
    3MOL0     C  275   0.510   9.774   1.278 -0.5293 -0.3679 -0.6545
    3MOL0     C  276   0.416   9.860   1.211  0.6167  0.1046 -0.2375
    3MOL0     C  277   0.334   9.943   1.284 -0.6658 -0.0971 -0.1263
    3MOL0     O  278   0.252  10.031   1.208 -0.3486 -0.7070 -0.0338
    3MOL0     C  279   0.123  10.040   1.253  0.3724 -0.1222 -0.5648
    3MOL0     C  280   0.034  10.002   1.129 -0.6820  0.2202 -0.3125
    3MOL0     C  281   0.044   9.854   1.097 -0.1258 -0.6570  0.1968
    3MOL0     C  282  -0.006   9.813   0.959  0.3841  0.6226  0.4573
    3MOL0     C  283   0.026   9.664   0.946 -0.0581  0.4508  0.2769
    3MOL0     C  284  -0.009   9.620   0.798  0.1183 -1.1571 -0.1078
    3MOL0     C  285  -0.002   9.469   0.789  0.4304 -0.6347  0.9004
    3MOL0     C  286  -0.071   9.434   0.657 -0.2135 -0.6102  0.4821
    3MOL0     N  287  -0.013   9.495   0.530  0.3162  0.9574 -0.5572
    3MOL0     C  288   0.116   9.486   0.486 -0.2021  0.1804  0.2856
    3MOL0     C  289   0.125   9.554   0.377  0.1023 -0.8319  0.0494
    3MOL0     C  290   0.256   9.579   0.298 -0.0235  0.7593 -0.2071
    3MOL0     C  291   0.314   9.709   0.346 -0.5282 -0.4339 -0.1629
    3MOL0     C  292   0.403   9.697   0.468  0.0345  0.0481 -0.3876
    3MOL0     C  293   0.444   9.832   0.506 -0.3187 -0.3272  0.0028
    3MOL0     O  294   0.517   9.907   0.409 -0.2191  0.3671  0.5799
    3MOL0     C  295   0.655   9.894   0.401  0.2649 -0.0097 -0.7722
    3MOL0     C  296   0.730   9.809   0.490 -0.3906  0.7557  0.3232
    3MOL0     C  297   0.872   9.810   0.487 -0.3015 -1.1397  0.4531
    3MOL0     C  298   0.946   9.729   0.595 -0.1663  0.9121  1.2402
    3MOL0     C  299   0.945   9.888   0.395  0.4645 -0.3146 -0.3104
    3MOL0     C  300   1.094   9.881   0.369  0.3270 -0.2926 -0.3328
    3MOL0     O  301   1.169   9.998   0.364  0.3491  0.5289  0.4262
    3MOL0     C  302   1.310   9.992   0.364 -0.2851  0.2715  0.2108
    3MOL0     C  303   1.363  10.102   0.291  0.4940  0.1275 -0.5490
    3MOL0     C  304   1.505  10.110   0.283  0.0685  0.8476 -0.8538
    3MOL0     C  305   1.592  10.016   0.345 -0.4736  0.0190 -0.5942
    3MOL0     O  306   1.732  10.030   0.326 -0.1555 -0.1179 -0.2142
    3MOL0     C  307   1.821   9.913   0.346 -0.2870 -0.1243 -0.3128
    3MOL0     C  308   1.958   9.952   0.285  0.2672 -0.1320 -0.4529
    3MOL0     C  309   1.939  10.008   0.139  0.3623 -0.3307 -0.1850
    3MOL0     C  310   2.067  10.060   0.070  0.1807 -0.2652 -0.0041
    3MOL0     C  311   2.181   9.962   0.070  0.3974  1.1231  0.2306
    3MOL0     C  312   2.294  10.020  -0.020 -0.6094  0.4093  0.0468
    3MOL0     C  313   2.405   9.912  -0.014 -0.0812  0.1180 -0.1359
    3MOL0     C  314   2.390   9.814  -0.131  0.2433  0.4289  0.4894
    3MOL0    Cl  315   2.510   9.690  -0.118 -0.2304  0.5859 -0.0009
    3MOL0     C  316   1.535   9.905   0.415  0.1644  1.0043 -1.5465
    3MOL0     C  317   1.394   9.896   0.431  0.8649 -0.4127  0.4722
    3MOL0     O  318   1.145   9.768   0.365 -0.7850  0.4963 -0.2820
    3MOL0     C  319   0.866   9.961   0.303  0.1378 -0.1845 -0.0029
    3MOL0     C  320   0.730   9.964   0.304  0.0731  0.6086 -0.4737
    3MOL0     N  321   0.005   9.616   0.359 -0.0032  0.3908  0.0185
    3MOL0     N  322  -0.079   9.571   0.438  0.1666 -0.0821  0.5734
    3MOL0     C  323   0.345   9.947   1.423 -0.2647  0.2323 -0.5286
    3MOL0     C  324   0.433   9.858   1.488 -0.1217 -0.3015 -0.5821
    3MOL0     C  325   0.794   9.578   1.566  0.1388  0.0922 -0.8400
    3MOL0     C  326   0.911   9.504   1.532  0.5138  0.0368 -0.2006
    3MOL0     C  327   0.995   9.443   1.630  0.7933  0.1724  0.1899
    3MOL0     C  328   0.957   9.464   1.770 -0.0960 -0.2063  0.1830
    3MOL0     O  329   1.037   9.440   1.887  0.9157  0.7461  0.4587
    3MOL0     C  330   1.176   9.404   1.861 -0.1353  0.2402 -0.5404
    3MOL0     C  331   1.241   9.405   1.997 -0.5487  0.6444  0.2392
    3MOL0     C  332   1.217   9.284   2.097  0.5501 -0.3670 -0.3220
    3MOL0     C  333   1.290   9.154   2.058 -0.2006 -0.4641  0.1848
    3MOL0     C  334   1.441   9.165   2.060  0.7532 -0.3641  0.4101
    3MOL0     C  335   1.558   9.188   2.068 -0.4053  0.0946  0.2681
    3MOL0     C  336   0.836   9.534   1.793 -0.9229  0.2626  0.5951
    3MOL0     C  337   0.754   9.582   1.699  0.0809  0.3399 -0.2055
    3MOL0     H  338   0.567   9.711   1.210  1.6803  0.0644  0.7056
    3MOL0     H  339   0.416   9.852   1.102 -0.8998 -2.0510 -0.1473
    3MOL0     H  340   0.104   9.966   1.332  0.3347 -0.8368 -1.2344
    3MOL0     H  341   0.107  10.142   1.289  1.9752 -1.0009  3.0542
    3MOL0     H  342  -0.071  10.018   1.153 -1.1605 -2.3813 -0.3579
    3MOL0     H  343   0.062  10.065   1.044 -0.0766  1.9365  1.1030
    3MOL0     H  344   0.152   9.838   1.106  0.0363  0.2201 -0.0876
    3MOL0     H  345  -0.011   9.795   1.171 -0.2105 -1.8917 -0.8180
    3MOL0     H  346  -0.110   9.834   0.936  0.0944 -0.5015  0.6798
    3MOL0     H  347   0.056   9.878   0.897  1.1701 -1.3258 -0.8899
    3MOL0     H  348   0.131   9.642   0.969  0.3453 -0.0051 -1.8090
    3MOL0     H  349  -0.030   9.603   1.018  1.1441 -0.0959  0.7804
    3MOL0     H  350  -0.104   9.669   0.776  0.9845  1.3131  1.2564
    3MOL0     H  351   0.056   9.665   0.723  0.1942 -1.7739 -0.4155
    3MOL0     H  352   0.101   9.434   0.783  1.0343  1.2930 -2.6107
    3MOL0     H  353  -0.062   9.417   0.865 -1.1053 -0.8967 -0.4365
    3MOL0     H  354  -0.179   9.452   0.653  0.1737  1.9900 -0.5100
    3MOL0     H  355  -0.043   9.329   0.651  2.6986 -0.0223  1.8369
    3MOL0     H  356   0.204   9.440   0.529 -0.0708 -0.2630 -0.4492
    3MOL0     H  357   0.321   9.494   0.319  0.3300  0.6173 -1.7735
    3MOL0     H  358   0.233   9.579   0.192 -0.2173  1.9063 -0.1827
    3MOL0     H  359   0.245   9.785   0.384  1.2679  0.0333  2.3947
    3MOL0     H  360   0.367   9.752   0.260 -0.4935  0.9529  0.5149
    3MOL0     H  361   0.491   9.634   0.450  1.2763  1.8039 -0.8123
    3MOL0     H  362   0.346   9.645   0.545 -0.6991 -2.4258 -2.4651
    3MOL0     H  363   0.498   9.821   0.601  1.3618 -1.2400 -1.0138
    3MOL0     H  364   0.353   9.888   0.530 -1.0828 -0.9149 -1.4561
    3MOL0     H  365   0.691   9.737   0.561  2.2096 -1.3623 -0.2308
    3MOL0     H  366   0.953   9.626   0.557 -1.4917  0.0168  3.2164
    3MOL0     H  367   1.046   9.764   0.620  0.6420 -0.6615  0.3771
    3MOL0     H  368   0.887   9.730   0.687 -0.8473 -0.6528  0.8617
    3MOL0     H  369   1.286  10.164   0.244 -0.8376 -0.7846  0.3627
    3MOL0     H  370   1.559  10.195   0.241 -1.8715  2.9674  0.6914
    3MOL0     H  371   1.836   9.882   0.450  0.7852  1.4843  0.0605
    3MOL0     H  372   1.782   9.832   0.284 -2.7868  0.3572  0.5336
    3MOL0     H  373   2.008  10.026   0.348 -2.6979  1.1277  0.6197
    3MOL0     H  374   2.016   9.859   0.283 -2.8178 -2.2787  0.8026
    3MOL0     H  375   1.868  10.091   0.140  1.8537  0.9864 -0.0306
    3MOL0     H  376   1.902   9.924   0.079 -0.9225  1.7259 -2.4508
    3MOL0     H  377   2.046  10.090  -0.033  1.0400 -1.0197 -0.4195
    3MOL0     H  378   2.097  10.151   0.121 -0.0761 -1.6225  2.7498
    3MOL0     H  379   2.148   9.868   0.025 -0.7356  0.9411  1.3774
    3MOL0     H  380   2.208   9.942   0.174 -0.9899 -0.3475  0.3499
    3MOL0     H  381   2.266  10.045  -0.123  3.1041 -0.9297 -1.4467
    3MOL0     H  382   2.332  10.107   0.032  1.7027  0.3268 -1.3626
    3MOL0     H  383   2.407   9.853   0.078  0.4485  1.4361  0.7181
    3MOL0     H  384   2.503   9.960  -0.024  1.4900 -2.5937  0.9635
    3MOL0     H  385   2.409   9.867  -0.225 -0.9593 -2.1854 -1.3414
    3MOL0     H  386   2.289   9.771  -0.137 -0.0185  0.9867  0.7482
    3MOL0     H  387   1.593   9.830   0.468 -2.1377  0.2529  0.0896
    3MOL0     H  388   1.350   9.836   0.510  0.1178 -1.8064 -0.9504
    3MOL0     H  389   0.913  10.006   0.216  0.5609  0.3854  0.5070
    3MOL0     H  390   0.677  10.024   0.230 -1.8104 -1.1228 -0.5954
    3MOL0     H  391   0.293  10.017   1.488  1.0982 -0.0431  0.9281
    3MOL0     H  392   0.437   9.860   1.596  0.8360  2.8112 -0.5640
    3MOL0     H  393   0.929   9.478   1.429  0.3496 -1.4134  0.1168
    3MOL0     H  394   1.075   9.379   1.594  0.7638  1.2967 -2.0437
    3MOL0     H  395   1.182   9.304   1.817  0.8320 -0.0235  0.1646
    3MOL0     H  396   1.230   9.472   1.795 -0.5513  2.3120  1.1420
    3MOL0     H  397   1.219   9.496   2.053  0.3532  0.2558  1.2751
    3MOL0     H  398   1.347   9.399   1.970 -0.6852  1.6511 -0.5542
    3MOL0     H  399   1.108   9.274   2.107  0.2922  1.8749 -0.3739
    3MOL0     H  400   1.261   9.320   2.190  0.3815 -0.1418 -0.3288
    3MOL0     H  401   1.267   9.114   1.958  0.9470  0.9630 -0.6877
    3MOL0     H  402   1.263   9.088   2.141 -3.5071  1.6567  0.9864
    3MOL0     H  403   1.661   9.208   2.086  0.2359 -2.0143 -0.7245
    3MOL0     H  404   0.806   9.541   1.897 -1.5022  0.6631  0.4060
    3MOL0     H  405   0.665   9.635   1.733  3.0165  3.9726  2.7090
    4MOL0     O  406   3.291   1.085   0.577 -0.4853  0.3175  0.0986
    4MOL0     C  407   3.375   1.123   0.663 -0.2399 -0.0325  0.4098
    4MOL0     O  408   3.345   1.173   0.786  0.3052  0.0521 -0.0180
    4MOL0     C  409   3.214   1.153   0.835  0.2568 -0.0341  0.4697
    4MOL0     C  410   3.210   1.116   0.975  0.2210 -0.2737  0.5636
    4MOL0     C  411   3.096   1.078   1.041  0.2882 -0.7417  0.7822
    4MOL0     C  412   2.972   1.087   0.973 -1.4333  0.1818  0.8078
    4MOL0     O  413   2.860   1.054   1.036 -0.6320 -0.2388  0.0228
    4MOL0     C  414   2.860   0.983   1.158 -0.1058  0.4875 -0.8104
    4MOL0     C  415   2.721   0.938   1.204  0.3179 -1.0387 -0.8564
    4MOL0     C  416   2.615   1.055   1.206 -0.7002  0.0026  0.3874
    4MOL0     C  417   2.480   0.988   1.253  0.1862  0.4039  0.3494
    4MOL0     C  418   2.375   1.100   1.255 -0.9268  0.1372  0.2242
    4MOL0     C  419   2.262   1.064   1.359 -0.5285 -0.1592 -0.1734
    4MOL0     C  420   2.170   1.188   1.374 -0.7594  0.5362  0.1079
    4MOL0     C  421   2.050   1.165   1.462 -0.3318  0.2709  0.2172
    4MOL0     N  422   2.078   1.073   1.576  0.3136 -0.6379  0.3225
    4MOL0     C  423   2.098   1.123   1.704  0.1144  0.6233 -0.9107
    4MOL0     C  424   2.137   1.003   1.759 -0.2480 -0.8874  0.8244
    4MOL0     C  425   2.203   0.989   1.895 -0.6030 -0.4675  0.1435
    4MOL0     C  426   2.354   0.964   1.891 -0.0366  0.4176 -0.4002
    4MOL0     C  427   2.426   1.080   1.813  0.1900 -0.5347 -0.7730
    4MOL0     C  428   2.570   1.039   1.797  0.3722  0.5544  0.5352
    4MOL0     O  429   2.636   1.145   1.729  0.8107 -0.4104  0.0097
    4MOL0     C  430   2.750   1.134   1.666  0.7652 -0.2141 -0.7927
    4MOL0     C  431   2.784   1.240   1.585  1.1044 -0.2445  0.7836
    4MOL0     C  432   2.902   1.233   1.508  0.0978  0.2284 -0.2286
    4MOL0     C  433   2.932   1.347   1.412  0.5316 -0.2189 -0.6658
    4MOL0     C  434   2.997   1.126   1.531  0.0411  0.5671 -0.2834
    4MOL0     C  435   3.115   1.106   1.449  0.3491 -0.3618  0.0385
    4MOL0     O  436   3.198   1.207   1.440  0.3281  0.4274  0.0684
    4MOL0     C  437   3.316   1.195   1.366 -0.0306 -0.0583  1.0056
    4MOL0     C  438   3.346   1.295   1.274  0.3265 -0.0246 -1.1664
    4MOL0     C  439   3.446   1.275   1.179  0.0225 -0.0640  0.1033
    4MOL0     C  440   3.534   1.165   1.189 -0.6832 -1.1462  0.5752
    4MOL0     O  441   3.625   1.151   1.087 -0.7011  0.5652 -0.2910
    4MOL0     C  442   3.711   1.030   1.085 -0.0884 -0.8833 -0.0960
    4MOL0     C  443   3.851   1.055   1.150 -0.4502  0.6694 -0.2830
    4MOL0     C  444   3.924   1.175   1.074  0.6490 -0.2128 -0.3105
    4MOL0     C  445   4.052   1.208   1.132 -0.1494  0.0120 -0.3312
    4MOL0     C  446   4.161   1.126   1.059 -0.0827 -0.3215 -0.6623
    4MOL0     C  447   4.289   1.165   1.126 -0.2134 -0.2539 -0.0895
    4MOL0     C  448   4.400   1.066   1.103  1.0509  1.2474 -0.7760
    4MOL0     C  449   4.532   1.089   1.169 -0.1006  0.0073  0.0817
    4MOL0    Cl  450   4.617   1.203   1.082  0.0828  0.3479  0.3827
    4MOL0     C  451   3.518   1.081   1.293 -0.1885 -0.5136 -0.1046
    4MOL0     C  452   3.410   1.092   1.382 -0.5557 -0.9125 -0.4809
    4MOL0     O  453   3.135   0.995   1.405 -0.3555  0.2078  0.6256
    4MOL0     C  454   2.965   1.029   1.628 -0.3459  0.0107  0.0173
    4MOL0     C  455   2.843   1.029   1.695 -0.2634  0.3776  0.1272
    4MOL0     N  456   2.128   0.897   1.671  0.1599  0.2165  0.3961
    4MOL0     N  457   2.078   0.938   1.560 -0.5641  0.2092 -0.0075
    4MOL0     C  458   2.965   1.133   0.837 -0.0003  0.6274 -0.0188
    4MOL0     C  459   3.090   1.163   0.769  0.5960  0.7753 -0.3351
    4MOL0     C  460   3.521   1.115   0.624 -0.8440  0.8097 -0.4582
    4MOL0     C  461   3.562   1.061   0.499  0.6628  0.1005  0.2593
    4MOL0     C  462   3.695   1.049   0.469  0.1256  0.7244  0.1463
    4MOL0     C  463   3.792   1.096   0.552 -0.8098 -0.3204  0.0150
    4MOL0     O  464   3.919   1.079   0.493  0.6290  0.6373  0.4709
    4MOL0     C  465   4.024   1.051   0.577  0.2066 -0.8290 -0.3710
    4MOL0     C  466   4.147   1.023   0.493 -0.5102 -0.6136 -0.4069
    4MOL0     C  467   4.265   1.048   0.585 -0.1453  0.1674  0.2128
    4MOL0     C  468   4.387   1.098   0.503 -0.4312 -0.5719  0.4912
    4MOL0     C  469   4.510   1.090   0.594 -0.3677 -0.2104  0.2263
    4MOL0     C  470   4.618   1.093   0.663  0.4149 -0.3491  0.2773
    4MOL0     C  471   3.753   1.162   0.671 -0.6796  0.0539 -0.1172
    4MOL0     C  472   3.621   1.160   0.708  0.0343  0.4101 -0.3049
    4MOL0     H  473   3.311   1.110   1.014  0.4807  0.2498 -0.0237
    4MOL0     H  474   3.093   1.064   1.149 -2.9559  2.4770  1.2780
    4MOL0     H  475   2.923   0.893   1.158 -2.9027 -1.6248 -1.5129
    4MOL0     H  476   2.888   1.062   1.227  1.0253  1.4221 -2.2770
    4MOL0     H  477   2.693   0.860   1.133  0.2800 -1.1176 -0.7566
    4MOL0     H  478   2.727   0.893   1.304  2.1198 -2.0107 -1.3571
    4MOL0     H  479   2.650   1.128   1.280 -2.0628 -2.5831  3.9018
    4MOL0     H  480   2.596   1.094   1.106 -2.4551 -1.1924  0.2063
    4MOL0     H  481   2.439   0.905   1.193 -0.4820 -0.9949  2.5880
    4MOL0     H  482   2.490   0.945   1.353 -1.7369  0.2985  0.5394
    4MOL0     H  483   2.427   1.190   1.288  2.3504 -0.9265 -1.6015
    4MOL0     H  484   2.327   1.105   1.157  1.2356  0.3706 -0.8806
    4MOL0     H  485   2.225   0.968   1.321  5.1646 -1.6404 -3.0745
    4MOL0     H  486   2.313   1.039   1.452 -1.0381 -3.5562 -0.6709
    4MOL0     H  487   2.233   1.271   1.407  1.0377 -1.6613  2.6750
    4MOL0     H  488   2.135   1.212   1.273  0.6763  1.1723 -0.2660
    4MOL0     H  489   1.970   1.118   1.404  0.6328 -0.6069 -0.4382
    4MOL0     H  490   2.018   1.265   1.493 -0.0849  1.0766 -1.9586
    4MOL0     H  491   2.101   1.216   1.760  2.3551 -1.2450  2.4244
    4MOL0     H  492   2.190   1.078   1.956  0.5866  0.9105 -1.5159
    4MOL0     H  493   2.152   0.907   1.947 -2.5957  0.0288 -0.9201
    4MOL0     H  494   2.385   0.867   1.850  1.7117  0.5375  0.5680
    4MOL0     H  495   2.371   0.966   1.999  0.2591 -1.0257 -0.3954
    4MOL0     H  496   2.426   1.168   1.877  1.8224 -1.2733  0.3140
    4MOL0     H  497   2.382   1.105   1.716  0.2516 -1.0712 -0.9431
    4MOL0     H  498   2.583   0.948   1.738  0.6437  1.3304 -0.6395
    4MOL0     H  499   2.622   1.020   1.891 -0.5697  0.4749  1.0465
    4MOL0     H  500   2.721   1.325   1.559  0.8093 -1.2973 -2.4766
    4MOL0     H  501   2.860   1.429   1.425  0.6308 -0.4980  2.0341
    4MOL0     H  502   3.032   1.390   1.418  1.2068 -1.5819 -1.5085
    4MOL0     H  503   2.942   1.316   1.307  2.7155  0.8737 -0.8498
    4MOL0     H  504   3.280   1.379   1.258 -2.9592 -1.8939  1.3291
    4MOL0     H  505   3.456   1.343   1.096 -3.6138  1.2032  0.5197
    4MOL0     H  506   3.657   0.952   1.139 -2.8633  1.6420  1.1082
    4MOL0     H  507   3.721   1.002   0.980 -4.1028 -1.3614 -0.5053
    4MOL0     H  508   3.837   1.066   1.258 -2.2917 -0.0603 -0.3991
    4MOL0     H  509   3.911   0.968   1.123 -0.6142  0.4390  0.0853
    4MOL0     H  510   3.863   1.266   1.079  4.5192  2.7885 -2.3257
    4MOL0     H  511   3.927   1.144   0.970  1.5152 -2.2164  0.2570
    4MOL0     H  512   4.073   1.316   1.132 -0.8556  0.1622  0.3101
    4MOL0     H  513   4.047   1.180   1.238  0.4450 -4.6300 -1.3236
    4MOL0     H  514   4.168   1.151   0.952  0.1182 -1.7150 -0.9989
    4MOL0     H  515   4.139   1.019   1.060 -1.2451 -0.1124  1.1876
    4MOL0     H  516   4.326   1.258   1.082  0.7297 -1.0245 -0.9713
    4MOL0     H  517   4.279   1.186   1.233  0.1509  3.1808 -0.6030
    4MOL0     H  518   4.407   1.061   0.994 -2.0887  1.0108 -1.0617
    4MOL0     H  519   4.361   0.970   1.136 -0.1365  1.3077 -1.8912
    4MOL0     H  520   4.582   0.992   1.177  2.7885  1.4879  1.7510
    4MOL0     H  521   4.515   1.124   1.271  0.5240 -0.4832  0.3641
    4MOL0     H  522   3.598   1.010   1.313 -2.1599 -2.7274  0.4359
    4MOL0     H  523   3.398   1.023   1.465  3.1193  1.6351  2.5297
    4MOL0     H  524   3.033   0.948   1.655 -1.1064  0.3047  3.2180
    4MOL0     H  525   2.808   0.961   1.772  1.7341  1.5641  2.1998
    4MOL0     H  526   2.864   1.156   0.807 -0.4226 -0.4885  0.4713
    4MOL0     H  527   3.082   1.188   0.664 -1.0254  2.2380  0.0737
    4MOL0     H  528   3.479   1.026   0.438  0.1297  0.9680  0.4612
    4MOL0     H  529   3.714   1.000   0.374 -2.6888  1.7341 -1.0309
    4MOL0     H  530   4.039   1.144   0.632  0.8082 -2.0463  1.5975
    4MOL0     H  531   4.006   0.960   0.635 -1.2174  0.0019  0.5475
    4MOL0     H  532   4.153   1.090   0.407 -0.2489 -1.0329 -0.7155
    4MOL0     H  533   4.132   0.922   0.457 -0.7733 -0.5886 -0.3665
    4MOL0     H  534   4.284   0.960   0.647  0.0234 -0.4470 -0.6923
    4MOL0     H  535   4.240   1.122   0.661  0.1970 -2.3791  2.9577
    4MOL0     H  536   4.379   1.205   0.483 -0.3068  0.1090  3.4991
    4MOL0     H  537   4.391   1.038   0.412  2.1231  2.2754 -1.4925
    4MOL0     H  538   4.709   1.098   0.720  1.7486 -4.6609 -1.0584
    4MOL0     H  539   3.825   1.208   0.737 -0.8586 -2.3176  1.9101
    4MOL0     H  540   3.589   1.215   0.795 -1.6351 -0.5954 -0.2356
    5MOL0     O  541   9.195   7.322   5.436  0.2151  0.2561  0.3037
    5MOL0     C  542   9.283   7.400   5.417 -0.0651 -0.3999 -0.0339
    5MOL0     O  543   9.271   7.504   5.332 -0.2280 -0.0968  0.2482
    5MOL0     C  544   9.150   7.519   5.268  0.4441 -0.7090 -0.4406
    5MOL0     C  545   9.038   7.580   5.329 -0.1873 -0.0241  0.9791
    5MOL0     C  546   8.914   7.589   5.263  0.8497  0.5182  0.2969
    5MOL0     C  547   8.905   7.535   5.130  1.0681  0.2809 -0.7083
    5MOL0     O  548   8.799   7.532   5.059 -0.2370  0.3260  0.3292
    5MOL0     C  549   8.681   7.606   5.103 -0.6273  0.2394 -0.3472
    5MOL0     C  550   8.578   7.611   4.981  0.2663 -0.1851  0.2252
    5MOL0     C  551   8.450   7.684   5.011 -0.4690  0.3031  0.2838
    5MOL0     C  552   8.359   7.674   4.884 -0.0776  0.0472  0.2592
    5MOL0     C  553   8.226   7.750   4.892  0.0288  0.1050 -0.4875
    5MOL0     C  554   8.135   7.710   4.783  0.7374  0.4451 -0.3137
    5MOL0     C  555   8.006   7.793   4.769 -0.8616  0.2018 -0.5267
    5MOL0     C  556   7.893   7.711   4.723 -0.3332  0.5736 -0.3127
    5MOL0     N  557   7.776   7.803   4.715  0.0347 -0.1713  0.3970
    5MOL0     C  558   7.676   7.819   4.804 -1.0224  0.5123 -0.2343
    5MOL0     C  559   7.578   7.876   4.738  0.4295 -0.1195  0.2005
    5MOL0     C  560   7.442   7.900   4.791 -0.1292  0.0557  0.5233
    5MOL0     C  561   7.344   7.943   4.683  0.1787 -0.1185  0.1819
    5MOL0     C  562   7.318   7.823   4.585 -0.2810 -0.3266 -0.7487
    5MOL0     C  563   7.205   7.847   4.481  0.0442 -0.4539 -0.0509
    5MOL0     O  564   7.177   7.987   4.464  0.4512  0.7670 -0.4198
    5MOL0     C  565   7.053   8.023   4.411 -0.2709 -0.0785 -0.2708
    5MOL0     C  566   7.017   8.158   4.430 -0.1385 -0.9168 -0.4433
    5MOL0     C  567   6.903   8.221   4.375 -0.2607  0.0610 -0.4360
    5MOL0     C  568   6.887   8.377   4.402  0.1589  0.4968 -0.2897
    5MOL0     C  569   6.806   8.137   4.322  0.7448  0.5741 -0.3778
    5MOL0     C  570   6.673   8.183   4.267 -0.0559 -1.1276  0.5676
    5MOL0     O  571   6.594   8.100   4.189 -1.5288  0.3902 -0.0822
    5MOL0     C  572   6.472   8.126   4.139  0.3692 -0.2660  0.3750
    5MOL0     C  573   6.432   8.259   4.100  0.2378  0.7695  0.6340
    5MOL0     C  574   6.300   8.273   4.051  0.0674  0.1161  0.1295
    5MOL0     C  575   6.218   8.163   4.037  0.3943 -0.3758  0.5526
    5MOL0     O  576   6.089   8.176   4.010  0.2018 -0.5703  0.2065
    5MOL0     C  577   6.034   8.289   3.946  0.1514 -0.0318  0.0111
    5MOL0     C  578   5.889   8.268   3.917  0.2179  0.6724  0.0563
    5MOL0     C  579   5.827   8.370   3.830  0.1997 -0.2972 -0.3257
    5MOL0     C  580   5.679   8.390   3.839  0.2304 -0.0298 -0.2409
    5MOL0     C  581   5.637   8.518   3.783 -0.4709 -0.1328 -0.1605
    5MOL0     C  582   5.484   8.536   3.807 -0.4604 -0.7534  0.1866
    5MOL0     C  583   5.387   8.425   3.753  0.3824 -0.3894 -0.1726
    5MOL0     C  584   5.237   8.458   3.775 -0.0901  0.0756 -0.2597
    5MOL0    Cl  585   5.132   8.331   3.719  0.1039 -0.2506  0.0676
    5MOL0     C  586   6.266   8.036   4.063  0.3789  0.2331 -1.0343
    5MOL0     C  587   6.390   8.018   4.115 -0.3529 -0.0161 -0.5672
    5MOL0     O  588   6.645   8.301   4.293  0.0789  0.3605 -0.0789
    5MOL0     C  589   6.836   7.999   4.310  0.4903 -0.1757 -0.2281
    5MOL0     C  590   6.953   7.942   4.348  0.0938  0.1113 -0.1475
    5MOL0     N  591   7.619   7.910   4.613  0.3461  0.9615 -0.6880
    5MOL0     N  592   7.733   7.854   4.595  0.1607  0.5962 -1.2292
    5MOL0     C  593   9.019   7.482   5.063  0.1111 -0.9583  0.4676
    5MOL0     C  594   9.143   7.480   5.131  0.3667 -0.2251  0.2154
    5MOL0     C  595   9.419   7.367   5.471  0.6340 -0.0779  0.3615
    5MOL0     C  596   9.532   7.432   5.416 -0.6020  0.2931 -0.4879
    5MOL0     C  597   9.667   7.413   5.461  0.0385 -0.1445 -0.3757
    5MOL0     C  598   9.682   7.329   5.572  0.4698 -0.4707 -0.1928
    5MOL0     O  599   9.807   7.311   5.608 -0.0837  0.7381 -0.4857
    5MOL0     C  600   9.840   7.196   5.697  0.4537 -0.2172  0.0704
    5MOL0     C  601   9.996   7.168   5.687 -0.2243 -0.8237  0.3145
    5MOL0     C  602  10.048   7.105   5.824  0.2101  0.6198  0.1798
    5MOL0     C  603  10.186   7.049   5.799  0.7363 -0.0944 -0.2427
    5MOL0     C  604  10.248   6.976   5.906  0.4035 -0.4438 -0.9346
    5MOL0     C  605  10.295   6.927   6.002  0.4341  0.0891 -0.2691
    5MOL0     C  606   9.570   7.261   5.628 -0.0064  0.3878 -0.5692
    5MOL0     C  607   9.442   7.279   5.572  0.3581  0.7442 -0.3525
    5MOL0     H  608   9.045   7.614   5.432  0.3365 -1.9193  1.6136
    5MOL0     H  609   8.840   7.654   5.310  1.3192  1.2433  0.0574
    5MOL0     H  610   8.637   7.554   5.189 -1.9028 -1.4456 -1.9248
    5MOL0     H  611   8.703   7.709   5.131 -3.0104  0.9982 -1.0055
    5MOL0     H  612   8.622   7.659   4.893  0.0322 -1.0241 -0.3651
    5MOL0     H  613   8.555   7.510   4.945 -2.4458  0.3893  0.0695
    5MOL0     H  614   8.405   7.623   5.091  1.5923 -2.3912 -0.4537
    5MOL0     H  615   8.475   7.787   5.036  1.2006  0.3034 -1.2126
    5MOL0     H  616   8.409   7.718   4.797 -0.5396 -1.6800 -0.9356
    5MOL0     H  617   8.347   7.567   4.863 -1.4920  0.2257  0.0588
    5MOL0     H  618   8.169   7.743   4.986  2.3413  1.4415  1.1217
    5MOL0     H  619   8.247   7.857   4.877  2.9099 -0.3426 -0.1069
    5MOL0     H  620   8.194   7.706   4.691 -1.4733 -0.8227 -1.7621
    5MOL0     H  621   8.113   7.606   4.808  1.1538  0.4566  0.1301
    5MOL0     H  622   7.982   7.840   4.865  0.7288  3.1681 -1.4627
    5MOL0     H  623   8.022   7.870   4.694 -0.7124 -0.1478 -0.8564
    5MOL0     H  624   7.876   7.632   4.798  1.5994  0.2281 -0.1819
    5MOL0     H  625   7.917   7.657   4.631 -0.1378 -1.2261  0.7396
    5MOL0     H  626   7.663   7.790   4.908 -1.1435  1.0167 -0.1026
    5MOL0     H  627   7.409   7.813   4.850  0.6625 -0.4785  0.1915
    5MOL0     H  628   7.456   7.989   4.854  0.0809  1.8247 -1.9039
    5MOL0     H  629   7.382   8.023   4.618 -0.5363 -1.6746 -2.2813
    5MOL0     H  630   7.246   7.971   4.724  1.1780  1.1882  1.7927
    5MOL0     H  631   7.292   7.728   4.632 -1.1141  0.0502 -0.4322
    5MOL0     H  632   7.411   7.805   4.530  0.5196  0.7373  0.2125
    5MOL0     H  633   7.112   7.804   4.520  1.6386 -3.4140  0.8706
    5MOL0     H  634   7.227   7.793   4.388 -0.1405 -1.4533  0.4722
    5MOL0     H  635   7.089   8.220   4.482 -0.3654 -1.7185  0.8740
    5MOL0     H  636   6.965   8.414   4.469 -0.0969  0.5764 -0.0337
    5MOL0     H  637   6.901   8.427   4.306 -3.1631  1.0388 -0.6036
    5MOL0     H  638   6.790   8.395   4.450 -0.2769 -0.6615 -0.6820
    5MOL0     H  639   6.499   8.344   4.108 -0.1815  1.2268 -0.4339
    5MOL0     H  640   6.257   8.371   4.028 -0.3760 -0.2330 -0.5463
    5MOL0     H  641   6.059   8.373   4.012  0.6822  0.5299 -0.8786
    5MOL0     H  642   6.086   8.308   3.851  1.2303  0.5659  0.7077
    5MOL0     H  643   5.885   8.167   3.875 -1.2034  0.2524  1.1299
    5MOL0     H  644   5.844   8.254   4.016  1.5179 -3.2985  0.2812
    5MOL0     H  645   5.845   8.348   3.725 -3.0070 -0.6499 -0.9057
    5MOL0     H  646   5.885   8.459   3.856 -0.4265 -0.2774  1.1269
    5MOL0     H  647   5.644   8.302   3.784  1.6028 -0.0860 -1.0826
    5MOL0     H  648   5.649   8.392   3.944 -1.2024 -3.7601 -0.4127
    5MOL0     H  649   5.669   8.535   3.680 -0.5464 -1.9717 -0.5216
    5MOL0     H  650   5.685   8.603   3.833  2.2294 -0.7001 -1.5624
    5MOL0     H  651   5.470   8.552   3.915  1.1818 -2.1510  0.6461
    5MOL0     H  652   5.465   8.633   3.760 -1.9916 -0.8834  0.4853
    5MOL0     H  653   5.401   8.337   3.817 -2.7408 -0.1342  1.0730
    5MOL0     H  654   5.394   8.416   3.644 -3.0399  1.4589 -0.6909
    5MOL0     H  655   5.217   8.548   3.717  0.2552 -0.3213 -0.9980
    5MOL0     H  656   5.231   8.468   3.884  1.7460 -0.6764 -0.0499
    5MOL0     H  657   6.197   7.953   4.064 -2.2944  2.3247  0.1434
    5MOL0     H  658   6.425   7.918   4.139  2.5401  0.6157 -1.7290
    5MOL0     H  659   6.751   7.948   4.265  0.8345 -0.0168 -1.0836
    5MOL0     H  660   6.974   7.839   4.318 -2.0235  0.1608 -2.1099
    5MOL0     H  661   9.003   7.441   4.964  0.3449 -3.6443  1.4452
    5MOL0     H  662   9.235   7.439   5.091  2.1045  3.4772  0.0615
    5MOL0     H  663   9.521   7.513   5.345  0.1667  0.8346 -0.0110
    5MOL0     H  664   9.751   7.466   5.418 -0.9992  1.3075 -0.7015
    5MOL0     H  665   9.810   7.218   5.800  0.1537  1.7526 -0.3978
    5MOL0     H  666   9.792   7.104   5.662  1.0425 -0.2933 -0.5737
    5MOL0     H  667  10.045   7.264   5.672 -0.9428 -0.4897  0.0727
    5MOL0     H  668  10.021   7.108   5.598 -0.3870 -0.0293 -0.2806
    5MOL0     H  669   9.969   7.035   5.853  0.1957  1.1143  1.3577
    5MOL0     H  670  10.069   7.189   5.891  1.6362  2.9206 -2.8982
    5MOL0     H  671  10.251   7.128   5.762  0.9505 -1.2627 -2.5274
    5MOL0     H  672  10.181   6.977   5.717 -0.5734  2.7223 -2.8159
    5MOL0     H  673  10.348   6.895   6.089  1.3238  2.4793  0.1455
    5MOL0     H  674   9.581   7.193   5.712  1.4085  1.5925  0.2651
    5MOL0     H  675   9.368   7.225   5.630  2.3351 -2.0753 -0.2282
    6MOL0     O  676  11.276   0.505   4.678  0.1289  0.5752 -0.6008
    6MOL0     C  677  11.285   0.556   4.788 -0.6758 -1.0405 -0.5597
    6MOL0     O  678  11.180   0.574   4.875  0.0903  0.1368  0.5492
    6MOL0     C  679  11.059   0.513   4.839 -0.6052  0.1786  0.0975
    6MOL0     C  680  10.946   0.583   4.820  0.3369 -0.2328 -0.0927
    6MOL0     C  681  10.826   0.526   4.783 -0.6112 -0.1990  0.1503
    6MOL0     C  682  10.819   0.391   4.775  0.4655 -0.2658  0.6363
    6MOL0     O  683  10.702   0.316   4.751  0.3985 -0.4366  0.2955
    6MOL0     C  684  10.597   0.374   4.662  0.7671 -0.0323  0.7957
    6MOL0     C  685  10.472   0.386   4.744 -0.0743  0.2241  0.3167
    6MOL0     C  686  10.357   0.456   4.674  0.1870  1.0043  1.5621
    6MOL0     C  687  10.330   0.401   4.531  0.2248 -0.7033  0.0194
    6MOL0     C  688  10.273   0.260   4.533  0.5669  0.3726  0.3886
    6MOL0     C  689  10.128   0.248   4.596  0.1795  0.6682 -0.1785
    6MOL0     C  690  10.075   0.113   4.550 -0.0424 -0.0884  0.1262
    6MOL0     C  691   9.952   0.051   4.620  0.4790 -0.0918 -0.3071
    6MOL0     N  692   9.830   0.144   4.613 -0.9200 -0.5976  0.5068
    6MOL0     C  693   9.797   0.230   4.510 -0.6762 -0.3258  0.4216
    6MOL0     C  694   9.681   0.285   4.547 -1.0274  0.1976  0.1043
    6MOL0     C  695   9.618   0.384   4.462  0.1745 -0.0737  0.1671
    6MOL0     C  696   9.472   0.343   4.445 -0.8007  0.2164 -0.3624
    6MOL0     C  697   9.397   0.426   4.345 -0.0849  0.1899  0.9392
    6MOL0     C  698   9.247   0.424   4.376  0.5686  0.3876 -0.9549
    6MOL0     O  699   9.184   0.511   4.282  0.3013  0.2203  0.2928
    6MOL0     C  700   9.047   0.501   4.258 -0.2492  0.1579 -0.0742
    6MOL0     C  701   8.990   0.558   4.140 -0.1528  0.8174  0.0298
    6MOL0     C  702   8.857   0.536   4.112  0.0119 -0.1119  0.3724
    6MOL0     C  703   8.819   0.563   3.970  0.2498 -0.0158 -0.3017
    6MOL0     C  704   8.772   0.470   4.201  0.0939 -0.3356 -0.1276
    6MOL0     C  705   8.621   0.453   4.183  0.1204  0.1838 -0.1391
    6MOL0     O  706   8.542   0.423   4.288 -0.4757 -0.4707  0.0667
    6MOL0     C  707   8.415   0.382   4.256  0.1732  0.6169  0.7431
    6MOL0     C  708   8.319   0.460   4.193 -0.3535 -0.0954 -0.2405
    6MOL0     C  709   8.197   0.403   4.158 -0.0171 -0.0813 -0.3125
    6MOL0     C  710   8.163   0.274   4.183  0.5799 -0.3450 -0.0514
    6MOL0     O  711   8.057   0.214   4.125 -0.4681 -0.4813 -0.0473
    6MOL0     C  712   8.040   0.225   3.981  0.3441  0.2517  0.0074
    6MOL0     C  713   7.943   0.112   3.932  0.6378 -0.1379  0.6625
    6MOL0     C  714   7.928   0.105   3.783  0.2110 -0.4266  0.3877
    6MOL0     C  715   7.837   0.208   3.721 -0.0390  0.5467 -0.2346
    6MOL0     C  716   7.686   0.177   3.743 -0.5743  0.2261  0.2295
    6MOL0     C  717   7.600   0.283   3.667  0.4617  0.1413  0.3008
    6MOL0     C  718   7.466   0.302   3.742 -0.4814 -0.5048  0.3464
    6MOL0     C  719   7.362   0.380   3.658 -0.4232 -0.3142 -0.5247
    6MOL0    Cl  720   7.225   0.415   3.772 -0.1490  0.2424 -0.0147
    6MOL0     C  721   8.247   0.208   4.271 -0.6177  0.7006 -0.1490
    6MOL0     C  722   8.368   0.263   4.309  0.0592 -0.9839  1.7545
    6MOL0     O  723   8.571   0.488   4.074 -0.1124 -0.3121  0.9930
    6MOL0     C  724   8.826   0.426   4.329  0.3069 -0.1898  0.6039
    6MOL0     C  725   8.959   0.446   4.350 -0.8084  0.2846 -0.8117
    6MOL0     N  726   9.639   0.229   4.665  0.2154  0.8982 -0.1699
    6MOL0     N  727   9.725   0.146   4.700  0.6078 -0.0866 -0.0786
    6MOL0     C  728  10.937   0.317   4.792 -1.0227  0.9761  0.4435
    6MOL0     C  729  11.062   0.378   4.818  0.6364 -0.9149 -0.2865
    6MOL0     C  730  11.415   0.606   4.837 -1.2385 -0.4844 -0.7915
    6MOL0     C  731  11.522   0.643   4.757 -0.0861 -0.4617 -0.4600
    6MOL0     C  732  11.635   0.697   4.814 -0.5217 -0.0944  0.1595
    6MOL0     C  733  11.655   0.717   4.952 -0.4797 -0.3134 -0.1546
    6MOL0     O  734  11.780   0.749   5.017 -0.1874 -0.2989  0.2961
    6MOL0     C  735  11.895   0.682   4.964 -0.4399  0.1663 -0.7606
    6MOL0     C  736  12.008   0.777   4.997 -0.2752  0.1705 -0.9350
    6MOL0     C  737  12.158   0.738   4.984  0.2198  0.0932 -0.3824
    6MOL0     C  738  12.229   0.678   5.109 -0.9333  0.1943 -0.1646
    6MOL0     C  739  12.151   0.564   5.175 -0.3863 -0.1870  0.1627
    6MOL0     C  740  12.107   0.467   5.230  0.0662  0.1817  0.4688
    6MOL0     C  741  11.545   0.684   5.026 -0.4645  1.2682  0.3778
    6MOL0     C  742  11.426   0.630   4.972 -0.2749 -0.3491  0.6119
    6MOL0     H  743  10.939   0.688   4.847 -0.0754 -0.1295 -0.5782
    6MOL0     H  744  10.732   0.581   4.786 -3.8146 -4.9714 -1.4129
    6MOL0     H  745  10.620   0.470   4.615  0.1248 -0.0116  0.5233
    6MOL0     H  746  10.589   0.313   4.572 -1.8181  1.0535  0.2030
    6MOL0     H  747  10.442   0.292   4.791  1.4792  0.0072  0.9552
    6MOL0     H  748  10.500   0.451   4.828  1.4112 -1.4006  1.1477
    6MOL0     H  749  10.267   0.449   4.735 -0.9839  2.2265  0.0596
    6MOL0     H  750  10.366   0.564   4.656 -1.6639  1.1168  1.0433
    6MOL0     H  751  10.258   0.461   4.475  0.6147 -2.4126 -2.4613
    6MOL0     H  752  10.424   0.393   4.476 -0.0252 -0.2333 -0.4847
    6MOL0     H  753  10.261   0.231   4.429 -0.9536 -0.7755  0.8627
    6MOL0     H  754  10.343   0.189   4.577 -1.3408 -3.1098 -1.7988
    6MOL0     H  755  10.138   0.233   4.704 -0.1647 -0.8084 -0.3277
    6MOL0     H  756  10.064   0.335   4.582 -1.1864 -0.1487  0.7701
    6MOL0     H  757  10.047   0.118   4.444 -0.4528  1.1314  0.2865
    6MOL0     H  758  10.159   0.043   4.550  0.1461  0.1103 -1.0225
    6MOL0     H  759   9.970   0.051   4.728  0.8305  3.9663 -0.2033
    6MOL0     H  760   9.926  -0.050   4.590  1.0848 -0.1276 -0.7234
    6MOL0     H  761   9.858   0.248   4.422 -0.9341 -0.8353  0.1361
    6MOL0     H  762   9.625   0.480   4.512  2.7793  0.7627 -1.6178
    6MOL0     H  763   9.658   0.382   4.360 -2.8978 -1.2903 -1.1740
    6MOL0     H  764   9.415   0.357   4.538 -2.0136  3.3675 -1.4070
    6MOL0     H  765   9.475   0.236   4.425  2.6661 -0.3539  2.2919
    6MOL0     H  766   9.423   0.390   4.245 -1.3903 -0.0118  0.6539
    6MOL0     H  767   9.434   0.528   4.357 -1.4499  0.6318  1.5877
    6MOL0     H  768   9.233   0.464   4.477 -2.0204  0.9502 -1.4571
    6MOL0     H  769   9.202   0.324   4.378  0.6717  0.3185 -1.9313
    6MOL0     H  770   9.056   0.603   4.066  0.6323  0.2383  0.3761
    6MOL0     H  771   8.736   0.635   3.975 -1.8911 -2.4363  2.8688
    6MOL0     H  772   8.898   0.622   3.922  0.0498  2.6035  2.2665
    6MOL0     H  773   8.789   0.471   3.920 -2.9361 -0.1072  1.5116
    6MOL0     H  774   8.343   0.560   4.159 -0.5920 -0.7766 -2.6018
    6MOL0     H  775   8.127   0.464   4.101 -1.3661 -0.8732  0.4590
    6MOL0     H  776   8.006   0.325   3.953  1.0159 -0.2243 -2.8042
    6MOL0     H  777   8.136   0.211   3.931  0.1566 -0.1238 -0.2567
    6MOL0     H  778   7.978   0.013   3.963 -2.1557 -2.2761 -2.3578
    6MOL0     H  779   7.849   0.123   3.988  1.1788 -0.5260  1.6671
    6MOL0     H  780   7.886   0.005   3.764  0.5802 -0.4801 -0.1915
    6MOL0     H  781   8.029   0.115   3.741  0.7403  4.2088  2.1669
    6MOL0     H  782   7.852   0.310   3.758 -5.7478  2.3598 -1.8689
    6MOL0     H  783   7.857   0.213   3.613 -3.3094  1.2182 -0.9028
    6MOL0     H  784   7.661   0.169   3.850 -2.0987 -3.0447 -0.2344
    6MOL0     H  785   7.674   0.072   3.712  0.6163 -0.4458  1.8755
    6MOL0     H  786   7.657   0.376   3.657 -1.0234  0.9874 -0.6208
    6MOL0     H  787   7.580   0.246   3.567  0.1145 -0.5692  0.6272
    6MOL0     H  788   7.478   0.344   3.842 -2.6442  0.6507  0.1717
    6MOL0     H  789   7.428   0.200   3.758  2.6306 -1.5684  1.7073
    6MOL0     H  790   7.334   0.316   3.574  1.2700  1.4450 -2.5565
    6MOL0     H  791   7.404   0.466   3.605  0.9813 -1.0961 -0.7114
    6MOL0     H  792   8.219   0.110   4.307 -2.4943  0.7535 -1.3399
    6MOL0     H  793   8.434   0.214   4.380 -0.7729 -2.8570  1.2912
    6MOL0     H  794   8.753   0.379   4.394 -1.1631 -2.1848 -2.2252
    6MOL0     H  795   8.989   0.428   4.453 -2.8135  1.0681 -0.0262
    6MOL0     H  796  10.923   0.212   4.769 -0.6486  1.3860 -1.8346
    6MOL0     H  797  11.154   0.321   4.830  1.4879  0.4203 -0.2926
    6MOL0     H  798  11.525   0.641   4.648 -0.2064 -0.2870 -0.4676
    6MOL0     H  799  11.720   0.703   4.747 -1.5046 -1.8758 -1.3237
    6MOL0     H  800  11.906   0.586   5.015 -0.6761  0.4960 -0.0671
    6MOL0     H  801  11.911   0.669   4.857  0.9462  0.4453 -0.6008
    6MOL0     H  802  11.998   0.791   5.105  2.2636  1.4972 -0.8024
    6MOL0     H  803  11.992   0.880   4.963  0.6886 -0.2067 -2.6301
    6MOL0     H  804  12.210   0.833   4.968 -3.3108  2.1507 -0.8066
    6MOL0     H  805  12.171   0.670   4.899 -0.3767 -0.6977  0.1504
    6MOL0     H  806  12.245   0.761   5.179 -0.6821 -0.1888  0.2323
    6MOL0     H  807  12.323   0.634   5.075 -1.2549 -0.8031  0.2099
    6MOL0     H  808  12.064   0.389   5.290 -2.8136  2.2411  1.3075
    6MOL0     H  809  11.552   0.695   5.134 -0.9117  2.4948  0.2950
    6MOL0     H  810  11.343   0.613   5.039 -1.7484 -0.9622 -1.2792
    7MOL0     O  811   5.367  10.369   2.273 -0.4763  0.3182 -0.3936
    7MOL0     C  812   5.426  10.395   2.165 -0.7403  0.9258  0.0415
    7MOL0     O  813   5.378  10.462   2.058  0.4597  0.4159 -0.0374
    7MOL0     C  814   5.249  10.507   2.067 -0.5208 -0.0646  0.3992
    7MOL0     C  815   5.220  10.598   2.159  0.1050 -0.1018 -0.4481
    7MOL0     C  816   5.097  10.668   2.166 -0.3177 -0.1387  0.8583
    7MOL0     C  817   5.000  10.644   2.063 -0.9860 -0.5713 -1.2414
    7MOL0     O  818   4.873  10.691   2.076  0.7825  0.8049 -0.0824
    7MOL0     C  819   4.831  10.760   2.197 -0.1756  0.0671  0.3013
    7MOL0     C  820   4.681  10.767   2.216  0.2824  1.1148  0.2942
    7MOL0     C  821   4.616  10.865   2.117  0.3161  1.3764 -0.0679
    7MOL0     C  822   4.474  10.817   2.100  0.3114 -0.2320 -0.6252
    7MOL0     C  823   4.406  10.917   2.003  0.0808  0.9735  0.4593
    7MOL0     C  824   4.255  10.879   1.990 -0.3156 -0.9076  0.3499
    7MOL0     C  825   4.167  10.905   2.121 -0.3357 -0.0087  0.4773
    7MOL0     C  826   4.065  11.008   2.090  0.0463 -0.7870 -0.7780
    7MOL0     N  827   3.977  11.056   2.204 -0.2002 -0.5929 -0.0918
    7MOL0     C  828   3.957  11.187   2.233 -0.7665 -0.4821 -0.1681
    7MOL0     C  829   3.859  11.189   2.322 -0.1938 -0.7027  0.2392
    7MOL0     C  830   3.790  11.305   2.377 -0.0387 -0.0757  0.7396
    7MOL0     C  831   3.809  11.316   2.531 -0.0619  0.4986 -0.9345
    7MOL0     C  832   3.726  11.441   2.585 -0.8718  0.1644 -0.6375
    7MOL0     C  833   3.756  11.452   2.737  0.0337 -0.4037  0.0388
    7MOL0     O  834   3.688  11.570   2.775  1.0555 -0.2807 -0.9414
    7MOL0     C  835   3.553  11.586   2.762  0.2366  0.3532  0.3046
    7MOL0     C  836   3.513  11.720   2.738 -0.2793  0.3324 -0.3390
    7MOL0     C  837   3.375  11.740   2.730  0.7834  0.4634  0.4064
    7MOL0     C  838   3.334  11.869   2.678 -0.3577 -0.4134 -0.1898
    7MOL0     C  839   3.277  11.639   2.737  0.4456 -0.3008  0.3800
    7MOL0     C  840   3.133  11.658   2.725  0.5970 -0.0293 -0.0254
    7MOL0     O  841   3.052  11.545   2.754  0.1677 -0.6859  0.3642
    7MOL0     C  842   2.916  11.546   2.720 -0.9376 -0.1598  0.3802
    7MOL0     C  843   2.871  11.535   2.584 -0.7746 -0.5172 -0.1753
    7MOL0     C  844   2.734  11.533   2.556  0.7359  0.3377 -0.4388
    7MOL0     C  845   2.633  11.549   2.657 -0.0072 -0.1016  0.4984
    7MOL0     O  846   2.501  11.545   2.624  0.0649 -0.2479 -0.5795
    7MOL0     C  847   2.459  11.613   2.507 -0.2574  0.1773  0.0730
    7MOL0     C  848   2.313  11.617   2.518  0.2627  0.4893 -1.1427
    7MOL0     C  849   2.238  11.484   2.536  0.3426  0.1866 -0.6502
    7MOL0     C  850   2.087  11.524   2.544 -0.1318 -0.7336 -0.7478
    7MOL0     C  851   2.004  11.397   2.577  0.1146 -0.1213 -0.0769
    7MOL0     C  852   1.851  11.410   2.594 -0.1640 -0.1614  0.2332
    7MOL0     C  853   1.772  11.283   2.608 -1.1768 -0.5192 -0.2853
    7MOL0     C  854   1.630  11.325   2.653  0.1016  0.0700 -0.2134
    7MOL0    Cl  855   1.550  11.413   2.534 -0.5111  0.1739 -0.4752
    7MOL0     C  856   2.682  11.555   2.790  0.3059 -0.2740  0.4448
    7MOL0     C  857   2.817  11.563   2.817 -0.0119  0.9314 -0.4943
    7MOL0     O  858   3.075  11.761   2.698 -0.0659 -0.2657  0.6071
    7MOL0     C  859   3.317  11.513   2.783  0.4293 -0.0223 -0.3039
    7MOL0     C  860   3.459  11.491   2.799  0.3611 -0.0998  0.6735
    7MOL0     N  861   3.822  11.057   2.343 -0.1302 -0.7608 -0.2358
    7MOL0     N  862   3.891  10.981   2.272 -0.3142  1.0825  0.3483
    7MOL0     C  863   5.036  10.556   1.962  1.0675 -0.9065  0.5540
    7MOL0     C  864   5.153  10.486   1.965 -0.7764 -0.1214 -0.2307
    7MOL0     C  865   5.565  10.350   2.158 -0.3143  0.1672 -0.2001
    7MOL0     C  866   5.626  10.338   2.033  0.0010  0.1949  0.0917
    7MOL0     C  867   5.758  10.307   2.024  0.2732 -0.8433 -0.4406
    7MOL0     C  868   5.834  10.283   2.142 -0.5388 -0.1772 -0.1579
    7MOL0     O  869   5.964  10.238   2.151 -0.3772  0.2010  0.8714
    7MOL0     C  870   6.014  10.148   2.052  0.4052 -0.6558  0.6190
    7MOL0     C  871   5.952  10.009   2.074 -0.2393  0.7971  0.3131
    7MOL0     C  872   6.018   9.904   1.991 -0.8019 -0.1693  0.2213
    7MOL0     C  873   5.938   9.770   1.993 -0.2427 -0.7253  0.0820
    7MOL0     C  874   5.828   9.761   1.894  0.1090 -0.3049  0.5412
    7MOL0     C  875   5.720   9.769   1.837  0.1933  0.4820 -0.3276
    7MOL0     C  876   5.771  10.281   2.265  0.0167  0.0782 -0.3151
    7MOL0     C  877   5.635  10.322   2.274 -0.1272 -0.5234 -0.1038
    7MOL0     H  878   5.299  10.617   2.231  0.6696 -0.9990 -0.8025
    7MOL0     H  879   5.074  10.729   2.252  1.0260  2.9602 -0.8341
    7MOL0     H  880   4.866  10.715   2.290 -1.0618 -0.6585  0.2980
    7MOL0     H  881   4.872  10.862   2.197 -1.0803  0.4452  0.5108
    7MOL0     H  882   4.643  10.666   2.195 -0.1503  1.6111 -1.5436
    7MOL0     H  883   4.648  10.787   2.318  1.3067 -1.8640  1.3402
    7MOL0     H  884   4.620  10.963   2.166  2.2430  1.6597 -0.7120
    7MOL0     H  885   4.674  10.864   2.025  1.0244 -0.6645  0.3439
    7MOL0     H  886   4.460  10.714   2.065  2.5869 -2.1654  3.3665
    7MOL0     H  887   4.422  10.822   2.196  1.3618 -2.1647  0.1201
    7MOL0     H  888   4.410  11.023   2.029 -0.3420  0.9771  0.5039
    7MOL0     H  889   4.458  10.907   1.907  2.7272  0.9736  1.7961
    7MOL0     H  890   4.208  10.937   1.910  0.4610  0.6264  0.9639
    7MOL0     H  891   4.249  10.772   1.968  2.0114 -0.7924 -1.2409
    7MOL0     H  892   4.110  10.821   2.161 -0.0418  0.1289  1.1910
    7MOL0     H  893   4.234  10.945   2.197  1.5214 -1.7527 -0.1470
    7MOL0     H  894   3.996  10.976   2.012 -0.8688 -0.7229 -0.0121
    7MOL0     H  895   4.117  11.098   2.054 -0.6327  0.6448  1.5572
    7MOL0     H  896   4.010  11.271   2.189 -3.3761  2.0748  1.2027
    7MOL0     H  897   3.826  11.394   2.323 -0.7308 -1.8953 -3.1022
    7MOL0     H  898   3.687  11.306   2.342  0.9039  0.4194 -2.3526
    7MOL0     H  899   3.916  11.321   2.553  0.4539 -2.0083 -2.4750
    7MOL0     H  900   3.779  11.227   2.586 -2.2389  1.5889 -0.2696
    7MOL0     H  901   3.617  11.427   2.576 -1.0759  1.4932 -0.4371
    7MOL0     H  902   3.760  11.530   2.532  1.2860 -0.5189 -0.4709
    7MOL0     H  903   3.864  11.451   2.758  0.7142 -1.4290 -2.9592
    7MOL0     H  904   3.716  11.362   2.784  1.8877 -1.6775 -0.6872
    7MOL0     H  905   3.578  11.806   2.723  0.6804  0.1667  2.3304
    7MOL0     H  906   3.415  11.934   2.644 -1.3141  0.8562 -0.1145
    7MOL0     H  907   3.265  11.858   2.594 -1.5728 -1.1634  0.8617
    7MOL0     H  908   3.273  11.914   2.757 -0.7385 -2.0393  0.4833
    7MOL0     H  909   2.951  11.508   2.516  0.8457  0.0381  1.4118
    7MOL0     H  910   2.712  11.521   2.451  2.7057 -1.5963 -0.6947
    7MOL0     H  911   2.505  11.711   2.495  1.1695 -0.3995  0.5846
    7MOL0     H  912   2.485  11.556   2.417  1.1272  0.2342  0.4233
    7MOL0     H  913   2.285  11.679   2.603 -1.7500 -3.7805  1.6854
    7MOL0     H  914   2.270  11.650   2.423 -0.8992  1.6224 -0.2604
    7MOL0     H  915   2.261  11.430   2.628  2.4281  3.1099  0.7156
    7MOL0     H  916   2.251  11.417   2.451  1.5078  3.1117 -2.9823
    7MOL0     H  917   2.089  11.602   2.621 -1.3990 -0.9133 -0.5164
    7MOL0     H  918   2.049  11.581   2.459 -1.1999  0.6374  0.5820
    7MOL0     H  919   2.055  11.359   2.666 -0.6335 -0.3166  0.2751
    7MOL0     H  920   2.024  11.338   2.487  2.2756  1.5398 -0.7692
    7MOL0     H  921   1.828  11.468   2.684 -0.7029  0.8011 -0.5013
    7MOL0     H  922   1.813  11.464   2.506  0.9346  0.5228  0.1552
    7MOL0     H  923   1.830  11.221   2.677  2.1161  1.6503 -0.8426
    7MOL0     H  924   1.775  11.224   2.516  1.7043 -1.3192  0.2043
    7MOL0     H  925   1.641  11.380   2.747 -1.5686 -0.2717  0.2170
    7MOL0     H  926   1.589  11.227   2.681  1.5873 -0.4867  0.1569
    7MOL0     H  927   2.609  11.549   2.869  1.2418  0.5754  1.4095
    7MOL0     H  928   2.858  11.598   2.911  2.7419 -1.0825 -0.8387
    7MOL0     H  929   3.250  11.432   2.809  0.8736  0.1502  1.4985
    7MOL0     H  930   3.504  11.394   2.819  0.4305  0.3145  2.7876
    7MOL0     H  931   4.962  10.529   1.888  1.1665 -0.6455  0.3550
    7MOL0     H  932   5.176  10.407   1.894 -1.8074 -1.4039  0.7936
    7MOL0     H  933   5.556  10.356   1.952 -1.0528 -2.4622  0.3183
    7MOL0     H  934   5.794  10.296   1.922  1.8885  0.4937 -0.0676
    7MOL0     H  935   5.988  10.181   1.951  0.5370 -2.0143  0.1217
    7MOL0     H  936   6.123  10.136   2.062  0.7483 -1.3701 -2.7182
    7MOL0     H  937   5.844  10.004   2.053  0.0203 -0.2243 -0.8704
    7MOL0     H  938   5.958   9.998   2.183  0.5531 -1.9499  0.0702
    7MOL0     H  939   6.121   9.888   2.022  0.7168  3.2958 -2.3295
    7MOL0     H  940   6.039   9.933   1.888  1.6499  1.1612  1.0290
    7MOL0     H  941   5.891   9.758   2.092 -0.1966  0.0140  0.1979
    7MOL0     H  942   5.997   9.680   1.973  0.8247  0.0178 -0.1616
    7MOL0     H  943   5.627   9.779   1.784  0.3250  0.5555 -0.5463
    7MOL0     H  944   5.820  10.247   2.356  0.2496 -2.8009 -1.4096
    7MOL0     H  945   5.592  10.306   2.373 -1.3756 -2.6463 -0.9212
    8MOL0     O  946   5.721   0.952   9.243 -0.1825 -0.0816 -0.5991
    8MOL0     C  947   5.722   0.862   9.324 -0.5453  0.5707 -0.6841
    8MOL0     O  948   5.613   0.823   9.402 -0.5005 -0.8177  0.2278
    8MOL0     C  949   5.498   0.887   9.378  0.4750  0.0061 -0.7316
    8MOL0     C  950   5.458   1.012   9.424 -0.3492  0.0176 -0.0871
    8MOL0     C  951   5.337   1.073   9.391  0.0181 -0.7899 -0.2662
    8MOL0     C  952   5.231   1.003   9.324  0.4276 -0.1705 -0.0776
    8MOL0     O  953   5.117   1.075   9.288 -0.1212  1.0752  0.1364
    8MOL0     C  954   5.005   1.013   9.216  0.6314  0.1561 -0.0227
    8MOL0     C  955   4.886   1.104   9.238 -0.0323  0.3414  0.5486
    8MOL0     C  956   4.768   1.048   9.161  0.6962 -0.1866 -0.4602
    8MOL0     C  957   4.638   1.136   9.179  0.3367  0.0469  0.0345
    8MOL0     C  958   4.518   1.059   9.114  0.8099  0.6285 -0.6319
    8MOL0     C  959   4.449   0.977   9.218  0.0863 -0.7926 -0.5057
    8MOL0     C  960   4.342   0.886   9.170 -0.0940 -0.9338  0.4893
    8MOL0     C  961   4.311   0.795   9.281  0.9273  0.5662 -0.0385
    8MOL0     N  962   4.214   0.685   9.246 -0.5722  0.0448 -0.1034
    8MOL0     C  963   4.180   0.583   9.335  0.6179 -0.2841  0.0262
    8MOL0     C  964   4.083   0.521   9.262  0.1468 -0.2432  0.1983
    8MOL0     C  965   4.036   0.381   9.312 -0.3796  0.9105 -0.5290
    8MOL0     C  966   3.889   0.390   9.354  0.3368  0.1106 -0.5573
    8MOL0     C  967   3.818   0.259   9.399  0.0934  1.0473  0.4080
    8MOL0     C  968   3.705   0.295   9.494 -0.7293  0.3002  0.4499
    8MOL0     O  969   3.570   0.286   9.450 -0.2577  0.1327  0.2938
    8MOL0     C  970   3.469   0.293   9.540 -0.2822  0.5175 -0.5548
    8MOL0     C  971   3.345   0.321   9.482  0.3861  0.3459 -0.5908
    8MOL0     C  972   3.227   0.358   9.565  0.0603  0.3799  0.4694
    8MOL0     C  973   3.095   0.377   9.484  0.4764  0.1048  0.9447
    8MOL0     C  974   3.251   0.357   9.708  0.1565  0.5736 -0.1239
    8MOL0     C  975   3.133   0.382   9.806 -0.6745 -0.0042 -0.3307
    8MOL0     O  976   3.150   0.333   9.931 -0.4283  0.4732  0.8770
    8MOL0     C  977   3.047   0.335  10.017  0.2671 -0.8404 -0.1054
    8MOL0     C  978   3.059   0.391  10.142  0.5612 -1.0703 -0.0686
    8MOL0     C  979   2.943   0.401  10.224 -0.1020 -0.5910  0.0877
    8MOL0     C  980   2.814   0.352  10.189 -0.3625  1.1839  0.2179
    8MOL0     O  981   2.707   0.352  10.269 -0.4070 -0.2462  0.2539
    8MOL0     C  982   2.735   0.312  10.398 -0.1941  0.3320  0.0649
    8MOL0     C  983   2.612   0.307  10.480  0.3353 -0.2435 -0.8596
    8MOL0     C  984   2.542   0.173  10.451  0.4386 -0.1552 -0.8824
    8MOL0     C  985   2.403   0.177  10.521 -0.4383  0.3985  0.1419
    8MOL0     C  986   2.354   0.032  10.531  0.3230 -0.5703 -0.1506
    8MOL0     C  987   2.227   0.026  10.609  0.7501 -0.5406  0.3721
    8MOL0     C  988   2.215  -0.100  10.687  0.2408  0.4122 -0.1889
    8MOL0     C  989   2.306  -0.101  10.806 -1.0047 -0.5272 -0.0682
    8MOL0    Cl  990   2.226  -0.209  10.922 -0.2674  0.0095  0.1236
    8MOL0     C  991   2.799   0.300  10.057 -0.6145 -0.0112  0.7344
    8MOL0     C  992   2.914   0.298   9.978  0.2761  0.7823  1.6171
    8MOL0     O  993   3.060   0.470   9.770  0.9641  0.3858 -0.6070
    8MOL0     C  994   3.377   0.333   9.757  0.0499 -0.4586 -0.7284
    8MOL0     C  995   3.480   0.302   9.681  0.4047  1.0916 -0.0252
    8MOL0     N  996   4.056   0.574   9.138 -0.4699 -0.0022 -0.0577
    8MOL0     N  997   4.137   0.680   9.135  0.7342  0.2642  0.9906
    8MOL0     C  998   5.269   0.876   9.287 -0.6323  0.2018  0.1895
    8MOL0     C  999   5.406   0.822   9.305  0.6153  0.5043  0.1839
    8MOL0     C 1000   5.850   0.802   9.363  0.0327  0.7217 -0.7716
    8MOL0     C 1001   5.851   0.682   9.434 -0.5736 -0.3891  0.4234
    8MOL0     C 1002   5.973   0.622   9.471 -0.3290  0.5416  0.2926
    8MOL0     C 1003   6.090   0.673   9.424 -0.6226 -0.2999 -0.6066
    8MOL0     O 1004   6.200   0.609   9.466  0.2512 -0.2616 -0.2334
    8MOL0     C 1005   6.322   0.625   9.393 -0.2898 -0.4912 -0.2034
    8MOL0     C 1006   6.428   0.522   9.432 -0.7239 -0.3615 -0.2284
    8MOL0     C 1007   6.545   0.525   9.338 -0.3665 -0.2769  0.3074
    8MOL0     C 1008   6.656   0.442   9.398 -0.3150  0.3807 -0.3050
    8MOL0     C 1009   6.766   0.436   9.292  0.2462  0.0604 -0.7210
    8MOL0     C 1010   6.854   0.433   9.213 -0.7743  0.7801  0.0455
    8MOL0     C 1011   6.093   0.797   9.350 -0.2304  0.7599 -0.4047
    8MOL0     C 1012   5.972   0.860   9.321 -0.3445 -0.9064 -0.7378
    8MOL0     H 1013   5.529   1.070   9.481  0.0185  1.5000 -1.9347
    8MOL0     H 1014   5.305   1.167   9.434  2.7659 -0.5571  1.4873
    8MOL0     H 1015   5.020   1.004   9.108  1.4761 -1.5657  0.2021
    8MOL0     H 1016   4.982   0.911   9.249 -2.3063  1.1054  1.2528
    8MOL0     H 1017   4.856   1.100   9.343 -0.0256  0.2936  0.5482
    8MOL0     H 1018   4.918   1.202   9.203 -0.7424  0.2241 -0.4878
    8MOL0     H 1019   4.795   1.056   9.055 -0.5543  0.5779 -0.7427
    8MOL0     H 1020   4.765   0.941   9.183  0.9097  0.1970  1.7125
    8MOL0     H 1021   4.624   1.159   9.285  1.8162 -0.9585  0.4801
    8MOL0     H 1022   4.655   1.233   9.130 -0.8752  1.8385  2.8952
    8MOL0     H 1023   4.443   1.128   9.075  2.2490  1.3702 -2.1537
    8MOL0     H 1024   4.557   0.992   9.037  1.9791 -0.4788  0.8583
    8MOL0     H 1025   4.524   0.923   9.277  0.8446 -0.1147 -0.8273
    8MOL0     H 1026   4.397   1.051   9.279 -2.8017 -3.1537  0.1084
    8MOL0     H 1027   4.259   0.950   9.140 -1.2679 -0.7974  3.6630
    8MOL0     H 1028   4.384   0.829   9.087 -0.9730 -0.3593 -0.3782
    8MOL0     H 1029   4.263   0.847   9.365  1.4604  3.2285 -1.2718
    8MOL0     H 1030   4.399   0.755   9.331 -1.1104 -2.0431  1.7227
    8MOL0     H 1031   4.215   0.554   9.434  0.7752 -2.2145 -0.5602
    8MOL0     H 1032   4.033   0.291   9.249  0.7911 -1.0159  2.0008
    8MOL0     H 1033   4.097   0.352   9.398 -0.8126  1.6605  0.0437
    8MOL0     H 1034   3.835   0.439   9.272 -0.1782  1.4835  0.5464
    8MOL0     H 1035   3.888   0.467   9.432  2.6223  0.6901 -1.0407
    8MOL0     H 1036   3.904   0.213   9.448 -0.0012  1.2553  0.7772
    8MOL0     H 1037   3.781   0.201   9.314 -0.0013 -0.9107  1.7237
    8MOL0     H 1038   3.720   0.396   9.533 -0.4168 -0.5051  2.5300
    8MOL0     H 1039   3.724   0.240   9.587  1.4783  1.6027  0.8436
    8MOL0     H 1040   3.335   0.333   9.374 -0.2464 -0.5635 -0.6381
    8MOL0     H 1041   3.102   0.351   9.378 -1.8621  0.3166  0.6886
    8MOL0     H 1042   3.047   0.295   9.538 -0.0008 -0.3812 -0.1927
    8MOL0     H 1043   3.047   0.474   9.503  1.4924  0.3731  2.3761
    8MOL0     H 1044   3.155   0.427  10.175  0.9772 -3.0442  1.0181
    8MOL0     H 1045   2.972   0.452  10.315  3.1903  0.9175 -1.6418
    8MOL0     H 1046   2.780   0.212  10.404  0.9392  0.7789 -0.5840
    8MOL0     H 1047   2.801   0.387  10.443 -0.2694  0.6961 -0.4250
    8MOL0     H 1048   2.632   0.306  10.587 -4.1426 -2.6863  0.1904
    8MOL0     H 1049   2.554   0.394  10.447  2.0047  1.2254 -0.1160
    8MOL0     H 1050   2.608   0.093  10.484 -0.0396 -0.5087 -0.7743
    8MOL0     H 1051   2.522   0.166  10.344  1.3462  0.4207 -1.1045
    8MOL0     H 1052   2.401   0.206  10.626  0.2697 -1.4169  0.6995
    8MOL0     H 1053   2.335   0.236  10.458  0.3575 -0.0364 -1.1787
    8MOL0     H 1054   2.430  -0.026  10.584  1.8985  0.8637 -0.7601
    8MOL0     H 1055   2.349   0.000  10.426  2.6314  3.1024 -1.5778
    8MOL0     H 1056   2.205   0.111  10.674 -2.5308  1.1928 -2.6392
    8MOL0     H 1057   2.151   0.029  10.531  3.2455  3.1646 -2.2417
    8MOL0     H 1058   2.241  -0.188  10.627 -3.8679 -1.5875  0.6360
    8MOL0     H 1059   2.113  -0.118  10.720  1.0544 -2.0021  1.2972
    8MOL0     H 1060   2.331  -0.003  10.848  2.8941 -1.0539 -0.7379
    8MOL0     H 1061   2.407  -0.139  10.785  0.3591  1.9254  1.5042
    8MOL0     H 1062   2.706   0.257  10.020  0.5354 -0.6411 -1.6364
    8MOL0     H 1063   2.904   0.261   9.876 -2.3530 -0.7669  2.3495
    8MOL0     H 1064   3.399   0.341   9.863  1.5554 -1.8595 -0.9027
    8MOL0     H 1065   3.581   0.278   9.711  0.7523  1.7852 -0.6004
    8MOL0     H 1066   5.201   0.818   9.225  0.5539 -0.5830 -0.4062
    8MOL0     H 1067   5.423   0.722   9.265  2.0229  0.0659  1.7648
    8MOL0     H 1068   5.763   0.629   9.469 -1.2165 -1.2981 -2.3056
    8MOL0     H 1069   5.962   0.533   9.531 -0.5904  1.4007  1.5668
    8MOL0     H 1070   6.305   0.624   9.285  0.0135  1.1863 -0.2887
    8MOL0     H 1071   6.360   0.726   9.409  2.7453 -1.4668 -0.5655
    8MOL0     H 1072   6.373   0.429   9.447  1.0725 -1.5336 -0.5846
    8MOL0     H 1073   6.465   0.547   9.532  0.0948 -0.7408 -0.4226
    8MOL0     H 1074   6.574   0.630   9.339 -0.5388  0.0267 -4.0810
    8MOL0     H 1075   6.509   0.491   9.240 -1.2487 -3.3391  1.5797
    8MOL0     H 1076   6.622   0.339   9.408  0.5976  0.0276 -0.7369
    8MOL0     H 1077   6.684   0.487   9.494 -0.0485  0.8493 -0.5965
    8MOL0     H 1078   6.921   0.434   9.130 -4.2659  0.4978 -3.0446
    8MOL0     H 1079   6.185   0.835   9.308  0.9947 -1.3115  0.2809
    8MOL0     H 1080   5.974   0.953   9.265  1.2930  0.4700  1.4325
    9MOL0     O 1081   1.767   5.619   7.119  0.4881 -0.1461 -0.6654
    9MOL0     C 1082   1.771   5.539   7.028 -0.5771  0.1569  0.3861
    9MOL0     O 1083   1.682   5.538   6.921 -0.8037 -0.2403 -0.8501
    9MOL0     C 1084   1.553   5.580   6.941 -0.1264  0.4950  0.9557
    9MOL0     C 1085   1.476   5.544   7.050 -0.8310  0.5770 -0.1138
    9MOL0     C 1086   1.340   5.563   7.047  0.4014 -0.8632  1.0872
    9MOL0     C 1087   1.277   5.633   6.937  0.3066 -0.2129  0.4414
    9MOL0     O 1088   1.139   5.658   6.924  0.5342 -0.1356 -0.6153
    9MOL0     C 1089   1.054   5.642   7.038  0.5165  0.3190 -0.3974
    9MOL0     C 1090   0.916   5.705   7.015 -0.4765 -0.7470 -0.0936
    9MOL0     C 1091   0.860   5.728   7.148 -0.2452 -0.0999  0.2122
    9MOL0     C 1092   0.736   5.814   7.137 -0.7142  0.1651  0.0494
    9MOL0     C 1093   0.634   5.793   7.245 -0.0712 -0.0170 -0.0078
    9MOL0     C 1094   0.510   5.883   7.222 -0.2421 -0.5023 -0.9406
    9MOL0     C 1095   0.403   5.879   7.335 -0.0853  0.4278 -0.2564
    9MOL0     C 1096   0.348   5.730   7.365 -0.9496 -0.4018 -0.8951
    9MOL0     N 1097   0.242   5.678   7.277  0.0926  0.4011  0.1146
    9MOL0     C 1098   0.121   5.732   7.266  0.5522 -0.0033 -0.7056
    9MOL0     C 1099   0.039   5.628   7.224 -0.1002  0.1900  0.0019
    9MOL0     C 1100  -0.104   5.633   7.206  0.3327 -0.3883  0.1519
    9MOL0     C 1101  -0.165   5.491   7.247 -0.4390  0.0603  0.4285
    9MOL0     C 1102  -0.319   5.480   7.227  0.2441  0.4567  0.2430
    9MOL0     C 1103  -0.384   5.561   7.333 -0.3494 -0.0273  0.4704
    9MOL0     O 1104  -0.525   5.529   7.329  0.7291 -0.1861 -0.0040
    9MOL0     C 1105  -0.606   5.631   7.275  0.4432 -0.0317  0.6155
    9MOL0     C 1106  -0.671   5.726   7.364  0.2975  0.6971 -0.0806
    9MOL0     C 1107  -0.748   5.835   7.320 -0.3314 -0.4186  0.3453
    9MOL0     C 1108  -0.798   5.932   7.430  0.5401  0.0598 -0.4458
    9MOL0     C 1109  -0.776   5.842   7.178  0.2564 -0.3414  0.4414
    9MOL0     C 1110  -0.865   5.949   7.114  0.9264  0.4798 -0.0676
    9MOL0     O 1111  -0.915   6.057   7.181 -0.5591 -0.4786 -0.0524
    9MOL0     C 1112  -1.017   6.124   7.126  0.0285 -0.0508  0.3310
    9MOL0     C 1113  -1.002   6.190   7.006 -0.4992  1.0762 -0.5609
    9MOL0     C 1114  -1.111   6.260   6.957 -1.0170 -0.5666  0.2382
    9MOL0     C 1115  -1.231   6.268   7.023  0.2314  0.5967 -0.4878
    9MOL0     O 1116  -1.338   6.337   6.984 -0.1859  0.3986  0.2001
    9MOL0     C 1117  -1.325   6.471   6.949 -0.1835  0.5557  0.0380
    9MOL0     C 1118  -1.465   6.537   6.935  0.7737  0.3649 -0.1764
    9MOL0     C 1119  -1.521   6.565   7.079  0.1649  0.3351 -0.3289
    9MOL0     C 1120  -1.677   6.569   7.089 -0.2111  0.1758  0.4757
    9MOL0     C 1121  -1.726   6.701   7.042  0.2521  0.4651  0.4272
    9MOL0     C 1122  -1.878   6.690   7.039  0.4500 -0.0735  0.2309
    9MOL0     C 1123  -1.938   6.822   6.996  0.7562 -0.9295 -0.4450
    9MOL0     C 1124  -2.042   6.869   7.099 -0.1337 -0.2020  0.2230
    9MOL0    Cl 1125  -2.178   6.756   7.095  0.1296 -0.6474  0.1063
    9MOL0     C 1126  -1.243   6.193   7.140 -0.0082 -0.6080 -0.4624
    9MOL0     C 1127  -1.136   6.120   7.189  0.7207 -0.9386  0.1052
    9MOL0     O 1128  -0.892   5.920   7.000  0.8314 -0.3578  0.6043
    9MOL0     C 1129  -0.717   5.746   7.088  0.7821 -0.6191  0.1212
    9MOL0     C 1130  -0.630   5.646   7.135  0.2867  0.0599 -0.1881
    9MOL0     N 1131   0.129   5.526   7.182  0.9997  0.0518  0.2673
    9MOL0     N 1132   0.244   5.551   7.221 -0.0173 -0.2082 -0.3392
    9MOL0     C 1133   1.365   5.686   6.835  0.1970  0.3117 -0.2272
    9MOL0     C 1134   1.506   5.655   6.833 -0.0554  0.2003 -0.9685
    9MOL0     C 1135   1.892   5.459   7.008  0.5180  0.5801 -0.8530
    9MOL0     C 1136   1.919   5.410   6.876 -0.3809 -0.4457 -0.4006
    9MOL0     C 1137   2.028   5.326   6.853 -1.0400  0.4419  0.7786
    9MOL0     C 1138   2.118   5.300   6.956  1.1579 -0.2010 -0.3125
    9MOL0     O 1139   2.226   5.221   6.940 -0.4422  0.2779 -0.1481
    9MOL0     C 1140   2.279   5.229   6.813 -0.3234 -0.5412 -0.6918
    9MOL0     C 1141   2.427   5.176   6.813  0.2239  0.2521  0.5540
    9MOL0     C 1142   2.493   5.229   6.680  0.2909  0.2962  0.6739
    9MOL0     C 1143   2.632   5.174   6.659  0.5129 -0.4511  0.4912
    9MOL0     C 1144   2.691   5.212   6.527  0.2818 -1.0220 -0.4908
    9MOL0     C 1145   2.746   5.237   6.424 -0.2158  0.5229 -0.0731
    9MOL0     C 1146   2.097   5.359   7.083  0.5914 -0.7373 -0.2607
    9MOL0     C 1147   1.982   5.439   7.108 -0.6415 -0.5349  0.5018
    9MOL0     H 1148   1.509   5.487   7.137  0.4124  3.1760  1.2190
    9MOL0     H 1149   1.288   5.517   7.131 -0.7848 -1.2621  0.1712
    9MOL0     H 1150   1.045   5.535   7.060 -2.1404  0.3735 -0.8069
    9MOL0     H 1151   1.104   5.693   7.121 -1.4444  1.2382  0.2790
    9MOL0     H 1152   0.927   5.796   6.955  1.1290 -1.6064 -1.1733
    9MOL0     H 1153   0.852   5.640   6.955 -1.8476  1.4070 -1.0559
    9MOL0     H 1154   0.848   5.634   7.203  1.8662 -1.3307 -1.2796
    9MOL0     H 1155   0.930   5.780   7.215  0.2993  0.5698 -0.8463
    9MOL0     H 1156   0.772   5.916   7.128 -3.1518  0.9844 -1.5658
    9MOL0     H 1157   0.689   5.795   7.040 -1.4390 -5.3041  1.1426
    9MOL0     H 1158   0.604   5.688   7.249 -1.6985  0.4500  2.5774
    9MOL0     H 1159   0.680   5.833   7.336 -0.6627  0.2784  0.1635
    9MOL0     H 1160   0.545   5.986   7.211 -1.4818  0.1699  0.9782
    9MOL0     H 1161   0.454   5.865   7.129 -2.5759 -0.6658  0.4036
    9MOL0     H 1162   0.444   5.920   7.428  2.0591 -2.0380 -0.0033
    9MOL0     H 1163   0.319   5.943   7.306 -0.5394  0.0878  0.2851
    9MOL0     H 1164   0.307   5.736   7.466 -1.5017  1.3234 -1.2000
    9MOL0     H 1165   0.426   5.653   7.376  1.7171  2.0796 -1.2914
    9MOL0     H 1166   0.090   5.827   7.309  2.1380  0.8564 -1.3864
    9MOL0     H 1167  -0.137   5.712   7.276  0.5859  1.3315 -1.5810
    9MOL0     H 1168  -0.130   5.657   7.103 -1.8183  0.4187  0.8147
    9MOL0     H 1169  -0.140   5.472   7.352  0.0305 -2.7620 -0.1019
    9MOL0     H 1170  -0.117   5.414   7.185  1.3857  0.2991  1.4817
    9MOL0     H 1171  -0.354   5.377   7.231  2.0937 -0.1998  0.1846
    9MOL0     H 1172  -0.353   5.512   7.128 -1.0897 -0.6951  0.2941
    9MOL0     H 1173  -0.369   5.669   7.322 -3.8956  0.9668  3.5164
    9MOL0     H 1174  -0.351   5.530   7.432 -2.4141 -0.2715  1.1267
    9MOL0     H 1175  -0.656   5.716   7.471  2.8206 -0.5136 -0.4810
    9MOL0     H 1176  -0.904   5.953   7.410  0.9181  2.7980  0.1084
    9MOL0     H 1177  -0.795   5.888   7.530  0.4335 -2.1262 -1.3425
    9MOL0     H 1178  -0.745   6.026   7.441 -0.6619  0.5428  1.7208
    9MOL0     H 1179  -0.907   6.186   6.953  0.0282  2.3393  0.2504
    9MOL0     H 1180  -1.093   6.327   6.874  0.8231  0.9503  1.7401
    9MOL0     H 1181  -1.255   6.515   7.020  3.0973 -0.9015 -2.0428
    9MOL0     H 1182  -1.277   6.474   6.850  1.6626  1.6891  0.9187
    9MOL0     H 1183  -1.460   6.624   6.869  2.4509  0.9418  0.6588
    9MOL0     H 1184  -1.529   6.462   6.889 -3.3294  1.2434  3.3924
    9MOL0     H 1185  -1.479   6.664   7.102  3.1062 -0.5972 -1.2401
    9MOL0     H 1186  -1.497   6.493   7.158 -1.3037 -0.7599 -0.8383
    9MOL0     H 1187  -1.722   6.483   7.038 -0.1450  0.1599  0.4445
    9MOL0     H 1188  -1.703   6.554   7.194  0.4872  3.8409  1.3199
    9MOL0     H 1189  -1.697   6.704   6.936  0.6242  1.6893  0.5539
    9MOL0     H 1190  -1.682   6.777   7.106  2.5827 -0.3040 -0.1791
    9MOL0     H 1191  -1.899   6.613   6.964 -1.0889  0.6669 -0.1242
    9MOL0     H 1192  -1.925   6.661   7.134 -2.7457  0.0595 -1.1844
    9MOL0     H 1193  -1.990   6.823   6.900  1.8100  0.0480 -1.0321
    9MOL0     H 1194  -1.860   6.898   6.983  0.9982 -1.2372 -0.8323
    9MOL0     H 1195  -2.089   6.962   7.063 -2.0003 -0.3034  2.2005
    9MOL0     H 1196  -2.009   6.895   7.200 -0.5819 -0.2076  0.3757
    9MOL0     H 1197  -1.328   6.215   7.204 -0.1272  0.3506 -0.9276
    9MOL0     H 1198  -1.144   6.071   7.286 -0.2081  1.2271  1.1895
    9MOL0     H 1199  -0.726   5.762   6.981 -1.3896  1.0224  0.4575
    9MOL0     H 1200  -0.591   5.570   7.068  0.3649  0.0283 -0.1078
    9MOL0     H 1201   1.330   5.742   6.749  1.3826 -1.0774 -1.6998
    9MOL0     H 1202   1.573   5.689   6.755  1.5721  1.0474  0.7332
    9MOL0     H 1203   1.862   5.437   6.788  0.6890 -1.1550 -1.3405
    9MOL0     H 1204   2.046   5.290   6.753  0.6207 -3.0119  2.1775
    9MOL0     H 1205   2.215   5.166   6.750 -4.0355  2.1947 -0.0056
    9MOL0     H 1206   2.287   5.332   6.779 -1.1651  0.0605  0.8359
    9MOL0     H 1207   2.428   5.068   6.831  0.9766  0.2022  0.2235
    9MOL0     H 1208   2.470   5.224   6.902  0.0838  0.0639  0.7228
    9MOL0     H 1209   2.489   5.338   6.668 -1.7292  0.4005  1.9351
    9MOL0     H 1210   2.422   5.198   6.602 -1.4190  3.4441  0.7810
    9MOL0     H 1211   2.626   5.064   6.655 -1.0153 -0.3639 -1.2825
    9MOL0     H 1212   2.705   5.201   6.736  1.8935  0.6955 -1.1416
    9MOL0     H 1213   2.805   5.262   6.337 -0.1735  3.6477  0.7582
    9MOL0     H 1214   2.158   5.340   7.171 -2.1365 -1.2114  1.6753
    9MOL0     H 1215   1.964   5.480   7.207  0.2938  1.4782 -0.1001
   10MOL0     O 1216   8.515  10.077   0.972  0.1642  0.1486  0.5803
   10MOL0     C 1217   8.585  10.088   0.871 -0.4206 -0.4262 -0.1124
   10MOL0     O 1218   8.553  10.040   0.744  0.0777 -0.8318  0.5661
   10MOL0     C 1219   8.442   9.955   0.730 -0.3665 -0.4710  0.6024
   10MOL0     C 1220   8.306  10.000   0.741 -0.0811  0.3970 -0.6068
   10MOL0     C 1221   8.199   9.918   0.703 -0.5180 -0.3253 -0.6360
   10MOL0     C 1222   8.231   9.791   0.656 -0.8625  0.0225  0.2592
   10MOL0     O 1223   8.117   9.730   0.611  0.5908  0.4851 -0.9906
   10MOL0     C 1224   8.115   9.586   0.588  0.0567 -0.5726 -1.2550
   10MOL0     C 1225   8.079   9.505   0.716  0.2087 -0.2582  0.6528
   10MOL0     C 1226   7.955   9.551   0.799  0.0609 -0.0949 -0.1400
   10MOL0     C 1227   7.819   9.561   0.725  0.6770 -0.5665 -0.0509
   10MOL0     C 1228   7.763   9.422   0.677 -0.3681  0.1473  0.2920
   10MOL0     C 1229   7.637   9.419   0.608  0.5839  0.3254  0.0724
   10MOL0     C 1230   7.512   9.437   0.689  0.1249 -0.4221 -0.5247
   10MOL0     C 1231   7.392   9.401   0.608 -0.0167 -0.0655  0.6198
   10MOL0     N 1232   7.359   9.263   0.601  0.4385  0.5363  0.0065
   10MOL0     C 1233   7.306   9.191   0.708  0.5475 -0.7155 -0.0030
   10MOL0     C 1234   7.326   9.065   0.668 -0.4218 -0.1584  0.5679
   10MOL0     C 1235   7.288   8.943   0.738 -0.5319  0.2597 -0.1425
   10MOL0     C 1236   7.135   8.924   0.749  0.3113  0.2359  0.1921
   10MOL0     C 1237   7.066   8.931   0.614 -0.6734 -0.1647  1.1721
   10MOL0     C 1238   6.923   8.883   0.627  0.7802  0.1742 -1.0843
   10MOL0     O 1239   6.841   9.002   0.656  0.4011 -0.2228  0.1834
   10MOL0     C 1240   6.704   8.990   0.662  0.0070  0.7845  0.0296
   10MOL0     C 1241   6.647   8.864   0.665  0.1867  0.1181  0.5525
   10MOL0     C 1242   6.510   8.853   0.701  0.4779 -0.0076  0.2157
   10MOL0     C 1243   6.444   8.714   0.706  0.5289 -0.2377  0.4482
   10MOL0     C 1244   6.430   8.965   0.743 -0.5794  1.0225 -0.2002
   10MOL0     C 1245   6.286   8.954   0.803 -0.4537  0.4657 -0.4673
   10MOL0     O 1246   6.244   8.841   0.865  0.0054 -0.3288  0.7028
   10MOL0     C 1247   6.110   8.820   0.886  0.8475  0.1153 -0.5174
   10MOL0     C 1248   6.037   8.742   0.796 -0.1373 -0.0227  0.7346
   10MOL0     C 1249   5.905   8.707   0.822 -0.9472  0.9681  0.2143
   10MOL0     C 1250   5.846   8.746   0.942  1.0567 -0.1969  0.6076
   10MOL0     O 1251   5.710   8.722   0.977  0.0802 -0.0290  0.3080
   10MOL0     C 1252   5.609   8.691   0.883  0.2884 -0.0913  0.3683
   10MOL0     C 1253   5.486   8.670   0.978  0.2203  1.1688 -0.0280
   10MOL0     C 1254   5.360   8.658   0.885 -0.3178  0.0644 -0.4290
   10MOL0     C 1255   5.240   8.635   0.973  0.0321  1.3459  0.0812
   10MOL0     C 1256   5.111   8.630   0.892  0.3003 -0.1073 -0.5169
   10MOL0     C 1257   4.994   8.606   0.979  1.2631 -0.4452  0.0652
   10MOL0     C 1258   4.877   8.564   0.885  0.6392  0.3638  0.0207
   10MOL0     C 1259   4.747   8.554   0.971 -0.4174  0.0348  0.0171
   10MOL0    Cl 1260   4.625   8.486   0.870  0.0335  0.0844  0.2443
   10MOL0     C 1261   5.922   8.815   1.033 -0.8909 -0.2849 -0.5396
   10MOL0     C 1262   6.052   8.855   1.011 -0.2197 -0.3261  0.0985
   10MOL0     O 1263   6.223   9.059   0.808 -0.3907 -0.3136  0.1713
   10MOL0     C 1264   6.492   9.088   0.729  0.0310  0.6256  0.2274
   10MOL0     C 1265   6.631   9.102   0.698  0.5908  0.1131  0.2986
   10MOL0     N 1266   7.379   9.061   0.542  0.2659  0.1066  0.0938
   10MOL0     N 1267   7.402   9.179   0.507 -0.0465 -0.6177 -0.3950
   10MOL0     C 1268   8.364   9.739   0.659  0.5238  0.3589  0.2477
   10MOL0     C 1269   8.472   9.818   0.695  0.1851 -0.6681  0.1997
   10MOL0     C 1270   8.705  10.168   0.886 -0.1361  0.3350  0.0797
   10MOL0     C 1271   8.746  10.213   1.010 -0.3223  0.0367  0.5168
   10MOL0     C 1272   8.863  10.289   1.039 -0.1284  0.2949  0.1888
   10MOL0     C 1273   8.932  10.336   0.927  0.3401 -0.5675 -1.3169
   10MOL0     O 1274   9.039  10.411   0.960 -0.4586  0.1970 -0.4058
   10MOL0     C 1275   9.086  10.499   0.858  0.3671  0.0255  0.0174
   10MOL0     C 1276   9.215  10.575   0.904  0.0274 -0.2317 -1.0134
   10MOL0     C 1277   9.202  10.643   1.050  0.1261 -0.6088  0.3270
   10MOL0     C 1278   9.080  10.741   1.069  0.6728 -0.2062 -0.3418
   10MOL0     C 1279   9.096  10.867   0.991  0.7129 -0.2770  0.0297
   10MOL0     C 1280   9.115  10.967   0.932  0.4197 -0.7753  0.0111
   10MOL0     C 1281   8.881  10.310   0.804  0.1172  0.0199  0.9159
   10MOL0     C 1282   8.779  10.216   0.778 -0.3964 -0.1601 -0.6006
   10MOL0     H 1283   8.286  10.099   0.782 -0.4419  1.0133 -2.2087
   10MOL0     H 1284   8.097   9.953   0.706 -0.6303 -0.7189  1.4754
   10MOL0     H 1285   8.037   9.567   0.514 -0.7822 -0.1647 -0.4937
   10MOL0     H 1286   8.215   9.553   0.561 -0.6488 -3.2925 -0.8253
   10MOL0     H 1287   8.061   9.402   0.683  0.4679 -0.9666  2.5626
   10MOL0     H 1288   8.165   9.498   0.784 -0.1548 -0.8736  1.0520
   10MOL0     H 1289   7.935   9.485   0.884 -3.2371  0.0789 -0.6427
   10MOL0     H 1290   7.976   9.648   0.846 -1.3795  0.0221  0.3152
   10MOL0     H 1291   7.747   9.607   0.794 -0.2152  0.7981 -1.8159
   10MOL0     H 1292   7.828   9.635   0.645  0.9686 -0.0092  0.4873
   10MOL0     H 1293   7.833   9.386   0.601 -1.2059 -0.2257 -0.3286
   10MOL0     H 1294   7.758   9.359   0.766 -0.6917 -3.4475 -2.0586
   10MOL0     H 1295   7.635   9.495   0.529 -1.1489  2.4364  1.9825
   10MOL0     H 1296   7.635   9.321   0.561 -0.5744 -0.9178  2.5241
   10MOL0     H 1297   7.516   9.380   0.782 -0.9622 -2.9821 -1.9335
   10MOL0     H 1298   7.494   9.541   0.716 -1.3833 -0.7631 -0.0969
   10MOL0     H 1299   7.392   9.441   0.506 -0.8171  0.5432  0.8437
   10MOL0     H 1300   7.304   9.451   0.650  1.2686  2.5759  0.3626
   10MOL0     H 1301   7.252   9.229   0.794  0.7067  2.2624 -1.1009
   10MOL0     H 1302   7.331   8.858   0.684 -1.1390  0.5706 -1.1478
   10MOL0     H 1303   7.336   8.947   0.836  1.0870 -0.5556 -0.8576
   10MOL0     H 1304   7.097   9.006   0.810 -1.3178  0.6239 -1.2697
   10MOL0     H 1305   7.109   8.833   0.805 -1.3705  0.8771  0.5098
   10MOL0     H 1306   7.108   8.856   0.546  0.2809  0.4161  1.1052
   10MOL0     H 1307   7.083   9.029   0.567 -1.9748  0.1330  1.2666
   10MOL0     H 1308   6.916   8.813   0.711  0.6153 -1.0882 -2.1214
   10MOL0     H 1309   6.894   8.833   0.534  1.1714 -0.5974 -0.8022
   10MOL0     H 1310   6.699   8.771   0.641 -1.1011  0.0240 -2.3074
   10MOL0     H 1311   6.339   8.718   0.678  0.6171 -2.5086 -0.4671
   10MOL0     H 1312   6.496   8.636   0.649  1.0709 -0.4958  1.2651
   10MOL0     H 1313   6.453   8.672   0.807  1.3504 -3.0890 -0.6837
   10MOL0     H 1314   6.089   8.703   0.709  1.3851  1.1684  1.0801
   10MOL0     H 1315   5.858   8.647   0.745  2.3523 -1.4944 -0.1024
   10MOL0     H 1316   5.598   8.756   0.795 -1.1704 -2.3304 -1.1956
   10MOL0     H 1317   5.631   8.598   0.831 -0.6605  0.2975 -0.7700
   10MOL0     H 1318   5.512   8.584   1.041  1.2864  0.2740 -1.6264
   10MOL0     H 1319   5.462   8.752   1.046  0.1505  0.4144  0.8859
   10MOL0     H 1320   5.364   8.568   0.823 -2.4999 -0.9597  0.8214
   10MOL0     H 1321   5.339   8.744   0.820 -0.7904 -2.4029 -3.8552
   10MOL0     H 1322   5.262   8.547   1.033 -1.1236  1.2776  0.4235
   10MOL0     H 1323   5.237   8.719   1.044  1.5078  1.3403  0.1800
   10MOL0     H 1324   5.125   8.546   0.824  1.2083 -1.6165  1.4146
   10MOL0     H 1325   5.102   8.719   0.829  3.5082  0.5692 -0.2010
   10MOL0     H 1326   5.014   8.525   1.050  0.6199 -1.3320 -0.7370
   10MOL0     H 1327   4.967   8.692   1.041 -1.1379 -1.4612  0.5498
   10MOL0     H 1328   4.898   8.467   0.839 -1.3878  0.7813 -1.9839
   10MOL0     H 1329   4.867   8.639   0.805 -1.3440 -0.0437 -0.1598
   10MOL0     H 1330   4.734   8.654   1.015  0.7804 -0.4802  1.6718
   10MOL0     H 1331   4.772   8.492   1.058  1.7742 -0.0449 -0.5891
   10MOL0     H 1332   5.871   8.848   1.122 -1.6660  2.4290 -1.8899
   10MOL0     H 1333   6.113   8.910   1.082  1.9215 -1.0522 -1.0882
   10MOL0     H 1334   6.439   9.181   0.750  1.3119  1.2784  0.6919
   10MOL0     H 1335   6.669   9.202   0.678 -1.7758  0.7035 -1.9408
   10MOL0     H 1336   8.385   9.636   0.633 -1.7337 -0.0808 -0.0522
   10MOL0     H 1337   8.574   9.781   0.688  0.9778  1.6391 -4.8254
   10MOL0     H 1338   8.689  10.178   1.096 -4.5902  0.1336 -1.9812
   10MOL0     H 1339   8.894  10.318   1.139 -1.7387 -1.2682  1.1957
   10MOL0     H 1340   9.115  10.440   0.770  2.0723 -1.2647  1.3893
   10MOL0     H 1341   9.011  10.574   0.829  1.2525  0.9583  0.0796
   10MOL0     H 1342   9.228  10.656   0.832 -1.7950  1.2387  0.2008
   10MOL0     H 1343   9.297  10.504   0.915 -0.0242 -0.5479 -2.4897
   10MOL0     H 1344   9.292  10.691   1.088  0.6935 -2.8790  2.0216
   10MOL0     H 1345   9.183  10.562   1.121  1.7852 -0.9529  0.4120
   10MOL0     H 1346   9.085  10.756   1.177  0.8728 -3.7262  0.2633
   10MOL0     H 1347   8.988  10.685   1.050  0.5108 -0.6892  1.6687
   10MOL0     H 1348   9.132  11.055   0.873  2.3943 -0.8274  0.4299
   10MOL0     H 1349   8.928  10.347   0.713 -1.8748 -0.7397 -0.4803
   10MOL0     H 1350   8.743  10.187   0.680  0.7116  2.4438 -1.8604
   11MOL0     O 1351   1.110   2.505   2.395 -0.2050 -0.1667  0.8371
   11MOL0     C 1352   1.104   2.583   2.297 -0.8855  0.1676 -0.0272
   11MOL0     O 1353   0.997   2.613   2.218 -0.1561 -0.0044  0.0435
   11MOL0     C 1354   0.869   2.569   2.250 -1.4439 -0.2370 -0.3801
   11MOL0     C 1355   0.790   2.629   2.353 -0.0576 -0.6106  0.0612
   11MOL0     C 1356   0.660   2.580   2.370  0.2184 -0.0758 -0.1166
   11MOL0     C 1357   0.605   2.479   2.298  0.0508 -0.0034 -0.1570
   11MOL0     O 1358   0.477   2.445   2.321  0.6386 -0.2953 -0.1794
   11MOL0     C 1359   0.407   2.371   2.214 -0.1249  0.0827 -0.0112
   11MOL0     C 1360   0.269   2.339   2.255 -0.1660  0.5153 -0.1535
   11MOL0     C 1361   0.181   2.267   2.152 -0.0438 -0.0066 -0.0482
   11MOL0     C 1362   0.039   2.247   2.205 -0.0066  0.6708  0.7540
   11MOL0     C 1363  -0.055   2.182   2.099  0.0824 -0.4358  0.2807
   11MOL0     C 1364  -0.217   2.194   2.124 -0.9503 -0.4818 -0.2500
   11MOL0     C 1365  -0.259   2.179   2.264 -0.5151 -0.2942 -0.2201
   11MOL0     C 1366  -0.386   2.250   2.303  0.9783 -0.7439 -0.2543
   11MOL0     N 1367  -0.496   2.183   2.230  0.2658 -0.3294  0.4209
   11MOL0     C 1368  -0.559   2.074   2.285 -0.2453  0.9557  0.2014
   11MOL0     C 1369  -0.671   2.066   2.200 -0.2636 -0.0330 -0.0541
   11MOL0     C 1370  -0.780   1.966   2.215 -0.1182 -0.2990  0.4004
   11MOL0     C 1371  -0.861   1.996   2.339  0.4095  0.7653 -0.5322
   11MOL0     C 1372  -0.994   1.912   2.350 -0.9526 -0.1495 -0.3411
   11MOL0     C 1373  -1.066   1.957   2.472  0.6758 -0.3371 -0.7441
   11MOL0     O 1374  -1.092   2.096   2.485 -0.7412  0.2019 -0.1406
   11MOL0     C 1375  -1.201   2.149   2.427 -0.3828 -0.2724  0.2650
   11MOL0     C 1376  -1.205   2.160   2.290  0.1585 -0.9539 -0.2861
   11MOL0     C 1377  -1.321   2.197   2.224  0.1452  0.2469  0.0601
   11MOL0     C 1378  -1.311   2.195   2.077  0.3392 -0.4733  0.4942
   11MOL0     C 1379  -1.443   2.226   2.294 -0.3908 -0.2961  0.4133
   11MOL0     C 1380  -1.572   2.265   2.228 -0.8056 -0.1387 -0.2022
   11MOL0     O 1381  -1.663   2.330   2.311  0.6267  0.3939 -0.2052
   11MOL0     C 1382  -1.792   2.362   2.275  0.0488 -1.4232 -0.6732
   11MOL0     C 1383  -1.843   2.393   2.145  0.5967  0.1764 -0.6133
   11MOL0     C 1384  -1.984   2.434   2.132 -0.0926 -0.0977  0.6409
   11MOL0     C 1385  -2.072   2.423   2.245  1.3305 -0.3656  0.2944
   11MOL0     O 1386  -2.201   2.464   2.229  0.0854  0.2807 -0.2860
   11MOL0     C 1387  -2.287   2.379   2.143 -0.2023 -0.3646 -0.8060
   11MOL0     C 1388  -2.429   2.429   2.170  0.6504 -0.0617  0.7756
   11MOL0     C 1389  -2.464   2.400   2.319 -0.2071 -0.1802  0.0590
   11MOL0     C 1390  -2.606   2.458   2.351 -0.0989 -0.2623 -0.1065
   11MOL0     C 1391  -2.652   2.442   2.494  0.4596  0.5233 -0.5686
   11MOL0     C 1392  -2.792   2.499   2.514  0.3389 -0.4418 -0.0943
   11MOL0     C 1393  -2.861   2.452   2.642  0.8232  0.2850  0.0640
   11MOL0     C 1394  -2.824   2.530   2.768  0.2045  0.3916  0.2277
   11MOL0    Cl 1395  -2.964   2.595   2.858  0.3655  0.5827 -0.1084
   11MOL0     C 1396  -2.023   2.391   2.368 -0.4517 -0.2904  0.6806
   11MOL0     C 1397  -1.880   2.370   2.382  0.0540  0.7615 -0.1435
   11MOL0     O 1398  -1.600   2.218   2.121  0.3435  0.4769  0.7419
   11MOL0     C 1399  -1.440   2.216   2.437 -1.6793 -0.4006 -0.7615
   11MOL0     C 1400  -1.317   2.192   2.498 -0.2572 -0.2858 -0.0090
   11MOL0     N 1401  -0.664   2.157   2.107  0.9548 -1.1390 -0.0698
   11MOL0     N 1402  -0.561   2.232   2.115  0.0432  0.5524  0.0482
   11MOL0     C 1403   0.681   2.436   2.188 -0.6938  0.1132  0.6128
   11MOL0     C 1404   0.816   2.473   2.165 -0.1486  1.4223  0.2801
   11MOL0     C 1405   1.244   2.623   2.254  1.0216  0.1091  0.6235
   11MOL0     C 1406   1.353   2.622   2.343  0.1203  1.0797 -0.0566
   11MOL0     C 1407   1.489   2.643   2.318 -0.2215 -0.8044  1.1721
   11MOL0     C 1408   1.522   2.681   2.189  0.1365  0.1931 -0.1803
   11MOL0     O 1409   1.642   2.739   2.153  0.0577  0.4232 -0.3827
   11MOL0     C 1410   1.717   2.819   2.250 -0.6783 -0.1785  0.8485
   11MOL0     C 1411   1.639   2.948   2.291 -0.8465  0.5126  0.3796
   11MOL0     C 1412   1.598   3.046   2.183 -0.1299  0.4728  0.4654
   11MOL0     C 1413   1.696   3.072   2.070  0.5724  0.4484 -0.0419
   11MOL0     C 1414   1.829   3.124   2.107 -0.1711  0.2584  0.4813
   11MOL0     C 1415   1.939   3.172   2.129  0.4676  0.1725 -0.2877
   11MOL0     C 1416   1.416   2.681   2.090 -0.1524  0.1899 -0.4653
   11MOL0     C 1417   1.287   2.651   2.123 -0.3880  0.3514  0.1782
   11MOL0     H 1418   0.823   2.710   2.417 -1.6338 -1.4269  2.0026
   11MOL0     H 1419   0.607   2.627   2.453  1.2831 -1.5985  1.4916
   11MOL0     H 1420   0.410   2.432   2.123  0.7715  0.7396  0.4438
   11MOL0     H 1421   0.464   2.280   2.195  1.0498  0.8547 -0.3003
   11MOL0     H 1422   0.275   2.264   2.335 -1.2235 -0.8227 -1.2950
   11MOL0     H 1423   0.225   2.437   2.273 -1.0221  0.2562 -0.8266
   11MOL0     H 1424   0.174   2.333   2.065 -1.3854  1.6033  1.2210
   11MOL0     H 1425   0.225   2.171   2.122  0.0939 -0.2097  0.7843
   11MOL0     H 1426   0.031   2.182   2.293 -3.8532  2.6040  2.0799
   11MOL0     H 1427  -0.005   2.344   2.229  1.3806  0.9996  2.0767
   11MOL0     H 1428  -0.041   2.239   2.007  1.7794  0.3035  0.9559
   11MOL0     H 1429  -0.026   2.077   2.099  1.2233 -0.1942 -2.6486
   11MOL0     H 1430  -0.251   2.292   2.090 -2.5402 -0.2960  1.6640
   11MOL0     H 1431  -0.257   2.118   2.056 -1.3341 -0.2631 -0.2718
   11MOL0     H 1432  -0.271   2.070   2.276  2.5315 -1.1413 -3.2652
   11MOL0     H 1433  -0.189   2.211   2.341 -1.8386  0.2654  0.7811
   11MOL0     H 1434  -0.390   2.356   2.278  0.9473 -0.1777  1.9238
   11MOL0     H 1435  -0.408   2.243   2.410  1.6067  1.4748  0.0598
   11MOL0     H 1436  -0.536   2.005   2.365 -1.1300 -0.4570 -0.7283
   11MOL0     H 1437  -0.837   1.967   2.121  0.1602  2.2928  0.1825
   11MOL0     H 1438  -0.741   1.864   2.223  0.0933 -0.2080  0.5298
   11MOL0     H 1439  -0.900   2.098   2.333 -1.1646  0.2030 -0.3303
   11MOL0     H 1440  -0.804   1.987   2.432 -0.2180 -0.4324 -0.2527
   11MOL0     H 1441  -0.957   1.810   2.365 -0.7250 -0.0021  0.1154
   11MOL0     H 1442  -1.061   1.926   2.265  0.0395  2.6646 -0.7702
   11MOL0     H 1443  -1.000   1.930   2.556  1.6987  2.3387 -0.5972
   11MOL0     H 1444  -1.163   1.907   2.481 -1.8150  4.1720  0.1582
   11MOL0     H 1445  -1.123   2.123   2.229 -0.4686 -2.2056 -0.3994
   11MOL0     H 1446  -1.208   2.176   2.046  0.4153 -0.1432  0.5360
   11MOL0     H 1447  -1.373   2.113   2.039  1.4958 -1.4453  0.6585
   11MOL0     H 1448  -1.345   2.287   2.028  2.3764  0.3693  0.5705
   11MOL0     H 1449  -1.782   2.398   2.055 -0.8910  0.6408 -1.6175
   11MOL0     H 1450  -2.018   2.458   2.031 -0.1674 -1.0335  0.4279
   11MOL0     H 1451  -2.254   2.388   2.039  0.8078 -1.1196 -0.5658
   11MOL0     H 1452  -2.276   2.275   2.176  0.8186 -0.2026 -0.5954
   11MOL0     H 1453  -2.413   2.535   2.149 -1.1384  0.6130  2.5333
   11MOL0     H 1454  -2.507   2.389   2.105  2.4315 -0.2480 -1.3589
   11MOL0     H 1455  -2.383   2.444   2.377 -0.4873  1.5253 -0.8054
   11MOL0     H 1456  -2.448   2.292   2.333  0.1308 -0.2941 -1.1343
   11MOL0     H 1457  -2.618   2.564   2.325  0.5582 -0.2967 -0.5556
   11MOL0     H 1458  -2.688   2.406   2.299 -0.3369  0.2714 -0.2730
   11MOL0     H 1459  -2.583   2.496   2.560 -0.6336 -2.0647  3.0167
   11MOL0     H 1460  -2.655   2.335   2.515  0.1737  0.4657 -0.8961
   11MOL0     H 1461  -2.803   2.606   2.494  0.3189 -0.7170 -1.6359
   11MOL0     H 1462  -2.861   2.454   2.442  0.1353 -0.9791  0.4292
   11MOL0     H 1463  -2.844   2.345   2.661  0.0644 -0.0361 -0.9873
   11MOL0     H 1464  -2.969   2.453   2.627  0.7502  1.1617  0.5931
   11MOL0     H 1465  -2.757   2.614   2.745  0.2550  0.2796 -0.0365
   11MOL0     H 1466  -2.770   2.461   2.834 -1.6359  1.7334  3.3610
   11MOL0     H 1467  -2.085   2.404   2.457  1.8197  2.3158  2.0105
   11MOL0     H 1468  -1.830   2.351   2.476  0.7665 -1.9702 -0.9772
   11MOL0     H 1469  -1.524   2.252   2.497 -1.5049  2.7941 -2.2205
   11MOL0     H 1470  -1.309   2.191   2.606 -0.2513  0.0348 -0.0045
   11MOL0     H 1471   0.658   2.347   2.130  0.6103 -1.0570  1.8221
   11MOL0     H 1472   0.858   2.437   2.072 -0.7148 -0.3746  0.6759
   11MOL0     H 1473   1.336   2.598   2.447  3.5252 -0.7866  0.2214
   11MOL0     H 1474   1.568   2.632   2.392  0.8694 -1.0320  0.0087
   11MOL0     H 1475   1.735   2.741   2.325 -0.2086 -2.6059 -1.6369
   11MOL0     H 1476   1.811   2.843   2.201  0.2099  0.7401  2.8724
   11MOL0     H 1477   1.701   2.986   2.372  0.7488 -1.3785  0.1210
   11MOL0     H 1478   1.545   2.909   2.330  0.0437 -0.4057  1.7057
   11MOL0     H 1479   1.580   3.141   2.234 -0.8078  1.2799 -1.1950
   11MOL0     H 1480   1.503   3.021   2.135 -0.7156  3.4784 -0.1430
   11MOL0     H 1481   1.654   3.143   1.999 -0.3957  1.7391  1.7619
   11MOL0     H 1482   1.702   2.985   2.004 -1.3280  0.7937 -0.7271
   11MOL0     H 1483   2.036   3.215   2.126  0.5812  0.0806  1.1133
   11MOL0     H 1484   1.438   2.703   1.986  1.5440 -1.4693 -0.5069
   11MOL0     H 1485   1.220   2.638   2.038  2.2777 -1.6974 -1.7933
   12MOL0     O 1486   4.122  10.280  11.005 -0.4433  0.0110  0.5778
   12MOL0     C 1487   4.164  10.225  10.907 -0.3454  0.8980  0.1439
   12MOL0     O 1488   4.100  10.119  10.858 -0.2003  0.0085  0.3023
   12MOL0     C 1489   4.007  10.049  10.930 -0.1146 -0.1123  0.7621
   12MOL0     C 1490   3.893   9.994  10.863 -0.3436  0.0520 -1.2225
   12MOL0     C 1491   3.796   9.920  10.927 -0.2997 -0.1548 -0.0533
   12MOL0     C 1492   3.812   9.905  11.064  0.0451 -0.0299  0.1000
   12MOL0     O 1493   3.708   9.827  11.107  0.4043 -0.8419  0.2374
   12MOL0     C 1494   3.704   9.807  11.245  0.5449  0.2914  0.2647
   12MOL0     C 1495   3.571   9.741  11.270  1.0232  0.0201  0.5780
   12MOL0     C 1496   3.449   9.830  11.226  0.4163  0.8602  0.0300
   12MOL0     C 1497   3.314   9.774  11.263  0.7716  0.4910  0.0667
   12MOL0     C 1498   3.199   9.850  11.180  0.6743 -0.2637  0.9523
   12MOL0     C 1499   3.059   9.841  11.234 -0.3466 -0.3340 -0.0622
   12MOL0     C 1500   2.963   9.932  11.168  0.2164 -0.1235  0.6463
   12MOL0     C 1501   2.810   9.901  11.179  0.6341  0.2037  0.2360
   12MOL0     N 1502   2.742   9.993  11.097 -1.1551  0.1862 -0.5115
   12MOL0     C 1503   2.695  10.115  11.142  1.1405 -0.2655 -0.6063
   12MOL0     C 1504   2.633  10.173  11.032  0.3819 -0.0369 -0.7092
   12MOL0     C 1505   2.566  10.305  11.029  0.1247 -0.5204  0.6074
   12MOL0     C 1506   2.460  10.325  11.141 -0.1658 -0.0011 -0.2715
   12MOL0     C 1507   2.351  10.421  11.088 -0.7818 -0.4264 -1.2312
   12MOL0     C 1508   2.233  10.418  11.190  0.2729 -0.9496  0.3418
   12MOL0     O 1509   2.122  10.464  11.110 -0.2009 -0.6580 -0.1320
   12MOL0     C 1510   2.001  10.420  11.158  1.1846  0.6349  0.0421
   12MOL0     C 1511   1.965  10.411  11.294 -0.9869 -0.2735 -0.5288
   12MOL0     C 1512   1.845  10.362  11.337  0.6938 -0.7348 -0.5284
   12MOL0     C 1513   1.822  10.355  11.488  0.7419 -0.7805 -0.5782
   12MOL0     C 1514   1.740  10.340  11.236 -0.4135  0.8766 -0.3134
   12MOL0     C 1515   1.601  10.300  11.270  0.5803 -0.1927  0.3242
   12MOL0     O 1516   1.554  10.181  11.216  0.2091  0.5626  0.3781
   12MOL0     C 1517   1.423  10.131  11.243  0.2784  1.2946  0.8722
   12MOL0     C 1518   1.418   9.996  11.294 -0.2489  0.0275 -0.5280
   12MOL0     C 1519   1.295   9.933  11.321 -0.9117 -0.4216 -0.3112
   12MOL0     C 1520   1.174  10.004  11.288  0.1277 -0.6940 -0.4554
   12MOL0     O 1521   1.049   9.955  11.290 -0.1921  0.1770 -0.7149
   12MOL0     C 1522   1.024   9.821  11.326 -0.2414  0.0709 -0.7021
   12MOL0     C 1523   1.050   9.727  11.204  0.0852 -0.0138 -0.7421
   12MOL0     C 1524   0.993   9.597  11.251  0.3657 -0.3761  0.1553
   12MOL0     C 1525   1.021   9.477  11.159  0.4829  0.1767 -0.0433
   12MOL0     C 1526   0.948   9.348  11.201  0.0736  0.4129  0.2052
   12MOL0     C 1527   1.011   9.275  11.326  0.4532 -0.0047 -0.4779
   12MOL0     C 1528   0.944   9.138  11.353 -0.3838  0.3115  0.6249
   12MOL0     C 1529   0.989   9.088  11.489 -0.0725 -0.7554  0.0844
   12MOL0    Cl 1530   1.158   9.032  11.456 -0.1237  0.1391 -0.6007
   12MOL0     C 1531   1.178  10.137  11.252  0.1415  0.0408  0.3542
   12MOL0     C 1532   1.297  10.193  11.221 -0.8163 -0.4303  0.2094
   12MOL0     O 1533   1.535  10.390  11.335  0.4362  0.1011  0.3450
   12MOL0     C 1534   1.779  10.346  11.097 -0.4065 -0.3615  0.4978
   12MOL0     C 1535   1.908  10.386  11.066 -0.1181  0.0219 -0.2588
   12MOL0     N 1536   2.645  10.081  10.930 -0.0809 -0.5249 -0.1078
   12MOL0     N 1537   2.707   9.975  10.970 -0.2000 -0.1829  0.1391
   12MOL0     C 1538   3.921   9.954  11.130  0.0100  0.1963  0.1358
   12MOL0     C 1539   4.024  10.019  11.062  0.6081 -0.3788  0.7629
   12MOL0     C 1540   4.260  10.292  10.833  0.2980  0.2479  0.5565
   12MOL0     C 1541   4.308  10.241  10.703 -0.1812 -0.0756 -0.5734
   12MOL0     C 1542   4.418  10.303  10.636  1.1707 -0.2730  0.4931
   12MOL0     C 1543   4.481  10.413  10.689  0.1002  0.6460 -0.9200
   12MOL0     O 1544   4.568  10.497  10.624 -0.2060 -0.4150  0.2971
   12MOL0     C 1545   4.625  10.466  10.499 -0.4088  0.1382  0.0673
   12MOL0     C 1546   4.742  10.554  10.458  0.2170  0.5260  0.5695
   12MOL0     C 1547   4.701  10.694  10.388  0.4965  0.3327 -0.2168
   12MOL0     C 1548   4.803  10.743  10.293 -0.2327 -0.2892  0.9734
   12MOL0     C 1549   4.818  10.893  10.279  0.3167  0.1515 -0.3573
   12MOL0     C 1550   4.818  11.010  10.258 -0.7556  0.2787 -0.1894
   12MOL0     C 1551   4.439  10.463  10.817 -0.1489  0.3220 -0.2351
   12MOL0     C 1552   4.327  10.403  10.891  0.3321  0.4443  0.3817
   12MOL0     H 1553   3.879  10.027  10.761 -0.5561 -0.4222 -1.3495
   12MOL0     H 1554   3.716   9.874  10.869 -0.3440 -0.4747  0.2552
   12MOL0     H 1555   3.782   9.735  11.273 -1.2764 -1.4277  1.1959
   12MOL0     H 1556   3.706   9.901  11.300 -1.5928  1.0001 -0.7574
   12MOL0     H 1557   3.583   9.651  11.209 -0.1058  1.0268 -1.1947
   12MOL0     H 1558   3.569   9.710  11.375  1.3037 -1.5259  0.1468
   12MOL0     H 1559   3.457   9.923  11.283 -0.2178  0.9990 -0.1073
   12MOL0     H 1560   3.460   9.839  11.117  2.6789 -3.5381 -0.3408
   12MOL0     H 1561   3.308   9.668  11.238  2.2095  0.4129 -0.0301
   12MOL0     H 1562   3.304   9.779  11.372 -2.1171 -1.1000 -0.0320
   12MOL0     H 1563   3.228   9.955  11.170 -0.0376 -0.2996 -2.9214
   12MOL0     H 1564   3.193   9.811  11.078 -0.0519 -0.1305  0.9332
   12MOL0     H 1565   3.022   9.738  11.231  0.6195 -0.6882 -2.5775
   12MOL0     H 1566   3.067   9.880  11.336 -0.0713 -0.3026 -0.0940
   12MOL0     H 1567   2.973  10.038  11.195 -1.4835  0.2868 -0.1796
   12MOL0     H 1568   2.996   9.928  11.064 -0.3710 -0.6620  0.4688
   12MOL0     H 1569   2.780   9.923  11.282 -1.1140  4.0603 -0.8743
   12MOL0     H 1570   2.781   9.799  11.154 -1.0025  0.5916  0.4369
   12MOL0     H 1571   2.715  10.147  11.244  1.2753  1.4940 -1.1501
   12MOL0     H 1572   2.649  10.376  11.041  1.1173 -1.8316  1.7278
   12MOL0     H 1573   2.519  10.316  10.931 -0.2425 -2.9611  0.4537
   12MOL0     H 1574   2.498  10.357  11.239  3.2651  0.4083 -1.6081
   12MOL0     H 1575   2.408  10.229  11.154  0.8987 -0.3251  2.0998
   12MOL0     H 1576   2.319  10.380  10.992  2.1371 -5.0703 -0.5522
   12MOL0     H 1577   2.396  10.519  11.070 -2.2735  0.4590 -0.4068
   12MOL0     H 1578   2.254  10.486  11.273 -3.8144 -1.5165  2.0687
   12MOL0     H 1579   2.207  10.317  11.224 -1.7202 -0.4891  0.2701
   12MOL0     H 1580   2.037  10.445  11.367 -2.2445  0.3023  0.4758
   12MOL0     H 1581   1.910  10.341  11.551 -2.2793 -0.1356  4.2921
   12MOL0     H 1582   1.785  10.449  11.530  2.2638 -0.5394  0.2691
   12MOL0     H 1583   1.753  10.273  11.511 -0.7835  0.7233  0.4706
   12MOL0     H 1584   1.505   9.940  11.326 -0.1447  1.1216  1.2102
   12MOL0     H 1585   1.284   9.836  11.367 -1.1289 -0.1408  0.2377
   12MOL0     H 1586   1.088   9.784  11.407 -0.1757 -0.4819 -0.9999
   12MOL0     H 1587   0.920   9.819  11.359 -0.0146 -0.8864  0.0341
   12MOL0     H 1588   0.998   9.768  11.117  0.2416  0.9140 -0.4114
   12MOL0     H 1589   1.158   9.712  11.195  0.3018  0.6212  0.5158
   12MOL0     H 1590   0.886   9.599  11.270  0.6146 -1.4020  1.8515
   12MOL0     H 1591   1.033   9.569  11.349  0.3273 -1.7706 -0.2050
   12MOL0     H 1592   0.982   9.505  11.060  0.2413  0.5429  0.1567
   12MOL0     H 1593   1.129   9.460  11.150  0.2484 -1.6379  0.0704
   12MOL0     H 1594   0.957   9.278  11.117  2.2762 -2.2027  2.4205
   12MOL0     H 1595   0.842   9.360  11.223  0.1975  0.0047  1.0817
   12MOL0     H 1596   1.118   9.258  11.314  0.1783 -1.7908 -0.6410
   12MOL0     H 1597   1.011   9.337  11.417 -0.3801 -1.2251  0.3864
   12MOL0     H 1598   0.984   9.078  11.271 -2.0849  2.3378 -1.8197
   12MOL0     H 1599   0.836   9.149  11.359 -0.6582 -1.5150 -0.3007
   12MOL0     H 1600   0.940   9.000  11.531  4.0468 -2.0637  2.7443
   12MOL0     H 1601   0.987   9.167  11.565 -1.6916 -1.5382  0.9119
   12MOL0     H 1602   1.085  10.193  11.248  0.1458  0.2936  2.5427
   12MOL0     H 1603   1.300  10.297  11.191  0.3398 -0.1344  1.2607
   12MOL0     H 1604   1.707  10.327  11.018  1.2474 -0.7701 -0.9690
   12MOL0     H 1605   1.933  10.415  10.965 -0.7501 -0.2834 -0.5073
   12MOL0     H 1606   3.938   9.931  11.235  0.5865 -1.5226 -0.2882
   12MOL0     H 1607   4.116  10.046  11.113  0.1086  1.8946  0.5820
   12MOL0     H 1608   4.267  10.153  10.656  0.5760  0.2012 -1.8055
   12MOL0     H 1609   4.449  10.263  10.540 -0.0222  0.2967 -0.1540
   12MOL0     H 1610   4.665  10.365  10.513  3.3866  1.3882 -0.4484
   12MOL0     H 1611   4.551  10.463  10.419 -0.5388 -1.7825  0.2142
   12MOL0     H 1612   4.808  10.502  10.388  0.1800  1.5150 -0.2315
   12MOL0     H 1613   4.796  10.579  10.550 -0.6072  1.8027  0.7322
   12MOL0     H 1614   4.707  10.758  10.476  2.3834  0.8853 -0.6854
   12MOL0     H 1615   4.606  10.687  10.335  0.5415  0.3484 -0.2981
   12MOL0     H 1616   4.773  10.699  10.197 -0.6344  0.7216  0.6222
   12MOL0     H 1617   4.904  10.704  10.314 -0.5107 -0.4281  2.0946
   12MOL0     H 1618   4.820  11.116  10.242  0.7629  0.1262 -1.2697
   12MOL0     H 1619   4.479  10.556  10.856 -1.6659  0.5932  0.7600
   12MOL0     H 1620   4.313  10.438  10.992  1.7810  1.0469  0.3903
   13MOL0     O 1621   9.341   3.907   4.128 -0.1730  0.3804  0.3101
   13MOL0     C 1622   9.411   3.808   4.162 -0.0990  0.2460 -0.3064
   13MOL0     O 1623   9.365   3.692   4.199  0.2974  0.6269 -0.2004
   13MOL0     C 1624   9.234   3.687   4.245  0.5878  0.4617 -0.3044
   13MOL0     C 1625   9.164   3.781   4.322 -0.6257  0.4041  0.5652
   13MOL0     C 1626   9.039   3.763   4.368  0.8806 -0.3044 -0.3483
   13MOL0     C 1627   8.974   3.647   4.335 -0.7171 -0.6985 -0.8996
   13MOL0     O 1628   8.849   3.616   4.387  0.3847 -1.1607 -0.1149
   13MOL0     C 1629   8.766   3.717   4.456  0.1954 -0.0945 -0.6788
   13MOL0     C 1630   8.633   3.669   4.524  0.0981  0.4904  0.0741
   13MOL0     C 1631   8.543   3.660   4.403 -0.0260 -0.5229  0.4094
   13MOL0     C 1632   8.407   3.608   4.453 -0.7501 -0.4744 -0.2236
   13MOL0     C 1633   8.315   3.561   4.337  0.1834 -0.0364  0.0955
   13MOL0     C 1634   8.180   3.507   4.396  0.2355 -0.4860  0.0956
   13MOL0     C 1635   8.083   3.452   4.301  0.8314  0.5183  0.7258
   13MOL0     C 1636   7.961   3.430   4.386 -0.1654  0.4765  0.1504
   13MOL0     N 1637   7.846   3.385   4.306 -0.3376  0.4094 -0.1428
   13MOL0     C 1638   7.826   3.252   4.263 -0.2342  0.0925 -0.0088
   13MOL0     C 1639   7.728   3.269   4.173  0.0311  0.1973 -0.6837
   13MOL0     C 1640   7.675   3.169   4.079 -0.3357  0.3600  0.5215
   13MOL0     C 1641   7.536   3.203   4.014  0.2834  0.4155  0.0737
   13MOL0     C 1642   7.514   3.102   3.905  0.3796 -0.0423  0.5183
   13MOL0     C 1643   7.367   3.100   3.874 -0.2462  0.4601  0.2510
   13MOL0     O 1644   7.310   3.052   3.993 -0.6681  0.0487  0.3178
   13MOL0     C 1645   7.174   3.036   3.988 -0.3881 -0.6075 -0.1897
   13MOL0     C 1646   7.110   3.022   4.105 -0.3169 -0.4028 -1.1188
   13MOL0     C 1647   6.970   3.015   4.115  0.1161 -0.9849 -0.0060
   13MOL0     C 1648   6.924   3.018   4.263  0.0878  0.5081 -0.3046
   13MOL0     C 1649   6.890   3.007   3.996 -0.1142  0.1742 -0.2247
   13MOL0     C 1650   6.745   2.998   4.001  0.6287  0.8690 -0.4029
   13MOL0     O 1651   6.690   3.003   3.877 -0.1768  0.2484 -0.0013
   13MOL0     C 1652   6.552   2.998   3.860  0.4059  0.5483 -0.9631
   13MOL0     C 1653   6.498   2.879   3.806  0.1079 -0.0197 -0.3733
   13MOL0     C 1654   6.358   2.868   3.803  0.2622  0.4358 -0.2149
   13MOL0     C 1655   6.269   2.960   3.859  0.8522 -0.6706 -0.7874
   13MOL0     O 1656   6.139   2.918   3.864  0.3228  0.5321 -0.4041
   13MOL0     C 1657   6.044   2.987   3.943 -0.1384 -0.5122 -0.8907
   13MOL0     C 1658   5.910   2.916   3.973  0.3578  1.1504  0.0889
   13MOL0     C 1659   5.835   2.884   3.840 -0.0191 -0.1122 -0.9480
   13MOL0     C 1660   5.767   3.013   3.782  0.1949  0.9223  0.0603
   13MOL0     C 1661   5.653   2.972   3.678  0.5647  0.0187 -0.2660
   13MOL0     C 1662   5.603   3.100   3.620  0.8703 -0.1052 -0.1075
   13MOL0     C 1663   5.512   3.056   3.498 -0.1872 -0.1608  0.1283
   13MOL0     C 1664   5.428   3.164   3.428  0.0606  0.1783 -1.0988
   13MOL0    Cl 1665   5.517   3.312   3.405 -0.0494 -0.0920  0.1830
   13MOL0     C 1666   6.323   3.085   3.907  0.2857  0.2292  0.4955
   13MOL0     C 1667   6.469   3.105   3.895  0.9940  1.7891  0.0747
   13MOL0     O 1668   6.685   2.967   4.106 -1.0410 -0.5791  0.0740
   13MOL0     C 1669   6.966   2.999   3.880 -0.2991 -0.0929  0.4642
   13MOL0     C 1670   7.099   3.019   3.875 -0.9696  0.9234 -0.6048
   13MOL0     N 1671   7.696   3.398   4.160  0.7282 -0.2551  0.7163
   13MOL0     N 1672   7.763   3.468   4.242 -0.2050  0.6442 -0.0290
   13MOL0     C 1673   9.039   3.549   4.259 -0.6692 -0.2193 -1.3858
   13MOL0     C 1674   9.161   3.573   4.211 -0.4761  0.1896  0.5196
   13MOL0     C 1675   9.564   3.827   4.157 -0.7876 -0.0931 -0.2633
   13MOL0     C 1676   9.620   3.948   4.111 -0.7542 -0.1715 -0.3088
   13MOL0     C 1677   9.760   3.967   4.115 -0.0526  0.4356 -0.4959
   13MOL0     C 1678   9.847   3.874   4.175  0.3326  0.4838 -0.4222
   13MOL0     O 1679   9.980   3.898   4.192 -0.0127  0.1285 -0.1426
   13MOL0     C 1680  10.037   4.028   4.154  0.0917 -0.5089  0.2793
   13MOL0     C 1681  10.192   4.022   4.168  0.5934 -0.5258  0.7273
   13MOL0     C 1682  10.226   4.026   4.314  0.3858  0.0547  0.1846
   13MOL0     C 1683  10.375   4.032   4.328 -0.3023  0.4852 -0.3067
   13MOL0     C 1684  10.417   4.172   4.366  0.8010 -0.5995  0.5936
   13MOL0     C 1685  10.452   4.276   4.419  0.0421 -0.1657  0.8322
   13MOL0     C 1686   9.794   3.756   4.230 -1.2840  0.1266 -0.1884
   13MOL0     C 1687   9.655   3.739   4.221 -0.2950 -0.4143  0.0429
   13MOL0     H 1688   9.203   3.880   4.339 -1.9109  0.9128  0.6732
   13MOL0     H 1689   9.002   3.846   4.426  1.0759 -0.0539 -0.5773
   13MOL0     H 1690   8.832   3.759   4.532 -0.3504  0.5170 -0.5328
   13MOL0     H 1691   8.739   3.794   4.383 -0.3910 -2.0900 -2.6903
   13MOL0     H 1692   8.655   3.578   4.581  0.3753  1.5700  1.7653
   13MOL0     H 1693   8.586   3.750   4.582  0.4729  0.2379  0.7410
   13MOL0     H 1694   8.533   3.756   4.352  0.6625  1.1335  3.1955
   13MOL0     H 1695   8.580   3.591   4.325 -0.7861  3.6914 -4.1952
   13MOL0     H 1696   8.425   3.520   4.516  0.0379 -0.8723 -0.9890
   13MOL0     H 1697   8.351   3.686   4.505 -0.4931  0.3657 -1.1707
   13MOL0     H 1698   8.302   3.649   4.273  0.7880 -1.1808 -1.6441
   13MOL0     H 1699   8.366   3.486   4.276  0.4517  0.5166 -0.3690
   13MOL0     H 1700   8.205   3.430   4.470 -1.4273  1.2517  2.6441
   13MOL0     H 1701   8.131   3.596   4.437 -0.6966 -1.2097  0.6093
   13MOL0     H 1702   8.059   3.516   4.216 -4.1149 -2.0464 -0.2025
   13MOL0     H 1703   8.125   3.358   4.265  0.5986  0.8820 -0.5557
   13MOL0     H 1704   7.930   3.525   4.431 -0.7178  2.0646 -3.2670
   13MOL0     H 1705   7.993   3.359   4.463  1.3899 -2.1239 -2.6902
   13MOL0     H 1706   7.884   3.161   4.276  0.4268  0.1860 -2.0637
   13MOL0     H 1707   7.749   3.165   3.999 -0.8730  0.9597 -0.0270
   13MOL0     H 1708   7.668   3.071   4.126  2.6664 -0.6979 -1.0089
   13MOL0     H 1709   7.540   3.300   3.963 -1.0254  0.6148  0.3178
   13MOL0     H 1710   7.461   3.208   4.093  0.5462 -0.4793  0.3883
   13MOL0     H 1711   7.542   3.004   3.944  0.8894  0.2813  0.9699
   13MOL0     H 1712   7.579   3.119   3.819 -0.8485  0.7613 -0.2916
   13MOL0     H 1713   7.340   3.039   3.787 -2.1309 -2.5135  2.7092
   13MOL0     H 1714   7.327   3.200   3.855  0.0425  1.2156  3.1666
   13MOL0     H 1715   7.172   3.017   4.194 -4.1601  1.1092  1.8919
   13MOL0     H 1716   6.839   3.086   4.261  0.5166  1.1336 -3.7173
   13MOL0     H 1717   6.900   2.914   4.287  1.8058  0.3948  1.0917
   13MOL0     H 1718   6.999   3.050   4.337  0.1457  0.3106 -0.2763
   13MOL0     H 1719   6.563   2.802   3.767  1.0740  1.2930 -1.4502
   13MOL0     H 1720   6.310   2.778   3.766 -1.6678  0.5918  1.6879
   13MOL0     H 1721   6.085   2.991   4.044 -1.8616 -1.7348 -0.0890
   13MOL0     H 1722   6.030   3.089   3.906 -0.3076  0.6318  2.0982
   13MOL0     H 1723   5.931   2.827   4.032 -0.8795  0.6277 -0.2127
   13MOL0     H 1724   5.854   2.986   4.036  0.3828  0.6877  0.6276
   13MOL0     H 1725   5.753   2.812   3.855  0.6554 -1.4014 -3.0502
   13MOL0     H 1726   5.901   2.828   3.773  0.0289  0.0775 -1.0598
   13MOL0     H 1727   5.735   3.088   3.854 -0.7546  0.1504  0.4686
   13MOL0     H 1728   5.844   3.066   3.726  0.5825  1.2328  0.8729
   13MOL0     H 1729   5.583   2.897   3.717 -0.4631  0.9905 -0.2232
   13MOL0     H 1730   5.689   2.912   3.594 -0.8054 -3.0103  1.1434
   13MOL0     H 1731   5.547   3.161   3.692  2.1501  2.3130 -1.0664
   13MOL0     H 1732   5.690   3.161   3.596  0.6329 -0.2995 -1.4987
   13MOL0     H 1733   5.449   2.975   3.536 -0.9853  0.3657 -0.0533
   13MOL0     H 1734   5.575   3.014   3.419  0.6619 -2.9167  2.1195
   13MOL0     H 1735   5.343   3.183   3.494  2.2107  0.2145  1.8507
   13MOL0     H 1736   5.385   3.142   3.330 -2.2001  0.9971 -0.3519
   13MOL0     H 1737   6.263   3.162   3.955 -3.5409 -2.5814  0.7290
   13MOL0     H 1738   6.507   3.198   3.936  2.7290  1.0696  0.1494
   13MOL0     H 1739   6.912   2.976   3.788 -0.8699 -2.3031  1.3080
   13MOL0     H 1740   7.139   3.009   3.774 -0.1178  0.6439 -0.2543
   13MOL0     H 1741   8.989   3.453   4.246 -0.0102 -0.5685 -1.3915
   13MOL0     H 1742   9.217   3.498   4.156 -0.4588  0.0207  0.7665
   13MOL0     H 1743   9.549   4.013   4.061 -1.6369 -1.1030 -0.3144
   13MOL0     H 1744   9.785   4.067   4.082  2.9149 -1.5019 -5.0042
   13MOL0     H 1745  10.007   4.067   4.056  2.4543  1.2027  0.1672
   13MOL0     H 1746  10.011   4.104   4.228  4.3197 -0.1999  1.7013
   13MOL0     H 1747  10.235   4.100   4.104  0.7765 -1.1121  0.1177
   13MOL0     H 1748  10.235   3.927   4.134 -0.1288 -0.9433  0.9624
   13MOL0     H 1749  10.185   3.940   4.368  0.4651  0.1593  0.4118
   13MOL0     H 1750  10.180   4.116   4.356 -2.4912 -0.7438 -1.0261
   13MOL0     H 1751  10.430   4.009   4.236  1.5246 -1.4984  1.2032
   13MOL0     H 1752  10.415   3.964   4.403  1.7864 -0.1802 -1.9106
   13MOL0     H 1753  10.489   4.368   4.460 -0.0058  1.1965 -1.9062
   13MOL0     H 1754   9.850   3.679   4.282 -1.5636  1.0710  1.5705
   13MOL0     H 1755   9.605   3.648   4.254 -3.4686  1.4932  0.9631
   14MOL0     O 1756   5.627   4.698   2.726 -0.5184  0.3331 -0.1971
   14MOL0     C 1757   5.687   4.755   2.812 -0.1043 -0.2148 -0.7273
   14MOL0     O 1758   5.633   4.800   2.923 -0.1896 -0.1245 -0.0633
   14MOL0     C 1759   5.501   4.840   2.925 -0.5836  0.6675 -0.1664
   14MOL0     C 1760   5.419   4.805   3.038 -0.2029 -0.0281  0.2720
   14MOL0     C 1761   5.288   4.846   3.045  0.7824  0.2219  0.6210
   14MOL0     C 1762   5.223   4.919   2.950 -0.3389 -0.3743 -0.2412
   14MOL0     O 1763   5.095   4.965   2.963 -0.0676  0.0433 -0.4549
   14MOL0     C 1764   5.065   5.026   3.088 -0.1635 -0.0664 -1.0128
   14MOL0     C 1765   4.967   5.140   3.066 -0.2252  0.2075 -0.0623
   14MOL0     C 1766   4.926   5.205   3.194  0.3211  0.7446 -0.1754
   14MOL0     C 1767   4.781   5.171   3.239 -0.7543  0.7856  0.6491
   14MOL0     C 1768   4.731   5.253   3.355  0.5184 -0.3839  0.3662
   14MOL0     C 1769   4.609   5.191   3.416 -0.0896  0.2111 -0.0287
   14MOL0     C 1770   4.493   5.292   3.456  0.3999 -0.3435 -0.8365
   14MOL0     C 1771   4.386   5.209   3.527 -0.3661 -0.4556  0.2223
   14MOL0     N 1772   4.271   5.288   3.546 -0.9308  0.6381  0.2952
   14MOL0     C 1773   4.168   5.296   3.457  0.2931  0.2458 -0.3019
   14MOL0     C 1774   4.094   5.406   3.494  0.0475 -0.0862 -0.4269
   14MOL0     C 1775   3.986   5.466   3.424 -0.4410 -0.0026 -0.0891
   14MOL0     C 1776   3.911   5.559   3.505 -0.6584 -0.5866  0.3253
   14MOL0     C 1777   3.794   5.637   3.438 -0.8290  0.1575  0.2745
   14MOL0     C 1778   3.697   5.535   3.383 -0.0066 -0.3435  0.2483
   14MOL0     O 1779   3.614   5.618   3.296  0.2970 -0.2705 -0.1996
   14MOL0     C 1780   3.479   5.657   3.329 -0.3730 -0.1876  0.2254
   14MOL0     C 1781   3.387   5.729   3.239 -1.1469 -0.5770  0.3026
   14MOL0     C 1782   3.246   5.747   3.256 -0.1072 -0.3827 -0.1731
   14MOL0     C 1783   3.173   5.815   3.140 -0.0919 -0.1335  0.7876
   14MOL0     C 1784   3.195   5.705   3.381  0.4177 -0.2078 -0.5926
   14MOL0     C 1785   3.053   5.718   3.416 -0.0179  0.5572 -0.5211
   14MOL0     O 1786   2.971   5.795   3.334 -0.7172  0.8169 -0.2757
   14MOL0     C 1787   2.840   5.787   3.353  0.0832 -0.2664  0.2134
   14MOL0     C 1788   2.760   5.724   3.258  0.1936  0.1771 -0.3624
   14MOL0     C 1789   2.621   5.717   3.279  0.4340  0.0421 -0.7017
   14MOL0     C 1790   2.568   5.780   3.399 -0.3668 -0.2676 -1.2250
   14MOL0     O 1791   2.429   5.778   3.430 -0.2487  0.1268 -0.0721
   14MOL0     C 1792   2.329   5.741   3.329 -0.7047  0.2538  0.2293
   14MOL0     C 1793   2.200   5.813   3.377  0.1003  0.1718 -0.2271
   14MOL0     C 1794   2.140   5.744   3.501 -0.2965  0.5520 -0.2652
   14MOL0     C 1795   2.033   5.830   3.557  0.8849  0.0419 -0.4560
   14MOL0     C 1796   1.976   5.744   3.676  0.0312  0.3283 -0.4766
   14MOL0     C 1797   1.885   5.838   3.761  0.7979  0.6838 -0.2343
   14MOL0     C 1798   1.805   5.766   3.874  0.4960 -0.0945  0.2384
   14MOL0     C 1799   1.712   5.867   3.952  0.5446  0.0528  0.2716
   14MOL0    Cl 1800   1.605   5.969   3.837  0.1085  0.1714 -0.3954
   14MOL0     C 1801   2.648   5.844   3.491  0.2254  1.5004  0.3283
   14MOL0     C 1802   2.779   5.854   3.469 -0.2273 -0.5051  0.3824
   14MOL0     O 1803   3.014   5.643   3.508  0.0530  0.1167  0.5830
   14MOL0     C 1804   3.289   5.654   3.479  0.1439 -0.9472  0.0663
   14MOL0     C 1805   3.424   5.632   3.456 -0.0540 -0.1411  0.2730
   14MOL0     N 1806   4.154   5.452   3.605  0.5564  0.2080 -0.8252
   14MOL0     N 1807   4.258   5.390   3.641 -0.0504 -0.2005 -0.5142
   14MOL0     C 1808   5.299   4.961   2.840 -0.5094 -0.0290 -0.7099
   14MOL0     C 1809   5.431   4.913   2.829 -0.4505  0.3017  0.3031
   14MOL0     C 1810   5.830   4.765   2.804  0.2785 -0.1897 -0.3018
   14MOL0     C 1811   5.911   4.820   2.908  0.3475 -0.3111  0.6173
   14MOL0     C 1812   6.046   4.829   2.892 -0.0632  0.3432  0.0503
   14MOL0     C 1813   6.114   4.788   2.775  0.9174  0.2877  0.1906
   14MOL0     O 1814   6.248   4.793   2.747  0.7995 -0.1243  0.3655
   14MOL0     C 1815   6.343   4.781   2.849  0.4143 -0.2880  0.2503
   14MOL0     C 1816   6.413   4.911   2.893  0.2527  0.7554  0.2626
   14MOL0     C 1817   6.483   4.981   2.777  0.0580 -0.4429 -0.2265
   14MOL0     C 1818   6.521   5.122   2.813 -0.5290 -0.2273  0.0725
   14MOL0     C 1819   6.584   5.145   2.948  0.3028 -1.1088 -0.6087
   14MOL0     C 1820   6.636   5.161   3.056 -0.2086 -0.1013  0.1632
   14MOL0     C 1821   6.028   4.750   2.667 -0.2213 -0.2556  0.1183
   14MOL0     C 1822   5.892   4.725   2.685  0.0328  0.9868  0.1892
   14MOL0     H 1823   5.465   4.737   3.109  1.4088 -0.1121 -0.8033
   14MOL0     H 1824   5.243   4.815   3.138  0.3962 -1.7960 -0.1750
   14MOL0     H 1825   5.035   4.942   3.151 -0.1264  1.4266  1.1122
   14MOL0     H 1826   5.148   5.068   3.146 -1.9342 -0.5984  2.1133
   14MOL0     H 1827   5.007   5.216   2.999 -1.7438 -1.4273 -3.0232
   14MOL0     H 1828   4.874   5.101   3.023  0.9413 -2.3483 -0.4603
   14MOL0     H 1829   4.994   5.175   3.275  0.5015 -2.2658 -1.3453
   14MOL0     H 1830   4.919   5.313   3.174 -2.5240  0.6618 -0.0335
   14MOL0     H 1831   4.715   5.176   3.152  0.4814  0.4056 -0.3616
   14MOL0     H 1832   4.785   5.067   3.273  0.2758  1.3612  2.4103
   14MOL0     H 1833   4.815   5.273   3.421 -0.3814 -0.1448  1.4708
   14MOL0     H 1834   4.696   5.350   3.318 -3.8834 -1.4380  1.1424
   14MOL0     H 1835   4.559   5.135   3.336  0.9957 -2.0338  0.7663
   14MOL0     H 1836   4.636   5.126   3.499  0.5072 -0.4880 -0.7527
   14MOL0     H 1837   4.536   5.370   3.519 -0.8129  0.6235 -1.1664
   14MOL0     H 1838   4.448   5.342   3.369 -0.2340 -0.1407 -0.3922
   14MOL0     H 1839   4.426   5.162   3.617  0.3023 -0.4088 -0.0428
   14MOL0     H 1840   4.352   5.120   3.472  1.0135 -0.2112 -1.0820
   14MOL0     H 1841   4.142   5.226   3.378 -3.8252 -1.1257  1.9428
   14MOL0     H 1842   4.028   5.523   3.341  0.3310  0.4334  0.5807
   14MOL0     H 1843   3.924   5.381   3.397 -2.2051  0.6491  1.6553
   14MOL0     H 1844   3.974   5.629   3.562 -2.8111 -0.2515  2.4622
   14MOL0     H 1845   3.870   5.508   3.592 -1.0044  0.5367  0.8412
   14MOL0     H 1846   3.822   5.705   3.357 -1.3725  3.8029  2.9354
   14MOL0     H 1847   3.738   5.700   3.507 -0.6783 -0.0354  0.5730
   14MOL0     H 1848   3.642   5.486   3.465  1.1656 -5.1206 -1.4541
   14MOL0     H 1849   3.743   5.450   3.331  0.0290 -2.0419  2.8322
   14MOL0     H 1850   3.433   5.759   3.145 -2.2935  0.9715  0.1897
   14MOL0     H 1851   3.247   5.845   3.065  0.3536  2.1973  2.0818
   14MOL0     H 1852   3.093   5.748   3.105  1.6316 -1.3203 -1.1335
   14MOL0     H 1853   3.122   5.907   3.171  0.3415 -0.1698  1.6478
   14MOL0     H 1854   2.812   5.680   3.174  1.5269 -2.0557  1.5228
   14MOL0     H 1855   2.549   5.665   3.216  0.6934 -0.2267 -0.7789
   14MOL0     H 1856   2.358   5.783   3.232  0.2260 -0.6374  0.1096
   14MOL0     H 1857   2.320   5.632   3.329  1.8496 -0.0894  2.8606
   14MOL0     H 1858   2.210   5.922   3.373  2.5875  0.1609  2.3695
   14MOL0     H 1859   2.129   5.789   3.298  0.6665 -0.0981 -0.6628
   14MOL0     H 1860   2.214   5.736   3.581 -1.0886 -1.3095  0.3222
   14MOL0     H 1861   2.108   5.645   3.469  3.4803 -1.1385  0.6878
   14MOL0     H 1862   2.073   5.923   3.599  0.5960  0.3419 -0.8372
   14MOL0     H 1863   1.951   5.865   3.493  2.6330 -1.1598 -3.5837
   14MOL0     H 1864   2.061   5.717   3.739 -0.5805  0.0863  0.2604
   14MOL0     H 1865   1.919   5.654   3.652 -2.0250  0.7309  2.3903
   14MOL0     H 1866   1.944   5.911   3.817  1.3024 -1.4513  2.2684
   14MOL0     H 1867   1.819   5.884   3.687  0.8348  0.1961 -0.5720
   14MOL0     H 1868   1.855   5.703   3.948 -1.5027 -1.4829  0.4775
   14MOL0     H 1869   1.745   5.693   3.820  0.4739  0.7499 -0.9051
   14MOL0     H 1870   1.791   5.923   4.002  1.7360 -1.7899  0.5777
   14MOL0     H 1871   1.650   5.809   4.021 -1.5686 -0.1006 -1.6305
   14MOL0     H 1872   2.617   5.894   3.582 -1.3090  0.2149  0.5427
   14MOL0     H 1873   2.826   5.905   3.552 -0.1769 -0.0429  0.0780
   14MOL0     H 1874   3.255   5.649   3.582  3.5878  2.9827  1.6824
   14MOL0     H 1875   3.487   5.599   3.538 -0.0393 -1.4489 -0.2346
   14MOL0     H 1876   5.268   5.040   2.773  1.7249  0.2649 -1.4870
   14MOL0     H 1877   5.490   4.946   2.744 -1.5834  0.4137 -0.4552
   14MOL0     H 1878   5.871   4.833   3.009 -1.1923 -1.4030  0.1847
   14MOL0     H 1879   6.116   4.860   2.969  1.2962  0.9850 -1.3752
   14MOL0     H 1880   6.295   4.734   2.936 -2.1593  1.3676 -0.1459
   14MOL0     H 1881   6.416   4.708   2.812  0.9922 -1.0697  2.7648
   14MOL0     H 1882   6.481   4.880   2.973 -1.9181  0.4806  2.1361
   14MOL0     H 1883   6.335   4.981   2.924  0.9110  1.1048  1.1655
   14MOL0     H 1884   6.415   4.981   2.691  2.5564  0.1161 -2.3279
   14MOL0     H 1885   6.572   4.926   2.749  1.1918 -0.4752  3.0449
   14MOL0     H 1886   6.435   5.190   2.810  0.1068  0.6629  0.9831
   14MOL0     H 1887   6.591   5.167   2.742 -1.0238  2.7449  1.3201
   14MOL0     H 1888   6.678   5.161   3.155  1.2403 -2.1595 -0.3812
   14MOL0     H 1889   6.076   4.722   2.574  1.9932  0.2123  1.0736
   14MOL0     H 1890   5.849   4.677   2.598  2.3927 -0.5718 -0.2070
   15MOL0     O 1891   5.016   2.829   3.070  0.1116  0.5376  0.1935
   15MOL0     C 1892   5.103   2.848   3.149 -0.7637 -0.3003 -0.1859
   15MOL0     O 1893   5.097   2.928   3.261 -0.3613 -0.5393  0.1129
   15MOL0     C 1894   4.979   2.979   3.303  0.1662 -1.1289  0.6713
   15MOL0     C 1895   4.854   2.928   3.289  0.6757 -0.0576  0.6296
   15MOL0     C 1896   4.732   2.999   3.323 -0.1137  0.1417  0.3622
   15MOL0     C 1897   4.743   3.129   3.382  0.2139 -0.0986  0.1290
   15MOL0     O 1898   4.637   3.210   3.415 -0.0903  0.1099 -0.0890
   15MOL0     C 1899   4.504   3.154   3.410  0.0224 -0.2436  0.8185
   15MOL0     C 1900   4.395   3.262   3.426  0.2245  0.4057  0.9667
   15MOL0     C 1901   4.395   3.383   3.328  1.6439 -0.0003  0.6447
   15MOL0     C 1902   4.304   3.499   3.371 -0.5156  0.6842  0.2180
   15MOL0     C 1903   4.312   3.619   3.270 -0.7857  0.1079  0.4373
   15MOL0     C 1904   4.205   3.618   3.152  0.1632 -0.2243  1.5070
   15MOL0     C 1905   4.211   3.502   3.055 -0.6717  0.1503 -0.4129
   15MOL0     C 1906   4.105   3.509   2.942 -0.2046  0.1721 -0.5520
   15MOL0     N 1907   3.964   3.523   2.997 -0.0330 -1.1568 -0.3202
   15MOL0     C 1908   3.874   3.630   2.961  0.5293 -1.2967  0.3012
   15MOL0     C 1909   3.759   3.595   3.019  0.8676  0.7918 -0.7112
   15MOL0     C 1910   3.637   3.678   3.006  0.5534  0.3072  0.0282
   15MOL0     C 1911   3.639   3.829   3.054 -0.8043 -0.1959 -0.6375
   15MOL0     C 1912   3.516   3.909   3.015  0.0005 -0.3468  0.2009
   15MOL0     C 1913   3.391   3.857   3.089  0.4953 -0.9230 -0.5490
   15MOL0     O 1914   3.279   3.943   3.069 -0.1559  0.3037  0.6164
   15MOL0     C 1915   3.197   3.912   2.961  0.5779 -0.4746 -0.3137
   15MOL0     C 1916   3.243   3.830   2.852 -0.6309  0.5490  0.1663
   15MOL0     C 1917   3.172   3.809   2.731  0.4326 -0.5819 -0.7703
   15MOL0     C 1918   3.238   3.712   2.633  0.4020 -0.0343  0.2902
   15MOL0     C 1919   3.048   3.874   2.718 -0.7104 -0.5172  0.4320
   15MOL0     C 1920   2.962   3.860   2.594  0.8405  0.3657  0.6552
   15MOL0     O 1921   2.890   3.969   2.551 -0.1073 -0.3112 -0.0411
   15MOL0     C 1922   2.844   3.983   2.417 -0.2007  0.1696  0.2412
   15MOL0     C 1923   2.743   4.076   2.392 -0.5048 -0.8957  0.0104
   15MOL0     C 1924   2.684   4.093   2.270 -0.7237 -0.7526  0.2565
   15MOL0     C 1925   2.737   4.028   2.156 -0.3946 -0.5181 -0.0392
   15MOL0     O 1926   2.662   4.028   2.043 -0.1225  0.3215 -0.0367
   15MOL0     C 1927   2.725   4.006   1.915  0.6223  0.5074 -0.2498
   15MOL0     C 1928   2.637   4.042   1.796 -0.4266 -0.0780 -0.1605
   15MOL0     C 1929   2.499   3.986   1.798 -0.4846 -0.2209 -0.5522
   15MOL0     C 1930   2.412   4.049   1.677  0.8569  0.4952 -0.5908
   15MOL0     C 1931   2.259   4.033   1.701  0.4351  0.7057  0.3159
   15MOL0     C 1932   2.187   4.093   1.581 -0.9525  0.1866  0.0160
   15MOL0     C 1933   2.040   4.075   1.566  0.9127 -0.1685  0.4654
   15MOL0     C 1934   1.984   3.931   1.594  0.3099  0.6644 -0.7852
   15MOL0    Cl 1935   2.064   3.805   1.482 -0.0359 -0.5969  0.0708
   15MOL0     C 1936   2.856   3.958   2.170 -0.3061 -0.5339 -0.0101
   15MOL0     C 1937   2.908   3.929   2.302 -0.6658  0.1702  0.0758
   15MOL0     O 1938   2.940   3.748   2.543 -0.3211  0.2205  0.0550
   15MOL0     C 1939   3.001   3.953   2.826 -0.0007 -0.2830 -0.0937
   15MOL0     C 1940   3.074   3.968   2.948 -0.3964  0.8725  0.6322
   15MOL0     N 1941   3.772   3.473   3.083 -0.7230 -0.2801 -0.0419
   15MOL0     N 1942   3.899   3.430   3.070 -0.3838  0.1455  0.2094
   15MOL0     C 1943   4.878   3.177   3.409  0.7769  0.5142 -0.4952
   15MOL0     C 1944   4.987   3.103   3.370  0.0488  0.2885  1.3662
   15MOL0     C 1945   5.243   2.810   3.114  0.0214  0.2308 -0.3726
   15MOL0     C 1946   5.360   2.849   3.193 -0.2334  0.0000  0.1022
   15MOL0     C 1947   5.485   2.791   3.166  0.0328  0.5734  0.0070
   15MOL0     C 1948   5.500   2.719   3.042 -0.9157 -0.1796 -0.3048
   15MOL0     O 1949   5.621   2.672   2.988  0.2833 -0.2905 -0.0569
   15MOL0     C 1950   5.721   2.627   3.080 -0.1409 -0.3014 -0.0174
   15MOL0     C 1951   5.839   2.589   2.989  0.4626 -0.1282  0.6078
   15MOL0     C 1952   5.972   2.571   3.071  0.9644  0.2577  0.9166
   15MOL0     C 1953   6.074   2.471   3.002 -0.5141  0.1916 -0.4397
   15MOL0     C 1954   6.193   2.450   3.090 -0.1650 -0.7238 -0.1645
   15MOL0     C 1955   6.279   2.445   3.174  0.1393  0.7820 -1.3462
   15MOL0     C 1956   5.389   2.688   2.963 -0.1514  0.2568 -0.8487
   15MOL0     C 1957   5.264   2.725   3.003  0.8760 -0.8858 -0.3780
   15MOL0     H 1958   4.842   2.829   3.246 -0.4530  0.0483  0.6817
   15MOL0     H 1959   4.634   2.954   3.312 -0.9140  2.1796 -2.0388
   15MOL0     H 1960   4.484   3.099   3.317  3.0267 -0.5311  0.2366
   15MOL0     H 1961   4.484   3.076   3.484  1.6217  0.5365  2.1435
   15MOL0     H 1962   4.302   3.208   3.407 -1.1154  2.6416  0.7148
   15MOL0     H 1963   4.392   3.305   3.527  1.0631 -0.7972  1.5267
   15MOL0     H 1964   4.499   3.415   3.324  1.4795  0.4797  0.2232
   15MOL0     H 1965   4.361   3.348   3.230 -0.3129  1.7067  0.6506
   15MOL0     H 1966   4.199   3.471   3.383 -0.5642  1.0054  0.5847
   15MOL0     H 1967   4.340   3.530   3.470  1.2747  2.1636 -0.8244
   15MOL0     H 1968   4.304   3.712   3.327 -2.2147  1.1899 -1.4244
   15MOL0     H 1969   4.407   3.619   3.216 -1.7922 -0.0927 -1.4167
   15MOL0     H 1970   4.103   3.616   3.191 -0.5783  1.9412 -0.1146
   15MOL0     H 1971   4.213   3.711   3.094 -4.6598 -0.5076  0.0040
   15MOL0     H 1972   4.315   3.508   3.023 -0.8206 -0.8412 -1.1464
   15MOL0     H 1973   4.189   3.405   3.101 -1.3873  0.3657 -0.2771
   15MOL0     H 1974   4.119   3.426   2.872  1.4738 -0.0498  0.0076
   15MOL0     H 1975   4.120   3.600   2.882 -1.0117  2.6125  2.6652
   15MOL0     H 1976   3.904   3.721   2.909  0.8355 -1.1648  0.7036
   15MOL0     H 1977   3.595   3.674   2.905  0.7752  0.4583 -0.0705
   15MOL0     H 1978   3.570   3.624   3.073  2.3478 -1.4820  0.4788
   15MOL0     H 1979   3.728   3.874   3.009 -1.2538  1.7274  0.2901
   15MOL0     H 1980   3.665   3.831   3.160 -2.2939  2.9739 -0.2284
   15MOL0     H 1981   3.509   3.906   2.906  2.6904 -0.9848 -0.0279
   15MOL0     H 1982   3.533   4.012   3.048 -0.5673 -0.5891  1.2820
   15MOL0     H 1983   3.414   3.859   3.196 -0.4051 -2.8489 -0.2637
   15MOL0     H 1984   3.359   3.755   3.065 -3.1634  0.4385 -2.3363
   15MOL0     H 1985   3.339   3.779   2.859 -1.2650 -0.4787  2.3762
   15MOL0     H 1986   3.221   3.751   2.532 -0.9870  1.8763  1.1838
   15MOL0     H 1987   3.345   3.707   2.657  0.4886  1.4222  0.3049
   15MOL0     H 1988   3.199   3.611   2.643  0.2060  0.0854  0.7853
   15MOL0     H 1989   2.703   4.139   2.471 -0.2144  0.7922 -1.1389
   15MOL0     H 1990   2.601   4.163   2.260  0.8155  1.0873 -0.3086
   15MOL0     H 1991   2.818   4.064   1.919  0.4537  0.7100  3.1162
   15MOL0     H 1992   2.751   3.901   1.899  0.0998 -0.1048  2.4973
   15MOL0     H 1993   2.620   4.150   1.810 -2.1395 -0.3644  0.2668
   15MOL0     H 1994   2.693   4.019   1.705 -1.6821 -1.7574 -0.5448
   15MOL0     H 1995   2.453   4.008   1.895  1.0071  3.0580 -0.4319
   15MOL0     H 1996   2.497   3.877   1.792 -0.2406 -0.2483 -0.1624
   15MOL0     H 1997   2.430   4.156   1.660 -1.2833  0.7986 -1.2462
   15MOL0     H 1998   2.441   4.001   1.583  0.7921  1.3216 -1.0379
   15MOL0     H 1999   2.233   4.092   1.789 -0.2849  1.0714 -0.1389
   15MOL0     H 2000   2.236   3.926   1.708  0.9863  0.6158  0.9663
   15MOL0     H 2001   2.218   4.197   1.570 -2.8084  0.7276 -0.3875
   15MOL0     H 2002   2.234   4.045   1.495  2.2628  0.0200  1.7234
   15MOL0     H 2003   2.013   4.098   1.462  0.9349  1.4553  0.7973
   15MOL0     H 2004   1.981   4.137   1.633 -1.6457 -0.9733 -0.8933
   15MOL0     H 2005   1.878   3.937   1.566 -0.0914  2.6538  0.8940
   15MOL0     H 2006   1.989   3.915   1.703 -0.3175  3.2396 -0.3113
   15MOL0     H 2007   2.902   3.911   2.084 -1.5354 -1.6987 -0.0679
   15MOL0     H 2008   2.996   3.865   2.308 -0.4977  0.1930 -1.7635
   15MOL0     H 2009   2.906   4.005   2.815  1.0097  1.4055 -1.2157
   15MOL0     H 2010   3.043   4.041   3.022  0.6213  3.3859 -1.2712
   15MOL0     H 2011   4.885   3.278   3.447 -2.3855  0.0711  1.5927
   15MOL0     H 2012   5.085   3.144   3.390  0.1554  0.5924  0.2698
   15MOL0     H 2013   5.352   2.924   3.271  1.1553 -1.1510  1.4043
   15MOL0     H 2014   5.566   2.808   3.237 -1.6326 -0.4079  2.2751
   15MOL0     H 2015   5.755   2.706   3.148  2.6142 -0.9452 -0.5208
   15MOL0     H 2016   5.688   2.544   3.143  0.2925 -0.4976 -0.0446
   15MOL0     H 2017   5.865   2.665   2.915  0.8656 -2.3305 -1.6251
   15MOL0     H 2018   5.807   2.499   2.936 -2.1264  2.5571 -2.8532
   15MOL0     H 2019   5.956   2.521   3.167 -0.7506 -0.9633  0.0479
   15MOL0     H 2020   6.017   2.670   3.081  2.9927 -0.5238  0.0073
   15MOL0     H 2021   6.109   2.522   2.912  1.1964  0.2237  0.1933
   15MOL0     H 2022   6.040   2.369   2.978  0.6748 -0.5162  0.7494
   15MOL0     H 2023   6.357   2.441   3.248 -0.5740  0.6168 -0.5851
   15MOL0     H 2024   5.402   2.643   2.865 -1.0977 -1.7360 -0.1079
   15MOL0     H 2025   5.178   2.701   2.941  1.4620 -1.8414 -0.8344
   16MOL0     O 2026   9.635   0.973   4.779 -0.0937  0.0589  0.1593
   16MOL0     C 2027   9.651   1.092   4.811 -0.3315  0.2282  0.4186
   16MOL0     O 2028   9.560   1.195   4.797  0.1551  0.2145 -0.5615
   16MOL0     C 2029   9.429   1.178   4.771  0.1175 -0.2776 -1.4018
   16MOL0     C 2030   9.364   1.071   4.704 -0.0963  0.1371  0.1570
   16MOL0     C 2031   9.224   1.076   4.695 -0.5455 -0.0439  0.4873
   16MOL0     C 2032   9.148   1.193   4.728  0.1935  0.2594  0.4914
   16MOL0     O 2033   9.014   1.203   4.714 -0.0545  0.4458 -0.7088
   16MOL0     C 2034   8.953   1.144   4.602 -0.9362 -0.4772 -1.0086
   16MOL0     C 2035   8.804   1.178   4.627  0.7715  0.3482 -0.2448
   16MOL0     C 2036   8.719   1.130   4.514 -0.7578 -0.5672  1.5027
   16MOL0     C 2037   8.575   1.142   4.548  0.5904  0.1195  0.2796
   16MOL0     C 2038   8.516   1.261   4.466  0.1278 -0.4059 -0.5638
   16MOL0     C 2039   8.485   1.229   4.322  0.6847  0.7971  0.6082
   16MOL0     C 2040   8.446   1.353   4.238 -0.0802 -0.5289 -0.2860
   16MOL0     C 2041   8.420   1.323   4.087 -0.4823 -0.5266 -0.0228
   16MOL0     N 2042   8.314   1.224   4.070 -0.3091  0.0574 -1.0328
   16MOL0     C 2043   8.179   1.242   4.091 -0.2531 -0.5863 -0.2229
   16MOL0     C 2044   8.131   1.118   4.073  0.0769 -0.0844 -0.0988
   16MOL0     C 2045   7.987   1.078   4.086 -0.6120  0.3012 -0.3057
   16MOL0     C 2046   7.902   1.089   3.953  0.1226  0.3842 -1.2786
   16MOL0     C 2047   7.759   1.038   3.949  0.1529 -0.0837 -0.2795
   16MOL0     C 2048   7.678   1.067   4.077 -1.1311  0.0178 -0.2844
   16MOL0     O 2049   7.642   1.206   4.073 -0.0719 -0.0467 -0.3801
   16MOL0     C 2050   7.512   1.228   4.125  0.3806 -0.3329  0.0552
   16MOL0     C 2051   7.442   1.144   4.210  0.2624 -0.0539  0.8202
   16MOL0     C 2052   7.305   1.156   4.237  0.1658  0.9884 -0.3863
   16MOL0     C 2053   7.252   1.038   4.316 -1.1232 -0.3278  0.4604
   16MOL0     C 2054   7.235   1.278   4.196 -0.0435 -1.0363 -0.0436
   16MOL0     C 2055   7.092   1.298   4.225 -0.6790  0.6771 -0.1421
   16MOL0     O 2056   7.015   1.359   4.114 -0.4967  0.7161  0.0033
   16MOL0     C 2057   6.878   1.361   4.128  0.4011 -0.8502  0.6907
   16MOL0     C 2058   6.806   1.480   4.091  0.2620  0.6921 -0.3905
   16MOL0     C 2059   6.659   1.482   4.096 -0.1733  0.1217  0.1612
   16MOL0     C 2060   6.585   1.370   4.140 -0.4219 -0.5450 -0.6295
   16MOL0     O 2061   6.447   1.362   4.153 -0.1417 -0.0263  0.0692
   16MOL0     C 2062   6.379   1.428   4.045  0.2727  0.0889 -0.7224
   16MOL0     C 2063   6.229   1.388   4.042 -0.2409  0.1082  0.4343
   16MOL0     C 2064   6.161   1.415   4.175 -0.7958  0.1097  0.2974
   16MOL0     C 2065   6.014   1.387   4.157  0.5346  0.3781 -0.5332
   16MOL0     C 2066   5.936   1.410   4.283  0.1553  0.6050 -0.2339
   16MOL0     C 2067   5.783   1.376   4.274 -0.0487  0.0243  0.9699
   16MOL0     C 2068   5.728   1.418   4.408  1.0707 -0.9093  0.0237
   16MOL0     C 2069   5.580   1.360   4.421 -0.4041 -0.4585 -0.1572
   16MOL0    Cl 2070   5.474   1.431   4.303 -0.2899 -0.5934  0.3193
   16MOL0     C 2071   6.657   1.258   4.197 -0.3925 -0.4224  0.0203
   16MOL0     C 2072   6.799   1.256   4.178  0.3726 -0.0545  0.7920
   16MOL0     O 2073   7.051   1.253   4.330 -0.9091 -0.0426 -0.7641
   16MOL0     C 2074   7.311   1.377   4.126 -0.9298  0.5276 -1.0818
   16MOL0     C 2075   7.447   1.355   4.091  0.4024  0.4173 -1.3310
   16MOL0     N 2076   8.232   1.027   4.030  0.4816  0.4537 -0.8344
   16MOL0     N 2077   8.342   1.093   4.058  0.7469  0.4459  0.2467
   16MOL0     C 2078   9.222   1.298   4.789 -0.1227  0.3737 -0.1361
   16MOL0     C 2079   9.355   1.287   4.812  0.3115  0.2707 -0.4721
   16MOL0     C 2080   9.774   1.141   4.885  0.3748 -0.0714  0.1816
   16MOL0     C 2081   9.790   1.268   4.932  0.3511  0.4007  0.3754
   16MOL0     C 2082   9.909   1.308   4.990 -0.2618  0.5987  0.8353
   16MOL0     C 2083  10.017   1.219   5.010  0.3970  1.1410 -0.0317
   16MOL0     O 2084  10.136   1.256   5.063 -0.1558 -0.7421  0.3354
   16MOL0     C 2085  10.186   1.180   5.168 -0.3935  0.7149  0.2485
   16MOL0     C 2086  10.281   1.266   5.257 -0.5919 -0.5285 -0.5712
   16MOL0     C 2087  10.190   1.364   5.333 -0.5642  0.3041 -0.0436
   16MOL0     C 2088  10.266   1.420   5.444 -0.3505 -0.1153 -0.1168
   16MOL0     C 2089  10.372   1.516   5.397 -0.2370  1.1933 -0.0434
   16MOL0     C 2090  10.443   1.599   5.345  0.9385 -0.1156  0.7173
   16MOL0     C 2091   9.999   1.082   4.967  0.7715  0.9497  1.3620
   16MOL0     C 2092   9.879   1.048   4.911 -0.3138  0.0620  0.7439
   16MOL0     H 2093   9.418   0.983   4.670  0.4392  0.5617 -0.1081
   16MOL0     H 2094   9.179   0.987   4.652  0.0933 -1.4211  2.5351
   16MOL0     H 2095   8.986   1.189   4.508  1.6242 -1.3270 -0.5888
   16MOL0     H 2096   8.973   1.037   4.594  1.2349 -0.0487 -2.0980
   16MOL0     H 2097   8.783   1.126   4.721  4.0431  0.0795  0.4325
   16MOL0     H 2098   8.793   1.287   4.630 -2.4813  0.3449 -3.9266
   16MOL0     H 2099   8.754   1.187   4.427 -0.3396 -0.5397  1.6889
   16MOL0     H 2100   8.727   1.023   4.498 -0.9783 -0.5214  1.0664
   16MOL0     H 2101   8.523   1.050   4.522  1.5320 -2.0239  5.0733
   16MOL0     H 2102   8.571   1.163   4.655  0.9553  1.4713  0.0532
   16MOL0     H 2103   8.420   1.286   4.513 -0.1865 -0.7758 -1.0112
   16MOL0     H 2104   8.576   1.353   4.468 -1.7836  0.9029  0.6363
   16MOL0     H 2105   8.570   1.183   4.271  0.3051  2.0096 -1.2339
   16MOL0     H 2106   8.397   1.165   4.325 -0.5395  2.4333  2.5361
   16MOL0     H 2107   8.357   1.401   4.279 -0.6980  0.1819 -2.3517
   16MOL0     H 2108   8.531   1.420   4.252 -0.7424  0.4389 -0.8305
   16MOL0     H 2109   8.513   1.277   4.050 -0.7160 -2.9326  2.1298
   16MOL0     H 2110   8.393   1.414   4.033  3.9363 -0.4620 -2.6541
   16MOL0     H 2111   8.132   1.336   4.117 -0.1738 -0.7787  0.6766
   16MOL0     H 2112   7.980   0.982   4.137 -0.7393  0.4542 -0.0297
   16MOL0     H 2113   7.937   1.153   4.149  1.5157  0.9510  0.6931
   16MOL0     H 2114   7.961   1.038   3.876  0.9440  0.3011 -0.6004
   16MOL0     H 2115   7.902   1.193   3.920  2.2009  1.4165  1.5503
   16MOL0     H 2116   7.753   0.932   3.922  0.3481 -0.7828  2.1397
   16MOL0     H 2117   7.705   1.078   3.863  0.0651  2.6133  0.9281
   16MOL0     H 2118   7.733   1.038   4.168 -1.4601 -1.0123 -0.4064
   16MOL0     H 2119   7.592   1.000   4.073 -0.5524 -0.7105 -0.8995
   16MOL0     H 2120   7.494   1.057   4.250  0.4948 -0.0724  0.4898
   16MOL0     H 2121   7.242   1.063   4.422  1.1850  0.5243  0.5380
   16MOL0     H 2122   7.156   1.005   4.277 -0.4216 -2.0828  0.1231
   16MOL0     H 2123   7.322   0.957   4.295 -0.3743  1.0661 -3.2283
   16MOL0     H 2124   6.853   1.572   4.058  0.2408  1.4685  1.6245
   16MOL0     H 2125   6.612   1.574   4.063 -1.0747 -0.7179 -0.9710
   16MOL0     H 2126   6.362   1.536   4.050 -2.1482 -0.2895  0.4956
   16MOL0     H 2127   6.427   1.405   3.950  3.3893 -1.2056  1.0071
   16MOL0     H 2128   6.191   1.456   3.965 -0.2257  1.1290  1.3246
   16MOL0     H 2129   6.219   1.287   4.000 -2.2959  0.5027 -0.1370
   16MOL0     H 2130   6.174   1.515   4.219 -0.4905 -0.4590  1.5538
   16MOL0     H 2131   6.191   1.337   4.246 -2.2546 -2.1818 -1.4689
   16MOL0     H 2132   5.967   1.450   4.080 -1.5070  1.1335  1.2251
   16MOL0     H 2133   5.997   1.289   4.113 -0.6827  0.9322 -1.3651
   16MOL0     H 2134   5.952   1.514   4.312  2.2352 -0.2520  1.9887
   16MOL0     H 2135   5.973   1.345   4.363  1.8463 -0.5825 -1.9026
   16MOL0     H 2136   5.736   1.429   4.190  1.4831  1.3788  0.9127
   16MOL0     H 2137   5.763   1.272   4.248 -2.0145  0.9806 -1.8061
   16MOL0     H 2138   5.714   1.526   4.420  0.0628 -1.1282  0.9280
   16MOL0     H 2139   5.790   1.377   4.489  2.0018 -0.4814 -0.4576
   16MOL0     H 2140   5.553   1.363   4.527  2.2602 -2.0456  0.6596
   16MOL0     H 2141   5.584   1.257   4.386  0.7448 -0.4629 -0.0604
   16MOL0     H 2142   6.602   1.171   4.232 -2.4445  1.3933  1.5935
   16MOL0     H 2143   6.849   1.163   4.203 -0.4004 -0.2496  1.6511
   16MOL0     H 2144   7.269   1.478   4.123 -0.0268  1.2036  3.0024
   16MOL0     H 2145   7.505   1.437   4.050 -1.1203  2.5217  0.4310
   16MOL0     H 2146   9.166   1.386   4.819  0.2607  0.6018 -0.0751
   16MOL0     H 2147   9.407   1.367   4.863  0.8585 -0.0085 -0.5757
   16MOL0     H 2148   9.719   1.349   4.917  0.5388  0.9155  2.0383
   16MOL0     H 2149   9.921   1.414   5.010 -0.9897  0.7934  0.2889
   16MOL0     H 2150  10.108   1.147   5.238  0.6156  1.0896  1.5937
   16MOL0     H 2151  10.240   1.090   5.138 -0.6763 -0.1189  2.1300
   16MOL0     H 2152  10.362   1.302   5.193 -0.2209  1.1399  0.7485
   16MOL0     H 2153  10.338   1.206   5.328  0.0138  1.4219  0.6607
   16MOL0     H 2154  10.100   1.319   5.376 -0.4889  1.1955  1.0960
   16MOL0     H 2155  10.157   1.442   5.263 -0.9936  0.7936  0.6850
   16MOL0     H 2156  10.295   1.349   5.522 -0.2639  1.5784  1.4433
   16MOL0     H 2157  10.197   1.484   5.499  0.6845  1.2694 -0.3835
   16MOL0     H 2158  10.522   1.656   5.300 -1.3617  2.5267 -0.2763
   16MOL0     H 2159  10.070   1.003   4.989 -0.1047 -0.4252 -0.4542
   16MOL0     H 2160   9.876   0.947   4.872  1.0380  0.6764 -1.1023
   17MOL0     O 2161   9.453  10.484   7.541  0.3252  0.0642  0.1185
   17MOL0     C 2162   9.500  10.372   7.541 -0.3040  0.4067 -0.4642
   17MOL0     O 2163   9.437  10.256   7.580  0.2679 -0.1260 -0.5727
   17MOL0     C 2164   9.311  10.258   7.641 -0.0592 -0.1314  0.2908
   17MOL0     C 2165   9.267  10.309   7.761  0.4595 -0.1210 -0.2114
   17MOL0     C 2166   9.142  10.300   7.810  0.2500 -0.1560  0.3894
   17MOL0     C 2167   9.042  10.232   7.738 -0.0065  0.3927 -0.2970
   17MOL0     O 2168   8.913  10.237   7.795 -0.1771  0.7823 -0.3615
   17MOL0     C 2169   8.803  10.194   7.710  0.5685  0.1180  0.1913
   17MOL0     C 2170   8.737  10.322   7.665  0.4005  0.3433 -0.7513
   17MOL0     C 2171   8.597  10.317   7.601 -0.9993 -0.6669  0.0930
   17MOL0     C 2172   8.518  10.448   7.610 -0.1015  0.2078  0.5043
   17MOL0     C 2173   8.369  10.453   7.569 -0.1177  0.2637 -0.1370
   17MOL0     C 2174   8.342  10.440   7.420  0.4638  0.3628 -0.1411
   17MOL0     C 2175   8.189  10.456   7.401 -0.2315 -0.2425  0.3959
   17MOL0     C 2176   8.151  10.448   7.256  0.5996 -0.2506 -1.0582
   17MOL0     N 2177   8.005  10.467   7.225 -0.8489  0.3035  0.3888
   17MOL0     C 2178   7.934  10.590   7.213  0.5375 -0.0567  0.0315
   17MOL0     C 2179   7.812  10.546   7.169  0.6042 -0.3960 -0.3419
   17MOL0     C 2180   7.709  10.647   7.136 -0.0688 -0.7514 -0.5155
   17MOL0     C 2181   7.576  10.583   7.079  0.2192 -0.2385 -0.8320
   17MOL0     C 2182   7.510  10.699   6.991  0.4900 -0.0182 -0.5565
   17MOL0     C 2183   7.359  10.663   6.980 -0.6092 -0.5818 -0.0859
   17MOL0     O 2184   7.309  10.778   6.909  0.3188  0.7614 -0.3718
   17MOL0     C 2185   7.178  10.785   6.872  0.1133  0.8165  0.2421
   17MOL0     C 2186   7.152  10.862   6.760 -0.3889  0.6174  0.9115
   17MOL0     C 2187   7.027  10.872   6.700 -0.1858 -0.3230 -0.1450
   17MOL0     C 2188   7.006  10.953   6.577  0.2243 -0.6274  0.0475
   17MOL0     C 2189   6.925  10.794   6.754  0.8998  0.6232 -0.3657
   17MOL0     C 2190   6.784  10.794   6.713  0.3774  0.4093 -0.6655
   17MOL0     O 2191   6.697  10.800   6.816  0.4522  0.3002 -0.3092
   17MOL0     C 2192   6.565  10.799   6.795 -0.2314 -0.4958 -0.4713
   17MOL0     C 2193   6.493  10.769   6.679 -0.2516 -0.0168  0.4840
   17MOL0     C 2194   6.350  10.763   6.684  0.0571  0.1680  0.3866
   17MOL0     C 2195   6.283  10.790   6.805 -0.0540 -0.1638 -0.9082
   17MOL0     O 2196   6.149  10.754   6.801 -0.1157  0.0172 -0.5637
   17MOL0     C 2197   6.098  10.692   6.923  0.6019 -0.3458  0.0164
   17MOL0     C 2198   5.947  10.677   6.909  0.6776  0.2603  0.3473
   17MOL0     C 2199   5.876  10.649   7.043  0.0506  0.1070  0.2523
   17MOL0     C 2200   5.733  10.632   7.004  0.6114 -0.5265  0.7513
   17MOL0     C 2201   5.636  10.605   7.126 -0.2534  0.3065 -1.3801
   17MOL0     C 2202   5.627  10.721   7.228  0.5742 -0.4879  0.8379
   17MOL0     C 2203   5.556  10.681   7.347 -0.1793  0.7402  0.2747
   17MOL0     C 2204   5.471  10.782   7.414 -0.2563 -0.4819 -0.9613
   17MOL0    Cl 2205   5.569  10.920   7.472  0.0600 -0.2169 -0.1613
   17MOL0     C 2206   6.347  10.810   6.918 -0.8381  1.0961  0.6093
   17MOL0     C 2207   6.487  10.822   6.913 -0.4902  0.4133 -0.3743
   17MOL0     O 2208   6.767  10.798   6.594  0.0645  0.1779  0.3683
   17MOL0     C 2209   6.960  10.701   6.858  0.8026 -0.3758  0.0157
   17MOL0     C 2210   7.078  10.700   6.924  0.8350  0.0383  0.2673
   17MOL0     N 2211   7.800  10.407   7.174  0.3516  0.7821 -0.3329
   17MOL0     N 2212   7.919  10.365   7.204  0.2772 -0.1047  0.3610
   17MOL0     C 2213   9.078  10.192   7.604  0.2905 -0.0665  0.9054
   17MOL0     C 2214   9.213  10.204   7.560  0.1158 -1.1730 -0.1737
   17MOL0     C 2215   9.644  10.362   7.513 -0.1221  0.4940 -0.8870
   17MOL0     C 2216   9.721  10.474   7.503 -0.0786  0.1770 -0.1099
   17MOL0     C 2217   9.859  10.457   7.468  1.1785 -0.1863  0.0220
   17MOL0     C 2218   9.916  10.328   7.460 -0.5016 -1.7111 -0.4459
   17MOL0     O 2219  10.054  10.322   7.430 -0.2311  0.0315 -0.0473
   17MOL0     C 2220  10.104  10.195   7.380 -0.5799  0.0913  0.6989
   17MOL0     C 2221  10.257  10.215   7.352 -0.3658 -0.4660 -0.4426
   17MOL0     C 2222  10.338  10.205   7.483  0.0918 -0.2862  1.2214
   17MOL0     C 2223  10.485  10.229   7.452 -0.2693  0.8045  0.3029
   17MOL0     C 2224  10.547  10.123   7.365  0.2042 -0.4980 -0.3854
   17MOL0     C 2225  10.597  10.034   7.308  0.7553  0.5005 -0.0006
   17MOL0     C 2226   9.835  10.218   7.482 -0.1765  0.6978  0.1904
   17MOL0     C 2227   9.700  10.229   7.509  0.2638 -0.6684 -0.3742
   17MOL0     H 2228   9.346  10.365   7.811 -0.3167  0.2377  0.6411
   17MOL0     H 2229   9.120  10.346   7.906 -1.2379  0.7784 -0.3676
   17MOL0     H 2230   8.813  10.143   7.614 -2.8009  2.2497 -1.5139
   17MOL0     H 2231   8.738  10.124   7.763 -1.9420  3.3576  1.7635
   17MOL0     H 2232   8.738  10.385   7.755  1.3673 -0.7006  0.0075
   17MOL0     H 2233   8.807  10.366   7.595 -0.3180  1.5301 -0.7481
   17MOL0     H 2234   8.612  10.289   7.496  0.7715 -2.5586  0.7807
   17MOL0     H 2235   8.536  10.240   7.648  0.4084 -3.0739 -1.7730
   17MOL0     H 2236   8.522  10.465   7.718 -0.0432 -1.9941  0.9045
   17MOL0     H 2237   8.571  10.534   7.567 -1.8350  2.8307  3.2021
   17MOL0     H 2238   8.317  10.378   7.628 -0.8183  0.0455 -1.0167
   17MOL0     H 2239   8.352  10.553   7.611  0.8250  0.4224 -0.1061
   17MOL0     H 2240   8.400  10.511   7.361  3.5777 -0.9310  1.1245
   17MOL0     H 2241   8.376  10.337   7.401  0.4594 -0.0316  1.7286
   17MOL0     H 2242   8.140  10.381   7.463  1.3747  0.5387  2.7365
   17MOL0     H 2243   8.146  10.547   7.444 -0.5703 -0.0465 -0.3455
   17MOL0     H 2244   8.175  10.346   7.226  0.5554 -0.3573 -0.7257
   17MOL0     H 2245   8.201  10.528   7.200  2.1871  0.0175  0.6587
   17MOL0     H 2246   7.972  10.692   7.205 -4.4359  2.1490  0.9115
   17MOL0     H 2247   7.672  10.713   7.215 -2.3180 -1.3883 -0.9537
   17MOL0     H 2248   7.741  10.720   7.061 -0.0157 -0.6702 -0.4140
   17MOL0     H 2249   7.521  10.544   7.165  0.6923 -1.9577 -1.2642
   17MOL0     H 2250   7.595  10.497   7.014  2.8976 -0.6445  0.3407
   17MOL0     H 2251   7.570  10.691   6.900  1.6849 -1.6161  0.3002
   17MOL0     H 2252   7.531  10.795   7.038  1.6166 -0.2174 -0.6084
   17MOL0     H 2253   7.316  10.642   7.078  1.5481  0.1652  1.1022
   17MOL0     H 2254   7.351  10.565   6.932  4.4807 -0.6961 -1.2955
   17MOL0     H 2255   7.237  10.922   6.728  0.1358  0.1347  1.3837
   17MOL0     H 2256   7.034  10.903   6.484 -0.7409  1.4691 -1.4549
   17MOL0     H 2257   6.908  10.991   6.548  0.5221  0.8138  0.8520
   17MOL0     H 2258   7.066  11.043   6.591 -0.8671  0.3140 -1.0194
   17MOL0     H 2259   6.543  10.743   6.586 -0.2721 -1.6158  0.9050
   17MOL0     H 2260   6.289  10.736   6.600  0.4697  1.5400 -0.3965
   17MOL0     H 2261   6.154  10.599   6.938 -0.4470 -0.9905  0.0241
   17MOL0     H 2262   6.112  10.753   7.012  1.3861 -1.0285  0.3790
   17MOL0     H 2263   5.916  10.765   6.851 -0.1100 -1.0300 -1.2536
   17MOL0     H 2264   5.931  10.583   6.856 -2.3853 -0.7148  2.7536
   17MOL0     H 2265   5.886  10.739   7.105  0.1891  0.4678 -0.2931
   17MOL0     H 2266   5.897  10.556   7.096 -3.0919 -0.8408  0.0395
   17MOL0     H 2267   5.714  10.723   6.946  4.2097 -0.0922  0.0087
   17MOL0     H 2268   5.715  10.538   6.951 -1.8662 -0.1585  0.8363
   17MOL0     H 2269   5.691  10.518   7.163  1.7505  2.0165 -0.1322
   17MOL0     H 2270   5.537  10.569   7.096 -1.2591 -0.6004  2.4701
   17MOL0     H 2271   5.722  10.771   7.252  0.4375  0.0541  0.2884
   17MOL0     H 2272   5.560  10.792   7.179 -0.1030 -1.6821 -0.0195
   17MOL0     H 2273   5.613  10.626   7.423  1.1964  1.5174 -0.1586
   17MOL0     H 2274   5.473  10.613   7.323 -2.5743  2.6403  2.5030
   17MOL0     H 2275   5.418  10.747   7.503  0.6657 -0.4352 -0.3823
   17MOL0     H 2276   5.395  10.815   7.342 -0.3448 -1.0433 -1.1333
   17MOL0     H 2277   6.307  10.812   7.018  0.2079 -1.7403  1.1701
   17MOL0     H 2278   6.542  10.848   7.003 -2.6135  2.0711  0.5411
   17MOL0     H 2279   6.883  10.639   6.904 -1.2322  1.1873 -1.1193
   17MOL0     H 2280   7.093  10.621   6.997 -2.0854  1.5170  2.6502
   17MOL0     H 2281   9.014  10.143   7.531 -0.1885  0.2150  1.1343
   17MOL0     H 2282   9.255  10.160   7.470 -0.4252  1.4806 -1.8432
   17MOL0     H 2283   9.679  10.574   7.498 -1.1608 -0.3300 -3.3315
   17MOL0     H 2284   9.924  10.541   7.444  2.3131 -0.7890  0.8860
   17MOL0     H 2285  10.096  10.116   7.455 -0.0292  2.0760  2.9603
   17MOL0     H 2286  10.050  10.174   7.287  0.1809  1.6615 -0.1587
   17MOL0     H 2287  10.279  10.316   7.315  1.5302  2.1702  6.4588
   17MOL0     H 2288  10.292  10.136   7.284 -1.2774 -2.2677  1.1111
   17MOL0     H 2289  10.325  10.100   7.510  2.0240 -2.2782 -4.1307
   17MOL0     H 2290  10.315  10.280   7.559  1.4533  0.3809  1.0001
   17MOL0     H 2291  10.538  10.222   7.548 -1.2224  0.3183  0.8041
   17MOL0     H 2292  10.495  10.332   7.415 -1.5030  0.0672 -2.2921
   17MOL0     H 2293  10.656   9.961   7.256  2.3250  0.9395  1.0882
   17MOL0     H 2294   9.877  10.118   7.489  1.2439  1.1608 -1.1440
   17MOL0     H 2295   9.643  10.138   7.521  2.9758 -2.2893  1.1609
   18MOL0     O 2296   3.778  10.805   6.363  0.2520  0.8326 -1.1622
   18MOL0     C 2297   3.870  10.814   6.280  0.4434 -0.3833  0.0700
   18MOL0     O 2298   3.849  10.815   6.143 -0.3531 -0.4535  0.3339
   18MOL0     C 2299   3.722  10.809   6.099  0.1658 -0.3907  0.7640
   18MOL0     C 2300   3.662  10.691   6.047 -0.1004  0.1690 -0.0810
   18MOL0     C 2301   3.526  10.685   6.016 -0.0211  0.1550 -0.1421
   18MOL0     C 2302   3.447  10.799   6.023 -0.1588  0.7185 -1.2275
   18MOL0     O 2303   3.312  10.779   6.010  0.1905 -0.5592  0.3458
   18MOL0     C 2304   3.220  10.890   6.011 -0.4092  0.2197 -0.0515
   18MOL0     C 2305   3.077  10.843   5.981  0.1371  0.9525 -0.8135
   18MOL0     C 2306   3.050  10.788   5.839 -0.0772  0.0504 -0.5587
   18MOL0     C 2307   2.899  10.820   5.792  0.2588 -1.1472  0.0815
   18MOL0     C 2308   2.797  10.734   5.868  1.0591  0.8892 -0.6746
   18MOL0     C 2309   2.659  10.740   5.814  0.9819  1.0056  0.1536
   18MOL0     C 2310   2.600  10.877   5.835  0.2788 -0.7185 -0.3246
   18MOL0     C 2311   2.446  10.881   5.822 -0.4557 -0.1193  0.2191
   18MOL0     N 2312   2.375  10.784   5.904 -0.4362  0.3658  0.1178
   18MOL0     C 2313   2.347  10.659   5.860 -0.5045 -0.2641 -0.0031
   18MOL0     C 2314   2.272  10.605   5.957  0.5470 -0.5539  0.5594
   18MOL0     C 2315   2.194  10.481   5.963 -0.8835  0.1461 -0.1037
   18MOL0     C 2316   2.042  10.498   5.930  0.0471 -0.0635  0.0200
   18MOL0     C 2317   2.031  10.552   5.786  0.5502  0.0239 -0.0229
   18MOL0     C 2318   1.914  10.489   5.715 -0.7109 -0.0599 -0.0611
   18MOL0     O 2319   1.804  10.539   5.799  0.2165 -0.8697  0.4047
   18MOL0     C 2320   1.684  10.566   5.742 -0.0633 -0.0491  0.6241
   18MOL0     C 2321   1.664  10.615   5.615 -0.4148  0.6778  0.2846
   18MOL0     C 2322   1.535  10.629   5.556 -0.8128  1.4195  0.2990
   18MOL0     C 2323   1.520  10.696   5.418  0.2475  0.6926  0.7512
   18MOL0     C 2324   1.420  10.584   5.630  0.0830 -0.3282  0.0601
   18MOL0     C 2325   1.285  10.575   5.570  0.0307  0.5713 -0.4314
   18MOL0     O 2326   1.248  10.669   5.475 -0.8892 -0.2245  0.0013
   18MOL0     C 2327   1.149  10.640   5.379 -0.1151 -0.6488 -0.7261
   18MOL0     C 2328   1.106  10.515   5.322 -0.3240 -0.5925 -0.8196
   18MOL0     C 2329   0.995  10.511   5.231  0.2699 -0.1865  0.5191
   18MOL0     C 2330   0.930  10.633   5.195  0.0106 -0.2942 -0.1423
   18MOL0     O 2331   0.840  10.649   5.091 -0.2591  0.3537  0.2197
   18MOL0     C 2332   0.767  10.538   5.037  1.0528 -0.2037 -0.6093
   18MOL0     C 2333   0.663  10.592   4.934 -0.0053  0.3976  0.0758
   18MOL0     C 2334   0.574  10.719   4.967 -0.1761  0.5267 -0.3994
   18MOL0     C 2335   0.434  10.680   5.014  0.1250 -0.1546 -0.7205
   18MOL0     C 2336   0.368  10.792   5.097 -1.1212 -0.8257  0.7035
   18MOL0     C 2337   0.343  10.925   5.011 -1.1999  0.9625  0.2537
   18MOL0     C 2338   0.197  10.954   5.018 -0.8981 -1.2214  0.5356
   18MOL0     C 2339   0.174  11.098   4.982  1.0916 -0.2182 -0.4789
   18MOL0    Cl 2340   0.201  11.134   4.807 -0.1209  0.2727 -0.1059
   18MOL0     C 2341   0.965  10.753   5.259 -0.7147  0.2165 -0.4351
   18MOL0     C 2342   1.074  10.759   5.350  0.2722 -1.2565 -1.3293
   18MOL0     O 2343   1.210  10.483   5.610  0.0132  0.0432 -0.5831
   18MOL0     C 2344   1.448  10.538   5.759 -0.5066  0.1463  0.7217
   18MOL0     C 2345   1.578  10.522   5.811  1.2784  0.4842  0.8463
   18MOL0     N 2346   2.285  10.692   6.063  0.7506  0.6527  0.4381
   18MOL0     N 2347   2.338  10.799   6.031  0.6836 -0.7031  0.7008
   18MOL0     C 2348   3.515  10.920   6.049  0.3274 -0.2444 -0.6900
   18MOL0     C 2349   3.642  10.922   6.100  0.1014  0.7364 -1.2395
   18MOL0     C 2350   4.004  10.802   6.326 -0.2975 -0.5776  0.2366
   18MOL0     C 2351   4.048  10.833   6.457  0.0970  0.0115 -0.1148
   18MOL0     C 2352   4.177  10.827   6.497 -0.0250  0.7263  0.5021
   18MOL0     C 2353   4.280  10.787   6.408  0.1834 -0.1044  0.9791
   18MOL0     O 2354   4.404  10.769   6.463 -0.0985 -0.1201  0.0047
   18MOL0     C 2355   4.501  10.711   6.376 -0.6945  0.1093 -0.0124
   18MOL0     C 2356   4.637  10.709   6.443  0.2026 -0.2154  0.6103
   18MOL0     C 2357   4.642  10.632   6.574  0.2291  0.9261 -0.3673
   18MOL0     C 2358   4.789  10.604   6.606  0.2144  0.2522  0.1184
   18MOL0     C 2359   4.786  10.499   6.713 -0.5502 -0.8476 -0.1920
   18MOL0     C 2360   4.790  10.412   6.801 -0.0226 -0.7207 -0.6601
   18MOL0     C 2361   4.237  10.749   6.276 -1.2013 -0.0187  0.0831
   18MOL0     C 2362   4.107  10.759   6.236 -0.5719 -0.4303  0.0381
   18MOL0     H 2363   3.708  10.593   6.043  0.2577  0.3337 -0.0546
   18MOL0     H 2364   3.473  10.593   5.993 -0.1295  1.2961 -5.8798
   18MOL0     H 2365   3.232  10.943   6.106  2.4209 -0.1636 -0.0890
   18MOL0     H 2366   3.252  10.950   5.925 -1.3020  3.3078  1.6474
   18MOL0     H 2367   3.052  10.769   6.058 -0.5204  2.6896  0.7298
   18MOL0     H 2368   3.015  10.929   6.011 -1.2266  0.4259 -1.9897
   18MOL0     H 2369   3.123  10.834   5.771  0.4693 -0.2054 -0.1457
   18MOL0     H 2370   3.077  10.683   5.827  0.7487 -0.1323  2.3004
   18MOL0     H 2371   2.882  10.927   5.806 -1.7751 -1.6078  1.6181
   18MOL0     H 2372   2.888  10.799   5.685  1.4515 -1.7972  0.0696
   18MOL0     H 2373   2.844  10.635   5.870  3.3755  1.8592  2.4383
   18MOL0     H 2374   2.783  10.764   5.973 -2.1165 -1.5235 -0.2431
   18MOL0     H 2375   2.663  10.714   5.708 -0.0198 -0.7571  0.5078
   18MOL0     H 2376   2.607  10.665   5.874  3.4551 -1.5055 -0.6513
   18MOL0     H 2377   2.628  10.920   5.932  1.2418 -1.1864 -0.3861
   18MOL0     H 2378   2.638  10.938   5.752  2.4713 -1.9855 -0.3348
   18MOL0     H 2379   2.423  10.863   5.717  1.7239 -0.6136 -0.2127
   18MOL0     H 2380   2.415  10.983   5.849 -1.1148  0.3423 -2.0780
   18MOL0     H 2381   2.366  10.629   5.758 -0.0104 -0.0999  0.0405
   18MOL0     H 2382   2.240  10.404   5.900 -0.9743 -1.8114  2.0883
   18MOL0     H 2383   2.202  10.451   6.068  0.9494 -0.3067 -0.3392
   18MOL0     H 2384   1.991  10.564   6.001 -1.5819 -1.1191 -0.1132
   18MOL0     H 2385   2.003  10.397   5.945  1.4624 -0.6415  0.0207
   18MOL0     H 2386   2.121  10.531   5.727  0.3362 -0.4126 -0.1947
   18MOL0     H 2387   2.028  10.662   5.783 -2.2303 -0.0075 -0.4818
   18MOL0     H 2388   1.917  10.380   5.712 -1.7925 -0.1676  1.4965
   18MOL0     H 2389   1.920  10.524   5.611 -1.6231  1.4123  0.3468
   18MOL0     H 2390   1.744  10.663   5.560  0.6871  1.1452  2.2304
   18MOL0     H 2391   1.470  10.622   5.354  2.9029 -0.4988 -0.0652
   18MOL0     H 2392   1.467  10.792   5.421  1.6071  1.4643  0.6229
   18MOL0     H 2393   1.614  10.719   5.367 -1.6582  2.1603 -2.4510
   18MOL0     H 2394   1.160  10.427   5.356  0.2727  0.7580  1.9524
   18MOL0     H 2395   0.972  10.425   5.169  1.1764  1.1913 -1.9151
   18MOL0     H 2396   0.831  10.463   4.990  1.0144 -1.3427  1.0852
   18MOL0     H 2397   0.701  10.488   5.108 -1.1702  1.9690 -0.9878
   18MOL0     H 2398   0.721  10.609   4.842  1.7208 -1.6132  0.7172
   18MOL0     H 2399   0.598  10.507   4.909 -0.1713  1.0454 -1.8924
   18MOL0     H 2400   0.574  10.767   4.868  3.5257 -2.9734 -2.3967
   18MOL0     H 2401   0.628  10.781   5.038  1.7136 -0.9409 -0.4657
   18MOL0     H 2402   0.375  10.656   4.925  2.5714  0.5830 -2.6838
   18MOL0     H 2403   0.431  10.591   5.076 -1.1123  0.3582 -0.0088
   18MOL0     H 2404   0.423  10.821   5.187  2.8608  0.7311 -1.9437
   18MOL0     H 2405   0.279  10.742   5.135 -1.1340 -1.1373  0.2803
   18MOL0     H 2406   0.404  10.998   5.065  1.4906  0.2605 -1.6290
   18MOL0     H 2407   0.385  10.914   4.911 -0.7695 -0.0350  0.5338
   18MOL0     H 2408   0.163  10.955   5.122  1.7156  2.9026  1.5822
   18MOL0     H 2409   0.135  10.891   4.954  0.8305 -2.1932 -0.2283
   18MOL0     H 2410   0.223  11.158   5.059 -0.8333 -0.6432  1.1555
   18MOL0     H 2411   0.067  11.118   4.974  0.8596 -1.7605 -1.8456
   18MOL0     H 2412   0.900  10.839   5.244 -3.5960 -1.8035 -0.1129
   18MOL0     H 2413   1.093  10.848   5.408 -0.9368 -1.1149 -1.1240
   18MOL0     H 2414   1.363  10.510   5.821 -0.6202 -2.2855 -0.3872
   18MOL0     H 2415   1.593  10.485   5.912  1.1683 -1.3814  0.2331
   18MOL0     H 2416   3.466  11.017   6.050 -0.4759 -0.6434 -0.8803
   18MOL0     H 2417   3.683  11.021   6.118 -2.6591  1.5315  1.6738
   18MOL0     H 2418   3.977  10.862   6.533  1.0190  2.3746 -0.0746
   18MOL0     H 2419   4.200  10.839   6.603  0.6590 -0.1283  0.4669
   18MOL0     H 2420   4.469  10.613   6.339  1.7381 -0.1811 -1.5905
   18MOL0     H 2421   4.512  10.777   6.289 -2.5990 -0.3567 -0.6611
   18MOL0     H 2422   4.663  10.814   6.460  0.7761 -0.0071 -1.3648
   18MOL0     H 2423   4.717  10.674   6.377  0.1142  0.0537  0.3599
   18MOL0     H 2424   4.587  10.537   6.567  1.8887 -0.0787 -0.5518
   18MOL0     H 2425   4.592  10.696   6.647 -2.1410  0.2440 -1.2892
   18MOL0     H 2426   4.831  10.694   6.652  2.9886 -1.0047  0.2702
   18MOL0     H 2427   4.850  10.577   6.519  1.5594  0.4761  0.9519
   18MOL0     H 2428   4.799  10.338   6.878 -1.7514 -1.1080 -0.7976
   18MOL0     H 2429   4.313  10.714   6.207 -1.1846  1.2435 -0.5554
   18MOL0     H 2430   4.071  10.732   6.137 -1.1298  1.4763 -0.3144
   19MOL0     O 2431   0.396   7.516   2.949 -0.2117  0.0495 -0.1234
   19MOL0     C 2432   0.426   7.559   2.842  0.5164  0.1661  0.3962
   19MOL0     O 2433   0.355   7.650   2.766 -0.1152  0.1644 -0.0153
   19MOL0     C 2434   0.264   7.730   2.821  0.5339 -0.0007 -0.4387
   19MOL0     C 2435   0.145   7.741   2.746  0.3481 -0.0873 -0.6099
   19MOL0     C 2436   0.042   7.819   2.798  0.3125 -0.0835  0.7219
   19MOL0     C 2437   0.062   7.885   2.911  0.5069 -0.6478 -1.3008
   19MOL0     O 2438  -0.049   7.948   2.965 -0.3550 -1.0127 -0.7252
   19MOL0     C 2439  -0.044   8.008   3.099 -0.8720  0.2887  0.3401
   19MOL0     C 2440  -0.186   8.050   3.123 -0.3542  0.7130  0.4854
   19MOL0     C 2441  -0.235   8.149   3.023  0.1760  0.0214  0.4230
   19MOL0     C 2442  -0.378   8.202   3.069 -0.1809 -0.2037 -0.3477
   19MOL0     C 2443  -0.431   8.318   2.993 -0.4659  0.3385 -0.2728
   19MOL0     C 2444  -0.582   8.344   3.002 -0.0317  0.3377  0.0298
   19MOL0     C 2445  -0.667   8.230   2.954 -0.3307  0.2402  0.5431
   19MOL0     C 2446  -0.809   8.257   2.991 -0.4692 -0.1432 -1.6677
   19MOL0     N 2447  -0.873   8.373   2.947 -1.0518 -0.2518  0.3200
   19MOL0     C 2448  -0.880   8.499   2.995  0.2127 -0.0425 -0.3959
   19MOL0     C 2449  -0.968   8.572   2.920 -0.2061 -0.0679  0.0347
   19MOL0     C 2450  -1.020   8.717   2.922  0.6222 -0.3919 -0.0799
   19MOL0     C 2451  -0.896   8.809   2.932 -0.5645 -0.7995 -0.0250
   19MOL0     C 2452  -0.857   8.874   2.796 -0.4184  0.0970 -0.4254
   19MOL0     C 2453  -0.801   8.774   2.689 -0.4425  0.3251 -0.4482
   19MOL0     O 2454  -0.665   8.747   2.730  0.7710  0.1602  0.6953
   19MOL0     C 2455  -0.592   8.642   2.682 -0.1531 -0.4640  0.6203
   19MOL0     C 2456  -0.470   8.667   2.619  0.1399 -0.9997 -0.6505
   19MOL0     C 2457  -0.391   8.572   2.570 -0.0143  0.5395 -0.1492
   19MOL0     C 2458  -0.280   8.615   2.483  0.3686  0.1917 -0.0330
   19MOL0     C 2459  -0.423   8.435   2.590  0.6799  0.1837  0.3451
   19MOL0     C 2460  -0.328   8.319   2.556 -0.2581 -0.1300 -0.1836
   19MOL0     O 2461  -0.197   8.343   2.542 -0.3077 -0.1022 -0.6434
   19MOL0     C 2462  -0.102   8.251   2.506  0.1046  0.3483 -0.2113
   19MOL0     C 2463  -0.034   8.169   2.598 -0.6123 -0.1527 -0.6645
   19MOL0     C 2464   0.058   8.069   2.554  0.3156 -0.0120 -0.7579
   19MOL0     C 2465   0.088   8.046   2.422  0.0133 -0.2329 -0.3858
   19MOL0     O 2466   0.162   7.939   2.392  0.1197 -0.7105  0.5815
   19MOL0     C 2467   0.275   7.966   2.305  0.4809  0.8617 -0.3337
   19MOL0     C 2468   0.397   7.879   2.341  0.4198  0.2736  0.1369
   19MOL0     C 2469   0.504   7.886   2.224  1.0628 -0.4772  0.8276
   19MOL0     C 2470   0.629   7.793   2.257  0.5052 -0.4910  0.6213
   19MOL0     C 2471   0.751   7.815   2.170  0.4675 -0.1560  0.1918
   19MOL0     C 2472   0.862   7.730   2.221  0.4277 -0.2814 -0.2366
   19MOL0     C 2473   0.966   7.700   2.110  0.1535 -0.3612  0.1266
   19MOL0     C 2474   1.082   7.612   2.162 -0.3512 -0.5748  0.0587
   19MOL0    Cl 2475   1.177   7.684   2.302  0.1665 -0.3907 -0.2029
   19MOL0     C 2476   0.018   8.120   2.327  0.1726 -0.1929 -0.7492
   19MOL0     C 2477  -0.076   8.220   2.372 -0.4405 -0.1527  0.4657
   19MOL0     O 2478  -0.384   8.215   2.536 -0.8780  0.5553  0.4017
   19MOL0     C 2479  -0.545   8.403   2.646  1.1345  0.1591  0.4431
   19MOL0     C 2480  -0.630   8.510   2.691  0.3209 -0.0684  0.0567
   19MOL0     N 2481  -1.019   8.474   2.827  0.4457  0.2925 -0.6115
   19MOL0     N 2482  -0.961   8.357   2.842 -0.6035 -0.1031 -0.1678
   19MOL0     C 2483   0.178   7.880   2.983  0.1328  0.2765 -0.3390
   19MOL0     C 2484   0.282   7.805   2.938  0.1072  0.1130  0.1176
   19MOL0     C 2485   0.546   7.510   2.779 -0.3952  0.3369 -0.2325
   19MOL0     C 2486   0.614   7.392   2.823  0.4982 -0.5485  0.1572
   19MOL0     C 2487   0.731   7.339   2.755 -0.0315  0.1402 -0.8492
   19MOL0     C 2488   0.787   7.412   2.646  0.6936  0.6930 -0.3711
   19MOL0     O 2489   0.890   7.376   2.564 -0.3943 -0.2265  0.1106
   19MOL0     C 2490   0.981   7.272   2.609  0.2631  0.1706 -0.4975
   19MOL0     C 2491   1.085   7.254   2.496 -0.2317 -0.5753  1.1124
   19MOL0     C 2492   1.196   7.149   2.544  0.0408 -0.2336 -0.9330
   19MOL0     C 2493   1.333   7.193   2.513  0.3082 -0.1423 -0.3279
   19MOL0     C 2494   1.367   7.190   2.369  1.1014 -0.0147  0.7779
   19MOL0     C 2495   1.411   7.207   2.258 -0.0036  0.2600  0.6945
   19MOL0     C 2496   0.717   7.526   2.605 -0.2323  0.5692 -0.5880
   19MOL0     C 2497   0.603   7.577   2.664 -0.1339  0.4846 -0.3488
   19MOL0     H 2498   0.132   7.685   2.654  0.0279 -1.2509  0.1151
   19MOL0     H 2499  -0.052   7.824   2.743 -0.5691 -1.0944  2.0705
   19MOL0     H 2500  -0.010   7.935   3.173 -1.8654  0.7224  1.2596
   19MOL0     H 2501   0.028   8.091   3.101  0.7808 -1.0879 -0.1176
   19MOL0     H 2502  -0.248   7.961   3.113  1.4676 -0.4706 -1.0582
   19MOL0     H 2503  -0.189   8.077   3.229  1.2699 -1.4276  1.1395
   19MOL0     H 2504  -0.162   8.229   3.007 -0.5452  0.2232 -2.3737
   19MOL0     H 2505  -0.253   8.107   2.923  1.6089  1.7295 -0.6154
   19MOL0     H 2506  -0.439   8.112   3.080  1.6569 -1.7146 -1.6723
   19MOL0     H 2507  -0.345   8.233   3.168  1.6332  1.5785 -1.4240
   19MOL0     H 2508  -0.376   8.410   3.017  0.3772 -0.0168 -0.8261
   19MOL0     H 2509  -0.405   8.298   2.889 -0.9618  0.0713 -0.3516
   19MOL0     H 2510  -0.612   8.376   3.102 -1.6745  1.7398 -0.8586
   19MOL0     H 2511  -0.606   8.432   2.942 -0.6154 -1.1151 -1.9579
   19MOL0     H 2512  -0.657   8.212   2.847  1.8017  0.1744  0.7183
   19MOL0     H 2513  -0.648   8.132   3.000  1.0992 -1.7255 -3.7291
   19MOL0     H 2514  -0.810   8.256   3.100  0.1669 -1.9549 -1.6404
   19MOL0     H 2515  -0.867   8.172   2.956  2.5636 -2.8170 -0.7313
   19MOL0     H 2516  -0.819   8.538   3.076  0.9569 -0.6188 -0.6737
   19MOL0     H 2517  -1.075   8.724   2.828  1.2973  0.5236 -0.4259
   19MOL0     H 2518  -1.096   8.730   2.999 -0.2531 -0.2367 -0.9500
   19MOL0     H 2519  -0.805   8.757   2.963 -0.7166 -2.3496 -1.9918
   19MOL0     H 2520  -0.918   8.894   2.998 -2.0203  1.6163 -3.3462
   19MOL0     H 2521  -0.779   8.949   2.810 -0.1077 -0.1870 -0.6125
   19MOL0     H 2522  -0.945   8.915   2.747  0.8115  0.1138 -2.7799
   19MOL0     H 2523  -0.814   8.822   2.592 -1.4931 -1.2093 -1.0861
   19MOL0     H 2524  -0.860   8.684   2.706 -1.1161  1.1607  2.0810
   19MOL0     H 2525  -0.453   8.772   2.596  0.9329 -0.0745  3.3621
   19MOL0     H 2526  -0.298   8.715   2.441  0.9462  0.4624  0.3463
   19MOL0     H 2527  -0.183   8.621   2.533  0.6714  2.6373 -0.7910
   19MOL0     H 2528  -0.271   8.548   2.398 -1.2552  1.6184 -1.4070
   19MOL0     H 2529  -0.062   8.165   2.702 -1.1594 -2.8029 -0.8274
   19MOL0     H 2530   0.107   8.008   2.629 -1.8994  0.6101  1.3432
   19MOL0     H 2531   0.243   7.933   2.206  0.5399  1.0010 -0.3995
   19MOL0     H 2532   0.310   8.070   2.301  1.1027  0.6229 -2.2069
   19MOL0     H 2533   0.452   7.920   2.426  3.3914 -0.1519 -1.4543
   19MOL0     H 2534   0.365   7.776   2.355  0.0038  0.6147  1.9665
   19MOL0     H 2535   0.533   7.989   2.200  1.1358 -1.1771 -2.6649
   19MOL0     H 2536   0.466   7.846   2.129  0.7422  2.2870 -0.3209
   19MOL0     H 2537   0.651   7.809   2.363  1.6572  0.4640  0.2564
   19MOL0     H 2538   0.595   7.689   2.247  0.9875 -0.6334  0.4136
   19MOL0     H 2539   0.770   7.923   2.178 -1.7483  0.1596  2.5484
   19MOL0     H 2540   0.735   7.793   2.064  0.2523  1.2617 -0.0964
   19MOL0     H 2541   0.913   7.772   2.308 -1.6586  0.3130  0.7575
   19MOL0     H 2542   0.820   7.634   2.251  2.1640 -2.6102 -4.3154
   19MOL0     H 2543   0.998   7.798   2.072  1.9980 -1.8277 -2.4563
   19MOL0     H 2544   0.915   7.648   2.029  0.0452 -1.5404  0.9330
   19MOL0     H 2545   1.157   7.590   2.086  1.3334 -1.5118  1.8890
   19MOL0     H 2546   1.048   7.522   2.214  1.8359  0.2942  3.2900
   19MOL0     H 2547   0.026   8.098   2.221 -1.1144  0.3992 -0.9823
   19MOL0     H 2548  -0.130   8.270   2.292  0.0490  0.0815  0.2763
   19MOL0     H 2549  -0.564   8.297   2.660  1.1366  0.1963  0.7340
   19MOL0     H 2550  -0.719   8.487   2.749 -0.3795 -0.8424 -1.2893
   19MOL0     H 2551   0.187   7.939   3.074  0.9894 -0.4394  0.0555
   19MOL0     H 2552   0.371   7.794   2.999 -0.6633 -1.6839  0.9856
   19MOL0     H 2553   0.573   7.342   2.910 -1.1314 -0.6062 -0.6138
   19MOL0     H 2554   0.786   7.251   2.788  0.1097  0.3644 -0.4725
   19MOL0     H 2555   1.030   7.293   2.704 -1.4306 -1.3370  0.7699
   19MOL0     H 2556   0.934   7.175   2.625  0.1701  0.6627  2.8516
   19MOL0     H 2557   1.133   7.345   2.460  0.7127 -2.4963 -3.1357
   19MOL0     H 2558   1.037   7.209   2.408  1.6319  0.3462 -0.4486
   19MOL0     H 2559   1.177   7.056   2.489 -0.2118 -0.8903  0.2261
   19MOL0     H 2560   1.169   7.133   2.648 -3.4746 -0.9960 -1.8286
   19MOL0     H 2561   1.394   7.117   2.562 -2.0953 -0.6014  2.2265
   19MOL0     H 2562   1.350   7.294   2.553 -2.4606  0.5530 -0.7267
   19MOL0     H 2563   1.461   7.212   2.164  1.2386  0.5841  1.3444
   19MOL0     H 2564   0.756   7.574   2.515 -0.3932 -1.9958 -2.1234
   19MOL0     H 2565   0.558   7.668   2.625  1.3441  0.0354 -3.3918
   20MOL0     O 2566   5.623   3.949   6.802 -0.0679  0.0729 -0.1590
   20MOL0     C 2567   5.671   3.867   6.878 -0.6671  1.4852 -0.0430
   20MOL0     O 2568   5.595   3.805   6.977  0.0838  0.0324  0.2471
   20MOL0     C 2569   5.454   3.817   6.978  0.4730  0.4050 -0.0087
   20MOL0     C 2570   5.373   3.912   6.907 -0.4346 -0.8399  0.7394
   20MOL0     C 2571   5.235   3.911   6.925 -0.1054  0.1304 -1.1818
   20MOL0     C 2572   5.168   3.825   7.012 -0.2465 -1.0788 -0.4184
   20MOL0     O 2573   5.033   3.847   7.026  0.4165  0.0225 -0.0450
   20MOL0     C 2574   4.961   3.792   7.135 -0.3905  0.0168 -0.7213
   20MOL0     C 2575   4.810   3.824   7.120 -0.2058 -0.5307 -0.2563
   20MOL0     C 2576   4.738   3.761   7.235 -0.5613  0.1690 -0.2889
   20MOL0     C 2577   4.588   3.792   7.220 -0.7175  0.0649 -0.1550
   20MOL0     C 2578   4.495   3.734   7.320 -0.8155 -0.4366  0.1835
   20MOL0     C 2579   4.345   3.770   7.301  1.0225  1.4882 -0.2966
   20MOL0     C 2580   4.292   3.679   7.182 -0.2232 -0.5527  0.2749
   20MOL0     C 2581   4.145   3.709   7.144 -0.1469 -0.2075 -0.0949
   20MOL0     N 2582   4.040   3.692   7.247 -0.4284 -0.2289 -0.6257
   20MOL0     C 2583   3.974   3.787   7.324 -0.2398 -0.0826  0.0156
   20MOL0     C 2584   3.868   3.719   7.388 -1.1626 -0.2131  0.5465
   20MOL0     C 2585   3.752   3.785   7.466  0.9747 -0.1849 -0.4008
   20MOL0     C 2586   3.625   3.796   7.381  0.0179 -0.0080  0.1689
   20MOL0     C 2587   3.510   3.858   7.470  0.4722 -0.9331 -0.2609
   20MOL0     C 2588   3.377   3.898   7.392 -0.7631 -0.3741 -0.4561
   20MOL0     O 2589   3.275   3.908   7.488  0.2789 -0.0012  0.1706
   20MOL0     C 2590   3.153   3.968   7.462 -0.1122  0.9011  0.4730
   20MOL0     C 2591   3.055   3.952   7.556 -0.3249 -0.1594 -1.0011
   20MOL0     C 2592   2.922   4.008   7.542 -0.0888  0.1192  0.1797
   20MOL0     C 2593   2.839   3.978   7.659  0.2490  0.9517 -0.1535
   20MOL0     C 2594   2.907   4.092   7.435  0.5371 -0.1443  0.1398
   20MOL0     C 2595   2.772   4.157   7.404 -0.0063 -0.2010 -0.2858
   20MOL0     O 2596   2.771   4.287   7.346  0.4281  0.7646  0.7085
   20MOL0     C 2597   2.642   4.336   7.320 -0.8242  0.3626 -1.1599
   20MOL0     C 2598   2.580   4.403   7.428 -0.1829 -0.4960  0.2100
   20MOL0     C 2599   2.453   4.458   7.417 -0.2541 -0.0471  0.2465
   20MOL0     C 2600   2.379   4.435   7.300  0.7980 -0.4826 -0.2645
   20MOL0     O 2601   2.245   4.465   7.276  0.1576  0.1090 -0.1440
   20MOL0     C 2602   2.170   4.529   7.382  0.5346  0.0048  0.0063
   20MOL0     C 2603   2.032   4.568   7.332 -0.1983  0.2648  0.5473
   20MOL0     C 2604   1.944   4.582   7.454 -0.0408 -0.2383  0.2750
   20MOL0     C 2605   1.813   4.656   7.414 -0.3298  0.4041  0.1338
   20MOL0     C 2606   1.714   4.636   7.529 -0.0191 -0.5067  0.2300
   20MOL0     C 2607   1.581   4.702   7.502 -0.0914 -0.3870 -0.2888
   20MOL0     C 2608   1.498   4.638   7.390  0.1995  0.1720 -0.0420
   20MOL0     C 2609   1.369   4.576   7.436  0.5114  0.0954  0.7575
   20MOL0    Cl 2610   1.265   4.695   7.488  0.2753 -0.0194  0.3426
   20MOL0     C 2611   2.442   4.360   7.196 -0.6027  0.0041  0.6134
   20MOL0     C 2612   2.575   4.316   7.203  0.6432  0.0632 -0.0476
   20MOL0     O 2613   2.673   4.102   7.442 -0.0043  0.0037  0.0541
   20MOL0     C 2614   3.009   4.112   7.343  0.0405  0.1694 -0.3674
   20MOL0     C 2615   3.131   4.047   7.342 -0.1969 -0.7966 -0.5274
   20MOL0     N 2616   3.900   3.583   7.360  0.7010  0.7313 -0.2569
   20MOL0     N 2617   3.989   3.569   7.267 -0.2731  0.8906  0.1271
   20MOL0     C 2618   5.244   3.722   7.072 -0.1479  0.4558  0.5765
   20MOL0     C 2619   5.391   3.726   7.056  0.7355 -0.8056  0.2697
   20MOL0     C 2620   5.812   3.826   6.872  0.2418  0.9273 -0.1009
   20MOL0     C 2621   5.902   3.894   6.782  0.3325 -0.6118  0.3357
   20MOL0     C 2622   6.038   3.882   6.784  0.2235 -0.0505  0.2059
   20MOL0     C 2623   6.093   3.786   6.879 -0.3503 -0.9419 -0.3540
   20MOL0     O 2624   6.231   3.781   6.899  0.4852  0.1111 -0.0455
   20MOL0     C 2625   6.310   3.890   6.853  0.1834  0.4361 -0.6040
   20MOL0     C 2626   6.457   3.863   6.867 -0.6497  0.1255 -0.2443
   20MOL0     C 2627   6.545   3.999   6.855 -0.4749 -0.7228 -0.0231
   20MOL0     C 2628   6.698   3.971   6.847 -0.2968  0.1490  0.8250
   20MOL0     C 2629   6.745   3.957   6.978  0.3390  0.2782 -0.1735
   20MOL0     C 2630   6.765   3.953   7.098  0.7703 -1.1732 -0.7577
   20MOL0     C 2631   6.007   3.706   6.943 -0.3298  0.2638  0.8456
   20MOL0     C 2632   5.869   3.717   6.943 -0.8708  0.4100  0.2350
   20MOL0     H 2633   5.395   3.993   6.839 -3.1646 -0.2324  0.4553
   20MOL0     H 2634   5.173   3.986   6.877 -0.4841 -0.1796 -1.1795
   20MOL0     H 2635   4.981   3.684   7.136  0.6755  0.1112  2.8119
   20MOL0     H 2636   4.996   3.832   7.230  0.5963  0.1581 -1.1318
   20MOL0     H 2637   4.794   3.933   7.120  0.9495 -0.3026  2.4739
   20MOL0     H 2638   4.792   3.789   7.018  3.6515  1.8003 -1.9517
   20MOL0     H 2639   4.757   3.654   7.234 -0.5648  0.1582  0.6568
   20MOL0     H 2640   4.783   3.800   7.326  2.1272 -0.0446 -1.4445
   20MOL0     H 2641   4.566   3.899   7.221 -1.1631 -0.0241  0.6729
   20MOL0     H 2642   4.561   3.744   7.126 -0.4478 -3.3070  1.3338
   20MOL0     H 2643   4.513   3.627   7.306  1.2880  0.0967 -1.8525
   20MOL0     H 2644   4.529   3.770   7.418 -2.3843 -0.9986  0.9568
   20MOL0     H 2645   4.297   3.730   7.391 -1.3083  3.1095 -0.7596
   20MOL0     H 2646   4.317   3.875   7.291  1.3977  1.5774 -0.4339
   20MOL0     H 2647   4.355   3.704   7.096 -1.7130  0.7974 -0.4575
   20MOL0     H 2648   4.291   3.571   7.203 -1.0296 -0.6585 -0.2587
   20MOL0     H 2649   4.128   3.643   7.058  2.1036 -0.5689 -0.3073
   20MOL0     H 2650   4.132   3.814   7.116  1.9895  0.3797  0.9182
   20MOL0     H 2651   3.982   3.895   7.328  1.5466 -0.2169  1.6184
   20MOL0     H 2652   3.719   3.728   7.553 -5.8834  0.4349 -1.9826
   20MOL0     H 2653   3.776   3.889   7.493  0.3811 -0.0626 -0.3273
   20MOL0     H 2654   3.596   3.695   7.349 -1.9728 -0.7782  3.8344
   20MOL0     H 2655   3.635   3.856   7.290 -1.5112 -1.6006 -1.1457
   20MOL0     H 2656   3.552   3.948   7.516 -1.4273 -0.1879  0.0991
   20MOL0     H 2657   3.490   3.783   7.547 -3.3641 -0.9922 -1.1327
   20MOL0     H 2658   3.354   3.832   7.308  0.4608 -0.9897 -0.3318
   20MOL0     H 2659   3.405   3.992   7.343 -1.3251  0.0840  0.1043
   20MOL0     H 2660   3.084   3.883   7.635  0.4420  0.8054 -0.4185
   20MOL0     H 2661   2.893   3.938   7.746  3.0377  4.0603 -0.2735
   20MOL0     H 2662   2.787   4.064   7.703  0.4407  0.7321  0.5234
   20MOL0     H 2663   2.764   3.908   7.620  0.4184  0.0495  1.0606
   20MOL0     H 2664   2.637   4.412   7.520 -0.6320  0.4886  0.4048
   20MOL0     H 2665   2.418   4.506   7.507 -0.0627  1.8948 -0.6545
   20MOL0     H 2666   2.159   4.468   7.471 -2.1979 -0.7877 -0.7594
   20MOL0     H 2667   2.228   4.614   7.418  0.7706  0.2824 -0.9775
   20MOL0     H 2668   2.051   4.668   7.294  0.3913 -0.6867 -1.8313
   20MOL0     H 2669   2.014   4.486   7.262  0.9103  0.6239 -0.1669
   20MOL0     H 2670   1.992   4.638   7.535  0.5810  1.3215 -1.1180
   20MOL0     H 2671   1.915   4.484   7.493 -1.0093  0.1222  0.4855
   20MOL0     H 2672   1.835   4.762   7.399 -0.8183  0.6241  0.8979
   20MOL0     H 2673   1.771   4.606   7.327  0.5657 -4.3654  2.1612
   20MOL0     H 2674   1.753   4.676   7.623  0.8172 -2.6623  0.8710
   20MOL0     H 2675   1.693   4.529   7.544  1.6440 -0.7667  0.8822
   20MOL0     H 2676   1.518   4.712   7.591  0.2824 -0.7038  0.0143
   20MOL0     H 2677   1.605   4.804   7.471  1.4090 -1.2685 -2.2652
   20MOL0     H 2678   1.563   4.557   7.352 -0.7165 -0.6481  0.1044
   20MOL0     H 2679   1.472   4.706   7.308  0.2847 -0.2145 -0.3953
   20MOL0     H 2680   1.393   4.505   7.515  0.8327  0.0058  0.5808
   20MOL0     H 2681   1.320   4.516   7.358  0.9801  0.3768  0.2391
   20MOL0     H 2682   2.385   4.341   7.106 -1.4023 -2.1694  1.5206
   20MOL0     H 2683   2.631   4.254   7.135 -1.0612 -2.0274  0.3351
   20MOL0     H 2684   2.978   4.178   7.263 -3.1202  0.9833  1.3343
   20MOL0     H 2685   3.193   4.084   7.261 -2.8461  4.2155 -0.6925
   20MOL0     H 2686   5.198   3.645   7.133  1.6052 -0.0357  1.3256
   20MOL0     H 2687   5.448   3.658   7.118 -0.4713 -2.0520  0.0680
   20MOL0     H 2688   5.863   3.970   6.715  0.9617 -1.6769 -1.2936
   20MOL0     H 2689   6.089   3.950   6.717  0.3878  0.4837  0.8709
   20MOL0     H 2690   6.288   3.927   6.753 -0.5404 -2.1900 -1.5013
   20MOL0     H 2691   6.296   3.972   6.924 -1.7269 -1.3474  1.2418
   20MOL0     H 2692   6.489   3.795   6.787  0.1911  3.2163 -2.7898
   20MOL0     H 2693   6.485   3.815   6.961  2.1254 -0.6311 -1.3541
   20MOL0     H 2694   6.520   4.067   6.937  0.7785 -1.0165  0.6280
   20MOL0     H 2695   6.513   4.045   6.761  0.6269 -0.5919 -0.3429
   20MOL0     H 2696   6.752   4.052   6.798 -1.3148 -0.0257 -0.6432
   20MOL0     H 2697   6.719   3.874   6.801  3.1714  0.0122  2.3691
   20MOL0     H 2698   6.798   3.947   7.199  2.5650 -2.8089 -1.3630
   20MOL0     H 2699   6.035   3.625   7.011  0.1445 -1.0625 -0.8528
   20MOL0     H 2700   5.808   3.653   7.006 -0.3163 -0.5426 -0.1739
   21MOL0     O 2701   1.999   2.225   5.642 -0.0437 -0.3067  0.1300
   21MOL0     C 2702   2.047   2.331   5.680 -0.3810 -0.0212  0.0436
   21MOL0     O 2703   1.983   2.453   5.690  0.0003  0.1260  0.5050
   21MOL0     C 2704   1.858   2.475   5.649  0.1000  1.0257 -0.8464
   21MOL0     C 2705   1.803   2.418   5.526  0.3747  0.4095  0.1945
   21MOL0     C 2706   1.673   2.449   5.482 -0.4877 -0.3543 -0.7162
   21MOL0     C 2707   1.593   2.536   5.549  0.5341  0.0595  0.2122
   21MOL0     O 2708   1.469   2.583   5.508 -0.6642 -0.2831 -0.4969
   21MOL0     C 2709   1.450   2.619   5.376  0.4015  0.1630  0.4006
   21MOL0     C 2710   1.327   2.713   5.358  0.5045 -1.2193  0.4064
   21MOL0     C 2711   1.337   2.770   5.217 -1.2242  0.5001  0.5350
   21MOL0     C 2712   1.239   2.878   5.174  0.0202  0.2815 -0.3191
   21MOL0     C 2713   1.243   2.915   5.026  0.2472 -0.4564 -0.2322
   21MOL0     C 2714   1.183   2.810   4.942  0.7379  0.9605  0.5709
   21MOL0     C 2715   1.204   2.840   4.794  0.2509 -0.1838  0.2972
   21MOL0     C 2716   1.134   2.968   4.750  0.1580  0.1299 -0.2624
   21MOL0     N 2717   0.991   2.971   4.783  0.3516 -0.0685 -0.0227
   21MOL0     C 2718   0.923   3.010   4.898  0.7243  0.1424  0.2561
   21MOL0     C 2719   0.792   2.999   4.869 -0.3525  0.0219 -1.1954
   21MOL0     C 2720   0.678   3.008   4.966  0.0755  0.0045 -0.6375
   21MOL0     C 2721   0.596   3.124   4.934 -0.2037  0.1942  0.5289
   21MOL0     C 2722   0.469   3.119   5.026 -0.1140  0.0529  0.8519
   21MOL0     C 2723   0.341   3.146   4.954  0.2310  0.1184 -0.0326
   21MOL0     O 2724   0.299   3.033   4.881  0.1619 -0.4761  0.3148
   21MOL0     C 2725   0.170   3.029   4.820  0.5810 -0.3644 -0.0946
   21MOL0     C 2726   0.078   3.141   4.814 -0.0397  0.1831 -0.0660
   21MOL0     C 2727  -0.055   3.122   4.758 -0.9322  0.0816 -0.0608
   21MOL0     C 2728  -0.153   3.237   4.779  0.0863  1.0812 -0.3071
   21MOL0     C 2729  -0.097   3.003   4.700  0.7380  0.7179  0.0219
   21MOL0     C 2730  -0.237   2.983   4.633 -0.2815  0.2839  0.2784
   21MOL0     O 2731  -0.303   3.085   4.566  0.4539 -0.1127  0.0277
   21MOL0     C 2732  -0.423   3.067   4.493 -0.2097 -0.1964  0.1129
   21MOL0     C 2733  -0.501   2.951   4.466 -0.0970 -0.2613 -0.0760
   21MOL0     C 2734  -0.598   2.949   4.371 -0.2111  0.3396 -0.4416
   21MOL0     C 2735  -0.634   3.059   4.299  1.0498 -0.2756  0.5490
   21MOL0     O 2736  -0.736   3.057   4.200 -0.6508  0.3226  0.1496
   21MOL0     C 2737  -0.873   3.089   4.239  0.5444  0.0065  0.0329
   21MOL0     C 2738  -0.953   2.965   4.297 -0.3790  0.3526  0.4831
   21MOL0     C 2739  -0.932   2.830   4.230 -0.1635  0.0944 -0.6205
   21MOL0     C 2740  -0.982   2.824   4.085 -0.1626 -0.5109  0.2453
   21MOL0     C 2741  -1.017   2.678   4.043  0.2844 -0.3916 -0.5541
   21MOL0     C 2742  -1.086   2.672   3.902  0.3061 -1.1186 -0.0383
   21MOL0     C 2743  -1.140   2.529   3.874  0.8876  0.0043  0.3451
   21MOL0     C 2744  -1.220   2.535   3.742 -0.1287  0.6420 -0.1389
   21MOL0    Cl 2745  -1.330   2.386   3.735 -0.0931 -0.4924  0.2672
   21MOL0     C 2746  -0.559   3.176   4.313 -0.1449 -0.3079  0.6023
   21MOL0     C 2747  -0.453   3.177   4.413 -0.4049  0.5328 -0.4981
   21MOL0     O 2748  -0.283   2.870   4.632  0.2471  0.2317  0.3552
   21MOL0     C 2749   0.003   2.898   4.706  0.8133  0.6998  0.8941
   21MOL0     C 2750   0.125   2.914   4.764 -0.7032  0.8839 -0.2719
   21MOL0     N 2751   0.780   2.962   4.737 -0.1826  0.4490 -0.9904
   21MOL0     N 2752   0.900   2.929   4.692 -0.0459  1.3399  0.7752
   21MOL0     C 2753   1.650   2.588   5.677 -0.2569 -0.3889 -0.7238
   21MOL0     C 2754   1.780   2.561   5.721 -0.4609 -0.4184  0.5753
   21MOL0     C 2755   2.190   2.322   5.730 -0.2947 -0.5365  0.8179
   21MOL0     C 2756   2.282   2.437   5.729  0.5210 -0.1964 -0.5110
   21MOL0     C 2757   2.413   2.424   5.779 -0.0772  0.0981  0.6089
   21MOL0     C 2758   2.463   2.314   5.840 -0.3048  0.3484 -0.3226
   21MOL0     O 2759   2.599   2.327   5.877  0.2547  0.0238 -0.0352
   21MOL0     C 2760   2.678   2.218   5.937  0.2756 -0.6429  0.4307
   21MOL0     C 2761   2.726   2.114   5.839  0.0649  0.1843 -0.1917
   21MOL0     C 2762   2.791   1.992   5.898  0.0648  0.5768 -0.1298
   21MOL0     C 2763   2.931   2.016   5.956 -0.4481  0.0603  0.3577
   21MOL0     C 2764   3.022   2.085   5.864  0.5651  1.2135  0.2818
   21MOL0     C 2765   3.072   2.157   5.781 -0.4609 -0.6881 -0.2536
   21MOL0     C 2766   2.372   2.207   5.851 -0.2731  0.0554  0.8241
   21MOL0     C 2767   2.242   2.210   5.791 -0.0527  0.3557 -0.8204
   21MOL0     H 2768   1.856   2.352   5.458  1.5815 -0.8667  2.2518
   21MOL0     H 2769   1.636   2.409   5.388  1.6197 -0.1763 -1.6834
   21MOL0     H 2770   1.534   2.666   5.324  0.8312 -0.9002  0.1143
   21MOL0     H 2771   1.415   2.530   5.323  0.5191  0.5519 -0.3392
   21MOL0     H 2772   1.231   2.662   5.365 -0.2572  0.1596  0.3459
   21MOL0     H 2773   1.332   2.799   5.427  3.3428  1.0667 -2.3178
   21MOL0     H 2774   1.433   2.816   5.192 -0.9824 -1.8075 -3.6587
   21MOL0     H 2775   1.319   2.681   5.156  0.6057  1.4615 -1.5413
   21MOL0     H 2776   1.142   2.833   5.197  0.7432 -0.8592  0.6283
   21MOL0     H 2777   1.253   2.969   5.233  0.7000  0.7594 -1.1994
   21MOL0     H 2778   1.195   3.012   5.011 -0.6336 -0.4587  2.2032
   21MOL0     H 2779   1.346   2.933   4.994 -0.2700  0.0660 -1.6864
   21MOL0     H 2780   1.242   2.719   4.955  1.0765  1.0489 -0.2592
   21MOL0     H 2781   1.078   2.796   4.968  0.7096  0.2974  0.1305
   21MOL0     H 2782   1.310   2.836   4.766  0.8251 -0.2786  2.2896
   21MOL0     H 2783   1.149   2.764   4.737 -1.3635 -0.4362  2.0989
   21MOL0     H 2784   1.156   2.992   4.646  2.1107  1.9729  0.4734
   21MOL0     H 2785   1.181   3.056   4.797 -0.2970  0.5158 -0.5238
   21MOL0     H 2786   0.961   3.043   4.994  1.7064  3.0788 -1.0335
   21MOL0     H 2787   0.625   2.914   4.952 -0.7569  0.2432  0.7101
   21MOL0     H 2788   0.719   3.016   5.067  0.5986 -0.3543 -0.8150
   21MOL0     H 2789   0.564   3.115   4.829  2.8419  0.1535 -0.4822
   21MOL0     H 2790   0.662   3.209   4.953  1.9584 -1.0713 -0.9000
   21MOL0     H 2791   0.490   3.188   5.108  0.4430  0.0499  0.7211
   21MOL0     H 2792   0.457   3.017   5.065 -2.6411  0.3065  0.9046
   21MOL0     H 2793   0.364   3.231   4.889 -1.1621  0.5575  0.0192
   21MOL0     H 2794   0.264   3.171   5.027  0.6801  1.3707  0.0216
   21MOL0     H 2795   0.119   3.237   4.847  3.9708 -1.0585 -0.8245
   21MOL0     H 2796  -0.107   3.321   4.831 -0.1684  0.8199  0.3603
   21MOL0     H 2797  -0.180   3.266   4.677  3.0035  1.7997 -0.9454
   21MOL0     H 2798  -0.239   3.192   4.830 -0.8787  0.8565 -2.0246
   21MOL0     H 2799  -0.481   2.856   4.515 -0.4279 -0.2676  0.0514
   21MOL0     H 2800  -0.647   2.855   4.346 -0.9889 -0.0528  2.2938
   21MOL0     H 2801  -0.874   3.168   4.313  4.3307  0.1739  0.1019
   21MOL0     H 2802  -0.920   3.125   4.147  1.0799 -1.0293 -0.6780
   21MOL0     H 2803  -0.948   2.945   4.405  1.3271 -0.7957  0.2263
   21MOL0     H 2804  -1.056   3.000   4.286  0.4282  2.6556 -0.4003
   21MOL0     H 2805  -0.992   2.761   4.289  0.0562  0.7077  0.3445
   21MOL0     H 2806  -0.825   2.806   4.229 -0.0084  0.7363 -0.1834
   21MOL0     H 2807  -1.074   2.882   4.075  1.2139  2.2145  2.2729
   21MOL0     H 2808  -0.900   2.865   4.025  0.7069  0.6160  2.1215
   21MOL0     H 2809  -1.090   2.629   4.107 -0.5616  0.6527 -0.6841
   21MOL0     H 2810  -0.926   2.617   4.034  1.5829  1.0742  1.6854
   21MOL0     H 2811  -1.169   2.741   3.888  1.1717  0.1764  0.9940
   21MOL0     H 2812  -1.013   2.693   3.822  2.0842 -0.3459  1.6965
   21MOL0     H 2813  -1.216   2.497   3.946 -0.0942 -0.1477 -0.7322
   21MOL0     H 2814  -1.060   2.454   3.873 -0.9508 -2.0882 -2.3914
   21MOL0     H 2815  -1.149   2.542   3.658  0.9836  0.8270  0.7941
   21MOL0     H 2816  -1.287   2.621   3.730 -1.0394 -0.3551 -3.1992
   21MOL0     H 2817  -0.581   3.260   4.249  1.4249 -1.2864 -1.3674
   21MOL0     H 2818  -0.382   3.255   4.437 -3.0695  2.7226  0.8982
   21MOL0     H 2819  -0.022   2.804   4.660 -1.2549  0.8731  1.5425
   21MOL0     H 2820   0.197   2.833   4.767 -0.5668  1.0095 -0.0584
   21MOL0     H 2821   1.588   2.662   5.727  0.5760 -0.5622  0.6164
   21MOL0     H 2822   1.823   2.589   5.817 -0.5106  0.2776  0.4002
   21MOL0     H 2823   2.247   2.531   5.686  4.3720  0.7732 -1.9756
   21MOL0     H 2824   2.481   2.508   5.783  2.5877 -1.9153  0.3115
   21MOL0     H 2825   2.761   2.271   5.982 -0.1268  1.0888 -0.7608
   21MOL0     H 2826   2.619   2.170   6.016 -1.5130 -1.5846 -1.3716
   21MOL0     H 2827   2.801   2.159   5.773  1.2821 -0.9586  0.3657
   21MOL0     H 2828   2.641   2.079   5.779 -2.5035  0.9225  2.7419
   21MOL0     H 2829   2.796   1.921   5.816 -0.6465  1.1017 -0.6349
   21MOL0     H 2830   2.729   1.946   5.976  0.1670  1.2891  0.3808
   21MOL0     H 2831   2.984   1.925   5.986 -0.0016  0.3566  0.4757
   21MOL0     H 2832   2.923   2.087   6.039 -0.2486  0.2565  0.2100
   21MOL0     H 2833   3.106   2.215   5.698 -1.4627 -0.3965 -0.4805
   21MOL0     H 2834   2.401   2.116   5.901  0.5221  0.9380  2.0384
   21MOL0     H 2835   2.178   2.123   5.804  0.5472  0.1030  0.6402
   22MOL0     O 2836   0.448   4.386   4.765  0.5451 -0.0514 -0.5658
   22MOL0     C 2837   0.485   4.376   4.648 -0.0187 -0.1807  0.9386
   22MOL0     O 2838   0.422   4.429   4.535 -0.5277 -0.1053  0.1800
   22MOL0     C 2839   0.297   4.485   4.532  0.3115 -0.3586  0.6152
   22MOL0     C 2840   0.260   4.552   4.417  0.2894  0.5399  0.1459
   22MOL0     C 2841   0.135   4.610   4.411  0.2286  0.4399  0.1230
   22MOL0     C 2842   0.042   4.607   4.521 -0.3448 -0.8577  1.2114
   22MOL0     O 2843  -0.080   4.667   4.507  0.1370  0.3577 -0.3494
   22MOL0     C 2844  -0.192   4.622   4.591  0.1734 -0.7966  0.2297
   22MOL0     C 2845  -0.305   4.717   4.569 -0.1321 -0.2371 -0.7630
   22MOL0     C 2846  -0.362   4.733   4.427 -0.6720  0.4804  0.0304
   22MOL0     C 2847  -0.490   4.823   4.439  0.8021 -0.2130 -0.6571
   22MOL0     C 2848  -0.476   4.941   4.348  0.7241  0.0247 -0.0688
   22MOL0     C 2849  -0.572   5.048   4.399 -0.0410 -0.3911  0.0652
   22MOL0     C 2850  -0.564   5.176   4.318 -0.0991 -0.1372 -1.1329
   22MOL0     C 2851  -0.658   5.276   4.370  0.0404 -0.1731 -1.2908
   22MOL0     N 2852  -0.795   5.232   4.358 -0.4555 -0.1260 -0.4934
   22MOL0     C 2853  -0.865   5.218   4.241 -0.0087  0.1442  0.6413
   22MOL0     C 2854  -0.983   5.149   4.275 -0.2276  0.0827 -0.3957
   22MOL0     C 2855  -1.084   5.127   4.172 -0.0324 -1.0383 -0.0202
   22MOL0     C 2856  -1.203   5.062   4.223 -0.5557 -0.4958 -0.2530
   22MOL0     C 2857  -1.271   5.131   4.337  1.2051 -0.1857  0.4351
   22MOL0     C 2858  -1.402   5.056   4.363 -0.2572  0.8040 -0.4448
   22MOL0     O 2859  -1.487   5.068   4.244 -0.7280  0.0909 -0.7804
   22MOL0     C 2860  -1.617   5.025   4.259  0.4516 -1.2834 -0.1617
   22MOL0     C 2861  -1.671   4.958   4.368  0.0214  0.7493  0.1992
   22MOL0     C 2862  -1.802   4.902   4.360  0.3889  0.0910 -0.0920
   22MOL0     C 2863  -1.851   4.837   4.486  0.6384 -0.6600 -0.8060
   22MOL0     C 2864  -1.884   4.923   4.241 -0.5333  0.1101 -0.7366
   22MOL0     C 2865  -2.028   4.888   4.226 -0.4955 -0.2901 -0.0092
   22MOL0     O 2866  -2.074   4.786   4.302  0.0762  0.2681  0.0649
   22MOL0     C 2867  -2.188   4.721   4.269  0.2035  0.4975  0.2949
   22MOL0     C 2868  -2.221   4.679   4.137 -0.7070 -0.1678  0.9431
   22MOL0     C 2869  -2.338   4.608   4.113  0.4354 -0.0386 -0.2105
   22MOL0     C 2870  -2.426   4.580   4.225 -0.0934 -0.7932  0.4831
   22MOL0     O 2871  -2.555   4.543   4.206 -0.7633 -0.2063 -0.5898
   22MOL0     C 2872  -2.576   4.447   4.098  0.2868  0.5880 -0.1683
   22MOL0     C 2873  -2.715   4.381   4.131  0.1233  0.6163  0.4384
   22MOL0     C 2874  -2.835   4.473   4.088  0.4659  0.4635 -0.2176
   22MOL0     C 2875  -2.972   4.419   4.129  0.9526  1.5954  0.7772
   22MOL0     C 2876  -3.086   4.500   4.083  0.3641  0.4792  0.0866
   22MOL0     C 2877  -3.218   4.455   4.154  0.1038 -0.2445 -0.4575
   22MOL0     C 2878  -3.270   4.315   4.124 -0.9350  0.4776  0.4357
   22MOL0     C 2879  -3.303   4.282   3.977  0.9682 -0.6489  0.2001
   22MOL0    Cl 2880  -3.155   4.225   3.890  0.1970  0.2034 -0.1052
   22MOL0     C 2881  -2.383   4.624   4.356  0.3959 -0.1657 -0.3733
   22MOL0     C 2882  -2.271   4.696   4.372 -0.1103  0.2070 -0.3714
   22MOL0     O 2883  -2.094   4.949   4.139  0.1889  0.3597 -0.8645
   22MOL0     C 2884  -1.820   4.991   4.132  0.5733  0.3933 -0.2214
   22MOL0     C 2885  -1.685   5.041   4.145  0.5122  0.1697  0.1938
   22MOL0     N 2886  -0.976   5.133   4.414  0.4106 -1.0462  0.3746
   22MOL0     N 2887  -0.866   5.181   4.462 -0.5120  0.0091 -0.4644
   22MOL0     C 2888   0.072   4.536   4.634  0.6411  0.0004  0.7089
   22MOL0     C 2889   0.197   4.475   4.632 -0.0612 -1.1414 -0.4522
   22MOL0     C 2890   0.601   4.291   4.620  0.2832  0.8113  0.1229
   22MOL0     C 2891   0.666   4.218   4.725 -0.0910  1.0296  0.1741
   22MOL0     C 2892   0.788   4.144   4.712  0.7548 -0.4270  0.2921
   22MOL0     C 2893   0.844   4.139   4.583  0.0487 -0.0246  0.6668
   22MOL0     O 2894   0.961   4.064   4.578  0.2114 -0.3419  0.0434
   22MOL0     C 2895   1.042   4.063   4.456 -0.7867  0.0853  1.0499
   22MOL0     C 2896   1.132   4.185   4.449 -0.0909 -0.0144  0.5646
   22MOL0     C 2897   1.213   4.194   4.581  0.4910 -0.4359 -0.3007
   22MOL0     C 2898   1.354   4.213   4.543  0.2584  0.2678  0.2305
   22MOL0     C 2899   1.428   4.089   4.509 -0.8752  0.4776  0.6670
   22MOL0     C 2900   1.474   3.978   4.466 -0.3253  0.4798 -0.6814
   22MOL0     C 2901   0.779   4.200   4.476  0.2438  0.0118 -0.1436
   22MOL0     C 2902   0.661   4.280   4.495  0.0764  0.7777  0.5604
   22MOL0     H 2903   0.328   4.571   4.334  0.8654  0.8886  0.6900
   22MOL0     H 2904   0.116   4.672   4.324  0.1713  0.4336  0.1314
   22MOL0     H 2905  -0.223   4.519   4.573  2.2826 -1.7198  1.4900
   22MOL0     H 2906  -0.174   4.624   4.699 -1.7216  2.2333  0.6159
   22MOL0     H 2907  -0.379   4.690   4.645 -1.4587  0.0723 -1.9151
   22MOL0     H 2908  -0.257   4.812   4.597 -1.5374  0.0643  0.7762
   22MOL0     H 2909  -0.281   4.755   4.356 -1.3116 -0.7788 -1.1428
   22MOL0     H 2910  -0.391   4.633   4.393  1.9319 -0.4021  0.1825
   22MOL0     H 2911  -0.584   4.769   4.418  0.0871 -0.2358  2.2222
   22MOL0     H 2912  -0.490   4.865   4.539 -2.6659  1.1164 -1.0779
   22MOL0     H 2913  -0.376   4.984   4.345  0.0384  1.7775  0.3210
   22MOL0     H 2914  -0.500   4.908   4.247 -0.7907 -1.6763  0.7794
   22MOL0     H 2915  -0.672   5.004   4.392 -0.2256  0.1757 -1.1912
   22MOL0     H 2916  -0.558   5.076   4.504 -2.0451 -0.8373  0.4860
   22MOL0     H 2917  -0.463   5.214   4.334 -0.4916 -0.1471  2.2581
   22MOL0     H 2918  -0.595   5.159   4.215 -0.1292 -2.3221 -0.8264
   22MOL0     H 2919  -0.644   5.365   4.308  1.8073 -2.0276 -3.7283
   22MOL0     H 2920  -0.627   5.302   4.472  0.7327 -1.3355 -1.1881
   22MOL0     H 2921  -0.829   5.247   4.143  1.1054  1.1533  1.3306
   22MOL0     H 2922  -1.100   5.228   4.135 -1.1885 -2.0122 -2.3357
   22MOL0     H 2923  -1.046   5.068   4.088  0.6654  0.2696 -0.6560
   22MOL0     H 2924  -1.167   4.963   4.252  0.9880  0.9316  3.2574
   22MOL0     H 2925  -1.271   5.055   4.138 -1.7008 -0.7353  0.6616
   22MOL0     H 2926  -1.287   5.237   4.316 -2.3111 -0.7420 -0.2517
   22MOL0     H 2927  -1.209   5.128   4.428 -0.0621 -0.3470  1.3170
   22MOL0     H 2928  -1.455   5.107   4.444 -0.9939 -1.0147  0.2690
   22MOL0     H 2929  -1.391   4.950   4.389 -2.7638  0.1253 -1.8538
   22MOL0     H 2930  -1.610   4.927   4.453 -1.4653 -1.8877  0.3937
   22MOL0     H 2931  -1.775   4.849   4.565  2.3494 -1.1912 -2.2944
   22MOL0     H 2932  -1.953   4.871   4.507  0.5851 -1.1592 -0.2371
   22MOL0     H 2933  -1.863   4.731   4.464  1.4606 -0.8655 -0.3247
   22MOL0     H 2934  -2.166   4.708   4.048 -4.8574  1.2356 -1.4589
   22MOL0     H 2935  -2.371   4.578   4.014 -3.2152  0.7410  0.6124
   22MOL0     H 2936  -2.582   4.496   4.000 -1.3600  0.9159  0.0631
   22MOL0     H 2937  -2.504   4.366   4.110 -1.4831 -1.0608 -0.2833
   22MOL0     H 2938  -2.720   4.279   4.091  0.6698  0.2464  1.2690
   22MOL0     H 2939  -2.718   4.372   4.240  0.8893  0.5629  0.4660
   22MOL0     H 2940  -2.833   4.486   3.979  1.7829 -3.0647 -0.7583
   22MOL0     H 2941  -2.824   4.573   4.131  1.4758  1.1963 -2.0491
   22MOL0     H 2942  -2.982   4.314   4.098 -0.0350  2.2032 -1.1342
   22MOL0     H 2943  -2.970   4.411   4.238  0.7677 -0.4138  0.6767
   22MOL0     H 2944  -3.091   4.487   3.974 -1.0677  0.7034  0.1031
   22MOL0     H 2945  -3.078   4.607   4.104  0.3957  0.4161  0.3978
   22MOL0     H 2946  -3.209   4.459   4.263 -0.2617 -2.5137 -0.3114
   22MOL0     H 2947  -3.296   4.528   4.130 -2.5554 -0.9685  4.6107
   22MOL0     H 2948  -3.360   4.285   4.179 -1.6202 -2.2322 -1.8981
   22MOL0     H 2949  -3.197   4.240   4.157  0.2351  1.2615 -0.2815
   22MOL0     H 2950  -3.328   4.378   3.931 -1.4735 -0.5282  1.5983
   22MOL0     H 2951  -3.382   4.206   3.980  0.6551 -0.3757 -0.7801
   22MOL0     H 2952  -2.457   4.628   4.435  1.0232 -0.1757  0.2335
   22MOL0     H 2953  -2.245   4.736   4.470  0.1799 -1.9087  0.4729
   22MOL0     H 2954  -1.885   5.011   4.048 -2.1672 -0.0960  1.6494
   22MOL0     H 2955  -1.637   5.091   4.062  1.0425 -1.2874 -0.4054
   22MOL0     H 2956   0.004   4.519   4.717  1.9436 -2.5032  1.3568
   22MOL0     H 2957   0.224   4.422   4.723 -0.1918  1.6829  1.3609
   22MOL0     H 2958   0.615   4.222   4.821 -0.4170  0.9983  0.0036
   22MOL0     H 2959   0.843   4.094   4.791  0.4439  0.3537  1.0173
   22MOL0     H 2960   1.105   3.975   4.445  0.1189  0.8811 -0.5842
   22MOL0     H 2961   0.987   4.042   4.363 -1.8357 -1.5375  1.9842
   22MOL0     H 2962   1.060   4.266   4.445  0.2584  0.3209 -3.4890
   22MOL0     H 2963   1.195   4.175   4.359  2.5465  0.1137  2.2718
   22MOL0     H 2964   1.223   4.102   4.640  2.3125 -0.2882 -0.3280
   22MOL0     H 2965   1.173   4.266   4.652  0.4284 -0.4270 -0.3448
   22MOL0     H 2966   1.399   4.254   4.634 -0.5045  1.5353  0.0492
   22MOL0     H 2967   1.367   4.287   4.464 -0.6094 -0.0178 -0.1917
   22MOL0     H 2968   1.528   3.893   4.428  0.1123 -0.2563  1.4615
   22MOL0     H 2969   0.823   4.178   4.380  1.4923  0.6620  0.2474
   22MOL0     H 2970   0.629   4.335   4.406 -1.0957  0.5643  0.8232
   23MOL0     O 2971   2.326   8.143   5.160 -0.8311 -0.1745  0.4186
   23MOL0     C 2972   2.443   8.155   5.119 -0.4597  0.5182 -0.6756
   23MOL0     O 2973   2.485   8.178   4.990  0.4963 -0.2509 -0.4079
   23MOL0     C 2974   2.386   8.180   4.892  0.2787 -0.0068  0.5177
   23MOL0     C 2975   2.414   8.109   4.776 -0.4778 -0.3147  0.1645
   23MOL0     C 2976   2.329   8.109   4.664  0.4120  0.1264 -0.2204
   23MOL0     C 2977   2.204   8.176   4.666 -0.3131 -0.1807 -0.4628
   23MOL0     O 2978   2.128   8.170   4.558 -1.0979 -0.3476  0.4937
   23MOL0     C 2979   1.991   8.212   4.556  0.1602  0.6504 -0.6098
   23MOL0     C 2980   1.910   8.162   4.434  1.0429 -0.0721  0.1706
   23MOL0     C 2981   1.756   8.191   4.435 -0.4354 -0.3569  0.5372
   23MOL0     C 2982   1.724   8.333   4.391  0.1729 -0.6977 -0.3804
   23MOL0     C 2983   1.575   8.357   4.352  0.3563 -0.1643  0.0053
   23MOL0     C 2984   1.491   8.339   4.472 -0.3620  0.3716  0.5239
   23MOL0     C 2985   1.347   8.373   4.431 -0.7292 -0.9420  1.1077
   23MOL0     C 2986   1.241   8.386   4.537 -0.5409  0.0026 -0.2567
   23MOL0     N 2987   1.120   8.413   4.470  0.0079 -0.1171 -1.0553
   23MOL0     C 2988   1.070   8.531   4.438 -0.2811  0.6750 -0.3171
   23MOL0     C 2989   0.942   8.513   4.399  0.0348  0.2563  1.2808
   23MOL0     C 2990   0.843   8.611   4.343  0.1526  0.4021 -0.9034
   23MOL0     C 2991   0.748   8.668   4.452  0.0242  0.4662 -0.3647
   23MOL0     C 2992   0.817   8.739   4.571  0.0984  0.8817  0.3505
   23MOL0     C 2993   0.712   8.815   4.658  0.4251 -0.1031 -0.2862
   23MOL0     O 2994   0.624   8.722   4.729  0.5839  0.0965  0.5340
   23MOL0     C 2995   0.514   8.763   4.795  0.6799  0.6651 -0.2735
   23MOL0     C 2996   0.460   8.893   4.806  0.5776  0.3361 -0.5991
   23MOL0     C 2997   0.343   8.926   4.881 -0.2456  0.6429 -0.6722
   23MOL0     C 2998   0.309   9.076   4.897  0.2827 -0.3340 -0.0526
   23MOL0     C 2999   0.281   8.823   4.947 -0.0746  0.3316  0.0514
   23MOL0     C 3000   0.167   8.846   5.040 -0.6250  0.1363  0.5519
   23MOL0     O 3001   0.172   8.782   5.164  0.0210 -0.2037 -0.1283
   23MOL0     C 3002   0.077   8.809   5.263 -0.3835 -0.5763 -0.1647
   23MOL0     C 3003  -0.047   8.744   5.252  0.6868 -0.4246 -0.1180
   23MOL0     C 3004  -0.140   8.772   5.353  0.7120  0.1600 -0.3905
   23MOL0     C 3005  -0.105   8.843   5.465  0.3201 -0.1241  0.4860
   23MOL0     O 3006  -0.187   8.865   5.571  0.0973  0.4618 -0.5312
   23MOL0     C 3007  -0.217   8.743   5.646 -0.4546 -0.1179  0.1009
   23MOL0     C 3008  -0.309   8.799   5.752 -0.3272  0.2275  0.3601
   23MOL0     C 3009  -0.269   8.917   5.839 -0.4863  0.0987 -0.4652
   23MOL0     C 3010  -0.169   8.883   5.951  0.6641  0.7061 -0.7612
   23MOL0     C 3011  -0.133   9.004   6.026  0.1116  0.0172 -0.4666
   23MOL0     C 3012  -0.007   8.974   6.105 -0.0410 -0.0063 -1.9438
   23MOL0     C 3013   0.045   9.077   6.199  0.6469 -0.4468  0.3645
   23MOL0     C 3014  -0.046   9.080   6.327 -0.4495  0.3908  0.0693
   23MOL0    Cl 3015   0.047   9.172   6.447 -0.3634 -0.1798 -0.3994
   23MOL0     C 3016   0.025   8.895   5.479 -0.2877  0.9370 -0.0859
   23MOL0     C 3017   0.119   8.887   5.375 -0.8723 -0.2087  0.3701
   23MOL0     O 3018   0.079   8.922   5.000 -1.0524  0.5108 -0.1456
   23MOL0     C 3019   0.327   8.694   4.917  1.2503 -0.2823 -0.2054
   23MOL0     C 3020   0.440   8.653   4.847  0.8382 -0.1378 -0.0139
   23MOL0     N 3021   0.920   8.377   4.399 -0.4687 -0.5754 -0.3782
   23MOL0     N 3022   1.023   8.320   4.448  0.3674  0.0253 -0.7037
   23MOL0     C 3023   2.166   8.238   4.787 -0.3759 -0.7632  1.2627
   23MOL0     C 3024   2.261   8.248   4.895  0.2009 -0.5169  0.3183
   23MOL0     C 3025   2.555   8.146   5.212 -0.8935 -0.4319  0.5351
   23MOL0     C 3026   2.689   8.172   5.169 -0.4591  0.0392 -0.1513
   23MOL0     C 3027   2.799   8.146   5.255  1.0662 -0.3510  0.1919
   23MOL0     C 3028   2.783   8.087   5.383 -1.5259  0.3159  0.2403
   23MOL0     O 3029   2.896   8.058   5.454 -0.4451  0.0330 -0.1356
   23MOL0     C 3030   2.884   8.052   5.598 -0.0662 -1.2772  0.5036
   23MOL0     C 3031   3.018   8.087   5.656  0.1430 -0.0829 -0.1004
   23MOL0     C 3032   3.136   8.014   5.610  0.9429  0.5184  0.1242
   23MOL0     C 3033   3.261   8.052   5.691  1.2335 -0.0457  0.2538
   23MOL0     C 3034   3.375   7.970   5.662 -0.0291  0.1586  0.0865
   23MOL0     C 3035   3.465   7.897   5.629 -0.3553  0.1235  0.8563
   23MOL0     C 3036   2.650   8.064   5.430  0.3683 -0.1609  0.5673
   23MOL0     C 3037   2.540   8.090   5.340 -0.1545 -0.0700 -0.2919
   23MOL0     H 3038   2.511   8.060   4.772  0.7420  1.9970 -0.9867
   23MOL0     H 3039   2.353   8.056   4.573 -0.7809  0.5859 -0.8159
   23MOL0     H 3040   1.943   8.187   4.651  0.1903 -0.2280 -0.8146
   23MOL0     H 3041   1.977   8.319   4.536 -1.4514  0.2380 -1.9326
   23MOL0     H 3042   1.939   8.199   4.335 -0.7010  2.2163  0.4416
   23MOL0     H 3043   1.920   8.054   4.418 -0.6640  0.0658 -2.2604
   23MOL0     H 3044   1.708   8.130   4.358 -0.5694  4.6091 -3.8824
   23MOL0     H 3045   1.719   8.172   4.536 -2.6025  0.8401  0.0433
   23MOL0     H 3046   1.757   8.400   4.471 -0.1540 -0.0561 -0.7727
   23MOL0     H 3047   1.779   8.357   4.300 -0.9604 -2.5396 -1.6295
   23MOL0     H 3048   1.563   8.461   4.320 -0.7151 -0.7964 -1.7927
   23MOL0     H 3049   1.544   8.288   4.273  1.5315  0.9788 -1.5246
   23MOL0     H 3050   1.495   8.234   4.505 -1.0904 -0.1254 -0.9146
   23MOL0     H 3051   1.521   8.398   4.559 -1.4718 -0.3396  1.4219
   23MOL0     H 3052   1.350   8.465   4.372  0.6866 -1.3987  0.4316
   23MOL0     H 3053   1.316   8.295   4.361 -0.2996  0.3185 -0.5352
   23MOL0     H 3054   1.262   8.463   4.611  3.3441 -0.3316 -0.7878
   23MOL0     H 3055   1.235   8.288   4.586 -1.3998  0.0889 -0.1732
   23MOL0     H 3056   1.133   8.619   4.435 -1.6370  1.6619 -1.8316
   23MOL0     H 3057   0.890   8.689   4.282  1.6696 -0.3156 -0.7080
   23MOL0     H 3058   0.787   8.549   4.273 -1.5769  0.8786  0.0083
   23MOL0     H 3059   0.687   8.596   4.507  1.1836  0.2146  0.6239
   23MOL0     H 3060   0.689   8.741   4.396  0.0525 -1.5897 -3.3597
   23MOL0     H 3061   0.892   8.802   4.521  0.3023 -0.8424 -1.6915
   23MOL0     H 3062   0.869   8.671   4.640 -0.0472  0.5220  0.1114
   23MOL0     H 3063   0.662   8.885   4.591 -0.3260 -2.0320 -1.8330
   23MOL0     H 3064   0.777   8.872   4.726  3.2749 -1.4026 -1.7290
   23MOL0     H 3065   0.526   8.972   4.772  1.3658  0.2051  0.5607
   23MOL0     H 3066   0.364   9.139   4.827  1.8825 -2.5002 -0.8317
   23MOL0     H 3067   0.205   9.109   4.890  1.3049  3.0153 -1.4469
   23MOL0     H 3068   0.343   9.091   5.000  0.9475 -0.1846 -0.2916
   23MOL0     H 3069  -0.070   8.669   5.178 -0.3454  0.5447 -0.8158
   23MOL0     H 3070  -0.241   8.732   5.344  0.4763 -0.1054  2.4846
   23MOL0     H 3071  -0.270   8.663   5.593 -1.1266  0.7603 -0.5956
   23MOL0     H 3072  -0.134   8.701   5.704  1.8570  0.7445 -2.3530
   23MOL0     H 3073  -0.408   8.809   5.708  0.0572 -3.8647 -1.8598
   23MOL0     H 3074  -0.326   8.728   5.833  2.4548  0.9278  1.6885
   23MOL0     H 3075  -0.357   8.958   5.890 -0.1345  2.3615 -1.5644
   23MOL0     H 3076  -0.223   9.000   5.785  0.2852 -0.1094 -0.1351
   23MOL0     H 3077  -0.216   8.815   6.022 -1.3698  3.1230  0.3526
   23MOL0     H 3078  -0.083   8.842   5.896 -0.2861  1.4867 -2.9580
   23MOL0     H 3079  -0.210   9.029   6.100 -1.2498 -0.7112 -1.5977
   23MOL0     H 3080  -0.127   9.098   5.971 -1.3172  0.3754 -0.0580
   23MOL0     H 3081  -0.017   8.879   6.159 -1.5807  0.5095 -1.2795
   23MOL0     H 3082   0.075   8.960   6.033  0.7124 -0.8284 -0.9580
   23MOL0     H 3083   0.055   9.181   6.167  0.1292 -0.5484 -0.1447
   23MOL0     H 3084   0.149   9.048   6.217  0.1473 -0.9557  2.7137
   23MOL0     H 3085  -0.078   8.986   6.374 -1.6151  2.0959  3.0282
   23MOL0     H 3086  -0.144   9.124   6.305 -1.7650 -1.5062  1.6406
   23MOL0     H 3087   0.040   8.973   5.553 -2.5667  3.4692 -2.0294
   23MOL0     H 3088   0.216   8.935   5.385  0.0945 -2.0460  0.1386
   23MOL0     H 3089   0.262   8.610   4.938  1.1322  0.1569  1.3494
   23MOL0     H 3090   0.465   8.550   4.824  0.9574  0.1107 -1.0598
   23MOL0     H 3091   2.073   8.294   4.789 -1.0042 -1.7090 -0.2946
   23MOL0     H 3092   2.230   8.304   4.982 -4.2275 -1.6792 -0.2820
   23MOL0     H 3093   2.713   8.201   5.067  2.6074 -1.7406 -0.0748
   23MOL0     H 3094   2.896   8.172   5.214  0.8134  1.4197  0.6349
   23MOL0     H 3095   2.817   8.129   5.638  0.4526 -1.7514  2.3715
   23MOL0     H 3096   2.834   7.960   5.632  0.9749 -1.6644  1.0099
   23MOL0     H 3097   3.017   8.067   5.763 -3.1507 -0.3554 -0.0774
   23MOL0     H 3098   3.028   8.190   5.621 -1.1788  0.1536  0.1922
   23MOL0     H 3099   3.150   8.020   5.502  0.9499 -0.3894  0.0693
   23MOL0     H 3100   3.108   7.909   5.620  0.7810  0.4242 -1.1916
   23MOL0     H 3101   3.240   8.043   5.798  1.9917  1.9855  0.6308
   23MOL0     H 3102   3.292   8.150   5.654 -0.6520 -0.6725 -3.3675
   23MOL0     H 3103   3.532   7.828   5.582  0.5712  1.2765  0.4290
   23MOL0     H 3104   2.637   8.028   5.531  0.2965 -0.1089  0.5771
   23MOL0     H 3105   2.439   8.058   5.364 -0.7782  0.4640 -2.0684
   24MOL0     O 3106   9.819   0.603   9.526 -0.4804 -0.7187  0.2244
   24MOL0     C 3107   9.900   0.686   9.575  0.5457  0.0736 -0.5201
   24MOL0     O 3108   9.870   0.772   9.673 -0.1706  0.0456 -0.9705
   24MOL0     C 3109   9.738   0.798   9.686  0.0812  0.4386  0.4003
   24MOL0     C 3110   9.655   0.721   9.762  0.6599 -0.2267 -0.1048
   24MOL0     C 3111   9.520   0.742   9.765  0.2050  0.3154  0.5917
   24MOL0     C 3112   9.469   0.856   9.703  0.0063 -0.0996  0.2263
   24MOL0     O 3113   9.330   0.872   9.723  0.6859  0.0262 -0.0354
   24MOL0     C 3114   9.241   0.959   9.648  0.2705 -0.6853 -0.0596
   24MOL0     C 3115   9.108   0.955   9.718  0.2237  0.1534 -0.3350
   24MOL0     C 3116   8.989   1.038   9.653  0.4639 -0.2487 -0.2533
   24MOL0     C 3117   8.864   1.002   9.736  0.2030 -0.4638 -0.7677
   24MOL0     C 3118   8.738   1.093   9.687 -0.4284  0.0722  0.1243
   24MOL0     C 3119   8.710   1.096   9.543 -0.2636  0.0234  0.0564
   24MOL0     C 3120   8.576   1.154   9.498  1.0861  0.0706  0.7640
   24MOL0     C 3121   8.567   1.157   9.341  0.6732 -0.8044 -0.0431
   24MOL0     N 3122   8.436   1.215   9.297  1.0950 -0.1890  0.5829
   24MOL0     C 3123   8.429   1.341   9.243  0.3764  0.0358 -0.6041
   24MOL0     C 3124   8.313   1.345   9.182 -0.2794  0.7518 -0.1784
   24MOL0     C 3125   8.268   1.469   9.120  0.4019  0.2808 -0.0618
   24MOL0     C 3126   8.149   1.536   9.186  0.3048 -0.1192  0.0222
   24MOL0     C 3127   8.115   1.669   9.103  0.5698  1.1234 -0.9306
   24MOL0     C 3128   7.980   1.716   9.146 -0.2416  0.1622  0.4489
   24MOL0     O 3129   7.882   1.617   9.093 -0.3361  0.1834  0.0555
   24MOL0     C 3130   7.754   1.633   9.143  0.4586  0.2842 -0.0970
   24MOL0     C 3131   7.672   1.517   9.139  0.4878  0.1596 -0.9381
   24MOL0     C 3132   7.549   1.501   9.210  0.5392  0.4810  0.1878
   24MOL0     C 3133   7.475   1.376   9.197 -0.2239  0.1761  0.5073
   24MOL0     C 3134   7.501   1.618   9.277  0.0379  0.1578  0.6528
   24MOL0     C 3135   7.372   1.626   9.352  0.9155 -0.3525  0.0600
   24MOL0     O 3136   7.325   1.753   9.375 -0.5960 -0.1098 -0.0915
   24MOL0     C 3137   7.197   1.784   9.415  0.3198  0.3188  0.0938
   24MOL0     C 3138   7.186   1.907   9.485  0.3732 -0.1345 -0.7195
   24MOL0     C 3139   7.064   1.956   9.539  0.4123  0.3714 -0.1715
   24MOL0     C 3140   6.944   1.884   9.507  0.0984  0.4719 -0.4063
   24MOL0     O 3141   6.814   1.906   9.545  0.1536  0.2412  0.1745
   24MOL0     C 3142   6.771   2.040   9.545  0.9101 -0.7168  0.1637
   24MOL0     C 3143   6.626   2.049   9.609 -0.0742 -1.5772 -0.1357
   24MOL0     C 3144   6.612   2.195   9.644  0.2792  1.2534  1.3041
   24MOL0     C 3145   6.468   2.232   9.695  0.7650 -0.3558  0.8628
   24MOL0     C 3146   6.453   2.387   9.697  0.2093 -0.4005  0.6046
   24MOL0     C 3147   6.489   2.432   9.838  0.1092  0.8130  0.2713
   24MOL0     C 3148   6.509   2.586   9.852  1.0138  0.1043  0.2789
   24MOL0     C 3149   6.492   2.636   9.995 -0.1505 -0.3681 -0.3625
   24MOL0    Cl 3150   6.462   2.807   9.995  0.0218  0.1849  0.0836
   24MOL0     C 3151   6.955   1.767   9.433  0.1627 -0.8761 -0.3141
   24MOL0     C 3152   7.079   1.718   9.390 -0.4042  0.7076 -0.4415
   24MOL0     O 3153   7.319   1.526   9.390 -0.4680  0.7465 -0.3763
   24MOL0     C 3154   7.583   1.735   9.287 -0.3081 -0.5709  0.2738
   24MOL0     C 3155   7.698   1.740   9.212 -0.4610  0.2552  0.1672
   24MOL0     N 3156   8.254   1.224   9.191 -0.8859 -0.1097 -0.0953
   24MOL0     N 3157   8.330   1.142   9.257 -0.6458  0.1947 -0.1904
   24MOL0     C 3158   9.547   0.939   9.614 -0.7810  0.2705 -0.9189
   24MOL0     C 3159   9.680   0.902   9.602  0.3905 -0.2008 -0.5780
   24MOL0     C 3160  10.042   0.669   9.555 -0.1315  0.8452  0.0725
   24MOL0     C 3161  10.093   0.562   9.479  0.3098  0.5001 -0.6403
   24MOL0     C 3162  10.230   0.549   9.459  0.0792  0.5582 -0.5585
   24MOL0     C 3163  10.319   0.643   9.515 -0.2345 -0.5371  0.3925
   24MOL0     O 3164  10.453   0.630   9.489 -0.0567 -0.2948  0.3022
   24MOL0     C 3165  10.540   0.608   9.602  0.4928  0.5797  0.5018
   24MOL0     C 3166  10.679   0.646   9.553  0.6030 -0.5920  0.4845
   24MOL0     C 3167  10.781   0.597   9.651  0.3612 -0.2290  0.4182
   24MOL0     C 3168  10.922   0.641   9.591  0.1070 -0.2610 -0.7556
   24MOL0     C 3169  11.009   0.603   9.698 -1.5786  0.6746  0.3439
   24MOL0     C 3170  11.086   0.583   9.788  0.0475 -0.6455 -0.1524
   24MOL0     C 3171  10.268   0.762   9.571 -0.1503  0.7511 -0.2749
   24MOL0     C 3172  10.132   0.774   9.588  0.4807 -0.2824 -0.4226
   24MOL0     H 3173   9.696   0.643   9.825  0.3839 -0.2746  0.0187
   24MOL0     H 3174   9.459   0.682   9.832 -0.8498 -0.3794 -0.9400
   24MOL0     H 3175   9.278   1.062   9.657  0.1688 -0.2490 -3.4750
   24MOL0     H 3176   9.241   0.934   9.542  0.6438 -1.2508  0.0722
   24MOL0     H 3177   9.074   0.852   9.721 -0.5902  0.4339  0.8934
   24MOL0     H 3178   9.122   1.001   9.817  0.2211 -0.2193 -0.1607
   24MOL0     H 3179   9.015   1.144   9.651  0.0383 -0.1099  0.8732
   24MOL0     H 3180   8.971   1.005   9.550  0.8099  2.3025 -1.2021
   24MOL0     H 3181   8.837   0.897   9.724  0.2422 -0.2654 -2.9588
   24MOL0     H 3182   8.882   1.019   9.843 -1.3251  2.4994 -0.8595
   24MOL0     H 3183   8.649   1.052   9.737 -5.7600  5.7780 -3.2563
   24MOL0     H 3184   8.757   1.195   9.720  0.3983  0.5593 -1.7341
   24MOL0     H 3185   8.790   1.150   9.491 -0.9371  0.7810 -0.2144
   24MOL0     H 3186   8.707   0.996   9.498 -3.3123 -0.2412  0.6022
   24MOL0     H 3187   8.491   1.102   9.544 -0.1306  1.9842  0.7686
   24MOL0     H 3188   8.569   1.256   9.537  1.5309  0.5585 -0.3749
   24MOL0     H 3189   8.570   1.055   9.303  1.9043  0.2567 -3.1131
   24MOL0     H 3190   8.643   1.226   9.305 -0.2502  0.1027 -0.3104
   24MOL0     H 3191   8.495   1.427   9.253  1.3926 -0.8540  0.6685
   24MOL0     H 3192   8.349   1.540   9.106 -1.4825  2.4737 -0.3934
   24MOL0     H 3193   8.235   1.437   9.021 -2.9043  0.2092  0.9405
   24MOL0     H 3194   8.167   1.555   9.292  1.8808  0.1004 -0.2520
   24MOL0     H 3195   8.072   1.460   9.174  1.9259 -2.1387  1.5720
   24MOL0     H 3196   8.113   1.646   8.996  1.0860 -3.4504 -0.1547
   24MOL0     H 3197   8.188   1.750   9.120 -1.3118  2.9875 -1.2536
   24MOL0     H 3198   7.965   1.816   9.103  0.3282 -1.6685 -4.7170
   24MOL0     H 3199   7.976   1.718   9.255 -2.1087 -2.4425  0.5320
   24MOL0     H 3200   7.702   1.432   9.080 -0.8960  0.5092 -2.2037
   24MOL0     H 3201   7.465   1.342   9.301  0.8362  1.2980  0.9963
   24MOL0     H 3202   7.378   1.392   9.148 -0.0171 -4.1521 -1.8608
   24MOL0     H 3203   7.525   1.298   9.139  0.7105  0.4264  0.9546
   24MOL0     H 3204   7.276   1.967   9.489  1.0326 -1.1647  1.1259
   24MOL0     H 3205   7.070   2.047   9.597 -1.6474  1.1987 -1.2087
   24MOL0     H 3206   6.839   2.098   9.608  0.8823 -0.6610  0.1417
   24MOL0     H 3207   6.762   2.081   9.445 -1.7002  0.5690  0.8258
   24MOL0     H 3208   6.547   2.025   9.537 -1.5878  1.1469  0.4821
   24MOL0     H 3209   6.609   1.984   9.696 -0.2480  2.6020  3.2463
   24MOL0     H 3210   6.624   2.250   9.551 -1.8821 -0.8622 -0.3302
   24MOL0     H 3211   6.692   2.222   9.715  1.2652 -1.9142  1.5464
   24MOL0     H 3212   6.399   2.192   9.621 -0.2399 -3.1206  3.0981
   24MOL0     H 3213   6.438   2.184   9.789 -2.5697 -2.5180 -1.1032
   24MOL0     H 3214   6.353   2.416   9.664  0.7880  1.0686  0.0712
   24MOL0     H 3215   6.527   2.424   9.626 -0.5573 -0.0003 -0.0011
   24MOL0     H 3216   6.411   2.388   9.901 -0.0592 -2.3535 -1.9362
   24MOL0     H 3217   6.579   2.380   9.871 -0.9184 -0.0422  1.8427
   24MOL0     H 3218   6.434   2.635   9.790  0.6080 -2.3957 -1.3495
   24MOL0     H 3219   6.608   2.614   9.813  1.3177  0.9153  1.5620
   24MOL0     H 3220   6.579   2.611  10.057 -1.7598 -0.1084  2.1463
   24MOL0     H 3221   6.407   2.592  10.048  0.4909 -0.3883  0.6765
   24MOL0     H 3222   6.870   1.700   9.428 -0.7388  0.0052  2.1226
   24MOL0     H 3223   7.079   1.625   9.333  0.3170  0.7402 -0.5092
   24MOL0     H 3224   7.552   1.820   9.348  2.9006  0.4750  0.6199
   24MOL0     H 3225   7.757   1.831   9.208  2.0015 -1.2112  1.0251
   24MOL0     H 3226   9.491   1.008   9.552 -0.6468  1.6822  0.4705
   24MOL0     H 3227   9.743   0.952   9.529  0.4464 -1.2999 -1.3017
   24MOL0     H 3228  10.021   0.492   9.438 -0.0918  0.3158  0.3573
   24MOL0     H 3229  10.269   0.465   9.403  2.1734  1.8907 -1.2018
   24MOL0     H 3230  10.516   0.673   9.687 -1.0548  0.3079  0.3017
   24MOL0     H 3231  10.534   0.505   9.638  0.5420  0.8604  1.3318
   24MOL0     H 3232  10.690   0.754   9.539  0.3086 -0.6659 -0.3454
   24MOL0     H 3233  10.690   0.605   9.452 -1.8004 -0.1897 -0.0025
   24MOL0     H 3234  10.788   0.488   9.657  0.1230 -0.1674  3.6080
   24MOL0     H 3235  10.759   0.638   9.750  0.7870  2.1340 -0.4000
   24MOL0     H 3236  10.917   0.749   9.577 -0.8963 -0.2826 -0.6174
   24MOL0     H 3237  10.963   0.596   9.501 -0.9998  0.4575 -1.6461
   24MOL0     H 3238  11.156   0.572   9.868  1.1978 -0.6152 -1.1346
   24MOL0     H 3239  10.328   0.846   9.602  1.2737 -0.4468  0.3716
   24MOL0     H 3240  10.096   0.870   9.624 -1.7142 -2.1955  2.9526
   25MOL0     O 3241   2.198   9.658   7.284 -0.3545 -0.1225  0.1739
   25MOL0     C 3242   2.280   9.749   7.289 -0.4837  0.3353 -0.7610
   25MOL0     O 3243   2.264   9.880   7.258  0.1762 -0.0284 -0.4012
   25MOL0     C 3244   2.142   9.922   7.223  0.4532 -0.3473  0.6567
   25MOL0     C 3245   2.074   9.883   7.105 -0.1129 -0.0586 -0.1114
   25MOL0     C 3246   1.950   9.944   7.064 -0.3997  0.5236 -1.5679
   25MOL0     C 3247   1.884  10.036   7.160  0.1024  0.8579  0.6226
   25MOL0     O 3248   1.755  10.077   7.134 -0.6404 -0.5506  1.2127
   25MOL0     C 3249   1.685  10.152   7.232 -0.3395 -1.0785  0.2213
   25MOL0     C 3250   1.533  10.129   7.220  0.5363 -0.0264 -0.7883
   25MOL0     C 3251   1.460  10.160   7.091 -0.3183 -0.1760  0.2206
   25MOL0     C 3252   1.318  10.100   7.071  0.5768 -0.6596  0.1364
   25MOL0     C 3253   1.271  10.126   6.922 -0.2592 -0.9872 -0.9416
   25MOL0     C 3254   1.135  10.080   6.892 -0.2970  0.0115 -0.5243
   25MOL0     C 3255   1.027  10.172   6.948  0.1130 -0.6614 -0.9669
   25MOL0     C 3256   0.894  10.105   6.909 -0.4460  0.1096 -0.7379
   25MOL0     N 3257   0.775  10.182   6.952  0.2617  0.9014 -0.0996
   25MOL0     C 3258   0.679  10.227   6.863 -0.3436  0.8037 -0.3832
   25MOL0     C 3259   0.575  10.269   6.936  0.1877 -0.0503 -0.1125
   25MOL0     C 3260   0.444  10.324   6.874 -0.9388  0.0047 -0.4247
   25MOL0     C 3261   0.351  10.389   6.988 -0.0330 -0.0099  0.2247
   25MOL0     C 3262   0.256  10.278   7.034 -0.1909 -0.4403  0.3005
   25MOL0     C 3263   0.133  10.333   7.115 -0.4778  0.8766  0.3359
   25MOL0     O 3264   0.058  10.426   7.035  0.1723 -0.3302 -0.3925
   25MOL0     C 3265  -0.063  10.467   7.092  0.6144 -1.0470 -0.9900
   25MOL0     C 3266  -0.163  10.527   7.016  0.3322 -1.1904  0.5320
   25MOL0     C 3267  -0.284  10.570   7.068  0.0447  0.6174  0.7596
   25MOL0     C 3268  -0.377  10.633   6.962  0.4832  0.0503  1.2987
   25MOL0     C 3269  -0.320  10.555   7.204 -0.6200  0.4974  0.3990
   25MOL0     C 3270  -0.448  10.605   7.270 -0.0468 -0.1890  0.2205
   25MOL0     O 3271  -0.501  10.529   7.368 -0.1410  0.1526  0.6179
   25MOL0     C 3272  -0.635  10.545   7.399 -0.1129 -0.4405 -0.8838
   25MOL0     C 3273  -0.655  10.526   7.542 -0.0219 -1.3373  0.0994
   25MOL0     C 3274  -0.778  10.559   7.597 -0.3208  0.0409 -0.2021
   25MOL0     C 3275  -0.892  10.590   7.519 -0.0163 -0.7345 -0.1564
   25MOL0     O 3276  -1.018  10.606   7.583  0.0967  0.5032 -0.7330
   25MOL0     C 3277  -1.089  10.722   7.555 -0.4737  0.7132 -0.3359
   25MOL0     C 3278  -1.149  10.786   7.681 -0.2238 -0.0422 -0.0561
   25MOL0     C 3279  -1.300  10.741   7.702  0.1191  0.0339 -0.3387
   25MOL0     C 3280  -1.347  10.778   7.845 -0.2367 -0.7619  0.4652
   25MOL0     C 3281  -1.486  10.723   7.878  0.1237 -0.4458 -0.5120
   25MOL0     C 3282  -1.509  10.574   7.877  0.1060  0.3787 -0.8662
   25MOL0     C 3283  -1.659  10.534   7.891 -0.0200 -0.3763  0.4553
   25MOL0     C 3284  -1.684  10.400   7.948  0.2581 -0.2060 -0.0788
   25MOL0    Cl 3285  -1.635  10.387   8.118 -0.5046 -0.1869  0.3011
   25MOL0     C 3286  -0.871  10.608   7.380 -0.6927  0.4780  0.3360
   25MOL0     C 3287  -0.752  10.578   7.317  0.5278  0.3199  0.5374
   25MOL0     O 3288  -0.502  10.701   7.210  0.2977  0.3094 -0.3356
   25MOL0     C 3289  -0.219  10.483   7.285  0.6039  0.1956 -0.4096
   25MOL0     C 3290  -0.096  10.447   7.226  0.4585  0.3838 -0.4822
   25MOL0     N 3291   0.612  10.262   7.073 -0.3801  0.3038 -0.8166
   25MOL0     N 3292   0.726  10.209   7.075 -0.2443 -0.4778  0.0885
   25MOL0     C 3293   1.950  10.062   7.282  0.5804  0.4116  0.6071
   25MOL0     C 3294   2.082  10.020   7.301  0.4420 -0.2040 -0.3932
   25MOL0     C 3295   2.416   9.701   7.337 -0.4675  0.2909  0.1424
   25MOL0     C 3296   2.525   9.796   7.342 -0.1953  0.1619  0.6077
   25MOL0     C 3297   2.654   9.753   7.377 -0.0171  0.2002 -0.5611
   25MOL0     C 3298   2.686   9.619   7.404 -0.0099  0.4453 -0.3229
   25MOL0     O 3299   2.823   9.592   7.422  0.0402 -0.2670  0.0915
   25MOL0     C 3300   2.858   9.461   7.433  0.7404  0.2702 -0.4599
   25MOL0     C 3301   2.879   9.389   7.295  0.6484  0.6871 -0.4301
   25MOL0     C 3302   3.026   9.386   7.273 -0.1985  0.1422  0.1000
   25MOL0     C 3303   3.062   9.391   7.124  0.4234  0.5890 -0.1560
   25MOL0     C 3304   3.205   9.384   7.090  0.4867  0.6010 -0.8329
   25MOL0     C 3305   3.315   9.381   7.051  0.1134 -0.0941  0.3415
   25MOL0     C 3306   2.583   9.521   7.403 -0.2828  0.7196 -0.1872
   25MOL0     C 3307   2.451   9.565   7.368  0.1186 -0.7329 -0.3534
   25MOL0     H 3308   2.113   9.804   7.041 -0.5152 -0.3879  0.0482
   25MOL0     H 3309   1.898   9.904   6.977 -0.2156 -1.6519 -0.7356
   25MOL0     H 3310   1.719  10.127   7.333 -0.6018 -1.2399  0.2705
   25MOL0     H 3311   1.702  10.260   7.226  1.2246 -1.3079  0.0136
   25MOL0     H 3312   1.526  10.022   7.238  1.6455  0.1926  1.3254
   25MOL0     H 3313   1.491  10.180   7.308 -2.2611 -1.5654 -1.1127
   25MOL0     H 3314   1.445  10.268   7.083 -0.0695 -0.2457 -1.4319
   25MOL0     H 3315   1.524  10.122   7.011  1.3983 -0.3866  1.6282
   25MOL0     H 3316   1.320   9.991   7.085 -1.3018 -0.8485 -0.8061
   25MOL0     H 3317   1.251  10.142   7.146  2.3110 -2.4801  2.8988
   25MOL0     H 3318   1.279  10.233   6.901 -2.4686 -0.0227  2.4524
   25MOL0     H 3319   1.340  10.074   6.854  2.1412  1.9077 -0.8952
   25MOL0     H 3320   1.133  10.068   6.784  2.2147  2.4705 -0.9868
   25MOL0     H 3321   1.125   9.984   6.943  0.8512 -0.1994 -0.6744
   25MOL0     H 3322   1.044  10.197   7.053  3.1641  0.6823 -1.6726
   25MOL0     H 3323   1.035  10.267   6.895 -1.9473 -0.2549 -0.6144
   25MOL0     H 3324   0.891  10.008   6.960 -3.5192  1.9511  3.1026
   25MOL0     H 3325   0.901  10.107   6.800  2.3551 -0.0415 -0.6320
   25MOL0     H 3326   0.679  10.217   6.755 -2.3554 -1.6690 -0.2564
   25MOL0     H 3327   0.475  10.406   6.809 -1.1244  0.7003  0.3392
   25MOL0     H 3328   0.393  10.250   6.813  0.6357 -0.7585 -0.8491
   25MOL0     H 3329   0.296  10.474   6.946  0.0473  0.5605  1.2638
   25MOL0     H 3330   0.407  10.430   7.072 -0.2727 -0.5354  0.6399
   25MOL0     H 3331   0.316  10.200   7.081  0.5113  0.4511  0.9199
   25MOL0     H 3332   0.211  10.226   6.950 -0.1419  0.8835 -0.5856
   25MOL0     H 3333   0.167  10.379   7.208  0.0284 -0.7675  1.0010
   25MOL0     H 3334   0.079  10.244   7.148 -2.7124  1.3922 -1.6389
   25MOL0     H 3335  -0.146  10.539   6.910  1.1863 -0.9342  0.6889
   25MOL0     H 3336  -0.475  10.587   6.978 -0.0856  1.3415  1.6206
   25MOL0     H 3337  -0.376  10.741   6.947 -2.0348 -0.1369 -1.0491
   25MOL0     H 3338  -0.353  10.598   6.861 -1.1843  4.5107 -0.8961
   25MOL0     H 3339  -0.570  10.505   7.605  0.3210 -1.4855 -0.4090
   25MOL0     H 3340  -0.796  10.554   7.704 -0.2175 -1.4735 -0.2269
   25MOL0     H 3341  -1.019  10.798   7.519 -0.1937  2.0319  2.6601
   25MOL0     H 3342  -1.168  10.702   7.483  0.2789  1.9549 -1.5648
   25MOL0     H 3343  -1.092  10.758   7.770  1.1165  1.8845 -0.2514
   25MOL0     H 3344  -1.151  10.896   7.678 -0.7524 -0.0256  0.6463
   25MOL0     H 3345  -1.305  10.633   7.687 -0.8050 -0.2656  1.7897
   25MOL0     H 3346  -1.369  10.780   7.627 -0.5128  0.7750  0.6053
   25MOL0     H 3347  -1.273  10.744   7.918 -0.8636 -1.9153  0.5925
   25MOL0     H 3348  -1.357  10.886   7.862 -2.4979 -1.2652  3.1075
   25MOL0     H 3349  -1.553  10.760   7.800  0.8576 -1.7926 -1.8592
   25MOL0     H 3350  -1.518  10.772   7.970  3.6322  1.6327 -0.2256
   25MOL0     H 3351  -1.470  10.535   7.782 -2.3551  1.4279 -2.3869
   25MOL0     H 3352  -1.446  10.533   7.957  2.4211 -0.0483 -2.7548
   25MOL0     H 3353  -1.702  10.542   7.791  2.1945 -1.8924 -0.6993
   25MOL0     H 3354  -1.707  10.605   7.960  0.3568  1.4479 -1.0617
   25MOL0     H 3355  -1.633  10.321   7.892  0.1001 -1.9664  2.0819
   25MOL0     H 3356  -1.788  10.369   7.939  0.5173 -1.3762  0.6865
   25MOL0     H 3357  -0.965  10.634   7.332  0.0324  2.9770  0.1458
   25MOL0     H 3358  -0.741  10.569   7.209  2.4268 -0.1781  0.7276
   25MOL0     H 3359  -0.214  10.474   7.393  0.3818 -0.0652 -0.4207
   25MOL0     H 3360  -0.029  10.396   7.294 -0.0765  1.3222  0.8066
   25MOL0     H 3361   1.922  10.134   7.358 -3.0745 -0.6406  0.4616
   25MOL0     H 3362   2.121  10.053   7.397  1.5404 -2.4439 -0.0274
   25MOL0     H 3363   2.502   9.899   7.318 -0.0691  0.8463  3.2049
   25MOL0     H 3364   2.741   9.818   7.371  0.6771 -0.7009 -0.4207
   25MOL0     H 3365   2.954   9.459   7.487  1.0384  3.5610 -0.6822
   25MOL0     H 3366   2.792   9.402   7.497 -0.2790  0.4289 -1.3510
   25MOL0     H 3367   2.819   9.444   7.222 -0.3016  4.0332  2.5914
   25MOL0     H 3368   2.831   9.291   7.295  0.0679  0.9637 -0.5209
   25MOL0     H 3369   3.064   9.291   7.312 -0.9804  0.2761  1.2359
   25MOL0     H 3370   3.078   9.465   7.328  1.3694 -0.3775 -0.5696
   25MOL0     H 3371   3.042   9.492   7.085  3.6887  1.7373  0.8180
   25MOL0     H 3372   2.999   9.321   7.068  0.4715 -0.1631  0.7217
   25MOL0     H 3373   3.406   9.365   6.997  0.3365 -0.8961  0.9297
   25MOL0     H 3374   2.589   9.415   7.429 -1.2766  0.9259  0.9744
   25MOL0     H 3375   2.378   9.485   7.362 -0.0155 -0.7364  0.9770
   26MOL0     O 3376   7.739  10.560  10.805  0.2045 -0.0157  0.2814
   26MOL0     C 3377   7.742  10.536  10.687 -0.2499  1.0338  0.1606
   26MOL0     O 3378   7.634  10.494  10.608 -0.4446  0.0937  0.1407
   26MOL0     C 3379   7.510  10.517  10.660  0.1313  0.8148  0.5024
   26MOL0     C 3380   7.448  10.644  10.651 -0.4465 -0.4952 -0.3752
   26MOL0     C 3381   7.319  10.656  10.702  0.6779  0.1661  0.2193
   26MOL0     C 3382   7.250  10.554  10.766 -0.1295 -0.3750 -0.9688
   26MOL0     O 3383   7.141  10.567  10.844 -0.2200  0.9440 -0.1976
   26MOL0     C 3384   7.040  10.665  10.807 -0.7963  0.0593  0.9472
   26MOL0     C 3385   6.908  10.615  10.874  1.1136 -1.3511  0.3993
   26MOL0     C 3386   6.798  10.721  10.872  0.0084 -0.4845 -0.1833
   26MOL0     C 3387   6.669  10.679  10.934 -0.6238 -0.4133  0.1034
   26MOL0     C 3388   6.560  10.783  10.913  1.0062 -0.4664 -0.6175
   26MOL0     C 3389   6.432  10.740  10.988 -0.3017 -0.5490 -0.0708
   26MOL0     C 3390   6.316  10.835  10.962  0.6908 -0.1078  0.2469
   26MOL0     C 3391   6.267  10.853  10.814 -0.1807  0.4309 -1.2527
   26MOL0     N 3392   6.141  10.920  10.821 -0.2147  0.1179  0.2969
   26MOL0     C 3393   6.025  10.855  10.861 -0.7756  0.6121  0.0110
   26MOL0     C 3394   5.928  10.946  10.857 -0.7369 -0.4921 -0.8732
   26MOL0     C 3395   5.796  10.920  10.911 -0.1035 -0.2442  0.6582
   26MOL0     C 3396   5.694  10.950  10.793  0.0060 -0.4812 -0.6991
   26MOL0     C 3397   5.544  10.914  10.817  0.0450 -0.6010 -1.3051
   26MOL0     C 3398   5.501  10.999  10.934 -0.0001 -0.1067 -0.8253
   26MOL0     O 3399   5.357  11.001  10.934 -0.3175  0.3492  0.2215
   26MOL0     C 3400   5.290  10.898  11.000 -0.4602 -0.4974  0.2385
   26MOL0     C 3401   5.347  10.777  11.040 -0.1447  0.4563 -0.1924
   26MOL0     C 3402   5.272  10.682  11.103 -0.0633  0.3593 -0.2281
   26MOL0     C 3403   5.349  10.552  11.140 -0.6947 -0.4107  0.4206
   26MOL0     C 3404   5.139  10.701  11.132 -0.2394  0.3219 -0.2050
   26MOL0     C 3405   5.058  10.603  11.205  0.6246 -0.0981  0.0902
   26MOL0     O 3406   4.988  10.661  11.306  0.3225 -0.2580 -0.9601
   26MOL0     C 3407   4.975  10.587  11.421 -0.5817 -0.1210 -0.1013
   26MOL0     C 3408   5.045  10.623  11.541 -0.9282 -0.4381  0.0916
   26MOL0     C 3409   5.029  10.541  11.659 -0.8274  0.4782  0.4333
   26MOL0     C 3410   4.940  10.431  11.661 -0.2170  0.0304  0.6289
   26MOL0     O 3411   4.929  10.357  11.776 -1.0714 -0.1073 -0.3618
   26MOL0     C 3412   4.818  10.267  11.782  0.0962 -0.4709 -0.5903
   26MOL0     C 3413   4.814  10.217  11.931  0.0736  0.0605 -0.1851
   26MOL0     C 3414   4.743  10.302  12.035  0.2756 -0.5044  0.1092
   26MOL0     C 3415   4.589  10.289  12.021 -0.3966  1.0024  0.1172
   26MOL0     C 3416   4.521  10.403  12.087 -0.2311 -0.4958  0.0604
   26MOL0     C 3417   4.365  10.395  12.080 -0.2358  0.7893 -0.0421
   26MOL0     C 3418   4.298  10.525  12.120  0.6862 -0.1518 -0.0279
   26MOL0     C 3419   4.150  10.514  12.086 -0.2344  0.4041  0.9466
   26MOL0    Cl 3420   4.058  10.671  12.102 -0.3644  0.3830  0.1218
   26MOL0     C 3421   4.882  10.398  11.543 -0.0163 -0.5685 -0.7845
   26MOL0     C 3422   4.894  10.473  11.424 -0.0386 -0.7034 -0.5844
   26MOL0     O 3423   5.042  10.489  11.165  0.0032  0.4829 -0.1094
   26MOL0     C 3424   5.079  10.826  11.104 -0.4255  0.6136 -0.7288
   26MOL0     C 3425   5.156  10.922  11.039 -0.0423 -0.6509  0.7241
   26MOL0     N 3426   5.991  11.066  10.817  0.9716 -0.0562  0.0124
   26MOL0     N 3427   6.117  11.052  10.801 -0.0765 -0.3133 -0.8998
   26MOL0     C 3428   7.310  10.427  10.763 -0.0004  0.2055  0.4152
   26MOL0     C 3429   7.440  10.407  10.714 -0.3484 -0.0199  0.8205
   26MOL0     C 3430   7.862  10.568  10.605 -1.4781  0.2241  0.0365
   26MOL0     C 3431   7.990  10.582  10.658  0.5057  0.0589 -0.8744
   26MOL0     C 3432   8.110  10.607  10.598  0.1095 -0.8473 -0.0264
   26MOL0     C 3433   8.110  10.617  10.457  0.4763  0.0531  0.0782
   26MOL0     O 3434   8.231  10.622  10.393 -0.2896  0.1556  0.1716
   26MOL0     C 3435   8.229  10.639  10.256  1.3877 -0.4469  0.3961
   26MOL0     C 3436   8.364  10.623  10.190  0.1739 -0.0403 -0.1293
   26MOL0     C 3437   8.473  10.705  10.266  0.2190  0.3183 -0.3747
   26MOL0     C 3438   8.599  10.725  10.186 -0.4543 -0.8864 -0.1715
   26MOL0     C 3439   8.663  10.604  10.150 -0.2607  0.4478  0.6592
   26MOL0     C 3440   8.708  10.495  10.150 -0.4738 -0.5564 -0.0326
   26MOL0     C 3441   7.986  10.599  10.385  0.9087  0.6583 -0.0977
   26MOL0     C 3442   7.868  10.583  10.466  1.1637 -0.4288 -0.9965
   26MOL0     H 3443   7.498  10.729  10.605 -0.9694 -0.3435 -0.6774
   26MOL0     H 3444   7.267  10.749  10.686  0.3423 -0.1877 -0.8242
   26MOL0     H 3445   7.065  10.762  10.851  2.5081 -0.3982  0.3766
   26MOL0     H 3446   7.035  10.683  10.699 -1.9434  0.1104  1.0022
   26MOL0     H 3447   6.874  10.525  10.823  3.2279 -1.1317 -1.6020
   26MOL0     H 3448   6.931  10.593  10.978  0.9870 -1.9308  0.3044
   26MOL0     H 3449   6.840  10.807  10.924  2.0941 -0.6549 -1.4648
   26MOL0     H 3450   6.780  10.747  10.767  4.6825  1.2794 -0.8006
   26MOL0     H 3451   6.634  10.581  10.899  0.7598 -1.3373  1.1754
   26MOL0     H 3452   6.692  10.650  11.037 -0.7946 -2.0298 -0.2900
   26MOL0     H 3453   6.582  10.887  10.937  0.4339 -0.7498  1.3797
   26MOL0     H 3454   6.536  10.783  10.807 -1.3893 -4.0180 -0.2716
   26MOL0     H 3455   6.404  10.639  10.955 -0.5466 -0.6498  0.4433
   26MOL0     H 3456   6.461  10.733  11.093 -2.1856 -0.9275  0.4519
   26MOL0     H 3457   6.233  10.779  11.007  2.8086 -5.2835 -1.5790
   26MOL0     H 3458   6.342  10.933  11.004 -1.0558 -0.4538  2.3156
   26MOL0     H 3459   6.256  10.760  10.758  0.0905 -1.5662  1.7752
   26MOL0     H 3460   6.346  10.912  10.766  3.0176 -1.0987  1.6961
   26MOL0     H 3461   6.018  10.752  10.894 -3.3784 -0.3689 -3.0041
   26MOL0     H 3462   5.777  10.814  10.933  0.5741 -0.5028  0.0219
   26MOL0     H 3463   5.791  10.989  10.996  0.3886  0.2311  0.2966
   26MOL0     H 3464   5.733  10.899  10.705 -1.6768 -0.6124 -1.4022
   26MOL0     H 3465   5.686  11.054  10.760 -4.1050 -0.4846 -0.2029
   26MOL0     H 3466   5.527  10.810  10.845 -2.4312 -0.2257 -1.1879
   26MOL0     H 3467   5.486  10.937  10.727 -1.0426 -1.3224 -0.8121
   26MOL0     H 3468   5.529  11.103  10.917  1.8823 -0.2954  0.6320
   26MOL0     H 3469   5.546  10.969  11.030  0.2675  2.6884  0.0041
   26MOL0     H 3470   5.451  10.753  11.018 -0.9276 -1.5234 -1.9665
   26MOL0     H 3471   5.284  10.464  11.131  0.9351 -1.4644 -2.2266
   26MOL0     H 3472   5.427  10.529  11.066  1.5633 -0.2375  2.6090
   26MOL0     H 3473   5.400  10.554  11.237  0.2242 -1.4865 -0.0139
   26MOL0     H 3474   5.105  10.713  11.537 -2.8957  0.9801 -4.3753
   26MOL0     H 3475   5.086  10.552  11.751  1.8762 -0.8587 -0.9866
   26MOL0     H 3476   4.723  10.318  11.761  1.1241  1.5644 -0.5525
   26MOL0     H 3477   4.824  10.177  11.721 -1.0721 -1.1464  0.2562
   26MOL0     H 3478   4.773  10.115  11.925  1.1208 -0.3168 -1.6327
   26MOL0     H 3479   4.919  10.211  11.962 -0.2533  1.0642  1.2400
   26MOL0     H 3480   4.768  10.406  12.011  0.4191 -1.1817 -3.1084
   26MOL0     H 3481   4.779  10.274  12.135 -0.0648  0.0823  0.4052
   26MOL0     H 3482   4.562  10.280  11.915 -0.2471 -0.0820  0.1566
   26MOL0     H 3483   4.559  10.195  12.069 -1.7015  0.4812 -1.6003
   26MOL0     H 3484   4.553  10.493  12.035 -0.5844 -0.8666 -0.8204
   26MOL0     H 3485   4.554  10.408  12.191 -1.1489 -0.4378  0.3556
   26MOL0     H 3486   4.349  10.380  11.972  1.4095 -0.1966 -0.1821
   26MOL0     H 3487   4.338  10.306  12.137  0.5098 -0.2690 -1.2919
   26MOL0     H 3488   4.341  10.597  12.050 -0.3609  2.3855  1.7825
   26MOL0     H 3489   4.316  10.552  12.224 -1.7952  0.3490  0.3418
   26MOL0     H 3490   4.111  10.435  12.151  3.5743 -2.4855  0.0663
   26MOL0     H 3491   4.145  10.493  11.979 -1.7169 -0.5149  1.1698
   26MOL0     H 3492   4.819  10.309  11.543 -1.2604  0.2729 -1.7147
   26MOL0     H 3493   4.831  10.451  11.338 -0.8566  1.1139 -0.5021
   26MOL0     H 3494   4.974  10.841  11.127 -0.5234 -0.4804 -0.3999
   26MOL0     H 3495   5.125  11.023  11.012 -1.0894 -1.1504  0.0095
   26MOL0     H 3496   7.264  10.338  10.805  0.8641 -0.9336 -0.9409
   26MOL0     H 3497   7.492  10.312  10.716  1.9805  1.1736  0.2251
   26MOL0     H 3498   8.003  10.567  10.765 -0.9499  0.7740 -0.5720
   26MOL0     H 3499   8.197  10.629  10.658 -0.6296 -0.2827  0.8557
   26MOL0     H 3500   8.162  10.566  10.208  1.4243 -0.8006  0.8797
   26MOL0     H 3501   8.194  10.741  10.238  1.3365 -0.3587  0.9948
   26MOL0     H 3502   8.361  10.652  10.084 -2.7257  0.7072  0.0868
   26MOL0     H 3503   8.383  10.515  10.186  0.7346  0.0810 -2.6950
   26MOL0     H 3504   8.494  10.639  10.351 -1.0171  0.1705 -0.1714
   26MOL0     H 3505   8.422  10.796  10.297 -0.7654 -0.4881  0.4586
   26MOL0     H 3506   8.673  10.783  10.243  2.4074 -4.8978  0.5925
   26MOL0     H 3507   8.581  10.778  10.092  3.1429 -1.9902 -1.6429
   26MOL0     H 3508   8.755  10.399  10.160 -0.0699 -0.4286 -0.6058
   26MOL0     H 3509   7.964  10.593  10.279 -0.4696  0.6938  0.1627
   26MOL0     H 3510   7.785  10.584  10.396 -0.3225 -0.8117  0.6900
   27MOL0     O 3511   3.986  10.469   6.110  0.3544 -0.6019 -0.3972
   27MOL0     C 3512   4.017  10.378   6.186 -0.8205 -0.1948 -0.0558
   27MOL0     O 3513   3.941  10.332   6.288 -0.1564  0.3392 -0.1935
   27MOL0     C 3514   3.809  10.356   6.288 -0.4620  0.1923 -0.1366
   27MOL0     C 3515   3.724  10.248   6.286 -0.6068  0.8234 -0.2235
   27MOL0     C 3516   3.587  10.262   6.287  0.3413 -0.2164  0.2496
   27MOL0     C 3517   3.522  10.380   6.292 -0.1274 -0.6117  0.0993
   27MOL0     O 3518   3.386  10.382   6.266 -0.6424 -0.8479  0.7381
   27MOL0     C 3519   3.313  10.494   6.323  0.2876  0.2299  0.6791
   27MOL0     C 3520   3.169  10.445   6.329 -0.0082  0.3980 -0.7428
   27MOL0     C 3521   3.077  10.557   6.316  0.6475  0.9503 -0.3897
   27MOL0     C 3522   2.935  10.511   6.302  0.5288  0.4292  0.5512
   27MOL0     C 3523   2.837  10.624   6.290 -0.4054  0.8209  0.4352
   27MOL0     C 3524   2.693  10.577   6.279  0.0505  0.1419 -0.7190
   27MOL0     C 3525   2.585  10.687   6.254 -0.0975  0.1896  0.2268
   27MOL0     C 3526   2.534  10.763   6.376  0.7828  0.1945  0.1349
   27MOL0     N 3527   2.599  10.884   6.430  0.5081 -0.6553  0.0250
   27MOL0     C 3528   2.675  10.964   6.359  0.8037 -0.6330 -0.4889
   27MOL0     C 3529   2.747  11.036   6.456 -0.0564 -0.5291 -0.3949
   27MOL0     C 3530   2.864  11.124   6.417  0.4337  0.0913  0.2047
   27MOL0     C 3531   2.979  11.046   6.342 -0.2257 -0.6150 -0.2986
   27MOL0     C 3532   3.049  10.953   6.448 -0.1743  0.7416  0.4625
   27MOL0     C 3533   3.176  10.892   6.378 -0.4229 -0.4049 -0.3861
   27MOL0     O 3534   3.260  11.005   6.356 -0.3676  0.4998 -0.1010
   27MOL0     C 3535   3.358  11.024   6.448  0.1260 -0.7946  0.4982
   27MOL0     C 3536   3.362  11.147   6.515  0.3585 -0.2271 -0.6025
   27MOL0     C 3537   3.466  11.186   6.595 -0.0491 -1.0659 -0.6483
   27MOL0     C 3538   3.449  11.313   6.681  0.2944 -1.1439 -0.7418
   27MOL0     C 3539   3.579  11.101   6.597  0.7694 -0.5596 -0.1545
   27MOL0     C 3540   3.711  11.132   6.669 -0.3756 -1.0442  0.0307
   27MOL0     O 3541   3.808  11.036   6.649 -0.7057 -0.4901  0.1989
   27MOL0     C 3542   3.932  11.081   6.679  0.1292 -0.7941 -0.5753
   27MOL0     C 3543   4.013  11.018   6.773 -0.3284 -0.8760 -0.0984
   27MOL0     C 3544   4.151  11.057   6.789  0.8320 -0.3271 -0.3295
   27MOL0     C 3545   4.208  11.160   6.710 -0.0962  0.8854 -0.2352
   27MOL0     O 3546   4.340  11.193   6.711 -0.2870 -0.5860 -0.0959
   27MOL0     C 3547   4.438  11.124   6.796  0.2781  0.2698 -0.1013
   27MOL0     C 3548   4.483  10.994   6.736 -0.5351  0.7640  0.1085
   27MOL0     C 3549   4.607  10.928   6.804  0.3947  0.0401  0.1339
   27MOL0     C 3550   4.594  10.851   6.935 -0.1231 -0.4947 -0.1914
   27MOL0     C 3551   4.717  10.769   6.976  0.5055  0.5449  0.5348
   27MOL0     C 3552   4.855  10.830   6.948  0.6025 -0.0283  0.2912
   27MOL0     C 3553   4.975  10.750   6.990  0.1381 -1.1380  0.1250
   27MOL0     C 3554   5.081  10.864   7.015  0.1774  0.5123  0.8446
   27MOL0    Cl 3555   5.242  10.800   7.085 -0.2757  0.0065 -0.2007
   27MOL0     C 3556   4.116  11.236   6.639 -0.1423  0.0150 -0.4870
   27MOL0     C 3557   3.983  11.199   6.622  0.1458 -0.2489  0.1563
   27MOL0     O 3558   3.725  11.227   6.742 -0.0468  0.5139  0.6805
   27MOL0     C 3559   3.571  10.979   6.533  0.0497  0.5954 -0.8378
   27MOL0     C 3560   3.462  10.938   6.458 -1.4989  0.0459 -0.4564
   27MOL0     N 3561   2.695  11.009   6.574 -0.1022 -0.3452  0.1280
   27MOL0     N 3562   2.615  10.910   6.560  0.5446  0.0529 -0.0419
   27MOL0     C 3563   3.607  10.497   6.309  0.5565  0.2948  0.3230
   27MOL0     C 3564   3.745  10.477   6.304  0.7711 -0.5470  0.1324
   27MOL0     C 3565   4.167  10.348   6.183 -0.5652 -0.5722  0.3478
   27MOL0     C 3566   4.253  10.427   6.103  0.0502 -0.3343 -0.6986
   27MOL0     C 3567   4.388  10.424   6.128  1.3457  0.7034  0.0896
   27MOL0     C 3568   4.446  10.321   6.203 -0.1138 -0.1499 -0.5491
   27MOL0     O 3569   4.581  10.309   6.235  0.4789  0.3472 -0.3976
   27MOL0     C 3570   4.672  10.382   6.154  0.5045 -0.4949 -0.0350
   27MOL0     C 3571   4.809  10.311   6.165  0.5194 -0.1273 -0.4339
   27MOL0     C 3572   4.884  10.367   6.286 -0.9775  0.1733 -0.2717
   27MOL0     C 3573   4.999  10.271   6.326  0.0995  0.2376  0.6843
   27MOL0     C 3574   5.089  10.336   6.421  0.4672 -0.4847 -0.3219
   27MOL0     C 3575   5.171  10.383   6.495 -0.2866 -0.1707 -0.0532
   27MOL0     C 3576   4.363  10.227   6.264  0.1927 -0.7034  0.0667
   27MOL0     C 3577   4.223  10.254   6.266  0.2148  0.2395  0.5529
   27MOL0     H 3578   3.770  10.150   6.279 -2.0277  0.2572 -2.7530
   27MOL0     H 3579   3.528  10.171   6.279 -0.1956 -0.0071  1.5401
   27MOL0     H 3580   3.353  10.523   6.420  1.9085 -0.7069  0.3208
   27MOL0     H 3581   3.322  10.580   6.256 -1.1537  0.8731  1.2682
   27MOL0     H 3582   3.153  10.365   6.257  0.8564 -2.9022  2.4485
   27MOL0     H 3583   3.152  10.407   6.430 -0.5276  2.4104 -0.0181
   27MOL0     H 3584   3.082  10.614   6.409  0.8243 -2.7328  2.0575
   27MOL0     H 3585   3.102  10.621   6.231 -2.6199  0.5688 -1.8229
   27MOL0     H 3586   2.923  10.464   6.204  1.3969  1.7838 -0.2499
   27MOL0     H 3587   2.910  10.437   6.378  1.0445 -1.4023 -0.9941
   27MOL0     H 3588   2.851  10.691   6.376 -0.5640  0.6705  0.5806
   27MOL0     H 3589   2.852  10.698   6.211 -1.5309  1.1758  0.5328
   27MOL0     H 3590   2.686  10.508   6.195 -2.4654  0.0135 -0.4818
   27MOL0     H 3591   2.678  10.520   6.371 -1.7993  0.8917 -0.5118
   27MOL0     H 3592   2.625  10.764   6.188  1.4289  0.7816  1.7534
   27MOL0     H 3593   2.498  10.634   6.215 -2.2412  0.5728  3.9975
   27MOL0     H 3594   2.529  10.700   6.465  1.3090 -0.3792 -0.2398
   27MOL0     H 3595   2.436  10.792   6.336  0.7200 -0.0775  0.0884
   27MOL0     H 3596   2.696  10.967   6.252  1.4089 -2.1588 -0.4353
   27MOL0     H 3597   2.831  11.206   6.352 -1.7483  0.7955  2.1022
   27MOL0     H 3598   2.906  11.168   6.508 -0.3574  1.5818 -0.1232
   27MOL0     H 3599   3.054  11.105   6.288 -1.5343  0.4585 -0.9872
   27MOL0     H 3600   2.930  10.984   6.266  0.0494 -1.7555  0.4296
   27MOL0     H 3601   2.983  10.868   6.472  0.9928 -1.1061 -2.3169
   27MOL0     H 3602   3.080  11.008   6.537  0.6392 -0.4645  0.9597
   27MOL0     H 3603   3.146  10.852   6.281  0.7310 -1.0476 -0.4941
   27MOL0     H 3604   3.221  10.812   6.438  1.6692  1.1823  0.3059
   27MOL0     H 3605   3.285  11.215   6.480 -0.2310  0.1371  1.2738
   27MOL0     H 3606   3.470  11.313   6.788  0.4986  3.2294 -0.6308
   27MOL0     H 3607   3.523  11.385   6.645  0.4974 -0.2077  1.4363
   27MOL0     H 3608   3.352  11.361   6.667  0.9108  0.9169  1.4454
   27MOL0     H 3609   3.962  10.940   6.828 -0.1842 -0.2862  0.8959
   27MOL0     H 3610   4.198  11.011   6.876  0.8335  0.7672  0.2617
   27MOL0     H 3611   4.529  11.185   6.799 -2.1417  4.2631 -0.1805
   27MOL0     H 3612   4.394  11.116   6.895 -3.9880  0.7011 -1.7626
   27MOL0     H 3613   4.401  10.923   6.742  0.5221 -0.5392 -0.3213
   27MOL0     H 3614   4.508  11.012   6.631 -1.8556 -0.8338 -0.5200
   27MOL0     H 3615   4.677  11.006   6.835 -0.3999  0.1091  1.8862
   27MOL0     H 3616   4.664  10.869   6.732  0.3651  0.0334  0.1163
   27MOL0     H 3617   4.578  10.926   7.013 -0.8557  1.4707 -2.1355
   27MOL0     H 3618   4.503  10.791   6.928  0.4012 -1.3747  0.2273
   27MOL0     H 3619   4.713  10.678   6.916 -2.4675  0.6394  0.4039
   27MOL0     H 3620   4.704  10.741   7.082  1.7099 -0.8871  0.3327
   27MOL0     H 3621   4.856  10.853   6.841  0.8137  0.5353  0.4119
   27MOL0     H 3622   4.849  10.921   7.009  0.9212 -0.0701  0.3885
   27MOL0     H 3623   5.001  10.676   6.913 -1.2267  2.0057 -3.6800
   27MOL0     H 3624   4.956  10.706   7.088  2.8368  1.1739  1.8373
   27MOL0     H 3625   5.033  10.943   7.073 -2.5583  0.3455 -1.0195
   27MOL0     H 3626   5.102  10.909   6.918 -0.8544  0.3863  0.5485
   27MOL0     H 3627   4.161  11.327   6.600 -0.6969  1.9836  3.0344
   27MOL0     H 3628   3.910  11.254   6.563 -1.4568  1.8408  3.7485
   27MOL0     H 3629   3.653  10.908   6.530 -0.6703 -0.2950 -0.1284
   27MOL0     H 3630   3.471  10.855   6.388 -1.3395  1.4507 -2.1832
   27MOL0     H 3631   3.559  10.593   6.329 -3.0417 -1.2185 -0.1943
   27MOL0     H 3632   3.808  10.562   6.329 -1.9141  1.0198  2.0519
   27MOL0     H 3633   4.213  10.505   6.040 -1.1094 -0.0318  0.3701
   27MOL0     H 3634   4.453  10.489   6.070 -2.6806  3.0137 -2.3037
   27MOL0     H 3635   4.643  10.374   6.049 -0.0168 -1.1365  0.1483
   27MOL0     H 3636   4.690  10.487   6.178 -0.2055 -0.8070  2.0701
   27MOL0     H 3637   4.873  10.320   6.077 -0.3577 -0.6248 -1.1443
   27MOL0     H 3638   4.788  10.204   6.172 -1.3168  0.3316  3.0304
   27MOL0     H 3639   4.811  10.377   6.368  0.8848 -0.9256  1.6311
   27MOL0     H 3640   4.921  10.465   6.256 -1.5784  0.4604 -0.0979
   27MOL0     H 3641   5.044  10.218   6.242 -1.7725 -2.0389  1.0038
   27MOL0     H 3642   4.946  10.197   6.388  0.9250 -1.6007 -0.7217
   27MOL0     H 3643   5.248  10.423   6.558 -1.4096  2.3588 -0.1412
   27MOL0     H 3644   4.409  10.150   6.325 -0.3715 -0.6012  0.6352
   27MOL0     H 3645   4.162  10.189   6.328  0.7867 -1.7819 -0.9062
   28MOL0     O 3646   1.767   1.358   0.040 -0.9243 -0.2760  0.3068
   28MOL0     C 3647   1.740   1.349   0.155 -0.6842  0.1856 -0.6795
   28MOL0     O 3648   1.744   1.234   0.235  0.3883 -0.1737 -0.1740
   28MOL0     C 3649   1.757   1.114   0.170  0.5130  0.3283  0.0819
   28MOL0     C 3650   1.697   1.078   0.055  0.2803 -0.8797  0.7664
   28MOL0     C 3651   1.712   0.947  -0.011 -0.2736  0.4250 -0.0462
   28MOL0     C 3652   1.799   0.858   0.050  0.0330  0.5874 -0.3243
   28MOL0     O 3653   1.825   0.733   0.009 -0.4788  0.5031 -1.2738
   28MOL0     C 3654   1.726   0.662  -0.069  0.2479 -0.3101 -0.4962
   28MOL0     C 3655   1.767   0.515  -0.083  0.0604 -0.1795 -0.2415
   28MOL0     C 3656   1.655   0.416  -0.117  0.0361  0.2363 -0.4703
   28MOL0     C 3657   1.558   0.379  -0.008 -0.4098  0.6315 -0.1252
   28MOL0     C 3658   1.464   0.272  -0.061  0.6111 -0.8957  0.3848
   28MOL0     C 3659   1.359   0.244   0.039 -0.5427 -0.3925  0.3778
   28MOL0     C 3660   1.258   0.146  -0.023 -0.4051  0.1796 -0.0179
   28MOL0     C 3661   1.132   0.114   0.058  0.9526 -0.1313 -0.4511
   28MOL0     N 3662   1.059   0.241   0.081 -0.0237 -0.4725 -0.5224
   28MOL0     C 3663   0.984   0.271   0.191 -1.4887 -0.6406  0.0140
   28MOL0     C 3664   0.910   0.379   0.161 -0.5508  0.3376  1.1515
   28MOL0     C 3665   0.800   0.431   0.248 -0.2307  0.2979 -0.6126
   28MOL0     C 3666   0.657   0.424   0.179  0.2548  0.6530 -0.7514
   28MOL0     C 3667   0.551   0.381   0.288  0.5808  0.0198  0.3225
   28MOL0     C 3668   0.410   0.361   0.231 -0.7052 -0.4131 -0.6445
   28MOL0     O 3669   0.332   0.339   0.344 -0.4987 -0.4182  0.1155
   28MOL0     C 3670   0.211   0.283   0.325 -0.5373  0.3305 -0.5759
   28MOL0     C 3671   0.129   0.342   0.226 -0.5942 -0.5046 -0.1522
   28MOL0     C 3672  -0.009   0.308   0.200 -0.3128  0.1390 -0.0772
   28MOL0     C 3673  -0.087   0.383   0.099  0.2416  0.1870 -0.2687
   28MOL0     C 3674  -0.063   0.204   0.268 -0.4725  0.1715  0.5353
   28MOL0     C 3675  -0.199   0.142   0.242 -0.2888  0.3559 -0.0561
   28MOL0     O 3676  -0.252   0.135   0.120 -0.1254  0.0438  0.0416
   28MOL0     C 3677  -0.372   0.078   0.097 -0.3740  1.0667  0.8365
   28MOL0     C 3678  -0.389  -0.066   0.128 -0.6461 -0.6952  0.3476
   28MOL0     C 3679  -0.516  -0.119   0.103  0.7868  0.2796 -0.1709
   28MOL0     C 3680  -0.614  -0.040   0.040 -0.1807  0.6566 -0.1460
   28MOL0     O 3681  -0.732  -0.105   0.025  0.3245  0.7217 -0.2595
   28MOL0     C 3682  -0.850  -0.031  -0.005  0.3321  0.2050 -0.8397
   28MOL0     C 3683  -0.971  -0.128   0.005  0.5889  0.5236 -1.6976
   28MOL0     C 3684  -1.006  -0.174   0.153 -0.7364 -0.4538  0.2543
   28MOL0     C 3685  -1.065  -0.072   0.248 -0.3579  0.2053 -0.0812
   28MOL0     C 3686  -1.056  -0.133   0.390 -0.2252  0.4431  1.5411
   28MOL0     C 3687  -1.153  -0.238   0.415  0.2411 -0.0796  0.1692
   28MOL0     C 3688  -1.132  -0.289   0.565  0.7237 -0.0739  0.0550
   28MOL0     C 3689  -1.232  -0.386   0.612 -0.4518 -0.5966 -0.4727
   28MOL0    Cl 3690  -1.176  -0.544   0.546 -0.2208  0.5099 -0.2161
   28MOL0     C 3691  -0.591   0.097   0.016 -0.0999 -0.7784  0.0639
   28MOL0     C 3692  -0.470   0.155   0.048  0.6733  0.2021  0.1252
   28MOL0     O 3693  -0.249   0.094   0.341  0.7520 -0.2684  0.5422
   28MOL0     C 3694   0.013   0.149   0.375 -0.2019 -0.1964 -0.0377
   28MOL0     C 3695   0.144   0.191   0.407 -1.0003 -0.6504 -0.1425
   28MOL0     N 3696   0.945   0.413   0.032  0.6760 -0.3773  0.3650
   28MOL0     N 3697   1.028   0.332  -0.017 -1.4778  0.6389  0.1236
   28MOL0     C 3698   1.850   0.895   0.174  0.1308  0.0988 -0.4260
   28MOL0     C 3699   1.824   1.017   0.232 -1.5119  0.1733 -0.9975
   28MOL0     C 3700   1.693   1.472   0.221  1.0879  0.6359 -0.1684
   28MOL0     C 3701   1.717   1.597   0.175  0.2476  0.0355  0.0695
   28MOL0     C 3702   1.663   1.704   0.243  0.1709 -0.3399 -0.4740
   28MOL0     C 3703   1.578   1.688   0.356  0.6052  0.7685 -0.2310
   28MOL0     O 3704   1.526   1.797   0.432 -0.2834  0.2333  0.7353
   28MOL0     C 3705   1.464   1.901   0.354 -0.2268 -0.5192  0.5740
   28MOL0     C 3706   1.314   1.864   0.328  0.1548 -0.1306 -0.5337
   28MOL0     C 3707   1.238   1.854   0.463  0.1800  0.2730 -0.0893
   28MOL0     C 3708   1.092   1.800   0.439 -0.3138  0.3310 -0.6066
   28MOL0     C 3709   0.996   1.906   0.473  0.4797  0.4297  0.4027
   28MOL0     C 3710   0.934   2.003   0.506  0.1736 -0.4555 -0.9154
   28MOL0     C 3711   1.549   1.560   0.403  0.0911  0.9503  0.1828
   28MOL0     C 3712   1.612   1.450   0.336  0.5503 -0.2621 -0.0441
   28MOL0     H 3713   1.637   1.148  -0.004 -0.3371 -1.1286  1.0879
   28MOL0     H 3714   1.668   0.917  -0.106  0.2779  0.4205 -0.3041
   28MOL0     H 3715   1.627   0.669  -0.024  0.5768  1.2423  0.0653
   28MOL0     H 3716   1.725   0.696  -0.174 -1.8807  0.7252 -0.1829
   28MOL0     H 3717   1.837   0.504  -0.166 -1.2311  2.8362 -1.8961
   28MOL0     H 3718   1.818   0.497   0.012 -1.3695 -0.8001  0.4380
   28MOL0     H 3719   1.599   0.459  -0.200 -0.0269  0.5763 -0.2555
   28MOL0     H 3720   1.704   0.325  -0.150 -1.0808 -0.4059 -0.3939
   28MOL0     H 3721   1.617   0.345   0.078  1.7283 -0.4718 -1.9149
   28MOL0     H 3722   1.502   0.471   0.012  0.0624  0.8598  0.1544
   28MOL0     H 3723   1.417   0.301  -0.155 -1.7648 -2.1368  1.0916
   28MOL0     H 3724   1.507   0.173  -0.077 -0.2871 -1.3134  0.5174
   28MOL0     H 3725   1.405   0.205   0.130  0.3993  1.1456  0.5946
   28MOL0     H 3726   1.299   0.334   0.056 -0.2497 -0.1628  0.2097
   28MOL0     H 3727   1.232   0.184  -0.122 -0.3405  0.3025  0.0128
   28MOL0     H 3728   1.308   0.051  -0.043  1.1793  1.0800 -0.4652
   28MOL0     H 3729   1.162   0.065   0.151 -0.0321 -1.4666 -0.8119
   28MOL0     H 3730   1.066   0.041   0.012  1.3256 -1.3953  0.9677
   28MOL0     H 3731   0.990   0.220   0.287  2.6098 -3.7836 -1.5908
   28MOL0     H 3732   0.795   0.364   0.335 -2.4532 -0.5862 -1.3578
   28MOL0     H 3733   0.839   0.528   0.281  1.0898  0.6873 -3.0736
   28MOL0     H 3734   0.654   0.347   0.101 -0.4852 -0.0895 -0.0053
   28MOL0     H 3735   0.628   0.514   0.124  0.8256  0.6815 -1.0093
   28MOL0     H 3736   0.557   0.461   0.362 -1.6858  1.6101 -1.0630
   28MOL0     H 3737   0.579   0.291   0.344 -0.5888  0.6263  1.9510
   28MOL0     H 3738   0.398   0.272   0.168 -1.2294 -0.4411 -0.5108
   28MOL0     H 3739   0.397   0.451   0.170 -1.4430 -0.5748 -0.7360
   28MOL0     H 3740   0.169   0.421   0.163 -2.3272  0.0663 -0.5820
   28MOL0     H 3741  -0.095   0.329   0.004 -2.7273  1.0215 -0.5882
   28MOL0     H 3742  -0.187   0.405   0.137  0.2713 -1.5333  0.8914
   28MOL0     H 3743  -0.036   0.477   0.076 -0.3385  0.6169  0.1762
   28MOL0     H 3744  -0.301  -0.121   0.159 -0.7338  0.2132  2.3635
   28MOL0     H 3745  -0.541  -0.223   0.119 -1.5876  0.8840  0.3669
   28MOL0     H 3746  -0.849   0.054   0.063 -0.9094  0.8285 -1.5677
   28MOL0     H 3747  -0.850  -0.010  -0.112 -0.8950 -0.7821 -1.0588
   28MOL0     H 3748  -1.061  -0.071  -0.019 -0.4290 -0.1105  0.4324
   28MOL0     H 3749  -0.963  -0.218  -0.056 -2.4593  0.2605 -1.8603
   28MOL0     H 3750  -0.906  -0.198   0.191  0.2527  1.4008 -0.9980
   28MOL0     H 3751  -1.071  -0.262   0.148 -2.4975  0.7243  1.3609
   28MOL0     H 3752  -1.003   0.018   0.253 -0.9393  0.8636 -2.9016
   28MOL0     H 3753  -1.169  -0.048   0.223 -1.1425  0.2403  2.8241
   28MOL0     H 3754  -1.082  -0.044   0.448  0.0336  1.9806 -0.5912
   28MOL0     H 3755  -0.953  -0.160   0.412 -0.4764  0.1534  2.4243
   28MOL0     H 3756  -1.257  -0.205   0.405 -0.0961 -1.0873  0.2273
   28MOL0     H 3757  -1.147  -0.322   0.346 -3.0786 -1.5778  1.4662
   28MOL0     H 3758  -1.145  -0.206   0.634  1.5520 -0.2290  0.4139
   28MOL0     H 3759  -1.033  -0.335   0.575 -0.2485 -2.4823 -0.5705
   28MOL0     H 3760  -1.332  -0.352   0.583 -1.4173 -1.1166  2.0353
   28MOL0     H 3761  -1.227  -0.393   0.721 -0.1787  1.5680 -0.2903
   28MOL0     H 3762  -0.668   0.162  -0.022  0.9063 -0.4504 -1.5051
   28MOL0     H 3763  -0.454   0.259   0.021 -0.7855  0.1557 -1.0827
   28MOL0     H 3764  -0.039   0.077   0.436 -0.7216 -2.1986 -2.6747
   28MOL0     H 3765   0.185   0.153   0.500  0.2337 -0.4819 -0.5996
   28MOL0     H 3766   1.903   0.815   0.224 -0.7896 -0.5403 -0.4387
   28MOL0     H 3767   1.869   1.031   0.329  1.3252  0.5219 -2.2578
   28MOL0     H 3768   1.776   1.617   0.086  2.1762  2.5260  1.7900
   28MOL0     H 3769   1.699   1.802   0.213 -0.9840  0.5600  0.9108
   28MOL0     H 3770   1.469   1.996   0.409  3.3625  0.6146 -1.3154
   28MOL0     H 3771   1.521   1.929   0.264 -0.3048 -1.8252  0.0977
   28MOL0     H 3772   1.310   1.778   0.260  0.5117 -0.0255 -0.6867
   28MOL0     H 3773   1.265   1.945   0.273  1.6601  2.6109  1.9024
   28MOL0     H 3774   1.230   1.941   0.529  0.6608 -0.2043  0.6138
   28MOL0     H 3775   1.294   1.781   0.523 -0.8224  1.1676  2.0514
   28MOL0     H 3776   1.087   1.709   0.500  1.1299 -0.6747 -1.9285
   28MOL0     H 3777   1.069   1.777   0.335  0.7301  1.6924 -1.1577
   28MOL0     H 3778   0.878   2.094   0.501  0.8220 -0.0332 -0.6240
   28MOL0     H 3779   1.496   1.543   0.497  0.7756 -1.1394  0.2357
   28MOL0     H 3780   1.593   1.351   0.376 -3.1395  0.8408  1.2572
   29MOL0     O 3781   1.116   3.920   8.669  0.1924  0.0705 -0.3860
   29MOL0     C 3782   1.193   3.834   8.717  0.4197  0.0811  0.2953
   29MOL0     O 3783   1.204   3.709   8.666  0.4697  0.0916 -0.3943
   29MOL0     C 3784   1.121   3.656   8.568 -0.2402  0.8643  0.1636
   29MOL0     C 3785   1.178   3.574   8.472  0.1805  0.3729 -0.1757
   29MOL0     C 3786   1.098   3.500   8.384  0.0131  0.4027  0.5232
   29MOL0     C 3787   0.957   3.508   8.385  0.3765  0.0952 -0.1017
   29MOL0     O 3788   0.891   3.424   8.302 -0.3344 -0.4810  0.1021
   29MOL0     C 3789   0.761   3.474   8.248  0.1933 -0.3401 -0.0707
   29MOL0     C 3790   0.640   3.440   8.335 -1.2187  0.6969  0.2459
   29MOL0     C 3791   0.506   3.491   8.267 -0.9537 -0.5109  0.6163
   29MOL0     C 3792   0.457   3.399   8.163  0.1173  0.2838  0.6423
   29MOL0     C 3793   0.329   3.453   8.094  0.0705  0.1999  1.0693
   29MOL0     C 3794   0.271   3.337   8.016  0.0777  0.1112  0.6753
   29MOL0     C 3795   0.144   3.384   7.949 -0.0294 -0.3121  0.1879
   29MOL0     C 3796   0.109   3.281   7.835  0.2754  0.7365 -0.0181
   29MOL0     N 3797   0.001   3.324   7.748 -0.3437  0.2689 -0.0640
   29MOL0     C 3798  -0.026   3.453   7.711  0.4501  0.1071  0.2188
   29MOL0     C 3799  -0.134   3.437   7.629  0.2210 -0.0645 -0.1013
   29MOL0     C 3800  -0.218   3.550   7.574  0.8151 -0.7094 -0.8938
   29MOL0     C 3801  -0.172   3.689   7.627 -0.5096  0.1178 -0.2924
   29MOL0     C 3802  -0.260   3.812   7.591 -0.1247  0.7064 -0.4355
   29MOL0     C 3803  -0.398   3.800   7.647 -0.3216  0.1205 -0.7155
   29MOL0     O 3804  -0.389   3.807   7.790  0.6264 -0.2102  0.1240
   29MOL0     C 3805  -0.500   3.786   7.871  0.1109 -0.2296 -0.0610
   29MOL0     C 3806  -0.626   3.746   7.826  1.6808 -0.4748 -0.3054
   29MOL0     C 3807  -0.740   3.737   7.900  0.0030  0.7148  0.4998
   29MOL0     C 3808  -0.868   3.702   7.823  0.6557 -0.2794  0.3063
   29MOL0     C 3809  -0.732   3.772   8.041 -0.6010 -0.5289  0.1731
   29MOL0     C 3810  -0.845   3.763   8.140  0.0905  0.1355 -0.1546
   29MOL0     O 3811  -0.846   3.861   8.239 -0.3030 -0.0162 -0.1346
   29MOL0     C 3812  -0.941   3.887   8.337 -0.2930  0.3456  0.3825
   29MOL0     C 3813  -1.068   3.835   8.343 -0.6733 -0.1388 -0.2095
   29MOL0     C 3814  -1.138   3.863   8.459  0.4399  0.0819  0.5350
   29MOL0     C 3815  -1.091   3.936   8.570 -0.5121 -0.7119 -0.3323
   29MOL0     O 3816  -1.149   3.955   8.693  0.4313 -0.3439 -0.4439
   29MOL0     C 3817  -1.288   3.923   8.699 -0.2200 -0.2532  0.1705
   29MOL0     C 3818  -1.364   4.011   8.799  0.1901 -1.0185 -0.5347
   29MOL0     C 3819  -1.369   4.157   8.757  0.1215  0.6245 -0.0837
   29MOL0     C 3820  -1.468   4.235   8.850 -0.1355 -0.1443  0.7378
   29MOL0     C 3821  -1.440   4.383   8.838  0.3195 -0.1768  0.9755
   29MOL0     C 3822  -1.566   4.447   8.884  0.3080 -0.6999  0.1676
   29MOL0     C 3823  -1.677   4.467   8.781 -0.6755 -1.3729  0.3141
   29MOL0     C 3824  -1.802   4.532   8.849 -0.6969  0.2799 -0.5474
   29MOL0    Cl 3825  -1.931   4.560   8.722  0.3127  0.3725  0.1199
   29MOL0     C 3826  -0.963   3.985   8.553  0.2728  0.3950 -0.2259
   29MOL0     C 3827  -0.892   3.975   8.439 -0.0682 -0.1159 -0.6341
   29MOL0     O 3828  -0.930   3.678   8.119  0.1299  0.3196 -0.8045
   29MOL0     C 3829  -0.606   3.816   8.092 -0.2731 -0.6215 -0.0593
   29MOL0     C 3830  -0.492   3.820   8.004  0.2184 -0.4814 -0.3733
   29MOL0     N 3831  -0.187   3.311   7.629 -0.7168  0.0144  0.5929
   29MOL0     N 3832  -0.100   3.249   7.696  0.0908 -0.3313 -0.1879
   29MOL0     C 3833   0.902   3.590   8.484 -0.2862 -0.0840  0.1880
   29MOL0     C 3834   0.985   3.656   8.575  0.0232 -0.0225  0.5106
   29MOL0     C 3835   1.282   3.882   8.828 -0.6261  0.4576  0.4176
   29MOL0     C 3836   1.263   4.002   8.892 -0.1326 -0.3473  0.2996
   29MOL0     C 3837   1.362   4.057   8.978 -1.0998  0.1749  0.8651
   29MOL0     C 3838   1.484   3.986   9.005  0.0232 -0.8727 -0.0335
   29MOL0     O 3839   1.585   4.020   9.093 -0.3791  0.6628 -0.6173
   29MOL0     C 3840   1.574   4.157   9.141 -0.6370  0.8110 -0.0814
   29MOL0     C 3841   1.694   4.183   9.231  0.4304 -0.3974  0.1323
   29MOL0     C 3842   1.719   4.336   9.247  0.0773 -0.0402 -0.5995
   29MOL0     C 3843   1.814   4.369   9.366 -0.2115 -1.3161  0.1328
   29MOL0     C 3844   1.945   4.302   9.367  0.8630  0.9975 -0.0764
   29MOL0     C 3845   2.046   4.249   9.351 -0.5352  0.8463 -0.8247
   29MOL0     C 3846   1.499   3.866   8.939 -0.6108 -0.1462  0.5716
   29MOL0     C 3847   1.410   3.818   8.845  0.6897 -0.0186 -0.8656
   29MOL0     H 3848   1.286   3.571   8.479  0.2283  1.9381  0.2470
   29MOL0     H 3849   1.134   3.428   8.311 -0.2523  1.1393 -0.3471
   29MOL0     H 3850   0.761   3.581   8.226  0.5630 -0.9680 -3.5494
   29MOL0     H 3851   0.748   3.426   8.151  2.3209 -2.0681  0.4212
   29MOL0     H 3852   0.640   3.332   8.355 -0.8524  1.0808  2.6190
   29MOL0     H 3853   0.646   3.482   8.435  2.3646 -2.7449  1.7453
   29MOL0     H 3854   0.427   3.499   8.342 -2.1341 -0.2083 -0.6072
   29MOL0     H 3855   0.524   3.588   8.220 -1.5529 -1.6059 -2.0372
   29MOL0     H 3856   0.526   3.386   8.079 -1.4665  0.2441 -0.7006
   29MOL0     H 3857   0.432   3.301   8.205 -1.6063  0.6840  0.6105
   29MOL0     H 3858   0.262   3.492   8.170  1.5130  1.0397  1.9521
   29MOL0     H 3859   0.347   3.539   8.029 -0.8344  1.0574  1.9411
   29MOL0     H 3860   0.348   3.305   7.946 -1.3449 -0.3467 -0.7291
   29MOL0     H 3861   0.252   3.247   8.077  3.2613  0.0389  1.7655
   29MOL0     H 3862   0.057   3.396   8.014 -2.3613 -0.9304 -2.5776
   29MOL0     H 3863   0.154   3.481   7.898  1.8720  0.5537  2.0609
   29MOL0     H 3864   0.077   3.194   7.893  0.3869  0.8091  0.1533
   29MOL0     H 3865   0.204   3.258   7.786  2.4316  2.3394  3.0764
   29MOL0     H 3866   0.027   3.542   7.742 -0.7038  0.0643  2.4923
   29MOL0     H 3867  -0.208   3.555   7.465  0.0819 -1.6243 -1.0165
   29MOL0     H 3868  -0.322   3.530   7.599  0.6150 -2.5446 -2.8732
   29MOL0     H 3869  -0.075   3.714   7.582  0.8560 -0.8296  1.9507
   29MOL0     H 3870  -0.171   3.690   7.736  3.2281  0.4543 -0.1920
   29MOL0     H 3871  -0.266   3.819   7.482  4.4674  2.0953 -0.7823
   29MOL0     H 3872  -0.215   3.903   7.631 -1.1255  0.8581  0.3771
   29MOL0     H 3873  -0.440   3.703   7.616 -0.8523 -0.2625  1.0639
   29MOL0     H 3874  -0.458   3.884   7.612  0.6711  1.6739  1.0772
   29MOL0     H 3875  -0.628   3.710   7.723 -0.0193  0.0445 -0.4916
   29MOL0     H 3876  -0.921   3.625   7.880 -0.9303  0.3616 -0.2279
   29MOL0     H 3877  -0.927   3.794   7.812  1.8267  0.2237 -3.0661
   29MOL0     H 3878  -0.840   3.665   7.724 -0.0540 -0.4343  0.1538
   29MOL0     H 3879  -1.101   3.765   8.267  0.7098 -2.0264  0.8319
   29MOL0     H 3880  -1.240   3.824   8.456  0.7662 -0.7615 -2.4614
   29MOL0     H 3881  -1.343   3.935   8.605  0.4286  3.3825  0.1014
   29MOL0     H 3882  -1.301   3.820   8.733 -2.4282 -0.6984 -1.7247
   29MOL0     H 3883  -1.464   3.971   8.817 -1.0417  1.2798 -1.8033
   29MOL0     H 3884  -1.303   4.007   8.889  2.1169  2.2437 -1.5055
   29MOL0     H 3885  -1.397   4.168   8.652  0.3484  0.7385 -0.1328
   29MOL0     H 3886  -1.270   4.202   8.764  1.0273 -1.2544 -0.4187
   29MOL0     H 3887  -1.572   4.223   8.822 -0.3871  0.6896  1.2717
   29MOL0     H 3888  -1.458   4.202   8.954 -1.6318 -2.7905  0.1118
   29MOL0     H 3889  -1.420   4.409   8.734 -1.2024  1.2332  1.0027
   29MOL0     H 3890  -1.361   4.412   8.908  0.1255 -1.2648  1.6768
   29MOL0     H 3891  -1.602   4.394   8.972 -0.0014  2.3273  2.0134
   29MOL0     H 3892  -1.538   4.547   8.920  0.3057  0.5435 -2.9765
   29MOL0     H 3893  -1.704   4.364   8.753 -0.2987 -2.0004  2.1326
   29MOL0     H 3894  -1.645   4.529   8.697 -2.7634 -0.1615  0.3461
   29MOL0     H 3895  -1.771   4.634   8.876 -0.7417  0.7987 -2.3383
   29MOL0     H 3896  -1.830   4.477   8.939 -0.7264 -0.7682 -1.1935
   29MOL0     H 3897  -0.923   4.042   8.636  0.8664  1.4905 -1.2274
   29MOL0     H 3898  -0.792   4.014   8.420 -0.0006 -0.6263 -1.4179
   29MOL0     H 3899  -0.603   3.860   8.191 -2.4487  0.2058 -0.3078
   29MOL0     H 3900  -0.396   3.863   8.027  0.6534 -0.7993 -1.5163
   29MOL0     H 3901   0.797   3.608   8.501 -0.5213 -0.9058 -0.3360
   29MOL0     H 3902   0.951   3.708   8.664  2.5704  1.8051  0.5162
   29MOL0     H 3903   1.181   4.068   8.863  1.0980  1.1946  0.1419
   29MOL0     H 3904   1.334   4.143   9.038 -1.0700 -0.3544  1.6542
   29MOL0     H 3905   1.567   4.230   9.060  0.1360 -0.4076 -1.3040
   29MOL0     H 3906   1.484   4.180   9.198 -1.4176  0.1683 -1.0231
   29MOL0     H 3907   1.776   4.127   9.185  0.1858  0.0516 -0.8946
   29MOL0     H 3908   1.672   4.140   9.329 -0.8727 -0.1137 -0.0100
   29MOL0     H 3909   1.626   4.392   9.261  0.3964 -0.2170  3.2335
   29MOL0     H 3910   1.778   4.382   9.166  2.4483  1.9476  2.0572
   29MOL0     H 3911   1.756   4.353   9.458 -1.9589  0.3103 -0.6047
   29MOL0     H 3912   1.833   4.477   9.366  2.1630 -1.6836  0.5935
   29MOL0     H 3913   2.136   4.194   9.332 -1.5867 -1.1252 -0.3559
   29MOL0     H 3914   1.584   3.802   8.956  1.4303  1.9898 -1.0488
   29MOL0     H 3915   1.433   3.718   8.807 -0.3418 -0.1466 -1.1874
   30MOL0     O 3916   7.336   1.024   8.923 -0.5976 -0.0279 -0.3335
   30MOL0     C 3917   7.398   1.108   8.863  0.6050 -0.4371 -0.0585
   30MOL0     O 3918   7.344   1.213   8.794  0.1934  0.8737 -0.2878
   30MOL0     C 3919   7.216   1.225   8.766 -0.1047  0.5868  0.9859
   30MOL0     C 3920   7.108   1.186   8.846  0.2200  0.2995 -0.2343
   30MOL0     C 3921   6.974   1.191   8.796  0.6247 -0.4228 -0.2891
   30MOL0     C 3922   6.942   1.239   8.672  0.2251 -0.1630 -0.3739
   30MOL0     O 3923   6.809   1.252   8.625 -0.6517  0.6169  0.1343
   30MOL0     C 3924   6.723   1.144   8.648  0.3052  1.0136  0.1134
   30MOL0     C 3925   6.614   1.158   8.766 -0.7726 -0.8913  0.2785
   30MOL0     C 3926   6.522   1.038   8.775 -1.5358 -0.0292  0.2734
   30MOL0     C 3927   6.396   1.050   8.690 -0.4192  0.9085 -0.4951
   30MOL0     C 3928   6.312   1.172   8.732 -0.7166 -0.0188  0.8425
   30MOL0     C 3929   6.178   1.138   8.686  0.0281 -1.2670  0.1893
   30MOL0     C 3930   6.083   1.266   8.679 -0.3014  0.5650 -0.1373
   30MOL0     C 3931   5.968   1.221   8.584  0.2068  0.7663  0.6931
   30MOL0     N 3932   5.857   1.310   8.569  0.1878 -0.3900  0.2801
   30MOL0     C 3933   5.781   1.365   8.670  0.3581  0.1585  0.5285
   30MOL0     C 3934   5.674   1.413   8.602  0.0164 -0.4305 -0.2877
   30MOL0     C 3935   5.540   1.454   8.653  0.3006 -0.0246  1.1951
   30MOL0     C 3936   5.459   1.332   8.688 -0.6561 -0.3887  0.3069
   30MOL0     C 3937   5.330   1.370   8.767  0.3381 -0.5694 -0.2860
   30MOL0     C 3938   5.243   1.246   8.803  0.2964  0.3409 -0.7541
   30MOL0     O 3939   5.105   1.277   8.819  0.5241  0.4759  0.2211
   30MOL0     C 3940   5.010   1.178   8.801 -0.8617  0.2034 -0.1904
   30MOL0     C 3941   5.024   1.048   8.844 -0.9998 -0.6136  0.2290
   30MOL0     C 3942   4.924   0.952   8.820  0.4395  0.4028 -0.3179
   30MOL0     C 3943   4.967   0.810   8.852 -0.1336  0.7617  0.3344
   30MOL0     C 3944   4.794   0.987   8.769  0.2033  0.0404  0.5114
   30MOL0     C 3945   4.688   0.889   8.727  0.4549 -0.2304  0.7172
   30MOL0     O 3946   4.561   0.931   8.694 -0.4227 -0.2221  0.3859
   30MOL0     C 3947   4.448   0.856   8.688  0.2929  0.9864 -1.2757
   30MOL0     C 3948   4.438   0.747   8.600 -0.5001  1.0403 -0.2200
   30MOL0     C 3949   4.340   0.644   8.614 -1.1750 -0.1336  1.1317
   30MOL0     C 3950   4.236   0.660   8.695  0.2519  0.2228 -0.2872
   30MOL0     O 3951   4.139   0.567   8.679 -0.0999  0.4713 -0.5906
   30MOL0     C 3952   4.029   0.571   8.776  0.5953  0.0094  0.5890
   30MOL0     C 3953   3.930   0.451   8.766  0.4283  0.2976 -0.3841
   30MOL0     C 3954   3.850   0.433   8.903 -0.5395  0.4260  0.6753
   30MOL0     C 3955   3.726   0.340   8.890 -1.1295 -0.2424  1.1165
   30MOL0     C 3956   3.671   0.293   9.022 -0.3548 -0.5948  1.2881
   30MOL0     C 3957   3.557   0.189   9.016  0.8172 -1.1075  0.1486
   30MOL0     C 3958   3.504   0.168   9.155  0.2107  1.0097  0.2214
   30MOL0     C 3959   3.366   0.087   9.146 -0.4468  0.3126 -0.1471
   30MOL0    Cl 3960   3.226   0.198   9.101 -0.1809  0.2037  0.1334
   30MOL0     C 3961   4.227   0.776   8.772  0.2274  0.0211  0.1446
   30MOL0     C 3962   4.332   0.874   8.778  0.2108  1.1940  0.5206
   30MOL0     O 3963   4.727   0.777   8.715  0.5124  0.4670 -0.2776
   30MOL0     C 3964   4.781   1.126   8.741 -0.1555  0.5291 -0.6780
   30MOL0     C 3965   4.891   1.215   8.765 -0.2923  0.1907  0.7782
   30MOL0     N 3966   5.698   1.399   8.465 -0.7920  0.3074  0.9691
   30MOL0     N 3967   5.811   1.341   8.446 -0.7000  0.3349 -0.0498
   30MOL0     C 3968   7.051   1.274   8.594 -0.5380 -0.5603  0.4746
   30MOL0     C 3969   7.188   1.272   8.641  0.0997 -0.3181  0.1383
   30MOL0     C 3970   7.547   1.118   8.884 -0.3280 -0.2204 -0.0326
   30MOL0     C 3971   7.624   1.209   8.815  0.0274 -0.2968 -0.5437
   30MOL0     C 3972   7.761   1.233   8.849 -0.0836 -0.4360  0.5082
   30MOL0     C 3973   7.814   1.160   8.956  0.0094 -0.3644 -0.1324
   30MOL0     O 3974   7.944   1.163   9.001 -0.7788  0.4387  0.0032
   30MOL0     C 3975   8.038   1.171   8.895 -0.8459 -0.8451  0.2692
   30MOL0     C 3976   8.043   1.036   8.819 -0.1401 -0.2378  0.1043
   30MOL0     C 3977   8.147   1.052   8.711  0.6494 -0.3378 -0.2588
   30MOL0     C 3978   8.196   0.902   8.677  0.0774 -0.5380 -0.0253
   30MOL0     C 3979   8.303   0.913   8.574  1.1163  0.7576  0.2083
   30MOL0     C 3980   8.385   0.924   8.491 -0.8610  0.4305 -0.0453
   30MOL0     C 3981   7.740   1.071   9.027  0.0842  0.0524  0.0760
   30MOL0     C 3982   7.612   1.053   8.994  0.8343 -0.3026 -0.2650
   30MOL0     H 3983   7.122   1.145   8.946  0.1296 -1.3009 -0.8545
   30MOL0     H 3984   6.891   1.154   8.856  0.5207  0.1724 -0.0586
   30MOL0     H 3985   6.679   1.117   8.552  0.5256 -0.4155  0.3943
   30MOL0     H 3986   6.778   1.056   8.682  1.0299  0.7888 -1.5492
   30MOL0     H 3987   6.674   1.174   8.857  0.7027 -1.1952 -0.5995
   30MOL0     H 3988   6.554   1.249   8.758  1.6395  0.7169 -1.2610
   30MOL0     H 3989   6.571   0.943   8.748 -2.2288 -0.5430  0.7745
   30MOL0     H 3990   6.491   1.018   8.878  0.0469  0.7542  0.9229
   30MOL0     H 3991   6.425   1.057   8.585 -1.5135 -0.3856 -0.9271
   30MOL0     H 3992   6.349   0.952   8.701  1.1279  0.3779  2.4434
   30MOL0     H 3993   6.309   1.193   8.840  2.0036 -0.0761  0.9806
   30MOL0     H 3994   6.348   1.267   8.691  1.5600 -1.1917 -0.0144
   30MOL0     H 3995   6.193   1.098   8.585  1.4403  0.1991 -0.2247
   30MOL0     H 3996   6.131   1.070   8.758  0.0473 -0.2265  1.2157
   30MOL0     H 3997   6.034   1.295   8.773  1.8817  0.2147  1.1856
   30MOL0     H 3998   6.129   1.355   8.636  1.4056 -1.6071 -3.1370
   30MOL0     H 3999   5.943   1.116   8.603  2.0730  0.1704  0.0900
   30MOL0     H 4000   6.009   1.213   8.483 -2.5852 -0.9008 -0.4237
   30MOL0     H 4001   5.789   1.347   8.776 -0.8313 -0.8607  0.4735
   30MOL0     H 4002   5.551   1.524   8.737  0.5987  1.7787 -0.2773
   30MOL0     H 4003   5.496   1.500   8.564  0.1988 -1.9272  0.2284
   30MOL0     H 4004   5.524   1.277   8.756 -1.4540 -0.7198  0.8108
   30MOL0     H 4005   5.446   1.270   8.599  2.2176 -0.7094  0.0222
   30MOL0     H 4006   5.276   1.447   8.711  1.5940  0.3424 -0.2754
   30MOL0     H 4007   5.344   1.423   8.862 -2.6159  1.5521 -0.8730
   30MOL0     H 4008   5.280   1.194   8.892 -2.9801  0.4763  0.8432
   30MOL0     H 4009   5.251   1.182   8.715 -0.6852  2.0330 -2.1473
   30MOL0     H 4010   5.124   1.019   8.874 -0.2322  1.8448  0.2372
   30MOL0     H 4011   4.989   0.759   8.758 -0.8990 -1.4429  1.2840
   30MOL0     H 4012   5.059   0.818   8.911 -0.9522  2.7507  1.4503
   30MOL0     H 4013   4.890   0.762   8.913  2.9330 -3.3619  1.4120
   30MOL0     H 4014   4.517   0.740   8.525  0.7060  1.5972  0.9608
   30MOL0     H 4015   4.331   0.569   8.536 -0.1428  3.2811 -2.6664
   30MOL0     H 4016   4.076   0.579   8.875  0.8233 -2.8811  0.7951
   30MOL0     H 4017   3.967   0.661   8.767  1.2671  0.5492  1.2072
   30MOL0     H 4018   3.871   0.495   8.684  0.7502  0.8758 -0.3085
   30MOL0     H 4019   3.975   0.357   8.731  1.2232 -0.2253  1.8892
   30MOL0     H 4020   3.837   0.538   8.931  1.6200  1.0899 -0.5748
   30MOL0     H 4021   3.913   0.393   8.983 -0.4486  0.6017  0.6922
   30MOL0     H 4022   3.658   0.394   8.823 -1.7744  0.9819  2.6949
   30MOL0     H 4023   3.761   0.253   8.834 -3.6486  0.1796 -1.4087
   30MOL0     H 4024   3.646   0.382   9.080  0.3701 -0.4630  1.4081
   30MOL0     H 4025   3.751   0.248   9.081  1.5642 -1.2958 -1.6305
   30MOL0     H 4026   3.477   0.230   8.954 -0.4949 -0.0625  2.4346
   30MOL0     H 4027   3.593   0.100   8.963 -1.5926 -1.8011 -0.4447
   30MOL0     H 4028   3.492   0.257   9.218  3.1517  0.2586  2.0532
   30MOL0     H 4029   3.581   0.112   9.209  1.0704  1.8771 -0.0819
   30MOL0     H 4030   3.356   0.043   9.246 -0.0084  0.4674 -0.0351
   30MOL0     H 4031   3.385   0.007   9.074 -3.3620  1.1366 -1.9848
   30MOL0     H 4032   4.129   0.791   8.815  0.4153  1.6945  0.0638
   30MOL0     H 4033   4.316   0.960   8.843 -2.4527 -0.9234  2.9446
   30MOL0     H 4034   4.689   1.169   8.703  0.5475  3.5357  0.7697
   30MOL0     H 4035   4.890   1.322   8.746  0.2602 -0.0668 -0.9128
   30MOL0     H 4036   7.036   1.315   8.494  1.9336  0.2598  0.3871
   30MOL0     H 4037   7.267   1.301   8.572  0.4236 -2.2704 -0.3674
   30MOL0     H 4038   7.574   1.268   8.739 -1.9004 -0.4507  0.5469
   30MOL0     H 4039   7.819   1.311   8.801  2.8675 -2.6041  0.2928
   30MOL0     H 4040   8.014   1.254   8.828  0.6680  0.6750  1.5457
   30MOL0     H 4041   8.132   1.204   8.939 -0.0171  0.3846 -2.2131
   30MOL0     H 4042   7.945   1.005   8.784 -1.5983 -0.6650  4.0279
   30MOL0     H 4043   8.081   0.961   8.889  0.1133 -1.1213 -0.9485
   30MOL0     H 4044   8.232   1.105   8.754  0.7620 -1.5265  1.0690
   30MOL0     H 4045   8.109   1.108   8.625 -0.3605 -1.3290 -0.4837
   30MOL0     H 4046   8.113   0.839   8.643  0.7735 -1.2430 -0.4470
   30MOL0     H 4047   8.232   0.848   8.765  1.3743  1.9194  1.0347
   30MOL0     H 4048   8.464   0.946   8.422 -1.0503  2.3009  0.2583
   30MOL0     H 4049   7.795   1.021   9.107 -0.8673  3.5300  3.2124
   30MOL0     H 4050   7.562   0.987   9.066  0.0110 -2.0398 -2.3191
   31MOL0     O 4051   0.329   6.253  11.046  0.3062  0.4558 -0.7238
   31MOL0     C 4052   0.355   6.370  11.070  1.2507 -0.0979 -0.1896
   31MOL0     O 4053   0.270   6.476  11.030  0.8631  0.1679  0.0763
   31MOL0     C 4054   0.150   6.464  10.963 -0.7439  0.4392  0.4179
   31MOL0     C 4055   0.137   6.393  10.845 -0.0791 -0.3354 -0.3057
   31MOL0     C 4056   0.020   6.377  10.777 -0.7633  0.0250  0.0114
   31MOL0     C 4057  -0.095   6.437  10.824 -0.6711  0.3123 -0.0448
   31MOL0     O 4058  -0.216   6.415  10.765  0.2154  1.0273 -0.6964
   31MOL0     C 4059  -0.221   6.395  10.624  0.7232 -0.1694 -0.7737
   31MOL0     C 4060  -0.367   6.399  10.571 -0.7877  0.3345 -0.0448
   31MOL0     C 4061  -0.446   6.280  10.621 -0.1689  0.2140  0.0584
   31MOL0     C 4062  -0.583   6.292  10.571  0.5122 -0.6327  0.5595
   31MOL0     C 4063  -0.672   6.166  10.574 -0.4221  0.2736  0.1327
   31MOL0     C 4064  -0.817   6.183  10.559 -0.5325  0.9210 -0.1389
   31MOL0     C 4065  -0.902   6.057  10.601 -0.4161 -0.6521  0.6501
   31MOL0     C 4066  -0.858   5.924  10.539  0.0598  0.2378  0.4872
   31MOL0     N 4067  -0.869   5.912  10.390  0.1826  0.1031  0.4396
   31MOL0     C 4068  -0.982   5.916  10.315 -0.1586 -0.0794  0.6933
   31MOL0     C 4069  -0.932   5.947  10.188 -0.5047 -0.2509  0.5634
   31MOL0     C 4070  -1.010   5.974  10.063  0.5988 -0.2396  0.5256
   31MOL0     C 4071  -1.101   6.095  10.070  0.4302 -0.3792 -0.5809
   31MOL0     C 4072  -1.188   6.089   9.947  0.1730 -0.5707  0.0158
   31MOL0     C 4073  -1.314   6.174   9.976 -0.2305  0.0653 -0.2397
   31MOL0     O 4074  -1.404   6.178   9.867 -0.2097 -0.2033 -0.4832
   31MOL0     C 4075  -1.530   6.226   9.889 -1.0021  0.2934 -0.5303
   31MOL0     C 4076  -1.585   6.271  10.010 -0.2464 -1.2981  0.4467
   31MOL0     C 4077  -1.723   6.307  10.031 -0.1333 -0.4592  1.0407
   31MOL0     C 4078  -1.759   6.359  10.172 -0.4953 -0.2909  0.2308
   31MOL0     C 4079  -1.816   6.302   9.922  0.0515  0.8045  0.2436
   31MOL0     C 4080  -1.955   6.328   9.941  0.5294  0.1656  1.3170
   31MOL0     O 4081  -2.007   6.244  10.031 -0.3795  0.6971  0.1585
   31MOL0     C 4082  -2.142   6.219  10.029  0.6029  0.8571  0.2840
   31MOL0     C 4083  -2.244   6.310  10.032 -0.3967  0.6487  0.2223
   31MOL0     C 4084  -2.383   6.273  10.028 -0.4620 -0.4056  0.1493
   31MOL0     C 4085  -2.404   6.133  10.021  0.9005  0.3334 -0.0376
   31MOL0     O 4086  -2.534   6.089   9.997 -0.8096 -0.0708  0.2516
   31MOL0     C 4087  -2.634   6.139  10.088  0.2493  0.2922  0.5397
   31MOL0     C 4088  -2.760   6.051  10.102 -0.3436  0.8715  0.0416
   31MOL0     C 4089  -2.707   5.902  10.139 -0.2611 -0.1202  0.4059
   31MOL0     C 4090  -2.834   5.812  10.176  0.6988 -0.7672  0.0968
   31MOL0     C 4091  -2.807   5.663  10.201 -0.4894  0.0835 -0.4585
   31MOL0     C 4092  -2.929   5.579  10.173 -0.3148 -0.4302 -0.4009
   31MOL0     C 4093  -3.050   5.574  10.270 -0.3425  0.0623  0.3524
   31MOL0     C 4094  -3.159   5.488  10.208 -0.5330 -0.7153  0.5538
   31MOL0    Cl 4095  -3.101   5.334  10.132  0.6330  0.5135  0.3965
   31MOL0     C 4096  -2.298   6.039  10.006 -0.6393  0.5188 -0.2978
   31MOL0     C 4097  -2.168   6.084  10.013 -0.5975  0.2473 -0.4446
   31MOL0     O 4098  -2.007   6.398   9.856  0.0978 -0.7082  0.2631
   31MOL0     C 4099  -1.765   6.247   9.800 -0.3448  0.3116 -0.0546
   31MOL0     C 4100  -1.622   6.210   9.784 -0.3587  0.5566 -0.1570
   31MOL0     N 4101  -0.790   5.949  10.193  0.1428 -0.0106 -0.0880
   31MOL0     N 4102  -0.756   5.909  10.311 -0.0007 -0.2042 -0.0008
   31MOL0     C 4103  -0.085   6.513  10.937  0.4464 -0.9317  0.1563
   31MOL0     C 4104   0.035   6.530  11.012  0.8254 -0.7929 -0.1310
   31MOL0     C 4105   0.483   6.406  11.124  0.7946  0.5613  0.6854
   31MOL0     C 4106   0.583   6.311  11.132  0.3134  0.2709 -0.1789
   31MOL0     C 4107   0.714   6.344  11.186 -0.4259 -0.9470  0.2681
   31MOL0     C 4108   0.744   6.474  11.216  0.2828 -0.1552 -0.6862
   31MOL0     O 4109   0.862   6.529  11.254  0.4812  0.0226  0.3399
   31MOL0     C 4110   0.980   6.451  11.236 -1.0161  0.3007  0.1009
   31MOL0     C 4111   1.104   6.546  11.232 -0.4569 -0.1725 -0.1535
   31MOL0     C 4112   1.131   6.600  11.096  1.1837 -0.4638 -0.4351
   31MOL0     C 4113   1.227   6.501  11.024  0.4889 -0.6975  0.9161
   31MOL0     C 4114   1.357   6.493  11.085 -0.4396  0.2926 -0.5207
   31MOL0     C 4115   1.472   6.475  11.129  0.3248  0.7530 -0.3117
   31MOL0     C 4116   0.638   6.565  11.207  0.0955 -0.7623 -0.0751
   31MOL0     C 4117   0.510   6.535  11.166 -0.2433  0.7360  0.4772
   31MOL0     H 4118   0.218   6.333  10.805  0.9143  0.1883  0.8553
   31MOL0     H 4119   0.026   6.315  10.688  1.6417 -0.9050  0.7350
   31MOL0     H 4120  -0.160   6.475  10.581  0.7896  0.9186  1.2222
   31MOL0     H 4121  -0.176   6.300  10.594  1.3261  1.1242 -4.4788
   31MOL0     H 4122  -0.404   6.495  10.609  3.3427  1.9175  0.4617
   31MOL0     H 4123  -0.362   6.406  10.462  1.6399  2.7206  0.1084
   31MOL0     H 4124  -0.393   6.191  10.585 -1.4113 -0.3711 -0.3762
   31MOL0     H 4125  -0.438   6.275  10.730  1.4354 -0.3667 -0.0554
   31MOL0     H 4126  -0.632   6.379  10.616 -0.3713  0.0408 -1.6039
   31MOL0     H 4127  -0.587   6.317  10.465 -4.0235  2.2974  1.0951
   31MOL0     H 4128  -0.622   6.098  10.505  0.7487 -0.3374  1.5385
   31MOL0     H 4129  -0.644   6.126  10.672  0.0526 -1.8773 -0.8246
   31MOL0     H 4130  -0.857   6.266  10.618  0.6374 -0.5041  2.8685
   31MOL0     H 4131  -0.842   6.207  10.455 -1.7598 -0.7035 -0.2615
   31MOL0     H 4132  -0.881   6.047  10.708  3.2914  1.9174  0.3752
   31MOL0     H 4133  -1.010   6.061  10.589 -0.5863 -4.1986  0.0655
   31MOL0     H 4134  -0.933   5.867  10.595  0.7223  0.4945  1.6703
   31MOL0     H 4135  -0.753   5.914  10.567  1.4649  1.2850 -3.6737
   31MOL0     H 4136  -1.089   5.915  10.332 -0.2752  1.6402  0.2304
   31MOL0     H 4137  -0.935   5.975   9.983  0.6557 -2.3324  0.4838
   31MOL0     H 4138  -1.065   5.881  10.046 -0.1234  0.4338 -1.0652
   31MOL0     H 4139  -1.043   6.188  10.073  0.6222 -0.5183  0.1919
   31MOL0     H 4140  -1.161   6.083  10.160 -1.2770  0.7179 -1.5096
   31MOL0     H 4141  -1.230   5.990   9.925  1.1132 -0.8269 -0.7135
   31MOL0     H 4142  -1.131   6.118   9.858  1.3937 -2.4655  0.1021
   31MOL0     H 4143  -1.279   6.272  10.009 -2.3782  0.8501 -0.0919
   31MOL0     H 4144  -1.369   6.135  10.062 -3.1607  5.0459  0.5383
   31MOL0     H 4145  -1.513   6.283  10.090  1.6495 -4.0142 -0.6751
   31MOL0     H 4146  -1.770   6.276  10.242 -0.1349 -0.6340 -0.1157
   31MOL0     H 4147  -1.671   6.419  10.198 -1.2737  0.7592  0.5300
   31MOL0     H 4148  -1.846   6.425  10.165  1.4228  2.5012  0.6849
   31MOL0     H 4149  -2.217   6.415  10.039  0.7100  0.2992  1.6223
   31MOL0     H 4150  -2.467   6.341  10.032 -0.2399 -0.1799  2.6978
   31MOL0     H 4151  -2.586   6.155  10.185 -1.4305  3.7481  0.9465
   31MOL0     H 4152  -2.671   6.238  10.062 -2.3346 -0.7624 -0.1086
   31MOL0     H 4153  -2.821   6.082  10.187  1.5524 -0.3547  1.9553
   31MOL0     H 4154  -2.826   6.055  10.014 -1.5838 -2.2786  0.6695
   31MOL0     H 4155  -2.635   5.908  10.221  0.3755  0.3190 -0.1648
   31MOL0     H 4156  -2.652   5.859  10.054 -0.9111  0.3127 -0.2540
   31MOL0     H 4157  -2.873   5.845  10.273  1.2815  1.9007 -0.4899
   31MOL0     H 4158  -2.910   5.818  10.098 -1.2389  0.3080  1.9606
   31MOL0     H 4159  -2.775   5.641  10.304  1.1069 -1.8222 -1.2827
   31MOL0     H 4160  -2.725   5.636  10.134 -2.5060 -1.3048 -2.5179
   31MOL0     H 4161  -2.973   5.606  10.077  0.6276 -2.2271 -1.3765
   31MOL0     H 4162  -2.886   5.479  10.165 -2.1317 -1.3598  0.6147
   31MOL0     H 4163  -3.104   5.666  10.290 -0.3483  0.4635 -1.3837
   31MOL0     H 4164  -3.007   5.535  10.364 -0.8715 -0.4761  0.3794
   31MOL0     H 4165  -3.198   5.555  10.131  1.8505  1.8958  1.4460
   31MOL0     H 4166  -3.230   5.475  10.291 -0.3038 -0.9428  0.7129
   31MOL0     H 4167  -2.321   5.936   9.978  0.5884  0.2581 -0.4346
   31MOL0     H 4168  -2.084   6.019   9.988  0.1481  1.3388 -0.8104
   31MOL0     H 4169  -1.835   6.237   9.718 -0.0067 -1.0048 -0.2130
   31MOL0     H 4170  -1.600   6.164   9.688 -0.7081  2.1328 -1.0139
   31MOL0     H 4171  -0.174   6.557  10.980 -1.1539 -2.6592 -1.1948
   31MOL0     H 4172   0.055   6.578  11.107  0.3425  0.8993 -0.8462
   31MOL0     H 4173   0.555   6.215  11.089  2.0132 -0.2339 -0.2287
   31MOL0     H 4174   0.794   6.271  11.180  0.3432 -0.4195  2.8751
   31MOL0     H 4175   0.988   6.384  11.322  0.4955  1.0592  0.5769
   31MOL0     H 4176   0.975   6.393  11.143 -0.5616  0.9246 -0.3187
   31MOL0     H 4177   1.188   6.493  11.278 -1.0538 -0.9786  0.0425
   31MOL0     H 4178   1.075   6.628  11.299 -1.2623 -1.2044  0.7935
   31MOL0     H 4179   1.181   6.698  11.104 -1.0475  0.6275  1.4089
   31MOL0     H 4180   1.040   6.605  11.037 -0.7080 -1.9651  2.1327
   31MOL0     H 4181   1.232   6.540  10.922  1.0243  0.3026  1.3080
   31MOL0     H 4182   1.184   6.400  11.028  0.0735 -0.7051 -1.7778
   31MOL0     H 4183   1.565   6.457  11.178 -1.9227 -3.0153  3.1276
   31MOL0     H 4184   0.663   6.667  11.233 -0.9976 -0.5802  0.3126
   31MOL0     H 4185   0.438   6.616  11.171 -0.3995  0.5842  0.6829
   32MOL0     O 4186   6.285   6.560   9.095  0.1944  0.1931  1.0575
   32MOL0     C 4187   6.361   6.625   9.170  0.1746  0.2953 -0.1578
   32MOL0     O 4188   6.378   6.750   9.161 -0.7846 -0.2760  0.3280
   32MOL0     C 4189   6.319   6.830   9.070 -0.8868 -0.0527  0.0417
   32MOL0     C 4190   6.400   6.908   8.981  0.2945 -0.3347  0.3634
   32MOL0     C 4191   6.339   7.008   8.909 -0.1288  0.1154 -0.3432
   32MOL0     C 4192   6.204   7.033   8.909 -0.0188  0.3588  0.5077
   32MOL0     O 4193   6.164   7.152   8.846  0.2995 -0.2342  0.2017
   32MOL0     C 4194   6.024   7.193   8.833 -0.2050  0.0058  0.9741
   32MOL0     C 4195   5.965   7.132   8.711  0.1536 -0.0410 -0.0231
   32MOL0     C 4196   5.818   7.125   8.711  0.0527 -0.8284 -0.0937
   32MOL0     C 4197   5.749   7.110   8.581  0.1646 -0.0129 -0.9682
   32MOL0     C 4198   5.609   7.143   8.608  0.8571  0.1513 -0.1492
   32MOL0     C 4199   5.527   7.127   8.472 -0.0747  0.7633  0.0100
   32MOL0     C 4200   5.382   7.183   8.458  0.2043  0.8222 -0.1207
   32MOL0     C 4201   5.366   7.335   8.470  0.1589 -0.0660  0.0336
   32MOL0     N 4202   5.234   7.374   8.423  0.6525  0.9649 -0.1634
   32MOL0     C 4203   5.141   7.456   8.491  0.3949  0.7079  0.4403
   32MOL0     C 4204   5.054   7.493   8.393 -0.0363 -0.2164 -0.9070
   32MOL0     C 4205   4.932   7.579   8.411  0.0879 -0.2772  0.0580
   32MOL0     C 4206   4.902   7.656   8.283  0.5419 -0.1272  0.0696
   32MOL0     C 4207   4.783   7.746   8.303  0.3798 -0.4521 -0.7127
   32MOL0     C 4208   4.655   7.677   8.353 -0.2310  0.4643 -0.6594
   32MOL0     O 4209   4.545   7.771   8.324 -0.2385  0.8643  0.2025
   32MOL0     C 4210   4.413   7.741   8.319 -0.5346 -1.0409 -0.4687
   32MOL0     C 4211   4.324   7.841   8.354 -1.0827  0.2053  0.5552
   32MOL0     C 4212   4.190   7.814   8.366  0.3539 -0.1022  0.1843
   32MOL0     C 4213   4.101   7.930   8.391 -0.3173 -0.3655 -0.1688
   32MOL0     C 4214   4.143   7.678   8.360  0.0538 -0.0969  0.0246
   32MOL0     C 4215   3.994   7.648   8.364  0.0650  0.4200 -0.1394
   32MOL0     O 4216   3.905   7.740   8.319  0.5543 -0.3992 -0.4447
   32MOL0     C 4217   3.781   7.697   8.288  0.4228  0.1134  0.8074
   32MOL0     C 4218   3.733   7.716   8.162 -0.2554 -0.1189  0.4684
   32MOL0     C 4219   3.609   7.681   8.114  0.7392 -0.9697  0.2509
   32MOL0     C 4220   3.512   7.616   8.199 -0.4955  0.0699  0.0152
   32MOL0     O 4221   3.378   7.602   8.181 -0.4303  0.1360  0.0036
   32MOL0     C 4222   3.312   7.713   8.123 -0.5512 -0.1293 -0.4201
   32MOL0     C 4223   3.158   7.699   8.137 -0.6139 -0.2226 -0.1654
   32MOL0     C 4224   3.086   7.679   7.999  0.1144 -0.1169  0.4884
   32MOL0     C 4225   2.939   7.664   8.028  0.5248 -0.2761 -0.2420
   32MOL0     C 4226   2.850   7.653   7.907 -0.2847 -0.0765  0.0614
   32MOL0     C 4227   2.876   7.516   7.833  0.4334 -0.2069 -0.1314
   32MOL0     C 4228   2.802   7.485   7.706  0.1311 -0.0283  0.1522
   32MOL0     C 4229   2.825   7.591   7.599  0.8276 -0.1419  0.1309
   32MOL0    Cl 4230   2.746   7.537   7.443  0.1465 -0.3655  0.4092
   32MOL0     C 4231   3.554   7.604   8.330 -0.0298  0.1199  1.0320
   32MOL0     C 4232   3.685   7.642   8.367  0.9419  0.5074 -0.0762
   32MOL0     O 4233   3.968   7.528   8.393  0.0528  0.2888 -0.0598
   32MOL0     C 4234   4.234   7.581   8.334  0.1186 -0.6650 -0.0315
   32MOL0     C 4235   4.367   7.612   8.309  0.4098 -0.8142 -0.0795
   32MOL0     N 4236   5.084   7.431   8.273  0.0676 -0.2438 -0.5287
   32MOL0     N 4237   5.192   7.357   8.295  0.3989 -0.4027  0.3955
   32MOL0     C 4238   6.125   6.957   8.996  0.3738 -0.2097 -0.4873
   32MOL0     C 4239   6.182   6.856   9.078  0.0737  0.6988 -0.0924
   32MOL0     C 4240   6.446   6.548   9.259 -0.5494 -0.5883  0.2445
   32MOL0     C 4241   6.429   6.405   9.271  0.0495 -0.8196  0.0750
   32MOL0     C 4242   6.517   6.326   9.343  0.3332  0.5837  0.9697
   32MOL0     C 4243   6.620   6.386   9.418 -0.3647 -0.4025 -0.3153
   32MOL0     O 4244   6.707   6.311   9.491 -0.1528 -0.6213 -0.3765
   32MOL0     C 4245   6.847   6.316   9.457 -0.6153  0.1820  0.1493
   32MOL0     C 4246   6.921   6.203   9.529  0.0943  0.1746  0.0667
   32MOL0     C 4247   7.057   6.256   9.564  0.3384  0.2580 -0.3390
   32MOL0     C 4248   7.160   6.136   9.583  0.0579  0.3132  0.0965
   32MOL0     C 4249   7.298   6.187   9.623 -1.6770  0.5120  0.7808
   32MOL0     C 4250   7.409   6.236   9.651 -0.3070  0.2493  0.7274
   32MOL0     C 4251   6.634   6.528   9.409  0.1348 -0.2053  0.0406
   32MOL0     C 4252   6.547   6.609   9.334  0.4464 -0.2080  0.2349
   32MOL0     H 4253   6.505   6.882   8.979  0.0607 -1.3072 -0.0192
   32MOL0     H 4254   6.407   7.066   8.847 -0.1449 -0.0154 -0.4864
   32MOL0     H 4255   5.973   7.156   8.922 -0.0970  0.3597  1.1863
   32MOL0     H 4256   6.022   7.303   8.832 -1.6438 -0.0102  0.6838
   32MOL0     H 4257   6.006   7.193   8.629  2.2651 -0.8415  0.3621
   32MOL0     H 4258   6.001   7.030   8.695  0.9059  0.5985 -3.1946
   32MOL0     H 4259   5.789   7.035   8.768 -0.2958 -0.4336  0.3642
   32MOL0     H 4260   5.780   7.211   8.767  0.2030  0.1296 -1.4218
   32MOL0     H 4261   5.792   7.183   8.512  3.3838  0.8797  1.6782
   32MOL0     H 4262   5.766   7.007   8.549  1.5358  0.0693 -0.6144
   32MOL0     H 4263   5.581   7.077   8.691  1.8018  0.0274  0.0832
   32MOL0     H 4264   5.602   7.242   8.654  0.0188 -0.6681  1.5947
   32MOL0     H 4265   5.590   7.167   8.392 -1.1328 -0.9284 -1.7824
   32MOL0     H 4266   5.516   7.020   8.451 -4.5906  0.9231  0.5601
   32MOL0     H 4267   5.355   7.144   8.359 -3.6507 -0.9236  1.4125
   32MOL0     H 4268   5.320   7.121   8.524 -2.1698  3.0504 -0.1218
   32MOL0     H 4269   5.433   7.403   8.415 -2.5813 -0.1021 -3.7620
   32MOL0     H 4270   5.395   7.357   8.573  1.3191 -0.5661 -0.1695
   32MOL0     H 4271   5.140   7.482   8.597  1.2545 -1.1668  0.9498
   32MOL0     H 4272   4.852   7.514   8.448  0.1182 -2.0665 -2.7550
   32MOL0     H 4273   4.962   7.648   8.491  1.8825  1.7066 -2.1509
   32MOL0     H 4274   4.881   7.586   8.202  2.6873 -3.0616  1.8537
   32MOL0     H 4275   4.992   7.714   8.261  0.7748 -0.1731  0.8795
   32MOL0     H 4276   4.762   7.794   8.207 -2.7166  1.3658  0.7120
   32MOL0     H 4277   4.810   7.828   8.370 -2.6951  0.1100 -0.0181
   32MOL0     H 4278   4.654   7.663   8.461 -1.2528 -0.1555 -0.7366
   32MOL0     H 4279   4.638   7.586   8.296  0.7931  0.6874 -1.3549
   32MOL0     H 4280   4.366   7.941   8.360 -3.3642  1.1827  1.4474
   32MOL0     H 4281   4.030   7.947   8.310 -0.8428 -2.4908 -0.1852
   32MOL0     H 4282   4.047   7.927   8.486 -1.1057  3.1873 -0.3525
   32MOL0     H 4283   4.158   8.024   8.398 -0.4037 -0.2804 -0.5871
   32MOL0     H 4284   3.793   7.769   8.088 -2.6668 -0.1379 -1.6253
   32MOL0     H 4285   3.573   7.711   8.016 -1.8642 -0.9942  1.1112
   32MOL0     H 4286   3.345   7.800   8.181  0.2481 -0.0169 -1.0188
   32MOL0     H 4287   3.343   7.729   8.020 -1.6748 -1.5482 -1.0022
   32MOL0     H 4288   3.140   7.606   8.191  0.8378  0.8299  2.2863
   32MOL0     H 4289   3.115   7.780   8.198  0.2931  1.1622 -1.2989
   32MOL0     H 4290   3.122   7.588   7.950  0.5746  0.7656 -0.8744
   32MOL0     H 4291   3.112   7.763   7.934  2.4583 -1.3389 -0.2629
   32MOL0     H 4292   2.932   7.581   8.099  1.1216  1.2808  1.7582
   32MOL0     H 4293   2.907   7.755   8.080 -1.0860  0.7871 -2.8905
   32MOL0     H 4294   2.862   7.734   7.834  1.9671  2.9268  3.4560
   32MOL0     H 4295   2.745   7.657   7.937 -0.0551 -3.6745  1.7697
   32MOL0     H 4296   2.983   7.519   7.808  0.9665 -1.8402  1.7298
   32MOL0     H 4297   2.869   7.429   7.899  2.5431  1.0643  1.9091
   32MOL0     H 4298   2.695   7.472   7.726 -0.1131  2.6747  0.9998
   32MOL0     H 4299   2.842   7.391   7.668  0.1748  0.4432 -1.0211
   32MOL0     H 4300   2.931   7.605   7.574  0.5098  1.0657 -0.5958
   32MOL0     H 4301   2.788   7.686   7.637  2.3521  0.4381  0.2177
   32MOL0     H 4302   3.479   7.565   8.399 -0.7334  0.9473  0.7553
   32MOL0     H 4303   3.721   7.620   8.467 -0.4242  1.9407  0.7699
   32MOL0     H 4304   4.200   7.478   8.324 -1.3983 -0.1630 -0.3714
   32MOL0     H 4305   4.431   7.532   8.273  0.4735 -1.0464  0.5323
   32MOL0     H 4306   6.019   6.971   9.013  0.3969 -1.1465  0.6379
   32MOL0     H 4307   6.130   6.796   9.153  1.0439 -1.0462 -0.7606
   32MOL0     H 4308   6.355   6.345   9.218 -0.3972 -1.7944  1.7473
   32MOL0     H 4309   6.518   6.219   9.328  1.6143  0.6109  0.7086
   32MOL0     H 4310   6.870   6.306   9.351  1.9614  1.0690  0.5516
   32MOL0     H 4311   6.878   6.413   9.496  0.4678  0.5947 -1.6442
   32MOL0     H 4312   6.926   6.111   9.470  1.9932  1.1043 -1.3230
   32MOL0     H 4313   6.873   6.175   9.623 -1.0054  0.1644 -0.4859
   32MOL0     H 4314   7.049   6.305   9.662 -0.3112  0.9492 -0.7231
   32MOL0     H 4315   7.093   6.319   9.482  2.2846 -0.2503  0.0735
   32MOL0     H 4316   7.165   6.074   9.494 -0.3930  2.3322 -1.4141
   32MOL0     H 4317   7.114   6.085   9.668 -0.0881  0.9076  0.3820
   32MOL0     H 4318   7.509   6.276   9.646  0.4674 -1.5958  0.6416
   32MOL0     H 4319   6.720   6.574   9.458 -0.7948 -1.0693  2.6797
   32MOL0     H 4320   6.546   6.717   9.326 -0.6024 -0.1946  0.4366
   33MOL0     O 4321   9.842  11.188  10.176  0.6050  0.2203  0.6538
   33MOL0     C 4322   9.888  11.219  10.064  0.2426 -0.4852  0.3024
   33MOL0     O 4323   9.832  11.313   9.984 -0.2436  0.4797  0.2302
   33MOL0     C 4324   9.707  11.372  10.019 -0.2400  0.5126 -0.2642
   33MOL0     C 4325   9.679  11.508  10.001 -0.4810  0.2382  0.4585
   33MOL0     C 4326   9.561  11.574  10.039  1.0621 -0.9288 -0.8661
   33MOL0     C 4327   9.457  11.494  10.107 -0.0360  0.8826  0.0880
   33MOL0     O 4328   9.344  11.535  10.169  0.3016 -0.2901  0.2021
   33MOL0     C 4329   9.307  11.667  10.128  0.4285  0.2216 -0.6732
   33MOL0     C 4330   9.178  11.689  10.209 -0.5745 -0.1086  1.0090
   33MOL0     C 4331   9.109  11.819  10.170  0.4352  0.2597 -0.7350
   33MOL0     C 4332   8.982  11.839  10.257 -0.6203  0.3047 -0.3976
   33MOL0     C 4333   8.877  11.730  10.250 -0.6542  1.3300 -0.3552
   33MOL0     C 4334   8.750  11.778  10.325  0.6293 -0.1125 -0.7704
   33MOL0     C 4335   8.619  11.716  10.273 -0.9684 -0.6364  0.0624
   33MOL0     C 4336   8.504  11.787  10.355  0.4586 -0.2243  0.0601
   33MOL0     N 4337   8.375  11.750  10.302 -0.8453 -0.3894  0.1285
   33MOL0     C 4338   8.294  11.653  10.356 -0.0152  0.0433 -0.0134
   33MOL0     C 4339   8.172  11.669  10.303  1.0793  0.3124  0.4302
   33MOL0     C 4340   8.064  11.561  10.316  0.8699  0.4098 -0.1751
   33MOL0     C 4341   7.927  11.622  10.351  0.5696  0.2873 -0.8557
   33MOL0     C 4342   7.872  11.710  10.239  0.7068  0.2669  0.5831
   33MOL0     C 4343   7.769  11.618  10.172 -0.0229 -0.2599 -0.5960
   33MOL0     O 4344   7.652  11.615  10.249  0.1086 -0.2282 -0.4128
   33MOL0     C 4345   7.543  11.536  10.209  0.0044  0.8377 -0.0145
   33MOL0     C 4346   7.551  11.437  10.114 -0.3338 -0.3283 -0.1054
   33MOL0     C 4347   7.442  11.359  10.086  0.2978 -0.2131  0.6394
   33MOL0     C 4348   7.462  11.246   9.993  0.4599  0.3548 -0.1045
   33MOL0     C 4349   7.311  11.383  10.144  0.4440  0.4427 -0.2746
   33MOL0     C 4350   7.176  11.318  10.108 -0.3390 -0.0977  0.5476
   33MOL0     O 4351   7.069  11.347  10.190 -1.2072  0.4972  0.0212
   33MOL0     C 4352   6.946  11.300  10.151 -0.7325 -0.3599  0.1811
   33MOL0     C 4353   6.914  11.168  10.128 -0.1341 -0.5615  0.7754
   33MOL0     C 4354   6.786  11.128  10.089  0.0696  0.0364  0.9076
   33MOL0     C 4355   6.679  11.220  10.083 -0.7913 -0.5152 -0.4851
   33MOL0     O 4356   6.556  11.187  10.036  0.0717  0.3135 -0.0148
   33MOL0     C 4357   6.524  11.052   9.992  0.4275  0.3899  0.4783
   33MOL0     C 4358   6.368  11.046   9.982  0.1180  0.2178 -0.3323
   33MOL0     C 4359   6.325  10.900   9.956  0.1819  0.5484 -0.0791
   33MOL0     C 4360   6.178  10.874  10.006  0.1188 -0.0170 -0.3320
   33MOL0     C 4361   6.134  10.733   9.978 -0.6310  0.1675  0.0268
   33MOL0     C 4362   5.986  10.717  10.004 -0.0915 -0.8832 -0.5008
   33MOL0     C 4363   5.895  10.781   9.893  0.6310 -0.5597 -0.6163
   33MOL0     C 4364   5.757  10.721   9.869  0.6779 -0.1206 -0.3775
   33MOL0    Cl 4365   5.671  10.724  10.026 -0.0466 -0.3882  0.3039
   33MOL0     C 4366   6.715  11.354  10.094  0.3994  0.8073  0.7517
   33MOL0     C 4367   6.847  11.396  10.128  0.1802 -0.3926 -0.1485
   33MOL0     O 4368   7.165  11.245  10.006 -0.3500  0.3368 -0.2531
   33MOL0     C 4369   7.303  11.480  10.235 -0.5060  0.2657  0.1850
   33MOL0     C 4370   7.421  11.555  10.271 -0.1679  0.1665  0.0395
   33MOL0     N 4371   8.178  11.780  10.232 -0.5743  0.2965  0.7894
   33MOL0     N 4372   8.291  11.837  10.233 -0.1684 -0.1521  0.1848
   33MOL0     C 4373   9.485  11.355  10.102  0.3056 -0.0720 -0.4632
   33MOL0     C 4374   9.606  11.294  10.072 -0.2803 -0.1362  0.3584
   33MOL0     C 4375  10.015  11.162  10.032  0.4506  0.3874  0.4253
   33MOL0     C 4376  10.068  11.048  10.101  0.3046 -0.0577 -0.6972
   33MOL0     C 4377  10.188  10.996  10.066 -0.7182  0.6677  0.3569
   33MOL0     C 4378  10.264  11.050   9.964 -0.4860  0.3844  0.4018
   33MOL0     O 4379  10.389  10.996   9.942  0.4050 -0.2672 -0.2319
   33MOL0     C 4380  10.480  11.074   9.865  0.6001 -0.0890 -0.3415
   33MOL0     C 4381  10.621  11.010   9.891  0.2807 -0.9587  0.2091
   33MOL0     C 4382  10.699  11.084  10.000  0.2447  0.0954 -0.1557
   33MOL0     C 4383  10.855  11.067   9.995 -0.4616  0.4026  0.4019
   33MOL0     C 4384  10.882  10.934  10.055 -0.5310 -0.0392  1.2712
   33MOL0     C 4385  10.906  10.826  10.107 -0.2278 -0.5027 -0.4581
   33MOL0     C 4386  10.206  11.154   9.886 -0.3515  0.3753  0.3300
   33MOL0     C 4387  10.090  11.216   9.926 -0.3048 -0.0376  0.0733
   33MOL0     H 4388   9.761  11.561   9.953 -2.0257  1.5180 -0.9171
   33MOL0     H 4389   9.539  11.679  10.028  1.9334 -0.7124 -0.5370
   33MOL0     H 4390   9.381  11.741  10.162 -0.9994  0.4696  2.1279
   33MOL0     H 4391   9.284  11.669  10.021  1.2921  0.9940 -0.8592
   33MOL0     H 4392   9.101  11.616  10.186 -0.6071  0.1710  0.2191
   33MOL0     H 4393   9.206  11.695  10.315  0.8708  0.6486  0.6143
   33MOL0     H 4394   9.173  11.902  10.199  0.3562  1.4215 -3.6398
   33MOL0     H 4395   9.093  11.843  10.065 -0.5655 -0.0249 -0.6549
   33MOL0     H 4396   9.001  11.847  10.365 -1.9147 -1.1913 -0.0151
   33MOL0     H 4397   8.941  11.932  10.218 -0.6100  0.2958 -0.4281
   33MOL0     H 4398   8.843  11.724  10.147 -1.0817 -1.9450 -0.1306
   33MOL0     H 4399   8.915  11.632  10.278 -0.9243  1.0457 -0.9626
   33MOL0     H 4400   8.752  11.777  10.434 -0.4230 -1.2469 -0.7295
   33MOL0     H 4401   8.732  11.881  10.294 -3.3663 -0.3166  0.4239
   33MOL0     H 4402   8.625  11.748  10.168  0.3919 -0.3548  0.2026
   33MOL0     H 4403   8.624  11.607  10.275 -1.0905 -0.6686 -0.8884
   33MOL0     H 4404   8.516  11.896  10.365  1.7536  0.0685 -3.3370
   33MOL0     H 4405   8.516  11.739  10.452  0.2377 -0.7788 -0.1827
   33MOL0     H 4406   8.321  11.567  10.416 -1.5035 -1.4728 -1.4206
   33MOL0     H 4407   8.057  11.505  10.223  0.3360 -2.0438  1.2489
   33MOL0     H 4408   8.091  11.492  10.397  0.1819  1.2309  0.7841
   33MOL0     H 4409   7.933  11.694  10.433 -1.4692 -0.5957  0.1170
   33MOL0     H 4410   7.867  11.536  10.381  1.2002 -0.6793 -2.2454
   33MOL0     H 4411   7.948  11.744  10.168 -0.8728  1.8701 -0.4385
   33MOL0     H 4412   7.824  11.801  10.277 -0.3469 -0.2602  0.5302
   33MOL0     H 4413   7.814  11.519  10.159  0.4021  0.0851 -1.8951
   33MOL0     H 4414   7.750  11.665  10.075  0.4542  2.1139  0.3814
   33MOL0     H 4415   7.643  11.396  10.073  1.3263  0.7845  2.2706
   33MOL0     H 4416   7.423  11.272   9.894  0.5068  2.1187  0.2922
   33MOL0     H 4417   7.566  11.213   9.990 -0.1554 -1.8176  0.5955
   33MOL0     H 4418   7.401  11.164  10.032  1.1364 -1.1179 -2.0292
   33MOL0     H 4419   6.987  11.087  10.134  1.4366  0.6674 -0.7051
   33MOL0     H 4420   6.776  11.024  10.060  0.1214  0.0046  0.9990
   33MOL0     H 4421   6.568  11.037   9.894 -1.6519  2.8540 -0.9598
   33MOL0     H 4422   6.562  10.985  10.070 -1.0144  1.6813  2.4194
   33MOL0     H 4423   6.328  11.090  10.073  2.5816  3.0144 -0.4630
   33MOL0     H 4424   6.336  11.110   9.899  2.7512  2.2600  0.0671
   33MOL0     H 4425   6.390  10.824  10.002 -0.8450  0.1506  0.7683
   33MOL0     H 4426   6.334  10.892   9.847 -2.0574 -1.5931 -0.2031
   33MOL0     H 4427   6.171  10.894  10.113  0.9723  3.0900 -0.7320
   33MOL0     H 4428   6.120  10.952   9.955 -0.8753 -0.3248  0.3099
   33MOL0     H 4429   6.180  10.661  10.046  1.0867 -0.0529 -1.3211
   33MOL0     H 4430   6.159  10.690   9.881 -2.7117 -1.3238  0.0887
   33MOL0     H 4431   5.962  10.610  10.000 -0.5294 -0.7600 -2.3219
   33MOL0     H 4432   5.968  10.758  10.104  0.1285  2.2059 -1.6216
   33MOL0     H 4433   5.944  10.785   9.795 -1.1297  1.2574 -1.4818
   33MOL0     H 4434   5.869  10.883   9.922 -0.9012 -1.8966  3.3597
   33MOL0     H 4435   5.760  10.620   9.828 -2.7153 -0.2608 -0.5741
   33MOL0     H 4436   5.707  10.792   9.802 -0.6833  0.3222  1.0442
   33MOL0     H 4437   6.635  11.426  10.081  2.0152  3.0246  2.3672
   33MOL0     H 4438   6.871  11.501  10.136  0.4848 -0.4397 -0.3832
   33MOL0     H 4439   7.216  11.504  10.297 -0.1166  4.4769 -0.5897
   33MOL0     H 4440   7.407  11.634  10.344 -0.0804  1.1668 -1.0041
   33MOL0     H 4441   9.413  11.285  10.143 -0.3432  0.4829 -0.6377
   33MOL0     H 4442   9.626  11.187  10.067  1.9545  0.2848 -0.9558
   33MOL0     H 4443  10.010  10.995  10.176 -0.5612  2.3736  0.4635
   33MOL0     H 4444  10.227  10.911  10.120  1.4624 -0.4491 -2.7222
   33MOL0     H 4445  10.437  11.060   9.766 -0.7313  0.4294  0.1482
   33MOL0     H 4446  10.479  11.179   9.894  0.0953 -0.6354  1.7912
   33MOL0     H 4447  10.683  11.021   9.801  1.5250 -1.8278  0.9386
   33MOL0     H 4448  10.604  10.906   9.918 -0.6364 -1.5544 -2.2949
   33MOL0     H 4449  10.677  11.041  10.099  2.0277  2.0168  1.1737
   33MOL0     H 4450  10.668  11.188   9.999 -1.0190 -0.1991  1.7585
   33MOL0     H 4451  10.914  11.139  10.052 -0.0631  1.4208 -1.2354
   33MOL0     H 4452  10.876  11.074   9.888  0.9908 -1.9431  0.4434
   33MOL0     H 4453  10.934  10.737  10.161 -1.2763 -0.0331  0.9367
   33MOL0     H 4454  10.262  11.194   9.802  1.3962  0.8451  1.6486
   33MOL0     H 4455  10.045  11.300   9.875 -0.2346  0.4873  0.8636
   34MOL0     O 4456   8.226   3.101  10.055 -0.3502 -0.1226  0.0749
   34MOL0     C 4457   8.308   3.089   9.957  0.7846 -0.9224 -0.7717
   34MOL0     O 4458   8.285   3.009   9.848 -0.2485 -0.4338  0.2995
   34MOL0     C 4459   8.176   2.918   9.854  0.0304 -0.0019 -0.6435
   34MOL0     C 4460   8.040   2.945   9.882 -0.4428 -0.1110  0.2222
   34MOL0     C 4461   7.944   2.849   9.849 -0.0656  0.3584  0.1399
   34MOL0     C 4462   7.973   2.716   9.821  0.1222  0.6151  0.8072
   34MOL0     O 4463   7.862   2.625   9.813 -0.4716 -0.0797  0.1213
   34MOL0     C 4464   7.899   2.486   9.826  0.6539 -0.2218  0.2609
   34MOL0     C 4465   7.928   2.454   9.971  0.4952 -0.1261  0.6470
   34MOL0     C 4466   7.902   2.308   9.994  0.7154  0.0035 -0.9359
   34MOL0     C 4467   7.969   2.251  10.116  0.0990 -0.9577  0.2450
   34MOL0     C 4468   7.944   2.095  10.134  0.2843 -0.3574  0.3242
   34MOL0     C 4469   7.963   2.046  10.280 -0.3883  0.3962  0.0503
   34MOL0     C 4470   7.878   1.919  10.305 -0.6179 -0.3252  0.0006
   34MOL0     C 4471   7.727   1.930  10.300  0.1627 -0.2404 -0.2889
   34MOL0     N 4472   7.660   1.797  10.333 -0.0941 -0.3751 -0.5174
   34MOL0     C 4473   7.643   1.700  10.242  0.4127 -0.0503  0.3236
   34MOL0     C 4474   7.581   1.590  10.296  0.1355 -0.9553 -0.6038
   34MOL0     C 4475   7.556   1.462  10.233 -0.0907  0.5552  0.1186
   34MOL0     C 4476   7.415   1.426  10.183 -0.1471  0.6788  0.1874
   34MOL0     C 4477   7.303   1.428  10.288 -0.1968 -0.9474  0.0526
   34MOL0     C 4478   7.162   1.427  10.228  0.6242  0.3210 -0.1062
   34MOL0     O 4479   7.072   1.382  10.339 -1.0078 -0.3429 -0.0279
   34MOL0     C 4480   6.929   1.402  10.326  0.0967  0.0367  0.9735
   34MOL0     C 4481   6.849   1.365  10.435 -0.1059  0.1488  0.6277
   34MOL0     C 4482   6.713   1.384  10.435  1.0438  0.0751 -0.6181
   34MOL0     C 4483   6.635   1.326  10.556 -0.0104  0.4398  0.2963
   34MOL0     C 4484   6.648   1.426  10.316 -0.2817  0.4737 -0.6081
   34MOL0     C 4485   6.499   1.443  10.303  0.1856  1.2542 -0.0680
   34MOL0     O 4486   6.453   1.474  10.177 -0.1104  0.0023 -0.1644
   34MOL0     C 4487   6.320   1.473  10.136 -0.7162  0.7085  0.8833
   34MOL0     C 4488   6.204   1.490  10.215  0.8022  0.2466  0.2311
   34MOL0     C 4489   6.077   1.496  10.155  0.0685 -0.3779 -0.1691
   34MOL0     C 4490   6.064   1.511  10.011  0.0016 -0.1717  0.9175
   34MOL0     O 4491   5.945   1.534   9.945  0.4157  0.3241  0.1647
   34MOL0     C 4492   5.827   1.566  10.025 -0.4570  0.1541 -0.0259
   34MOL0     C 4493   5.733   1.611   9.917  0.1166  0.5785 -0.0198
   34MOL0     C 4494   5.602   1.669   9.974  0.2470  1.2491 -0.4722
   34MOL0     C 4495   5.479   1.644   9.882 -0.0013  0.0868  1.0167
   34MOL0     C 4496   5.361   1.740   9.924  0.1478 -0.1094  0.5968
   34MOL0     C 4497   5.244   1.728   9.812  1.0406  0.0024  0.2027
   34MOL0     C 4498   5.293   1.794   9.686  0.2892 -0.6598  0.1709
   34MOL0     C 4499   5.174   1.834   9.602 -0.0468  0.5486 -0.5365
   34MOL0    Cl 4500   5.225   1.878   9.440 -0.1902  0.0930  0.4205
   34MOL0     C 4501   6.178   1.492   9.931 -0.8790  0.0974 -0.2977
   34MOL0     C 4502   6.303   1.478   9.995  0.2982 -0.1374 -0.0597
   34MOL0     O 4503   6.427   1.407  10.397  0.4261  0.3018 -0.5016
   34MOL0     C 4504   6.727   1.460  10.202  0.7800 -0.5186  0.3985
   34MOL0     C 4505   6.862   1.449  10.211 -0.6253  0.2631 -0.4251
   34MOL0     N 4506   7.559   1.629  10.427 -0.3877  0.0072 -0.0393
   34MOL0     N 4507   7.607   1.754  10.454 -0.1515 -0.5162  0.0410
   34MOL0     C 4508   8.110   2.689   9.803  0.0501  0.3172 -0.2464
   34MOL0     C 4509   8.206   2.794   9.808 -0.3339 -0.0066 -0.8516
   34MOL0     C 4510   8.434   3.167   9.963  0.3471  0.7146  0.0350
   34MOL0     C 4511   8.544   3.134   9.889  0.6795 -1.1710  0.7417
   34MOL0     C 4512   8.657   3.224   9.886 -0.3597  0.1651  0.7651
   34MOL0     C 4513   8.666   3.325   9.976  0.7941  0.8727  0.4035
   34MOL0     O 4514   8.774   3.406   9.999  0.0021 -0.5501  0.9249
   34MOL0     C 4515   8.904   3.375   9.955 -0.3238  0.0040 -0.6010
   34MOL0     C 4516   8.995   3.487  10.007 -0.0173  0.4487 -0.6626
   34MOL0     C 4517   8.993   3.490  10.163  0.7328 -0.4021 -0.1960
   34MOL0     C 4518   8.905   3.604  10.215  0.9535 -0.6103 -0.0664
   34MOL0     C 4519   8.893   3.609  10.361 -0.6435 -0.7797 -0.0155
   34MOL0     C 4520   8.909   3.611  10.484  1.0454 -0.4662  0.4986
   34MOL0     C 4521   8.562   3.342  10.063 -0.1880  0.9386 -0.5579
   34MOL0     C 4522   8.439   3.273  10.052 -0.6058 -1.0442 -0.6243
   34MOL0     H 4523   8.003   3.043   9.906 -1.9035  0.0000 -2.0926
   34MOL0     H 4524   7.841   2.883   9.845 -0.2248 -0.0981  0.3026
   34MOL0     H 4525   7.812   2.434   9.787 -0.0370  0.9701  0.1662
   34MOL0     H 4526   7.986   2.462   9.764  1.1360  2.0930 -0.0548
   34MOL0     H 4527   8.025   2.490  10.008  0.2933  0.2351  0.8305
   34MOL0     H 4528   7.848   2.507  10.022  1.6198  0.4279  1.8962
   34MOL0     H 4529   7.797   2.293  10.021  1.0452 -1.4148 -0.3461
   34MOL0     H 4530   7.926   2.247   9.906  0.9557 -0.1024 -0.7967
   34MOL0     H 4531   8.076   2.271  10.112  0.2001 -1.6347 -1.0248
   34MOL0     H 4532   7.933   2.301  10.207  2.5539  0.9138  0.2748
   34MOL0     H 4533   7.844   2.074  10.096  0.6565  1.3778 -1.8060
   34MOL0     H 4534   8.006   2.042  10.061 -1.3778 -1.9491 -0.0116
   34MOL0     H 4535   8.067   2.012  10.281 -0.5682 -0.2444  2.3255
   34MOL0     H 4536   7.941   2.123  10.354  2.4686  0.1938  1.2547
   34MOL0     H 4537   7.915   1.840  10.239 -0.7888  0.4925 -1.0909
   34MOL0     H 4538   7.891   1.884  10.408  0.1664 -1.1243 -0.3590
   34MOL0     H 4539   7.686   1.955  10.201  0.4863  1.4265 -0.0307
   34MOL0     H 4540   7.691   2.006  10.369 -3.2348  0.6113 -2.7428
   34MOL0     H 4541   7.663   1.716  10.137 -1.1349 -2.1012 -0.3437
   34MOL0     H 4542   7.626   1.453  10.150 -0.1391  0.7682  0.0541
   34MOL0     H 4543   7.582   1.385  10.306 -1.6227 -0.7648 -0.6594
   34MOL0     H 4544   7.417   1.332  10.128 -2.1537  1.0573 -0.6177
   34MOL0     H 4545   7.382   1.504  10.114 -1.3553 -0.2775 -0.3501
   34MOL0     H 4546   7.312   1.516  10.351  3.1429 -2.1631  1.5024
   34MOL0     H 4547   7.307   1.341  10.355  0.7240 -1.6771 -0.8995
   34MOL0     H 4548   7.152   1.363  10.140 -3.3074  1.4193 -0.6663
   34MOL0     H 4549   7.128   1.527  10.199 -3.6229 -0.9125 -0.1367
   34MOL0     H 4550   6.905   1.333  10.523 -0.5541 -2.3698  0.0815
   34MOL0     H 4551   6.702   1.270  10.623 -0.0665 -1.2490 -0.9835
   34MOL0     H 4552   6.585   1.407  10.609 -0.3333  0.3886  0.0767
   34MOL0     H 4553   6.572   1.243  10.522  3.2510 -0.5743 -4.1989
   34MOL0     H 4554   6.212   1.497  10.323  0.0880  3.2153  0.1880
   34MOL0     H 4555   5.990   1.519  10.216  1.3953 -0.5657  1.8862
   34MOL0     H 4556   5.775   1.483  10.074 -0.8887  0.2746 -0.2811
   34MOL0     H 4557   5.848   1.647  10.096  0.5928  0.3012 -0.4774
   34MOL0     H 4558   5.785   1.691   9.864 -0.1041  1.1729  0.6394
   34MOL0     H 4559   5.709   1.530   9.848 -1.5569  1.4695 -0.5430
   34MOL0     H 4560   5.608   1.778   9.975  0.5412  1.2483  1.5033
   34MOL0     H 4561   5.582   1.625  10.072 -2.3062  2.4832 -0.3576
   34MOL0     H 4562   5.506   1.665   9.778 -2.3904  0.7422  0.4653
   34MOL0     H 4563   5.447   1.540   9.881 -0.3870  0.1604 -1.8185
   34MOL0     H 4564   5.396   1.843   9.923 -0.3501  0.0655  0.9880
   34MOL0     H 4565   5.329   1.715  10.025  0.1751 -2.5006  0.0761
   34MOL0     H 4566   5.215   1.623   9.799  1.7508 -0.8561  4.1077
   34MOL0     H 4567   5.150   1.771   9.847 -0.1233  0.1317 -2.7620
   34MOL0     H 4568   5.358   1.731   9.625 -0.5476 -0.5529 -0.8628
   34MOL0     H 4569   5.346   1.886   9.713 -0.8250  0.0601 -0.0223
   34MOL0     H 4570   5.116   1.913   9.650 -1.3304  0.7744 -2.3291
   34MOL0     H 4571   5.108   1.747   9.602  0.8863 -0.2234  1.2676
   34MOL0     H 4572   6.167   1.491   9.823 -0.9152 -2.2407 -0.3288
   34MOL0     H 4573   6.398   1.475   9.943  0.8936 -1.1220  1.0105
   34MOL0     H 4574   6.680   1.497  10.111 -0.1921 -1.0690  0.6598
   34MOL0     H 4575   6.919   1.468  10.120 -1.8995  0.3814 -1.2220
   34MOL0     H 4576   8.154   2.593   9.776 -0.3157 -0.1372  0.7208
   34MOL0     H 4577   8.309   2.776   9.780 -0.4910 -1.2565 -0.6960
   34MOL0     H 4578   8.549   3.040   9.835  1.4770 -0.7731  0.0863
   34MOL0     H 4579   8.737   3.211   9.813  1.1468 -2.6440  2.7088
   34MOL0     H 4580   8.932   3.280  10.001  0.3069  0.5501  0.1956
   34MOL0     H 4581   8.911   3.373   9.846 -2.2571 -2.1922 -0.7518
   34MOL0     H 4582   8.955   3.575   9.955 -0.2110  0.1863 -0.9563
   34MOL0     H 4583   9.095   3.487   9.962 -0.5427  5.0903 -2.4296
   34MOL0     H 4584   9.096   3.493  10.198  0.4269 -0.5705  0.7386
   34MOL0     H 4585   8.958   3.400  10.215 -0.9238  1.8074  2.8191
   34MOL0     H 4586   8.808   3.575  10.175  0.3822 -0.8807  1.4873
   34MOL0     H 4587   8.937   3.699  10.170 -1.1145  1.0416  1.7617
   34MOL0     H 4588   8.926   3.611  10.590  3.4291 -0.6828  0.1848
   34MOL0     H 4589   8.588   3.416  10.139  0.8424 -1.4048  1.5000
   34MOL0     H 4590   8.359   3.310  10.115 -0.4239  0.7818 -1.4154
   35MOL0     O 4591   1.659   9.618   6.874 -0.0269  0.3063 -0.4950
   35MOL0     C 4592   1.735   9.653   6.964  0.5954 -0.2737 -0.1917
   35MOL0     O 4593   1.873   9.649   6.957 -0.2779 -0.4102  0.4254
   35MOL0     C 4594   1.937   9.581   6.857  0.1357  1.1299  0.5172
   35MOL0     C 4595   1.926   9.446   6.807 -0.3965 -0.1666 -0.5475
   35MOL0     C 4596   2.003   9.407   6.692  0.8661 -0.5155 -0.8008
   35MOL0     C 4597   2.076   9.488   6.617 -0.5582 -1.2782  0.0940
   35MOL0     O 4598   2.149   9.461   6.509 -0.1333 -0.4790  0.6753
   35MOL0     C 4599   2.203   9.328   6.497  0.5110 -0.0122  1.2247
   35MOL0     C 4600   2.163   9.278   6.361 -0.1917  0.0311 -0.4858
   35MOL0     C 4601   2.017   9.292   6.315  1.0355 -0.7960 -0.3408
   35MOL0     C 4602   1.986   9.209   6.188 -1.2041 -0.0157  0.2306
   35MOL0     C 4603   1.840   9.237   6.148 -0.3261 -0.2321  0.1809
   35MOL0     C 4604   1.738   9.158   6.219  0.2602 -0.0594  0.3513
   35MOL0     C 4605   1.600   9.224   6.201  0.2888  0.5283 -0.6473
   35MOL0     C 4606   1.532   9.200   6.064 -1.1645 -0.3629 -0.5356
   35MOL0     N 4607   1.428   9.297   6.056  0.1076 -0.2950 -0.2915
   35MOL0     C 4608   1.435   9.427   6.007 -0.8679  0.5130  0.8185
   35MOL0     C 4609   1.312   9.476   6.007 -0.0374  0.4894  0.9066
   35MOL0     C 4610   1.272   9.612   5.957 -0.0988 -0.4352 -0.3591
   35MOL0     C 4611   1.195   9.590   5.824 -0.7304  0.4965 -0.3135
   35MOL0     C 4612   1.155   9.724   5.756  0.6793 -0.1017  0.0794
   35MOL0     C 4613   1.018   9.787   5.798 -0.6106  0.3475 -0.0653
   35MOL0     O 4614   1.034   9.834   5.930  0.3747 -0.4589 -0.2605
   35MOL0     C 4615   0.932   9.924   5.974  0.2909  0.0748 -0.4953
   35MOL0     C 4616   0.805   9.936   5.923 -0.0655  0.6169 -0.0378
   35MOL0     C 4617   0.718  10.024   5.978  0.8249  0.3328 -0.1721
   35MOL0     C 4618   0.578  10.035   5.905  0.2541 -0.4260  0.0630
   35MOL0     C 4619   0.752  10.101   6.096  0.3835  0.0994  0.1806
   35MOL0     C 4620   0.661  10.194   6.166  0.6525  0.6444 -1.1496
   35MOL0     O 4621   0.717  10.274   6.260  0.1224 -0.1769 -0.3338
   35MOL0     C 4622   0.655  10.349   6.358  0.1936  0.1574  0.8863
   35MOL0     C 4623   0.518  10.379   6.370 -0.2121  0.1121  0.5495
   35MOL0     C 4624   0.473  10.468   6.467 -0.7065  0.1110  0.1470
   35MOL0     C 4625   0.561  10.533   6.554 -1.0510  0.6863 -0.4353
   35MOL0     O 4626   0.506  10.621   6.644 -0.5625  0.6310  0.1243
   35MOL0     C 4627   0.596  10.670   6.741  0.1624 -0.4598  0.1299
   35MOL0     C 4628   0.523  10.749   6.859 -0.7197 -0.1629 -0.5090
   35MOL0     C 4629   0.467  10.883   6.809  0.9197 -0.5714 -1.0741
   35MOL0     C 4630   0.416  10.951   6.937 -0.2022  0.5754  0.0735
   35MOL0     C 4631   0.371  11.090   6.891 -0.4117 -0.6214 -0.1001
   35MOL0     C 4632   0.327  11.185   6.999  0.2767  0.5175  0.3620
   35MOL0     C 4633   0.204  11.267   6.958 -0.1091  0.0029 -0.2166
   35MOL0     C 4634   0.181  11.388   7.047  0.6562  0.6389 -0.0050
   35MOL0    Cl 4635   0.328  11.490   7.026  0.0807 -0.2073 -0.2659
   35MOL0     C 4636   0.697  10.504   6.550 -0.2130  0.5187  0.6078
   35MOL0     C 4637   0.738  10.409   6.448  0.1365 -0.6723 -0.1369
   35MOL0     O 4638   0.535  10.180   6.157 -0.4821  0.2859  0.8249
   35MOL0     C 4639   0.879  10.076   6.165 -0.0439 -0.1884  0.5046
   35MOL0     C 4640   0.962   9.995   6.093 -0.0268 -0.1449 -1.0420
   35MOL0     N 4641   1.230   9.381   6.070 -1.0333 -0.2652 -0.4122
   35MOL0     N 4642   1.301   9.277   6.088 -0.7974  0.8566  0.5555
   35MOL0     C 4643   2.087   9.624   6.662  0.2210 -0.2372  0.7889
   35MOL0     C 4644   2.022   9.669   6.782 -0.3101 -0.3997  0.0355
   35MOL0     C 4645   1.669   9.706   7.084 -0.3371 -0.9664  1.1312
   35MOL0     C 4646   1.745   9.729   7.198 -0.3250  0.4040  0.4501
   35MOL0     C 4647   1.683   9.751   7.318 -0.3495 -0.5184  0.3655
   35MOL0     C 4648   1.540   9.760   7.327 -0.6262 -0.3195  0.4524
   35MOL0     O 4649   1.464   9.762   7.442 -0.5091 -0.2952  0.4310
   35MOL0     C 4650   1.510   9.775   7.579  0.2316  0.5180  0.7220
   35MOL0     C 4651   1.562   9.917   7.608 -0.2983 -0.4626 -0.7645
   35MOL0     C 4652   1.602   9.932   7.754 -0.1469 -0.1271  0.7273
   35MOL0     C 4653   1.640  10.082   7.788 -0.1741  0.1623 -0.3249
   35MOL0     C 4654   1.772  10.118   7.735  0.1961  0.2278 -0.0450
   35MOL0     C 4655   1.874  10.144   7.676  0.3825  0.9035  0.2728
   35MOL0     C 4656   1.468   9.740   7.210 -0.1704 -0.0593  0.0249
   35MOL0     C 4657   1.528   9.712   7.089  1.3808 -0.9255  0.5785
   35MOL0     H 4658   1.854   9.378   6.852 -2.0652  0.3537 -2.3062
   35MOL0     H 4659   1.995   9.302   6.666  0.7591 -0.2545 -1.8764
   35MOL0     H 4660   2.311   9.348   6.495 -0.0047  3.1619  0.7826
   35MOL0     H 4661   2.180   9.254   6.574 -1.5290  0.3001  0.9588
   35MOL0     H 4662   2.230   9.330   6.292  0.5698 -1.2043 -0.7145
   35MOL0     H 4663   2.200   9.175   6.365 -0.7323 -0.1639 -0.3519
   35MOL0     H 4664   1.944   9.263   6.391 -1.1236  0.3900 -1.8329
   35MOL0     H 4665   2.003   9.399   6.292  1.5103 -0.9888 -1.6271
   35MOL0     H 4666   2.054   9.249   6.113  1.6316 -0.3776  2.4362
   35MOL0     H 4667   2.022   9.106   6.190 -0.5678  0.1127 -1.9079
   35MOL0     H 4668   1.804   9.338   6.166  0.4885  0.2451 -0.7582
   35MOL0     H 4669   1.843   9.234   6.038 -1.0267  0.0739  0.1506
   35MOL0     H 4670   1.736   9.056   6.179 -1.6858  1.0525 -2.8372
   35MOL0     H 4671   1.766   9.164   6.324  0.7970  2.9201  0.1353
   35MOL0     H 4672   1.532   9.178   6.273  2.5400 -0.4006  0.9975
   35MOL0     H 4673   1.606   9.331   6.218  1.5185  0.4689 -0.5511
   35MOL0     H 4674   1.490   9.099   6.051 -1.8752  0.0600 -1.6469
   35MOL0     H 4675   1.593   9.227   5.977 -2.1930 -2.2606 -1.9452
   35MOL0     H 4676   1.527   9.471   5.970  0.8830 -2.0674  1.8017
   35MOL0     H 4677   1.212   9.665   6.033 -0.0268  1.1458 -1.3511
   35MOL0     H 4678   1.363   9.669   5.934  0.9889 -2.7780 -2.1494
   35MOL0     H 4679   1.106   9.529   5.842 -0.3395 -0.3478 -1.1471
   35MOL0     H 4680   1.255   9.540   5.748  0.1029  0.7150  0.1886
   35MOL0     H 4681   1.154   9.701   5.649  1.9460  1.4046 -0.3078
   35MOL0     H 4682   1.236   9.798   5.764  1.6443 -1.1163 -0.0843
   35MOL0     H 4683   0.938   9.712   5.802  0.9815 -1.4313 -0.4809
   35MOL0     H 4684   0.997   9.872   5.732  0.6783  1.6177  1.1008
   35MOL0     H 4685   0.773   9.864   5.849 -1.6752  1.6449 -0.3811
   35MOL0     H 4686   0.578   9.987   5.806 -1.7893  2.3468 -1.4104
   35MOL0     H 4687   0.495   9.987   5.957 -0.5540 -0.8923 -1.5846
   35MOL0     H 4688   0.551  10.141   5.900  0.2011 -0.4171  0.5265
   35MOL0     H 4689   0.446  10.331   6.305 -1.7646  0.1414  2.1727
   35MOL0     H 4690   0.367  10.488   6.480 -0.2496  2.2637  1.0389
   35MOL0     H 4691   0.652  10.586   6.783  0.6453  0.3939  1.2496
   35MOL0     H 4692   0.665  10.734   6.684  0.4616 -0.6891  0.2333
   35MOL0     H 4693   0.461  10.681   6.918  1.9795 -0.8853  1.7136
   35MOL0     H 4694   0.598  10.774   6.935 -0.6425 -0.6779 -0.4143
   35MOL0     H 4695   0.386  10.869   6.737  0.8231  0.0652 -1.0945
   35MOL0     H 4696   0.553  10.940   6.774  2.0143 -0.5879  1.3817
   35MOL0     H 4697   0.330  10.899   6.980 -0.1065  1.1188  0.9382
   35MOL0     H 4698   0.498  10.954   7.008 -1.0383  0.8997  1.0472
   35MOL0     H 4699   0.292  11.072   6.818 -0.2031 -1.9643 -0.0189
   35MOL0     H 4700   0.450  11.142   6.836 -0.9847 -1.0739 -1.3681
   35MOL0     H 4701   0.282  11.130   7.083  2.3130 -1.3093  0.3527
   35MOL0     H 4702   0.416  11.236   7.036  0.8972 -1.6701  2.1078
   35MOL0     H 4703   0.120  11.197   6.963  0.3022 -0.5823 -1.0655
   35MOL0     H 4704   0.215  11.309   6.858  3.9914  0.5121  0.2868
   35MOL0     H 4705   0.165  11.347   7.148 -0.9839 -0.8440 -0.7963
   35MOL0     H 4706   0.091  11.446   7.024 -0.6998 -0.5191  1.9937
   35MOL0     H 4707   0.771  10.543   6.619 -0.0592  2.0181 -0.3517
   35MOL0     H 4708   0.847  10.403   6.440  0.2985  1.3385 -0.0844
   35MOL0     H 4709   0.904  10.108   6.266 -1.3503 -0.5167  0.9584
   35MOL0     H 4710   1.048   9.964   6.152 -1.5913 -0.6378  1.0899
   35MOL0     H 4711   2.140   9.691   6.595  0.2716 -2.9426 -2.1393
   35MOL0     H 4712   2.032   9.769   6.822  1.9133 -1.7335  3.2103
   35MOL0     H 4713   1.853   9.718   7.198 -0.4935 -1.9210 -0.6277
   35MOL0     H 4714   1.754   9.747   7.400  3.3920 -0.6476 -2.6294
   35MOL0     H 4715   1.423   9.757   7.642  0.5342 -1.9993  0.5236
   35MOL0     H 4716   1.580   9.694   7.603 -1.9650 -1.0108  2.3221
   35MOL0     H 4717   1.487   9.988   7.573  0.7490  0.0910 -1.9803
   35MOL0     H 4718   1.651   9.938   7.547  1.5279  0.1209  1.9129
   35MOL0     H 4719   1.692   9.872   7.773  1.8743  2.9421  1.5319
   35MOL0     H 4720   1.517   9.902   7.815  0.5902 -2.0898  0.8749
   35MOL0     H 4721   1.652  10.094   7.896 -2.6109  0.5637 -0.0450
   35MOL0     H 4722   1.561  10.145   7.748 -0.8303  0.9390  2.0503
   35MOL0     H 4723   1.969  10.171   7.635 -0.6426  4.1434 -0.3177
   35MOL0     H 4724   1.361   9.751   7.218  0.2025  4.0948  1.4923
   35MOL0     H 4725   1.455   9.687   7.014 -0.6382 -0.3001  2.2314
   36MOL0     O 4726   1.240   8.223   8.926 -0.0704 -0.8527 -0.5030
   36MOL0     C 4727   1.281   8.143   9.010  0.3117  0.9284  0.0845
   36MOL0     O 4728   1.214   8.045   9.069 -0.8185  0.8331  0.0077
   36MOL0     C 4729   1.078   8.055   9.087 -0.7292 -0.4735  0.1594
   36MOL0     C 4730   1.005   7.938   9.059 -0.7361 -0.5291  0.0534
   36MOL0     C 4731   0.871   7.937   9.078 -0.1937 -0.0560 -0.8193
   36MOL0     C 4732   0.798   8.056   9.090  0.0966 -0.1578  0.6706
   36MOL0     O 4733   0.660   8.050   9.070  0.5595 -0.6006  0.0555
   36MOL0     C 4734   0.609   7.955   8.975  0.7611 -0.3724  0.5779
   36MOL0     C 4735   0.459   7.982   8.977  0.7032  0.3625  0.4042
   36MOL0     C 4736   0.422   8.113   8.933  0.4332 -0.1338  0.8183
   36MOL0     C 4737   0.268   8.137   8.911  0.5272  0.3569 -0.0539
   36MOL0     C 4738   0.230   8.275   8.859  0.3162 -0.1957 -0.7009
   36MOL0     C 4739   0.084   8.309   8.857 -0.2835  0.9677 -0.1849
   36MOL0     C 4740  -0.003   8.284   8.978  0.4802  0.0147  0.6135
   36MOL0     C 4741   0.055   8.353   9.104  0.1683 -0.5066 -0.3487
   36MOL0     N 4742  -0.032   8.368   9.221 -0.2686 -0.6781 -0.1721
   36MOL0     C 4743  -0.162   8.324   9.231 -1.0651  0.2522  0.8522
   36MOL0     C 4744  -0.197   8.343   9.355  0.2646  0.8772  0.4262
   36MOL0     C 4745  -0.331   8.301   9.413 -0.9887  0.5626 -0.4867
   36MOL0     C 4746  -0.456   8.380   9.351  0.4960  0.3860  0.9972
   36MOL0     C 4747  -0.446   8.524   9.406  0.2496  0.0259 -0.2006
   36MOL0     C 4748  -0.525   8.576   9.520 -0.6514  0.5498  0.4489
   36MOL0     O 4749  -0.665   8.573   9.491  0.1699 -0.1562 -0.2882
   36MOL0     C 4750  -0.741   8.684   9.514  0.2465  0.8232 -0.1890
   36MOL0     C 4751  -0.713   8.792   9.600  0.3783  0.4640 -0.6668
   36MOL0     C 4752  -0.798   8.902   9.617 -0.3101 -0.0071  0.6431
   36MOL0     C 4753  -0.751   8.990   9.731 -0.1321  0.5203 -0.3690
   36MOL0     C 4754  -0.903   8.923   9.525 -0.3572 -0.3157  0.2989
   36MOL0     C 4755  -1.011   9.025   9.534  0.6625 -0.0449 -0.3167
   36MOL0     O 4756  -1.068   9.070   9.419  0.5363 -0.2318  0.8190
   36MOL0     C 4757  -1.183   9.144   9.417  0.2291  0.1861  1.1588
   36MOL0     C 4758  -1.189   9.260   9.335 -0.3277  0.5647 -0.4958
   36MOL0     C 4759  -1.315   9.319   9.309 -0.4857  0.8226 -0.1133
   36MOL0     C 4760  -1.442   9.268   9.353 -0.2293 -0.4697 -1.0559
   36MOL0     O 4761  -1.561   9.312   9.302 -0.2384 -0.7359 -0.3442
   36MOL0     C 4762  -1.694   9.258   9.327 -0.0862  0.3797 -0.3945
   36MOL0     C 4763  -1.773   9.350   9.426  0.2733 -0.2828 -0.9177
   36MOL0     C 4764  -1.872   9.275   9.507  0.0761  0.0667  0.2613
   36MOL0     C 4765  -1.933   9.371   9.616 -0.5286  0.4217  0.3620
   36MOL0     C 4766  -2.063   9.317   9.672  0.4711 -0.2193  0.3229
   36MOL0     C 4767  -2.144   9.418   9.757 -0.4057 -0.4509 -0.6335
   36MOL0     C 4768  -2.281   9.360   9.778  0.3837  0.2081  0.0771
   36MOL0     C 4769  -2.355   9.471   9.845  0.1318 -0.9313  0.3789
   36MOL0    Cl 4770  -2.479   9.397   9.940  0.0107  0.1612  0.0758
   36MOL0     C 4771  -1.432   9.170   9.447 -0.5914  0.6734 -0.4667
   36MOL0     C 4772  -1.300   9.115   9.487  0.3710 -0.0033  0.9773
   36MOL0     O 4773  -1.056   9.050   9.646 -0.7312 -0.1915 -0.1669
   36MOL0     C 4774  -0.925   8.822   9.421 -0.4525 -0.1524  0.0574
   36MOL0     C 4775  -0.847   8.708   9.421  0.1995 -0.0019 -0.1912
   36MOL0     N 4776  -0.093   8.398   9.423 -0.1356  0.2463  0.5097
   36MOL0     N 4777   0.010   8.416   9.342  0.4192  0.4477  0.0963
   36MOL0     C 4778   0.867   8.175   9.102 -0.4658 -0.7295 -0.5713
   36MOL0     C 4779   1.010   8.178   9.117 -0.0880 -0.1156  0.2090
   36MOL0     C 4780   1.430   8.140   9.037  0.3651 -0.0624 -0.6027
   36MOL0     C 4781   1.494   8.035   9.107  0.7335  0.4593 -0.4485
   36MOL0     C 4782   1.629   8.045   9.120 -0.4137  0.8792 -0.3619
   36MOL0     C 4783   1.715   8.138   9.060 -0.7371 -0.6882 -0.2537
   36MOL0     O 4784   1.851   8.116   9.054 -0.7117 -0.3609 -0.2456
   36MOL0     C 4785   1.927   8.183   8.958 -0.2652 -0.1075  0.0626
   36MOL0     C 4786   2.063   8.106   8.927 -0.6225  0.0380  0.0298
   36MOL0     C 4787   2.147   8.103   9.053 -0.5906  0.8138 -0.1057
   36MOL0     C 4788   2.296   8.068   9.044  0.4142  0.3956  0.2970
   36MOL0     C 4789   2.364   8.060   9.172 -0.3433 -0.7733 -0.0907
   36MOL0     C 4790   2.407   8.041   9.291  0.3424  0.0205  0.4404
   36MOL0     C 4791   1.646   8.237   8.986 -0.2764  1.2466 -0.5077
   36MOL0     C 4792   1.512   8.236   8.974 -0.0744  1.2640 -0.2898
   36MOL0     H 4793   1.069   7.854   9.031  1.4590  0.4539  1.7571
   36MOL0     H 4794   0.825   7.839   9.076  0.4237 -0.5109  2.7148
   36MOL0     H 4795   0.647   7.985   8.877 -1.1432  0.4771  0.0666
   36MOL0     H 4796   0.637   7.851   8.991  1.5108 -0.4555 -1.0463
   36MOL0     H 4797   0.398   7.912   8.921  0.9444  2.7373 -3.2122
   36MOL0     H 4798   0.417   7.975   9.077  0.7843  0.5959  0.4573
   36MOL0     H 4799   0.446   8.190   9.007  1.0201  2.2410 -1.6623
   36MOL0     H 4800   0.484   8.141   8.847  0.1837  1.1122  1.0314
   36MOL0     H 4801   0.229   8.069   8.835 -2.5970  2.2824 -0.3906
   36MOL0     H 4802   0.207   8.125   9.002  0.2945 -0.1482 -0.2740
   36MOL0     H 4803   0.274   8.346   8.929 -2.3430 -2.5848  3.8273
   36MOL0     H 4804   0.276   8.274   8.759  0.1888 -2.1526 -0.7907
   36MOL0     H 4805   0.065   8.411   8.822 -1.7369  1.2733  1.3595
   36MOL0     H 4806   0.032   8.249   8.782 -1.4446  2.2011 -0.4238
   36MOL0     H 4807  -0.108   8.312   8.968  0.5598 -0.1063 -0.7608
   36MOL0     H 4808  -0.009   8.178   9.006 -2.2959 -0.1343 -0.3530
   36MOL0     H 4809   0.064   8.456   9.069 -1.2021 -0.2517 -0.0115
   36MOL0     H 4810   0.149   8.306   9.136  0.1979  0.4777  1.1450
   36MOL0     H 4811  -0.228   8.291   9.152  0.1364  2.4240 -1.1740
   36MOL0     H 4812  -0.343   8.192   9.409  2.2022  0.1423 -1.3706
   36MOL0     H 4813  -0.321   8.329   9.518 -0.5295  2.6786 -1.0549
   36MOL0     H 4814  -0.550   8.333   9.384 -1.0572  1.7203 -1.2730
   36MOL0     H 4815  -0.451   8.367   9.243  0.9470  2.5951  0.7162
   36MOL0     H 4816  -0.478   8.586   9.321  1.0732 -0.1143 -0.6225
   36MOL0     H 4817  -0.338   8.544   9.416 -0.0167  1.5943 -0.0941
   36MOL0     H 4818  -0.490   8.674   9.554  1.5230 -0.7511  2.2201
   36MOL0     H 4819  -0.504   8.505   9.601  2.1184 -1.0323 -1.5113
   36MOL0     H 4820  -0.629   8.784   9.668  0.6881 -1.5060 -1.2072
   36MOL0     H 4821  -0.661   9.043   9.700  1.4985 -2.7351 -1.6996
   36MOL0     H 4822  -0.833   9.059   9.753  0.5488  0.4260  3.1200
   36MOL0     H 4823  -0.725   8.943   9.826  0.8159  1.7197 -0.0132
   36MOL0     H 4824  -1.104   9.295   9.277  0.7607  3.5159  2.5218
   36MOL0     H 4825  -1.327   9.395   9.233 -2.3921  1.3269  0.6424
   36MOL0     H 4826  -1.752   9.254   9.234  1.1540  1.5395 -1.2607
   36MOL0     H 4827  -1.686   9.158   9.370 -0.3657  0.4343 -0.2181
   36MOL0     H 4828  -1.707   9.406   9.493  0.2408 -2.0833  0.7076
   36MOL0     H 4829  -1.823   9.423   9.362 -0.7669  0.6163  0.8409
   36MOL0     H 4830  -1.840   9.183   9.559  1.2477  0.1398 -0.3177
   36MOL0     H 4831  -1.954   9.241   9.443 -0.1142 -0.7592  0.9143
   36MOL0     H 4832  -1.857   9.390   9.692  1.5051 -2.4299 -0.7945
   36MOL0     H 4833  -1.957   9.467   9.570 -0.4436 -0.5275 -1.7856
   36MOL0     H 4834  -2.048   9.231   9.738 -1.6857  0.7197  2.1516
   36MOL0     H 4835  -2.119   9.286   9.584  1.1798  1.7185 -0.8787
   36MOL0     H 4836  -2.101   9.418   9.857 -0.0857  1.1642 -0.7362
   36MOL0     H 4837  -2.156   9.519   9.717 -1.0259 -1.1403 -2.2822
   36MOL0     H 4838  -2.285   9.271   9.842  0.3305 -0.6035 -1.0347
   36MOL0     H 4839  -2.324   9.336   9.681 -0.7316 -5.1377  1.5986
   36MOL0     H 4840  -2.390   9.545   9.772 -0.9115 -0.3618  1.4265
   36MOL0     H 4841  -2.294   9.526   9.916  0.8373  1.5982 -1.9919
   36MOL0     H 4842  -1.520   9.125   9.492 -1.3139  1.5194 -0.9734
   36MOL0     H 4843  -1.298   9.042   9.567  2.1871 -1.3383 -0.1907
   36MOL0     H 4844  -1.009   8.841   9.355  0.2563 -2.4150 -1.6182
   36MOL0     H 4845  -0.863   8.628   9.349  0.8228  1.2719 -1.8173
   36MOL0     H 4846   0.812   8.268   9.114 -0.0743 -0.5475 -0.1573
   36MOL0     H 4847   1.056   8.276   9.129 -1.9896  0.8035  0.2647
   36MOL0     H 4848   1.434   7.954   9.145  0.5816  0.1189 -1.3910
   36MOL0     H 4849   1.670   7.958   9.171 -0.1867  2.5461  2.5560
   36MOL0     H 4850   1.867   8.197   8.867 -3.3084 -2.5917  1.4873
   36MOL0     H 4851   1.963   8.277   8.999 -0.2498  0.3792 -1.0476
   36MOL0     H 4852   2.114   8.163   8.849 -0.6399 -1.8264 -1.4138
   36MOL0     H 4853   2.041   8.004   8.895  0.1775  0.0304 -0.5175
   36MOL0     H 4854   2.103   8.045   9.134  1.1585 -0.9404 -0.3332
   36MOL0     H 4855   2.157   8.203   9.094  1.1013 -0.0943  1.8642
   36MOL0     H 4856   2.351   8.144   8.988 -2.2083  2.0894 -0.1446
   36MOL0     H 4857   2.320   7.968   9.005  4.8348  0.8526  1.3520
   36MOL0     H 4858   2.443   8.027   9.391  0.0790  2.2217  0.9039
   36MOL0     H 4859   1.702   8.316   8.936  3.4570  1.3319  3.2603
   36MOL0     H 4860   1.457   8.311   8.919  2.1673  2.5215 -0.9175
   37MOL0     O 4861   4.296   8.598   6.697 -0.4077  0.0559  0.2369
   37MOL0     C 4862   4.420   8.591   6.716  0.8176 -0.0313 -0.3982
   37MOL0     O 4863   4.483   8.469   6.757  0.5008  0.4168 -0.1600
   37MOL0     C 4864   4.388   8.374   6.791  0.0881 -0.0736 -0.7500
   37MOL0     C 4865   4.340   8.376   6.926  0.3761 -0.6778  0.9571
   37MOL0     C 4866   4.232   8.299   6.971 -0.2000 -0.4367 -0.4213
   37MOL0     C 4867   4.177   8.212   6.874 -0.6132 -0.0566 -1.6354
   37MOL0     O 4868   4.076   8.130   6.917 -0.2331  0.7861 -0.1418
   37MOL0     C 4869   3.957   8.196   6.976  0.2487  0.3140 -0.1370
   37MOL0     C 4870   3.847   8.088   6.976 -0.2893 -0.0653  0.0984
   37MOL0     C 4871   3.706   8.147   6.999 -0.7804 -0.9099 -0.5440
   37MOL0     C 4872   3.606   8.039   6.991 -1.1017  0.2048 -0.3365
   37MOL0     C 4873   3.468   8.068   7.036 -1.1786  0.4256  0.1890
   37MOL0     C 4874   3.379   7.948   7.022 -0.1518 -0.9275  0.0500
   37MOL0     C 4875   3.240   7.956   7.097  0.2831  0.2488  0.2649
   37MOL0     C 4876   3.188   7.819   7.114  0.0456 -0.0983 -0.8125
   37MOL0     N 4877   3.066   7.830   7.213  0.0325  0.0148 -0.0177
   37MOL0     C 4878   2.940   7.890   7.189 -0.2140  0.1532 -0.6183
   37MOL0     C 4879   2.869   7.876   7.301 -0.4501  0.4581 -0.5965
   37MOL0     C 4880   2.742   7.935   7.350  0.5296 -1.2635 -0.4518
   37MOL0     C 4881   2.620   7.885   7.280 -0.1385 -0.1038  0.4817
   37MOL0     C 4882   2.492   7.948   7.340 -0.9434  0.5936  0.1862
   37MOL0     C 4883   2.375   7.873   7.293  0.1448  0.2298  0.4886
   37MOL0     O 4884   2.340   7.908   7.155  0.0437 -0.2778 -0.4814
   37MOL0     C 4885   2.250   7.827   7.086 -0.8715 -0.4425 -0.0154
   37MOL0     C 4886   2.167   7.737   7.155 -0.2602 -1.0223 -0.2281
   37MOL0     C 4887   2.081   7.660   7.085 -0.2354  0.4868 -0.5171
   37MOL0     C 4888   1.989   7.578   7.177  0.1522  0.8953 -0.4426
   37MOL0     C 4889   2.077   7.652   6.943 -0.1271  0.5408 -1.0224
   37MOL0     C 4890   2.007   7.546   6.870  0.7165  0.1881  0.1175
   37MOL0     O 4891   1.984   7.575   6.734  0.0802 -0.1123  0.1197
   37MOL0     C 4892   1.916   7.481   6.666 -0.0822  0.2413 -0.5034
   37MOL0     C 4893   1.801   7.522   6.593 -0.0986 -0.3822  0.3863
   37MOL0     C 4894   1.720   7.419   6.542 -0.3311  0.4112 -0.0559
   37MOL0     C 4895   1.752   7.285   6.555  0.5644 -0.4694  0.3711
   37MOL0     O 4896   1.656   7.194   6.493  0.2304 -0.1175 -0.0646
   37MOL0     C 4897   1.663   7.063   6.548  0.2758 -0.1461  0.3706
   37MOL0     C 4898   1.526   6.991   6.541 -1.3880  0.1252  0.8967
   37MOL0     C 4899   1.434   7.035   6.657  0.3180  0.4372  0.6128
   37MOL0     C 4900   1.289   6.976   6.645  0.1316  0.3569 -0.5947
   37MOL0     C 4901   1.184   7.045   6.726  0.0187 -0.0283 -0.0921
   37MOL0     C 4902   1.075   6.950   6.757  0.3722  0.0544  0.6858
   37MOL0     C 4903   0.995   6.897   6.636  0.3367  0.5926  0.6568
   37MOL0     C 4904   0.859   6.846   6.679 -0.2637  0.2447 -0.6490
   37MOL0    Cl 4905   0.742   6.984   6.693 -0.1394  0.0514 -0.3637
   37MOL0     C 4906   1.871   7.251   6.607  0.5586  0.2891 -0.0992
   37MOL0     C 4907   1.949   7.347   6.664  0.9926 -0.4714  0.1646
   37MOL0     O 4908   1.989   7.440   6.925 -0.4904 -0.4868 -0.4597
   37MOL0     C 4909   2.155   7.752   6.883  0.0130 -0.1649  0.0039
   37MOL0     C 4910   2.234   7.839   6.951  0.2182  0.3663 -0.0612
   37MOL0     N 4911   2.948   7.802   7.384 -0.3837 -0.6284  0.2435
   37MOL0     N 4912   3.062   7.768   7.333  0.0362 -0.0324 -0.0678
   37MOL0     C 4913   4.230   8.197   6.747  0.2853 -0.2133  0.1279
   37MOL0     C 4914   4.333   8.277   6.707 -0.0754  0.4430  0.3002
   37MOL0     C 4915   4.510   8.710   6.698  0.3271  0.1848 -0.0183
   37MOL0     C 4916   4.652   8.694   6.691  0.1095 -0.1648 -0.6891
   37MOL0     C 4917   4.732   8.810   6.691 -0.3290 -0.3456  0.1067
   37MOL0     C 4918   4.676   8.942   6.693  0.4859  0.5547  0.5694
   37MOL0     O 4919   4.744   9.059   6.702  0.1586  0.2946  0.2278
   37MOL0     C 4920   4.884   9.042   6.716 -0.0808  0.0979 -1.1823
   37MOL0     C 4921   4.961   9.034   6.584  1.3284  0.0766  0.0038
   37MOL0     C 4922   5.120   9.040   6.606  0.0104  1.0147 -0.2632
   37MOL0     C 4923   5.171   8.924   6.696  0.1484 -0.1236 -0.8117
   37MOL0     C 4924   5.131   8.803   6.633  0.0761  0.7680 -1.3030
   37MOL0     C 4925   5.125   8.702   6.566 -0.1207  0.4779  0.0478
   37MOL0     C 4926   4.539   8.952   6.706 -0.4107  0.1148  0.1157
   37MOL0     C 4927   4.459   8.839   6.701 -0.0108  0.1745  0.2447
   37MOL0     H 4928   4.391   8.435   7.002  0.0532 -0.3703  0.9379
   37MOL0     H 4929   4.213   8.307   7.077  4.3880 -1.6220  0.7239
   37MOL0     H 4930   3.970   8.231   7.079 -2.5788 -0.1570  0.4641
   37MOL0     H 4931   3.927   8.271   6.902 -3.5859  2.5323  3.2576
   37MOL0     H 4932   3.855   8.037   6.879  0.5720  2.5150 -1.2855
   37MOL0     H 4933   3.881   8.024   7.058  1.3074 -1.3666 -1.4882
   37MOL0     H 4934   3.705   8.183   7.102  0.2734 -3.6839  0.5374
   37MOL0     H 4935   3.693   8.228   6.927  2.2775 -0.3015 -0.5362
   37MOL0     H 4936   3.600   7.986   6.895  1.1647 -0.6449 -0.0647
   37MOL0     H 4937   3.646   7.960   7.056  0.7281  0.0192 -1.6131
   37MOL0     H 4938   3.480   8.099   7.140 -0.0053  1.3058 -0.1931
   37MOL0     H 4939   3.427   8.158   6.988  2.3454  1.4956 -1.1124
   37MOL0     H 4940   3.372   7.931   6.914  4.7384 -3.0975 -0.1833
   37MOL0     H 4941   3.446   7.868   7.053  2.1907  1.9716  3.2177
   37MOL0     H 4942   3.240   8.000   7.197  0.1733  2.8256 -0.8039
   37MOL0     H 4943   3.168   8.018   7.043 -0.6782  1.9568  3.2428
   37MOL0     H 4944   3.273   7.759   7.148  1.2721  1.3488 -1.2311
   37MOL0     H 4945   3.153   7.780   7.018  1.4277 -4.3637  0.2047
   37MOL0     H 4946   2.917   7.949   7.101 -1.6339  0.7226  0.0990
   37MOL0     H 4947   2.731   7.916   7.457 -1.7741  1.5997 -0.0607
   37MOL0     H 4948   2.738   8.043   7.332 -0.5988 -0.9800  1.2941
   37MOL0     H 4949   2.623   7.776   7.293  0.1462 -0.2894 -0.9243
   37MOL0     H 4950   2.622   7.911   7.174 -1.9327  4.1537  1.3205
   37MOL0     H 4951   2.479   8.055   7.322 -0.1697  0.5731 -0.5266
   37MOL0     H 4952   2.503   7.932   7.448  0.1716 -0.8336 -0.1066
   37MOL0     H 4953   2.290   7.917   7.347 -0.0764  3.4575 -2.1885
   37MOL0     H 4954   2.381   7.765   7.311  1.1713  0.3383  0.8315
   37MOL0     H 4955   2.171   7.728   7.263 -0.1643 -1.6643 -0.2807
   37MOL0     H 4956   1.889   7.566   7.134  1.4911 -2.2788 -3.0811
   37MOL0     H 4957   2.024   7.476   7.194 -1.2501  0.4685 -0.0255
   37MOL0     H 4958   1.971   7.637   7.267 -2.0351 -0.2891 -0.0350
   37MOL0     H 4959   1.779   7.628   6.591  1.1731 -0.0547  1.7820
   37MOL0     H 4960   1.626   7.449   6.497  0.9248  1.1166 -2.3753
   37MOL0     H 4961   1.740   7.005   6.496 -0.1340 -1.1548  0.8485
   37MOL0     H 4962   1.687   7.065   6.655  0.9490  1.0033  0.2145
   37MOL0     H 4963   1.479   7.002   6.443 -1.4863 -0.3039  0.8908
   37MOL0     H 4964   1.551   6.885   6.554  1.6176  0.7498  0.8989
   37MOL0     H 4965   1.433   7.144   6.665 -1.4204  0.2999  3.5550
   37MOL0     H 4966   1.470   6.991   6.750 -0.1080 -0.8495  0.1982
   37MOL0     H 4967   1.260   6.985   6.540  0.8116 -0.6895 -0.8882
   37MOL0     H 4968   1.294   6.870   6.668  1.3404  0.3354 -0.9222
   37MOL0     H 4969   1.148   7.130   6.668 -0.0888  0.1252  0.1991
   37MOL0     H 4970   1.233   7.078   6.818  0.1662 -3.5398  1.2600
   37MOL0     H 4971   1.103   6.868   6.823 -0.2430 -1.4471 -0.8424
   37MOL0     H 4972   1.011   7.008   6.823  0.6626  0.2008  0.8419
   37MOL0     H 4973   1.044   6.805   6.601  0.5759  1.1688 -0.5802
   37MOL0     H 4974   0.992   6.971   6.556  1.9955  1.0786  0.9961
   37MOL0     H 4975   0.858   6.793   6.775 -0.7911  4.4938  1.9065
   37MOL0     H 4976   0.815   6.788   6.597 -2.4857  0.3422  0.4038
   37MOL0     H 4977   1.885   7.144   6.615 -2.6637 -0.1975  0.4546
   37MOL0     H 4978   2.043   7.318   6.710  0.8588  0.4905  1.0900
   37MOL0     H 4979   2.162   7.752   6.775  2.4756  0.6669  0.0956
   37MOL0     H 4980   2.294   7.905   6.890  1.3342 -1.1089 -0.6146
   37MOL0     H 4981   4.194   8.120   6.681 -0.7136  0.7290 -0.4518
   37MOL0     H 4982   4.347   8.279   6.600 -2.7315  2.8670 -0.1214
   37MOL0     H 4983   4.702   8.598   6.703  2.6360  1.2146  0.6629
   37MOL0     H 4984   4.839   8.797   6.680 -0.0949  1.0191  0.6108
   37MOL0     H 4985   4.917   9.135   6.765 -0.4017 -0.5365  0.3020
   37MOL0     H 4986   4.906   8.959   6.784  1.1356 -0.5318 -2.2963
   37MOL0     H 4987   4.933   9.108   6.509  2.0533  0.5888  0.2220
   37MOL0     H 4988   4.933   8.939   6.538  1.4413  0.4904 -0.9368
   37MOL0     H 4989   5.134   9.139   6.652 -0.3162  1.3318 -0.8372
   37MOL0     H 4990   5.159   9.022   6.506  3.3044  0.9260  0.9085
   37MOL0     H 4991   5.138   8.923   6.800  1.9746  0.2982 -0.1847
   37MOL0     H 4992   5.279   8.941   6.694  0.3384 -0.5509  2.1950
   37MOL0     H 4993   5.113   8.614   6.506  4.2311 -0.0274 -0.3576
   37MOL0     H 4994   4.501   9.053   6.715 -0.1344  0.2164  0.1596
   37MOL0     H 4995   4.352   8.849   6.720  0.0507 -0.2225  0.8408
   38MOL0     O 4996   8.990   7.754  11.092  0.2692  0.1883 -0.5552
   38MOL0     C 4997   9.070   7.830  11.031 -0.8639  0.1492 -0.2635
   38MOL0     O 4998   9.040   7.950  10.970 -0.1861 -0.4390  0.1142
   38MOL0     C 4999   8.914   8.008  10.972  0.2600  0.2802 -0.2236
   38MOL0     C 5000   8.918   8.145  10.949  0.8147 -0.1253  0.7847
   38MOL0     C 5001   8.798   8.220  10.931  0.6786 -0.3696 -0.4198
   38MOL0     C 5002   8.669   8.154  10.935  0.6952 -0.7197  1.0775
   38MOL0     O 5003   8.549   8.217  10.913 -0.8652 -0.0411 -0.1937
   38MOL0     C 5004   8.545   8.328  10.821 -0.0396 -0.7256  0.5751
   38MOL0     C 5005   8.400   8.389  10.794 -0.4659  0.5274 -0.0354
   38MOL0     C 5006   8.297   8.286  10.767 -0.2870  0.8301  0.0558
   38MOL0     C 5007   8.169   8.354  10.721  0.9721 -1.3033  0.1781
   38MOL0     C 5008   8.053   8.263  10.688  0.8220  0.0090 -0.2137
   38MOL0     C 5009   8.041   8.147  10.789  0.1341 -0.2682  0.2211
   38MOL0     C 5010   7.900   8.087  10.799  0.3722  0.1766 -0.0727
   38MOL0     C 5011   7.801   8.189  10.855  0.5234 -0.5353 -0.4223
   38MOL0     N 5012   7.679   8.134  10.920 -0.1218 -0.2108  0.5874
   38MOL0     C 5013   7.666   8.076  11.049  0.4244 -0.1203 -0.0663
   38MOL0     C 5014   7.534   8.031  11.048 -0.1394 -0.1496  0.1941
   38MOL0     C 5015   7.468   7.952  11.158  0.1523  0.4283 -0.2256
   38MOL0     C 5016   7.415   7.811  11.124 -0.2733 -0.0887  0.0649
   38MOL0     C 5017   7.295   7.798  11.226  0.8195  0.1878  0.5364
   38MOL0     C 5018   7.248   7.653  11.223  0.1098  0.2449 -0.4627
   38MOL0     O 5019   7.102   7.655  11.213  0.0537  0.6530 -0.1036
   38MOL0     C 5020   7.043   7.532  11.182 -0.0154 -0.0817 -0.1649
   38MOL0     C 5021   7.086   7.416  11.237 -1.0144  0.6926 -0.3003
   38MOL0     C 5022   7.023   7.294  11.202 -0.2288  0.4132 -0.8476
   38MOL0     C 5023   7.089   7.160  11.263  0.7139 -0.4544 -0.2256
   38MOL0     C 5024   6.921   7.295  11.102 -0.0258  0.1251  0.1981
   38MOL0     C 5025   6.858   7.172  11.046  0.3102  0.5262  0.8040
   38MOL0     O 5026   6.759   7.196  10.956 -0.4528  0.1447  0.2680
   38MOL0     C 5027   6.689   7.083  10.916  0.0938  0.5330 -0.3109
   38MOL0     C 5028   6.586   7.033  10.993  0.1411  0.0227 -0.9055
   38MOL0     C 5029   6.504   6.934  10.951 -0.6379  0.0456 -0.4813
   38MOL0     C 5030   6.528   6.878  10.831 -0.6442 -0.1016  0.6239
   38MOL0     O 5031   6.440   6.787  10.804  0.2272 -0.0733  0.1075
   38MOL0     C 5032   6.424   6.738  10.665  0.4160 -0.0549  0.0625
   38MOL0     C 5033   6.347   6.846  10.591  0.1131  0.2833 -0.3557
   38MOL0     C 5034   6.197   6.816  10.622  1.0575  0.1108 -0.8677
   38MOL0     C 5035   6.139   6.681  10.565  0.2920  0.0648 -0.2960
   38MOL0     C 5036   5.994   6.692  10.507  0.2783 -0.5721 -0.3776
   38MOL0     C 5037   6.001   6.765  10.367  0.4063 -0.4890  0.0520
   38MOL0     C 5038   5.865   6.795  10.303  0.6704 -0.2880 -1.1132
   38MOL0     C 5039   5.857   6.921  10.229 -0.1966  0.0623  0.0778
   38MOL0    Cl 5040   5.685   6.963  10.196 -0.3156 -0.0187  0.4074
   38MOL0     C 5041   6.637   6.915  10.750  0.2760  0.7678  0.3444
   38MOL0     C 5042   6.718   7.023  10.790  0.7857  0.3775  0.3906
   38MOL0     O 5043   6.891   7.059  11.085 -0.7221 -0.3705 -0.0097
   38MOL0     C 5044   6.876   7.422  11.051  0.6929 -0.0850 -0.1212
   38MOL0     C 5045   6.933   7.534  11.098 -0.2584 -0.4338 -0.5444
   38MOL0     N 5046   7.474   8.078  10.932  1.1252  0.2349 -0.3416
   38MOL0     N 5047   7.562   8.133  10.856  0.2127 -0.8381 -0.4037
   38MOL0     C 5048   8.667   8.015  10.949 -0.2496 -0.3782 -1.4247
   38MOL0     C 5049   8.788   7.944  10.974 -0.9331 -0.3055 -0.4143
   38MOL0     C 5050   9.214   7.792  11.021 -0.7734  1.0657  0.7253
   38MOL0     C 5051   9.313   7.865  10.945 -0.2195  0.5234  0.2020
   38MOL0     C 5052   9.446   7.831  10.960 -0.0967  0.5952 -0.5020
   38MOL0     C 5053   9.498   7.724  11.048  0.3536 -0.0479  0.7900
   38MOL0     O 5054   9.631   7.697  11.067  0.1478 -0.0403  0.0650
   38MOL0     C 5055   9.740   7.749  10.980 -0.0589 -0.8344 -0.0992
   38MOL0     C 5056   9.751   7.681  10.844 -0.8492  0.1897 -0.6378
   38MOL0     C 5057   9.850   7.732  10.744  0.6543 -0.5083 -0.1949
   38MOL0     C 5058   9.985   7.771  10.816  0.0374  0.2034 -0.4862
   38MOL0     C 5059  10.068   7.832  10.709 -1.3611 -0.5982 -0.1942
   38MOL0     C 5060  10.142   7.877  10.619  0.7578 -0.4189  0.7470
   38MOL0     C 5061   9.399   7.656  11.117  0.4126  0.2327 -0.1494
   38MOL0     C 5062   9.265   7.686  11.102 -0.2691 -0.2260  0.3857
   38MOL0     H 5063   9.013   8.192  10.925 -0.0517  1.2927  0.0366
   38MOL0     H 5064   8.797   8.324  10.901 -0.4984  0.0575  0.9580
   38MOL0     H 5065   8.606   8.412  10.856 -0.8995  0.6250 -0.9982
   38MOL0     H 5066   8.587   8.306  10.722 -0.2473  0.3265  0.2405
   38MOL0     H 5067   8.390   8.427  10.897  0.7907 -0.4485  0.4699
   38MOL0     H 5068   8.401   8.476  10.728  0.6822  0.7444  0.2380
   38MOL0     H 5069   8.329   8.210  10.696 -2.4353 -0.2478  0.1744
   38MOL0     H 5070   8.277   8.254  10.869  1.6237  2.0949  0.8813
   38MOL0     H 5071   8.136   8.430  10.792  0.8548 -0.9088 -0.2948
   38MOL0     H 5072   8.186   8.409  10.628  1.4421  0.1168  1.0877
   38MOL0     H 5073   7.962   8.323  10.683 -0.2669 -1.3938  1.5514
   38MOL0     H 5074   8.068   8.209  10.594 -2.5699 -1.5732 -0.0050
   38MOL0     H 5075   8.106   8.060  10.778 -2.0046 -1.9222 -0.0093
   38MOL0     H 5076   8.070   8.189  10.886  3.2231  1.4146 -1.2899
   38MOL0     H 5077   7.867   8.048  10.703 -0.1569  1.7684 -0.5613
   38MOL0     H 5078   7.899   8.002  10.868 -2.5669 -0.3635 -0.6676
   38MOL0     H 5079   7.788   8.251  10.767 -1.8125 -3.2744 -2.1811
   38MOL0     H 5080   7.857   8.243  10.933  0.0369  1.6568 -1.5289
   38MOL0     H 5081   7.734   8.039  11.125  1.2364 -0.6282 -1.0010
   38MOL0     H 5082   7.536   7.942  11.243 -0.1256  1.5969  0.1504
   38MOL0     H 5083   7.383   8.016  11.180 -1.5143 -0.9354 -2.3249
   38MOL0     H 5084   7.496   7.739  11.138  0.3904  0.4016 -1.1501
   38MOL0     H 5085   7.401   7.807  11.015  1.8756 -0.6879 -0.2285
   38MOL0     H 5086   7.220   7.857  11.175  4.0969  2.6284 -1.8979
   38MOL0     H 5087   7.319   7.832  11.327  0.1985  3.3046 -0.2768
   38MOL0     H 5088   7.276   7.607  11.318 -1.1744 -0.3700 -0.3569
   38MOL0     H 5089   7.300   7.602  11.142  1.0102 -0.1824  0.3683
   38MOL0     H 5090   7.169   7.399  11.304  0.3962  1.2253 -1.8351
   38MOL0     H 5091   7.006   7.103  11.306 -0.0541  0.9851  0.2475
   38MOL0     H 5092   7.156   7.097  11.204  2.4001 -0.8650  1.9819
   38MOL0     H 5093   7.143   7.183  11.356  1.8812  1.0010 -1.2186
   38MOL0     H 5094   6.580   7.071  11.094 -1.0698 -0.6559 -0.7020
   38MOL0     H 5095   6.417   6.906  11.009 -0.7565  0.4114 -0.4838
   38MOL0     H 5096   6.513   6.712  10.608 -1.4472 -1.5380 -2.3948
   38MOL0     H 5097   6.369   6.643  10.675  1.7122 -0.7244  1.1175
   38MOL0     H 5098   6.383   6.949  10.603 -2.3460  1.1291  0.5239
   38MOL0     H 5099   6.358   6.827  10.483 -0.5903  3.1867 -1.0434
   38MOL0     H 5100   6.132   6.898  10.589  0.6617  1.4387  2.7209
   38MOL0     H 5101   6.181   6.811  10.730 -0.9137  1.7190 -1.0260
   38MOL0     H 5102   6.210   6.642  10.492  2.5123  0.5595  1.4996
   38MOL0     H 5103   6.137   6.609  10.648 -2.4489  3.0127  2.4760
   38MOL0     H 5104   5.944   6.752  10.583  1.9862 -0.3388  0.6306
   38MOL0     H 5105   5.958   6.590  10.492 -0.9710 -0.3454  0.8767
   38MOL0     H 5106   6.052   6.858  10.394  0.7126 -1.2369  2.2659
   38MOL0     H 5107   6.066   6.706  10.302 -0.2453 -0.9860 -0.1534
   38MOL0     H 5108   5.785   6.794  10.377  1.2661  3.4933 -0.2404
   38MOL0     H 5109   5.831   6.716  10.235 -1.0166 -0.0542 -0.5799
   38MOL0     H 5110   5.919   6.921  10.138  0.2098 -0.1909  0.3504
   38MOL0     H 5111   5.896   7.003  10.289 -1.4743  0.4731  0.3759
   38MOL0     H 5112   6.652   6.870  10.652 -0.6327 -1.5107  1.2137
   38MOL0     H 5113   6.799   7.075  10.739  1.2116  0.1930  0.8780
   38MOL0     H 5114   6.798   7.424  10.975  0.9623 -2.6917 -0.5894
   38MOL0     H 5115   6.905   7.634  11.069  0.5660 -0.5046 -1.6275
   38MOL0     H 5116   8.574   7.958  10.952  0.5487 -1.6942  0.5078
   38MOL0     H 5117   8.783   7.837  10.990 -0.7451 -0.5158 -1.6466
   38MOL0     H 5118   9.291   7.953  10.886 -0.2163 -1.1761 -2.5071
   38MOL0     H 5119   9.526   7.884  10.908  1.5477 -0.3972  0.9102
   38MOL0     H 5120   9.730   7.857  10.966  0.5398 -0.5654  1.3346
   38MOL0     H 5121   9.834   7.753  11.036 -0.8413  0.5356  1.1740
   38MOL0     H 5122   9.655   7.686  10.791 -0.0375  0.9623 -2.0753
   38MOL0     H 5123   9.765   7.573  10.855 -0.7638  0.1259 -1.3484
   38MOL0     H 5124   9.797   7.816  10.698 -1.6853 -1.3464  0.8125
   38MOL0     H 5125   9.865   7.666  10.658 -3.8380  0.6149 -2.0972
   38MOL0     H 5126  10.033   7.679  10.850 -1.8235 -0.3747  0.7412
   38MOL0     H 5127   9.969   7.840  10.899 -4.2877 -0.0605 -0.8645
   38MOL0     H 5128  10.218   7.913  10.551  0.5386 -1.2012  0.0700
   38MOL0     H 5129   9.427   7.567  11.171  0.2754  0.4742  0.3268
   38MOL0     H 5130   9.196   7.631  11.165  1.3845 -1.1291  1.4831
   39MOL0     O 5131   3.624  11.213  11.271 -0.2024  0.1239 -0.6237
   39MOL0     C 5132   3.700  11.190  11.173  0.1728 -0.5130 -0.9006
   39MOL0     O 5133   3.659  11.119  11.061  0.4914  0.7019 -0.9421
   39MOL0     C 5134   3.532  11.063  11.060 -0.1936 -0.2773 -0.5430
   39MOL0     C 5135   3.513  10.923  11.060 -1.0152 -0.3145 -0.4420
   39MOL0     C 5136   3.387  10.858  11.049 -0.5368 -0.9688 -0.5771
   39MOL0     C 5137   3.278  10.944  11.047 -0.8836  0.0403 -0.4651
   39MOL0     O 5138   3.148  10.904  11.054  0.2906  0.7164 -0.1110
   39MOL0     C 5139   3.122  10.765  11.094  0.6996  0.7927 -0.6127
   39MOL0     C 5140   2.975  10.740  11.103 -0.6534  0.3539 -0.1462
   39MOL0     C 5141   2.938  10.603  11.046 -0.6274  0.4319  0.7858
   39MOL0     C 5142   2.920  10.596  10.897 -0.3492  0.5351 -0.7015
   39MOL0     C 5143   2.940  10.445  10.849  0.3100  0.0586 -0.0671
   39MOL0     C 5144   2.859  10.430  10.717  0.2901  0.0819 -0.6721
   39MOL0     C 5145   2.872  10.284  10.660  0.1535  0.5407 -0.2601
   39MOL0     C 5146   2.789  10.266  10.530  0.7141  0.0946 -0.2873
   39MOL0     N 5147   2.645  10.266  10.558 -0.0381  0.3207  0.1914
   39MOL0     C 5148   2.567  10.167  10.595  0.4464  0.8540  0.3721
   39MOL0     C 5149   2.440  10.208  10.583  0.2008  0.3509  0.1015
   39MOL0     C 5150   2.321  10.136  10.642 -0.2151  0.3878 -0.2223
   39MOL0     C 5151   2.301  10.176  10.791 -0.5059  0.3931  0.3309
   39MOL0     C 5152   2.153  10.179  10.848 -0.2690  0.2048 -0.1436
   39MOL0     C 5153   2.062  10.066  10.789  0.4180  0.3261 -0.3290
   39MOL0     O 5154   1.939  10.075  10.854 -0.4388  0.2936  0.0820
   39MOL0     C 5155   1.893   9.992  10.958 -0.9132  0.7959 -0.1802
   39MOL0     C 5156   1.962   9.879  11.015  1.1381 -0.2301  0.7099
   39MOL0     C 5157   1.908   9.796  11.110  0.3809  0.7212 -0.5513
   39MOL0     C 5158   2.003   9.686  11.155  0.6719  0.1680  0.7915
   39MOL0     C 5159   1.769   9.816  11.140  0.4898  0.1909  0.4019
   39MOL0     C 5160   1.704   9.709  11.224  1.1865 -0.2864 -0.4053
   39MOL0     O 5161   1.567   9.722  11.219  0.2599  0.0164  0.0293
   39MOL0     C 5162   1.499   9.648  11.312  1.0709  0.6385  0.4734
   39MOL0     C 5163   1.490   9.684  11.448 -0.1677  0.0858  1.4364
   39MOL0     C 5164   1.428   9.599  11.547 -0.6712  0.2709  0.2345
   39MOL0     C 5165   1.371   9.477  11.503  0.2667  0.0161 -0.2249
   39MOL0     O 5166   1.300   9.385  11.584 -0.1801 -0.0798 -0.7495
   39MOL0     C 5167   1.328   9.403  11.726  0.3243  0.3661  0.3113
   39MOL0     C 5168   1.261   9.292  11.807 -0.1762  0.5153  0.6976
   39MOL0     C 5169   1.354   9.161  11.802 -0.6518 -0.1579  0.2523
   39MOL0     C 5170   1.285   9.035  11.847 -0.3013  0.3641 -1.4343
   39MOL0     C 5171   1.381   8.921  11.869 -0.6553 -0.4822  0.8100
   39MOL0     C 5172   1.464   8.917  12.004 -0.3576 -0.5432 -0.1075
   39MOL0     C 5173   1.378   8.887  12.132 -0.7150 -0.3666  0.6193
   39MOL0     C 5174   1.439   8.831  12.257  1.1940  0.1390  1.0389
   39MOL0    Cl 5175   1.516   8.974  12.350  0.0601 -0.2200 -0.3130
   39MOL0     C 5176   1.371   9.447  11.370 -0.2524  0.8157 -0.1475
   39MOL0     C 5177   1.433   9.531  11.271  0.0275 -0.5077  0.6914
   39MOL0     O 5178   1.762   9.636  11.303 -0.4286 -0.1837  0.5746
   39MOL0     C 5179   1.702   9.929  11.084  0.3813  0.4798 -0.5002
   39MOL0     C 5180   1.758  10.007  10.988 -0.0830 -0.4386  0.4613
   39MOL0     N 5181   2.438  10.338  10.540 -0.1719 -0.1201 -0.0399
   39MOL0     N 5182   2.558  10.361  10.513 -0.0352 -0.7143 -0.4926
   39MOL0     C 5183   3.294  11.081  11.035  0.1585  0.0602 -0.3694
   39MOL0     C 5184   3.420  11.143  11.041  0.5050  0.3833 -0.0608
   39MOL0     C 5185   3.830  11.261  11.158 -0.4943 -0.8916  0.1349
   39MOL0     C 5186   3.898  11.264  11.031 -0.0292  1.1877  0.2963
   39MOL0     C 5187   4.024  11.323  11.018  0.0692 -0.8579 -0.3414
   39MOL0     C 5188   4.079  11.382  11.130 -0.3016  0.4134  0.1968
   39MOL0     O 5189   4.206  11.430  11.120  0.4396 -0.6751 -0.1707
   39MOL0     C 5190   4.282  11.472  11.240 -0.8458 -0.3355  0.2983
   39MOL0     C 5191   4.316  11.356  11.345 -0.1871 -0.6477  0.5793
   39MOL0     C 5192   4.465  11.341  11.393  0.2563 -0.6543 -0.3345
   39MOL0     C 5193   4.507  11.465  11.470  0.0563  0.9492  0.3222
   39MOL0     C 5194   4.649  11.502  11.466 -1.3263  1.1871  0.1321
   39MOL0     C 5195   4.775  11.512  11.477  0.6434  0.1493 -0.0667
   39MOL0     C 5196   4.012  11.381  11.260 -0.1540 -0.2456  0.5245
   39MOL0     C 5197   3.888  11.326  11.264  0.0450 -0.3043  0.0799
   39MOL0     H 5198   3.604  10.864  11.063 -0.4845  0.5523  1.5864
   39MOL0     H 5199   3.384  10.750  11.052  0.3173 -1.0067 -0.7492
   39MOL0     H 5200   3.161  10.688  11.026 -2.9527 -1.3461 -0.4921
   39MOL0     H 5201   3.171  10.746  11.190  0.9971  2.9920 -0.2705
   39MOL0     H 5202   2.953  10.760  11.209  0.6202 -1.5319  0.5280
   39MOL0     H 5203   2.915  10.807  11.041 -1.1988 -1.7312 -1.9673
   39MOL0     H 5204   3.020  10.534  11.064  3.1053  3.3579 -2.9397
   39MOL0     H 5205   2.844  10.562  11.084 -1.8153  0.6432 -1.7380
   39MOL0     H 5206   2.827  10.637  10.855 -1.4958 -1.0192  0.2130
   39MOL0     H 5207   3.000  10.647  10.843  1.1484  1.7042  2.3762
   39MOL0     H 5208   3.045  10.428  10.823  0.2578  0.1896 -0.3648
   39MOL0     H 5209   2.898  10.374  10.921  1.9953  1.5894  2.5758
   39MOL0     H 5210   2.752  10.443  10.737  0.3482 -1.0159  0.4819
   39MOL0     H 5211   2.888  10.508  10.647 -0.5086  2.5859  1.6168
   39MOL0     H 5212   2.977  10.268  10.633  0.5019 -1.2690  1.8606
   39MOL0     H 5213   2.856  10.208  10.737  1.1870  0.7731  0.2092
   39MOL0     H 5214   2.795  10.164  10.491 -1.8159  0.2873 -1.3390
   39MOL0     H 5215   2.817  10.346  10.461  1.3349  2.4801  2.5149
   39MOL0     H 5216   2.592  10.070  10.638 -0.3606  0.7646  0.6621
   39MOL0     H 5217   2.230  10.181  10.601 -0.9836  1.8482  2.7730
   39MOL0     H 5218   2.320  10.035  10.600 -2.7573 -0.0616  0.7574
   39MOL0     H 5219   2.339  10.277  10.807 -1.4980  0.6170  1.3553
   39MOL0     H 5220   2.361  10.111  10.856 -0.6208  0.7489  0.8003
   39MOL0     H 5221   2.107  10.275  10.821  3.1924  2.9163  2.5584
   39MOL0     H 5222   2.150  10.179  10.958 -0.9195  2.6401 -0.1049
   39MOL0     H 5223   2.111   9.970  10.808 -2.2984 -1.2584 -0.7753
   39MOL0     H 5224   2.053  10.076  10.680  3.2065 -1.8267 -0.8789
   39MOL0     H 5225   2.063   9.855  10.985  0.5590 -1.7220 -0.1457
   39MOL0     H 5226   2.098   9.692  11.101  0.6733 -1.7249  0.5084
   39MOL0     H 5227   2.028   9.694  11.262 -3.5989  1.5952  1.8772
   39MOL0     H 5228   1.967   9.583  11.142  0.4002  0.1470  1.6496
   39MOL0     H 5229   1.541   9.771  11.488  1.6595  1.1352 -2.6499
   39MOL0     H 5230   1.440   9.627  11.652  2.6584  0.7975 -0.1646
   39MOL0     H 5231   1.432   9.404  11.760  0.1843  0.7904  0.7378
   39MOL0     H 5232   1.289   9.500  11.760 -1.0602  0.1827 -0.6928
   39MOL0     H 5233   1.248   9.322  11.912  1.3577 -0.8972  1.3273
   39MOL0     H 5234   1.165   9.259  11.766 -0.1591 -0.3612  1.3295
   39MOL0     H 5235   1.451   9.172  11.850  0.4970 -2.3586 -1.4174
   39MOL0     H 5236   1.371   9.152  11.694  0.5043 -0.9898  0.4899
   39MOL0     H 5237   1.224   9.051  11.937  0.7631  0.6851 -0.7441
   39MOL0     H 5238   1.213   8.999  11.772 -3.1441  1.3824  0.6099
   39MOL0     H 5239   1.454   8.922  11.787 -3.7980 -0.7241 -2.1829
   39MOL0     H 5240   1.328   8.825  11.874 -0.3329 -0.6053  2.7735
   39MOL0     H 5241   1.537   8.836  12.000  1.1911  0.5422  2.6755
   39MOL0     H 5242   1.507   9.017  12.016 -0.2165 -0.6831  0.5979
   39MOL0     H 5243   1.302   8.816  12.097 -0.1362  0.8204 -3.4678
   39MOL0     H 5244   1.315   8.975  12.148 -4.1842 -2.1965 -1.5465
   39MOL0     H 5245   1.516   8.763  12.219 -1.3370 -0.2498 -4.3144
   39MOL0     H 5246   1.361   8.776  12.310  1.1308  0.5599  1.3872
   39MOL0     H 5247   1.311   9.362  11.339 -0.4843  0.3084  1.6341
   39MOL0     H 5248   1.435   9.503  11.166  2.2969  1.9159 -0.0184
   39MOL0     H 5249   1.603   9.952  11.122  0.6410 -0.2713  0.6860
   39MOL0     H 5250   1.705  10.084  10.934 -1.4987 -0.0744  2.2833
   39MOL0     H 5251   3.209  11.149  11.028  0.9518  1.6343  3.1092
   39MOL0     H 5252   3.439  11.250  11.049 -1.4272  0.6227  2.6421
   39MOL0     H 5253   3.857  11.207  10.949  1.1857  1.2354 -0.3677
   39MOL0     H 5254   4.074  11.313  10.922  0.6876 -0.7716 -0.0314
   39MOL0     H 5255   4.381  11.508  11.208 -0.0168 -0.2438  2.7727
   39MOL0     H 5256   4.236  11.561  11.282 -1.5751 -0.0934 -0.9649
   39MOL0     H 5257   4.276  11.270  11.290 -1.3923 -0.1993  0.7406
   39MOL0     H 5258   4.253  11.376  11.431  0.1259 -0.3918  0.7504
   39MOL0     H 5259   4.531  11.330  11.307 -0.0974  4.0801 -1.5015
   39MOL0     H 5260   4.481  11.257  11.462  0.1319 -0.2121  0.2480
   39MOL0     H 5261   4.474  11.458  11.574  3.8298  0.3202  1.6390
   39MOL0     H 5262   4.455  11.548  11.422 -0.1405 -1.1924 -3.5783
   39MOL0     H 5263   4.871  11.547  11.508  2.1835 -3.3671 -0.3762
   39MOL0     H 5264   4.037  11.433  11.351 -1.4149 -2.1504  2.0474
   39MOL0     H 5265   3.848  11.315  11.364  2.7135 -1.4444  1.0991
   40MOL0     O 5266  11.196   6.971   7.719 -0.3476  0.2033 -0.6948
   40MOL0     C 5267  11.297   6.983   7.645  0.9339 -0.9592 -0.1683
   40MOL0     O 5268  11.297   7.072   7.542 -0.1302  0.1604  0.3205
   40MOL0     C 5269  11.185   7.141   7.503  1.0130  0.7227 -0.4675
   40MOL0     C 5270  11.052   7.096   7.515 -0.9821  0.1880 -0.0998
   40MOL0     C 5271  10.947   7.156   7.444  0.1344  0.3097 -0.9297
   40MOL0     C 5272  10.971   7.277   7.378  0.6706 -0.2786  0.5313
   40MOL0     O 5273  10.871   7.346   7.318 -0.1558 -0.2830 -0.6704
   40MOL0     C 5274  10.782   7.288   7.229 -0.0457 -0.4365  0.0800
   40MOL0     C 5275  10.694   7.399   7.163 -0.5553 -0.1929  0.2059
   40MOL0     C 5276  10.603   7.464   7.263 -0.1246 -0.1783 -0.3720
   40MOL0     C 5277  10.542   7.600   7.215 -0.4167  0.2675 -0.2667
   40MOL0     C 5278  10.487   7.584   7.075 -0.4088  0.3834 -0.5143
   40MOL0     C 5279  10.384   7.688   7.031 -0.1738  1.1148 -0.3973
   40MOL0     C 5280  10.343   7.672   6.889  0.1419 -0.3681  0.2402
   40MOL0     C 5281  10.242   7.557   6.859  0.1453  0.4787 -0.0183
   40MOL0     N 5282  10.193   7.574   6.721  0.1020 -0.4072 -0.2668
   40MOL0     C 5283  10.121   7.679   6.676 -0.2724 -1.1299 -0.1574
   40MOL0     C 5284  10.103   7.647   6.543  0.3495  0.1399  0.9707
   40MOL0     C 5285  10.021   7.741   6.454 -0.7411 -0.2995 -0.7200
   40MOL0     C 5286   9.911   7.666   6.375  0.7239 -0.1910 -0.4733
   40MOL0     C 5287   9.804   7.751   6.315 -0.4953 -0.2811  0.4051
   40MOL0     C 5288   9.857   7.837   6.197  0.1488 -0.2096  0.9211
   40MOL0     O 5289   9.749   7.925   6.170 -0.2346 -0.4934 -0.2980
   40MOL0     C 5290   9.749   7.997   6.055  0.8107 -0.0708  0.2115
   40MOL0     C 5291   9.632   8.065   6.029  0.6004 -0.2873  1.2838
   40MOL0     C 5292   9.612   8.144   5.906  0.1804  0.6753 -0.1339
   40MOL0     C 5293   9.478   8.211   5.894  0.4799 -0.5233 -0.0207
   40MOL0     C 5294   9.706   8.122   5.797 -0.8422 -0.7039 -0.1847
   40MOL0     C 5295   9.689   8.185   5.667  0.3459 -0.5457  0.3571
   40MOL0     O 5296   9.564   8.239   5.636  0.0246  0.1965  0.0061
   40MOL0     C 5297   9.534   8.265   5.508  0.0628 -0.4753  0.4668
   40MOL0     C 5298   9.615   8.351   5.426  0.6269  0.4369  0.4805
   40MOL0     C 5299   9.600   8.365   5.288 -0.1564  0.0480  0.3381
   40MOL0     C 5300   9.480   8.318   5.224 -0.4886 -0.8309 -0.3060
   40MOL0     O 5301   9.459   8.361   5.094 -0.0945 -0.4722 -0.0612
   40MOL0     C 5302   9.346   8.308   5.016  0.1098 -0.1631  0.2797
   40MOL0     C 5303   9.320   8.393   4.887 -0.2423  0.7722  0.8398
   40MOL0     C 5304   9.184   8.355   4.821  0.1610  0.1749  0.1477
   40MOL0     C 5305   9.061   8.429   4.887 -0.8104  0.3333 -0.0759
   40MOL0     C 5306   8.941   8.390   4.805 -0.7136  0.4378 -0.1156
   40MOL0     C 5307   8.815   8.460   4.860  0.9163 -0.3131 -0.6782
   40MOL0     C 5308   8.688   8.438   4.772  0.4820 -0.2978  0.6741
   40MOL0     C 5309   8.691   8.501   4.637 -0.2068  0.0470  0.1040
   40MOL0    Cl 5310   8.523   8.501   4.582 -0.1319 -0.0009  0.0674
   40MOL0     C 5311   9.393   8.235   5.294 -0.4634  0.1667 -0.6091
   40MOL0     C 5312   9.429   8.208   5.432  0.0929  0.6053 -0.4436
   40MOL0     O 5313   9.780   8.167   5.583  0.2141 -0.4307  0.1972
   40MOL0     C 5314   9.831   8.058   5.827  0.1411 -0.1099 -0.2866
   40MOL0     C 5315   9.848   8.011   5.961  0.2206 -0.4564  0.5805
   40MOL0     N 5316  10.149   7.520   6.514  0.0695 -0.3322 -0.1843
   40MOL0     N 5317  10.208   7.481   6.619  0.6491  1.1646 -0.9083
   40MOL0     C 5318  11.103   7.332   7.375  1.0943 -0.6000  0.2105
   40MOL0     C 5319  11.205   7.259   7.441 -0.4325 -0.5584  0.3304
   40MOL0     C 5320  11.402   6.881   7.667 -0.0650 -0.6545 -0.1017
   40MOL0     C 5321  11.502   6.882   7.576 -0.3094 -0.1894  0.1503
   40MOL0     C 5322  11.602   6.786   7.584 -0.9016 -0.4492 -0.0149
   40MOL0     C 5323  11.619   6.704   7.694  0.3600 -0.6287 -0.1022
   40MOL0     O 5324  11.729   6.621   7.702 -0.4464 -0.1162 -0.2242
   40MOL0     C 5325  11.811   6.617   7.819  0.6462 -0.2118  0.6561
   40MOL0     C 5326  11.952   6.653   7.780 -0.1949 -0.0768 -0.2776
   40MOL0     C 5327  12.025   6.545   7.709  0.0640 -0.0558 -0.0325
   40MOL0     C 5328  12.171   6.584   7.698 -1.0934  1.0436  0.8474
   40MOL0     C 5329  12.236   6.490   7.609  0.6069 -0.0221 -0.2278
   40MOL0     C 5330  12.298   6.416   7.532  0.5071 -0.5416 -0.0725
   40MOL0     C 5331  11.516   6.706   7.795 -0.7448 -0.3563  0.3536
   40MOL0     C 5332  11.409   6.797   7.778 -0.6422 -0.1655  0.5555
   40MOL0     H 5333  11.022   7.007   7.570 -2.7533 -0.6820 -2.2914
   40MOL0     H 5334  10.845   7.124   7.460  0.0269  1.8747  2.2876
   40MOL0     H 5335  10.840   7.231   7.156  0.6457  1.1392 -0.6488
   40MOL0     H 5336  10.720   7.217   7.285 -0.2264  0.1397  0.6206
   40MOL0     H 5337  10.751   7.480   7.116 -1.3195 -0.9039 -2.0894
   40MOL0     H 5338  10.629   7.353   7.088 -2.5491 -0.8935  2.2444
   40MOL0     H 5339  10.530   7.388   7.295  0.2283 -2.7197 -4.7457
   40MOL0     H 5340  10.665   7.486   7.349 -1.0352 -1.5014  0.6676
   40MOL0     H 5341  10.469   7.631   7.291  2.8774  1.9868  2.4961
   40MOL0     H 5342  10.627   7.669   7.215 -0.0874 -0.1355 -0.4133
   40MOL0     H 5343  10.578   7.577   7.015  0.6046 -1.4832  1.1516
   40MOL0     H 5344  10.429   7.491   7.072  0.9248 -0.5185  0.2762
   40MOL0     H 5345  10.297   7.685   7.098  0.0468  3.6664  0.0952
   40MOL0     H 5346  10.432   7.783   7.052 -1.1715  1.3003  1.2595
   40MOL0     H 5347  10.292   7.767   6.873 -1.4153 -1.0436  1.0008
   40MOL0     H 5348  10.437   7.665   6.833  0.6699 -2.0162  1.2602
   40MOL0     H 5349  10.162   7.567   6.932  0.0879 -0.6012  0.0745
   40MOL0     H 5350  10.291   7.460   6.870 -3.5228 -1.4626  0.4255
   40MOL0     H 5351  10.091   7.765   6.735  0.6196 -2.4744  2.3887
   40MOL0     H 5352   9.975   7.819   6.515  0.6542  0.6783 -0.8604
   40MOL0     H 5353  10.093   7.777   6.379  0.0275 -0.3691 -0.0261
   40MOL0     H 5354   9.856   7.593   6.434 -0.4170 -1.4359 -2.9129
   40MOL0     H 5355   9.964   7.610   6.297  0.6189 -0.9772  0.0159
   40MOL0     H 5356   9.766   7.825   6.386  0.8481 -0.7038  1.6168
   40MOL0     H 5357   9.720   7.688   6.285 -1.3877 -0.1845  2.5387
   40MOL0     H 5358   9.887   7.771   6.115 -1.9262 -1.8112  1.3807
   40MOL0     H 5359   9.941   7.901   6.226  0.5835 -0.1162 -0.4535
   40MOL0     H 5360   9.560   8.079   6.109  1.4619 -0.9523  2.2048
   40MOL0     H 5361   9.443   8.225   5.997  2.8148  1.4939  0.5819
   40MOL0     H 5362   9.498   8.313   5.863 -0.6959 -0.0824  0.5868
   40MOL0     H 5363   9.416   8.151   5.826 -2.5019  1.2377  0.9705
   40MOL0     H 5364   9.692   8.404   5.481  2.0512 -0.5018 -0.5396
   40MOL0     H 5365   9.663   8.431   5.229 -1.0929 -0.0860 -0.8540
   40MOL0     H 5366   9.367   8.205   4.985  0.4075 -0.4077  1.2830
   40MOL0     H 5367   9.254   8.309   5.075 -1.4632  1.7489 -1.9999
   40MOL0     H 5368   9.321   8.495   4.924  2.0579  0.0569  3.0041
   40MOL0     H 5369   9.399   8.385   4.811  1.0733 -2.1658  2.3647
   40MOL0     H 5370   9.169   8.251   4.851 -1.6378  0.5261  0.6198
   40MOL0     H 5371   9.185   8.367   4.712  2.0590  2.9597  0.3564
   40MOL0     H 5372   9.043   8.413   4.994  1.6325 -0.0386  0.3372
   40MOL0     H 5373   9.079   8.533   4.860 -0.0101 -0.2825 -2.1570
   40MOL0     H 5374   8.940   8.280   4.804  1.6216  0.3451 -2.3659
   40MOL0     H 5375   8.963   8.414   4.701  1.9032  1.8061  0.6811
   40MOL0     H 5376   8.787   8.422   4.958  2.4863  0.5055  0.1153
   40MOL0     H 5377   8.832   8.568   4.869 -0.0160 -0.3367  2.1327
   40MOL0     H 5378   8.597   8.476   4.819 -0.6215  0.9185 -2.2318
   40MOL0     H 5379   8.665   8.331   4.768 -0.2521 -0.1157 -0.5384
   40MOL0     H 5380   8.760   8.443   4.576  1.5402  1.4522  0.6483
   40MOL0     H 5381   8.725   8.605   4.637 -3.1087  1.1030  0.6089
   40MOL0     H 5382   9.307   8.183   5.253 -0.7353  0.5979 -0.5966
   40MOL0     H 5383   9.376   8.140   5.497  1.9965  2.0099  2.7849
   40MOL0     H 5384   9.905   8.036   5.751  0.6149 -0.6361  0.3177
   40MOL0     H 5385   9.949   7.972   5.972  0.7568  0.2065 -1.6013
   40MOL0     H 5386  11.116   7.423   7.318 -2.9376  0.3931  0.5783
   40MOL0     H 5387  11.307   7.293   7.424 -0.7082 -0.0483 -0.3649
   40MOL0     H 5388  11.500   6.952   7.494 -0.3727 -1.3593 -0.8811
   40MOL0     H 5389  11.673   6.776   7.503  0.9729  0.4208  1.4536
   40MOL0     H 5390  11.766   6.691   7.886 -3.8751 -1.5131 -0.6314
   40MOL0     H 5391  11.818   6.527   7.881  1.1618 -1.1230 -0.6834
   40MOL0     H 5392  12.005   6.672   7.874  0.6300  0.7016 -0.8910
   40MOL0     H 5393  11.954   6.741   7.715 -3.8817  0.2907 -0.1171
   40MOL0     H 5394  11.981   6.525   7.611  1.2253  0.1606 -0.6180
   40MOL0     H 5395  12.011   6.461   7.778 -1.4505  0.3449  0.1674
   40MOL0     H 5396  12.223   6.587   7.794 -1.4357  1.7918  1.0213
   40MOL0     H 5397  12.180   6.678   7.643 -1.2840  0.5325 -0.0720
   40MOL0     H 5398  12.346   6.358   7.456 -0.6062  0.5298 -1.6695
   40MOL0     H 5399  11.514   6.642   7.883 -0.2442  1.1833  1.5181
   40MOL0     H 5400  11.337   6.803   7.860  1.0379  0.2094  2.0560
   41MOL0     O 5401   4.942   8.024   8.811  0.4405  1.3621 -0.2179
   41MOL0     C 5402   4.936   7.952   8.711  0.1195 -0.1338 -0.2084
   41MOL0     O 5403   4.823   7.929   8.641 -0.2880  0.9952  0.5898
   41MOL0     C 5404   4.717   8.009   8.672 -0.2201  0.4162  0.2551
   41MOL0     C 5405   4.718   8.145   8.714 -0.1733 -0.3658 -0.1127
   41MOL0     C 5406   4.599   8.203   8.761  0.1384  0.1863 -0.7024
   41MOL0     C 5407   4.481   8.129   8.753  0.7563 -0.4956 -0.2329
   41MOL0     O 5408   4.360   8.185   8.788 -0.0822  0.3456  0.1127
   41MOL0     C 5409   4.360   8.284   8.891  0.6927  0.3699  0.1192
   41MOL0     C 5410   4.214   8.301   8.950 -0.7296 -0.5923  0.9038
   41MOL0     C 5411   4.155   8.170   9.005 -1.0779 -0.8542 -0.1675
   41MOL0     C 5412   4.037   8.188   9.100 -0.0184  0.7943  1.0609
   41MOL0     C 5413   3.917   8.194   9.007  1.1838  0.7222  0.0371
   41MOL0     C 5414   3.792   8.245   9.076 -0.8433 -0.2175 -0.1430
   41MOL0     C 5415   3.667   8.210   8.993 -0.1301 -0.3530 -0.0483
   41MOL0     C 5416   3.532   8.252   9.065  0.1902 -0.4438 -0.9211
   41MOL0     N 5417   3.430   8.267   8.963  0.1563 -0.0738  0.5472
   41MOL0     C 5418   3.325   8.187   8.955 -0.3820 -0.0856  0.0430
   41MOL0     C 5419   3.232   8.247   8.875  0.3622 -0.3450 -0.2831
   41MOL0     C 5420   3.109   8.186   8.828 -0.8344  0.1413 -0.2838
   41MOL0     C 5421   3.139   8.102   8.705 -0.0813  0.0263  0.7927
   41MOL0     C 5422   3.006   8.034   8.670 -0.4771 -0.3403  0.8510
   41MOL0     C 5423   3.033   7.917   8.574 -0.3210  0.1690 -0.3488
   41MOL0     O 5424   2.910   7.852   8.546 -0.4263 -0.5874  0.4702
   41MOL0     C 5425   2.904   7.716   8.518 -0.3669 -0.9435 -0.6174
   41MOL0     C 5426   2.779   7.663   8.530 -0.0279  1.0674 -0.2737
   41MOL0     C 5427   2.752   7.521   8.521 -0.2349 -0.0112  0.3692
   41MOL0     C 5428   2.613   7.466   8.546  0.6360 -0.9034 -0.4424
   41MOL0     C 5429   2.864   7.434   8.498 -0.7263 -0.5769 -0.3707
   41MOL0     C 5430   2.857   7.286   8.465 -1.2356 -0.0748  0.5491
   41MOL0     O 5431   2.962   7.233   8.392  0.6995 -0.5920  0.4493
   41MOL0     C 5432   2.984   7.099   8.370  0.3364 -0.0989  0.1270
   41MOL0     C 5433   3.050   7.070   8.254 -0.2741  0.2106 -1.1848
   41MOL0     C 5434   3.073   6.942   8.208  0.6034  0.3260 -0.3452
   41MOL0     C 5435   3.043   6.828   8.283 -0.1134  0.6065 -0.2154
   41MOL0     O 5436   3.089   6.704   8.238  0.1969  0.0251  0.2230
   41MOL0     C 5437   3.060   6.584   8.312 -0.0109  0.0289 -0.2237
   41MOL0     C 5438   3.152   6.575   8.437 -0.6985  0.0449 -0.3517
   41MOL0     C 5439   3.295   6.626   8.410  1.5010  0.4283  0.6232
   41MOL0     C 5440   3.362   6.527   8.317  0.4726 -0.4218  0.3329
   41MOL0     C 5441   3.508   6.559   8.292 -0.1204 -0.1009 -0.5660
   41MOL0     C 5442   3.556   6.459   8.184  0.2468 -0.8214  0.2226
   41MOL0     C 5443   3.700   6.422   8.188 -0.0125  0.8502 -0.4430
   41MOL0     C 5444   3.753   6.344   8.316 -1.1186 -0.1643  0.5231
   41MOL0    Cl 5445   3.928   6.328   8.319  0.1623  0.1551  0.0676
   41MOL0     C 5446   2.976   6.856   8.399 -0.2622  0.0677 -0.5662
   41MOL0     C 5447   2.950   6.993   8.446  0.0469  0.9337  0.0696
   41MOL0     O 5448   2.757   7.227   8.504 -0.3724  0.5279  0.1540
   41MOL0     C 5449   2.991   7.493   8.493 -0.7181  0.6789  0.5432
   41MOL0     C 5450   3.012   7.631   8.499  0.1622  0.3540  0.2094
   41MOL0     N 5451   3.287   8.367   8.834 -0.3730  0.4459 -0.3347
   41MOL0     N 5452   3.399   8.381   8.888  1.0604  0.0570  0.0246
   41MOL0     C 5453   4.477   8.000   8.704 -0.5603  0.0266 -0.5708
   41MOL0     C 5454   4.598   7.938   8.673 -0.0416  0.5986  0.2482
   41MOL0     C 5455   5.061   7.871   8.685 -0.2237 -0.7450 -0.2165
   41MOL0     C 5456   5.147   7.828   8.789  0.4577 -0.7762  0.4944
   41MOL0     C 5457   5.275   7.777   8.749  0.2997 -0.3131  0.2058
   41MOL0     C 5458   5.309   7.748   8.617 -0.4898 -0.3649 -0.8972
   41MOL0     O 5459   5.434   7.692   8.582  0.2962  0.7679 -0.3055
   41MOL0     C 5460   5.532   7.653   8.676 -0.1628 -0.0977 -1.1683
   41MOL0     C 5461   5.646   7.583   8.610  0.7343  1.0018 -0.3483
   41MOL0     C 5462   5.734   7.676   8.520 -0.3051 -0.4405  0.3138
   41MOL0     C 5463   5.825   7.604   8.417 -0.1406 -0.2816  0.3178
   41MOL0     C 5464   5.928   7.530   8.487  1.0002 -0.0830  0.6316
   41MOL0     C 5465   6.017   7.465   8.543 -0.0556 -0.2841 -0.2282
   41MOL0     C 5466   5.212   7.773   8.516  0.6453 -1.6230  0.2635
   41MOL0     C 5467   5.097   7.841   8.553  0.0054 -0.3100  0.7448
   41MOL0     H 5468   4.807   8.206   8.704  0.1558 -0.9358 -0.7123
   41MOL0     H 5469   4.603   8.309   8.785 -0.8842  0.3010 -1.0017
   41MOL0     H 5470   4.425   8.240   8.967 -1.6902 -2.4086  0.7619
   41MOL0     H 5471   4.397   8.381   8.857 -0.2152 -0.3326 -3.2060
   41MOL0     H 5472   4.229   8.371   9.033  0.6301 -1.5617  1.4999
   41MOL0     H 5473   4.146   8.340   8.873  0.8591 -3.3656 -2.1167
   41MOL0     H 5474   4.127   8.097   8.928  1.1744 -1.0497 -0.8619
   41MOL0     H 5475   4.235   8.122   9.062 -0.6947 -0.1739 -0.1356
   41MOL0     H 5476   4.022   8.101   9.165  3.1185 -0.6043  0.0836
   41MOL0     H 5477   4.042   8.278   9.162 -0.5522  1.9520 -0.5169
   41MOL0     H 5478   3.928   8.254   8.917  1.7158 -0.1945 -0.5261
   41MOL0     H 5479   3.887   8.096   8.969 -2.7512  1.2162  1.4171
   41MOL0     H 5480   3.777   8.205   9.177 -2.0190  3.2574  1.1913
   41MOL0     H 5481   3.797   8.354   9.080  0.5152 -0.2729 -0.0235
   41MOL0     H 5482   3.671   8.235   8.886  2.6413 -4.5154 -1.1546
   41MOL0     H 5483   3.653   8.102   8.980  0.2528 -0.2691 -1.2956
   41MOL0     H 5484   3.537   8.347   9.118  0.9992 -1.0220  0.0731
   41MOL0     H 5485   3.508   8.177   9.140  2.6348 -1.8046 -1.3930
   41MOL0     H 5486   3.318   8.095   9.012  1.0652  0.7015  1.5649
   41MOL0     H 5487   3.068   8.119   8.904 -0.2166  2.4025  2.1726
   41MOL0     H 5488   3.041   8.270   8.810 -0.9245 -0.4714 -3.5351
   41MOL0     H 5489   3.218   8.028   8.718 -0.0656  0.1440  1.4022
   41MOL0     H 5490   3.183   8.175   8.637  0.8890  3.3181  4.5849
   41MOL0     H 5491   2.937   8.105   8.624  1.9012  1.4808 -0.1646
   41MOL0     H 5492   2.959   7.988   8.757  0.0248 -0.8050  0.8803
   41MOL0     H 5493   3.093   7.840   8.624 -0.6365  0.1160 -0.0463
   41MOL0     H 5494   3.093   7.945   8.487  0.0243 -1.9135 -0.8322
   41MOL0     H 5495   2.696   7.732   8.541  0.3306  1.5581 -0.6452
   41MOL0     H 5496   2.583   7.388   8.476  1.9621 -0.7952 -1.1632
   41MOL0     H 5497   2.613   7.421   8.646  1.7810 -1.4774 -0.6917
   41MOL0     H 5498   2.543   7.551   8.552  0.0725 -1.3556 -0.5230
   41MOL0     H 5499   3.084   7.147   8.186  1.1934  0.3950 -0.2680
   41MOL0     H 5500   3.121   6.924   8.112  2.9319 -4.4679  1.3690
   41MOL0     H 5501   2.955   6.591   8.341 -0.1247 -2.3109  0.1273
   41MOL0     H 5502   3.066   6.498   8.245 -0.2101  0.5347 -0.9064
   41MOL0     H 5503   3.125   6.640   8.521 -0.6271  0.0376 -0.3225
   41MOL0     H 5504   3.156   6.473   8.476  2.9437 -0.5206 -1.8384
   41MOL0     H 5505   3.366   6.623   8.493  2.0524 -0.7147  0.1471
   41MOL0     H 5506   3.295   6.730   8.374 -0.1104 -0.1238 -1.1158
   41MOL0     H 5507   3.353   6.428   8.363  1.5066 -0.3595  0.6971
   41MOL0     H 5508   3.310   6.530   8.221  0.1510  0.9883  0.5389
   41MOL0     H 5509   3.570   6.543   8.380  0.9092 -1.0107 -1.4295
   41MOL0     H 5510   3.518   6.664   8.261  1.4666  0.3851  1.3758
   41MOL0     H 5511   3.498   6.370   8.209 -1.1539  0.3818  1.5279
   41MOL0     H 5512   3.516   6.501   8.092 -2.3219 -1.1916  1.0837
   41MOL0     H 5513   3.745   6.521   8.178 -1.5874  1.4610 -2.2647
   41MOL0     H 5514   3.716   6.358   8.100  2.1801  2.0693 -0.9954
   41MOL0     H 5515   3.713   6.243   8.312  0.9375 -0.9971 -1.5816
   41MOL0     H 5516   3.711   6.388   8.408 -0.0284 -0.7086  1.2996
   41MOL0     H 5517   2.937   6.783   8.470  0.0512 -1.5869 -2.0208
   41MOL0     H 5518   2.905   6.999   8.544 -0.0553 -1.8734  0.2654
   41MOL0     H 5519   3.084   7.436   8.491  0.3931  2.3961 -1.8603
   41MOL0     H 5520   3.113   7.670   8.491 -0.1184  1.3252  1.2332
   41MOL0     H 5521   4.396   7.931   8.683  0.7104 -2.6047  2.2961
   41MOL0     H 5522   4.604   7.834   8.643 -2.0493  0.7676 -0.9145
   41MOL0     H 5523   5.116   7.843   8.892 -0.8056  0.9357 -0.0815
   41MOL0     H 5524   5.343   7.767   8.833  0.4530  3.1750  0.6449
   41MOL0     H 5525   5.579   7.747   8.706  0.2091  0.3054 -2.9296
   41MOL0     H 5526   5.501   7.596   8.765 -0.6148 -0.3148 -1.4580
   41MOL0     H 5527   5.608   7.498   8.551 -0.5594 -0.2309  2.0857
   41MOL0     H 5528   5.712   7.548   8.690  1.7450 -0.6974 -1.8260
   41MOL0     H 5529   5.793   7.743   8.582 -1.1818  1.5665 -0.9006
   41MOL0     H 5530   5.663   7.737   8.464  0.5113 -0.2011 -0.4805
   41MOL0     H 5531   5.871   7.671   8.345  2.0119 -1.3760  0.5862
   41MOL0     H 5532   5.770   7.526   8.364 -1.1482 -0.4652  1.5698
   41MOL0     H 5533   6.093   7.401   8.584  0.5154 -0.7670 -1.9775
   41MOL0     H 5534   5.240   7.736   8.418 -0.6399 -1.4588 -0.1819
   41MOL0     H 5535   5.031   7.862   8.470  2.0297 -3.3099 -1.8226
   42MOL0     O 5536   5.074   4.758   5.217 -0.2295  0.0641  0.4337
   42MOL0     C 5537   5.048   4.863   5.275  0.0467 -0.3070 -0.0123
   42MOL0     O 5538   4.927   4.943   5.261 -0.4061 -0.5583  0.5197
   42MOL0     C 5539   4.820   4.897   5.189 -0.1313  1.0269  0.6691
   42MOL0     C 5540   4.732   4.984   5.127  1.2368  0.1335  0.4386
   42MOL0     C 5541   4.630   4.946   5.045  0.2148  0.4260 -0.2916
   42MOL0     C 5542   4.590   4.810   5.048 -0.1505 -1.0619  0.2438
   42MOL0     O 5543   4.476   4.761   4.995 -0.0234 -0.1510  0.4606
   42MOL0     C 5544   4.355   4.840   5.013 -0.2423  1.5106 -0.6542
   42MOL0     C 5545   4.241   4.733   4.987 -0.6484  0.6406 -0.3644
   42MOL0     C 5546   4.101   4.792   5.005 -0.4643  0.6642  0.3980
   42MOL0     C 5547   4.056   4.776   5.145 -0.4582 -0.1135  0.1062
   42MOL0     C 5548   3.932   4.862   5.184  0.7436  0.0192  0.6457
   42MOL0     C 5549   3.801   4.821   5.112  0.1286 -0.0796 -0.3994
   42MOL0     C 5550   3.691   4.919   5.162  0.0647 -0.3148 -0.0016
   42MOL0     C 5551   3.552   4.883   5.096  0.3463 -0.0378 -0.1865
   42MOL0     N 5552   3.444   4.981   5.106 -0.1518 -0.3028  0.1132
   42MOL0     C 5553   3.424   5.066   5.212 -0.4550  0.5037  0.2855
   42MOL0     C 5554   3.298   5.100   5.197  0.4997  0.0670 -0.2892
   42MOL0     C 5555   3.217   5.182   5.306  0.0583 -0.1889 -0.1914
   42MOL0     C 5556   3.061   5.195   5.281 -0.5615  0.4186 -0.3803
   42MOL0     C 5557   3.003   5.280   5.389 -0.6087 -0.0249 -0.2899
   42MOL0     C 5558   2.848   5.283   5.376 -0.4430 -0.0758 -0.3832
   42MOL0     O 5559   2.797   5.356   5.488  0.8449 -0.2143  0.0401
   42MOL0     C 5560   2.661   5.365   5.505  0.1025  0.9085  0.0082
   42MOL0     C 5561   2.566   5.375   5.403  0.1148  0.5149 -0.1307
   42MOL0     C 5562   2.426   5.410   5.424 -0.1196  0.6534 -0.5106
   42MOL0     C 5563   2.343   5.433   5.306  1.1012  0.2562  0.7664
   42MOL0     C 5564   2.387   5.431   5.559  0.5281  1.2001  0.0114
   42MOL0     C 5565   2.256   5.480   5.596  0.2316  1.1267 -0.1606
   42MOL0     O 5566   2.176   5.542   5.496 -1.0247 -0.3015  0.0099
   42MOL0     C 5567   2.062   5.600   5.543  0.0838  0.2224 -0.9026
   42MOL0     C 5568   2.067   5.708   5.629 -0.1836  0.7460 -0.0639
   42MOL0     C 5569   1.945   5.758   5.666  0.2436 -0.2550  0.2795
   42MOL0     C 5570   1.817   5.726   5.603  0.1477  0.3330  0.2125
   42MOL0     O 5571   1.700   5.785   5.644 -0.3590 -0.1455 -0.1266
   42MOL0     C 5572   1.587   5.697   5.625 -0.4249 -0.2042  0.0401
   42MOL0     C 5573   1.460   5.791   5.639 -0.2511  0.2282  0.3816
   42MOL0     C 5574   1.473   5.914   5.551  0.5530  0.0357 -0.3257
   42MOL0     C 5575   1.337   5.983   5.534  0.5987 -0.2184  0.0073
   42MOL0     C 5576   1.354   6.111   5.447  0.8632  0.2612  0.5545
   42MOL0     C 5577   1.228   6.194   5.434  0.1178 -0.8181 -0.0985
   42MOL0     C 5578   1.177   6.254   5.560 -0.3018 -0.2394 -1.0035
   42MOL0     C 5579   1.056   6.347   5.555 -0.4937  1.0401 -0.2554
   42MOL0    Cl 5580   0.916   6.270   5.471 -0.1291 -0.0100  0.1055
   42MOL0     C 5581   1.830   5.626   5.505 -0.1752  0.1426  1.2739
   42MOL0     C 5582   1.946   5.558   5.479 -0.1593  0.4208  0.3900
   42MOL0     O 5583   2.227   5.462   5.713  0.4482 -0.3255 -0.4608
   42MOL0     C 5584   2.483   5.417   5.667 -0.3575 -0.5944 -0.0467
   42MOL0     C 5585   2.617   5.384   5.632  0.4398 -0.9824 -0.9903
   42MOL0     N 5586   3.238   5.044   5.084  0.2601 -0.6808 -0.2714
   42MOL0     N 5587   3.334   4.976   5.024  0.5347 -0.5585 -0.4434
   42MOL0     C 5588   4.663   4.722   5.130 -0.6785 -0.0789 -0.0112
   42MOL0     C 5589   4.778   4.761   5.196 -0.4659 -0.3649 -0.1872
   42MOL0     C 5590   5.154   4.909   5.369  0.4695  0.5619  0.5470
   42MOL0     C 5591   5.117   4.987   5.486 -0.5530  0.3795  1.1161
   42MOL0     C 5592   5.215   5.007   5.582 -1.2064 -0.0996  1.4460
   42MOL0     C 5593   5.342   4.965   5.569  0.2057 -0.1957  0.1261
   42MOL0     O 5594   5.423   4.996   5.670  0.2077  0.5269  0.4481
   42MOL0     C 5595   5.431   4.910   5.776 -0.5059  0.2029 -1.3020
   42MOL0     C 5596   5.547   4.951   5.873  0.2517 -0.3391  0.4374
   42MOL0     C 5597   5.679   4.981   5.807 -0.4866 -0.0551  0.8930
   42MOL0     C 5598   5.791   4.961   5.900  0.7561 -0.3819  0.6576
   42MOL0     C 5599   5.790   5.054   6.018 -0.2895  0.9041 -0.1285
   42MOL0     C 5600   5.793   5.140   6.107 -0.9470  0.2006 -0.0472
   42MOL0     C 5601   5.383   4.915   5.450 -0.5027 -0.2120  0.7273
   42MOL0     C 5602   5.293   4.878   5.347  0.5109 -0.6142 -0.1807
   42MOL0     H 5603   4.748   5.091   5.143  0.9951  0.4671 -1.2820
   42MOL0     H 5604   4.574   5.018   4.986 -0.3482  0.4821  0.2962
   42MOL0     H 5605   4.349   4.877   5.116  0.4774  0.5050 -0.2275
   42MOL0     H 5606   4.355   4.923   4.943  1.2250  0.2962 -2.1891
   42MOL0     H 5607   4.258   4.698   4.885  2.1190 -2.7182  1.0602
   42MOL0     H 5608   4.245   4.641   5.045 -1.3869 -0.0953 -1.4336
   42MOL0     H 5609   4.094   4.892   4.962 -2.5202 -0.8975 -3.3826
   42MOL0     H 5610   4.026   4.738   4.946 -0.3187  1.3978 -0.4752
   42MOL0     H 5611   4.025   4.673   5.169 -2.7822  1.0696  2.8002
   42MOL0     H 5612   4.138   4.798   5.214 -0.1570  2.5614 -1.0238
   42MOL0     H 5613   3.919   4.863   5.293  1.6908  1.5159  0.7759
   42MOL0     H 5614   3.955   4.962   5.148 -0.5909  0.1127  0.0304
   42MOL0     H 5615   3.809   4.816   5.003  0.4372 -1.6064 -0.3278
   42MOL0     H 5616   3.780   4.716   5.135  1.7713 -1.2584 -3.7047
   42MOL0     H 5617   3.670   4.908   5.269  0.8583 -0.1934  0.1725
   42MOL0     H 5618   3.706   5.025   5.140 -0.3461  0.0342  1.3304
   42MOL0     H 5619   3.521   4.789   5.143  1.9385 -0.0583  0.9065
   42MOL0     H 5620   3.582   4.866   4.992  1.7922  2.5914 -0.3033
   42MOL0     H 5621   3.482   5.094   5.299  2.3237 -3.8905  0.1929
   42MOL0     H 5622   3.237   5.132   5.401 -0.8937 -3.7814 -1.7056
   42MOL0     H 5623   3.257   5.281   5.326  0.9749 -0.4525 -0.6515
   42MOL0     H 5624   3.010   5.098   5.289 -0.6724  0.3816 -1.3783
   42MOL0     H 5625   3.047   5.245   5.185 -1.0875  2.1564  0.5479
   42MOL0     H 5626   3.049   5.378   5.405 -0.7702 -0.2178  1.7153
   42MOL0     H 5627   3.010   5.217   5.479  0.7862  0.8024  0.2087
   42MOL0     H 5628   2.821   5.177   5.380 -0.9719  0.0956  1.6994
   42MOL0     H 5629   2.818   5.338   5.286  0.3583 -1.3309 -1.4504
   42MOL0     H 5630   2.594   5.371   5.299 -0.3921  0.3027 -0.2597
   42MOL0     H 5631   2.353   5.539   5.281  1.2968 -0.4369 -2.6802
   42MOL0     H 5632   2.384   5.370   5.226  0.2025  1.6049 -0.8300
   42MOL0     H 5633   2.236   5.412   5.313  1.3724 -1.1321  1.0998
   42MOL0     H 5634   2.166   5.738   5.664  0.5441 -1.0004 -0.5004
   42MOL0     H 5635   1.955   5.829   5.747 -0.1642 -1.2279  1.2073
   42MOL0     H 5636   1.573   5.650   5.527 -1.3784 -1.3585  0.6974
   42MOL0     H 5637   1.583   5.618   5.701 -0.3120 -1.8180 -1.5768
   42MOL0     H 5638   1.368   5.737   5.614  0.3420  0.0168 -1.4570
   42MOL0     H 5639   1.456   5.823   5.743  0.6813  0.2124  0.4280
   42MOL0     H 5640   1.505   5.874   5.454  0.9643 -0.9493  0.1991
   42MOL0     H 5641   1.554   5.979   5.586 -0.6271  3.9029 -3.9939
   42MOL0     H 5642   1.269   5.912   5.487 -2.7191  1.1064  2.3748
   42MOL0     H 5643   1.303   6.004   5.636 -1.9333  0.4088 -0.9094
   42MOL0     H 5644   1.373   6.069   5.348 -0.7800 -1.1810  0.7870
   42MOL0     H 5645   1.437   6.176   5.474  1.8101 -1.2099  1.3430
   42MOL0     H 5646   1.254   6.281   5.373 -1.4972  1.6092  2.4067
   42MOL0     H 5647   1.148   6.144   5.379 -2.3271 -1.1385  3.4239
   42MOL0     H 5648   1.257   6.309   5.611  0.9906 -0.0405 -3.1070
   42MOL0     H 5649   1.150   6.164   5.615  3.7183 -3.2532 -3.4078
   42MOL0     H 5650   1.088   6.440   5.505  0.9108  1.1804  0.8440
   42MOL0     H 5651   1.032   6.378   5.657 -3.0910  0.3567 -0.6017
   42MOL0     H 5652   1.740   5.597   5.451  0.9027  0.6320 -0.8816
   42MOL0     H 5653   1.953   5.473   5.411 -1.5436 -0.6008  1.4710
   42MOL0     H 5654   2.460   5.450   5.768  2.9364  2.2590 -0.0390
   42MOL0     H 5655   2.698   5.404   5.702  0.0027  2.9422 -1.3614
   42MOL0     H 5656   4.615   4.626   5.145 -2.3085  0.2087 -2.6773
   42MOL0     H 5657   4.834   4.682   5.244 -1.2892 -0.0514  1.3813
   42MOL0     H 5658   5.019   5.033   5.498  0.3953  3.0947 -0.5770
   42MOL0     H 5659   5.178   5.052   5.674  0.1090  2.1243  0.9680
   42MOL0     H 5660   5.338   4.908   5.833 -0.5652  1.1080 -1.3602
   42MOL0     H 5661   5.444   4.805   5.745  1.4640  0.6972 -2.3131
   42MOL0     H 5662   5.558   4.879   5.955 -0.9794  0.3197  1.2190
   42MOL0     H 5663   5.525   5.047   5.921  1.3180  0.9436 -1.4960
   42MOL0     H 5664   5.694   5.084   5.773  0.0222 -0.7875 -1.2737
   42MOL0     H 5665   5.684   4.912   5.722 -3.8731 -1.8544  1.9398
   42MOL0     H 5666   5.878   4.977   5.835 -0.2740  0.3735 -0.5842
   42MOL0     H 5667   5.782   4.857   5.933 -0.5479 -0.6549 -0.4668
   42MOL0     H 5668   5.802   5.218   6.179 -0.7654  0.7854 -0.6911
   42MOL0     H 5669   5.489   4.894   5.445  0.2242  2.8313  1.6361
   42MOL0     H 5670   5.325   4.838   5.252  0.2151  2.6359 -1.8130
   43MOL0     O 5671   1.602   1.219   1.216 -0.5391 -0.2514 -0.2529
   43MOL0     C 5672   1.649   1.332   1.205 -0.7724 -0.0622 -0.3181
   43MOL0     O 5673   1.651   1.409   1.090 -0.1713  0.1525 -0.4226
   43MOL0     C 5674   1.580   1.374   0.978 -0.3692  0.8202 -0.2681
   43MOL0     C 5675   1.463   1.301   0.977  0.8162  0.4913  0.0974
   43MOL0     C 5676   1.408   1.261   0.851  0.0141 -0.7643 -0.2726
   43MOL0     C 5677   1.481   1.286   0.728 -0.9122  0.7578 -0.4905
   43MOL0     O 5678   1.446   1.233   0.612 -0.8021  0.1837  0.2454
   43MOL0     C 5679   1.309   1.202   0.601  0.2043  0.8926 -0.4096
   43MOL0     C 5680   1.268   1.180   0.454 -0.0054  0.6263  0.1482
   43MOL0     C 5681   1.358   1.086   0.382  0.4075  0.0670 -0.4787
   43MOL0     C 5682   1.329   1.046   0.240  0.4961  1.1542  0.1458
   43MOL0     C 5683   1.241   0.923   0.226  0.6430 -0.2042  0.2133
   43MOL0     C 5684   1.204   0.894   0.080 -0.0811 -0.0628 -0.0727
   43MOL0     C 5685   1.159   0.754   0.043 -0.3205 -0.0429  0.7609
   43MOL0     C 5686   1.264   0.658  -0.014  0.1953 -0.1585  0.2759
   43MOL0     N 5687   1.313   0.695  -0.153  0.4704 -0.1731  0.0524
   43MOL0     C 5688   1.249   0.666  -0.268  0.0883 -0.4934  0.8993
   43MOL0     C 5689   1.327   0.708  -0.367 -0.8220 -0.1003 -0.8079
   43MOL0     C 5690   1.298   0.692  -0.516 -0.5603  0.9582  0.5544
   43MOL0     C 5691   1.337   0.819  -0.596  0.1839 -0.2539 -0.7150
   43MOL0     C 5692   1.243   0.931  -0.567 -0.1553 -0.5787  0.1786
   43MOL0     C 5693   1.095   0.909  -0.602 -0.3417 -0.1871 -0.2024
   43MOL0     O 5694   1.072   0.862  -0.740  0.1450 -0.4135  0.1972
   43MOL0     C 5695   0.943   0.845  -0.784 -0.4984 -0.8103  0.3390
   43MOL0     C 5696   0.916   0.811  -0.911  0.3192 -0.0337  0.2914
   43MOL0     C 5697   0.786   0.814  -0.964  0.4382  0.1793 -0.2509
   43MOL0     C 5698   0.761   0.782  -1.108  0.2184  1.0343 -1.1711
   43MOL0     C 5699   0.680   0.847  -0.877  0.1355 -0.6062  0.2627
   43MOL0     C 5700   0.540   0.850  -0.927  0.7614 -0.2051 -1.3138
   43MOL0     O 5701   0.487   0.976  -0.927 -0.5325 -0.1407 -0.6787
   43MOL0     C 5702   0.369   0.999  -0.997 -0.5346  0.4105 -0.3592
   43MOL0     C 5703   0.372   0.968  -1.131  0.6704  1.2669  0.4620
   43MOL0     C 5704   0.256   0.979  -1.211 -0.1009 -1.2345  0.3026
   43MOL0     C 5705   0.143   1.041  -1.165  0.1850  0.0392 -0.3083
   43MOL0     O 5706   0.032   1.047  -1.245  0.8224  0.2297  0.4651
   43MOL0     C 5707  -0.082   1.125  -1.207  0.4598  0.1296  0.0714
   43MOL0     C 5708  -0.156   1.175  -1.336 -0.3667  0.2112 -0.4621
   43MOL0     C 5709  -0.260   1.284  -1.340  0.9360 -0.3235 -0.0895
   43MOL0     C 5710  -0.407   1.212  -1.330  1.0748 -0.1086 -0.1336
   43MOL0     C 5711  -0.516   1.317  -1.319  0.1971 -0.2703  0.5132
   43MOL0     C 5712  -0.652   1.260  -1.268 -0.1975 -0.6458  0.4961
   43MOL0     C 5713  -0.770   1.345  -1.304  0.5849  0.0573 -0.4006
   43MOL0     C 5714  -0.878   1.315  -1.202 -0.1952 -0.2442  0.6948
   43MOL0    Cl 5715  -1.028   1.411  -1.231 -0.3513 -0.3679  0.2937
   43MOL0     C 5716   0.148   1.075  -1.028 -0.2092 -0.3852  1.0103
   43MOL0     C 5717   0.258   1.058  -0.946 -0.2638 -0.3022 -0.4075
   43MOL0     O 5718   0.491   0.753  -0.984  0.2511 -0.0804 -0.1002
   43MOL0     C 5719   0.704   0.883  -0.744 -0.2137  0.0316  0.6719
   43MOL0     C 5720   0.838   0.892  -0.700  0.8262 -0.1400 -0.6538
   43MOL0     N 5721   1.439   0.775  -0.310 -1.1829 -0.3813  0.1446
   43MOL0     N 5722   1.425   0.757  -0.183 -0.7804  0.1654 -0.4383
   43MOL0     C 5723   1.611   1.338   0.738  0.4363 -0.2595 -0.1861
   43MOL0     C 5724   1.659   1.393   0.863  0.3843 -0.9302  0.2383
   43MOL0     C 5725   1.712   1.390   1.322  0.1841 -0.0769 -0.0255
   43MOL0     C 5726   1.778   1.518   1.319  0.3307 -0.4638  0.8521
   43MOL0     C 5727   1.830   1.577   1.436 -0.0371  0.1316 -0.2782
   43MOL0     C 5728   1.822   1.516   1.556  0.0058  0.0933 -0.0748
   43MOL0     O 5729   1.863   1.577   1.669 -0.4861 -0.1015  0.3378
   43MOL0     C 5730   1.989   1.651   1.669 -0.8001  0.4834  0.1167
   43MOL0     C 5731   2.110   1.553   1.637  0.5921  0.9419  0.2906
   43MOL0     C 5732   2.246   1.591   1.708  0.0719  0.2571 -0.1608
   43MOL0     C 5733   2.349   1.473   1.722 -0.2383 -0.5395  0.4800
   43MOL0     C 5734   2.424   1.435   1.598 -0.5347 -0.1953 -0.1136
   43MOL0     C 5735   2.486   1.420   1.488 -0.5162 -0.0941 -0.0322
   43MOL0     C 5736   1.774   1.383   1.560  0.0926  0.1693 -0.8398
   43MOL0     C 5737   1.721   1.318   1.446  0.9915 -0.3806 -0.2146
   43MOL0     H 5738   1.409   1.279   1.069 -0.6199  0.5242 -0.7051
   43MOL0     H 5739   1.322   1.195   0.845 -0.2133 -0.3613 -2.3450
   43MOL0     H 5740   1.284   1.111   0.657 -2.2016  0.6405 -1.7527
   43MOL0     H 5741   1.257   1.291   0.637  2.0573  2.1530 -0.7143
   43MOL0     H 5742   1.167   1.137   0.455 -1.3529  3.5146  0.9161
   43MOL0     H 5743   1.258   1.278   0.406 -1.6112  0.6387  0.4312
   43MOL0     H 5744   1.462   1.120   0.381  0.3641  0.2229 -1.9662
   43MOL0     H 5745   1.361   0.993   0.440 -3.2799 -1.5009 -2.4493
   43MOL0     H 5746   1.292   1.138   0.193 -2.8812  0.4000  1.0171
   43MOL0     H 5747   1.426   1.017   0.199  0.3296  1.4597 -0.4860
   43MOL0     H 5748   1.302   0.837   0.257 -0.7728 -0.0232  4.0083
   43MOL0     H 5749   1.146   0.926   0.280 -1.9136  1.7961 -3.8855
   43MOL0     H 5750   1.131   0.973   0.061  0.1671 -0.1031 -1.2353
   43MOL0     H 5751   1.288   0.918   0.015 -1.2807  2.8827 -0.7317
   43MOL0     H 5752   1.116   0.708   0.132 -0.2882  2.3151  2.0794
   43MOL0     H 5753   1.076   0.773  -0.026 -0.4029 -0.3648  0.7730
   43MOL0     H 5754   1.217   0.560  -0.027 -4.2627  1.6139  1.0179
   43MOL0     H 5755   1.359   0.652   0.040 -0.1151 -0.3442  0.8143
   43MOL0     H 5756   1.148   0.631  -0.282 -0.5300  2.0658 -2.1238
   43MOL0     H 5757   1.350   0.603  -0.553 -0.9158  1.4134 -1.0965
   43MOL0     H 5758   1.194   0.661  -0.521 -0.3008 -0.1021  1.2870
   43MOL0     H 5759   1.334   0.795  -0.702  2.6725 -4.0830 -0.1278
   43MOL0     H 5760   1.439   0.838  -0.559 -0.0263 -0.7856  0.1670
   43MOL0     H 5761   1.293   1.010  -0.625 -0.1862 -0.2273  0.6262
   43MOL0     H 5762   1.256   0.953  -0.461 -1.7477 -2.0512  0.7150
   43MOL0     H 5763   1.041   1.002  -0.583 -1.1275 -0.6803 -0.0224
   43MOL0     H 5764   1.052   0.833  -0.537 -0.8337 -0.3177 -0.6768
   43MOL0     H 5765   1.004   0.784  -0.969 -0.2558 -2.7272  0.5356
   43MOL0     H 5766   0.726   0.678  -1.110 -0.4808  1.1587  1.0225
   43MOL0     H 5767   0.684   0.843  -1.154  0.6814  0.3992 -2.8649
   43MOL0     H 5768   0.845   0.798  -1.176  1.6939  1.2000  0.5986
   43MOL0     H 5769   0.461   0.933  -1.184  0.9260  1.6716  0.6229
   43MOL0     H 5770   0.253   0.950  -1.315  0.5729 -3.9678  0.9567
   43MOL0     H 5771  -0.160   1.075  -1.148 -0.4864  0.3792 -0.9323
   43MOL0     H 5772  -0.046   1.208  -1.144  1.2532  0.3772 -0.6905
   43MOL0     H 5773  -0.075   1.217  -1.398  2.0587  0.9930  2.9432
   43MOL0     H 5774  -0.195   1.085  -1.385 -0.3429  0.3742 -0.7870
   43MOL0     H 5775  -0.265   1.349  -1.428 -0.0711  0.7927  0.7548
   43MOL0     H 5776  -0.258   1.346  -1.250 -2.1844 -0.2755  0.0617
   43MOL0     H 5777  -0.426   1.157  -1.422 -1.1958 -0.0633  0.2436
   43MOL0     H 5778  -0.420   1.134  -1.255 -1.5914  0.0230 -0.3506
   43MOL0     H 5779  -0.534   1.370  -1.413  0.6891  3.3079  2.2569
   43MOL0     H 5780  -0.491   1.409  -1.265 -0.5543 -0.4258  1.1469
   43MOL0     H 5781  -0.665   1.163  -1.317 -1.0901  0.2998 -1.2018
   43MOL0     H 5782  -0.636   1.242  -1.161  1.6121 -1.3644  0.1374
   43MOL0     H 5783  -0.809   1.333  -1.406 -2.4904  2.1627  0.4021
   43MOL0     H 5784  -0.746   1.451  -1.289 -0.3184 -0.0550  2.2983
   43MOL0     H 5785  -0.832   1.337  -1.106 -1.0407 -0.5735  1.1811
   43MOL0     H 5786  -0.903   1.209  -1.208  0.3700 -0.4561  1.8059
   43MOL0     H 5787   0.062   1.103  -0.968  0.3260  0.6391  1.3278
   43MOL0     H 5788   0.269   1.094  -0.844 -4.8215  1.4015 -0.2741
   43MOL0     H 5789   0.624   0.922  -0.682  1.5005  1.0743  2.3589
   43MOL0     H 5790   0.857   0.927  -0.600  1.2949  0.8005 -1.0604
   43MOL0     H 5791   1.670   1.352   0.648  0.0171 -0.1209 -0.4420
   43MOL0     H 5792   1.754   1.444   0.871 -1.0428  1.7832  1.1704
   43MOL0     H 5793   1.774   1.572   1.224  0.2958 -0.1570  1.0257
   43MOL0     H 5794   1.882   1.672   1.434 -0.6954  0.5265  0.5117
   43MOL0     H 5795   1.970   1.728   1.594  1.4251 -0.7461 -1.8619
   43MOL0     H 5796   2.009   1.693   1.768  0.4827  1.5241 -0.5656
   43MOL0     H 5797   2.125   1.570   1.529  3.3111  0.4052  0.4922
   43MOL0     H 5798   2.091   1.447   1.654 -2.5963  0.7804 -2.9844
   43MOL0     H 5799   2.218   1.631   1.805  0.4937 -1.4555  0.7128
   43MOL0     H 5800   2.288   1.672   1.648 -1.5416 -0.7207 -2.8353
   43MOL0     H 5801   2.308   1.381   1.767 -0.3035  0.0561  1.6870
   43MOL0     H 5802   2.431   1.495   1.791  0.7102 -2.0153 -0.1265
   43MOL0     H 5803   2.539   1.390   1.401  1.6535 -3.8585  2.3441
   43MOL0     H 5804   1.784   1.332   1.656  2.5842 -0.3344 -1.3038
   43MOL0     H 5805   1.679   1.220   1.465  0.9859 -0.5093 -0.8967
   44MOL0     O 5806   2.489  10.830   0.529 -0.3433  0.1702  0.1995
   44MOL0     C 5807   2.467  10.880   0.425 -0.1011 -0.1861  0.6389
   44MOL0     O 5808   2.344  10.878   0.359 -0.2702  1.1925  0.1104
   44MOL0     C 5809   2.245  10.801   0.410 -0.3532  0.5004  0.3278
   44MOL0     C 5810   2.196  10.703   0.333  0.4816  0.4454  0.1402
   44MOL0     C 5811   2.096  10.614   0.373  0.5895  0.5381  0.4930
   44MOL0     C 5812   2.033  10.624   0.497 -0.2758 -0.0788 -0.5023
   44MOL0     O 5813   1.945  10.527   0.528 -0.5298 -0.3026 -0.2920
   44MOL0     C 5814   1.824  10.569   0.591 -1.0059 -0.4840 -0.0164
   44MOL0     C 5815   1.706  10.479   0.553 -0.7279 -0.2269  0.2954
   44MOL0     C 5816   1.732  10.340   0.624  0.1101  0.5286  0.7462
   44MOL0     C 5817   1.612  10.244   0.608 -0.5008  0.5524  0.1050
   44MOL0     C 5818   1.496  10.258   0.704 -0.4397  0.0818  0.7361
   44MOL0     C 5819   1.376  10.151   0.700 -0.1399 -0.5881 -0.5766
   44MOL0     C 5820   1.263  10.179   0.802 -0.2412 -0.3620 -0.6534
   44MOL0     C 5821   1.166  10.058   0.797 -0.1999  0.6454 -0.6138
   44MOL0     N 5822   1.036  10.117   0.832 -0.4869 -0.3554  0.2782
   44MOL0     C 5823   0.960  10.178   0.743 -0.7455 -0.3207 -0.5046
   44MOL0     C 5824   0.845  10.206   0.810  0.7750 -0.6170 -0.3748
   44MOL0     C 5825   0.715  10.246   0.744  0.3707  0.5073  0.5492
   44MOL0     C 5826   0.620  10.129   0.709 -0.1360  0.1462 -0.3503
   44MOL0     C 5827   0.546  10.089   0.839 -0.3100  0.5902  0.5307
   44MOL0     C 5828   0.408  10.151   0.837 -0.4071  0.2207 -0.6092
   44MOL0     O 5829   0.325  10.079   0.745  0.2464  0.0727  0.8424
   44MOL0     C 5830   0.194  10.103   0.740  0.2564  0.1560 -0.3217
   44MOL0     C 5831   0.118  10.038   0.643 -0.0471  0.6486 -0.2583
   44MOL0     C 5832  -0.027  10.043   0.646 -0.7563  0.3214  0.3651
   44MOL0     C 5833  -0.094   9.940   0.560 -0.0895  0.5667 -0.3627
   44MOL0     C 5834  -0.086  10.124   0.747  0.0307  0.1124  0.1071
   44MOL0     C 5835  -0.227  10.114   0.785  0.2021  0.2030 -0.0053
   44MOL0     O 5836  -0.259  10.182   0.889  0.7824 -0.4413  0.5828
   44MOL0     C 5837  -0.389  10.205   0.919  0.0475 -0.0851  0.1998
   44MOL0     C 5838  -0.436  10.158   1.043 -0.3260  0.1576  0.0039
   44MOL0     C 5839  -0.567  10.171   1.085  0.5951 -0.4037  0.5424
   44MOL0     C 5840  -0.659  10.233   1.002 -0.5758 -0.1531  0.3068
   44MOL0     O 5841  -0.779  10.232   1.059  0.3252 -0.1776  0.3846
   44MOL0     C 5842  -0.884  10.272   0.971  0.4694  0.0028  0.9967
   44MOL0     C 5843  -1.023  10.275   1.038  0.6751  1.0928 -0.0127
   44MOL0     C 5844  -1.094  10.133   1.073  0.4372 -0.8464 -0.2549
   44MOL0     C 5845  -1.210  10.163   1.164  0.1252  0.1026 -0.5358
   44MOL0     C 5846  -1.279  10.027   1.212  0.3898  0.0659 -0.0353
   44MOL0     C 5847  -1.409  10.007   1.132 -0.1780 -0.3521  0.2403
   44MOL0     C 5848  -1.478   9.881   1.175 -0.1052  0.1643 -0.5611
   44MOL0     C 5849  -1.594   9.824   1.086 -0.6362 -0.2973  0.1023
   44MOL0    Cl 5850  -1.641   9.668   1.163  0.8474 -0.0015  0.0580
   44MOL0     C 5851  -0.614  10.289   0.877 -0.6089 -0.7777 -0.1803
   44MOL0     C 5852  -0.482  10.275   0.843 -0.7918 -0.1025 -0.4635
   44MOL0     O 5853  -0.301  10.042   0.719  0.9834  0.3136 -0.2544
   44MOL0     C 5854  -0.003  10.219   0.814 -0.2545 -0.8668 -0.0255
   44MOL0     C 5855   0.134  10.204   0.809 -0.3790 -0.7127  0.0486
   44MOL0     N 5856   0.855  10.180   0.940 -0.8963  0.1512 -0.3993
   44MOL0     N 5857   0.973  10.126   0.961  0.2084  0.1606 -0.0883
   44MOL0     C 5858   2.088  10.735   0.579  0.0752  0.1676  0.3422
   44MOL0     C 5859   2.184  10.822   0.533  0.4041  0.3892  0.1791
   44MOL0     C 5860   2.577  10.961   0.361  0.6135 -0.1170  0.0948
   44MOL0     C 5861   2.708  10.942   0.399  1.3598 -0.2036 -0.1927
   44MOL0     C 5862   2.822  10.997   0.345  0.2803 -1.3742  0.3129
   44MOL0     C 5863   2.802  11.078   0.230  0.3156 -0.2832  0.8427
   44MOL0     O 5864   2.909  11.132   0.161  0.4710  0.0187 -0.4175
   44MOL0     C 5865   3.030  11.052   0.178  0.3974  0.0091  0.0477
   44MOL0     C 5866   3.125  11.106   0.068  0.2207  0.8925 -0.5529
   44MOL0     C 5867   3.273  11.094   0.100 -0.0924  0.5478  0.4472
   44MOL0     C 5868   3.344  10.954   0.117 -0.5082  0.6860  0.2824
   44MOL0     C 5869   3.475  10.957   0.183  0.0270  0.6688  0.2986
   44MOL0     C 5870   3.591  10.933   0.228  0.6483  0.0381 -0.5995
   44MOL0     C 5871   2.670  11.109   0.189 -0.0564 -0.0493 -0.0963
   44MOL0     C 5872   2.561  11.054   0.259 -0.2895 -0.1719 -0.3756
   44MOL0     H 5873   2.241  10.689   0.236  1.1161 -1.9120  0.6901
   44MOL0     H 5874   2.070  10.537   0.301  1.9278 -1.3713  1.9413
   44MOL0     H 5875   1.840  10.571   0.699  1.2713  0.4149 -0.3090
   44MOL0     H 5876   1.805  10.672   0.558  0.5677 -0.7776 -2.1018
   44MOL0     H 5877   1.618  10.529   0.595 -0.1313 -0.6702  2.1663
   44MOL0     H 5878   1.686  10.471   0.446 -0.3355 -0.4802  0.2420
   44MOL0     H 5879   1.826  10.299   0.587  1.3073  2.2945  1.6615
   44MOL0     H 5880   1.735  10.358   0.732 -0.9849 -1.8629  1.2418
   44MOL0     H 5881   1.581  10.272   0.507 -0.6992  1.7535  0.4890
   44MOL0     H 5882   1.634  10.137   0.598 -2.2999  0.3032 -1.9948
   44MOL0     H 5883   1.540  10.281   0.802  2.4625 -3.2661  0.4058
   44MOL0     H 5884   1.451  10.350   0.663  0.4559 -0.3229 -1.2817
   44MOL0     H 5885   1.339  10.146   0.597 -2.6183  0.4568  0.1883
   44MOL0     H 5886   1.425  10.056   0.722 -2.1580 -1.5956 -0.2113
   44MOL0     H 5887   1.306  10.199   0.900  1.3843 -0.2526 -1.3385
   44MOL0     H 5888   1.210  10.269   0.769  1.2632  0.2163 -1.6474
   44MOL0     H 5889   1.197   9.985   0.872  1.8205  0.1853 -1.8233
   44MOL0     H 5890   1.156   9.998   0.706  0.8285 -2.1223  0.9606
   44MOL0     H 5891   0.973  10.183   0.636 -0.9345 -1.1582 -0.5690
   44MOL0     H 5892   0.658  10.322   0.799 -1.7155  0.3539 -1.2393
   44MOL0     H 5893   0.741  10.302   0.654 -0.0642 -1.2309 -0.7236
   44MOL0     H 5894   0.683  10.043   0.684  1.7060  1.7483 -1.4530
   44MOL0     H 5895   0.564  10.156   0.619  3.0759  2.6464 -1.8061
   44MOL0     H 5896   0.598  10.098   0.935 -0.1742  1.9615  0.3502
   44MOL0     H 5897   0.527   9.981   0.835 -1.6504  0.8358 -0.4352
   44MOL0     H 5898   0.428  10.254   0.805 -3.2934  0.8722 -0.5842
   44MOL0     H 5899   0.369  10.140   0.938  2.3210 -3.8900  0.2517
   44MOL0     H 5900   0.155   9.953   0.586  0.8351  0.9972 -0.2292
   44MOL0     H 5901  -0.148  10.003   0.488 -0.1141  1.6607  0.5962
   44MOL0     H 5902  -0.029   9.870   0.507 -2.6009 -1.0731 -1.4740
   44MOL0     H 5903  -0.155   9.867   0.613  1.2270 -0.2959  0.0100
   44MOL0     H 5904  -0.369  10.105   1.110 -0.0943  1.6941  1.0477
   44MOL0     H 5905  -0.606  10.140   1.181 -1.5480 -0.1960 -0.2016
   44MOL0     H 5906  -0.854  10.371   0.934 -0.9528 -0.0318 -0.3371
   44MOL0     H 5907  -0.875  10.204   0.886  0.9654 -0.6663  1.5759
   44MOL0     H 5908  -1.013  10.326   1.134  1.9571  1.5290 -0.3532
   44MOL0     H 5909  -1.084  10.330   0.966  0.3956 -1.7498 -2.1143
   44MOL0     H 5910  -1.028  10.059   1.120 -1.6502 -2.9962 -0.5315
   44MOL0     H 5911  -1.143  10.090   0.985 -1.3574  1.3224 -0.3934
   44MOL0     H 5912  -1.174  10.223   1.249  1.7805  0.8933 -1.7432
   44MOL0     H 5913  -1.284  10.226   1.114 -1.7198  0.7672  2.7432
   44MOL0     H 5914  -1.301  10.043   1.318  0.5486  0.9339 -0.1286
   44MOL0     H 5915  -1.220   9.936   1.195 -2.6174 -2.1594  0.5525
   44MOL0     H 5916  -1.473  10.095   1.139  2.1875  1.5005 -0.4331
   44MOL0     H 5917  -1.389   9.999   1.024 -0.0277 -0.9816  0.3085
   44MOL0     H 5918  -1.523   9.893   1.274  0.0164  2.0324 -0.6859
   44MOL0     H 5919  -1.406   9.799   1.183 -2.1672 -1.8518 -1.6769
   44MOL0     H 5920  -1.559   9.801   0.985  1.6564  2.3790  0.1627
   44MOL0     H 5921  -1.677   9.894   1.087 -0.0498  0.6354  4.6681
   44MOL0     H 5922  -0.678  10.348   0.812 -0.3707  1.2487  1.3300
   44MOL0     H 5923  -0.448  10.322   0.751 -4.7738  0.5871 -1.8155
   44MOL0     H 5924  -0.039  10.296   0.882  2.4115  0.6920 -0.2242
   44MOL0     H 5925   0.197  10.274   0.863  1.2332  0.5864 -3.2047
   44MOL0     H 5926   2.058  10.754   0.681  0.3039 -0.3687  0.5079
   44MOL0     H 5927   2.212  10.899   0.604 -0.6317  3.4889 -2.5051
   44MOL0     H 5928   2.717  10.876   0.485 -0.2577 -0.2591 -0.0428
   44MOL0     H 5929   2.920  10.971   0.385  1.3619  3.1551  1.2092
   44MOL0     H 5930   3.082  11.071   0.272 -2.4806 -0.3588  1.8479
   44MOL0     H 5931   3.006  10.947   0.160  1.1190 -0.5929  2.2657
   44MOL0     H 5932   3.109  11.214   0.068  0.4456  0.9271 -0.3749
   44MOL0     H 5933   3.093  11.053  -0.022 -4.3430  0.4249  1.1004
   44MOL0     H 5934   3.287  11.151   0.192  0.6598  2.7643 -0.9555
   44MOL0     H 5935   3.332  11.148   0.025  3.0278 -1.6327  1.1377
   44MOL0     H 5936   3.358  10.912   0.017  1.0356  0.7777  0.4367
   44MOL0     H 5937   3.279  10.896   0.183  1.4882 -0.1101  1.6261
   44MOL0     H 5938   3.684  10.908   0.275 -0.2093 -0.5685  0.8435
   44MOL0     H 5939   2.652  11.177   0.106 -1.1555 -1.3011 -0.9193
   44MOL0     H 5940   2.458  11.076   0.234 -0.9184 -0.8078  1.4858
   45MOL0     O 5941   1.093   0.780   6.610 -0.5476 -0.3853  0.4195
   45MOL0     C 5942   1.077   0.796   6.732  0.3302 -0.0748  0.5031
   45MOL0     O 5943   0.976   0.742   6.811  0.1153 -0.9279 -0.5600
   45MOL0     C 5944   0.888   0.655   6.765 -0.0221  0.5243 -0.1160
   45MOL0     C 5945   0.872   0.527   6.827 -0.2337  0.6496 -0.3344
   45MOL0     C 5946   0.770   0.438   6.789 -0.5479  0.7465 -0.4330
   45MOL0     C 5947   0.697   0.465   6.670 -1.0106 -0.1253  0.0264
   45MOL0     O 5948   0.609   0.375   6.617  0.5549  1.1684  0.6878
   45MOL0     C 5949   0.526   0.298   6.702 -0.0484 -0.3827 -0.5976
   45MOL0     C 5950   0.399   0.235   6.637  0.0019 -0.4114  0.3034
   45MOL0     C 5951   0.321   0.340   6.564  0.3938  0.4550 -0.1621
   45MOL0     C 5952   0.206   0.280   6.487 -0.1472 -0.2410  0.4921
   45MOL0     C 5953   0.113   0.384   6.407 -0.6231  0.4777 -0.3559
   45MOL0     C 5954   0.013   0.305   6.320  1.2382 -0.1183 -0.3235
   45MOL0     C 5955   0.075   0.256   6.183  0.3717 -0.0376 -0.4997
   45MOL0     C 5956  -0.029   0.254   6.073 -0.5411  0.8249 -0.6043
   45MOL0     N 5957  -0.147   0.179   6.104 -1.0731 -0.4892 -1.7644
   45MOL0     C 5958  -0.151   0.044   6.108  0.8172  0.1474 -0.2683
   45MOL0     C 5959  -0.283   0.012   6.138  0.4606  0.4198 -0.3030
   45MOL0     C 5960  -0.348  -0.127   6.150 -0.0920 -0.1913  0.1245
   45MOL0     C 5961  -0.264  -0.224   6.232 -0.1176 -0.3863  0.2571
   45MOL0     C 5962  -0.318  -0.359   6.278 -0.6182 -0.2523 -0.6867
   45MOL0     C 5963  -0.466  -0.357   6.324  0.8555 -0.3013  0.4065
   45MOL0     O 5964  -0.543  -0.363   6.206  0.1440  0.0288  0.1992
   45MOL0     C 5965  -0.656  -0.293   6.201  0.4583 -0.3446  0.0883
   45MOL0     C 5966  -0.754  -0.281   6.302  0.0386 -0.5920 -0.7851
   45MOL0     C 5967  -0.859  -0.181   6.301  0.0883  0.2419  0.0999
   45MOL0     C 5968  -0.951  -0.182   6.420  0.4367 -0.1050  0.2547
   45MOL0     C 5969  -0.855  -0.091   6.191 -0.3020 -0.3281  0.0026
   45MOL0     C 5970  -0.948   0.028   6.176 -0.7935  0.0754  0.4833
   45MOL0     O 5971  -0.895   0.123   6.088 -0.1756 -0.3015 -0.6209
   45MOL0     C 5972  -0.940   0.250   6.126  0.7242  0.2060 -1.7400
   45MOL0     C 5973  -0.863   0.346   6.201  1.3070 -0.1995 -0.8239
   45MOL0     C 5974  -0.926   0.458   6.246  0.3372 -0.7061  0.1060
   45MOL0     C 5975  -1.051   0.496   6.208 -0.6147  0.2025  0.7536
   45MOL0     O 5976  -1.106   0.609   6.269  0.1707  0.5290  0.2968
   45MOL0     C 5977  -1.217   0.660   6.197  0.1174 -0.0455  0.5215
   45MOL0     C 5978  -1.263   0.797   6.248  0.8419  0.3544 -0.1956
   45MOL0     C 5979  -1.419   0.832   6.209  0.8371  0.2480 -0.4207
   45MOL0     C 5980  -1.505   0.749   6.307 -0.4927  0.1162  0.0488
   45MOL0     C 5981  -1.506   0.810   6.450  0.3297 -0.0620 -0.2852
   45MOL0     C 5982  -1.594   0.929   6.472 -0.0643  0.6715 -0.2339
   45MOL0     C 5983  -1.582   0.983   6.615 -0.3907 -0.1360 -0.3658
   45MOL0     C 5984  -1.711   0.987   6.695  0.3635 -0.5997 -0.6621
   45MOL0    Cl 5985  -1.750   0.821   6.748 -0.3872  0.1680  0.1406
   45MOL0     C 5986  -1.124   0.400   6.128 -0.2031 -0.8731 -0.4280
   45MOL0     C 5987  -1.073   0.280   6.084 -0.3583 -0.4704  0.3780
   45MOL0     O 5988  -1.048   0.041   6.244  0.2320  0.4636  0.3518
   45MOL0     C 5989  -0.771  -0.118   6.082  0.6635 -0.0664 -0.2087
   45MOL0     C 5990  -0.676  -0.221   6.082  0.4693  0.2378 -0.6988
   45MOL0     N 5991  -0.360   0.128   6.135  0.0817  0.4494 -0.1632
   45MOL0     N 5992  -0.277   0.228   6.118 -0.2285  0.5492  0.3924
   45MOL0     C 5993   0.723   0.583   6.597 -0.1815 -1.1238 -0.3109
   45MOL0     C 5994   0.811   0.679   6.650  0.1953 -0.0954 -0.2032
   45MOL0     C 5995   1.175   0.873   6.815 -0.2294 -0.0163 -0.5025
   45MOL0     C 5996   1.170   0.868   6.952  0.7166 -0.2374 -0.2746
   45MOL0     C 5997   1.249   0.929   7.032  0.3554 -0.2124 -0.4880
   45MOL0     C 5998   1.353   1.006   6.969 -0.0445  0.1658 -0.3116
   45MOL0     O 5999   1.453   1.066   7.037 -0.2100  0.0625  0.8307
   45MOL0     C 6000   1.479   1.049   7.172 -0.9698 -0.3175 -0.3871
   45MOL0     C 6001   1.386   1.139   7.255  0.2553 -0.3099 -0.0697
   45MOL0     C 6002   1.408   1.117   7.406  0.6048 -0.7549 -0.4718
   45MOL0     C 6003   1.351   0.979   7.449 -0.6098  0.2555  0.3315
   45MOL0     C 6004   1.454   0.866   7.433  0.1752 -0.4918 -0.0894
   45MOL0     C 6005   1.539   0.773   7.434  0.7673  0.7527 -0.1805
   45MOL0     C 6006   1.362   1.023   6.835 -0.2776 -0.3803  0.0188
   45MOL0     C 6007   1.279   0.944   6.760 -0.1343  0.0669  0.1781
   45MOL0     H 6008   0.956   0.493   6.887  0.5016 -0.0298 -1.6886
   45MOL0     H 6009   0.755   0.342   6.836  0.8614  1.2728  1.1750
   45MOL0     H 6010   0.588   0.217   6.742  0.8212 -0.1573 -1.4532
   45MOL0     H 6011   0.488   0.358   6.784  0.5267  2.1217 -2.0584
   45MOL0     H 6012   0.435   0.161   6.565 -0.8921  0.0545 -0.6430
   45MOL0     H 6013   0.353   0.184   6.722  1.9764 -3.5992 -0.3382
   45MOL0     H 6014   0.289   0.421   6.630 -2.7644 -0.0389 -0.9058
   45MOL0     H 6015   0.383   0.387   6.487  1.7338 -0.8610  0.0757
   45MOL0     H 6016   0.254   0.206   6.422 -0.2533 -0.4850  0.6890
   45MOL0     H 6017   0.147   0.216   6.553  0.2724  0.8425  1.9680
   45MOL0     H 6018   0.056   0.440   6.482  0.7865 -0.6714  1.6596
   45MOL0     H 6019   0.171   0.456   6.349 -0.6482  0.6733 -0.1412
   45MOL0     H 6020  -0.023   0.220   6.378 -0.8379 -0.0608 -1.4037
   45MOL0     H 6021  -0.074   0.367   6.296  1.3341  0.8170  1.5973
   45MOL0     H 6022   0.150   0.328   6.151 -0.9015  0.5934 -2.2491
   45MOL0     H 6023   0.112   0.153   6.191 -0.7247 -0.4125 -0.0554
   45MOL0     H 6024   0.026   0.204   5.993  1.5208  1.2440  0.4804
   45MOL0     H 6025  -0.048   0.359   6.050 -0.8823  0.7944 -0.4684
   45MOL0     H 6026  -0.067  -0.021   6.090  1.3481  0.3980  1.2371
   45MOL0     H 6027  -0.442  -0.107   6.203  0.0701  0.7008  0.0920
   45MOL0     H 6028  -0.379  -0.162   6.051 -0.2492  1.1458 -0.3149
   45MOL0     H 6029  -0.238  -0.170   6.324  0.9880  0.1338 -0.3382
   45MOL0     H 6030  -0.166  -0.240   6.188 -0.4115 -3.8709  0.6345
   45MOL0     H 6031  -0.273  -0.398   6.369  2.7145  0.7956 -1.7327
   45MOL0     H 6032  -0.298  -0.440   6.207 -2.6639 -1.8692  0.4810
   45MOL0     H 6033  -0.479  -0.262   6.378  1.8288 -0.6668  1.3232
   45MOL0     H 6034  -0.499  -0.438   6.390 -0.1853  2.0537  3.0318
   45MOL0     H 6035  -0.754  -0.352   6.384 -1.1242  1.8094  1.4874
   45MOL0     H 6036  -1.055  -0.202   6.392  0.7184 -1.1374 -0.0974
   45MOL0     H 6037  -0.928  -0.271   6.480  1.7665 -0.2259 -0.4002
   45MOL0     H 6038  -0.939  -0.092   6.480  0.3925  0.8727 -1.1402
   45MOL0     H 6039  -0.761   0.325   6.230  0.8152 -1.6625 -0.0691
   45MOL0     H 6040  -0.886   0.541   6.305 -3.1146  0.8089  0.5837
   45MOL0     H 6041  -1.180   0.679   6.096  2.6025 -1.1682  1.1420
   45MOL0     H 6042  -1.305   0.595   6.200  1.1835 -1.5685 -0.0833
   45MOL0     H 6043  -1.252   0.802   6.357  1.1439 -1.4390 -0.1225
   45MOL0     H 6044  -1.198   0.873   6.204  0.1221  1.1219  0.0380
   45MOL0     H 6045  -1.432   0.806   6.104  1.2559 -0.9724 -0.1915
   45MOL0     H 6046  -1.446   0.938   6.207  1.4309  0.3855 -1.4174
   45MOL0     H 6047  -1.608   0.737   6.272 -0.9444 -0.6604  1.5832
   45MOL0     H 6048  -1.474   0.644   6.312  2.3070  0.7517 -1.8545
   45MOL0     H 6049  -1.406   0.825   6.490  0.3277 -2.6274  0.9097
   45MOL0     H 6050  -1.556   0.729   6.505 -0.9812  1.4296  0.8389
   45MOL0     H 6051  -1.552   1.006   6.407  0.5588 -1.8942 -3.1240
   45MOL0     H 6052  -1.695   0.895   6.445  0.5778 -0.6045 -1.1665
   45MOL0     H 6053  -1.537   1.082   6.603  1.3774 -0.9851 -1.0784
   45MOL0     H 6054  -1.504   0.924   6.664 -1.1733 -1.6343 -0.8590
   45MOL0     H 6055  -1.799   1.040   6.658  0.3063  0.5071  0.9343
   45MOL0     H 6056  -1.686   1.050   6.781 -0.5609 -2.2610  0.9068
   45MOL0     H 6057  -1.226   0.418   6.094 -0.9201 -4.8166 -0.8536
   45MOL0     H 6058  -1.133   0.219   6.017 -1.1847 -0.3039  0.9534
   45MOL0     H 6059  -0.782  -0.066   5.987  0.8130 -2.5111 -1.6400
   45MOL0     H 6060  -0.603  -0.250   6.007  1.1102 -0.5419  0.2098
   45MOL0     H 6061   0.675   0.607   6.503 -1.6891 -2.2504  0.1382
   45MOL0     H 6062   0.835   0.764   6.587 -2.3512  0.2338 -0.8419
   45MOL0     H 6063   1.099   0.808   7.009 -0.3574  1.1248 -0.1287
   45MOL0     H 6064   1.248   0.908   7.138 -2.5564 -1.1237 -0.6225
   45MOL0     H 6065   1.468   0.944   7.199  1.5836 -0.2277  1.3530
   45MOL0     H 6066   1.584   1.075   7.190 -0.3952 -2.6103 -0.0942
   45MOL0     H 6067   1.281   1.126   7.228  0.6458 -0.0203 -1.8712
   45MOL0     H 6068   1.415   1.240   7.224  0.6152 -0.9550 -2.0421
   45MOL0     H 6069   1.348   1.195   7.455  2.2406  2.2748 -2.8835
   45MOL0     H 6070   1.509   1.141   7.441 -0.7859  1.6729  2.4024
   45MOL0     H 6071   1.257   0.959   7.396 -0.0217 -0.1790 -0.5648
   45MOL0     H 6072   1.322   0.986   7.554  1.3519 -2.0985  1.1159
   45MOL0     H 6073   1.610   0.694   7.428  0.7577  0.5778  1.6385
   45MOL0     H 6074   1.446   1.081   6.798  0.9259 -1.8333  0.3152
   45MOL0     H 6075   1.281   0.953   6.651 -3.1971 -0.1593  0.0269
   46MOL0     O 6076   9.849   6.892   1.980 -0.2433 -0.2379 -0.0052
   46MOL0     C 6077   9.790   6.967   2.063  0.2001  0.4107 -0.4975
   46MOL0     O 6078   9.680   7.047   2.034 -0.4284  0.3235  0.2916
   46MOL0     C 6079   9.615   7.047   1.919  0.5532 -0.1372  1.2792
   46MOL0     C 6080   9.542   7.169   1.899  0.0639 -0.2519  1.6649
   46MOL0     C 6081   9.453   7.174   1.790 -0.0066 -0.0897  0.0392
   46MOL0     C 6082   9.433   7.063   1.703 -0.1241  0.7915  0.5393
   46MOL0     O 6083   9.335   7.058   1.609 -0.4801  0.3254 -0.3206
   46MOL0     C 6084   9.268   7.174   1.559 -0.8539 -0.2033  0.0970
   46MOL0     C 6085   9.243   7.133   1.415  0.0107 -0.2838  0.0900
   46MOL0     C 6086   9.165   6.994   1.406 -0.2141  0.4204  0.5170
   46MOL0     C 6087   9.124   6.948   1.265  1.2943 -0.9053  0.7693
   46MOL0     C 6088   9.053   6.816   1.252 -0.2468 -0.2510 -0.4048
   46MOL0     C 6089   8.939   6.812   1.149  0.8559  0.3206  0.0846
   46MOL0     C 6090   8.873   6.667   1.163 -0.0081  0.0598  0.0015
   46MOL0     C 6091   8.762   6.644   1.057  0.4495  0.0275 -0.2589
   46MOL0     N 6092   8.692   6.519   1.094  0.0773 -0.2882  0.3142
   46MOL0     C 6093   8.732   6.388   1.086 -0.1536  0.0690 -0.3856
   46MOL0     C 6094   8.631   6.319   1.137  0.6126  0.0641  0.1748
   46MOL0     C 6095   8.646   6.168   1.163 -0.1639 -0.3750  0.3931
   46MOL0     C 6096   8.705   6.088   1.043  0.4047 -0.1894 -0.5473
   46MOL0     C 6097   8.640   5.946   1.031 -0.0665  0.1243  0.5996
   46MOL0     C 6098   8.503   5.943   0.965 -0.2741 -0.9544  0.3735
   46MOL0     O 6099   8.463   5.807   0.946  0.0716  0.3938 -0.6147
   46MOL0     C 6100   8.345   5.765   0.888  0.1238 -0.2717 -0.7280
   46MOL0     C 6101   8.233   5.849   0.850 -0.4139 -0.1173 -0.1734
   46MOL0     C 6102   8.112   5.796   0.799 -0.2244 -0.3244 -0.1452
   46MOL0     C 6103   8.020   5.898   0.728 -1.5743  0.1790  0.5724
   46MOL0     C 6104   8.081   5.661   0.822 -0.5932  0.1037 -0.1566
   46MOL0     C 6105   7.954   5.592   0.790 -0.1683  0.0699 -0.5265
   46MOL0     O 6106   7.960   5.463   0.826 -0.1579 -0.6976  0.2249
   46MOL0     C 6107   7.843   5.397   0.816  0.8119  0.6147  0.4150
   46MOL0     C 6108   7.763   5.382   0.929 -0.9215  0.2072 -0.5265
   46MOL0     C 6109   7.659   5.294   0.918 -0.3536 -0.1757  0.0156
   46MOL0     C 6110   7.620   5.231   0.798 -0.0411  0.7762  0.1746
   46MOL0     O 6111   7.507   5.144   0.804 -0.4687  0.6218  0.2604
   46MOL0     C 6112   7.467   5.088   0.672  0.2821 -0.5500  0.0217
   46MOL0     C 6113   7.358   4.978   0.699  0.3232  0.0843  0.7079
   46MOL0     C 6114   7.227   5.041   0.751  0.1026  0.1078 -0.4254
   46MOL0     C 6115   7.156   4.950   0.851 -0.6330 -0.4018 -0.2592
   46MOL0     C 6116   7.015   4.969   0.884 -0.6056 -0.7645 -0.0728
   46MOL0     C 6117   6.927   5.006   0.770  0.5035 -0.5830  0.5441
   46MOL0     C 6118   6.792   5.030   0.817 -0.5440 -0.1393  0.4085
   46MOL0     C 6119   6.695   5.078   0.709 -0.8525  0.0097 -0.3142
   46MOL0    Cl 6120   6.673   4.961   0.575  0.2368 -0.3897  0.3165
   46MOL0     C 6121   7.687   5.258   0.680 -0.5040  0.5027  0.3958
   46MOL0     C 6122   7.805   5.330   0.692 -0.1246 -0.0986 -0.0727
   46MOL0     O 6123   7.850   5.648   0.751  0.2683 -0.3132 -0.3951
   46MOL0     C 6124   8.190   5.578   0.880 -0.1572 -0.4543 -0.2647
   46MOL0     C 6125   8.321   5.629   0.905  0.0613 -0.4047  0.5236
   46MOL0     N 6126   8.534   6.408   1.186 -0.6124  0.6762  0.0798
   46MOL0     N 6127   8.569   6.527   1.153  0.0213 -0.5729 -0.5907
   46MOL0     C 6128   9.520   6.952   1.720  0.1576 -0.3226  0.1717
   46MOL0     C 6129   9.587   6.936   1.838 -0.0454  0.3193  1.1639
   46MOL0     C 6130   9.846   6.966   2.200 -0.8257  0.0991 -0.3648
   46MOL0     C 6131   9.767   7.008   2.305  0.4193 -0.3323 -0.5926
   46MOL0     C 6132   9.798   7.012   2.438  0.5122  0.1204  1.5796
   46MOL0     C 6133   9.933   6.992   2.472  0.1938 -0.4738  0.8535
   46MOL0     O 6134   9.953   7.005   2.606 -0.5082 -0.1755 -0.2954
   46MOL0     C 6135  10.080   6.983   2.665 -0.3819  0.1790 -0.1748
   46MOL0     C 6136  10.182   7.096   2.644  0.5894 -0.5670  0.0518
   46MOL0     C 6137  10.317   7.053   2.697  0.1617 -0.7690 -0.8492
   46MOL0     C 6138  10.432   7.145   2.653  0.7354  0.0476 -0.7430
   46MOL0     C 6139  10.448   7.140   2.508 -0.0894  0.4050 -0.3954
   46MOL0     C 6140  10.450   7.121   2.395 -0.1833 -0.0435 -0.1830
   46MOL0     C 6141  10.022   6.938   2.372  0.1504 -0.4779  1.3963
   46MOL0     C 6142   9.974   6.926   2.235 -0.1683 -0.4324 -0.0363
   46MOL0     H 6143   9.575   7.249   1.965 -1.3112  0.8262  1.0709
   46MOL0     H 6144   9.403   7.269   1.774 -0.0504 -0.4365 -2.1825
   46MOL0     H 6145   9.185   7.201   1.626 -1.1866 -0.5766 -0.1577
   46MOL0     H 6146   9.334   7.261   1.553 -2.2550  0.8262 -1.3555
   46MOL0     H 6147   9.197   7.212   1.356 -0.8006 -0.8150 -0.0006
   46MOL0     H 6148   9.340   7.114   1.367  1.1221  0.9571  1.6943
   46MOL0     H 6149   9.222   6.913   1.453  0.8234 -1.2432 -3.1882
   46MOL0     H 6150   9.075   7.012   1.464 -1.7919  1.7296 -2.1404
   46MOL0     H 6151   9.054   7.025   1.233  0.7860 -1.8345 -0.4410
   46MOL0     H 6152   9.212   6.953   1.200  1.8607 -0.5953  1.5430
   46MOL0     H 6153   9.128   6.743   1.222 -0.1503 -0.8826  1.2643
   46MOL0     H 6154   9.015   6.793   1.352  3.0050  0.3381  1.0992
   46MOL0     H 6155   8.865   6.891   1.162  1.0949  0.5807 -0.1011
   46MOL0     H 6156   8.995   6.825   1.056  1.0356 -1.3114 -0.0661
   46MOL0     H 6157   8.950   6.589   1.158 -0.5547 -0.5666  0.9666
   46MOL0     H 6158   8.834   6.664   1.265 -1.4946  2.1012 -0.4620
   46MOL0     H 6159   8.814   6.639   0.961  2.2286 -1.5849  0.7048
   46MOL0     H 6160   8.682   6.718   1.061  0.3887 -0.0671  0.4632
   46MOL0     H 6161   8.826   6.343   1.057  1.2235  1.7267  1.2165
   46MOL0     H 6162   8.719   6.168   1.244  0.9233  0.4636 -0.5392
   46MOL0     H 6163   8.559   6.106   1.185 -0.7314 -0.6464 -2.2236
   46MOL0     H 6164   8.811   6.072   1.061 -0.1393 -1.4694  2.0736
   46MOL0     H 6165   8.691   6.147   0.952  1.4005  0.7466 -0.1119
   46MOL0     H 6166   8.641   5.888   1.124 -1.7269 -1.6098 -0.3854
   46MOL0     H 6167   8.700   5.890   0.958  3.3349  3.0861  0.8266
   46MOL0     H 6168   8.512   5.991   0.867 -1.3184 -0.6777  0.4075
   46MOL0     H 6169   8.423   5.999   1.014 -0.6228  1.6169 -2.8022
   46MOL0     H 6170   8.261   5.952   0.832  0.7101 -0.4711 -0.5311
   46MOL0     H 6171   8.032   5.905   0.619  2.7382 -1.1555  0.7857
   46MOL0     H 6172   7.914   5.883   0.753 -1.3607 -2.2507  0.2454
   46MOL0     H 6173   8.044   5.994   0.774  1.5091 -2.2385  4.6420
   46MOL0     H 6174   7.777   5.434   1.023  0.3998 -0.8303 -0.1165
   46MOL0     H 6175   7.589   5.285   1.000  0.8258  0.3777  1.1193
   46MOL0     H 6176   7.436   5.163   0.599 -2.2325 -3.0447 -1.6891
   46MOL0     H 6177   7.545   5.027   0.624  1.3156  0.0413  0.8850
   46MOL0     H 6178   7.338   4.927   0.605 -0.8033  0.2987  0.8133
   46MOL0     H 6179   7.391   4.904   0.773 -0.4522 -1.1009 -0.1013
   46MOL0     H 6180   7.166   5.063   0.663 -0.3940 -1.8275 -0.5985
   46MOL0     H 6181   7.248   5.137   0.799  2.4547 -1.2157  1.4354
   46MOL0     H 6182   7.177   4.850   0.812 -1.6067  0.3026 -2.8197
   46MOL0     H 6183   7.207   4.970   0.946  3.5522  1.8502 -2.6542
   46MOL0     H 6184   7.006   5.046   0.960 -0.4106  0.0301 -0.8354
   46MOL0     H 6185   6.977   4.875   0.927  0.6287 -1.9091 -1.3516
   46MOL0     H 6186   6.952   5.107   0.736  0.6744 -0.2980  1.4879
   46MOL0     H 6187   6.928   4.927   0.694  0.0667  1.3044 -1.5208
   46MOL0     H 6188   6.785   5.090   0.909  2.3319 -1.8085  1.8482
   46MOL0     H 6189   6.759   4.934   0.858 -0.1009 -0.0730  0.9321
   46MOL0     H 6190   6.717   5.178   0.673 -0.9430 -0.8221 -2.8487
   46MOL0     H 6191   6.596   5.107   0.747 -0.0671  1.5885  0.6074
   46MOL0     H 6192   7.661   5.220   0.581  1.4922  2.1786 -0.8758
   46MOL0     H 6193   7.871   5.335   0.606  0.3843  1.1379  0.3563
   46MOL0     H 6194   8.171   5.472   0.894  1.6493 -0.9433 -1.1921
   46MOL0     H 6195   8.394   5.562   0.948  4.8211  2.2468 -2.5960
   46MOL0     H 6196   9.510   6.875   1.644  0.4017 -0.5087  0.3270
   46MOL0     H 6197   9.629   6.840   1.866 -1.8842 -1.1934 -0.8871
   46MOL0     H 6198   9.669   7.049   2.283 -0.3258 -1.1410  1.0273
   46MOL0     H 6199   9.730   7.038   2.518  0.7268 -0.4082  1.9427
   46MOL0     H 6200  10.066   6.951   2.768  0.2679  0.1220 -0.0982
   46MOL0     H 6201  10.123   6.893   2.620 -1.6512  0.2362 -1.6007
   46MOL0     H 6202  10.151   7.181   2.706 -0.2194  0.5509 -1.8165
   46MOL0     H 6203  10.183   7.134   2.542 -1.0598  1.6967  0.8043
   46MOL0     H 6204  10.340   6.961   2.643  3.0677 -0.0941 -0.9215
   46MOL0     H 6205  10.307   7.044   2.806 -0.8517  1.3433 -0.6986
   46MOL0     H 6206  10.527   7.115   2.698 -0.9773 -2.0873  1.8037
   46MOL0     H 6207  10.411   7.250   2.676  1.3417  0.0649 -0.2660
   46MOL0     H 6208  10.446   7.118   2.288 -1.0919 -0.1154 -0.1566
   46MOL0     H 6209  10.114   6.892   2.407 -0.3965 -2.7426  0.0995
   46MOL0     H 6210  10.023   6.876   2.152 -0.0849  0.7666 -0.7338
   47MOL0     O 6211   3.898   1.321   1.966  0.1492  0.0058  0.6816
   47MOL0     C 6212   3.930   1.438   1.943 -0.3882 -0.9832  0.0893
   47MOL0     O 6213   3.866   1.546   1.983  1.3595 -0.2606  0.3411
   47MOL0     C 6214   3.767   1.529   2.071  0.3564 -0.2088 -1.3322
   47MOL0     C 6215   3.782   1.552   2.208 -0.6306 -0.5315 -0.7254
   47MOL0     C 6216   3.670   1.533   2.291 -0.4609 -0.5930 -0.0822
   47MOL0     C 6217   3.541   1.493   2.248 -0.0391  0.2576 -0.0694
   47MOL0     O 6218   3.435   1.468   2.335 -0.2582  0.5119 -0.6163
   47MOL0     C 6219   3.305   1.427   2.292 -0.1071  0.2189  0.3191
   47MOL0     C 6220   3.217   1.408   2.426  0.2209 -0.4644 -0.0554
   47MOL0     C 6221   3.075   1.350   2.403  0.0018 -0.9834  1.1251
   47MOL0     C 6222   2.951   1.429   2.444  0.2839 -0.5122  0.1410
   47MOL0     C 6223   2.822   1.413   2.354 -0.3300  0.0881  0.2539
   47MOL0     C 6224   2.702   1.508   2.390  0.2973 -0.1555 -0.4251
   47MOL0     C 6225   2.580   1.472   2.309 -0.3337 -0.0499  0.2065
   47MOL0     C 6226   2.461   1.565   2.342 -0.5372  0.1156 -0.2172
   47MOL0     N 6227   2.342   1.547   2.258 -0.8391 -0.5394  0.6372
   47MOL0     C 6228   2.261   1.442   2.229 -0.3060 -0.5037  0.4988
   47MOL0     C 6229   2.169   1.486   2.138  0.3682  0.3303  0.3018
   47MOL0     C 6230   2.062   1.395   2.080 -0.6197 -1.0576 -0.6247
   47MOL0     C 6231   1.928   1.476   2.061 -0.2865  0.5302 -0.1814
   47MOL0     C 6232   1.830   1.382   1.996 -0.3293  0.1609 -0.1816
   47MOL0     C 6233   1.698   1.454   1.964  0.0192 -0.2870 -0.5937
   47MOL0     O 6234   1.621   1.503   2.074 -0.4707 -0.7188 -0.2940
   47MOL0     C 6235   1.485   1.501   2.070  0.5082 -0.8243  0.4930
   47MOL0     C 6236   1.415   1.384   2.047 -0.5171  0.3323 -0.0375
   47MOL0     C 6237   1.274   1.392   2.032  0.0349 -0.2738 -1.2295
   47MOL0     C 6238   1.209   1.257   1.984  0.6675  0.0058 -0.4472
   47MOL0     C 6239   1.199   1.501   2.064 -1.3579  0.0457  0.6971
   47MOL0     C 6240   1.052   1.504   2.069  0.7217  0.8452 -0.2122
   47MOL0     O 6241   0.996   1.626   2.066 -0.3033 -0.3357 -0.4147
   47MOL0     C 6242   0.866   1.645   2.105  0.3083 -0.0181  0.1305
   47MOL0     C 6243   0.786   1.721   2.013 -0.4553 -0.3072 -0.5459
   47MOL0     C 6244   0.659   1.770   2.054  1.3298 -0.2132 -0.3938
   47MOL0     C 6245   0.602   1.716   2.176  0.1557 -0.5315  1.1944
   47MOL0     O 6246   0.472   1.742   2.218  0.1238  0.0828 -0.3003
   47MOL0     C 6247   0.388   1.857   2.164  0.2063  0.3513  0.1571
   47MOL0     C 6248   0.278   1.888   2.272 -0.1383 -0.2595 -0.1140
   47MOL0     C 6249   0.138   1.825   2.240  0.3835 -0.3095 -0.1644
   47MOL0     C 6250   0.036   1.842   2.350  0.1962  0.0213 -0.4764
   47MOL0     C 6251  -0.099   1.770   2.315  0.4441 -0.6014  1.2451
   47MOL0     C 6252  -0.214   1.792   2.413  0.3705  0.1443 -0.2499
   47MOL0     C 6253  -0.347   1.732   2.367 -0.0024  0.2595  0.1116
   47MOL0     C 6254  -0.455   1.746   2.478 -0.0901  0.0288  1.0097
   47MOL0    Cl 6255  -0.608   1.696   2.405  0.1782 -0.1576  0.1858
   47MOL0     C 6256   0.674   1.630   2.260 -0.1608 -0.0330  0.0763
   47MOL0     C 6257   0.807   1.601   2.226 -0.0595  0.3497  0.1533
   47MOL0     O 6258   0.991   1.397   2.086  0.0800  0.1865  0.3206
   47MOL0     C 6259   1.276   1.618   2.068 -0.1350 -0.1659 -0.3969
   47MOL0     C 6260   1.413   1.624   2.076 -1.1064  1.1816 -0.0802
   47MOL0     N 6261   2.200   1.619   2.111 -0.0045 -0.2402 -0.4473
   47MOL0     N 6262   2.299   1.654   2.183  0.0872 -0.3073  0.5333
   47MOL0     C 6263   3.529   1.473   2.111 -0.8111  0.4875  0.3815
   47MOL0     C 6264   3.641   1.480   2.029  0.0276 -1.0191  1.0259
   47MOL0     C 6265   4.058   1.468   1.873 -0.5228 -0.0325 -0.1960
   47MOL0     C 6266   4.162   1.380   1.856 -0.9512 -0.4057 -0.0623
   47MOL0     C 6267   4.290   1.428   1.800 -0.4413 -0.4854 -0.4924
   47MOL0     C 6268   4.310   1.557   1.762  0.3710  0.0041  0.5227
   47MOL0     O 6269   4.431   1.593   1.706 -0.2275 -0.1025  0.7100
   47MOL0     C 6270   4.458   1.726   1.664  1.0152  0.0093 -0.1479
   47MOL0     C 6271   4.582   1.726   1.579 -0.0802  0.1943 -0.7284
   47MOL0     C 6272   4.708   1.673   1.665 -0.5855  0.0996  0.4711
   47MOL0     C 6273   4.735   1.521   1.635  0.4933  0.3653  0.4068
   47MOL0     C 6274   4.879   1.487   1.646 -0.2177 -0.3311 -0.0427
   47MOL0     C 6275   4.992   1.448   1.651  0.2125  0.6716 -0.2245
   47MOL0     C 6276   4.202   1.641   1.775 -0.2633 -0.1799  0.9525
   47MOL0     C 6277   4.080   1.597   1.821 -0.1097  0.3233  0.1423
   47MOL0     H 6278   3.876   1.589   2.248 -2.3265  3.6497 -0.0295
   47MOL0     H 6279   3.679   1.542   2.398  0.0721  0.3040 -0.1906
   47MOL0     H 6280   3.258   1.502   2.227 -3.4272 -0.6110  1.5200
   47MOL0     H 6281   3.306   1.334   2.235 -0.4077  0.7298 -0.5399
   47MOL0     H 6282   3.270   1.325   2.473 -0.2343 -3.2098 -3.9449
   47MOL0     H 6283   3.205   1.498   2.487  2.7543  1.4218 -2.1281
   47MOL0     H 6284   3.062   1.345   2.294 -2.3891  0.2645  1.2786
   47MOL0     H 6285   3.070   1.248   2.441 -1.4949 -0.7864  1.5234
   47MOL0     H 6286   2.926   1.403   2.547 -1.0980  1.8328  0.4846
   47MOL0     H 6287   2.980   1.535   2.443  0.1887 -0.4626  1.3599
   47MOL0     H 6288   2.851   1.432   2.250  3.2613 -1.2393  0.8863
   47MOL0     H 6289   2.793   1.308   2.368 -3.0993  0.9606  1.8417
   47MOL0     H 6290   2.683   1.484   2.495  0.8567 -1.2654 -0.5646
   47MOL0     H 6291   2.720   1.615   2.378 -0.0635 -0.1804 -1.1890
   47MOL0     H 6292   2.609   1.479   2.204 -0.8039  1.7122  0.1665
   47MOL0     H 6293   2.552   1.369   2.335  0.8321 -0.0911  1.3746
   47MOL0     H 6294   2.509   1.662   2.328  0.4993 -0.1167  1.4264
   47MOL0     H 6295   2.439   1.543   2.447  0.3772 -1.2045 -0.2738
   47MOL0     H 6296   2.263   1.344   2.276 -0.4328  0.6139  2.9491
   47MOL0     H 6297   2.101   1.356   1.985 -1.6985  2.5142 -2.7209
   47MOL0     H 6298   2.037   1.317   2.153 -3.5673 -0.5265 -0.9588
   47MOL0     H 6299   1.939   1.568   2.003 -3.0362  1.8710  1.1693
   47MOL0     H 6300   1.906   1.516   2.161 -1.3881 -1.3091  0.3577
   47MOL0     H 6301   1.823   1.286   2.048  1.6474  0.2607  0.3235
   47MOL0     H 6302   1.877   1.361   1.899  2.5090  2.1688  0.6368
   47MOL0     H 6303   1.642   1.384   1.901  1.0041 -0.9291 -0.7734
   47MOL0     H 6304   1.725   1.544   1.909  1.4517  1.0884  2.1464
   47MOL0     H 6305   1.465   1.290   2.026 -2.2817 -0.6416 -0.1302
   47MOL0     H 6306   1.137   1.214   2.054 -2.4398  2.2523 -2.0147
   47MOL0     H 6307   1.152   1.266   1.892 -3.0080 -1.6392  1.4725
   47MOL0     H 6308   1.290   1.186   1.967 -1.8936 -3.1332 -0.2841
   47MOL0     H 6309   0.833   1.765   1.925  1.1097  0.8130  0.7891
   47MOL0     H 6310   0.601   1.840   1.994  2.4284  0.0277 -1.1909
   47MOL0     H 6311   0.446   1.948   2.145 -1.0664  1.2410  0.4364
   47MOL0     H 6312   0.343   1.830   2.068  1.9616 -0.0017 -0.6205
   47MOL0     H 6313   0.324   1.843   2.361  1.6451 -2.6923 -2.0999
   47MOL0     H 6314   0.270   1.995   2.292 -1.9845 -0.0851 -1.5625
   47MOL0     H 6315   0.139   1.715   2.237 -1.8379 -0.5095  2.3576
   47MOL0     H 6316   0.099   1.856   2.143 -0.5641 -0.9260 -0.0057
   47MOL0     H 6317   0.065   1.798   2.446 -1.6803 -0.3425 -0.0237
   47MOL0     H 6318   0.019   1.948   2.370  0.4422 -0.1619  0.7590
   47MOL0     H 6319  -0.084   1.663   2.299 -0.0367 -0.4473 -0.5098
   47MOL0     H 6320  -0.139   1.803   2.218 -0.7591 -0.7073  1.6915
   47MOL0     H 6321  -0.181   1.752   2.510  1.7305  1.9650  0.0945
   47MOL0     H 6322  -0.226   1.900   2.428  1.0095 -0.1058  2.7006
   47MOL0     H 6323  -0.339   1.625   2.345 -1.2755  0.7025 -3.1086
   47MOL0     H 6324  -0.390   1.777   2.277  0.7954  1.3900  0.2761
   47MOL0     H 6325  -0.464   1.846   2.522 -1.3302 -1.2563  3.9108
   47MOL0     H 6326  -0.428   1.693   2.569 -0.4875 -2.1812 -0.1010
   47MOL0     H 6327   0.627   1.587   2.347  1.5647 -2.1433  0.0549
   47MOL0     H 6328   0.861   1.536   2.295 -1.3060 -1.1818 -0.2724
   47MOL0     H 6329   1.222   1.711   2.086  2.2664  1.4759 -1.2524
   47MOL0     H 6330   1.468   1.714   2.103 -0.0090  0.2296  0.9970
   47MOL0     H 6331   3.433   1.440   2.075 -0.7268  0.5022  0.1448
   47MOL0     H 6332   3.638   1.448   1.925 -0.8274  1.3651  0.2463
   47MOL0     H 6333   4.140   1.283   1.900  1.8794  0.0570  2.8199
   47MOL0     H 6334   4.368   1.353   1.799  2.3942  2.2819 -0.9987
   47MOL0     H 6335   4.384   1.767   1.595 -0.0398 -0.3822  0.7173
   47MOL0     H 6336   4.464   1.789   1.753  1.0598  0.1347 -0.2412
   47MOL0     H 6337   4.593   1.832   1.555 -0.1320  0.2904 -0.3458
   47MOL0     H 6338   4.563   1.668   1.489 -2.3616 -0.9929  0.4308
   47MOL0     H 6339   4.691   1.677   1.773 -0.1913 -1.9790  0.6519
   47MOL0     H 6340   4.797   1.733   1.642  1.1218 -2.9866 -1.7802
   47MOL0     H 6341   4.704   1.508   1.530  3.0550  0.7225 -0.4592
   47MOL0     H 6342   4.671   1.456   1.695 -0.5132 -1.5784 -2.5259
   47MOL0     H 6343   5.090   1.412   1.674 -0.7827 -3.5726 -1.6578
   47MOL0     H 6344   4.229   1.739   1.737  2.9748 -0.4881  2.1883
   47MOL0     H 6345   4.006   1.676   1.828 -1.6791 -1.1700  1.7499
   48MOL0     O 6346   6.908   4.579   9.473 -0.3276  0.4098 -0.4483
   48MOL0     C 6347   6.930   4.683   9.535 -0.8298  0.0462  0.6098
   48MOL0     O 6348   6.857   4.732   9.635  0.5077 -0.3419  0.6724
   48MOL0     C 6349   6.726   4.683   9.648 -0.1073 -0.1658  0.6588
   48MOL0     C 6350   6.614   4.766   9.606  0.9563  0.2218 -0.4189
   48MOL0     C 6351   6.474   4.727   9.632 -0.9941  0.1479  0.8016
   48MOL0     C 6352   6.449   4.605   9.689 -0.5296  0.6931  0.3813
   48MOL0     O 6353   6.334   4.554   9.733  0.4771 -0.9369  0.3988
   48MOL0     C 6354   6.220   4.650   9.731  0.5237  0.3284 -0.3921
   48MOL0     C 6355   6.094   4.567   9.779 -0.0407 -0.4495 -0.6578
   48MOL0     C 6356   5.978   4.658   9.734 -0.0328  0.3162 -0.2970
   48MOL0     C 6357   5.830   4.623   9.771 -0.8395  0.8665 -0.1414
   48MOL0     C 6358   5.734   4.725   9.702  0.4500 -0.0915  0.8197
   48MOL0     C 6359   5.631   4.641   9.639 -1.0851  0.5778 -0.0958
   48MOL0     C 6360   5.533   4.724   9.561 -0.3300  0.2278 -0.3744
   48MOL0     C 6361   5.422   4.618   9.513  0.0084 -0.4905 -0.2086
   48MOL0     N 6362   5.299   4.672   9.451 -0.5671  0.3199  0.1270
   48MOL0     C 6363   5.236   4.627   9.345  0.0305 -0.3559 -1.0975
   48MOL0     C 6364   5.121   4.690   9.343  1.0796 -0.4125 -0.9573
   48MOL0     C 6365   5.016   4.665   9.240  0.1098  0.0125  0.1145
   48MOL0     C 6366   4.929   4.534   9.273  0.0133  0.6667  0.8372
   48MOL0     C 6367   4.875   4.472   9.142 -0.4142  0.1463 -0.9318
   48MOL0     C 6368   4.768   4.554   9.078 -0.3279 -0.5034  0.7349
   48MOL0     O 6369   4.801   4.681   9.013  0.3179  0.2015 -0.5697
   48MOL0     C 6370   4.698   4.762   8.978  0.2179 -0.5058 -1.6935
   48MOL0     C 6371   4.605   4.715   8.884 -0.0303  0.3086  0.5335
   48MOL0     C 6372   4.503   4.797   8.830 -0.6255  0.3345  0.3276
   48MOL0     C 6373   4.419   4.732   8.721 -0.1701 -0.2773 -0.5079
   48MOL0     C 6374   4.502   4.930   8.880 -0.4421 -0.0227  0.1030
   48MOL0     C 6375   4.396   5.022   8.839  0.6663  0.5819 -0.5377
   48MOL0     O 6376   4.411   5.156   8.867 -0.8306 -0.0294 -0.5968
   48MOL0     C 6377   4.318   5.247   8.838  0.6795 -0.0463  0.8567
   48MOL0     C 6378   4.369   5.370   8.831  0.3589  0.0692  0.1547
   48MOL0     C 6379   4.294   5.486   8.830  0.1623  0.2751  0.7059
   48MOL0     C 6380   4.155   5.479   8.818 -0.7847 -0.3288  0.6688
   48MOL0     O 6381   4.081   5.595   8.828  0.5845  0.7626  0.3315
   48MOL0     C 6382   3.943   5.580   8.781  0.0139 -0.7732  0.2124
   48MOL0     C 6383   3.881   5.719   8.763  0.4082 -1.2296 -1.1545
   48MOL0     C 6384   3.855   5.800   8.888  0.4051  0.1862 -0.1728
   48MOL0     C 6385   3.745   5.901   8.878  0.2570  0.2017 -0.4475
   48MOL0     C 6386   3.704   5.938   9.023 -0.0137 -0.3882 -0.0146
   48MOL0     C 6387   3.610   6.067   9.021 -0.4367  0.2547 -0.2968
   48MOL0     C 6388   3.561   6.083   9.165 -0.1700 -0.1591 -0.3760
   48MOL0     C 6389   3.481   6.220   9.174  0.5358  0.2447  0.1791
   48MOL0    Cl 6390   3.414   6.233   9.339 -0.1805 -0.3735  0.3957
   48MOL0     C 6391   4.098   5.345   8.825 -0.5702  0.5764  0.2571
   48MOL0     C 6392   4.177   5.229   8.842  0.5009 -0.3835  0.3156
   48MOL0     O 6393   4.309   4.977   8.764 -0.0187  0.1470  0.2890
   48MOL0     C 6394   4.598   4.979   8.974  0.4828 -0.2956  0.0139
   48MOL0     C 6395   4.697   4.891   9.021  1.0764  0.6125 -0.5458
   48MOL0     N 6396   5.110   4.767   9.457 -0.4485 -0.7764 -0.0146
   48MOL0     N 6397   5.220   4.763   9.516  0.6833  0.2037  0.3379
   48MOL0     C 6398   6.565   4.527   9.729  0.5560  0.3134 -0.3214
   48MOL0     C 6399   6.697   4.562   9.709 -0.0630 -1.1594 -0.2033
   48MOL0     C 6400   7.058   4.757   9.509  0.0245  1.0801  0.2336
   48MOL0     C 6401   7.149   4.696   9.427  0.9439  0.4314  0.5529
   48MOL0     C 6402   7.275   4.738   9.387 -0.0858  0.2378 -0.2263
   48MOL0     C 6403   7.320   4.851   9.459  0.1750  0.2673  0.5206
   48MOL0     O 6404   7.438   4.910   9.413  0.2371  0.1953 -0.2090
   48MOL0     C 6405   7.561   4.836   9.449  0.5019 -0.1735 -0.3429
   48MOL0     C 6406   7.655   4.917   9.533 -0.1792 -0.8320 -0.8531
   48MOL0     C 6407   7.596   4.976   9.660 -0.1009 -0.2224  0.3898
   48MOL0     C 6408   7.703   5.067   9.743 -0.9455  0.5193  0.5862
   48MOL0     C 6409   7.834   4.996   9.767 -0.4223 -0.5097  0.3506
   48MOL0     C 6410   7.947   4.953   9.769  0.9833  0.1773  0.0010
   48MOL0     C 6411   7.238   4.918   9.547  0.6462 -0.0081 -0.4028
   48MOL0     C 6412   7.108   4.870   9.577 -0.7307  0.2886 -0.3857
   48MOL0     H 6413   6.609   4.868   9.569 -2.8997  0.4303  0.1937
   48MOL0     H 6414   6.406   4.807   9.607 -0.0195  0.8105  0.1822
   48MOL0     H 6415   6.245   4.738   9.792  0.0692 -0.4327  0.9456
   48MOL0     H 6416   6.202   4.678   9.627  1.3681 -1.2538 -1.0038
   48MOL0     H 6417   6.077   4.471   9.729 -2.6458 -0.6377  0.4111
   48MOL0     H 6418   6.105   4.554   9.887  1.1280  0.0227 -0.7125
   48MOL0     H 6419   6.006   4.752   9.783  0.4171 -0.3321  0.7409
   48MOL0     H 6420   5.986   4.680   9.628 -0.6085 -3.1951 -1.2119
   48MOL0     H 6421   5.804   4.520   9.745  2.5703 -0.3670  0.7630
   48MOL0     H 6422   5.818   4.626   9.880 -0.9365  2.9503 -0.1721
   48MOL0     H 6423   5.691   4.792   9.777  3.0899  0.8336  1.6081
   48MOL0     H 6424   5.779   4.790   9.627 -0.7596 -1.2439 -0.9799
   48MOL0     H 6425   5.696   4.580   9.574  2.0249  4.7936 -1.4456
   48MOL0     H 6426   5.590   4.577   9.717  2.1348  0.8360  2.0344
   48MOL0     H 6427   5.495   4.800   9.629  1.9762  0.4309  0.7801
   48MOL0     H 6428   5.573   4.779   9.475 -1.2308  4.3496  1.6280
   48MOL0     H 6429   5.390   4.550   9.593  1.7853 -1.6137 -0.3875
   48MOL0     H 6430   5.471   4.544   9.448  0.0556 -0.9641  0.3510
   48MOL0     H 6431   5.258   4.542   9.281  1.6130 -1.5100  0.8579
   48MOL0     H 6432   4.951   4.750   9.219 -0.0970 -0.5353 -1.6182
   48MOL0     H 6433   5.070   4.649   9.146 -1.2619  2.7544 -1.2580
   48MOL0     H 6434   4.852   4.553   9.348 -2.0024 -1.6355 -0.4771
   48MOL0     H 6435   4.999   4.461   9.314 -2.8059 -1.9823  1.3038
   48MOL0     H 6436   4.843   4.375   9.183  1.6470 -0.1447  0.1031
   48MOL0     H 6437   4.958   4.446   9.076 -0.5608 -2.2887 -0.2812
   48MOL0     H 6438   4.685   4.564   9.148 -1.1725  2.0228 -0.5012
   48MOL0     H 6439   4.737   4.488   8.997  2.3407 -2.1870  0.9644
   48MOL0     H 6440   4.602   4.614   8.842 -0.8523  0.0644  1.1538
   48MOL0     H 6441   4.317   4.709   8.754  0.1868  2.5884  3.2680
   48MOL0     H 6442   4.419   4.794   8.631  0.3594 -1.7825 -1.5937
   48MOL0     H 6443   4.465   4.641   8.681  1.1154 -0.9797  2.3047
   48MOL0     H 6444   4.477   5.371   8.827  0.7586 -5.6944 -4.7883
   48MOL0     H 6445   4.346   5.581   8.838  0.0212  0.4272 -0.1486
   48MOL0     H 6446   3.936   5.523   8.688 -0.2085 -1.4685  0.6510
   48MOL0     H 6447   3.880   5.530   8.855 -0.7218 -0.8770 -0.4753
   48MOL0     H 6448   3.934   5.782   8.692 -0.7232  0.8831 -0.2206
   48MOL0     H 6449   3.785   5.706   8.712 -0.4898 -0.3041  0.2086
   48MOL0     H 6450   3.950   5.841   8.924  1.2427  0.1574 -2.2332
   48MOL0     H 6451   3.816   5.730   8.962 -1.6259 -1.2179 -2.4065
   48MOL0     H 6452   3.770   5.990   8.819  1.6475  1.0004  1.2097
   48MOL0     H 6453   3.658   5.857   8.830 -0.4978  0.6689  0.4640
   48MOL0     H 6454   3.790   5.963   9.086  0.1807  0.3055 -0.5413
   48MOL0     H 6455   3.652   5.856   9.074  0.0053 -1.9757 -2.3845
   48MOL0     H 6456   3.656   6.153   8.973  1.2365 -0.6876 -0.4534
   48MOL0     H 6457   3.515   6.050   8.968 -0.6422  0.5428 -0.0219
   48MOL0     H 6458   3.644   6.085   9.236  1.3646 -0.7016 -2.1024
   48MOL0     H 6459   3.502   5.991   9.170  0.0040 -0.2209  1.2776
   48MOL0     H 6460   3.404   6.221   9.097 -0.5853  0.1225  1.2677
   48MOL0     H 6461   3.541   6.309   9.152 -1.4086  1.3285 -1.0032
   48MOL0     H 6462   3.990   5.340   8.814 -1.0206  2.2948  2.9816
   48MOL0     H 6463   4.133   5.132   8.863  1.3644 -1.0729 -0.9829
   48MOL0     H 6464   4.591   5.081   9.011 -1.3308 -0.9163  1.5264
   48MOL0     H 6465   4.772   4.923   9.093  1.0278 -0.7317  0.1368
   48MOL0     H 6466   6.549   4.426   9.766  2.6161 -0.4256 -1.2581
   48MOL0     H 6467   6.770   4.488   9.741  0.1490 -0.8576  0.0132
   48MOL0     H 6468   7.129   4.600   9.378  4.1765 -0.6671  1.1751
   48MOL0     H 6469   7.336   4.692   9.310 -2.6872  1.4841 -3.2447
   48MOL0     H 6470   7.535   4.746   9.506 -0.8049  0.2747 -0.1985
   48MOL0     H 6471   7.610   4.804   9.357  1.4795  0.1245  0.0696
   48MOL0     H 6472   7.683   4.995   9.462 -3.3776 -0.7431 -2.1750
   48MOL0     H 6473   7.749   4.865   9.550  1.2452  1.0417 -2.4937
   48MOL0     H 6474   7.558   4.903   9.732  0.5324  1.0186  2.0427
   48MOL0     H 6475   7.509   5.037   9.634 -0.4268 -0.8024  0.0810
   48MOL0     H 6476   7.664   5.102   9.839 -0.1448  0.2535  1.0248
   48MOL0     H 6477   7.714   5.150   9.674 -1.9839  0.0640 -0.1417
   48MOL0     H 6478   8.050   4.922   9.770  0.7218 -0.9221 -2.3279
   48MOL0     H 6479   7.274   5.011   9.590  2.2834 -0.1345 -1.3980
   48MOL0     H 6480   7.061   4.932   9.653 -0.1494  1.7779 -1.2149
   49MOL0     O 6481   3.402   3.145   3.541  0.2012  0.5710 -0.0606
   49MOL0     C 6482   3.471   3.153   3.441  0.3157  0.3973  0.9482
   49MOL0     O 6483   3.428   3.168   3.313  0.3991  0.8158  0.1515
   49MOL0     C 6484   3.289   3.159   3.298 -0.9353 -0.1107  0.1973
   49MOL0     C 6485   3.233   3.033   3.251  0.2945 -0.2546  0.5656
   49MOL0     C 6486   3.095   3.028   3.224 -0.7200 -0.4917 -0.2616
   49MOL0     C 6487   3.010   3.138   3.254  1.1079  0.2911 -0.4945
   49MOL0     O 6488   2.877   3.102   3.248 -0.4294  0.0197  0.2324
   49MOL0     C 6489   2.768   3.199   3.230  0.1268  0.5129 -0.1283
   49MOL0     C 6490   2.640   3.110   3.223  0.6312  0.3112  0.5056
   49MOL0     C 6491   2.579   3.074   3.361  0.3076  0.7766  0.6210
   49MOL0     C 6492   2.520   2.934   3.343  0.3704 -0.1736 -0.5574
   49MOL0     C 6493   2.408   2.929   3.244 -0.4240 -0.6837 -0.0541
   49MOL0     C 6494   2.359   2.788   3.224  0.4532 -0.6232  0.1221
   49MOL0     C 6495   2.440   2.709   3.116  0.3730  0.5528  0.2440
   49MOL0     C 6496   2.389   2.564   3.103 -0.4097 -0.3195 -0.3288
   49MOL0     N 6497   2.252   2.566   3.050 -0.0662 -0.1891  0.1831
   49MOL0     C 6498   2.171   2.460   3.057 -0.7742  0.6342  0.4386
   49MOL0     C 6499   2.067   2.488   2.972  0.2535 -0.7643  0.0770
   49MOL0     C 6500   1.963   2.381   2.934  0.6790  0.3195 -0.0886
   49MOL0     C 6501   1.841   2.370   3.031  0.3675  0.6738 -0.7530
   49MOL0     C 6502   1.785   2.492   3.079  0.0457  0.6292  0.2492
   49MOL0     C 6503   1.671   2.459   3.170 -0.7468  0.5319 -0.4441
   49MOL0     O 6504   1.558   2.403   3.098 -0.6941  0.2759  0.6166
   49MOL0     C 6505   1.473   2.324   3.176  1.1387  0.4926 -0.0703
   49MOL0     C 6506   1.478   2.304   3.313 -0.6040  0.2970  0.1891
   49MOL0     C 6507   1.373   2.247   3.382  0.3579  0.6901  0.4710
   49MOL0     C 6508   1.388   2.229   3.527  0.5466  0.1207 -0.7904
   49MOL0     C 6509   1.263   2.190   3.310 -1.3250 -0.3213  0.2588
   49MOL0     C 6510   1.143   2.125   3.370  0.5058 -0.0235 -0.2089
   49MOL0     O 6511   1.038   2.122   3.280  0.6616  0.3297 -0.0191
   49MOL0     C 6512   0.912   2.098   3.338  0.3474 -0.8716 -0.0153
   49MOL0     C 6513   0.861   2.192   3.431  0.5028 -0.2466 -0.0288
   49MOL0     C 6514   0.741   2.163   3.492 -0.4584 -0.5636 -0.1731
   49MOL0     C 6515   0.661   2.056   3.454 -0.4803 -0.1568  0.3986
   49MOL0     O 6516   0.542   2.034   3.515 -0.2302  0.2211  0.4829
   49MOL0     C 6517   0.492   2.092   3.641 -0.9098 -0.8720  0.2434
   49MOL0     C 6518   0.349   2.048   3.678 -0.4444  0.0501 -0.6406
   49MOL0     C 6519   0.346   1.899   3.718  0.1134 -0.2377  0.7166
   49MOL0     C 6520   0.202   1.852   3.721 -0.1216 -0.2427 -0.4734
   49MOL0     C 6521   0.178   1.714   3.783  0.4013 -0.0204 -0.7966
   49MOL0     C 6522   0.021   1.689   3.777 -0.1145  0.3414  0.8954
   49MOL0     C 6523  -0.010   1.558   3.838 -0.3216 -0.0974  0.1812
   49MOL0     C 6524  -0.153   1.547   3.894 -1.0199  0.5321  0.1763
   49MOL0    Cl 6525  -0.281   1.578   3.777  0.1884  0.0951 -0.1300
   49MOL0     C 6526   0.711   1.972   3.358  0.1830 -0.0984  0.6907
   49MOL0     C 6527   0.834   1.995   3.298  0.0642  0.4837  0.0925
   49MOL0     O 6528   1.140   2.073   3.480  0.2760  0.2135  0.7624
   49MOL0     C 6529   1.267   2.201   3.169  0.3509 -0.0291 -0.4670
   49MOL0     C 6530   1.359   2.275   3.104  0.1006  0.3067  0.5501
   49MOL0     N 6531   2.087   2.614   2.918  0.0952  0.9289  0.9081
   49MOL0     N 6532   2.198   2.656   2.968 -0.1063  0.2894  0.2349
   49MOL0     C 6533   3.066   3.257   3.298  0.2305 -0.5126  1.2041
   49MOL0     C 6534   3.202   3.269   3.318 -0.1907  0.0690  0.2396
   49MOL0     C 6535   3.624   3.162   3.449 -0.7532  0.7061  0.2990
   49MOL0     C 6536   3.713   3.194   3.344  0.2473  0.6807  1.3743
   49MOL0     C 6537   3.853   3.199   3.371 -0.3285  0.2746  0.7303
   49MOL0     C 6538   3.918   3.174   3.494  0.3866  1.3580 -0.0066
   49MOL0     O 6539   4.059   3.181   3.510 -0.2319 -0.0267  0.0966
   49MOL0     C 6540   4.126   3.198   3.640  0.1305  0.0560  0.0387
   49MOL0     C 6541   4.207   3.073   3.677 -0.6892 -0.8184  0.5345
   49MOL0     C 6542   4.296   3.092   3.803  0.6317  0.0919  0.6010
   49MOL0     C 6543   4.363   2.955   3.831  0.2953 -0.2106 -0.8022
   49MOL0     C 6544   4.412   2.939   3.967 -0.6590 -0.8648 -0.5180
   49MOL0     C 6545   4.454   2.923   4.082 -0.7094  0.6192 -0.0184
   49MOL0     C 6546   3.824   3.157   3.601 -0.0243 -0.4583 -0.4849
   49MOL0     C 6547   3.693   3.150   3.571  0.0883 -0.7075  0.0920
   49MOL0     H 6548   3.280   2.938   3.227 -0.6573 -0.4733 -0.4715
   49MOL0     H 6549   3.044   2.948   3.171 -0.6489  0.2325 -1.4524
   49MOL0     H 6550   2.766   3.268   3.315  0.1707 -1.2306  1.3397
   49MOL0     H 6551   2.786   3.256   3.138  0.7953  0.9119  0.2357
   49MOL0     H 6552   2.566   3.159   3.159  0.4052  1.7857  1.8335
   49MOL0     H 6553   2.672   3.013   3.185 -3.8873 -1.3116  0.3028
   49MOL0     H 6554   2.662   3.071   3.432  1.3114  0.8192 -0.5037
   49MOL0     H 6555   2.513   3.156   3.392  1.3763  2.8558 -2.0760
   49MOL0     H 6556   2.607   2.870   3.327  2.0343  2.3708 -2.4865
   49MOL0     H 6557   2.476   2.908   3.440  1.4842  0.9589  0.2792
   49MOL0     H 6558   2.331   2.989   3.293  1.9648  3.4741 -0.9463
   49MOL0     H 6559   2.428   2.976   3.148  1.4709  0.0452  0.6308
   49MOL0     H 6560   2.367   2.727   3.315 -0.8803 -1.5486 -0.3390
   49MOL0     H 6561   2.256   2.790   3.186  1.3466  0.3044 -2.3885
   49MOL0     H 6562   2.423   2.768   3.025 -1.6649  1.4556  1.1535
   49MOL0     H 6563   2.548   2.708   3.135  0.8104  0.9260 -1.9285
   49MOL0     H 6564   2.383   2.525   3.205  2.6567  2.2486  0.9975
   49MOL0     H 6565   2.456   2.510   3.035  1.1158  0.0640  0.8074
   49MOL0     H 6566   2.191   2.376   3.123  1.9391  1.7029  1.1198
   49MOL0     H 6567   1.925   2.415   2.837 -0.6559  1.4881  0.8171
   49MOL0     H 6568   2.011   2.286   2.908  0.2110 -0.3571  1.4264
   49MOL0     H 6569   1.870   2.316   3.121  1.7631  4.0209  1.0108
   49MOL0     H 6570   1.763   2.314   2.979  0.5730 -0.7246  0.3925
   49MOL0     H 6571   1.748   2.561   3.003  0.4913  1.2663  0.5969
   49MOL0     H 6572   1.863   2.541   3.138  0.4558 -0.1104  0.3356
   49MOL0     H 6573   1.631   2.550   3.215  0.6681  1.9386 -1.8909
   49MOL0     H 6574   1.714   2.398   3.250 -0.1198  0.4731 -0.8142
   49MOL0     H 6575   1.563   2.342   3.369 -0.5811 -0.0753  0.4113
   49MOL0     H 6576   1.296   2.267   3.572  1.2380 -0.7780  1.5543
   49MOL0     H 6577   1.413   2.131   3.568  2.0626  1.4372  1.7088
   49MOL0     H 6578   1.468   2.296   3.560 -0.4537  2.5683 -2.9280
   49MOL0     H 6579   0.921   2.277   3.462  0.5005 -0.8953  1.8543
   49MOL0     H 6580   0.701   2.223   3.573  1.3711 -0.9299  1.0598
   49MOL0     H 6581   0.563   2.059   3.718 -0.6407 -2.0852 -0.4976
   49MOL0     H 6582   0.505   2.199   3.624 -2.2150 -0.5865  0.9320
   49MOL0     H 6583   0.308   2.108   3.760  0.3683 -1.1675  0.7215
   49MOL0     H 6584   0.276   2.054   3.597 -2.1273  0.5264  0.8370
   49MOL0     H 6585   0.393   1.881   3.815  1.4159  1.3450  0.4253
   49MOL0     H 6586   0.396   1.843   3.638  0.8915  0.4746  0.6863
   49MOL0     H 6587   0.145   1.924   3.780  2.4784  0.6632  1.1280
   49MOL0     H 6588   0.165   1.847   3.619 -2.0641  0.1145  0.1797
   49MOL0     H 6589   0.222   1.702   3.882  1.6050 -1.4339 -1.4632
   49MOL0     H 6590   0.243   1.647   3.725 -1.0216 -0.9685 -1.3385
   49MOL0     H 6591  -0.034   1.768   3.829 -1.9339  0.0940 -0.5338
   49MOL0     H 6592  -0.021   1.696   3.676 -0.2582 -0.7402  0.8654
   49MOL0     H 6593   0.072   1.544   3.910 -0.2381  0.3647  0.1760
   49MOL0     H 6594   0.005   1.484   3.759  1.2238 -1.2334  1.4648
   49MOL0     H 6595  -0.165   1.619   3.976 -1.9799  0.2533  0.3045
   49MOL0     H 6596  -0.161   1.443   3.927 -0.4751  0.7949  1.1738
   49MOL0     H 6597   0.655   1.885   3.325 -0.0233  0.2518  0.0852
   49MOL0     H 6598   0.876   1.919   3.233  1.5822 -0.2483  1.8159
   49MOL0     H 6599   1.194   2.160   3.100  1.3841 -1.2595 -0.8642
   49MOL0     H 6600   1.369   2.281   2.996 -0.3117 -2.7897  0.2532
   49MOL0     H 6601   3.001   3.342   3.316  1.2668  1.0151 -1.5796
   49MOL0     H 6602   3.256   3.357   3.351 -0.4142  1.0548 -1.8585
   49MOL0     H 6603   3.684   3.231   3.247  4.2187 -0.1687 -0.3335
   49MOL0     H 6604   3.920   3.222   3.289  0.7101 -0.3070  1.3902
   49MOL0     H 6605   4.194   3.283   3.625  0.7427 -0.3098  0.6716
   49MOL0     H 6606   4.052   3.218   3.718  0.4285  1.0749  0.0809
   49MOL0     H 6607   4.254   3.035   3.585 -0.7603 -0.3595  0.3019
   49MOL0     H 6608   4.125   3.010   3.713 -0.6423 -0.6079  1.0161
   49MOL0     H 6609   4.238   3.127   3.889  0.9904 -0.0443  0.8983
   49MOL0     H 6610   4.373   3.166   3.780  0.5186  0.2086  0.5964
   49MOL0     H 6611   4.450   2.929   3.770  2.3872  0.5397  1.6759
   49MOL0     H 6612   4.286   2.878   3.827  1.9053 -2.1441  1.8444
   49MOL0     H 6613   4.496   2.922   4.180 -1.1940  2.7438  0.2532
   49MOL0     H 6614   3.857   3.137   3.702  0.3865  0.2310 -0.4734
   49MOL0     H 6615   3.631   3.130   3.658 -0.2335 -2.3186 -0.4859
   50MOL0     O 6616  10.579   8.738   4.374 -0.3132  0.3056 -1.0887
   50MOL0     C 6617  10.626   8.809   4.283  0.9507  0.9691  0.4278
   50MOL0     O 6618  10.553   8.898   4.207 -0.0025 -0.7037 -0.2258
   50MOL0     C 6619  10.423   8.905   4.247 -0.0392 -0.4487 -0.2903
   50MOL0     C 6620  10.380   9.011   4.323 -0.6469 -0.2860  1.3362
   50MOL0     C 6621  10.241   9.029   4.342  0.2953 -0.7016 -0.9981
   50MOL0     C 6622  10.142   8.939   4.300  0.4559  0.2045 -1.2212
   50MOL0     O 6623  10.010   8.958   4.326  0.9496 -0.0136  0.6598
   50MOL0     C 6624   9.965   9.089   4.309 -0.3325  0.0726 -0.6155
   50MOL0     C 6625   9.828   9.098   4.262  0.0911 -0.6845  0.3228
   50MOL0     C 6626   9.721   9.039   4.350 -0.6544  0.3811 -0.4133
   50MOL0     C 6627   9.581   9.053   4.291  0.0769 -0.0471 -0.1568
   50MOL0     C 6628   9.473   8.989   4.386 -0.2143 -0.2035  0.1639
   50MOL0     C 6629   9.341   9.062   4.356 -0.7616  0.3225  0.5443
   50MOL0     C 6630   9.216   8.988   4.403  0.7291 -0.2808 -0.1614
   50MOL0     C 6631   9.107   9.090   4.405  0.4971  0.3926  0.4174
   50MOL0     N 6632   9.031   9.113   4.277 -0.7731 -0.2398 -0.4698
   50MOL0     C 6633   8.981   9.020   4.196  0.0535 -0.7260 -0.3015
   50MOL0     C 6634   8.953   9.084   4.075 -0.0020  0.1102 -0.3052
   50MOL0     C 6635   8.932   9.016   3.948 -0.1174  0.1869 -0.4628
   50MOL0     C 6636   8.819   8.906   3.957 -0.6915 -0.5767  0.9991
   50MOL0     C 6637   8.670   8.963   3.926 -0.4911  0.2765  0.4329
   50MOL0     C 6638   8.592   9.044   4.022 -0.8254 -0.2657 -0.1648
   50MOL0     O 6639   8.571   8.949   4.127  0.4187  0.0253 -0.0414
   50MOL0     C 6640   8.477   9.006   4.211 -0.3550  0.6619 -0.5342
   50MOL0     C 6641   8.512   9.111   4.304  0.0688  0.9483 -0.6626
   50MOL0     C 6642   8.424   9.175   4.388  0.5110  0.2058  0.1753
   50MOL0     C 6643   8.484   9.275   4.491 -0.4013 -0.2385 -0.5921
   50MOL0     C 6644   8.295   9.118   4.400  0.6426  0.0898  0.0053
   50MOL0     C 6645   8.192   9.185   4.486 -0.3472  0.2674  0.1509
   50MOL0     O 6646   8.078   9.113   4.527 -0.2583 -0.3899  0.1354
   50MOL0     C 6647   7.969   9.175   4.578 -0.4794  0.3165 -0.0941
   50MOL0     C 6648   7.913   9.296   4.536  0.3691 -0.2219  0.5468
   50MOL0     C 6649   7.797   9.344   4.588 -0.1434 -0.7180 -0.7697
   50MOL0     C 6650   7.731   9.274   4.685  0.5899  0.2856 -0.7009
   50MOL0     O 6651   7.612   9.319   4.737 -0.6103  0.0632  0.2184
   50MOL0     C 6652   7.599   9.332   4.876  0.4874 -0.2124 -0.2370
   50MOL0     C 6653   7.456   9.374   4.923 -0.5834 -0.1476  0.4776
   50MOL0     C 6654   7.378   9.481   4.836 -0.3737  0.1259  0.5262
   50MOL0     C 6655   7.228   9.494   4.879 -0.7003  0.0393  0.6415
   50MOL0     C 6656   7.163   9.625   4.820 -0.0150 -0.4010  0.0196
   50MOL0     C 6657   7.018   9.618   4.832 -0.6087  0.2131 -0.0752
   50MOL0     C 6658   6.959   9.752   4.784  0.3703 -0.7335  0.0757
   50MOL0     C 6659   6.810   9.753   4.765 -0.5631 -0.4955  0.8498
   50MOL0    Cl 6660   6.714   9.758   4.924 -0.3594  0.2070 -0.3150
   50MOL0     C 6661   7.776   9.144   4.716 -0.8246  1.0495  0.2519
   50MOL0     C 6662   7.891   9.098   4.665 -0.1533 -0.0260  0.0938
   50MOL0     O 6663   8.220   9.295   4.533 -0.4180 -0.1968 -0.0101
   50MOL0     C 6664   8.259   9.009   4.313 -0.7955 -0.3438  0.7735
   50MOL0     C 6665   8.343   8.963   4.218 -0.4894 -0.3458 -0.2775
   50MOL0     N 6666   8.986   9.217   4.091  0.7209 -0.2921  0.5836
   50MOL0     N 6667   9.042   9.232   4.208 -0.0366 -0.7002 -0.4346
   50MOL0     C 6668  10.189   8.827   4.229 -0.6089  0.1782  0.1280
   50MOL0     C 6669  10.326   8.810   4.204 -0.2607  0.4656 -1.2029
   50MOL0     C 6670  10.771   8.807   4.255  0.4644 -0.4912  0.5845
   50MOL0     C 6671  10.865   8.714   4.295  0.0253  0.6382 -0.3968
   50MOL0     C 6672  10.999   8.731   4.275 -0.4243 -0.1991 -0.1303
   50MOL0     C 6673  11.044   8.843   4.204  0.1341 -0.0329 -0.0555
   50MOL0     O 6674  11.172   8.875   4.196  0.7377 -0.4291  0.7652
   50MOL0     C 6675  11.259   8.766   4.177  0.5494  0.5414 -0.5405
   50MOL0     C 6676  11.363   8.810   4.072  0.0189  0.5535 -0.4394
   50MOL0     C 6677  11.326   8.809   3.927 -0.9040 -0.1972  0.1406
   50MOL0     C 6678  11.278   8.669   3.881 -1.0557 -0.2736 -0.2350
   50MOL0     C 6679  11.377   8.556   3.913  0.2352  0.1198  0.7346
   50MOL0     C 6680  11.463   8.465   3.923  0.3916 -0.2487 -0.0666
   50MOL0     C 6681  10.950   8.927   4.156  0.2040  0.7885  0.2513
   50MOL0     C 6682  10.819   8.916   4.187 -0.4808 -1.9533  0.0311
   50MOL0     H 6683  10.462   9.075   4.354 -0.5315 -0.1716  0.8174
   50MOL0     H 6684  10.209   9.116   4.397 -2.2728 -0.9317 -2.0002
   50MOL0     H 6685   9.983   9.141   4.403  0.4211 -2.2485  0.6133
   50MOL0     H 6686  10.022   9.140   4.230 -2.5734 -1.1489 -3.2117
   50MOL0     H 6687   9.813   9.206   4.256  2.1700 -0.3744  0.1471
   50MOL0     H 6688   9.825   9.050   4.164  1.1851  0.3728 -0.2589
   50MOL0     H 6689   9.743   8.932   4.356 -1.6990  0.0851 -1.4127
   50MOL0     H 6690   9.721   9.084   4.450 -0.8934  1.3710 -0.8457
   50MOL0     H 6691   9.565   9.159   4.268 -2.4840 -0.3571 -0.0987
   50MOL0     H 6692   9.578   9.003   4.194  0.6640  0.1134 -0.2635
   50MOL0     H 6693   9.476   8.882   4.363  0.1496 -0.0532 -0.5276
   50MOL0     H 6694   9.484   8.996   4.494 -0.1173  0.0223  0.1405
   50MOL0     H 6695   9.349   9.156   4.411 -1.7176  0.3709  0.6135
   50MOL0     H 6696   9.329   9.099   4.254 -0.7458  1.2589  0.8733
   50MOL0     H 6697   9.183   8.904   4.341 -0.7600 -0.6766  1.0969
   50MOL0     H 6698   9.232   8.962   4.508 -0.0369 -0.1509 -0.0068
   50MOL0     H 6699   9.144   9.183   4.449  2.7385 -1.5987  3.0719
   50MOL0     H 6700   9.039   9.043   4.477 -0.0117  1.8993  0.9595
   50MOL0     H 6701   8.978   8.916   4.226  0.9248 -0.5252  0.5489
   50MOL0     H 6702   8.904   9.094   3.877  1.8348  1.6281  0.2399
   50MOL0     H 6703   9.032   8.986   3.913  0.2906  1.4649 -0.4421
   50MOL0     H 6704   8.832   8.847   4.049 -0.0181 -0.5134  0.9453
   50MOL0     H 6705   8.841   8.841   3.872 -2.8821 -0.7525  0.5016
   50MOL0     H 6706   8.602   8.883   3.894 -1.5824  1.3943 -0.1208
   50MOL0     H 6707   8.679   9.013   3.829  0.5529 -1.4837 -0.4538
   50MOL0     H 6708   8.498   9.076   3.977 -0.5708 -0.7306 -1.0383
   50MOL0     H 6709   8.651   9.130   4.054 -2.5604  0.8506  0.1470
   50MOL0     H 6710   8.616   9.141   4.296 -0.7149  3.5951 -2.0818
   50MOL0     H 6711   8.439   9.374   4.481 -1.0785 -0.1995  2.0794
   50MOL0     H 6712   8.476   9.228   4.590 -0.3678  0.4037 -0.2829
   50MOL0     H 6713   8.590   9.283   4.468 -0.4422 -0.2358 -0.7840
   50MOL0     H 6714   7.964   9.349   4.457 -0.8521  0.2730  0.0622
   50MOL0     H 6715   7.752   9.439   4.561 -2.6387 -1.6688 -0.1316
   50MOL0     H 6716   7.626   9.241   4.930 -2.0228  0.7071  2.8789
   50MOL0     H 6717   7.659   9.418   4.909 -1.6408  0.6636  1.6302
   50MOL0     H 6718   7.392   9.286   4.938 -0.2216 -0.4524  0.2848
   50MOL0     H 6719   7.482   9.422   5.018 -0.2982 -1.9270  1.3592
   50MOL0     H 6720   7.383   9.447   4.731 -0.5720  2.0596 -0.1393
   50MOL0     H 6721   7.430   9.577   4.831  0.7580 -0.4334  1.1778
   50MOL0     H 6722   7.175   9.414   4.827 -0.2923 -0.1635  0.5348
   50MOL0     H 6723   7.214   9.495   4.988 -1.3040  0.9522  0.5647
   50MOL0     H 6724   7.188   9.622   4.714 -1.1599  3.0539 -0.4675
   50MOL0     H 6725   7.200   9.720   4.858  0.5483 -0.3710 -0.5955
   50MOL0     H 6726   6.981   9.537   4.769  0.3369 -0.3024  0.0247
   50MOL0     H 6727   6.990   9.594   4.935 -0.6252 -0.6289 -0.2722
   50MOL0     H 6728   7.004   9.773   4.686 -1.4393  1.6637 -0.3316
   50MOL0     H 6729   6.983   9.840   4.846 -1.8725 -1.4056  2.0260
   50MOL0     H 6730   6.774   9.673   4.700 -1.9997  1.3121 -0.7087
   50MOL0     H 6731   6.792   9.846   4.710  1.2912 -1.7518 -2.1501
   50MOL0     H 6732   7.725   9.085   4.791  0.4102 -0.2521  0.0991
   50MOL0     H 6733   7.936   9.002   4.690 -1.2729 -2.2994 -5.2522
   50MOL0     H 6734   8.156   8.976   4.323 -1.5585  2.1620  2.1358
   50MOL0     H 6735   8.310   8.884   4.153  0.0245  0.0436 -1.0320
   50MOL0     H 6736  10.117   8.755   4.190  1.1886 -1.0573 -1.0689
   50MOL0     H 6737  10.359   8.716   4.163  0.7169 -1.5418  3.5253
   50MOL0     H 6738  10.827   8.620   4.333 -1.2929  0.5344 -1.8823
   50MOL0     H 6739  11.067   8.655   4.312 -2.9096 -2.9341 -0.7859
   50MOL0     H 6740  11.304   8.734   4.271  1.6931 -0.0134 -1.2541
   50MOL0     H 6741  11.207   8.679   4.135  2.6816 -1.2930  0.4010
   50MOL0     H 6742  11.454   8.750   4.083  0.5908  1.3305 -0.8677
   50MOL0     H 6743  11.395   8.909   4.106 -3.6311  1.1947  1.6371
   50MOL0     H 6744  11.412   8.841   3.867 -1.3045 -2.1252 -1.5637
   50MOL0     H 6745  11.258   8.890   3.900 -0.2263  0.9836  1.8272
   50MOL0     H 6746  11.268   8.674   3.773 -0.4253  3.6565 -0.2569
   50MOL0     H 6747  11.183   8.655   3.935 -0.6361 -1.7932  0.1784
   50MOL0     H 6748  11.537   8.388   3.926 -1.2721 -1.8831  1.8197
   50MOL0     H 6749  10.989   9.005   4.091  0.4518  0.7636  0.3692
   50MOL0     H 6750  10.757   8.998   4.150  0.7706 -0.5239  0.9786
   51MOL0     O 6751   8.498   2.818   7.370  0.0278  0.4837  0.3690
   51MOL0     C 6752   8.544   2.705   7.391  0.0118  0.5951  0.5210
   51MOL0     O 6753   8.476   2.613   7.473  0.2971  0.0596  0.5755
   51MOL0     C 6754   8.370   2.665   7.534 -0.4837 -0.3189  0.3617
   51MOL0     C 6755   8.244   2.622   7.497 -0.3962  0.7711  0.5598
   51MOL0     C 6756   8.122   2.664   7.558 -0.1506 -0.0761  0.3091
   51MOL0     C 6757   8.133   2.753   7.665  0.0183 -0.5721 -0.5830
   51MOL0     O 6758   8.029   2.806   7.736  0.1906 -0.0462 -0.1025
   51MOL0     C 6759   7.933   2.717   7.804  0.0372 -0.5347  0.4338
   51MOL0     C 6760   7.962   2.683   7.950  0.1002 -0.2651  0.2456
   51MOL0     C 6761   7.944   2.813   8.035 -0.4487 -0.2035  0.1801
   51MOL0     C 6762   8.061   2.908   8.025  0.4055  0.0174 -0.0600
   51MOL0     C 6763   8.065   2.995   8.156 -0.3891 -0.4720 -0.8250
   51MOL0     C 6764   7.941   3.088   8.168  0.1924 -0.4514  0.9932
   51MOL0     C 6765   7.941   3.158   8.310  0.3733  0.4629  0.6522
   51MOL0     C 6766   7.844   3.276   8.317  0.0153  0.3271  0.1322
   51MOL0     N 6767   7.862   3.385   8.217  0.2697  1.0534  0.7456
   51MOL0     C 6768   7.981   3.448   8.179 -0.0071 -0.1950  0.2172
   51MOL0     C 6769   7.944   3.552   8.104  0.1268  0.3023  0.4113
   51MOL0     C 6770   8.032   3.648   8.031 -0.0401  0.2965 -0.5018
   51MOL0     C 6771   8.084   3.586   7.898  0.0201 -0.5368  0.7272
   51MOL0     C 6772   8.171   3.671   7.809  0.2581 -1.2037 -0.0619
   51MOL0     C 6773   8.324   3.657   7.841  0.0411 -0.6097  0.3448
   51MOL0     O 6774   8.372   3.713   7.964  0.1216 -0.8037  0.8695
   51MOL0     C 6775   8.512   3.720   7.980 -0.3205 -0.0417  0.6643
   51MOL0     C 6776   8.605   3.635   7.911  0.2700  0.8702 -0.5485
   51MOL0     C 6777   8.739   3.622   7.943  0.4989 -0.0406  0.0164
   51MOL0     C 6778   8.818   3.506   7.880 -0.0252  0.0466  0.7341
   51MOL0     C 6779   8.790   3.698   8.054 -0.6347  0.0837  0.2183
   51MOL0     C 6780   8.931   3.698   8.091  0.5960 -0.5244 -0.6801
   51MOL0     O 6781   9.011   3.584   8.082 -0.5579 -0.5624  0.0018
   51MOL0     C 6782   9.149   3.582   8.099 -1.3944 -1.1976 -0.5374
   51MOL0     C 6783   9.232   3.695   8.075  0.2055  0.2308 -0.5295
   51MOL0     C 6784   9.369   3.688   8.091 -0.4288  0.1248  0.5561
   51MOL0     C 6785   9.434   3.563   8.136  0.1522 -1.4710 -1.2921
   51MOL0     O 6786   9.573   3.573   8.151 -0.1323  0.1309  0.1424
   51MOL0     C 6787   9.652   3.460   8.128 -0.2991 -0.6869  0.6184
   51MOL0     C 6788   9.747   3.499   8.012  0.4607  0.7757 -0.3028
   51MOL0     C 6789   9.856   3.401   7.994  1.0050  1.2419 -0.1788
   51MOL0     C 6790   9.979   3.428   8.078 -0.6000 -0.0468  0.5199
   51MOL0     C 6791  10.073   3.305   8.070  0.4333  0.3015  0.2291
   51MOL0     C 6792  10.211   3.353   8.114 -0.4566 -0.2796 -0.2753
   51MOL0     C 6793  10.329   3.256   8.066  0.4894 -0.1145 -0.5151
   51MOL0     C 6794  10.458   3.328   8.101  0.4580 -0.1038 -0.6683
   51MOL0    Cl 6795  10.475   3.315   8.285  0.1223  0.2280 -0.5315
   51MOL0     C 6796   9.350   3.455   8.169 -0.3315  0.4443 -0.2007
   51MOL0     C 6797   9.213   3.472   8.157  0.1735 -0.7817  0.1544
   51MOL0     O 6798   8.969   3.798   8.150 -0.3840 -0.2086  0.3674
   51MOL0     C 6799   8.702   3.787   8.124  0.5787  0.5351  0.0555
   51MOL0     C 6800   8.561   3.796   8.084 -1.1129 -0.8741  0.5478
   51MOL0     N 6801   7.806   3.554   8.094 -0.1233  0.0062  0.6225
   51MOL0     N 6802   7.758   3.448   8.156 -0.5385 -0.1095  0.8135
   51MOL0     C 6803   8.258   2.799   7.698 -0.4906  0.3679 -0.0589
   51MOL0     C 6804   8.377   2.758   7.632  0.1092  0.8377  0.1022
   51MOL0     C 6805   8.665   2.666   7.315 -0.2225  0.1087 -0.6020
   51MOL0     C 6806   8.732   2.771   7.237 -0.2167  0.4481  0.5579
   51MOL0     C 6807   8.845   2.736   7.165 -0.4338 -0.1405  0.1058
   51MOL0     C 6808   8.905   2.610   7.174 -0.1028 -0.2468  0.3598
   51MOL0     O 6809   9.024   2.592   7.114  0.1281 -0.0796 -0.2076
   51MOL0     C 6810   9.112   2.479   7.145  0.3942 -0.0824 -0.1268
   51MOL0     C 6811   9.201   2.468   7.021  0.2147  0.8162  0.7973
   51MOL0     C 6812   9.265   2.325   7.020 -0.2278 -0.0628 -0.4596
   51MOL0     C 6813   9.354   2.319   6.902  0.2946  0.4577  1.3012
   51MOL0     C 6814   9.409   2.181   6.889  0.1864 -0.5952  0.7966
   51MOL0     C 6815   9.452   2.070   6.867 -0.8778 -0.6104 -0.0976
   51MOL0     C 6816   8.844   2.512   7.253  0.5245  0.1691  0.4604
   51MOL0     C 6817   8.724   2.540   7.320 -0.2363 -0.1028 -0.9292
   51MOL0     H 6818   8.246   2.550   7.416  0.2648 -0.9245  2.0294
   51MOL0     H 6819   8.024   2.634   7.524 -1.3171  4.3351 -0.9660
   51MOL0     H 6820   7.834   2.762   7.788  0.5162  0.8991  1.3035
   51MOL0     H 6821   7.933   2.621   7.752  0.7367 -0.0738 -0.4549
   51MOL0     H 6822   7.891   2.608   7.986  0.2594  0.8745  3.1831
   51MOL0     H 6823   8.065   2.646   7.950  1.5209  3.2829  0.3284
   51MOL0     H 6824   7.855   2.876   8.023  0.3423  0.9601  0.3234
   51MOL0     H 6825   7.944   2.778   8.139 -0.9892 -0.1862  0.1903
   51MOL0     H 6826   8.154   2.850   8.026  0.8889  0.7798 -0.1845
   51MOL0     H 6827   8.053   2.975   7.939  2.5860  1.6493  0.8922
   51MOL0     H 6828   8.069   2.925   8.239  1.2619  1.6803  1.0256
   51MOL0     H 6829   8.151   3.062   8.161  1.1132 -2.1900 -2.1277
   51MOL0     H 6830   7.957   3.162   8.090 -1.5238 -0.2134  0.8290
   51MOL0     H 6831   7.847   3.031   8.169 -0.2236  0.2266  0.7369
   51MOL0     H 6832   7.902   3.082   8.378 -0.6367 -1.3796 -1.8380
   51MOL0     H 6833   8.039   3.192   8.344  1.0506  0.3161 -1.0419
   51MOL0     H 6834   7.856   3.315   8.419  2.2835 -1.8109  0.7799
   51MOL0     H 6835   7.745   3.232   8.313  0.1216 -0.2470  2.4038
   51MOL0     H 6836   8.085   3.433   8.207  0.1306  0.8846  0.3488
   51MOL0     H 6837   7.989   3.746   8.010 -0.5181  0.3456  0.6282
   51MOL0     H 6838   8.116   3.665   8.100  0.2006 -1.3370 -0.3476
   51MOL0     H 6839   7.989   3.572   7.844 -0.6090  1.9427  1.0877
   51MOL0     H 6840   8.131   3.488   7.911  1.7235  0.2505  0.7598
   51MOL0     H 6841   8.141   3.776   7.814  0.5905 -0.8959 -3.0987
   51MOL0     H 6842   8.156   3.630   7.709 -2.5342  0.0845 -0.2663
   51MOL0     H 6843   8.381   3.705   7.761 -2.3971  0.0767 -1.1262
   51MOL0     H 6844   8.345   3.550   7.849 -0.6561 -0.6171  3.3138
   51MOL0     H 6845   8.564   3.570   7.834  1.1599 -1.5508  0.9253
   51MOL0     H 6846   8.833   3.427   7.954  2.7462  0.2653  0.5016
   51MOL0     H 6847   8.766   3.464   7.794 -1.1121 -0.4573  1.6149
   51MOL0     H 6848   8.916   3.542   7.847 -0.6349  2.9708  1.7695
   51MOL0     H 6849   9.182   3.786   8.042 -1.3529 -1.7290 -4.1516
   51MOL0     H 6850   9.431   3.773   8.065  1.4048 -1.3530 -0.0887
   51MOL0     H 6851   9.720   3.443   8.212 -1.0151  0.7442  1.5301
   51MOL0     H 6852   9.597   3.370   8.101 -0.5482 -0.0544 -1.1532
   51MOL0     H 6853   9.691   3.527   7.922 -0.0229  0.0712 -0.2270
   51MOL0     H 6854   9.792   3.592   8.047 -1.4962  0.9188  2.0658
   51MOL0     H 6855   9.880   3.394   7.887  1.3132  0.7734 -0.0800
   51MOL0     H 6856   9.815   3.302   8.014  2.8069  0.6757  0.9189
   51MOL0     H 6857  10.027   3.518   8.039  0.1670  0.5347  2.6547
   51MOL0     H 6858   9.949   3.456   8.180 -0.2074  1.9704  0.1311
   51MOL0     H 6859  10.082   3.276   7.965 -3.5929 -1.2355  0.1080
   51MOL0     H 6860  10.035   3.220   8.129 -2.7202 -0.0200 -2.0002
   51MOL0     H 6861  10.237   3.456   8.087  1.6513 -0.4354  0.9665
   51MOL0     H 6862  10.205   3.343   8.223  1.0293 -0.5824 -0.1906
   51MOL0     H 6863  10.311   3.241   7.959 -1.7642  0.9254 -0.3305
   51MOL0     H 6864  10.331   3.167   8.130 -1.2782 -0.5179 -0.9699
   51MOL0     H 6865  10.461   3.431   8.065  0.2987 -0.0374 -0.4971
   51MOL0     H 6866  10.543   3.269   8.065 -0.8894 -1.2314 -2.1500
   51MOL0     H 6867   9.389   3.362   8.210 -0.8809  0.4008  0.2390
   51MOL0     H 6868   9.139   3.400   8.192 -0.3678 -0.9319 -1.2182
   51MOL0     H 6869   8.734   3.852   8.205 -1.0981 -1.1385  2.1959
   51MOL0     H 6870   8.501   3.858   8.149  0.4098 -0.7208  1.8894
   51MOL0     H 6871   8.279   2.878   7.768  2.0733 -0.0682 -0.2587
   51MOL0     H 6872   8.474   2.798   7.658 -0.2583  1.3879  0.6436
   51MOL0     H 6873   8.689   2.869   7.219  1.1688  0.6061 -2.5240
   51MOL0     H 6874   8.902   2.807   7.106 -0.7398  2.9327  3.1658
   51MOL0     H 6875   9.174   2.504   7.231  1.9408 -1.9672 -0.6239
   51MOL0     H 6876   9.054   2.390   7.171  0.1678  0.9077  3.2715
   51MOL0     H 6877   9.270   2.552   7.028  0.9753  0.2439  0.3064
   51MOL0     H 6878   9.141   2.470   6.930 -0.1743  0.2017  1.0302
   51MOL0     H 6879   9.180   2.256   7.019 -1.4412  1.2249 -4.0604
   51MOL0     H 6880   9.321   2.311   7.113 -1.8474  2.0889  0.9381
   51MOL0     H 6881   9.428   2.399   6.908  0.3722  0.5573 -0.3561
   51MOL0     H 6882   9.297   2.339   6.810  1.4037 -0.4584  0.3751
   51MOL0     H 6883   9.481   1.967   6.863 -0.0788 -0.5207  2.0427
   51MOL0     H 6884   8.868   2.406   7.250 -0.6369 -0.0742 -1.3234
   51MOL0     H 6885   8.670   2.469   7.381  0.6819  0.9317  1.2025
   52MOL0     O 6886   9.287   3.546   3.116  0.6487  0.2783  0.7492
   52MOL0     C 6887   9.318   3.586   3.225 -0.2248  0.8438  0.9063
   52MOL0     O 6888   9.232   3.613   3.331  0.4440 -0.5311 -0.2760
   52MOL0     C 6889   9.091   3.600   3.314 -0.3968  0.4088  0.2174
   52MOL0     C 6890   9.020   3.623   3.188  0.4799  0.1322 -0.7425
   52MOL0     C 6891   8.878   3.591   3.179 -0.6520 -0.1539 -0.6245
   52MOL0     C 6892   8.809   3.550   3.292  0.4175 -0.1300 -0.2877
   52MOL0     O 6893   8.673   3.530   3.291  0.6978 -0.8459  0.2316
   52MOL0     C 6894   8.612   3.521   3.162 -0.6014  0.0990  0.8990
   52MOL0     C 6895   8.481   3.449   3.176 -0.1950 -0.1699 -0.5412
   52MOL0     C 6896   8.377   3.538   3.239 -0.5428 -0.2325  0.1668
   52MOL0     C 6897   8.265   3.443   3.300  0.4208 -1.5079  0.2844
   52MOL0     C 6898   8.171   3.527   3.395  0.1607 -0.3880  0.1398
   52MOL0     C 6899   8.228   3.514   3.548 -0.1848 -0.6384 -0.3862
   52MOL0     C 6900   8.384   3.531   3.569 -0.0593 -0.0149  0.3924
   52MOL0     C 6901   8.414   3.547   3.719 -0.1858  0.1106 -0.0019
   52MOL0     N 6902   8.325   3.471   3.805  0.4282  0.2746  0.1612
   52MOL0     C 6903   8.336   3.334   3.813  1.1270  0.1406 -0.7262
   52MOL0     C 6904   8.228   3.298   3.886 -0.7863  0.2349 -0.2240
   52MOL0     C 6905   8.184   3.162   3.913  0.1925 -0.1210 -0.6662
   52MOL0     C 6906   8.114   3.095   3.787 -0.7759  0.2390 -0.2205
   52MOL0     C 6907   8.043   2.966   3.833 -0.7565 -0.8805 -0.2753
   52MOL0     C 6908   8.022   2.879   3.715  0.3072 -0.0165 -1.4833
   52MOL0     O 6909   7.971   2.752   3.760  0.4483  0.0177 -0.1994
   52MOL0     C 6910   7.834   2.748   3.770  0.6879 -0.2954 -0.8593
   52MOL0     C 6911   7.774   2.741   3.898  0.1393 -0.3148 -0.0397
   52MOL0     C 6912   7.634   2.727   3.908 -0.1661  0.1053  0.2033
   52MOL0     C 6913   7.585   2.697   4.049 -0.7551  0.1900 -0.1613
   52MOL0     C 6914   7.550   2.738   3.796  0.4511  0.1946 -0.2132
   52MOL0     C 6915   7.402   2.729   3.793  0.3176  0.5570 -0.3240
   52MOL0     O 6916   7.337   2.660   3.885 -0.0893 -0.0098 -0.3962
   52MOL0     C 6917   7.203   2.651   3.896  0.0757 -0.2177 -0.2943
   52MOL0     C 6918   7.117   2.610   3.791  0.4760 -0.5251  0.0520
   52MOL0     C 6919   6.980   2.596   3.811  0.3761  0.8193 -0.0745
   52MOL0     C 6920   6.920   2.627   3.935 -0.4052  0.0791  0.8915
   52MOL0     O 6921   6.790   2.610   3.972  0.2596  0.3735 -0.2998
   52MOL0     C 6922   6.703   2.547   3.874 -0.0202 -0.7256 -0.3004
   52MOL0     C 6923   6.577   2.524   3.957  0.0904 -0.3816  0.5043
   52MOL0     C 6924   6.449   2.485   3.878 -0.9826  0.5071  0.1860
   52MOL0     C 6925   6.331   2.508   3.969  0.5632 -0.4141  1.1410
   52MOL0     C 6926   6.195   2.466   3.898 -0.7784 -0.5046 -0.6293
   52MOL0     C 6927   6.076   2.508   3.988 -0.7170 -0.0943  0.4987
   52MOL0     C 6928   5.938   2.480   3.922  1.5062  0.1865 -0.0733
   52MOL0     C 6929   5.890   2.337   3.888  0.4372  1.3619  0.1131
   52MOL0    Cl 6930   5.718   2.346   3.839  0.0945  0.4427 -0.0846
   52MOL0     C 6931   7.003   2.676   4.032  0.1941  0.2162 -0.0764
   52MOL0     C 6932   7.137   2.691   4.018 -0.4922  0.6435  0.4090
   52MOL0     O 6933   7.349   2.780   3.698  0.4740  0.3545  0.1502
   52MOL0     C 6934   7.616   2.734   3.670  0.7571  0.2058  0.0822
   52MOL0     C 6935   7.752   2.736   3.658  0.0255 -0.8013 -0.6275
   52MOL0     N 6936   8.155   3.410   3.923 -0.1368  0.7268 -0.4977
   52MOL0     N 6937   8.222   3.516   3.879  0.8720  0.3333  0.0688
   52MOL0     C 6938   8.879   3.524   3.414 -0.0623  0.2943  0.4741
   52MOL0     C 6939   9.018   3.548   3.419  1.1527  0.2550 -0.0514
   52MOL0     C 6940   9.461   3.618   3.258  0.3034  0.2574 -0.2189
   52MOL0     C 6941   9.564   3.612   3.161  0.6928  0.6182 -0.8448
   52MOL0     C 6942   9.697   3.645   3.194 -0.1034  1.1900  0.1054
   52MOL0     C 6943   9.729   3.693   3.320  0.3854 -0.5503 -0.2163
   52MOL0     O 6944   9.858   3.725   3.347  0.2890 -0.6749  0.3219
   52MOL0     C 6945   9.895   3.864   3.335  0.4114 -0.6221  0.6632
   52MOL0     C 6946   9.968   3.881   3.202  0.4654  0.5405 -0.2345
   52MOL0     C 6947  10.120   3.871   3.223 -0.4982  0.6156  0.5289
   52MOL0     C 6948  10.197   3.992   3.285  0.2834 -0.2670 -0.1727
   52MOL0     C 6949  10.176   4.112   3.204  0.1642  0.4002  0.4367
   52MOL0     C 6950  10.157   4.218   3.142  0.2205  0.5357  0.2315
   52MOL0     C 6951   9.626   3.712   3.423  0.6078  0.5838  0.0735
   52MOL0     C 6952   9.492   3.662   3.387  0.3051  0.3665 -0.7937
   52MOL0     H 6953   9.064   3.662   3.097 -1.0634 -0.8674 -1.9718
   52MOL0     H 6954   8.835   3.609   3.081 -1.6768  2.5199  0.2390
   52MOL0     H 6955   8.606   3.618   3.113  0.3058 -0.6682 -0.8283
   52MOL0     H 6956   8.673   3.452   3.102 -2.0048 -1.5867  1.3346
   52MOL0     H 6957   8.457   3.415   3.075 -0.8404 -1.6339  0.0810
   52MOL0     H 6958   8.501   3.358   3.234  0.3926  0.1943 -0.1591
   52MOL0     H 6959   8.417   3.603   3.318 -3.0972  3.8194 -1.5585
   52MOL0     H 6960   8.334   3.603   3.162  0.5136 -2.1180 -2.1838
   52MOL0     H 6961   8.206   3.416   3.211 -0.3279  0.3040  0.1826
   52MOL0     H 6962   8.311   3.358   3.351  2.4868 -1.4499 -1.3188
   52MOL0     H 6963   8.175   3.632   3.366 -0.8311  0.1594  1.8326
   52MOL0     H 6964   8.068   3.491   3.381 -0.0393  0.8168 -1.8607
   52MOL0     H 6965   8.170   3.581   3.613 -0.5058 -2.5226  1.3555
   52MOL0     H 6966   8.198   3.414   3.579 -0.7337 -0.6155 -0.8333
   52MOL0     H 6967   8.431   3.438   3.538  0.5531 -0.1582  1.6960
   52MOL0     H 6968   8.435   3.618   3.526  0.8627 -0.6427  0.1792
   52MOL0     H 6969   8.419   3.655   3.739 -2.4085  0.2448  0.1206
   52MOL0     H 6970   8.515   3.507   3.732  0.1022  0.5923 -0.6902
   52MOL0     H 6971   8.410   3.271   3.763  1.2655  0.7124 -1.2507
   52MOL0     H 6972   8.264   3.098   3.952  0.0895  0.2232  0.1294
   52MOL0     H 6973   8.102   3.178   3.983  0.6274  0.6856 -0.3220
   52MOL0     H 6974   8.189   3.084   3.707  4.0277  0.5145  3.7278
   52MOL0     H 6975   8.037   3.158   3.741 -0.9620  0.0311 -0.1946
   52MOL0     H 6976   7.948   2.990   3.882 -0.8504  1.2099 -1.3588
   52MOL0     H 6977   8.114   2.925   3.905  4.7717  3.2524 -2.5803
   52MOL0     H 6978   8.122   2.858   3.676 -0.0410  0.0698 -2.4450
   52MOL0     H 6979   7.966   2.928   3.635 -2.7170  1.1305  1.0941
   52MOL0     H 6980   7.842   2.733   3.982 -0.0516  4.6007  0.8798
   52MOL0     H 6981   7.581   2.591   4.077 -1.0318 -0.5873 -2.9036
   52MOL0     H 6982   7.657   2.743   4.117  0.5959 -0.7744 -0.8822
   52MOL0     H 6983   7.488   2.741   4.071 -1.3370 -0.8856 -0.5084
   52MOL0     H 6984   7.149   2.570   3.695 -0.3407 -1.6662  0.2485
   52MOL0     H 6985   6.918   2.551   3.735  0.9451  0.8789 -0.5795
   52MOL0     H 6986   6.682   2.619   3.795 -1.8201 -1.3453 -0.4509
   52MOL0     H 6987   6.747   2.455   3.836  0.2888  0.2461 -2.3789
   52MOL0     H 6988   6.583   2.438   4.025 -2.6628 -1.0754  0.0098
   52MOL0     H 6989   6.561   2.605   4.028  1.4941  3.3112 -3.0162
   52MOL0     H 6990   6.457   2.378   3.857  0.6746  0.2407  1.8459
   52MOL0     H 6991   6.437   2.546   3.788  0.4519  0.4468 -0.0707
   52MOL0     H 6992   6.352   2.446   4.057  3.1776  0.2704  1.0740
   52MOL0     H 6993   6.326   2.608   4.013  1.0003  0.8032 -1.3831
   52MOL0     H 6994   6.197   2.357   3.887  0.3233 -0.9585  2.7472
   52MOL0     H 6995   6.191   2.507   3.797 -0.8179 -0.8160 -0.7573
   52MOL0     H 6996   6.088   2.469   4.089  3.5977 -1.1269 -0.2359
   52MOL0     H 6997   6.086   2.616   3.993  2.4628 -0.2276 -0.7996
   52MOL0     H 6998   5.928   2.526   3.823  0.1072 -0.8616 -0.4604
   52MOL0     H 6999   5.866   2.527   3.990  1.1224  2.7185 -2.0821
   52MOL0     H 7000   5.902   2.281   3.982  2.8258 -0.5564 -1.2242
   52MOL0     H 7001   5.956   2.298   3.811  0.9193  0.5901  0.8988
   52MOL0     H 7002   6.959   2.707   4.126  1.3356 -0.5653  0.7451
   52MOL0     H 7003   7.191   2.721   4.107  0.7181 -1.9228  0.6214
   52MOL0     H 7004   7.563   2.712   3.577  1.1436 -3.0309  0.4890
   52MOL0     H 7005   7.792   2.736   3.557  1.8084  1.2604 -0.0129
   52MOL0     H 7006   8.831   3.478   3.499 -1.3361  1.1608  0.2445
   52MOL0     H 7007   9.077   3.531   3.509  1.3968  1.3064  0.0009
   52MOL0     H 7008   9.536   3.571   3.065 -1.2269  1.1443 -0.5534
   52MOL0     H 7009   9.776   3.637   3.119 -0.6794 -1.7280 -0.2947
   52MOL0     H 7010   9.811   3.933   3.330  0.3468 -0.5714  2.1278
   52MOL0     H 7011   9.957   3.894   3.420  0.8839 -0.3028  0.2133
   52MOL0     H 7012   9.947   3.981   3.163  1.4313  0.2097 -1.6871
   52MOL0     H 7013   9.930   3.806   3.133 -0.1659 -1.0345  1.7372
   52MOL0     H 7014  10.148   3.848   3.120 -3.5701 -0.8004 -0.1169
   52MOL0     H 7015  10.160   3.788   3.282  1.0592  1.7520  1.1187
   52MOL0     H 7016  10.304   3.967   3.283 -0.3850 -3.8127  0.8984
   52MOL0     H 7017  10.176   4.011   3.391 -1.0794 -0.5786 -0.3703
   52MOL0     H 7018  10.148   4.315   3.099 -2.5368  0.1985 -0.1548
   52MOL0     H 7019   9.639   3.753   3.522 -0.7537 -0.2110  0.6189
   52MOL0     H 7020   9.423   3.673   3.470  0.9037 -0.1214 -0.2166
   53MOL0     O 7021   4.979   0.350   3.846  0.3178 -0.5788 -0.0532
   53MOL0     C 7022   4.977   0.424   3.946  0.2471 -0.1865  0.4390
   53MOL0     O 7023   4.880   0.513   3.970 -0.8965 -0.6930 -0.3170
   53MOL0     C 7024   4.758   0.520   3.907  0.2460 -0.5909 -0.5818
   53MOL0     C 7025   4.687   0.634   3.942 -0.0879 -0.0718 -0.5103
   53MOL0     C 7026   4.556   0.649   3.898  0.3863 -0.6188 -0.3888
   53MOL0     C 7027   4.500   0.571   3.796 -0.0378  0.9539 -0.9082
   53MOL0     O 7028   4.380   0.589   3.746 -0.0250  0.5322 -0.0321
   53MOL0     C 7029   4.376   0.689   3.640 -0.9100  0.1380 -1.0170
   53MOL0     C 7030   4.323   0.625   3.512  0.6153 -0.9303  0.2517
   53MOL0     C 7031   4.186   0.554   3.563 -0.0349 -0.0451 -0.1771
   53MOL0     C 7032   4.107   0.511   3.432 -0.1527 -0.3621 -0.0583
   53MOL0     C 7033   3.964   0.470   3.464 -0.0289 -0.0755 -0.2091
   53MOL0     C 7034   3.872   0.488   3.340  0.7042 -0.1441 -0.2279
   53MOL0     C 7035   3.929   0.408   3.221  0.3947  0.5221 -0.0020
   53MOL0     C 7036   3.839   0.384   3.097 -0.4797 -0.6712 -0.9248
   53MOL0     N 7037   3.833   0.502   3.014 -0.3306 -0.9750 -0.1669
   53MOL0     C 7038   3.722   0.559   2.966  0.9196 -0.1894 -0.4740
   53MOL0     C 7039   3.756   0.682   2.917  0.9354 -0.1929  0.3384
   53MOL0     C 7040   3.674   0.789   2.843  0.2400 -0.6787  0.6691
   53MOL0     C 7041   3.569   0.845   2.932 -0.8886 -0.1138 -0.4160
   53MOL0     C 7042   3.444   0.889   2.853  0.5389 -0.3009  0.4463
   53MOL0     C 7043   3.332   0.962   2.937 -0.9991  0.2584 -0.9031
   53MOL0     O 7044   3.215   0.884   2.912  0.9457 -0.5559 -0.0028
   53MOL0     C 7045   3.088   0.928   2.947  0.0158 -0.0990 -0.1065
   53MOL0     C 7046   3.072   1.041   3.034  0.5199 -0.1669 -0.9428
   53MOL0     C 7047   2.945   1.076   3.081  0.2889  0.3851  0.1095
   53MOL0     C 7048   2.944   1.197   3.178  0.2613 -0.0033 -0.4626
   53MOL0     C 7049   2.829   1.009   3.031 -0.1974 -0.7047  0.6749
   53MOL0     C 7050   2.684   1.055   3.068  0.3086 -0.1479  0.1784
   53MOL0     O 7051   2.667   1.133   3.174 -0.7198 -0.5694 -0.5088
   53MOL0     C 7052   2.539   1.195   3.193 -0.1801  0.1646 -0.4865
   53MOL0     C 7053   2.507   1.317   3.146  0.0388  0.8123 -0.1253
   53MOL0     C 7054   2.377   1.368   3.164  0.0206 -0.5246 -0.9062
   53MOL0     C 7055   2.273   1.298   3.219 -0.0027 -0.1760 -0.3973
   53MOL0     O 7056   2.147   1.359   3.204 -0.1246  0.1254  0.7862
   53MOL0     C 7057   2.031   1.285   3.252  0.6023 -0.1951  0.3322
   53MOL0     C 7058   2.006   1.310   3.401  0.5409  0.1514  0.4070
   53MOL0     C 7059   1.894   1.216   3.452  0.1692  0.2061 -0.2687
   53MOL0     C 7060   1.876   1.238   3.608  0.1971  0.7740  0.7235
   53MOL0     C 7061   1.746   1.181   3.660 -0.2031  0.0462  0.3337
   53MOL0     C 7062   1.649   1.293   3.663 -0.3850  0.2901  0.2826
   53MOL0     C 7063   1.508   1.247   3.710 -0.3169 -0.0767 -0.3233
   53MOL0     C 7064   1.496   1.173   3.844 -0.3223  0.4202 -0.9482
   53MOL0    Cl 7065   1.325   1.168   3.886 -0.0911  0.1196  0.4851
   53MOL0     C 7066   2.306   1.177   3.288 -0.3806  0.0475 -0.6773
   53MOL0     C 7067   2.439   1.124   3.265  1.9658 -0.0144  0.1139
   53MOL0     O 7068   2.595   1.023   2.989  0.5927  0.0244  0.3232
   53MOL0     C 7069   2.848   0.901   2.936  0.1288  0.4467 -0.0460
   53MOL0     C 7070   2.974   0.863   2.894  0.4178  0.0289 -0.9691
   53MOL0     N 7071   3.887   0.700   2.941 -0.5896 -0.4791  0.8393
   53MOL0     N 7072   3.931   0.594   2.988  0.0528  0.9699 -0.0464
   53MOL0     C 7073   4.573   0.455   3.762 -0.6475  0.4522 -0.3965
   53MOL0     C 7074   4.699   0.423   3.819  0.3500  0.3038 -0.6066
   53MOL0     C 7075   5.092   0.417   4.040  0.4954  0.1048 -0.0741
   53MOL0     C 7076   5.075   0.455   4.182 -0.0696 -0.3094  0.5014
   53MOL0     C 7077   5.180   0.442   4.270 -0.0875 -0.7308  0.8323
   53MOL0     C 7078   5.303   0.398   4.218  0.5218 -0.5784 -0.6258
   53MOL0     O 7079   5.399   0.370   4.309 -0.3091 -0.0291  0.3255
   53MOL0     C 7080   5.521   0.295   4.272  1.1004  0.2732 -0.4487
   53MOL0     C 7081   5.609   0.278   4.393 -0.2844 -0.3935  0.4630
   53MOL0     C 7082   5.561   0.157   4.483  0.4699 -0.5456  0.4841
   53MOL0     C 7083   5.658   0.044   4.472 -0.5543  0.2661 -0.8815
   53MOL0     C 7084   5.785   0.072   4.537  0.2737 -0.7789  0.1975
   53MOL0     C 7085   5.886   0.121   4.591 -0.0747  0.4681  0.3344
   53MOL0     C 7086   5.320   0.361   4.086  0.3058  0.4989  0.1400
   53MOL0     C 7087   5.215   0.371   3.999  0.5873 -0.4178 -1.2461
   53MOL0     H 7088   4.737   0.703   4.009  1.7714 -2.4474  0.7439
   53MOL0     H 7089   4.490   0.729   3.931  0.0075  0.4203 -3.3940
   53MOL0     H 7090   4.306   0.765   3.677  1.9199  3.0040 -1.0915
   53MOL0     H 7091   4.473   0.733   3.614  1.0589 -3.6175 -0.7101
   53MOL0     H 7092   4.298   0.699   3.435 -2.5646  0.2523  2.2011
   53MOL0     H 7093   4.398   0.555   3.475  0.4785 -0.2848 -1.3217
   53MOL0     H 7094   4.195   0.467   3.630 -1.4920 -0.2132 -0.1702
   53MOL0     H 7095   4.125   0.625   3.619  0.3818  0.3024 -0.1599
   53MOL0     H 7096   4.099   0.596   3.363 -2.9206  0.2037  0.8370
   53MOL0     H 7097   4.163   0.428   3.388 -1.9224 -1.8790  0.4197
   53MOL0     H 7098   3.961   0.368   3.505  1.4611 -0.6667 -1.4889
   53MOL0     H 7099   3.926   0.534   3.544  0.5307 -1.1866  0.9740
   53MOL0     H 7100   3.767   0.467   3.363  0.2824  0.7415 -1.2489
   53MOL0     H 7101   3.871   0.592   3.305 -2.0433 -0.1061 -0.2318
   53MOL0     H 7102   4.025   0.447   3.186  0.0546  2.4636  1.0883
   53MOL0     H 7103   3.951   0.311   3.266  1.5314  0.1458 -1.3177
   53MOL0     H 7104   3.738   0.362   3.131 -0.0493 -1.1740  0.0605
   53MOL0     H 7105   3.876   0.300   3.037 -0.7815  0.8453 -3.3780
   53MOL0     H 7106   3.622   0.520   2.985  0.6025  1.0800  0.6790
   53MOL0     H 7107   3.730   0.879   2.815 -4.3644  1.7555 -1.7677
   53MOL0     H 7108   3.632   0.753   2.749 -0.3387  0.7110  0.3777
   53MOL0     H 7109   3.610   0.931   2.984 -0.0071  0.9288 -2.7292
   53MOL0     H 7110   3.548   0.762   3.001  1.3631 -1.0938 -0.8420
   53MOL0     H 7111   3.401   0.811   2.789  1.6339 -0.7475  0.2356
   53MOL0     H 7112   3.486   0.965   2.786  0.3561  1.7346  2.5078
   53MOL0     H 7113   3.312   1.062   2.896  0.9148  2.1661  2.4298
   53MOL0     H 7114   3.360   0.976   3.042  1.0216  3.5005 -1.7148
   53MOL0     H 7115   3.155   1.096   3.076  0.1130 -0.9363  0.9749
   53MOL0     H 7116   3.042   1.230   3.212  1.2348 -1.4326 -1.7095
   53MOL0     H 7117   2.899   1.285   3.132 -1.7461 -0.4362  0.5502
   53MOL0     H 7118   2.894   1.166   3.270  2.2415  1.2762  1.1392
   53MOL0     H 7119   2.586   1.375   3.098 -0.0767  0.3912 -0.8333
   53MOL0     H 7120   2.374   1.475   3.143  1.6077  0.2660  2.1949
   53MOL0     H 7121   1.938   1.320   3.206  0.0361 -4.3030 -2.1948
   53MOL0     H 7122   2.050   1.179   3.233  2.7908 -0.0642  1.4625
   53MOL0     H 7123   2.101   1.295   3.454  1.7106 -3.0993 -2.1952
   53MOL0     H 7124   1.977   1.415   3.405  1.0037  0.2638  1.0439
   53MOL0     H 7125   1.927   1.113   3.441 -0.3869 -0.0020 -0.0416
   53MOL0     H 7126   1.797   1.241   3.408 -0.6461 -0.0853  1.2755
   53MOL0     H 7127   1.958   1.183   3.656 -0.9136  1.2485  3.2908
   53MOL0     H 7128   1.880   1.342   3.638 -0.3346  0.6625  1.1822
   53MOL0     H 7129   1.764   1.155   3.765  0.5088 -0.1458  0.1720
   53MOL0     H 7130   1.717   1.092   3.603 -2.2382  1.2223 -0.5786
   53MOL0     H 7131   1.677   1.367   3.739  1.2333  0.3929 -0.3881
   53MOL0     H 7132   1.645   1.346   3.567 -3.0037 -0.2582 -0.0040
   53MOL0     H 7133   1.477   1.183   3.627  0.5368  0.0165 -0.7301
   53MOL0     H 7134   1.442   1.335   3.712  0.0172  0.1756 -0.1755
   53MOL0     H 7135   1.554   1.232   3.916  0.1726  2.2626 -2.7662
   53MOL0     H 7136   1.536   1.071   3.850 -1.1447  0.0610 -1.3942
   53MOL0     H 7137   2.230   1.107   3.320 -1.2450  0.0774 -2.5885
   53MOL0     H 7138   2.451   1.019   3.293  1.5301 -0.1884 -0.3365
   53MOL0     H 7139   2.766   0.837   2.903 -0.0493  1.6927 -2.1385
   53MOL0     H 7140   2.991   0.772   2.837  2.5152 -0.0055 -0.3639
   53MOL0     H 7141   4.525   0.386   3.693  1.2466  1.3011 -2.6833
   53MOL0     H 7142   4.733   0.322   3.796 -1.8356 -0.3378 -1.2567
   53MOL0     H 7143   4.975   0.484   4.214  0.6481  0.5865  1.9792
   53MOL0     H 7144   5.151   0.456   4.373 -0.2367  0.3740  0.6471
   53MOL0     H 7145   5.499   0.202   4.219  1.2373  0.0774 -0.1601
   53MOL0     H 7146   5.584   0.356   4.206  1.3157  0.1359 -0.3693
   53MOL0     H 7147   5.602   0.363   4.462 -0.7294  0.8942 -1.1098
   53MOL0     H 7148   5.716   0.273   4.373  0.1010 -1.9566  2.5921
   53MOL0     H 7149   5.461   0.123   4.457 -0.0508 -0.5542  2.4131
   53MOL0     H 7150   5.536   0.179   4.587  1.5088 -1.2741  0.9072
   53MOL0     H 7151   5.674   0.017   4.368 -2.5234 -0.2081 -1.1110
   53MOL0     H 7152   5.614  -0.046   4.516 -0.7929  0.0590 -1.5415
   53MOL0     H 7153   5.981   0.146   4.634 -2.2003  2.5609  4.3656
   53MOL0     H 7154   5.420   0.330   4.060 -0.0138  1.1091 -2.0030
   53MOL0     H 7155   5.242   0.361   3.894  2.6613  0.2852 -0.8309
   54MOL0     O 7156   5.953   3.229   4.082  0.2376  0.2070  0.4952
   54MOL0     C 7157   5.878   3.317   4.036  0.4296  0.3248 -0.3389
   54MOL0     O 7158   5.928   3.420   3.972  0.3751  1.1371  0.0305
   54MOL0     C 7159   6.064   3.433   3.952 -0.6289 -0.1089 -0.3191
   54MOL0     C 7160   6.101   3.456   3.819  0.7185  0.5146 -0.6094
   54MOL0     C 7161   6.237   3.476   3.801 -0.2049  0.1083 -0.7908
   54MOL0     C 7162   6.336   3.487   3.895  0.4696 -0.5213  0.4141
   54MOL0     O 7163   6.462   3.532   3.852  0.3949  0.1005 -0.3660
   54MOL0     C 7164   6.559   3.599   3.940 -1.1861 -0.1558 -0.3316
   54MOL0     C 7165   6.655   3.686   3.856  0.3657 -0.8107  0.0845
   54MOL0     C 7166   6.742   3.769   3.952  0.0495  0.9995 -0.0680
   54MOL0     C 7167   6.880   3.732   3.965 -1.2651 -0.0971 -0.0509
   54MOL0     C 7168   6.952   3.852   4.040 -0.1708 -0.2356  0.5048
   54MOL0     C 7169   7.090   3.797   4.089 -0.4197  0.7704 -0.6238
   54MOL0     C 7170   7.170   3.909   4.155 -0.5335  0.0956  0.3122
   54MOL0     C 7171   7.244   3.986   4.038  0.4450 -0.6081  0.1725
   54MOL0     N 7172   7.349   4.081   4.092 -0.6640 -0.7558 -0.4551
   54MOL0     C 7173   7.339   4.160   4.202  0.0901  0.4395 -0.6779
   54MOL0     C 7174   7.456   4.228   4.206 -0.4350 -0.2713  0.0846
   54MOL0     C 7175   7.479   4.343   4.301 -0.2311 -0.3954  0.1604
   54MOL0     C 7176   7.611   4.409   4.283 -0.6514 -1.2065 -1.6547
   54MOL0     C 7177   7.654   4.519   4.386  0.0182  0.3204 -0.0328
   54MOL0     C 7178   7.665   4.482   4.535  0.1843  0.0823  0.6410
   54MOL0     O 7179   7.708   4.348   4.573 -0.1649 -0.2334 -0.6503
   54MOL0     C 7180   7.833   4.296   4.548  0.2744  0.5017  0.1389
   54MOL0     C 7181   7.852   4.159   4.565 -0.4219  0.4359 -0.0420
   54MOL0     C 7182   7.971   4.098   4.554  0.4557  0.4235 -0.0315
   54MOL0     C 7183   7.966   3.951   4.580 -1.0892 -0.0589  0.2029
   54MOL0     C 7184   8.084   4.164   4.510  0.2671 -0.8655 -0.1137
   54MOL0     C 7185   8.224   4.112   4.472  0.2717  0.6156 -0.0949
   54MOL0     O 7186   8.318   4.203   4.439  0.3786 -0.3869  0.7410
   54MOL0     C 7187   8.445   4.167   4.454 -0.2611  0.6761  0.1269
   54MOL0     C 7188   8.521   4.247   4.545 -0.5361 -0.2121  1.0016
   54MOL0     C 7189   8.660   4.214   4.558 -0.4833  0.1708  0.9636
   54MOL0     C 7190   8.725   4.116   4.472  0.2533  0.3815 -0.5469
   54MOL0     O 7191   8.867   4.116   4.479  0.3010 -0.1963 -0.0264
   54MOL0     C 7192   8.927   4.185   4.369 -0.8963  0.6655  0.2076
   54MOL0     C 7193   9.047   4.271   4.420 -0.4453  1.0505 -0.4193
   54MOL0     C 7194   9.168   4.164   4.415 -0.2496  0.0360  0.2621
   54MOL0     C 7195   9.294   4.251   4.436  0.5602 -0.3190 -0.4216
   54MOL0     C 7196   9.427   4.183   4.430 -0.8040  0.2006 -0.2310
   54MOL0     C 7197   9.540   4.252   4.504 -0.2724 -0.2413 -0.0019
   54MOL0     C 7198   9.572   4.395   4.457  0.5082  0.4982  0.0279
   54MOL0     C 7199   9.581   4.412   4.315  0.1957 -0.1560 -0.0769
   54MOL0    Cl 7200   9.695   4.290   4.249 -0.0617 -0.4946 -0.0660
   54MOL0     C 7201   8.649   4.057   4.375  0.3930  0.4257  0.0594
   54MOL0     C 7202   8.512   4.081   4.362 -0.2953 -0.9527  0.3343
   54MOL0     O 7203   8.246   3.991   4.491 -0.6604  0.2181  0.0416
   54MOL0     C 7204   8.068   4.309   4.486  0.6742  0.0544  0.0030
   54MOL0     C 7205   7.947   4.369   4.514 -0.3024  0.3801  0.4849
   54MOL0     N 7206   7.538   4.200   4.097  0.5582  0.4830  0.8818
   54MOL0     N 7207   7.467   4.107   4.024 -0.3964  0.1446 -0.0987
   54MOL0     C 7208   6.297   3.471   4.027 -0.1559  0.1086 -0.3176
   54MOL0     C 7209   6.159   3.435   4.057 -0.4572 -0.1096 -0.0824
   54MOL0     C 7210   5.735   3.307   4.059  0.9781 -0.0574  0.1662
   54MOL0     C 7211   5.682   3.225   4.162 -0.9422  0.6914  0.6203
   54MOL0     C 7212   5.552   3.217   4.186 -0.3417 -0.8309 -0.1049
   54MOL0     C 7213   5.455   3.287   4.112 -0.7627  0.3330 -0.8338
   54MOL0     O 7214   5.320   3.285   4.136 -0.2071 -0.5298  0.2099
   54MOL0     C 7215   5.247   3.225   4.245 -0.4908 -0.0992  1.0429
   54MOL0     C 7216   5.094   3.237   4.205  0.9330  0.5113  0.3697
   54MOL0     C 7217   5.037   3.115   4.132  0.0608 -0.9742  0.1322
   54MOL0     C 7218   4.883   3.111   4.145 -1.3694 -0.4047  0.3911
   54MOL0     C 7219   4.820   3.228   4.096  0.5909 -0.6882  0.2719
   54MOL0     C 7220   4.768   3.326   4.033 -0.3732  0.1736  0.3035
   54MOL0     C 7221   5.506   3.374   4.017  0.6338 -0.1374 -0.2182
   54MOL0     C 7222   5.640   3.377   3.982 -0.8224 -0.4879 -0.3009
   54MOL0     H 7223   6.019   3.464   3.748  1.1245  0.6518 -1.0717
   54MOL0     H 7224   6.259   3.500   3.697  1.7843  2.0182 -0.0141
   54MOL0     H 7225   6.511   3.662   4.016 -0.8437 -1.6551  1.1686
   54MOL0     H 7226   6.617   3.523   3.992  0.6991  1.0605 -0.5745
   54MOL0     H 7227   6.717   3.631   3.785  2.0181  1.3811 -0.2503
   54MOL0     H 7228   6.591   3.747   3.792 -0.2663 -1.1757  0.3543
   54MOL0     H 7229   6.749   3.874   3.922 -0.1059  0.8747 -0.5593
   54MOL0     H 7230   6.700   3.769   4.053  0.5255 -0.0107  0.1391
   54MOL0     H 7231   6.890   3.638   4.022  0.6600  0.8524  1.3141
   54MOL0     H 7232   6.922   3.732   3.864 -0.7823 -2.0736  0.1089
   54MOL0     H 7233   6.948   3.939   3.974 -1.6448 -0.6714 -0.0320
   54MOL0     H 7234   6.905   3.883   4.134 -0.3083 -0.5027  0.5231
   54MOL0     H 7235   7.058   3.716   4.154  1.2678  2.0064  1.8945
   54MOL0     H 7236   7.153   3.759   4.007  2.0872  1.5125  0.8496
   54MOL0     H 7237   7.106   3.984   4.203 -0.4117  0.3366  0.1039
   54MOL0     H 7238   7.242   3.872   4.227 -0.3067 -1.4411 -0.6726
   54MOL0     H 7239   7.173   4.037   3.972 -2.0366 -1.9898  1.6127
   54MOL0     H 7240   7.301   3.922   3.971  0.0150 -0.8388  0.0176
   54MOL0     H 7241   7.255   4.165   4.272 -0.5442  0.7232 -1.4438
   54MOL0     H 7242   7.401   4.417   4.283 -1.2216 -0.8294  2.3319
   54MOL0     H 7243   7.471   4.310   4.405  2.2608 -2.0259 -0.0749
   54MOL0     H 7244   7.600   4.453   4.184 -3.2150 -1.7443 -1.7006
   54MOL0     H 7245   7.693   4.337   4.287  0.7613  0.3998 -0.9377
   54MOL0     H 7246   7.579   4.599   4.385 -0.7292 -0.3272  1.5257
   54MOL0     H 7247   7.754   4.546   4.351  1.2320 -0.1797  2.7364
   54MOL0     H 7248   7.565   4.499   4.576 -0.1208 -2.2953  1.0396
   54MOL0     H 7249   7.745   4.547   4.572  1.0237 -1.5336  1.7893
   54MOL0     H 7250   7.763   4.099   4.582  0.6338 -1.1539  0.1137
   54MOL0     H 7251   8.042   3.888   4.533 -1.4532 -1.6513  1.6230
   54MOL0     H 7252   7.965   3.931   4.688 -3.2923 -2.6803 -0.2133
   54MOL0     H 7253   7.876   3.909   4.535  0.2797 -0.5793 -2.2634
   54MOL0     H 7254   8.464   4.318   4.605 -0.3024  0.3781  0.5306
   54MOL0     H 7255   8.720   4.268   4.631 -1.1231  0.6313  1.1584
   54MOL0     H 7256   8.966   4.116   4.294  0.7279  1.4011  0.3409
   54MOL0     H 7257   8.854   4.251   4.321 -2.1295  0.6574  1.9863
   54MOL0     H 7258   9.065   4.360   4.359 -1.0483  1.9349  0.6659
   54MOL0     H 7259   9.028   4.308   4.521  1.1493  3.3282 -0.8792
   54MOL0     H 7260   9.175   4.113   4.318  0.4989  2.6789 -1.1741
   54MOL0     H 7261   9.157   4.087   4.492 -2.7169  0.7779  0.7362
   54MOL0     H 7262   9.297   4.327   4.357  1.4860 -0.9903 -1.0560
   54MOL0     H 7263   9.294   4.299   4.534  1.1562  1.1955 -1.1237
   54MOL0     H 7264   9.462   4.168   4.328  2.8495  0.4631  0.8390
   54MOL0     H 7265   9.414   4.083   4.474 -3.5492  0.2874 -0.6862
   54MOL0     H 7266   9.529   4.246   4.613  4.0917  1.9875  0.8008
   54MOL0     H 7267   9.629   4.189   4.496  0.1660  0.3439  0.1779
   54MOL0     H 7268   9.675   4.420   4.483  0.7929  2.1324 -2.4210
   54MOL0     H 7269   9.508   4.473   4.500  1.1841  1.1321 -0.1001
   54MOL0     H 7270   9.615   4.512   4.289  0.6441  0.0566  1.2278
   54MOL0     H 7271   9.484   4.384   4.272  0.5298 -0.9013 -0.3687
   54MOL0     H 7272   8.712   3.994   4.312  3.6635  1.7395  1.7827
   54MOL0     H 7273   8.459   4.049   4.273  0.3492  4.3817 -2.3497
   54MOL0     H 7274   8.138   4.378   4.442 -1.2131  0.2306 -3.0397
   54MOL0     H 7275   7.943   4.478   4.506 -1.5072  0.2995 -0.3898
   54MOL0     H 7276   6.377   3.465   4.101 -1.3537  0.2494  1.0419
   54MOL0     H 7277   6.128   3.413   4.158 -2.0535  0.8833 -0.3337
   54MOL0     H 7278   5.756   3.177   4.224  0.6785  1.6880 -0.4599
   54MOL0     H 7279   5.509   3.146   4.256 -0.6476 -0.3057  0.2400
   54MOL0     H 7280   5.266   3.117   4.254 -3.8767 -0.9467 -0.1645
   54MOL0     H 7281   5.260   3.280   4.339 -0.7935 -0.6853  1.4338
   54MOL0     H 7282   5.086   3.317   4.131 -3.9062 -0.0350  0.0137
   54MOL0     H 7283   5.026   3.264   4.286  1.2586 -2.5263  1.7634
   54MOL0     H 7284   5.081   3.020   4.163 -2.5499 -1.4393  2.8186
   54MOL0     H 7285   5.051   3.127   4.024  0.4143 -0.3276  0.2497
   54MOL0     H 7286   4.871   3.090   4.252  1.2843 -1.2395  0.5957
   54MOL0     H 7287   4.850   3.024   4.089 -0.6807 -0.6579  0.3696
   54MOL0     H 7288   4.729   3.413   3.985  0.4805 -0.5319 -1.7817
   54MOL0     H 7289   5.432   3.422   3.953  0.1049 -1.6413 -0.8018
   54MOL0     H 7290   5.668   3.442   3.900  1.8154 -3.3473 -1.8551
   55MOL0     O 7291  10.388   5.441   4.906 -0.0455 -0.3595 -0.1258
   55MOL0     C 7292  10.442   5.443   4.799 -0.7247  0.8028  0.3070
   55MOL0     O 7293  10.383   5.444   4.674 -0.0616  0.0491 -0.2475
   55MOL0     C 7294  10.250   5.454   4.669 -0.8836  0.6715  0.1341
   55MOL0     C 7295  10.189   5.580   4.697 -0.0665 -0.3253 -0.1947
   55MOL0     C 7296  10.048   5.594   4.676  1.1587  0.1256  0.3092
   55MOL0     C 7297   9.973   5.480   4.639  0.0483  0.2377  0.0338
   55MOL0     O 7298   9.834   5.489   4.642  0.2138 -0.1368  0.1285
   55MOL0     C 7299   9.765   5.570   4.747 -0.7725 -0.3690 -0.9631
   55MOL0     C 7300   9.616   5.520   4.759 -0.2529 -0.0616  0.3201
   55MOL0     C 7301   9.532   5.617   4.858  0.7299  0.0498 -0.1254
   55MOL0     C 7302   9.385   5.580   4.865 -0.7185  0.3738  0.1326
   55MOL0     C 7303   9.313   5.614   4.736  0.8659  0.4787  0.2119
   55MOL0     C 7304   9.171   5.657   4.748  0.2524 -0.0226 -0.3712
   55MOL0     C 7305   9.118   5.730   4.624 -0.2963  0.1164  0.0654
   55MOL0     C 7306   8.976   5.784   4.632 -0.3419 -0.6291 -0.3155
   55MOL0     N 7307   8.895   5.667   4.619  0.4345 -0.5788 -0.2786
   55MOL0     C 7308   8.776   5.660   4.678  0.2164 -0.4211  0.0290
   55MOL0     C 7309   8.722   5.543   4.632 -0.6691 -0.7650 -0.1736
   55MOL0     C 7310   8.587   5.500   4.675 -0.4165  1.2078  0.1331
   55MOL0     C 7311   8.586   5.452   4.816  0.2856 -1.0291 -0.3090
   55MOL0     C 7312   8.643   5.314   4.846 -0.4871  0.9144  0.0517
   55MOL0     C 7313   8.792   5.306   4.870 -0.5043 -0.4851 -0.3412
   55MOL0     O 7314   8.829   5.385   4.985 -0.3132  0.0048 -0.4640
   55MOL0     C 7315   8.967   5.383   5.017  0.2416 -0.1008 -0.3480
   55MOL0     C 7316   9.012   5.486   5.102  0.3540  0.8682  0.3128
   55MOL0     C 7317   9.145   5.489   5.140 -0.0491 -0.9370 -0.0667
   55MOL0     C 7318   9.183   5.609   5.222 -0.3689  0.1521 -0.5348
   55MOL0     C 7319   9.233   5.389   5.106  0.2373 -1.0502  0.3240
   55MOL0     C 7320   9.378   5.391   5.142  0.7790  0.2730  0.3801
   55MOL0     O 7321   9.446   5.277   5.116  0.6790 -0.8163 -0.2688
   55MOL0     C 7322   9.578   5.275   5.142 -0.2004 -0.0106  0.9366
   55MOL0     C 7323   9.668   5.270   5.033 -0.0133 -0.2755  0.4544
   55MOL0     C 7324   9.798   5.273   5.056 -0.7421  0.2700 -0.0361
   55MOL0     C 7325   9.860   5.282   5.176  0.2776 -1.2972  0.5323
   55MOL0     O 7326   9.997   5.263   5.187  0.2616 -0.4868  0.3808
   55MOL0     C 7327  10.064   5.270   5.317  0.0270 -0.1512 -0.5530
   55MOL0     C 7328  10.214   5.242   5.312 -0.2394  0.2651  0.8083
   55MOL0     C 7329  10.290   5.333   5.219  0.9144 -0.3819  0.4440
   55MOL0     C 7330  10.441   5.358   5.256  0.5399  0.8602 -0.1657
   55MOL0     C 7331  10.524   5.228   5.241  0.5380 -0.6019 -0.4673
   55MOL0     C 7332  10.678   5.252   5.252  0.5463 -1.1957 -0.2365
   55MOL0     C 7333  10.718   5.273   5.400  0.0382 -0.4697 -0.9493
   55MOL0     C 7334  10.698   5.155   5.495  0.1868  0.8861  0.0502
   55MOL0    Cl 7335  10.799   5.013   5.434  0.1003 -0.2504  0.1646
   55MOL0     C 7336   9.777   5.294   5.288  0.2996  0.7842  0.7420
   55MOL0     C 7337   9.635   5.297   5.270 -0.0619 -0.1463 -0.1553
   55MOL0     O 7338   9.433   5.492   5.186  0.5899 -0.5618  0.3002
   55MOL0     C 7339   9.183   5.285   5.022 -0.9216  0.0079  0.2711
   55MOL0     C 7340   9.054   5.286   4.976  0.3456  0.0712  0.3549
   55MOL0     N 7341   8.814   5.480   4.546 -0.1623 -0.1616  0.5121
   55MOL0     N 7342   8.920   5.564   4.537  0.4878 -0.2559 -0.0132
   55MOL0     C 7343  10.043   5.363   4.605  0.1883  1.5155  0.2240
   55MOL0     C 7344  10.175   5.345   4.621 -0.9143  0.0554 -0.1995
   55MOL0     C 7345  10.593   5.432   4.796 -0.0888 -0.6115  0.8258
   55MOL0     C 7346  10.671   5.496   4.700 -0.9747 -0.2757  0.5565
   55MOL0     C 7347  10.810   5.456   4.690  0.4389 -0.0088  0.0616
   55MOL0     C 7348  10.868   5.376   4.787 -0.7598  0.6486 -0.5585
   55MOL0     O 7349  11.001   5.345   4.765  0.2843 -0.7210  0.2639
   55MOL0     C 7350  11.042   5.215   4.749  0.1542  0.7498 -0.3406
   55MOL0     C 7351  11.012   5.166   4.610  0.8815  0.8772 -0.6835
   55MOL0     C 7352  11.138   5.161   4.523 -0.0612 -0.2353  0.6170
   55MOL0     C 7353  11.224   5.286   4.528  0.3043 -0.5117 -0.0138
   55MOL0     C 7354  11.164   5.400   4.451  0.3892 -0.1521  0.2415
   55MOL0     C 7355  11.124   5.483   4.374  0.2949  0.0509 -0.1587
   55MOL0     C 7356  10.790   5.322   4.892 -0.3968 -0.0634  0.4348
   55MOL0     C 7357  10.650   5.340   4.883  0.2887 -0.5957  0.1221
   55MOL0     H 7358  10.252   5.665   4.720  1.4765 -0.8686 -2.1540
   55MOL0     H 7359  10.018   5.695   4.704  3.0572 -0.1667  3.9822
   55MOL0     H 7360   9.807   5.561   4.847  3.9459  3.5848 -2.1899
   55MOL0     H 7361   9.756   5.675   4.718 -1.7274 -0.4514 -0.9920
   55MOL0     H 7362   9.577   5.528   4.657 -1.1247  0.1303  0.6568
   55MOL0     H 7363   9.615   5.413   4.780  1.6237 -0.2247 -0.2585
   55MOL0     H 7364   9.573   5.603   4.958 -2.2536 -0.8971  1.0747
   55MOL0     H 7365   9.544   5.724   4.837  0.3196  0.0315 -0.4824
   55MOL0     H 7366   9.357   5.476   4.884 -4.7327  0.6036 -3.0958
   55MOL0     H 7367   9.344   5.642   4.946 -1.9175 -0.4570  0.1812
   55MOL0     H 7368   9.366   5.686   4.672 -2.5196  0.4522 -2.9777
   55MOL0     H 7369   9.308   5.518   4.684 -0.7350  1.0922 -0.8122
   55MOL0     H 7370   9.116   5.563   4.761  0.1099  0.3568  2.4969
   55MOL0     H 7371   9.164   5.722   4.836 -2.8814  1.0909 -1.3254
   55MOL0     H 7372   9.168   5.826   4.611 -1.5910  0.7633 -0.2274
   55MOL0     H 7373   9.142   5.672   4.534 -0.3003  0.2669 -0.0328
   55MOL0     H 7374   8.953   5.854   4.551 -2.0393 -1.4554 -0.5922
   55MOL0     H 7375   8.966   5.832   4.730 -0.7084 -2.8479  0.8022
   55MOL0     H 7376   8.728   5.735   4.740  1.1936 -0.0779  0.3812
   55MOL0     H 7377   8.514   5.581   4.667  1.5048  3.1688  1.3378
   55MOL0     H 7378   8.541   5.424   4.611 -1.5669  1.0956  1.0527
   55MOL0     H 7379   8.478   5.459   4.831  0.3629  1.7744 -0.5760
   55MOL0     H 7380   8.633   5.523   4.885  0.5755 -1.8708  0.3895
   55MOL0     H 7381   8.615   5.252   4.760 -0.2420 -2.1509  2.0209
   55MOL0     H 7382   8.590   5.274   4.933 -1.6981 -1.0186 -1.4802
   55MOL0     H 7383   8.848   5.333   4.780  0.5622 -0.7749  0.2146
   55MOL0     H 7384   8.818   5.200   4.881  0.2557 -0.1762  1.0793
   55MOL0     H 7385   8.934   5.557   5.127 -2.4509 -0.7648 -2.9998
   55MOL0     H 7386   9.244   5.679   5.165 -0.3129 -0.2587 -0.9844
   55MOL0     H 7387   9.102   5.660   5.276  1.8022  1.6029  1.5734
   55MOL0     H 7388   9.245   5.573   5.305 -0.6813 -0.6198 -0.6297
   55MOL0     H 7389   9.643   5.272   4.927 -2.2726 -0.8867  0.9296
   55MOL0     H 7390   9.865   5.261   4.971 -0.5770 -0.8654  0.2307
   55MOL0     H 7391  10.045   5.372   5.351  0.6190  0.4987 -2.0857
   55MOL0     H 7392  10.018   5.199   5.387  0.1155  0.5161  0.1905
   55MOL0     H 7393  10.260   5.241   5.411  2.7661  0.9588 -0.4893
   55MOL0     H 7394  10.231   5.142   5.270  0.9009  0.9368 -0.3650
   55MOL0     H 7395  10.248   5.432   5.237 -2.6133 -1.7777  0.6886
   55MOL0     H 7396  10.275   5.306   5.114  0.1517  0.7536  0.2515
   55MOL0     H 7397  10.479   5.440   5.194  3.5903  0.9990  1.6474
   55MOL0     H 7398  10.456   5.404   5.354  0.4772  0.0272  0.2404
   55MOL0     H 7399  10.499   5.192   5.141  0.8575  1.1824 -1.2321
   55MOL0     H 7400  10.491   5.156   5.316 -0.3638  0.1314 -0.1453
   55MOL0     H 7401  10.731   5.165   5.213 -1.3264 -1.9824 -1.1716
   55MOL0     H 7402  10.701   5.337   5.187 -0.6955 -1.5325 -1.1616
   55MOL0     H 7403  10.659   5.350   5.451 -0.1579 -1.9164  1.1076
   55MOL0     H 7404  10.824   5.300   5.394 -0.1277  0.0145 -2.1127
   55MOL0     H 7405  10.592   5.133   5.506  0.2340  0.1834 -0.7623
   55MOL0     H 7406  10.743   5.180   5.591 -1.6016 -1.1251  1.5016
   55MOL0     H 7407   9.819   5.291   5.389 -0.8927 -2.5380  1.2535
   55MOL0     H 7408   9.567   5.305   5.354 -0.0613  1.5220 -0.2886
   55MOL0     H 7409   9.250   5.209   4.983 -0.4948  1.3441 -1.7236
   55MOL0     H 7410   9.025   5.202   4.914  2.8664  1.5695 -3.1500
   55MOL0     H 7411   9.978   5.278   4.587 -0.4151  0.7910  4.7712
   55MOL0     H 7412  10.225   5.254   4.592  1.4560  1.0670  0.4489
   55MOL0     H 7413  10.626   5.570   4.635  0.0759  0.7690  0.9770
   55MOL0     H 7414  10.864   5.497   4.605 -0.0350 -1.7032 -1.0864
   55MOL0     H 7415  11.149   5.209   4.774 -0.1464  2.5508  1.5735
   55MOL0     H 7416  10.979   5.153   4.812 -0.5020 -0.3914 -2.0407
   55MOL0     H 7417  10.942   5.230   4.555 -0.2815 -1.8882 -2.6997
   55MOL0     H 7418  10.970   5.065   4.618  2.3663  0.2857  0.0030
   55MOL0     H 7419  11.106   5.134   4.422  1.0993 -2.0727  0.7014
   55MOL0     H 7420  11.204   5.080   4.554  0.7920  0.3501  0.3690
   55MOL0     H 7421  11.318   5.264   4.477  0.4457  0.3732 -0.1510
   55MOL0     H 7422  11.250   5.317   4.629 -0.9038  2.3035 -0.4662
   55MOL0     H 7423  11.083   5.558   4.310  0.8897  1.2583  0.8273
   55MOL0     H 7424  10.833   5.264   4.973  0.4338  1.0467  0.8053
   55MOL0     H 7425  10.585   5.290   4.954  1.2168 -0.5552  1.0285
   56MOL0     O 7426   3.837   3.217   0.601 -0.3731  0.4889 -0.1206
   56MOL0     C 7427   3.867   3.263   0.484 -0.6442  0.2703 -0.2073
   56MOL0     O 7428   3.776   3.307   0.395  0.7363 -0.4781 -0.5190
   56MOL0     C 7429   3.640   3.282   0.415 -0.2249 -0.1769 -0.6100
   56MOL0     C 7430   3.545   3.382   0.429  0.2505 -0.3871 -0.4406
   56MOL0     C 7431   3.409   3.364   0.438  0.5718  0.3696 -0.9927
   56MOL0     C 7432   3.357   3.232   0.422 -0.3376 -0.4057 -0.5101
   56MOL0     O 7433   3.220   3.220   0.433 -0.2141 -0.2049 -0.9004
   56MOL0     C 7434   3.175   3.109   0.508 -0.0214  0.0558  0.2037
   56MOL0     C 7435   3.041   3.141   0.554 -0.6007  0.9445  0.0130
   56MOL0     C 7436   2.988   3.023   0.644 -0.3773 -0.2444  0.4165
   56MOL0     C 7437   2.857   3.071   0.696  0.6620 -0.1738  0.1483
   56MOL0     C 7438   2.789   2.959   0.768 -0.7093  0.3624  0.1477
   56MOL0     C 7439   2.659   3.010   0.834  0.8518  0.3417  0.3620
   56MOL0     C 7440   2.601   2.921   0.947 -0.1624 -0.8751  0.8806
   56MOL0     C 7441   2.470   2.980   1.008  0.4029  0.1468 -0.0735
   56MOL0     N 7442   2.470   3.123   1.026  0.1647 -0.1330  0.3038
   56MOL0     C 7443   2.425   3.220   0.937  0.7000  0.8201  1.2007
   56MOL0     C 7444   2.456   3.341   0.977  0.6169  0.5112 -0.3688
   56MOL0     C 7445   2.420   3.465   0.906  0.1851  0.5797 -0.0554
   56MOL0     C 7446   2.469   3.599   0.962  0.0349  0.5259 -0.0580
   56MOL0     C 7447   2.407   3.720   0.899  0.8301 -0.3843 -0.6151
   56MOL0     C 7448   2.471   3.853   0.941 -0.1270 -0.6753  0.4677
   56MOL0     O 7449   2.395   3.961   0.882 -1.2045 -0.6007 -0.4321
   56MOL0     C 7450   2.271   3.988   0.930  0.6268 -0.3047 -0.5304
   56MOL0     C 7451   2.216   4.103   0.871  0.4422  0.1927  0.0230
   56MOL0     C 7452   2.084   4.144   0.900  0.2239  0.0217 -0.4949
   56MOL0     C 7453   2.034   4.260   0.819  0.9060  0.0515 -0.0039
   56MOL0     C 7454   1.998   4.075   0.997  0.1859  0.2330  0.0883
   56MOL0     C 7455   1.853   4.104   1.021  0.1847  0.1874  0.1140
   56MOL0     O 7456   1.789   4.033   1.116 -0.2970  0.4046  0.0556
   56MOL0     C 7457   1.652   4.032   1.129 -0.3379 -0.3859 -1.1726
   56MOL0     C 7458   1.561   3.999   1.028  0.5114  0.2075 -0.7924
   56MOL0     C 7459   1.425   4.002   1.052  0.1831  0.2696 -0.0076
   56MOL0     C 7460   1.367   4.036   1.174  0.0036 -0.6370 -0.1653
   56MOL0     O 7461   1.236   4.045   1.208 -0.4718 -0.0392 -0.1144
   56MOL0     C 7462   1.143   4.039   1.105  0.7760 -0.2386 -0.5104
   56MOL0     C 7463   1.001   4.048   1.170 -0.2351 -0.3877 -0.0298
   56MOL0     C 7464   0.883   4.028   1.070  0.6408 -0.2085  0.5549
   56MOL0     C 7465   0.860   4.155   0.984 -0.3707  0.0878 -0.4823
   56MOL0     C 7466   0.739   4.219   1.038 -0.0194 -0.2178 -0.0716
   56MOL0     C 7467   0.703   4.337   0.947 -0.1837  1.5513 -0.8645
   56MOL0     C 7468   0.582   4.419   1.001 -0.4228 -0.3888  0.2412
   56MOL0     C 7469   0.445   4.371   0.967 -0.2540  0.7602  0.5186
   56MOL0    Cl 7470   0.422   4.368   0.784 -0.0377 -0.0303  0.2577
   56MOL0     C 7471   1.463   4.076   1.276 -0.0975 -0.0835 -0.1206
   56MOL0     C 7472   1.600   4.073   1.244 -0.0811  0.7650 -0.2028
   56MOL0     O 7473   1.800   4.196   0.957  0.5791 -0.3031 -0.0764
   56MOL0     C 7474   2.069   3.971   1.062  0.2195 -0.6566 -0.3972
   56MOL0     C 7475   2.194   3.924   1.033  0.5451  0.4566  0.2832
   56MOL0     N 7476   2.522   3.324   1.095  0.1602  0.5546  0.5864
   56MOL0     N 7477   2.525   3.200   1.125 -0.1919  0.1354 -0.4291
   56MOL0     C 7478   3.444   3.122   0.418 -0.1000 -0.2201  0.0724
   56MOL0     C 7479   3.583   3.150   0.420 -0.0901  0.5063 -0.5570
   56MOL0     C 7480   4.013   3.281   0.462 -0.3335 -0.0369  0.1380
   56MOL0     C 7481   4.105   3.237   0.559 -0.2881 -0.3063  0.2807
   56MOL0     C 7482   4.241   3.256   0.527  0.1656  0.7741 -0.6242
   56MOL0     C 7483   4.284   3.314   0.408 -0.3004  0.2498  0.4895
   56MOL0     O 7484   4.408   3.324   0.365 -0.0983  0.2160  0.2455
   56MOL0     C 7485   4.526   3.313   0.446 -0.6166  0.0789 -0.2240
   56MOL0     C 7486   4.571   3.170   0.434 -0.2850  0.6748 -1.2988
   56MOL0     C 7487   4.676   3.128   0.535 -0.0636 -0.1927 -0.0137
   56MOL0     C 7488   4.750   3.002   0.488  1.0129  0.0765  0.8193
   56MOL0     C 7489   4.643   2.889   0.480  0.1733  0.0308  1.7112
   56MOL0     C 7490   4.569   2.801   0.452 -0.0507  0.1093 -0.3629
   56MOL0     C 7491   4.189   3.352   0.314  0.3090  0.1305  0.0444
   56MOL0     C 7492   4.047   3.343   0.340 -0.7554  0.8911  0.1746
   56MOL0     H 7493   3.581   3.484   0.434 -0.3067 -0.1895 -0.3909
   56MOL0     H 7494   3.350   3.455   0.449  2.3297  1.5919 -1.2483
   56MOL0     H 7495   3.173   3.026   0.437 -2.6679  0.8661 -0.7995
   56MOL0     H 7496   3.230   3.094   0.602  0.4243  1.5175  0.2004
   56MOL0     H 7497   3.052   3.238   0.603 -1.8686  1.1105  0.0029
   56MOL0     H 7498   2.974   3.131   0.468 -1.0457 -0.8486  0.5343
   56MOL0     H 7499   3.000   2.927   0.595 -0.4029 -0.1286  0.1810
   56MOL0     H 7500   3.052   3.013   0.732  2.9497 -1.1651 -1.9169
   56MOL0     H 7501   2.865   3.158   0.762  0.6326  0.4255 -0.6200
   56MOL0     H 7502   2.793   3.099   0.612 -1.6505 -2.7992  0.8549
   56MOL0     H 7503   2.760   2.890   0.688  0.7947  0.9409 -0.9289
   56MOL0     H 7504   2.853   2.905   0.838  1.3074  0.3883 -1.5900
   56MOL0     H 7505   2.668   3.111   0.875 -2.8769  1.3128 -0.7810
   56MOL0     H 7506   2.579   3.019   0.760  0.2027  0.9557  1.1291
   56MOL0     H 7507   2.594   2.822   0.901 -2.4372  1.1490 -3.8453
   56MOL0     H 7508   2.671   2.916   1.031  1.0046 -1.2807 -0.0902
   56MOL0     H 7509   2.455   2.935   1.106 -1.4881  2.6470  0.8779
   56MOL0     H 7510   2.383   2.938   0.956 -0.4954  1.9470 -0.0938
   56MOL0     H 7511   2.364   3.201   0.849  2.8632 -0.8109 -0.0583
   56MOL0     H 7512   2.475   3.460   0.812 -0.5879 -0.4261 -0.4770
   56MOL0     H 7513   2.312   3.470   0.892  0.3969  0.3487 -2.0426
   56MOL0     H 7514   2.577   3.603   0.948 -0.1781 -1.0388 -2.9467
   56MOL0     H 7515   2.454   3.610   1.070 -0.1104  1.2863 -0.1469
   56MOL0     H 7516   2.299   3.729   0.918  0.5956  0.1026 -2.0521
   56MOL0     H 7517   2.434   3.695   0.796  1.6190 -2.5095  0.0443
   56MOL0     H 7518   2.576   3.852   0.913  0.3271 -1.6998  2.1293
   56MOL0     H 7519   2.478   3.870   1.048 -0.0035 -1.8394  0.6529
   56MOL0     H 7520   2.289   4.165   0.819  2.0710  0.7038  2.7273
   56MOL0     H 7521   1.953   4.230   0.752 -0.5782 -0.3829  1.9029
   56MOL0     H 7522   1.987   4.335   0.883 -1.6690 -0.0358 -1.6522
   56MOL0     H 7523   2.116   4.305   0.761  2.9651 -1.5742  1.4842
   56MOL0     H 7524   1.594   3.959   0.933  1.9823  1.8236 -1.0155
   56MOL0     H 7525   1.357   3.978   0.972  0.5036 -3.4619  0.6350
   56MOL0     H 7526   1.172   4.126   1.046  4.6343 -1.0634 -0.0888
   56MOL0     H 7527   1.147   3.941   1.057 -2.6116 -0.1268 -1.2674
   56MOL0     H 7528   0.995   3.969   1.245 -0.5899 -1.8670 -1.5316
   56MOL0     H 7529   0.998   4.143   1.223 -0.7475  0.1882 -1.0720
   56MOL0     H 7530   0.798   3.990   1.128  1.2127 -1.8619  0.3729
   56MOL0     H 7531   0.912   3.941   1.009  1.7151 -0.5455  1.5047
   56MOL0     H 7532   0.952   4.214   0.988 -0.4811  0.4000 -1.8419
   56MOL0     H 7533   0.831   4.119   0.885  1.6436  2.0101 -1.8724
   56MOL0     H 7534   0.759   4.251   1.141  0.6804 -1.0891  0.0731
   56MOL0     H 7535   0.655   4.150   1.047 -1.1552  0.8662 -1.7926
   56MOL0     H 7536   0.788   4.404   0.935 -0.6035  2.0580 -1.0207
   56MOL0     H 7537   0.683   4.286   0.852  1.0703  0.9709 -0.8338
   56MOL0     H 7538   0.603   4.519   0.963  0.7366 -0.4830  0.5818
   56MOL0     H 7539   0.584   4.429   1.110 -0.8593  1.2406  0.1305
   56MOL0     H 7540   0.371   4.432   1.019 -0.4758  0.8267  0.1326
   56MOL0     H 7541   0.435   4.271   1.011 -0.8510  1.1098  1.2020
   56MOL0     H 7542   1.429   4.118   1.370  0.5373 -0.7877  0.4354
   56MOL0     H 7543   1.680   4.102   1.310 -0.8818  0.4154  0.9497
   56MOL0     H 7544   2.014   3.919   1.140 -2.3399  1.0230 -0.9440
   56MOL0     H 7545   2.221   3.835   1.089 -1.7250 -0.0983  0.5916
   56MOL0     H 7546   3.394   3.027   0.407 -1.0681  0.1215  1.3141
   56MOL0     H 7547   3.647   3.064   0.405 -0.5897  0.1664 -0.7615
   56MOL0     H 7548   4.074   3.177   0.644  0.4053 -2.6978 -1.0462
   56MOL0     H 7549   4.314   3.224   0.601 -1.4836 -0.0358  0.7129
   56MOL0     H 7550   4.604   3.383   0.414  0.9828 -1.7152 -0.4660
   56MOL0     H 7551   4.512   3.344   0.550  0.8090  0.7745 -0.2076
   56MOL0     H 7552   4.619   3.167   0.335 -1.1535 -2.8088 -1.7470
   56MOL0     H 7553   4.481   3.109   0.443 -0.1200  0.5350 -0.5269
   56MOL0     H 7554   4.639   3.114   0.637  0.4977 -1.8301 -0.0001
   56MOL0     H 7555   4.746   3.212   0.537  0.1132 -0.3386  1.0124
   56MOL0     H 7556   4.829   2.963   0.553  1.4513 -1.3904 -0.5258
   56MOL0     H 7557   4.801   3.019   0.392 -0.6132 -0.9692 -0.2777
   56MOL0     H 7558   4.490   2.731   0.437  0.0504  0.2239 -1.5076
   56MOL0     H 7559   4.232   3.409   0.232  1.0187  0.2875  0.5188
   56MOL0     H 7560   3.979   3.377   0.263  0.5205  2.7608 -0.1842
   57MOL0     O 7561   1.699   1.536   3.263  0.4324  0.5931  0.1207
   57MOL0     C 7562   1.750   1.603   3.355  0.7450 -0.2389 -0.4265
   57MOL0     O 7563   1.686   1.656   3.467 -0.4135  0.1718  0.0899
   57MOL0     C 7564   1.551   1.631   3.494 -0.0595 -0.7312 -0.1518
   57MOL0     C 7565   1.456   1.559   3.424 -0.6296 -1.1282  0.3094
   57MOL0     C 7566   1.319   1.555   3.459 -0.1759 -0.4310  0.7621
   57MOL0     C 7567   1.275   1.632   3.571 -0.1949  0.4394 -0.9487
   57MOL0     O 7568   1.140   1.645   3.599 -0.0369 -0.3495  0.3241
   57MOL0     C 7569   1.104   1.776   3.634 -0.2222 -1.0181  0.5472
   57MOL0     C 7570   0.955   1.769   3.651 -0.4063  0.5294 -0.1758
   57MOL0     C 7571   0.910   1.724   3.790  0.1517 -0.7485 -0.6360
   57MOL0     C 7572   0.752   1.747   3.824  0.8121 -0.2080 -0.2539
   57MOL0     C 7573   0.718   1.663   3.957 -0.4405 -0.2684 -0.6959
   57MOL0     C 7574   0.588   1.699   4.027  0.5622 -0.9001  0.7187
   57MOL0     C 7575   0.581   1.693   4.185  0.1858 -1.2184  0.0087
   57MOL0     C 7576   0.553   1.544   4.227 -0.1632  0.2037 -0.2136
   57MOL0     N 7577   0.666   1.450   4.199  0.0337  0.8139  0.0929
   57MOL0     C 7578   0.785   1.451   4.262  0.4985  0.4615 -0.2569
   57MOL0     C 7579   0.850   1.346   4.213  0.2511  0.2730  0.7114
   57MOL0     C 7580   0.981   1.303   4.257 -0.1205  0.3031  0.1045
   57MOL0     C 7581   1.086   1.412   4.218  0.4905  0.3511  0.3637
   57MOL0     C 7582   1.110   1.418   4.062 -0.6002  0.0755 -0.3767
   57MOL0     C 7583   1.226   1.509   4.026  0.3108  0.0973 -0.4611
   57MOL0     O 7584   1.244   1.617   4.117 -0.1872  0.1368  0.3494
   57MOL0     C 7585   1.372   1.662   4.136 -0.1057  0.1535 -0.6894
   57MOL0     C 7586   1.472   1.638   4.040  0.0860 -0.3438 -1.4681
   57MOL0     C 7587   1.598   1.680   4.064  0.2454 -0.3310 -0.8301
   57MOL0     C 7588   1.700   1.662   3.951 -0.6095 -0.0963 -0.5396
   57MOL0     C 7589   1.638   1.735   4.192 -0.5160  0.0388  0.0189
   57MOL0     C 7590   1.768   1.803   4.218  0.7531 -0.1644  0.4873
   57MOL0     O 7591   1.838   1.763   4.335  0.7590  0.3908  0.1633
   57MOL0     C 7592   1.962   1.827   4.353  0.7334  0.5903  0.3154
   57MOL0     C 7593   1.966   1.959   4.409  0.1810  0.9355  1.0786
   57MOL0     C 7594   2.088   2.024   4.428  0.2532 -0.1127 -0.3542
   57MOL0     C 7595   2.210   1.955   4.396 -0.4881  0.5641 -1.1775
   57MOL0     O 7596   2.330   2.031   4.413  0.6204  0.6906  0.1358
   57MOL0     C 7597   2.459   1.963   4.369 -0.5522  0.5568 -0.0489
   57MOL0     C 7598   2.574   2.024   4.446 -0.6028  1.1654 -0.1247
   57MOL0     C 7599   2.715   1.969   4.416 -0.2266  0.6309 -0.0044
   57MOL0     C 7600   2.836   2.029   4.500  0.1658 -0.6969 -0.4074
   57MOL0     C 7601   2.981   2.006   4.448  0.1982 -0.4148  0.1706
   57MOL0     C 7602   3.015   1.857   4.430  0.0424  0.0529  0.0761
   57MOL0     C 7603   3.153   1.841   4.369  0.0952 -0.1455  0.8307
   57MOL0     C 7604   3.270   1.849   4.458 -0.8256 -0.0591 -0.2894
   57MOL0    Cl 7605   3.297   2.003   4.540 -0.0058 -0.0991  0.0714
   57MOL0     C 7606   2.206   1.816   4.359  0.4065 -0.4320  0.0818
   57MOL0     C 7607   2.080   1.762   4.325 -0.0096  0.8662 -0.2603
   57MOL0     O 7608   1.805   1.897   4.142 -0.1757 -0.0624 -0.1808
   57MOL0     C 7609   1.537   1.754   4.288  0.5495 -0.2595  1.1396
   57MOL0     C 7610   1.407   1.720   4.257  1.1719 -0.2295  0.6964
   57MOL0     N 7611   0.765   1.280   4.128  0.2592  0.1973  0.0159
   57MOL0     N 7612   0.651   1.334   4.132 -0.0646 -0.0169  0.2566
   57MOL0     C 7613   1.370   1.698   3.643  0.2212 -0.7781 -0.1503
   57MOL0     C 7614   1.503   1.700   3.609  0.8765  0.3926 -0.2048
   57MOL0     C 7615   1.890   1.640   3.356 -0.6528 -1.0131  0.6794
   57MOL0     C 7616   1.948   1.697   3.474  0.9496 -0.9999 -0.3846
   57MOL0     C 7617   2.081   1.744   3.474 -0.0055  0.3303 -0.2609
   57MOL0     C 7618   2.165   1.709   3.364  0.5959 -0.5481 -0.3672
   57MOL0     O 7619   2.300   1.733   3.357  0.3472 -0.5095  0.0203
   57MOL0     C 7620   2.365   1.807   3.466  0.3708 -0.2896 -0.3514
   57MOL0     C 7621   2.509   1.823   3.436  0.4570  0.2444 -0.0608
   57MOL0     C 7622   2.591   1.694   3.405 -0.3222 -0.2301  0.1153
   57MOL0     C 7623   2.610   1.605   3.525  0.1935  0.3194 -0.2618
   57MOL0     C 7624   2.713   1.507   3.505  1.0326  0.3061  0.7141
   57MOL0     C 7625   2.810   1.435   3.482 -0.3082  0.0253 -0.1943
   57MOL0     C 7626   2.109   1.651   3.247 -0.4477  0.1742 -0.5853
   57MOL0     C 7627   1.976   1.619   3.243 -0.5536 -1.0461  0.1932
   57MOL0     H 7628   1.471   1.523   3.323 -1.1195  0.7382 -0.4601
   57MOL0     H 7629   1.238   1.511   3.402  1.3083 -0.2140 -1.6243
   57MOL0     H 7630   1.151   1.829   3.717  0.2595  2.0143 -1.5094
   57MOL0     H 7631   1.127   1.835   3.545 -0.2647 -0.2051  1.0716
   57MOL0     H 7632   0.918   1.871   3.634 -1.7253 -0.0850 -1.1390
   57MOL0     H 7633   0.918   1.706   3.569  4.0704 -0.1776 -1.9305
   57MOL0     H 7634   0.928   1.617   3.799 -3.9696 -1.5847 -0.5232
   57MOL0     H 7635   0.968   1.781   3.864  0.8241 -0.0051 -1.7147
   57MOL0     H 7636   0.739   1.855   3.839  1.1479 -0.0879 -0.8036
   57MOL0     H 7637   0.696   1.717   3.735 -0.0612  1.0383 -0.1476
   57MOL0     H 7638   0.712   1.555   3.942  3.6471 -1.4776  3.7339
   57MOL0     H 7639   0.804   1.680   4.023  1.0080  2.8501 -3.0811
   57MOL0     H 7640   0.571   1.805   4.005  0.3189 -0.9133  0.8444
   57MOL0     H 7641   0.500   1.647   3.986  1.3527 -0.2407 -2.0302
   57MOL0     H 7642   0.667   1.735   4.238 -1.1301 -1.0289  2.0842
   57MOL0     H 7643   0.494   1.749   4.219 -0.4632 -1.4237 -1.2674
   57MOL0     H 7644   0.465   1.511   4.172  2.0840 -6.1825 -0.8376
   57MOL0     H 7645   0.525   1.548   4.333 -0.5647  3.1411 -0.3520
   57MOL0     H 7646   0.832   1.525   4.327  1.6528 -2.9645  3.1663
   57MOL0     H 7647   0.975   1.298   4.366  0.9449 -2.0918  0.1220
   57MOL0     H 7648   1.004   1.200   4.231  0.7823  0.4820  0.1653
   57MOL0     H 7649   1.183   1.383   4.261  0.9022  2.1798  0.7763
   57MOL0     H 7650   1.066   1.507   4.269  0.2771 -0.1160  1.1811
   57MOL0     H 7651   1.022   1.466   4.019  0.4539  3.0174  0.5350
   57MOL0     H 7652   1.126   1.315   4.028  0.8511 -0.0673  0.6694
   57MOL0     H 7653   1.202   1.547   3.926  1.6625  0.3958 -0.6892
   57MOL0     H 7654   1.313   1.443   4.025 -0.9763 -1.6647 -0.5865
   57MOL0     H 7655   1.459   1.582   3.947 -0.6279 -0.9391 -1.0166
   57MOL0     H 7656   1.728   1.557   3.939 -1.0100 -0.2853  0.1090
   57MOL0     H 7657   1.652   1.699   3.860  0.0012  1.0115 -0.4283
   57MOL0     H 7658   1.799   1.707   3.962  0.7414 -2.6289 -1.5673
   57MOL0     H 7659   1.875   2.019   4.413 -1.1254 -0.8863  0.1830
   57MOL0     H 7660   2.077   2.126   4.462 -1.1141 -0.1916 -0.5324
   57MOL0     H 7661   2.463   1.856   4.389  3.1969  0.3199 -1.2652
   57MOL0     H 7662   2.473   1.971   4.260 -0.3060 -3.1457 -0.4201
   57MOL0     H 7663   2.576   2.133   4.436  2.2888  1.2775  0.7760
   57MOL0     H 7664   2.558   1.998   4.551  0.8635 -4.5711 -0.9664
   57MOL0     H 7665   2.741   2.002   4.315 -3.8206  3.4424 -0.2142
   57MOL0     H 7666   2.710   1.860   4.421 -0.0024  0.5760 -0.8854
   57MOL0     H 7667   2.815   2.135   4.514 -0.5734 -1.3054  5.9495
   57MOL0     H 7668   2.840   1.995   4.604  1.3572 -1.4705 -0.6778
   57MOL0     H 7669   3.048   2.055   4.519  0.1441 -1.0250  0.6514
   57MOL0     H 7670   2.995   2.052   4.350  0.1767  2.2062  1.3063
   57MOL0     H 7671   3.015   1.807   4.527  0.5904 -3.8419 -1.7588
   57MOL0     H 7672   2.942   1.806   4.367 -1.0628  1.3047  0.2880
   57MOL0     H 7673   3.177   1.914   4.290  2.6380 -2.4621 -0.7024
   57MOL0     H 7674   3.145   1.746   4.315  3.1933  0.7332 -1.4901
   57MOL0     H 7675   3.359   1.836   4.395 -0.8830  0.6996 -0.5406
   57MOL0     H 7676   3.263   1.767   4.530  2.6117 -0.4538 -0.2733
   57MOL0     H 7677   2.297   1.758   4.343 -0.6713 -2.5477  1.1884
   57MOL0     H 7678   2.058   1.662   4.287  0.1295  0.2446  1.2050
   57MOL0     H 7679   1.558   1.807   4.381 -0.1080  0.8998  0.6543
   57MOL0     H 7680   1.327   1.734   4.329  1.5415  1.6474  0.7927
   57MOL0     H 7681   1.343   1.748   3.735  2.8123 -0.4620  0.4925
   57MOL0     H 7682   1.577   1.747   3.671  0.1519  2.7270 -1.0051
   57MOL0     H 7683   1.890   1.691   3.566  0.0209  0.7215 -0.8115
   57MOL0     H 7684   2.128   1.794   3.558  1.5870 -1.4077 -0.0677
   57MOL0     H 7685   2.319   1.906   3.474  1.4049  0.1747 -0.0678
   57MOL0     H 7686   2.358   1.765   3.567  2.3491  1.2032  0.4692
   57MOL0     H 7687   2.548   1.861   3.531  1.7976  1.8903 -1.2189
   57MOL0     H 7688   2.533   1.903   3.365 -1.2195  2.1208  1.3375
   57MOL0     H 7689   2.692   1.729   3.382 -0.8590  1.4890  0.2059
   57MOL0     H 7690   2.548   1.637   3.322 -1.4297  1.0097 -0.1871
   57MOL0     H 7691   2.517   1.560   3.561 -1.2908  4.6905  2.0604
   57MOL0     H 7692   2.636   1.668   3.611  1.1249 -2.0857  1.3179
   57MOL0     H 7693   2.898   1.375   3.473  0.7357  1.5556 -0.6161
   57MOL0     H 7694   2.177   1.646   3.162 -1.1372  3.3689 -1.4828
   57MOL0     H 7695   1.933   1.589   3.148 -1.0872  1.3935 -0.4171
   58MOL0     O 7696   8.863   9.274   5.960  0.1800  0.2141  0.0862
   58MOL0     C 7697   8.845   9.379   5.902 -0.5383  0.2213 -1.2431
   58MOL0     O 7698   8.727   9.446   5.887  0.9718 -0.0544 -0.3217
   58MOL0     C 7699   8.619   9.382   5.938  0.5416 -0.3683 -0.2251
   58MOL0     C 7700   8.569   9.401   6.070 -0.3986  0.2352  0.7075
   58MOL0     C 7701   8.459   9.329   6.111  0.9784 -0.7314  0.5496
   58MOL0     C 7702   8.384   9.243   6.026  0.3023  0.1278 -0.3523
   58MOL0     O 7703   8.268   9.182   6.068 -0.2960 -0.2462 -0.1669
   58MOL0     C 7704   8.201   9.094   5.984  0.5431 -0.2230 -0.3341
   58MOL0     C 7705   8.085   9.062   6.068  0.5785  0.0580  0.3488
   58MOL0     C 7706   8.029   8.922   6.022  0.6568 -0.8505  0.3211
   58MOL0     C 7707   7.905   8.892   6.098  0.2834  0.1785  0.1115
   58MOL0     C 7708   7.814   8.803   6.017  0.2609  0.5824 -0.3371
   58MOL0     C 7709   7.691   8.773   6.095 -0.2850 -0.1798 -0.4431
   58MOL0     C 7710   7.589   8.678   6.024 -0.7866  0.2024  0.4388
   58MOL0     C 7711   7.455   8.690   6.101 -0.2032  0.9028 -0.6262
   58MOL0     N 7712   7.359   8.604   6.033 -0.0263  0.2885 -0.4218
   58MOL0     C 7713   7.369   8.474   6.038  0.8213 -0.3746  0.3382
   58MOL0     C 7714   7.253   8.433   5.973 -0.1933 -0.2779  0.1501
   58MOL0     C 7715   7.181   8.297   5.963  0.0983 -0.5479  0.9999
   58MOL0     C 7716   7.079   8.269   6.075 -0.3031  0.0627  0.5189
   58MOL0     C 7717   7.149   8.288   6.212 -0.7393 -0.2564 -0.3815
   58MOL0     C 7718   7.062   8.239   6.332  0.1510 -0.6840 -0.0367
   58MOL0     O 7719   7.069   8.095   6.359  0.4084 -0.4355  0.4528
   58MOL0     C 7720   6.980   8.012   6.294  0.1363  0.4122  0.3831
   58MOL0     C 7721   6.856   8.038   6.227  0.3426  0.3237 -0.0897
   58MOL0     C 7722   6.771   7.942   6.172  0.1560 -0.6465  0.2827
   58MOL0     C 7723   6.662   8.001   6.095 -0.4407  0.6944  0.0309
   58MOL0     C 7724   6.812   7.806   6.170  0.6947  0.5013  0.0646
   58MOL0     C 7725   6.738   7.697   6.102 -0.2544 -0.3948  0.2010
   58MOL0     O 7726   6.807   7.580   6.092 -0.5176 -0.4705  0.0364
   58MOL0     C 7727   6.735   7.466   6.061 -0.9340  0.7165  0.1669
   58MOL0     C 7728   6.717   7.380   6.171 -0.0234 -0.1739 -0.4036
   58MOL0     C 7729   6.644   7.266   6.161  0.6861 -0.5992 -0.6221
   58MOL0     C 7730   6.602   7.212   6.037 -0.0991  0.1926 -0.5276
   58MOL0     O 7731   6.529   7.097   6.016 -0.4366 -0.7525  0.0066
   58MOL0     C 7732   6.442   7.047   6.123  0.5675 -0.0540  0.3531
   58MOL0     C 7733   6.335   6.951   6.063 -0.1684  0.4915  0.2048
   58MOL0     C 7734   6.209   7.030   6.025 -0.9988  0.5586  0.2319
   58MOL0     C 7735   6.101   6.933   5.968 -0.0898 -0.7695  0.1853
   58MOL0     C 7736   6.020   7.002   5.867  0.5423  0.0462  0.2038
   58MOL0     C 7737   5.933   6.900   5.764 -0.0992 -0.1657 -0.1551
   58MOL0     C 7738   5.833   6.811   5.840 -0.4555  0.0045 -0.3073
   58MOL0     C 7739   5.730   6.737   5.741  0.4222 -0.5067 -0.5809
   58MOL0    Cl 7740   5.602   6.854   5.673 -0.1634  0.2987  0.2838
   58MOL0     C 7741   6.629   7.297   5.930 -0.2713  0.6842  0.2471
   58MOL0     C 7742   6.702   7.420   5.937 -0.2605 -0.2039  0.3385
   58MOL0     O 7743   6.627   7.718   6.058 -0.0994 -0.1313 -0.2291
   58MOL0     C 7744   6.931   7.780   6.234  0.3849 -1.3428 -0.0082
   58MOL0     C 7745   7.011   7.880   6.291 -0.7649  0.3367 -0.0025
   58MOL0     N 7746   7.183   8.550   5.929  0.3496 -0.3167 -0.7444
   58MOL0     N 7747   7.244   8.645   5.978  0.0185 -0.4838 -0.2812
   58MOL0     C 7748   8.423   9.237   5.891  0.2386  0.8040 -0.0174
   58MOL0     C 7749   8.541   9.307   5.848  0.6317  0.1842 -0.1347
   58MOL0     C 7750   8.958   9.442   5.834  0.4527  0.0632  0.0273
   58MOL0     C 7751   8.957   9.579   5.800 -0.0132  0.9582 -0.4778
   58MOL0     C 7752   9.067   9.638   5.724  0.3315 -0.5968  0.1972
   58MOL0     C 7753   9.170   9.553   5.677  0.7598  0.0855  0.2685
   58MOL0     O 7754   9.266   9.592   5.589  0.1381  0.4679 -0.0103
   58MOL0     C 7755   9.295   9.731   5.545  0.3884  0.7104  0.2923
   58MOL0     C 7756   9.450   9.754   5.515 -0.5445  0.3875  0.1889
   58MOL0     C 7757   9.482   9.892   5.467 -0.4857 -1.1026  0.1233
   58MOL0     C 7758   9.465   9.918   5.315 -0.4042 -0.4458 -0.1317
   58MOL0     C 7759   9.501  10.060   5.300 -0.3419  1.6401 -0.0246
   58MOL0     C 7760   9.536  10.174   5.308 -0.2242  0.1217  0.4543
   58MOL0     C 7761   9.167   9.423   5.717  0.4729  0.5017 -0.7217
   58MOL0     C 7762   9.065   9.365   5.791  0.9450  0.5893  0.4200
   58MOL0     H 7763   8.619   9.472   6.135  0.6893 -0.1983  0.3715
   58MOL0     H 7764   8.428   9.349   6.213 -2.5696 -0.4801 -0.4681
   58MOL0     H 7765   8.182   9.152   5.894 -0.5759 -0.2571 -0.1264
   58MOL0     H 7766   8.251   9.001   5.954  0.2925 -0.5572  0.2732
   58MOL0     H 7767   8.086   9.076   6.176 -3.4563  0.6801  0.4552
   58MOL0     H 7768   8.004   9.129   6.036  1.8220  2.3806  1.7751
   58MOL0     H 7769   8.002   8.922   5.916 -0.0220  0.8373  0.4654
   58MOL0     H 7770   8.099   8.840   6.043 -0.9703 -2.1358  0.9835
   58MOL0     H 7771   7.923   8.839   6.192 -4.4777 -2.0905  0.0509
   58MOL0     H 7772   7.846   8.983   6.111 -1.0304 -0.5885 -0.3017
   58MOL0     H 7773   7.782   8.851   5.923 -1.6750 -1.1145 -0.6175
   58MOL0     H 7774   7.876   8.715   5.999  1.6045  1.1266  1.3892
   58MOL0     H 7775   7.699   8.744   6.200 -3.9569 -0.3542 -0.0602
   58MOL0     H 7776   7.641   8.871   6.102 -0.3992 -0.2805  0.2993
   58MOL0     H 7777   7.578   8.725   5.926  1.4905 -1.4554 -0.7115
   58MOL0     H 7778   7.628   8.576   6.020  3.2391  1.6092 -1.5440
   58MOL0     H 7779   7.419   8.793   6.094 -2.5829 -0.0033 -3.2955
   58MOL0     H 7780   7.471   8.658   6.205 -0.4883  1.0737 -0.5288
   58MOL0     H 7781   7.454   8.423   6.082 -0.3847 -1.4900  1.4667
   58MOL0     H 7782   7.131   8.295   5.866 -0.3357  0.9119  1.1586
   58MOL0     H 7783   7.262   8.225   5.956 -1.0734 -1.9515  1.3073
   58MOL0     H 7784   7.039   8.170   6.053 -3.8664  1.6016 -0.5921
   58MOL0     H 7785   6.994   8.337   6.067  0.0244  0.3148 -0.9606
   58MOL0     H 7786   7.165   8.395   6.228 -0.4705  0.2447 -3.4461
   58MOL0     H 7787   7.242   8.231   6.206 -0.1154  0.7756 -0.7518
   58MOL0     H 7788   6.963   8.282   6.317  0.7328  0.6868 -0.0990
   58MOL0     H 7789   7.104   8.294   6.417 -2.0373  0.8766  0.1136
   58MOL0     H 7790   6.816   8.139   6.220 -1.7926 -0.5931 -3.6061
   58MOL0     H 7791   6.646   8.109   6.092 -0.2515  0.7608  1.0069
   58MOL0     H 7792   6.686   7.973   5.992 -1.2842  1.2704 -0.3347
   58MOL0     H 7793   6.566   7.953   6.113 -1.0373 -0.4535 -4.7771
   58MOL0     H 7794   6.750   7.417   6.267  0.3993  0.7274 -0.8761
   58MOL0     H 7795   6.624   7.223   6.258  1.8333  2.0007  0.8643
   58MOL0     H 7796   6.506   6.998   6.197  1.2796  2.4958  1.5390
   58MOL0     H 7797   6.392   7.122   6.184  1.2723  0.2978  0.4956
   58MOL0     H 7798   6.382   6.901   5.978  0.2755 -1.2381  1.4038
   58MOL0     H 7799   6.304   6.877   6.137 -0.2978 -1.6061 -1.8241
   58MOL0     H 7800   6.241   7.101   5.948  3.1951 -1.3340 -0.0000
   58MOL0     H 7801   6.159   7.091   6.101  0.2944  2.3527 -0.2689
   58MOL0     H 7802   6.137   6.833   5.944 -2.7564 -1.2696 -2.3102
   58MOL0     H 7803   6.024   6.935   6.047 -1.0157  1.8000 -0.6506
   58MOL0     H 7804   6.088   7.059   5.803 -1.4035 -0.8918 -2.9614
   58MOL0     H 7805   5.945   7.072   5.905  0.0340  0.8003 -2.0104
   58MOL0     H 7806   5.874   6.965   5.698  2.7804  1.4931 -1.3020
   58MOL0     H 7807   6.004   6.844   5.702  0.4483  0.9783 -0.6187
   58MOL0     H 7808   5.774   6.869   5.912  0.8994 -1.0553  1.7578
   58MOL0     H 7809   5.887   6.733   5.895  0.0967  1.8584  1.9773
   58MOL0     H 7810   5.677   6.664   5.803 -1.1610  2.3134  1.6995
   58MOL0     H 7811   5.773   6.684   5.656 -2.3593 -1.6293 -1.3763
   58MOL0     H 7812   6.608   7.253   5.833 -1.7451  0.1886  0.7567
   58MOL0     H 7813   6.722   7.477   5.847  0.6530  2.8456  2.3531
   58MOL0     H 7814   6.961   7.678   6.256  1.9068 -0.9670 -0.2087
   58MOL0     H 7815   7.104   7.850   6.338 -1.2623  0.8096  1.3415
   58MOL0     H 7816   8.374   9.174   5.817  0.4745 -0.4053  0.8167
   58MOL0     H 7817   8.571   9.288   5.745 -1.5112  0.6999 -0.9002
   58MOL0     H 7818   8.881   9.647   5.835  1.6519  3.1057 -0.7938
   58MOL0     H 7819   9.054   9.739   5.687  1.8287 -1.2402 -2.2775
   58MOL0     H 7820   9.228   9.768   5.467  0.2371  1.9139  0.9622
   58MOL0     H 7821   9.285   9.799   5.631 -2.2822  2.1813 -1.0606
   58MOL0     H 7822   9.489   9.677   5.448  1.9051 -0.1164  2.0348
   58MOL0     H 7823   9.503   9.724   5.606  1.5994 -0.0592 -1.1369
   58MOL0     H 7824   9.586   9.915   5.494 -0.4236 -1.4088  0.1404
   58MOL0     H 7825   9.416   9.966   5.513 -1.0139 -2.0227  0.8743
   58MOL0     H 7826   9.362   9.910   5.278 -1.3540 -1.6189  2.5174
   58MOL0     H 7827   9.540   9.856   5.265  1.2962 -1.0871  2.9358
   58MOL0     H 7828   9.568  10.273   5.334  1.3626  0.3592 -2.0259
   58MOL0     H 7829   9.241   9.364   5.664 -1.9156 -3.2279 -0.3171
   58MOL0     H 7830   9.076   9.259   5.810 -2.7513  0.0474  0.1155
   59MOL0     O 7831   1.295   2.272  11.263  0.0595 -0.7929 -0.4696
   59MOL0     C 7832   1.320   2.153  11.288  0.1579  0.3429 -0.5717
   59MOL0     O 7833   1.232   2.056  11.313  0.4395 -0.2066 -0.0316
   59MOL0     C 7834   1.100   2.082  11.325  0.0197  0.5532  0.3999
   59MOL0     C 7835   1.012   2.004  11.254 -0.0831  0.5232  0.3923
   59MOL0     C 7836   0.869   2.013  11.269 -1.0905 -0.9020 -0.8620
   59MOL0     C 7837   0.821   2.091  11.371 -0.6372 -0.0742  0.0788
   59MOL0     O 7838   0.687   2.094  11.383  0.7664  0.1307  0.0277
   59MOL0     C 7839   0.636   2.030  11.500  0.7603  0.4417 -1.2686
   59MOL0     C 7840   0.488   2.044  11.506  0.5030 -0.5996 -0.2314
   59MOL0     C 7841   0.408   1.926  11.449  0.5410  0.4808 -0.4820
   59MOL0     C 7842   0.269   1.981  11.399  0.1769 -0.4091  0.1579
   59MOL0     C 7843   0.179   1.868  11.345  0.8894  0.0450 -0.7959
   59MOL0     C 7844   0.035   1.902  11.346 -0.1309  0.8310 -0.3424
   59MOL0     C 7845  -0.034   1.788  11.283  0.3060 -0.1399  0.2156
   59MOL0     C 7846  -0.182   1.826  11.277 -0.7100  0.0341 -0.2795
   59MOL0     N 7847  -0.262   1.713  11.223 -0.2840  1.1074 -0.0368
   59MOL0     C 7848  -0.291   1.592  11.288  0.3467 -0.4424  0.5378
   59MOL0     C 7849  -0.380   1.533  11.213 -0.2023  0.8483  0.2454
   59MOL0     C 7850  -0.464   1.409  11.258  1.0093 -0.3368  0.0941
   59MOL0     C 7851  -0.616   1.443  11.254 -0.6400 -0.1228  0.3972
   59MOL0     C 7852  -0.656   1.523  11.384 -0.2550  0.8870  0.1748
   59MOL0     C 7853  -0.812   1.528  11.413  0.4472  0.2369  0.2468
   59MOL0     O 7854  -0.862   1.398  11.431 -0.1357 -0.1522  0.1537
   59MOL0     C 7855  -0.994   1.382  11.471  1.1306 -0.0327 -0.2005
   59MOL0     C 7856  -1.036   1.261  11.525  0.2268 -0.7691 -0.6191
   59MOL0     C 7857  -1.163   1.237  11.582  0.2785  0.2963 -0.0555
   59MOL0     C 7858  -1.181   1.117  11.668 -0.3189  0.6456 -0.0177
   59MOL0     C 7859  -1.266   1.327  11.554  0.5532  0.0895  1.4391
   59MOL0     C 7860  -1.416   1.322  11.590 -0.4652 -0.4804 -0.0223
   59MOL0     O 7861  -1.494   1.363  11.487  0.3914  0.0981 -0.5794
   59MOL0     C 7862  -1.626   1.389  11.512  0.6075  0.5867  0.0565
   59MOL0     C 7863  -1.709   1.304  11.575  0.0212 -0.7382 -0.0713
   59MOL0     C 7864  -1.838   1.340  11.606 -0.8458 -0.6631 -0.2103
   59MOL0     C 7865  -1.889   1.467  11.568  0.3613 -0.2356 -0.5126
   59MOL0     O 7866  -2.017   1.519  11.587 -0.0415  0.5797  0.3286
   59MOL0     C 7867  -2.098   1.454  11.681 -0.7732  0.6526 -0.5459
   59MOL0     C 7868  -2.213   1.548  11.710 -0.3628 -0.4284  0.0509
   59MOL0     C 7869  -2.318   1.553  11.598 -1.1513  0.0335  0.3874
   59MOL0     C 7870  -2.449   1.596  11.656  0.2590  0.0333 -0.1092
   59MOL0     C 7871  -2.539   1.631  11.540  0.5058  0.4124 -0.6251
   59MOL0     C 7872  -2.686   1.646  11.583  0.7461  0.4532  0.5522
   59MOL0     C 7873  -2.772   1.691  11.462  0.0008  0.2056  0.3705
   59MOL0     C 7874  -2.914   1.652  11.492  0.3925  0.4952  0.4200
   59MOL0    Cl 7875  -2.978   1.739  11.635  0.0251 -0.2675  0.0584
   59MOL0     C 7876  -1.803   1.557  11.498  0.0148 -0.4275 -0.6675
   59MOL0     C 7877  -1.674   1.510  11.475  0.8977 -0.4271  0.6534
   59MOL0     O 7878  -1.449   1.289  11.702  0.3972 -0.6457  0.2682
   59MOL0     C 7879  -1.228   1.445  11.494  1.7233 -0.7282  0.3541
   59MOL0     C 7880  -1.099   1.476  11.457 -0.6271  0.9405 -0.5288
   59MOL0     N 7881  -0.407   1.611  11.099  0.2963 -0.1989  0.0489
   59MOL0     N 7882  -0.322   1.709  11.106 -0.2094  0.4887 -0.6890
   59MOL0     C 7883   0.912   2.169  11.446  0.3326  0.7693 -0.4035
   59MOL0     C 7884   1.048   2.168  11.420 -0.4833 -0.4208 -0.1591
   59MOL0     C 7885   1.468   2.113  11.284 -0.9447  0.3308 -0.6880
   59MOL0     C 7886   1.564   2.214  11.264 -0.1084  0.0645 -0.1251
   59MOL0     C 7887   1.701   2.186  11.263  0.0257 -0.3896  0.2872
   59MOL0     C 7888   1.746   2.055  11.288  0.0089 -0.1945 -0.6566
   59MOL0     O 7889   1.867   2.023  11.317 -0.5526  0.5582  0.4445
   59MOL0     C 7890   1.940   1.976  11.198  1.6320 -0.2816 -0.0620
   59MOL0     C 7891   2.054   2.072  11.163  0.1522  0.1824 -0.6903
   59MOL0     C 7892   2.159   2.058  11.277 -0.0509  0.7786 -0.7015
   59MOL0     C 7893   2.286   2.141  11.242  0.1077 -1.2162  1.0121
   59MOL0     C 7894   2.389   2.134  11.359 -0.2426  0.1920  0.5231
   59MOL0     C 7895   2.473   2.110  11.441  0.3622 -1.3681 -0.1847
   59MOL0     C 7896   1.650   1.954  11.301  0.1205  0.6517  0.6292
   59MOL0     C 7897   1.520   1.984  11.292  0.5081 -0.0853 -0.9565
   59MOL0     H 7898   1.052   1.944  11.173 -0.3210 -0.3556  0.9192
   59MOL0     H 7899   0.800   1.964  11.201 -0.3575 -0.0924 -2.2401
   59MOL0     H 7900   0.661   1.924  11.494  0.1768  0.3072 -1.4410
   59MOL0     H 7901   0.677   2.073  11.591 -1.1946 -3.4909  1.7617
   59MOL0     H 7902   0.456   2.045  11.611  1.9465 -2.0152  0.2648
   59MOL0     H 7903   0.459   2.141  11.464 -0.7641 -0.4794  0.8495
   59MOL0     H 7904   0.459   1.869  11.370 -2.9962 -2.7787 -0.6915
   59MOL0     H 7905   0.385   1.857  11.531  0.9052  0.9786  0.0448
   59MOL0     H 7906   0.225   2.033  11.484 -0.8275  1.2558 -1.3020
   59MOL0     H 7907   0.291   2.059  11.325 -2.4066  0.1513 -0.1318
   59MOL0     H 7908   0.208   1.852  11.241 -0.4323  0.5086 -1.2555
   59MOL0     H 7909   0.196   1.774  11.398  2.0060  1.5449  1.6885
   59MOL0     H 7910   0.008   1.900  11.453  0.5651 -0.2566 -0.1701
   59MOL0     H 7911   0.010   1.999  11.303  1.0590  0.2057 -2.5759
   59MOL0     H 7912   0.007   1.753  11.188  0.1815 -2.8264  1.0716
   59MOL0     H 7913  -0.021   1.710  11.358  0.0934  1.2312  1.7327
   59MOL0     H 7914  -0.176   1.907  11.203  2.7271 -0.9943 -1.3178
   59MOL0     H 7915  -0.219   1.858  11.375  3.5029  0.9563  1.2146
   59MOL0     H 7916  -0.273   1.563  11.391  0.0118 -2.2413  0.1221
   59MOL0     H 7917  -0.464   1.330  11.182 -0.8937  1.4101 -1.8671
   59MOL0     H 7918  -0.436   1.381  11.360 -4.4209 -0.0340  1.9700
   59MOL0     H 7919  -0.675   1.351  11.259 -1.7962  0.2661 -3.0582
   59MOL0     H 7920  -0.653   1.498  11.167 -0.4400  1.2780  1.1692
   59MOL0     H 7921  -0.630   1.628  11.366  0.4255  0.5605 -0.8389
   59MOL0     H 7922  -0.597   1.484  11.468  0.2802 -0.8409 -0.9590
   59MOL0     H 7923  -0.865   1.581  11.333  2.7115  0.3773 -1.2635
   59MOL0     H 7924  -0.836   1.587  11.502  1.6652  0.9590  0.1179
   59MOL0     H 7925  -0.958   1.191  11.551  0.1321 -1.1049 -1.2266
   59MOL0     H 7926  -1.127   1.034  11.621 -0.6062  1.1183 -1.2168
   59MOL0     H 7927  -1.128   1.126  11.764 -4.2918 -2.2739  2.7725
   59MOL0     H 7928  -1.284   1.085  11.689  0.1480 -2.0979 -1.3715
   59MOL0     H 7929  -1.676   1.205  11.606  1.5290 -0.4127 -0.5466
   59MOL0     H 7930  -1.895   1.278  11.673  0.5243  1.6924  3.4345
   59MOL0     H 7931  -2.121   1.358  11.635  1.8731 -0.3288 -0.0104
   59MOL0     H 7932  -2.048   1.438  11.777 -2.4417  0.4408  0.3272
   59MOL0     H 7933  -2.269   1.507  11.794 -4.0097  1.1892 -1.3652
   59MOL0     H 7934  -2.176   1.650  11.724 -2.6783  0.5513 -0.5579
   59MOL0     H 7935  -2.324   1.463  11.536  1.3427  1.3465 -1.9899
   59MOL0     H 7936  -2.283   1.625  11.523 -1.0546 -1.3034 -0.8909
   59MOL0     H 7937  -2.499   1.513  11.707 -0.8004 -0.4997 -1.9413
   59MOL0     H 7938  -2.437   1.671  11.735  4.1091 -0.3570 -0.1550
   59MOL0     H 7939  -2.544   1.549  11.468 -3.2657 -0.2496  0.1653
   59MOL0     H 7940  -2.506   1.723  11.490  1.9733  1.0694  1.3984
   59MOL0     H 7941  -2.714   1.542  11.604  0.0712  0.4440 -0.3789
   59MOL0     H 7942  -2.698   1.709  11.672 -0.1960 -1.0053  1.5078
   59MOL0     H 7943  -2.733   1.637  11.376  1.5300  0.3175  0.9466
   59MOL0     H 7944  -2.764   1.799  11.446 -3.6966  0.4134 -0.9596
   59MOL0     H 7945  -2.924   1.545  11.507 -0.9201  0.4059 -0.8619
   59MOL0     H 7946  -2.975   1.666  11.402 -1.7704  0.8199  1.8374
   59MOL0     H 7947  -1.830   1.658  11.471 -1.1109 -1.1108 -2.2909
   59MOL0     H 7948  -1.606   1.578  11.424 -1.0692 -0.1168 -1.7230
   59MOL0     H 7949  -1.296   1.529  11.484  2.3149 -0.3071 -0.2496
   59MOL0     H 7950  -1.071   1.572  11.414 -0.4259  1.2652  0.3225
   59MOL0     H 7951   0.867   2.232  11.522  1.8546 -0.0052  1.1803
   59MOL0     H 7952   1.119   2.228  11.477 -0.3832  0.9997 -1.7109
   59MOL0     H 7953   1.522   2.314  11.251 -1.0288 -0.5989 -3.0669
   59MOL0     H 7954   1.775   2.265  11.258 -1.2869  1.0488  2.3859
   59MOL0     H 7955   1.966   1.870  11.204 -1.3051 -1.2147 -1.9069
   59MOL0     H 7956   1.881   1.974  11.106 -2.8009  0.8294  2.4757
   59MOL0     H 7957   2.022   2.176  11.149 -0.5277  0.2540  1.1299
   59MOL0     H 7958   2.099   2.043  11.068  1.6839 -1.9883  0.6254
   59MOL0     H 7959   2.174   1.950  11.285 -0.9671  0.0483 -5.5685
   59MOL0     H 7960   2.119   2.096  11.371 -0.2950 -0.2377 -0.3814
   59MOL0     H 7961   2.252   2.244  11.226  1.8911 -0.8254 -0.7469
   59MOL0     H 7962   2.334   2.108  11.149 -1.0942  2.5672 -1.1696
   59MOL0     H 7963   2.535   2.080  11.523  0.7759 -0.8788 -0.3088
   59MOL0     H 7964   1.685   1.852  11.313  1.5287  0.8810 -0.9728
   59MOL0     H 7965   1.443   1.907  11.289 -1.9535  2.2406 -2.2779
   60MOL0     O 7966   6.396   6.310   1.821 -0.3105  1.3157  0.4807
   60MOL0     C 7967   6.410   6.418   1.877  0.7188 -0.2376 -0.0375
   60MOL0     O 7968   6.304   6.501   1.908 -0.3772 -0.4908  0.1890
   60MOL0     C 7969   6.177   6.447   1.901  0.2453 -0.5943  0.5072
   60MOL0     C 7970   6.107   6.460   1.783 -0.2743  0.1606 -0.3727
   60MOL0     C 7971   5.985   6.396   1.771  0.4359  0.0444  0.1767
   60MOL0     C 7972   5.918   6.333   1.874 -0.1283  0.0461  0.0112
   60MOL0     O 7973   5.795   6.274   1.852  0.2455 -0.4550  0.3788
   60MOL0     C 7974   5.772   6.138   1.902  0.3720 -0.3278  1.1560
   60MOL0     C 7975   5.652   6.050   1.838 -0.2134 -0.5857 -0.2233
   60MOL0     C 7976   5.572   5.981   1.947 -0.0104 -0.5360 -0.4625
   60MOL0     C 7977   5.675   5.885   2.020 -0.0117  0.3703 -0.7834
   60MOL0     C 7978   5.610   5.781   2.099  0.0213  0.0127 -0.3476
   60MOL0     C 7979   5.705   5.679   2.160 -0.4002  0.0340  0.6034
   60MOL0     C 7980   5.622   5.572   2.235 -0.2260  0.5169 -0.3537
   60MOL0     C 7981   5.719   5.466   2.306  0.2205  0.3661  0.0293
   60MOL0     N 7982   5.782   5.516   2.430  0.7064 -0.8050  0.9012
   60MOL0     C 7983   5.729   5.541   2.557 -0.2506 -0.2155  0.0902
   60MOL0     C 7984   5.832   5.604   2.616  0.7820  0.0337  0.7601
   60MOL0     C 7985   5.828   5.672   2.752 -0.2316  0.6127 -0.0351
   60MOL0     C 7986   5.730   5.785   2.757  0.6410 -0.0131  0.0393
   60MOL0     C 7987   5.595   5.749   2.820 -0.0302  0.3214 -0.3653
   60MOL0     C 7988   5.492   5.844   2.765  0.4404 -0.3066  0.0892
   60MOL0     O 7989   5.465   5.829   2.625  0.0917 -0.5967  0.6128
   60MOL0     C 7990   5.363   5.752   2.583  0.3672  0.3301  0.6315
   60MOL0     C 7991   5.300   5.654   2.665 -0.2631  0.1736  0.1437
   60MOL0     C 7992   5.194   5.579   2.608  0.3518 -0.3333 -0.2195
   60MOL0     C 7993   5.138   5.478   2.711  0.3525  0.0590 -0.1483
   60MOL0     C 7994   5.146   5.595   2.472 -0.3818 -0.2746 -0.5265
   60MOL0     C 7995   5.036   5.524   2.413 -0.5039  0.4461 -0.0540
   60MOL0     O 7996   4.944   5.480   2.491 -0.2005 -0.1713  0.6370
   60MOL0     C 7997   4.832   5.407   2.450 -0.2416 -0.5934  0.2986
   60MOL0     C 7998   4.812   5.339   2.325  0.9553 -0.5667  0.7072
   60MOL0     C 7999   4.697   5.275   2.289  0.1630  0.2180 -0.3587
   60MOL0     C 8000   4.587   5.277   2.382 -1.0016  0.7809 -0.3205
   60MOL0     O 8001   4.460   5.242   2.351  0.0708  0.0981 -0.7530
   60MOL0     C 8002   4.428   5.214   2.212 -0.1210  0.1744 -0.4107
   60MOL0     C 8003   4.282   5.167   2.204 -1.3452 -0.2134  0.2732
   60MOL0     C 8004   4.250   5.092   2.065  0.1180  0.1203 -0.6516
   60MOL0     C 8005   4.269   5.192   1.944  0.0216  0.4254  0.0870
   60MOL0     C 8006   4.182   5.314   1.946  0.0551  0.1529 -0.0913
   60MOL0     C 8007   4.208   5.409   1.830 -0.2603 -0.2284  0.5136
   60MOL0     C 8008   4.140   5.547   1.832 -0.4352  0.3206 -0.2942
   60MOL0     C 8009   4.190   5.641   1.938  0.8580  0.0299 -0.0273
   60MOL0    Cl 8010   4.348   5.716   1.899 -0.3516 -0.0266 -0.2867
   60MOL0     C 8011   4.607   5.337   2.509  0.1174 -0.2954  0.0244
   60MOL0     C 8012   4.727   5.395   2.542  0.1705 -0.2306  0.5460
   60MOL0     O 8013   5.054   5.496   2.294  0.7807  0.3906 -0.2515
   60MOL0     C 8014   5.208   5.698   2.402 -0.1967 -0.6915 -0.3559
   60MOL0     C 8015   5.313   5.779   2.455  0.0731 -0.1654 -0.7480
   60MOL0     N 8016   5.945   5.593   2.543  0.2699  0.5992 -0.2223
   60MOL0     N 8017   5.908   5.563   2.425  0.9209 -0.4812 -0.3814
   60MOL0     C 8018   5.986   6.321   1.990 -0.2954  0.0727 -0.4053
   60MOL0     C 8019   6.116   6.379   2.008  0.0111  0.9362  0.4633
   60MOL0     C 8020   6.547   6.459   1.899 -0.4150 -0.7900  0.6654
   60MOL0     C 8021   6.581   6.593   1.943  0.2059  0.1928  0.3470
   60MOL0     C 8022   6.714   6.634   1.964  0.4981  0.8766 -0.0860
   60MOL0     C 8023   6.817   6.534   1.942 -0.1137 -0.8830 -0.1632
   60MOL0     O 8024   6.953   6.555   1.957  0.3565  0.0194 -0.3363
   60MOL0     C 8025   7.003   6.680   1.984  0.2213  0.4965 -1.1030
   60MOL0     C 8026   7.154   6.669   2.035 -0.0774  0.4383 -0.2962
   60MOL0     C 8027   7.201   6.813   2.066 -0.1739  0.1622  0.0553
   60MOL0     C 8028   7.353   6.828   2.050  0.0706  0.2025 -0.4819
   60MOL0     C 8029   7.407   6.953   2.107 -1.0456  1.0414  0.7483
   60MOL0     C 8030   7.468   7.036   2.170  0.1637 -0.4782 -0.3597
   60MOL0     C 8031   6.785   6.408   1.900 -0.7187  0.5532  0.9606
   60MOL0     C 8032   6.656   6.367   1.879 -0.1065  0.1854 -0.4092
   60MOL0     H 8033   6.156   6.499   1.695 -0.3150 -0.5248 -0.7122
   60MOL0     H 8034   5.930   6.407   1.678  1.7899  1.0621 -0.5320
   60MOL0     H 8035   5.862   6.078   1.881 -0.8173 -1.3307 -1.5558
   60MOL0     H 8036   5.756   6.149   2.010  0.7522  2.6995  0.9843
   60MOL0     H 8037   5.579   6.121   1.797  1.3110  1.8206  0.9874
   60MOL0     H 8038   5.693   5.982   1.763  1.0146  0.5009 -0.5750
   60MOL0     H 8039   5.527   6.051   2.017 -0.7697 -2.6399  1.2842
   60MOL0     H 8040   5.486   5.929   1.903  0.4131 -0.3163 -1.6014
   60MOL0     H 8041   5.749   5.850   1.947  0.0352  0.2162 -0.6638
   60MOL0     H 8042   5.746   5.941   2.083  3.1559 -3.4597 -0.5894
   60MOL0     H 8043   5.542   5.832   2.169  0.8925  2.3757 -1.1212
   60MOL0     H 8044   5.551   5.718   2.032  0.0578 -0.7405  0.3079
   60MOL0     H 8045   5.780   5.637   2.092  1.1197  0.4524  1.9472
   60MOL0     H 8046   5.764   5.743   2.227  0.9214  0.3659 -0.8317
   60MOL0     H 8047   5.556   5.610   2.314  1.2383 -2.9651  2.8493
   60MOL0     H 8048   5.566   5.523   2.155 -5.4733  0.4329  2.9040
   60MOL0     H 8049   5.793   5.435   2.232 -0.7758 -1.9548 -0.0839
   60MOL0     H 8050   5.656   5.386   2.346  2.7799 -0.1571  3.4849
   60MOL0     H 8051   5.626   5.554   2.587  0.5117  2.0283  2.0029
   60MOL0     H 8052   5.806   5.599   2.831  0.9740  0.8288  0.5191
   60MOL0     H 8053   5.928   5.711   2.775  0.3369 -1.4532  1.1978
   60MOL0     H 8054   5.714   5.829   2.658 -1.7638  3.2667  1.7034
   60MOL0     H 8055   5.776   5.860   2.821  0.4128  0.7084 -0.6260
   60MOL0     H 8056   5.593   5.760   2.929 -2.6164 -0.6995 -0.2399
   60MOL0     H 8057   5.553   5.651   2.796 -2.7335  1.3129 -0.0404
   60MOL0     H 8058   5.524   5.948   2.778  0.3239 -0.0786 -1.2785
   60MOL0     H 8059   5.390   5.840   2.803 -0.4091  2.0548 -1.6801
   60MOL0     H 8060   5.329   5.636   2.768 -1.4125  0.7139  0.5816
   60MOL0     H 8061   5.080   5.393   2.673 -1.7293 -0.1836  3.1364
   60MOL0     H 8062   5.229   5.438   2.757 -1.7683 -0.4714  4.1440
   60MOL0     H 8063   5.065   5.527   2.776  1.1185  0.6760  0.2503
   60MOL0     H 8064   4.884   5.346   2.244  1.5382 -2.5883  1.0020
   60MOL0     H 8065   4.684   5.227   2.193 -1.9028 -0.6096  0.2787
   60MOL0     H 8066   4.435   5.304   2.151  0.7365 -0.3559 -1.1178
   60MOL0     H 8067   4.486   5.128   2.177  1.4052  1.5226 -1.3163
   60MOL0     H 8068   4.264   5.102   2.290  0.5923  1.9181  2.4299
   60MOL0     H 8069   4.215   5.254   2.211 -0.8787  0.4714 -2.4674
   60MOL0     H 8070   4.152   5.045   2.074  0.6231 -0.9900 -0.8053
   60MOL0     H 8071   4.319   5.012   2.039 -2.0781 -1.6477 -1.3069
   60MOL0     H 8072   4.370   5.232   1.933  0.6336 -1.1396 -0.3106
   60MOL0     H 8073   4.252   5.135   1.852  0.1166  0.2804  0.1575
   60MOL0     H 8074   4.195   5.369   2.040  0.1119 -0.9108  0.5418
   60MOL0     H 8075   4.075   5.295   1.934 -0.1246  1.1710 -0.2159
   60MOL0     H 8076   4.314   5.431   1.818 -0.3178  0.3351  1.0241
   60MOL0     H 8077   4.170   5.356   1.742 -2.6694 -1.7429  2.3288
   60MOL0     H 8078   4.036   5.532   1.861  0.4869 -0.9810  2.7234
   60MOL0     H 8079   4.138   5.599   1.735  0.9266  0.6262 -0.1836
   60MOL0     H 8080   4.193   5.603   2.041  0.5690 -2.6936 -0.9659
   60MOL0     H 8081   4.118   5.724   1.940  0.4421 -0.3258  0.0873
   60MOL0     H 8082   4.519   5.333   2.571  0.1057 -1.5626 -0.0625
   60MOL0     H 8083   4.740   5.455   2.633  2.5935  0.0019  0.1272
   60MOL0     H 8084   5.174   5.719   2.301  0.1995 -0.0556 -0.3656
   60MOL0     H 8085   5.358   5.856   2.394 -0.6170  1.5178  0.8034
   60MOL0     H 8086   5.939   6.270   2.073 -0.8056  2.8433  1.1123
   60MOL0     H 8087   6.171   6.378   2.101  0.5503 -2.7056  0.2438
   60MOL0     H 8088   6.502   6.667   1.942  1.3791  1.6225 -2.9431
   60MOL0     H 8089   6.740   6.728   2.013  1.5598 -0.1409  1.4035
   60MOL0     H 8090   7.009   6.744   1.896 -0.0545  0.8525 -0.8683
   60MOL0     H 8091   6.942   6.730   2.061  0.8665 -3.2739  2.1897
   60MOL0     H 8092   7.224   6.633   1.959 -0.4565  0.9561 -0.9042
   60MOL0     H 8093   7.164   6.605   2.123 -0.3059  1.0552  0.1917
   60MOL0     H 8094   7.176   6.840   2.169 -0.2914  1.1966 -0.2343
   60MOL0     H 8095   7.158   6.885   1.997  0.2824  0.0127 -0.3838
   60MOL0     H 8096   7.374   6.829   1.943 -1.9437 -1.2996 -0.9533
   60MOL0     H 8097   7.401   6.749   2.109 -1.3009  1.1338  2.0500
   60MOL0     H 8098   7.526   7.106   2.227  0.4617 -0.1412 -1.0765
   60MOL0     H 8099   6.862   6.333   1.887  0.6360  2.1742 -0.8891
   60MOL0     H 8100   6.629   6.267   1.847  1.1729 -0.7473  1.2536
   61MOL0     O 8101   9.155   7.741  10.017  0.5306  0.1993 -0.0230
   61MOL0     C 8102   9.167   7.686  10.127  0.9925 -0.5072  0.4785
   61MOL0     O 8103   9.065   7.632  10.196 -0.3038  0.4983  0.3756
   61MOL0     C 8104   8.940   7.632  10.136  0.6959 -0.0957  0.4948
   61MOL0     C 8105   8.884   7.552  10.037 -0.0081  0.9748 -0.1454
   61MOL0     C 8106   8.752   7.574   9.995 -0.2166  0.7037 -0.4787
   61MOL0     C 8107   8.666   7.654  10.067 -0.4041 -0.1127 -0.4110
   61MOL0     O 8108   8.531   7.649  10.038  1.1284 -0.4446  0.1534
   61MOL0     C 8109   8.459   7.772  10.057  1.1217 -0.6231  0.1289
   61MOL0     C 8110   8.322   7.729  10.020 -0.6847 -0.5447  0.8491
   61MOL0     C 8111   8.253   7.650  10.131  0.1227  0.5085 -0.1479
   61MOL0     C 8112   8.166   7.542  10.066  0.1497  0.2120  0.3208
   61MOL0     C 8113   8.109   7.444  10.171 -0.3180 -1.2078  0.7642
   61MOL0     C 8114   7.951   7.442  10.172 -0.3359 -0.0438  0.9517
   61MOL0     C 8115   7.885   7.343  10.267  0.5832 -0.0062  0.9158
   61MOL0     C 8116   7.910   7.196  10.234  0.3984 -0.1565  0.0251
   61MOL0     N 8117   7.856   7.115  10.341  0.4893  0.0527  0.4121
   61MOL0     C 8118   7.725   7.066  10.344 -0.6000 -0.1624 -0.3311
   61MOL0     C 8119   7.705   7.005  10.455 -0.2076 -0.1785 -0.2753
   61MOL0     C 8120   7.575   6.946  10.513 -0.0247  0.0724  0.0457
   61MOL0     C 8121   7.453   7.002  10.456 -0.2103  0.0689  0.4872
   61MOL0     C 8122   7.321   6.945  10.503 -0.3975 -0.3879  0.9368
   61MOL0     C 8123   7.189   7.023  10.456 -0.0854  0.1507 -0.0450
   61MOL0     O 8124   7.206   7.168  10.444  0.1961 -0.1265  1.1219
   61MOL0     C 8125   7.087   7.244  10.438 -0.5854 -0.4986 -0.3324
   61MOL0     C 8126   7.037   7.292  10.556  0.3347 -0.0893  0.6361
   61MOL0     C 8127   6.913   7.365  10.551 -0.3150 -0.0726 -0.1518
   61MOL0     C 8128   6.858   7.405  10.692 -0.2877 -0.5210  0.5703
   61MOL0     C 8129   6.849   7.394  10.428  0.9213  0.7121  0.8168
   61MOL0     C 8130   6.722   7.478  10.408  0.2654  0.4453 -0.1694
   61MOL0     O 8131   6.653   7.459  10.291 -0.0884 -1.0620 -0.4682
   61MOL0     C 8132   6.533   7.520  10.262 -0.5835  0.8739  0.4629
   61MOL0     C 8133   6.537   7.658  10.245  0.6509  0.0879  0.2376
   61MOL0     C 8134   6.415   7.718  10.211 -0.6361 -1.0377 -0.8497
   61MOL0     C 8135   6.298   7.654  10.199  0.1936  0.2919  0.5174
   61MOL0     O 8136   6.192   7.739  10.170  0.4890  0.4732 -0.0868
   61MOL0     C 8137   6.064   7.690  10.213  0.4705 -0.2733  0.0090
   61MOL0     C 8138   5.958   7.799  10.206 -0.3258 -0.1196 -0.0119
   61MOL0     C 8139   5.988   7.892  10.323 -0.3731 -0.6018 -0.1150
   61MOL0     C 8140   5.902   8.014  10.319  0.3476 -0.7192 -0.4906
   61MOL0     C 8141   5.903   8.092  10.448 -0.3116  0.0379 -0.6953
   61MOL0     C 8142   5.806   8.215  10.447 -0.6159  0.6597  0.6092
   61MOL0     C 8143   5.821   8.336  10.343 -0.2819  1.4738 -0.3511
   61MOL0     C 8144   5.705   8.429  10.352 -0.2804  0.6795  0.4167
   61MOL0    Cl 8145   5.558   8.354  10.272 -0.4500  0.3955 -0.3793
   61MOL0     C 8146   6.297   7.512  10.199  0.1480  0.2186 -0.3758
   61MOL0     C 8147   6.417   7.443  10.238 -0.1015  0.4212 -0.3449
   61MOL0     O 8148   6.683   7.549  10.503  0.3808  0.5809 -0.7098
   61MOL0     C 8149   6.912   7.350  10.308  0.4802  0.0083  0.9768
   61MOL0     C 8150   7.030   7.269  10.315  1.1798  0.3134  0.8704
   61MOL0     N 8151   7.828   7.013  10.528  0.1238 -0.2804 -0.5525
   61MOL0     N 8152   7.916   7.071  10.453 -0.4740 -0.0078 -0.2865
   61MOL0     C 8153   8.722   7.728  10.179  0.3846 -1.0301 -0.7160
   61MOL0     C 8154   8.853   7.711  10.215 -0.0336  0.0435 -0.2394
   61MOL0     C 8155   9.304   7.664  10.176 -1.2066  0.9653 -0.3960
   61MOL0     C 8156   9.418   7.676  10.092 -0.0159  1.0498  0.2506
   61MOL0     C 8157   9.541   7.671  10.150  0.1630  0.3608 -0.1494
   61MOL0     C 8158   9.554   7.638  10.285 -0.2902  0.5725  1.4653
   61MOL0     O 8159   9.676   7.615  10.339 -1.1627  0.1207 -0.3300
   61MOL0     C 8160   9.796   7.606  10.264  0.7841 -0.1624 -0.2845
   61MOL0     C 8161   9.914   7.607  10.371 -0.3081 -0.1880  0.9554
   61MOL0     C 8162  10.040   7.545  10.304  0.3211 -0.3321  1.1790
   61MOL0     C 8163  10.172   7.607  10.363  0.3141 -1.3446 -1.0189
   61MOL0     C 8164  10.184   7.553  10.502  0.2156  1.5205 -1.0779
   61MOL0     C 8165  10.188   7.502  10.615 -0.2245  0.6581  0.2494
   61MOL0     C 8166   9.446   7.608  10.363 -0.4733  0.5261 -0.3397
   61MOL0     C 8167   9.325   7.623  10.315  0.6895 -0.2438  0.0091
   61MOL0     H 8168   8.951   7.492   9.975 -1.1103 -0.7245  0.2486
   61MOL0     H 8169   8.711   7.526   9.906  0.8696  1.5793 -1.4904
   61MOL0     H 8170   8.457   7.812  10.158 -3.5428  2.8884 -1.0158
   61MOL0     H 8171   8.503   7.855  10.000  0.2063 -0.8644 -0.9770
   61MOL0     H 8172   8.261   7.818  10.001  0.6881  0.3861  0.6644
   61MOL0     H 8173   8.319   7.693   9.917 -2.5413  1.4307  0.1345
   61MOL0     H 8174   8.319   7.596  10.199  0.0628 -0.9677 -1.1965
   61MOL0     H 8175   8.185   7.714  10.187 -2.7141  0.0227 -2.7360
   61MOL0     H 8176   8.085   7.581  10.004 -1.1820 -0.7492  1.3989
   61MOL0     H 8177   8.237   7.496   9.996  1.6250  2.8852 -0.0916
   61MOL0     H 8178   8.154   7.349  10.141 -2.3156 -2.0566  0.3432
   61MOL0     H 8179   8.146   7.455  10.274 -0.6824 -0.1049  0.7909
   61MOL0     H 8180   7.914   7.543  10.189 -1.3204 -0.4444  1.2822
   61MOL0     H 8181   7.924   7.413  10.070 -1.4240  0.7721  0.9884
   61MOL0     H 8182   7.926   7.361  10.367  2.2001 -3.4701  1.0276
   61MOL0     H 8183   7.778   7.354  10.252  1.0471  1.2519 -2.1905
   61MOL0     H 8184   8.019   7.190  10.221  0.4677 -2.3604  1.1765
   61MOL0     H 8185   7.862   7.169  10.140 -3.0409  0.4557  1.4732
   61MOL0     H 8186   7.652   7.093  10.268 -0.0602  2.7114  0.0867
   61MOL0     H 8187   7.579   6.840  10.486  0.1292  0.3848 -1.2253
   61MOL0     H 8188   7.573   6.945  10.623  1.0659 -1.0829  0.0765
   61MOL0     H 8189   7.457   7.006  10.347  1.9369  1.9980  0.5608
   61MOL0     H 8190   7.458   7.108  10.484  0.7528  0.2200 -0.2115
   61MOL0     H 8191   7.324   6.946  10.612  1.4310 -2.5501  0.9864
   61MOL0     H 8192   7.318   6.839  10.475  4.6467 -0.0602 -1.9722
   61MOL0     H 8193   7.104   7.010  10.522 -2.1621  1.0611 -2.3804
   61MOL0     H 8194   7.158   6.989  10.357  1.1681  0.8553 -0.7117
   61MOL0     H 8195   7.084   7.275  10.652  1.1597 -0.8415  0.1118
   61MOL0     H 8196   6.857   7.514  10.698 -1.7773 -0.5933  2.8753
   61MOL0     H 8197   6.761   7.355  10.705 -1.1853  1.2831  1.1661
   61MOL0     H 8198   6.922   7.372  10.775 -0.8932  0.5659  1.5001
   61MOL0     H 8199   6.635   7.705  10.248  1.7198 -1.8481 -1.4524
   61MOL0     H 8200   6.415   7.826  10.211  0.4190 -1.0272 -0.7761
   61MOL0     H 8201   6.031   7.614  10.142  0.2937 -0.7988  0.6496
   61MOL0     H 8202   6.062   7.661  10.318 -0.3958  1.5272  0.5336
   61MOL0     H 8203   5.956   7.850  10.109 -0.6639 -1.4096 -0.6959
   61MOL0     H 8204   5.858   7.757  10.217  0.0548 -1.9797 -2.7177
   61MOL0     H 8205   6.094   7.921  10.329 -0.3268 -1.0021  1.6687
   61MOL0     H 8206   5.951   7.838  10.410 -0.5131  0.8434  0.7651
   61MOL0     H 8207   5.944   8.072  10.236 -0.3823  0.5113 -0.0256
   61MOL0     H 8208   5.799   7.987  10.295 -0.6640  0.7640  1.8542
   61MOL0     H 8209   6.004   8.119  10.479 -0.5283 -0.1610  0.2366
   61MOL0     H 8210   5.862   8.027  10.527  2.8221 -2.7228 -1.0918
   61MOL0     H 8211   5.705   8.174  10.445 -1.7152  3.2088 -0.4939
   61MOL0     H 8212   5.827   8.262  10.544  0.2132 -1.8563  1.7266
   61MOL0     H 8213   5.823   8.296  10.242  0.4683 -0.2743  0.3154
   61MOL0     H 8214   5.916   8.384  10.367 -1.4835  3.5061  0.5654
   61MOL0     H 8215   5.731   8.523  10.303 -2.4051 -0.0448 -2.2970
   61MOL0     H 8216   5.675   8.450  10.455  0.1935  0.7575  0.5428
   61MOL0     H 8217   6.200   7.466  10.185 -0.5226  1.8974 -1.5449
   61MOL0     H 8218   6.420   7.338  10.265  0.1635 -0.2031 -2.6087
   61MOL0     H 8219   6.868   7.354  10.208  2.1116  1.3172  0.2509
   61MOL0     H 8220   7.082   7.231  10.227  0.0570 -3.2087  1.5704
   61MOL0     H 8221   8.663   7.794  10.242 -0.4762 -1.1834 -1.3409
   61MOL0     H 8222   8.886   7.784  10.289 -2.0364  0.9432 -0.1561
   61MOL0     H 8223   9.409   7.703   9.988  0.7928  1.7878  0.3589
   61MOL0     H 8224   9.635   7.692  10.100  1.9522 -0.7004  2.5875
   61MOL0     H 8225   9.795   7.508  10.214 -0.5553 -1.3448  1.8858
   61MOL0     H 8226   9.807   7.683  10.188 -0.0336 -0.0076 -0.2546
   61MOL0     H 8227   9.879   7.548  10.456 -0.6306 -1.3729  0.0176
   61MOL0     H 8228   9.935   7.709  10.404 -1.3685  0.7758 -1.2154
   61MOL0     H 8229  10.027   7.564  10.197 -0.9357  0.9869  1.5299
   61MOL0     H 8230  10.033   7.436  10.313  2.6473 -0.8286 -1.5908
   61MOL0     H 8231  10.170   7.716  10.369 -1.8470 -1.3719 -0.5597
   61MOL0     H 8232  10.265   7.579  10.312  1.2143 -2.6152  1.1816
   61MOL0     H 8233  10.185   7.446  10.707 -1.1799  1.2965  0.6237
   61MOL0     H 8234   9.471   7.572  10.462  0.3107 -1.4760 -1.2142
   61MOL0     H 8235   9.235   7.607  10.374 -0.6906 -0.6650 -2.0709
   62MOL0     O 8236   4.109   5.592   7.401  0.8834 -0.2931  0.4038
   62MOL0     C 8237   4.226   5.558   7.371  1.0307 -0.1831 -0.5596
   62MOL0     O 8238   4.297   5.447   7.407  0.6812  0.1453  0.0411
   62MOL0     C 8239   4.226   5.359   7.485 -0.4153  0.9871  0.2260
   62MOL0     C 8240   4.157   5.258   7.430  0.4622  0.0682 -0.4217
   62MOL0     C 8241   4.114   5.149   7.509  0.3396  0.5747 -0.6247
   62MOL0     C 8242   4.133   5.149   7.644  0.1781  0.5109  0.0718
   62MOL0     O 8243   4.098   5.049   7.730  0.7457 -0.1939  0.1709
   62MOL0     C 8244   4.063   4.926   7.664 -0.4016  0.6587 -0.2310
   62MOL0     C 8245   4.024   4.816   7.767  0.1764 -0.2620  0.7940
   62MOL0     C 8246   3.884   4.862   7.835  0.3760  0.0210  0.8188
   62MOL0     C 8247   3.829   4.744   7.909 -0.0915  0.0900 -0.3895
   62MOL0     C 8248   3.693   4.784   7.977 -0.1384 -0.1521  0.1969
   62MOL0     C 8249   3.574   4.690   7.970  0.0851  0.5576 -0.2425
   62MOL0     C 8250   3.443   4.740   8.033 -0.0756 -0.3148 -1.1279
   62MOL0     C 8251   3.325   4.668   7.970 -0.2427 -0.6939  0.6949
   62MOL0     N 8252   3.193   4.685   8.040 -1.1198  0.0459  0.1237
   62MOL0     C 8253   3.144   4.805   8.090 -0.6601  0.4879 -1.3416
   62MOL0     C 8254   3.030   4.763   8.153 -0.3256 -0.3472 -0.5478
   62MOL0     C 8255   2.925   4.835   8.236  0.4111 -0.1879  0.2852
   62MOL0     C 8256   2.787   4.853   8.160  0.6461  0.2009  1.0174
   62MOL0     C 8257   2.803   4.926   8.029  0.2644 -0.1833  0.2641
   62MOL0     C 8258   2.691   5.006   7.982  0.3208  0.3351  0.2212
   62MOL0     O 8259   2.575   4.921   7.964 -0.7396  0.7766  0.0399
   62MOL0     C 8260   2.447   4.976   7.944  0.0056  0.6740 -0.3282
   62MOL0     C 8261   2.343   4.887   7.966 -0.1580  0.2754  0.9173
   62MOL0     C 8262   2.212   4.925   7.958  0.3840 -0.3537  0.9904
   62MOL0     C 8263   2.105   4.814   7.965 -0.1963  0.3337 -0.1684
   62MOL0     C 8264   2.182   5.061   7.933 -0.2120 -0.6745  0.4869
   62MOL0     C 8265   2.036   5.110   7.930 -0.8996 -0.0183  0.8006
   62MOL0     O 8266   1.940   5.036   7.994  0.5113  0.2419 -0.0596
   62MOL0     C 8267   1.813   5.054   7.946 -0.6356 -0.4344 -0.7873
   62MOL0     C 8268   1.771   4.986   7.827  0.2955  0.0863  0.2169
   62MOL0     C 8269   1.647   5.014   7.775  0.0064  0.0488 -0.5349
   62MOL0     C 8270   1.560   5.108   7.840 -0.0916  0.7365  0.4950
   62MOL0     O 8271   1.431   5.135   7.805 -0.2045  0.2513 -0.5728
   62MOL0     C 8272   1.370   5.084   7.691 -0.6085 -0.3847 -0.2256
   62MOL0     C 8273   1.209   5.087   7.702 -0.4925 -0.0710 -0.1765
   62MOL0     C 8274   1.145   5.071   7.564  0.3174  0.1312 -0.0382
   62MOL0     C 8275   1.011   4.995   7.563  0.0822  0.3170  0.0726
   62MOL0     C 8276   0.949   5.041   7.434  0.1894 -0.1602  0.2869
   62MOL0     C 8277   0.822   4.963   7.389  1.3703 -0.7105  0.2231
   62MOL0     C 8278   0.865   4.832   7.315  0.1699  0.2225 -0.0460
   62MOL0     C 8279   0.741   4.737   7.275  0.3463  0.6153  0.1896
   62MOL0    Cl 8280   0.616   4.790   7.168  0.0908 -0.3088  0.2833
   62MOL0     C 8281   1.599   5.166   7.956  0.5507 -0.7707 -1.3126
   62MOL0     C 8282   1.723   5.136   8.013  0.3079  0.9179 -0.5269
   62MOL0     O 8283   2.018   5.217   7.868  0.5643  0.2325 -0.0564
   62MOL0     C 8284   2.286   5.153   7.913  0.6618  0.1621 -0.5124
   62MOL0     C 8285   2.419   5.105   7.917  0.2832 -0.1433 -0.0243
   62MOL0     N 8286   3.011   4.625   8.128 -0.0144 -0.8316  0.2179
   62MOL0     N 8287   3.107   4.584   8.058 -0.0334  0.3249 -0.8455
   62MOL0     C 8288   4.204   5.250   7.703  0.9503 -0.7473 -0.1715
   62MOL0     C 8289   4.244   5.362   7.624  0.5148 -0.1891  0.5328
   62MOL0     C 8290   4.298   5.639   7.266  0.2844  0.2931  0.3280
   62MOL0     C 8291   4.230   5.747   7.201  0.4099  1.2268  0.1149
   62MOL0     C 8292   4.293   5.813   7.090 -0.7794 -0.7180 -0.3796
   62MOL0     C 8293   4.420   5.781   7.052  0.0503  0.2063  1.3769
   62MOL0     O 8294   4.483   5.843   6.942  0.8083 -0.4580 -0.2482
   62MOL0     C 8295   4.458   5.982   6.905  0.0600  0.4338  0.3308
   62MOL0     C 8296   4.581   6.046   6.844 -0.6002 -0.1675  0.2174
   62MOL0     C 8297   4.710   6.036   6.927 -0.1088  0.1913  0.2013
   62MOL0     C 8298   4.835   6.084   6.844  0.4898  1.1147 -0.1020
   62MOL0     C 8299   4.865   6.222   6.854 -0.0814 -0.3451  0.5614
   62MOL0     C 8300   4.904   6.337   6.847  0.3715 -0.5725  0.3786
   62MOL0     C 8301   4.494   5.678   7.117  0.0882 -0.0991  0.0469
   62MOL0     C 8302   4.427   5.612   7.219 -0.6940  0.2438  0.1620
   62MOL0     H 8303   4.145   5.265   7.322  0.6718 -0.9575 -0.5205
   62MOL0     H 8304   4.075   5.059   7.461 -0.3016  0.1223  0.6990
   62MOL0     H 8305   3.984   4.928   7.588  0.9052 -1.7270 -1.7744
   62MOL0     H 8306   4.156   4.887   7.621 -1.0379 -1.7838  0.4342
   62MOL0     H 8307   4.007   4.724   7.710 -0.3520 -1.6577  3.0883
   62MOL0     H 8308   4.100   4.797   7.844  0.9328 -0.2648  0.0661
   62MOL0     H 8309   3.899   4.948   7.900 -1.1515  0.4061  0.6892
   62MOL0     H 8310   3.816   4.893   7.754  0.6653  1.9851  1.2848
   62MOL0     H 8311   3.815   4.654   7.849 -0.3958 -0.4222  0.4265
   62MOL0     H 8312   3.900   4.718   7.987 -2.3668 -0.9081  1.4858
   62MOL0     H 8313   3.713   4.803   8.083 -2.1827  4.2169 -0.0145
   62MOL0     H 8314   3.673   4.879   7.928  0.3496  0.4831  1.1839
   62MOL0     H 8315   3.554   4.666   7.865  0.0508  0.0017 -0.1126
   62MOL0     H 8316   3.606   4.597   8.017 -1.7873  0.1892  0.3983
   62MOL0     H 8317   3.442   4.725   8.142 -1.7998 -0.8763 -1.1927
   62MOL0     H 8318   3.422   4.845   8.011 -2.4812 -0.8486 -1.5943
   62MOL0     H 8319   3.353   4.562   7.967 -0.7013 -0.8344  1.2202
   62MOL0     H 8320   3.329   4.703   7.867  0.4319  0.4206  1.0820
   62MOL0     H 8321   3.183   4.906   8.083 -0.4813  0.3437 -2.7449
   62MOL0     H 8322   2.920   4.777   8.328  0.1559 -0.4011  0.1375
   62MOL0     H 8323   2.961   4.932   8.272 -0.6888 -0.3277  1.8426
   62MOL0     H 8324   2.714   4.903   8.225  1.2094  0.8580  1.1631
   62MOL0     H 8325   2.733   4.760   8.142 -0.1808  1.1117 -1.5675
   62MOL0     H 8326   2.836   4.855   7.952  0.2273  2.1927 -2.0568
   62MOL0     H 8327   2.896   4.983   8.033  1.3795 -1.7460 -1.3748
   62MOL0     H 8328   2.733   5.060   7.896  3.4303  0.6386  1.8257
   62MOL0     H 8329   2.664   5.087   8.050  0.1078  0.6241 -0.1935
   62MOL0     H 8330   2.359   4.780   7.981  1.4645  0.4320  0.5631
   62MOL0     H 8331   2.041   4.844   8.048  1.6518  2.9867  0.4406
   62MOL0     H 8332   2.043   4.809   7.875 -2.9233 -0.9772  1.6484
   62MOL0     H 8333   2.150   4.717   7.987  0.5783  0.6050 -0.5175
   62MOL0     H 8334   1.834   4.920   7.768 -1.3950 -0.4947 -1.0111
   62MOL0     H 8335   1.622   4.965   7.682  0.5033  2.6114 -2.1375
   62MOL0     H 8336   1.411   5.148   7.613  0.1609  0.9130  1.1841
   62MOL0     H 8337   1.396   4.979   7.677 -1.2805 -0.5462 -0.3183
   62MOL0     H 8338   1.192   5.009   7.777  0.2415 -1.2507 -1.1998
   62MOL0     H 8339   1.187   5.192   7.725 -0.8697 -0.4143  1.1146
   62MOL0     H 8340   1.211   5.019   7.494  1.3227 -0.9223  1.6230
   62MOL0     H 8341   1.126   5.170   7.520  1.5979  0.7361  0.7023
   62MOL0     H 8342   1.029   4.888   7.573  2.5428  0.6872  0.3678
   62MOL0     H 8343   0.947   5.034   7.642  0.8411  0.4574  0.6312
   62MOL0     H 8344   1.020   5.031   7.351  0.4091  2.0533  0.1585
   62MOL0     H 8345   0.917   5.145   7.435  3.3755  0.9442  0.1697
   62MOL0     H 8346   0.755   4.944   7.474 -1.2675  2.8201 -0.8332
   62MOL0     H 8347   0.769   5.024   7.315  1.8531 -0.2565  0.2485
   62MOL0     H 8348   0.928   4.773   7.382 -1.8912  0.3502  2.1600
   62MOL0     H 8349   0.914   4.844   7.218  0.0523 -0.3652 -0.1811
   62MOL0     H 8350   0.684   4.709   7.364 -1.3531  1.7191 -0.5130
   62MOL0     H 8351   0.793   4.648   7.239  1.2189  0.2308  2.2558
   62MOL0     H 8352   1.535   5.240   8.003  2.6584 -0.1242  0.7134
   62MOL0     H 8353   1.754   5.180   8.107 -1.0243  2.1938 -0.6460
   62MOL0     H 8354   2.270   5.254   7.879 -1.3794  0.0151 -0.0948
   62MOL0     H 8355   2.502   5.175   7.910  0.2557 -0.0494  0.5849
   62MOL0     H 8356   4.227   5.238   7.808 -0.7450  2.7589  0.7336
   62MOL0     H 8357   4.303   5.443   7.664  0.5695  1.0407 -1.8493
   62MOL0     H 8358   4.134   5.771   7.246  0.2430 -0.2679  0.6137
   62MOL0     H 8359   4.237   5.894   7.044 -0.7185 -0.3279  0.2259
   62MOL0     H 8360   4.378   6.002   6.833  0.0309  0.9844  0.5121
   62MOL0     H 8361   4.433   6.039   6.995 -2.0069 -2.0353  1.4608
   62MOL0     H 8362   4.551   6.147   6.814  1.2825  0.0955 -0.9950
   62MOL0     H 8363   4.608   5.989   6.755  1.2894 -0.3935  0.8877
   62MOL0     H 8364   4.735   5.935   6.959  0.2489  0.4016  0.5939
   62MOL0     H 8365   4.692   6.103   7.012 -4.0163  2.4298 -2.0656
   62MOL0     H 8366   4.824   6.050   6.741 -0.6798  3.1589 -0.7082
   62MOL0     H 8367   4.924   6.034   6.885  0.1288  0.3701 -0.1962
   62MOL0     H 8368   4.923   6.442   6.845 -1.4313 -0.1234  2.3488
   62MOL0     H 8369   4.596   5.657   7.086  0.6414  1.2287  0.8468
   62MOL0     H 8370   4.489   5.533   7.261 -0.5946  0.9887  1.4522
   63MOL0     O 8371   8.066   4.573   8.671 -0.2377 -0.3219 -0.7505
   63MOL0     C 8372   8.062   4.551   8.553 -0.3100 -0.5026 -0.0691
   63MOL0     O 8373   8.168   4.544   8.471  0.0995 -0.4296  0.1497
   63MOL0     C 8374   8.301   4.564   8.501 -0.5551 -0.0656 -0.2788
   63MOL0     C 8375   8.345   4.635   8.621  0.6396  0.5141 -0.0319
   63MOL0     C 8376   8.485   4.647   8.644  0.8891  0.2957 -0.0085
   63MOL0     C 8377   8.581   4.582   8.568 -0.5729 -0.0470 -0.2573
   63MOL0     O 8378   8.714   4.599   8.612  0.2217 -0.3455  0.1993
   63MOL0     C 8379   8.814   4.512   8.563 -0.5876  0.0958  0.1606
   63MOL0     C 8380   8.820   4.364   8.617  0.4735  0.5886 -1.0104
   63MOL0     C 8381   8.950   4.299   8.576 -0.0920  0.2329 -0.0098
   63MOL0     C 8382   9.062   4.350   8.667  0.0979  0.5060  0.0519
   63MOL0     C 8383   9.204   4.318   8.623 -0.3481 -0.0965  1.3128
   63MOL0     C 8384   9.219   4.166   8.591  0.0941 -0.2223 -0.6032
   63MOL0     C 8385   9.360   4.117   8.587  0.5716  0.4464 -0.5588
   63MOL0     C 8386   9.460   4.193   8.495  0.0947 -0.1764 -0.2478
   63MOL0     N 8387   9.578   4.107   8.460 -0.4365  0.1270 -0.0420
   63MOL0     C 8388   9.565   3.983   8.410 -0.4532  0.3283  0.6337
   63MOL0     C 8389   9.693   3.939   8.405 -0.6465 -0.0589  0.3110
   63MOL0     C 8390   9.750   3.808   8.371 -0.0665 -0.1510  0.2486
   63MOL0     C 8391   9.755   3.707   8.493  0.4054 -0.5228  0.5720
   63MOL0     C 8392   9.639   3.604   8.487 -0.6371  0.3783 -0.0493
   63MOL0     C 8393   9.498   3.643   8.469 -0.3505  0.3489  0.3524
   63MOL0     O 8394   9.449   3.718   8.581 -0.0073  0.4876 -0.7744
   63MOL0     C 8395   9.311   3.738   8.593  0.2484  0.7439  0.3033
   63MOL0     C 8396   9.262   3.786   8.715 -0.3895 -0.1369  0.0701
   63MOL0     C 8397   9.132   3.823   8.736  0.1700 -0.0512 -0.3232
   63MOL0     C 8398   9.099   3.876   8.873  0.6592  0.1749 -1.3992
   63MOL0     C 8399   9.034   3.785   8.633 -0.0472 -0.0147 -0.0652
   63MOL0     C 8400   8.892   3.793   8.664 -0.1626 -0.1174  1.4333
   63MOL0     O 8401   8.825   3.711   8.578 -0.0538 -0.0509  0.0203
   63MOL0     C 8402   8.687   3.712   8.578  0.1762 -0.1181 -0.0333
   63MOL0     C 8403   8.619   3.810   8.512  0.2350 -0.1675  0.1978
   63MOL0     C 8404   8.482   3.808   8.520 -0.2373  0.4088 -0.3042
   63MOL0     C 8405   8.416   3.706   8.597  0.2225 -0.6394 -0.3089
   63MOL0     O 8406   8.276   3.693   8.601  0.1067 -0.8038  1.0809
   63MOL0     C 8407   8.193   3.791   8.529  0.9038 -0.0069 -1.1164
   63MOL0     C 8408   8.051   3.735   8.530 -1.4558  0.1684  0.1927
   63MOL0     C 8409   7.962   3.817   8.433 -0.5360 -0.3486  0.1054
   63MOL0     C 8410   7.822   3.803   8.465  0.0742 -0.2734 -0.6954
   63MOL0     C 8411   7.775   3.661   8.467  0.0281  0.3944 -0.4632
   63MOL0     C 8412   7.627   3.649   8.490 -0.8371 -0.6455 -0.4211
   63MOL0     C 8413   7.579   3.510   8.444  0.1240 -0.5271 -1.2054
   63MOL0     C 8414   7.449   3.451   8.521 -0.3319  0.6019  0.1673
   63MOL0    Cl 8415   7.496   3.290   8.596 -0.0662  0.2119 -0.1597
   63MOL0     C 8416   8.487   3.599   8.652  0.8957  0.3450  0.8117
   63MOL0     C 8417   8.626   3.603   8.645 -0.1907 -0.4183 -0.1668
   63MOL0     O 8418   8.842   3.855   8.757 -0.3751  0.1784 -0.4172
   63MOL0     C 8419   9.082   3.741   8.506 -0.4642  0.0127 -0.0713
   63MOL0     C 8420   9.221   3.725   8.485 -0.3725  0.2850 -0.5996
   63MOL0     N 8421   9.780   4.033   8.441 -0.3030 -0.3578  0.0324
   63MOL0     N 8422   9.709   4.136   8.475  0.3531 -0.5163 -0.3934
   63MOL0     C 8423   8.534   4.522   8.447  0.2515  0.4811  0.5302
   63MOL0     C 8424   8.400   4.524   8.411 -0.3263 -0.1797  0.8273
   63MOL0     C 8425   7.932   4.518   8.489  0.1590 -0.3241  0.3601
   63MOL0     C 8426   7.919   4.450   8.366 -0.4970  0.4779 -0.5017
   63MOL0     C 8427   7.788   4.414   8.321 -0.7320  0.0781  0.4813
   63MOL0     C 8428   7.672   4.461   8.378  0.2733 -0.1595 -0.5817
   63MOL0     O 8429   7.552   4.419   8.321 -0.3446  0.5403  0.8816
   63MOL0     C 8430   7.427   4.482   8.360 -0.9621 -0.3952  0.2954
   63MOL0     C 8431   7.315   4.410   8.290 -0.3672 -0.8471  0.6126
   63MOL0     C 8432   7.290   4.447   8.149  0.1538  0.1695  0.5429
   63MOL0     C 8433   7.179   4.373   8.086 -0.8779  0.0635 -0.5761
   63MOL0     C 8434   7.050   4.439   8.099  0.2008 -0.0729  0.0320
   63MOL0     C 8435   6.955   4.509   8.123  0.6193  0.0098  0.1670
   63MOL0     C 8436   7.677   4.531   8.497 -0.7700 -0.7911 -0.1997
   63MOL0     C 8437   7.812   4.555   8.547  1.0827 -0.6720 -0.2639
   63MOL0     H 8438   8.289   4.691   8.696  1.1052 -0.2222  0.8962
   63MOL0     H 8439   8.522   4.689   8.737  1.1453 -4.2901  2.2654
   63MOL0     H 8440   8.804   4.509   8.454 -0.1173  2.1661  0.0077
   63MOL0     H 8441   8.903   4.573   8.584 -0.5471  0.7359 -1.6573
   63MOL0     H 8442   8.803   4.370   8.725  0.2026  2.0097 -1.1093
   63MOL0     H 8443   8.740   4.300   8.579  1.6762 -2.1733  0.8210
   63MOL0     H 8444   8.944   4.191   8.593  0.1199  0.1589 -0.3964
   63MOL0     H 8445   8.966   4.319   8.470 -2.0523  0.0300 -0.3698
   63MOL0     H 8446   9.052   4.458   8.682 -0.8589  0.2843  1.0792
   63MOL0     H 8447   9.059   4.312   8.769  5.2971 -1.0879 -0.1093
   63MOL0     H 8448   9.234   4.374   8.534  0.3502 -3.8398 -1.0002
   63MOL0     H 8449   9.281   4.333   8.700  1.9678 -0.9046 -0.7106
   63MOL0     H 8450   9.164   4.112   8.669  2.1964 -2.1104 -0.3405
   63MOL0     H 8451   9.172   4.149   8.494  0.3474  0.4884 -0.8553
   63MOL0     H 8452   9.400   4.134   8.687  3.3580 -2.3645 -1.0117
   63MOL0     H 8453   9.366   4.011   8.561 -0.0427  0.6864 -1.7849
   63MOL0     H 8454   9.496   4.285   8.542 -3.9070  0.7194  1.4240
   63MOL0     H 8455   9.412   4.219   8.400 -1.4545 -2.1872 -0.0743
   63MOL0     H 8456   9.475   3.927   8.389  0.7790 -1.2026 -0.8471
   63MOL0     H 8457   9.682   3.772   8.294 -1.1664  1.2602  0.5258
   63MOL0     H 8458   9.849   3.817   8.324 -0.6622 -0.3778 -1.0876
   63MOL0     H 8459   9.743   3.770   8.581  1.0072  2.4756 -1.3434
   63MOL0     H 8460   9.855   3.662   8.495  1.2867  1.3471  0.2678
   63MOL0     H 8461   9.647   3.551   8.583  1.2242  1.1010  0.2281
   63MOL0     H 8462   9.656   3.533   8.405 -1.5839 -0.0235  0.0847
   63MOL0     H 8463   9.437   3.554   8.455  0.8365 -0.3376 -0.6721
   63MOL0     H 8464   9.490   3.698   8.374  0.8340 -0.7130 -0.3967
   63MOL0     H 8465   9.332   3.816   8.792 -2.4079 -2.0166  2.8587
   63MOL0     H 8466   9.087   3.984   8.866  0.5301  0.1862 -1.0111
   63MOL0     H 8467   9.014   3.824   8.919 -0.3283 -0.5588 -3.8867
   63MOL0     H 8468   9.184   3.867   8.942 -1.4384 -0.6557  1.2669
   63MOL0     H 8469   8.660   3.896   8.460 -2.0094  0.6088 -0.4312
   63MOL0     H 8470   8.432   3.890   8.469  0.7902  2.4101  1.7297
   63MOL0     H 8471   8.193   3.891   8.572  0.0289 -0.5633  0.2616
   63MOL0     H 8472   8.224   3.806   8.425  0.0242 -0.7597 -1.5017
   63MOL0     H 8473   8.051   3.635   8.486 -0.8132  0.4953 -0.5704
   63MOL0     H 8474   8.018   3.730   8.634 -0.8953  1.8804  0.4838
   63MOL0     H 8475   7.969   3.773   8.333  1.4633 -0.0742  0.0684
   63MOL0     H 8476   7.992   3.923   8.432 -2.3497  0.2084  0.7854
   63MOL0     H 8477   7.799   3.845   8.563  0.2422  0.0985 -0.8146
   63MOL0     H 8478   7.758   3.854   8.392  0.3182  0.3822 -0.4573
   63MOL0     H 8479   7.818   3.609   8.553 -2.0401  1.2762  1.1826
   63MOL0     H 8480   7.803   3.614   8.372  0.0671  0.0074 -0.2620
   63MOL0     H 8481   7.612   3.675   8.595  2.2075  2.3996 -0.5762
   63MOL0     H 8482   7.576   3.722   8.426 -0.5621 -0.2809 -0.2286
   63MOL0     H 8483   7.664   3.441   8.453  1.4899  1.3641  2.4209
   63MOL0     H 8484   7.546   3.518   8.340 -0.4234 -1.9695 -1.1651
   63MOL0     H 8485   7.375   3.439   8.442  0.9794 -4.1106 -0.6829
   63MOL0     H 8486   7.416   3.511   8.605  0.8592 -0.5364  1.5021
   63MOL0     H 8487   8.425   3.517   8.689 -0.1145  0.6907 -0.0637
   63MOL0     H 8488   8.678   3.521   8.694  0.7062  0.1686 -0.1159
   63MOL0     H 8489   9.008   3.722   8.428 -0.4995  0.2357 -0.0928
   63MOL0     H 8490   9.248   3.694   8.385  0.2200  0.6458 -0.5568
   63MOL0     H 8491   8.609   4.483   8.379  1.5842  1.4313  1.3738
   63MOL0     H 8492   8.378   4.474   8.318 -1.0847 -1.7526  1.8110
   63MOL0     H 8493   8.008   4.418   8.313  0.6387 -0.6652  1.9361
   63MOL0     H 8494   7.781   4.363   8.226  3.5436  1.3213 -0.7587
   63MOL0     H 8495   7.412   4.479   8.469 -3.0778 -0.6293  0.0435
   63MOL0     H 8496   7.430   4.584   8.320 -1.7497  0.2526  1.8065
   63MOL0     H 8497   7.227   4.435   8.351 -1.1535  0.3805 -0.9683
   63MOL0     H 8498   7.328   4.302   8.299 -0.5035 -1.1390 -2.0690
   63MOL0     H 8499   7.380   4.431   8.088 -0.9014  0.7300 -1.2468
   63MOL0     H 8500   7.265   4.553   8.139 -0.2985 -0.0508 -0.9794
   63MOL0     H 8501   7.174   4.269   8.121 -3.1103 -0.0175 -0.9745
   63MOL0     H 8502   7.194   4.360   7.978 -1.5042 -1.3553 -0.5204
   63MOL0     H 8503   6.864   4.562   8.143 -0.5976 -3.2382  4.8866
   63MOL0     H 8504   7.583   4.567   8.537 -1.0759 -1.2035 -0.5389
   63MOL0     H 8505   7.818   4.610   8.640  1.1996 -0.7001 -0.2545
   64MOL0     O 8506   1.540   7.537   8.088  0.2869 -0.0717  0.1054
   64MOL0     C 8507   1.555   7.538   8.212  0.5626 -0.5419  0.0993
   64MOL0     O 8508   1.466   7.578   8.300  0.4002  0.2435 -0.5695
   64MOL0     C 8509   1.356   7.650   8.271 -0.3132  0.4077  0.5763
   64MOL0     C 8510   1.362   7.766   8.194 -0.0541  0.1193 -0.4646
   64MOL0     C 8511   1.244   7.849   8.190 -0.4334  0.8496  0.0398
   64MOL0     C 8512   1.125   7.821   8.250  0.4418 -0.1426 -0.8386
   64MOL0     O 8513   1.016   7.913   8.229 -0.3286  0.3493 -0.4639
   64MOL0     C 8514   0.905   7.914   8.309 -0.5346  0.1255  0.1665
   64MOL0     C 8515   0.795   7.831   8.257  0.2011  1.0454  0.6117
   64MOL0     C 8516   0.728   7.907   8.138 -0.4023 -0.4822  0.0703
   64MOL0     C 8517   0.594   7.968   8.182 -0.0010 -0.7659 -0.6283
   64MOL0     C 8518   0.506   8.025   8.070  1.0068 -0.1336  0.2502
   64MOL0     C 8519   0.381   8.094   8.129  0.8217  0.1098  0.1192
   64MOL0     C 8520   0.294   8.149   8.014  0.6626 -0.0635  0.1183
   64MOL0     C 8521   0.208   8.265   8.063  0.3262  0.9445  0.0570
   64MOL0     N 8522   0.132   8.329   7.957 -0.2816 -0.4890  0.7720
   64MOL0     C 8523   0.081   8.264   7.849  0.9067 -0.0211 -0.0005
   64MOL0     C 8524   0.031   8.360   7.770 -0.3087  1.2729  0.2584
   64MOL0     C 8525  -0.052   8.349   7.645  0.3434  0.2880 -0.6525
   64MOL0     C 8526  -0.173   8.251   7.665  0.2694 -0.4572  0.5137
   64MOL0     C 8527  -0.296   8.323   7.741  0.3033  1.2902 -0.3548
   64MOL0     C 8528  -0.393   8.212   7.794  0.0697 -0.4205  0.1409
   64MOL0     O 8529  -0.323   8.109   7.866  0.1044 -0.7471  0.1967
   64MOL0     C 8530  -0.391   7.998   7.904 -0.4426  0.2322 -0.0120
   64MOL0     C 8531  -0.537   7.969   7.875  0.1737 -0.3156 -0.0703
   64MOL0     C 8532  -0.614   7.868   7.943 -0.3098  0.0477 -0.3106
   64MOL0     C 8533  -0.760   7.864   7.922  0.0818 -0.1465  1.1538
   64MOL0     C 8534  -0.538   7.789   8.037  0.4919  0.0796  0.2979
   64MOL0     C 8535  -0.600   7.696   8.136 -0.3553 -1.0102  0.1955
   64MOL0     O 8536  -0.533   7.704   8.257  0.1908  0.5520 -0.1297
   64MOL0     C 8537  -0.579   7.622   8.365  0.1207 -0.2237  0.6341
   64MOL0     C 8538  -0.688   7.660   8.450  0.1447  0.1974  0.0389
   64MOL0     C 8539  -0.722   7.563   8.556  0.3066  0.1766 -0.3442
   64MOL0     C 8540  -0.655   7.442   8.562  0.4250  0.3062  0.3437
   64MOL0     O 8541  -0.683   7.339   8.647 -0.3216 -0.3050 -0.2771
   64MOL0     C 8542  -0.816   7.323   8.705  0.5933  0.2927  0.5217
   64MOL0     C 8543  -0.931   7.310   8.598 -0.6114  0.5615  0.3318
   64MOL0     C 8544  -0.903   7.218   8.476 -0.4858  0.1068 -0.1767
   64MOL0     C 8545  -0.867   7.074   8.511 -0.9278 -0.2266 -0.3605
   64MOL0     C 8546  -0.821   6.995   8.395 -0.1060  0.0059  1.4783
   64MOL0     C 8547  -0.935   6.975   8.288  0.1949  0.1755 -0.4449
   64MOL0     C 8548  -1.057   6.907   8.353  1.2284  0.1393 -0.3869
   64MOL0     C 8549  -1.114   6.791   8.274 -0.0282  0.3267 -0.4877
   64MOL0    Cl 8550  -0.988   6.659   8.239  0.0049  0.1771  0.2125
   64MOL0     C 8551  -0.555   7.407   8.470  0.3371 -0.8624  0.2587
   64MOL0     C 8552  -0.519   7.497   8.377 -1.4695  0.5658 -0.6163
   64MOL0     O 8553  -0.690   7.625   8.101 -0.2492 -0.4324  0.3123
   64MOL0     C 8554  -0.398   7.803   8.051  0.2548  0.2569 -0.6375
   64MOL0     C 8555  -0.323   7.899   7.985  0.0185 -0.4305 -0.7384
   64MOL0     N 8556   0.066   8.480   7.820  1.2757 -0.4569  0.2981
   64MOL0     N 8557   0.127   8.460   7.933 -0.0830  0.1536 -0.0674
   64MOL0     C 8558   1.124   7.705   8.323  0.8480  1.2695  0.3278
   64MOL0     C 8559   1.238   7.625   8.338  1.1033  0.9582 -0.3471
   64MOL0     C 8560   1.683   7.487   8.264  0.2639  0.0930 -0.1937
   64MOL0     C 8561   1.699   7.495   8.399 -0.5325 -0.0751 -0.4301
   64MOL0     C 8562   1.815   7.456   8.464 -0.3512 -0.3546 -0.2871
   64MOL0     C 8563   1.917   7.399   8.391 -0.3339  0.3462 -0.0787
   64MOL0     O 8564   2.029   7.347   8.456  0.1206  0.5641  0.6531
   64MOL0     C 8565   2.142   7.323   8.379  0.2350 -0.0478 -0.2409
   64MOL0     C 8566   2.252   7.275   8.471  0.1161  0.1189 -0.3846
   64MOL0     C 8567   2.206   7.166   8.562 -0.0662 -0.3346  0.4780
   64MOL0     C 8568   2.322   7.101   8.636 -0.5078 -0.1858  0.1276
   64MOL0     C 8569   2.401   7.188   8.729  0.4681 -0.4376  0.5845
   64MOL0     C 8570   2.460   7.254   8.810  0.2464 -0.5015 -0.0963
   64MOL0     C 8571   1.907   7.397   8.248 -0.7121 -1.1350 -1.0241
   64MOL0     C 8572   1.793   7.445   8.181  0.2026  0.0580  0.1960
   64MOL0     H 8573   1.457   7.808   8.162  0.8096 -1.6100 -0.2758
   64MOL0     H 8574   1.258   7.947   8.145 -0.3460  0.2614 -1.2670
   64MOL0     H 8575   0.939   7.876   8.406  0.7719  1.7578  0.4009
   64MOL0     H 8576   0.876   8.018   8.327  0.2073  0.5217 -0.8361
   64MOL0     H 8577   0.844   7.743   8.215 -0.9632  1.4117 -1.6412
   64MOL0     H 8578   0.720   7.791   8.326  0.1366  2.6165  1.4798
   64MOL0     H 8579   0.784   7.985   8.086 -2.1120 -0.1013 -1.2716
   64MOL0     H 8580   0.706   7.834   8.059  1.7621  0.6927 -1.7439
   64MOL0     H 8581   0.532   7.895   8.235 -1.6143  1.7653  1.2664
   64MOL0     H 8582   0.623   8.038   8.261  0.5487 -0.7964 -0.8025
   64MOL0     H 8583   0.561   8.103   8.016 -1.1814  1.7393  0.5728
   64MOL0     H 8584   0.474   7.952   7.995  0.3250  0.8344 -0.4304
   64MOL0     H 8585   0.317   8.021   8.180  0.5875  0.2576  0.0384
   64MOL0     H 8586   0.403   8.173   8.202  0.8091 -0.0235  0.2685
   64MOL0     H 8587   0.360   8.185   7.935  1.3588 -0.8973  0.3020
   64MOL0     H 8588   0.223   8.072   7.982  1.3159  0.0308 -1.6684
   64MOL0     H 8589   0.275   8.342   8.099  1.2782  0.7719 -1.2705
   64MOL0     H 8590   0.140   8.240   8.145  0.5937  0.7776  0.2315
   64MOL0     H 8591   0.059   8.161   7.821 -4.2928  0.4810  1.2604
   64MOL0     H 8592  -0.093   8.440   7.600  0.1771  0.3319 -0.4124
   64MOL0     H 8593   0.017   8.314   7.568  0.1514  0.6462 -0.9934
   64MOL0     H 8594  -0.137   8.170   7.729 -1.0907  0.0473  1.9843
   64MOL0     H 8595  -0.210   8.210   7.570 -0.9796  0.0052  0.7734
   64MOL0     H 8596  -0.332   8.396   7.668 -0.3833 -0.2480 -1.6128
   64MOL0     H 8597  -0.253   8.374   7.827  2.5677 -3.7081  1.8646
   64MOL0     H 8598  -0.446   8.162   7.713 -1.5724 -0.7590  1.3581
   64MOL0     H 8599  -0.473   8.262   7.849  1.8820  2.2265  0.5651
   64MOL0     H 8600  -0.582   8.056   7.829 -0.6798 -0.2595  0.8495
   64MOL0     H 8601  -0.804   7.771   7.883 -1.7541  0.5182  1.5269
   64MOL0     H 8602  -0.815   7.889   8.013  0.5914  0.3597  1.3204
   64MOL0     H 8603  -0.780   7.943   7.849 -1.3180 -1.0677  0.4854
   64MOL0     H 8604  -0.731   7.757   8.427  1.6207  0.7310 -0.5866
   64MOL0     H 8605  -0.805   7.574   8.625  0.3932  1.8765 -0.4762
   64MOL0     H 8606  -0.822   7.228   8.758  1.1179 -1.3419 -2.1884
   64MOL0     H 8607  -0.846   7.404   8.773 -2.6768  1.9379 -2.5555
   64MOL0     H 8608  -1.031   7.289   8.637 -1.5153  0.5328 -1.8612
   64MOL0     H 8609  -0.949   7.411   8.558 -1.2824  0.8618  1.3605
   64MOL0     H 8610  -0.825   7.265   8.414  0.0649 -0.1918  0.2867
   64MOL0     H 8611  -0.989   7.231   8.409  0.6343  2.3025 -1.3139
   64MOL0     H 8612  -0.788   7.091   8.585 -0.9184  1.3344 -0.6893
   64MOL0     H 8613  -0.957   7.030   8.554 -2.1570  0.4694 -2.0901
   64MOL0     H 8614  -0.789   6.895   8.428  1.0812  0.4701  1.7503
   64MOL0     H 8615  -0.739   7.049   8.347 -1.2451  1.8611  1.5355
   64MOL0     H 8616  -0.961   7.071   8.242 -0.0729  0.8503  1.0264
   64MOL0     H 8617  -0.905   6.905   8.210 -4.4451 -0.5980 -1.7812
   64MOL0     H 8618  -1.125   6.992   8.361  0.6942 -0.3000 -0.1752
   64MOL0     H 8619  -1.038   6.874   8.456 -0.8007  0.8468  0.2726
   64MOL0     H 8620  -1.175   6.832   8.194  0.0619 -1.4156 -1.4803
   64MOL0     H 8621  -1.189   6.740   8.335  1.2264 -1.2137 -0.1769
   64MOL0     H 8622  -0.502   7.312   8.462 -0.7180 -1.4907  0.4587
   64MOL0     H 8623  -0.443   7.471   8.304 -0.2551 -2.0408  1.3896
   64MOL0     H 8624  -0.345   7.731   8.113  1.4983 -1.2070 -3.2156
   64MOL0     H 8625  -0.216   7.896   8.006  0.1544  0.3122 -1.2929
   64MOL0     H 8626   1.031   7.673   8.367 -1.0392  0.9802 -3.4393
   64MOL0     H 8627   1.234   7.537   8.402 -0.8055 -0.7450 -2.5963
   64MOL0     H 8628   1.616   7.524   8.463 -0.5620 -0.2108 -0.4061
   64MOL0     H 8629   1.810   7.458   8.572  0.3542  0.1470 -0.2585
   64MOL0     H 8630   2.125   7.244   8.305 -0.5908  0.2140 -0.3343
   64MOL0     H 8631   2.180   7.412   8.328 -2.2081 -0.1131 -2.3711
   64MOL0     H 8632   2.296   7.356   8.529 -0.4023  0.6188 -0.6731
   64MOL0     H 8633   2.340   7.243   8.415 -0.6125 -0.6837 -1.1154
   64MOL0     H 8634   2.152   7.092   8.501 -0.6820  1.2457 -0.9856
   64MOL0     H 8635   2.138   7.206   8.637  0.3434  0.6774  0.3301
   64MOL0     H 8636   2.395   7.065   8.563 -0.3646 -2.0749  1.1232
   64MOL0     H 8637   2.290   7.014   8.694 -2.2107  1.1934  1.3809
   64MOL0     H 8638   2.505   7.325   8.876  0.0121  0.3960 -0.8891
   64MOL0     H 8639   1.983   7.363   8.179 -0.2880  1.2457 -1.8146
   64MOL0     H 8640   1.795   7.426   8.075  0.9406 -1.6597  0.4863
   65MOL0     O 8641  11.301   7.429   3.775  0.8610 -0.1941 -0.5521
   65MOL0     C 8642  11.264   7.458   3.890 -0.2020  0.0169  0.0806
   65MOL0     O 8643  11.127   7.470   3.935 -0.5598  0.9358  0.0511
   65MOL0     C 8644  11.012   7.434   3.866 -0.8593 -0.1925  0.4184
   65MOL0     C 8645  11.000   7.352   3.753 -0.2088  0.5788 -0.4491
   65MOL0     C 8646  10.873   7.317   3.715 -0.7919 -0.1570  0.5815
   65MOL0     C 8647  10.762   7.364   3.776  1.3512  0.2607  0.5249
   65MOL0     O 8648  10.633   7.343   3.727 -0.2585  0.4101 -0.8233
   65MOL0     C 8649  10.610   7.267   3.612 -0.3997 -0.4725  0.4113
   65MOL0     C 8650  10.459   7.255   3.570 -0.0783  0.2585 -0.2684
   65MOL0     C 8651  10.452   7.187   3.436  0.2708  0.2296 -1.0383
   65MOL0     C 8652  10.311   7.131   3.401  0.0453 -0.4395 -0.2292
   65MOL0     C 8653  10.321   7.036   3.271  0.0933 -0.9678 -0.3818
   65MOL0     C 8654  10.189   6.967   3.257  1.1474  0.3385  0.1826
   65MOL0     C 8655  10.083   7.064   3.204 -0.0315  0.1123  0.5077
   65MOL0     C 8656   9.959   6.994   3.133  0.1598 -0.0138  0.7841
   65MOL0     N 8657   9.864   7.101   3.085  0.0651  0.3537 -0.3212
   65MOL0     C 8658   9.899   7.208   3.005  0.0733  0.1074  0.2562
   65MOL0     C 8659   9.773   7.245   2.969  0.9035 -0.5062 -0.2638
   65MOL0     C 8660   9.744   7.346   2.862 -0.6659  0.1035  0.3104
   65MOL0     C 8661   9.714   7.281   2.729 -0.0375  1.5838 -0.1392
   65MOL0     C 8662   9.653   7.383   2.620 -0.5924  0.3881  0.2286
   65MOL0     C 8663   9.577   7.312   2.507 -0.0429 -0.4128 -0.3259
   65MOL0     O 8664   9.464   7.248   2.564  0.0501  0.1456  0.2560
   65MOL0     C 8665   9.375   7.204   2.470  0.4111  0.0719 -0.0410
   65MOL0     C 8666   9.268   7.123   2.521 -0.4976 -0.1482  0.1061
   65MOL0     C 8667   9.177   7.061   2.434  0.4088  0.2253  0.2746
   65MOL0     C 8668   9.074   6.968   2.498 -0.4038 -0.0604  0.2251
   65MOL0     C 8669   9.177   7.093   2.292  0.8229  0.1038  0.1146
   65MOL0     C 8670   9.080   7.045   2.187  0.6315 -0.6576  0.4584
   65MOL0     O 8671   9.111   7.061   2.051 -0.2198 -0.1032 -0.7481
   65MOL0     C 8672   9.025   7.018   1.956  0.0730  0.7374 -0.2586
   65MOL0     C 8673   8.900   7.050   1.964  0.2320  0.4222 -0.4188
   65MOL0     C 8674   8.821   7.031   1.850  0.1112  1.2795  0.4534
   65MOL0     C 8675   8.865   6.967   1.729  0.7561  0.1648 -0.1003
   65MOL0     O 8676   8.780   6.937   1.625  0.1828  0.4929 -0.0856
   65MOL0     C 8677   8.729   6.801   1.622 -0.0551  0.2929 -0.3950
   65MOL0     C 8678   8.625   6.783   1.513 -0.0027 -0.1701 -0.4944
   65MOL0     C 8679   8.554   6.648   1.526 -0.1147  0.2299 -0.3794
   65MOL0     C 8680   8.400   6.654   1.529  0.3087  0.5720 -0.3783
   65MOL0     C 8681   8.349   6.515   1.555  0.4079  0.3002  0.3011
   65MOL0     C 8682   8.191   6.506   1.582 -0.3351  0.1904 -0.6353
   65MOL0     C 8683   8.109   6.558   1.465 -0.5224  0.8604  0.1230
   65MOL0     C 8684   7.983   6.474   1.443  1.3473  0.0653  0.5272
   65MOL0    Cl 8685   7.876   6.562   1.328  0.0265  0.0812  0.4719
   65MOL0     C 8686   9.004   6.929   1.727 -0.0118 -0.1584 -0.2249
   65MOL0     C 8687   9.083   6.956   1.843  0.3356 -0.1502  0.8005
   65MOL0     O 8688   8.980   6.988   2.231 -0.3840 -0.1230 -0.0928
   65MOL0     C 8689   9.277   7.170   2.248 -0.4125 -0.3204 -0.1406
   65MOL0     C 8690   9.373   7.226   2.330 -0.2633  0.0880  0.2407
   65MOL0     N 8691   9.672   7.182   3.034  1.2542  0.0279  0.0546
   65MOL0     N 8692   9.728   7.085   3.102  0.2709 -0.5878  0.5902
   65MOL0     C 8693  10.780   7.446   3.885  0.5655 -0.7603  0.2634
   65MOL0     C 8694  10.900   7.482   3.935 -0.3549  0.1406  0.0801
   65MOL0     C 8695  11.375   7.476   3.990 -1.3268  0.1606 -0.9138
   65MOL0     C 8696  11.509   7.505   3.955  0.3199  0.6278 -0.5048
   65MOL0     C 8697  11.611   7.505   4.055  1.0910 -1.0377  0.2301
   65MOL0     C 8698  11.580   7.490   4.190  0.2965 -0.2539 -0.4168
   65MOL0     O 8699  11.671   7.483   4.295  0.1724 -0.4234  0.2465
   65MOL0     C 8700  11.808   7.462   4.271 -0.1618  0.2802 -0.5030
   65MOL0     C 8701  11.851   7.356   4.380  0.1298 -0.5139  0.0680
   65MOL0     C 8702  11.989   7.284   4.351 -0.0869 -0.6855 -0.1460
   65MOL0     C 8703  12.031   7.194   4.476 -0.2743  0.2438  0.8439
   65MOL0     C 8704  12.080   7.275   4.588 -0.6860  0.2223  0.5779
   65MOL0     C 8705  12.132   7.331   4.683 -0.3096 -0.7174  0.6878
   65MOL0     C 8706  11.438   7.476   4.225  0.2644 -0.9070  0.1471
   65MOL0     C 8707  11.342   7.464   4.128 -0.0877 -0.0347  0.6619
   65MOL0     H 8708  11.086   7.311   3.700 -0.6524  3.1744 -3.4506
   65MOL0     H 8709  10.860   7.240   3.640 -1.7917  0.5412  0.0150
   65MOL0     H 8710  10.670   7.317   3.534 -1.0923 -0.8032 -0.3503
   65MOL0     H 8711  10.631   7.161   3.627  0.1491 -0.9216 -2.7033
   65MOL0     H 8712  10.405   7.190   3.641 -3.1972  1.1705 -1.6482
   65MOL0     H 8713  10.417   7.356   3.565 -1.4016 -0.2840 -0.6420
   65MOL0     H 8714  10.481   7.261   3.361 -1.0635  1.8911  0.0032
   65MOL0     H 8715  10.513   7.096   3.438 -2.0045 -1.3996  1.1873
   65MOL0     H 8716  10.280   7.073   3.488 -0.6100  0.4418  0.1436
   65MOL0     H 8717  10.249   7.221   3.389  2.0804  0.6970 -3.9979
   65MOL0     H 8718  10.363   7.076   3.179 -1.5798  3.4143  0.4915
   65MOL0     H 8719  10.386   6.953   3.299 -0.2202 -1.2924 -0.6039
   65MOL0     H 8720  10.200   6.889   3.180  2.7627  1.8500 -1.1893
   65MOL0     H 8721  10.167   6.940   3.361 -0.6423  1.9139  0.2739
   65MOL0     H 8722  10.032   7.122   3.281 -2.9372 -2.1094  0.4168
   65MOL0     H 8723  10.116   7.134   3.126 -3.1987  1.2161  0.0284
   65MOL0     H 8724   9.915   6.925   3.205  1.2272 -0.6330  0.8773
   65MOL0     H 8725   9.994   6.929   3.052  3.0308 -1.0045  2.6714
   65MOL0     H 8726   9.993   7.230   2.956  0.6080 -0.5091  0.9869
   65MOL0     H 8727   9.657   7.399   2.901  1.9756  1.1316  5.7777
   65MOL0     H 8728   9.836   7.405   2.849  0.7575 -1.5365  2.3396
   65MOL0     H 8729   9.653   7.195   2.759  1.0798  1.1114  0.8607
   65MOL0     H 8730   9.806   7.247   2.681 -1.2614 -2.8910  0.2177
   65MOL0     H 8731   9.731   7.453   2.588 -0.1542  0.9432  2.3169
   65MOL0     H 8732   9.585   7.459   2.662  1.2344  1.0160  2.2434
   65MOL0     H 8733   9.631   7.236   2.449 -2.6029 -1.4684 -1.4794
   65MOL0     H 8734   9.545   7.386   2.433 -0.2035  0.1581  0.3047
   65MOL0     H 8735   9.262   7.113   2.629  3.6946  0.4380  0.5464
   65MOL0     H 8736   9.041   6.876   2.448  1.1005 -1.2120  1.2538
   65MOL0     H 8737   9.115   6.925   2.590  2.1934 -1.3949 -1.4300
   65MOL0     H 8738   8.991   7.034   2.524 -0.0431  0.7102 -0.5561
   65MOL0     H 8739   8.868   7.111   2.048  1.2719  0.0568  0.2715
   65MOL0     H 8740   8.714   7.047   1.853 -0.0362  0.4399 -0.0072
   65MOL0     H 8741   8.816   6.736   1.606 -0.3218 -0.9784  2.6053
   65MOL0     H 8742   8.688   6.775   1.720 -0.0172  0.7874 -0.2432
   65MOL0     H 8743   8.565   6.873   1.528  1.6247  0.8849 -0.0901
   65MOL0     H 8744   8.671   6.790   1.414  0.8872  0.9558 -0.0257
   65MOL0     H 8745   8.581   6.601   1.622 -1.3127 -0.9646 -0.5951
   65MOL0     H 8746   8.600   6.582   1.452 -1.3322  1.9388 -2.7743
   65MOL0     H 8747   8.357   6.728   1.597 -0.8542 -1.6704  1.4627
   65MOL0     H 8748   8.369   6.674   1.426  0.7561 -3.0390 -1.3613
   65MOL0     H 8749   8.414   6.471   1.632 -0.0386  0.1249  0.5827
   65MOL0     H 8750   8.363   6.454   1.466  2.6357  2.2893 -0.8245
   65MOL0     H 8751   8.164   6.403   1.607  0.5637 -0.0662 -0.6939
   65MOL0     H 8752   8.161   6.557   1.674  3.1154  0.1960  0.6273
   65MOL0     H 8753   8.169   6.557   1.374 -2.2765 -1.4162 -1.0965
   65MOL0     H 8754   8.081   6.660   1.493  3.1257  2.4129 -1.3035
   65MOL0     H 8755   7.934   6.478   1.541  3.1122 -2.0226  1.5565
   65MOL0     H 8756   7.997   6.371   1.411  1.7383 -0.8036  3.2313
   65MOL0     H 8757   9.041   6.889   1.633 -1.2163  0.1093 -0.8464
   65MOL0     H 8758   9.191   6.951   1.838  0.3594  1.0543 -1.5037
   65MOL0     H 8759   9.278   7.198   2.143 -1.1850 -1.4179 -0.4714
   65MOL0     H 8760   9.460   7.275   2.286 -0.9403  1.8239  0.7548
   65MOL0     H 8761  10.689   7.488   3.925 -2.0009 -1.1561 -4.4417
   65MOL0     H 8762  10.908   7.559   4.011 -1.5646  0.4779 -0.1055
   65MOL0     H 8763  11.536   7.510   3.850  0.3461 -2.8786 -0.7687
   65MOL0     H 8764  11.716   7.519   4.031  1.3839 -1.7150  1.0686
   65MOL0     H 8765  11.840   7.413   4.179  1.9123  1.9225 -0.7349
   65MOL0     H 8766  11.860   7.558   4.271 -1.5306  1.1726 -4.2972
   65MOL0     H 8767  11.776   7.279   4.403  0.3483 -0.2474  1.7842
   65MOL0     H 8768  11.869   7.406   4.475  1.2059  0.8105 -0.7968
   65MOL0     H 8769  12.070   7.351   4.322 -3.6453  4.0733 -0.3882
   65MOL0     H 8770  11.962   7.236   4.256 -4.3002  1.8752 -0.5120
   65MOL0     H 8771  12.111   7.121   4.455 -1.7893 -1.3686  0.4191
   65MOL0     H 8772  11.947   7.135   4.512 -1.0324  0.4170 -0.5547
   65MOL0     H 8773  12.189   7.390   4.752  0.5699 -1.5003  0.6550
   65MOL0     H 8774  11.420   7.456   4.330 -0.8249  0.2268  0.2093
   65MOL0     H 8775  11.248   7.427   4.170 -0.4049  0.9065  0.7942
   66MOL0     O 8776   8.485   4.588   3.201 -0.0918 -0.2693  0.2202
   66MOL0     C 8777   8.535   4.474   3.192 -0.1177  0.0302 -0.5876
   66MOL0     O 8778   8.472   4.350   3.206  0.0953 -0.0791  0.5434
   66MOL0     C 8779   8.338   4.348   3.185 -0.4324  0.2733 -0.2297
   66MOL0     C 8780   8.261   4.396   3.291  0.1046 -0.2164 -0.1845
   66MOL0     C 8781   8.122   4.403   3.282  0.7926 -0.2709  0.1429
   66MOL0     C 8782   8.061   4.336   3.172  0.3257 -0.7779 -0.7384
   66MOL0     O 8783   7.927   4.349   3.177 -0.2067  0.3930 -0.1644
   66MOL0     C 8784   7.844   4.277   3.088 -0.2261  0.5265 -0.6711
   66MOL0     C 8785   7.706   4.318   3.129 -0.2876  0.0660 -0.0136
   66MOL0     C 8786   7.607   4.210   3.090 -0.3191 -0.4929 -0.7717
   66MOL0     C 8787   7.467   4.242   3.119 -0.0961 -0.7054  0.7116
   66MOL0     C 8788   7.381   4.116   3.103  0.0402  0.6609  0.2575
   66MOL0     C 8789   7.237   4.124   3.165  0.2377 -0.7927  0.2670
   66MOL0     C 8790   7.172   3.986   3.134  0.2577 -0.4875  0.2435
   66MOL0     C 8791   7.034   3.974   3.185  1.0276  0.8748 -0.3820
   66MOL0     N 8792   6.986   3.835   3.149  0.5818  0.0899  0.6951
   66MOL0     C 8793   6.892   3.815   3.049 -0.1168 -0.1624 -0.6672
   66MOL0     C 8794   6.888   3.685   3.040  0.2967  0.3224 -0.6275
   66MOL0     C 8795   6.816   3.600   2.941  0.5937  0.6556 -0.3391
   66MOL0     C 8796   6.667   3.627   2.953  0.5226  0.2131 -0.3101
   66MOL0     C 8797   6.608   3.546   3.073 -0.8064  0.2253 -0.2053
   66MOL0     C 8798   6.460   3.563   3.101 -0.0266 -0.3929  0.8131
   66MOL0     O 8799   6.380   3.522   2.987 -0.6555  0.4613  0.8223
   66MOL0     C 8800   6.239   3.534   2.984 -0.3274  0.5590  0.3424
   66MOL0     C 8801   6.177   3.506   2.862  0.2700  0.2720  0.4863
   66MOL0     C 8802   6.029   3.522   2.852 -0.3785 -0.5990  0.0436
   66MOL0     C 8803   5.968   3.510   2.713  0.5565  0.1030 -0.5810
   66MOL0     C 8804   5.964   3.554   2.972  0.4295  0.2895 -0.2889
   66MOL0     C 8805   5.816   3.551   2.985  0.2153  0.1505  1.1905
   66MOL0     O 8806   5.763   3.580   3.103  0.7351  0.6579 -0.4414
   66MOL0     C 8807   5.632   3.598   3.110 -0.0125 -0.4728  0.9487
   66MOL0     C 8808   5.545   3.503   3.153 -0.4192 -0.0307 -0.3743
   66MOL0     C 8809   5.414   3.521   3.169 -0.0691  0.7166  0.1224
   66MOL0     C 8810   5.355   3.644   3.132  0.0563  0.2317  0.5003
   66MOL0     O 8811   5.218   3.673   3.138 -0.5825 -0.8005  0.0914
   66MOL0     C 8812   5.125   3.567   3.167 -0.7900  0.6354  0.5551
   66MOL0     C 8813   4.998   3.634   3.220 -0.4644 -0.0486 -0.2631
   66MOL0     C 8814   4.894   3.528   3.259  0.4078  0.3842 -0.8663
   66MOL0     C 8815   4.747   3.585   3.283 -0.1436 -0.4988  0.1389
   66MOL0     C 8816   4.727   3.686   3.393  0.7374  0.1320  0.3765
   66MOL0     C 8817   4.752   3.639   3.532 -0.3286  0.1401 -1.0667
   66MOL0     C 8818   4.665   3.517   3.580  0.4942 -0.8503 -0.1899
   66MOL0     C 8819   4.665   3.495   3.730 -0.0144  1.0216  0.1957
   66MOL0    Cl 8820   4.580   3.640   3.795  0.0915  0.1818 -0.1577
   66MOL0     C 8821   5.441   3.745   3.088  0.2538 -0.1677 -0.2258
   66MOL0     C 8822   5.577   3.729   3.077 -0.0196 -0.2217 -0.3275
   66MOL0     O 8823   5.756   3.486   2.894 -0.2758 -0.8846  0.2438
   66MOL0     C 8824   6.038   3.594   3.081  0.1863 -0.3417 -0.3680
   66MOL0     C 8825   6.171   3.575   3.099 -0.6777  0.1548  0.9360
   66MOL0     N 8826   6.968   3.627   3.136 -0.5707  0.6341  0.2585
   66MOL0     N 8827   7.044   3.716   3.187  0.0440  0.3958 -0.9449
   66MOL0     C 8828   8.144   4.278   3.074  0.8566  0.9233  0.8421
   66MOL0     C 8829   8.278   4.283   3.075  0.0572  0.5360 -0.1556
   66MOL0     C 8830   8.683   4.459   3.160 -0.1719  0.6176  0.1382
   66MOL0     C 8831   8.746   4.331   3.178 -0.2924 -0.8716  1.5518
   66MOL0     C 8832   8.884   4.328   3.167 -0.2709 -0.3076 -0.2750
   66MOL0     C 8833   8.957   4.440   3.134 -0.5969  0.3270 -0.3906
   66MOL0     O 8834   9.094   4.434   3.132 -0.2721 -0.5125  0.3376
   66MOL0     C 8835   9.160   4.312   3.140 -0.1931  0.4911  0.0412
   66MOL0     C 8836   9.297   4.341   3.081 -0.1908  0.4788 -0.1008
   66MOL0     C 8837   9.294   4.332   2.935 -0.3481 -0.3964  0.5610
   66MOL0     C 8838   9.429   4.338   2.852 -0.2215 -0.6660 -0.6277
   66MOL0     C 8839   9.510   4.455   2.876  0.3495 -0.1721  1.1413
   66MOL0     C 8840   9.583   4.551   2.899 -0.0940  0.9203 -0.3104
   66MOL0     C 8841   8.894   4.568   3.107  0.0328  0.9389 -0.0749
   66MOL0     C 8842   8.755   4.578   3.132  0.8360 -0.4889 -0.1978
   66MOL0     H 8843   8.302   4.448   3.377  1.5278 -2.9207  0.8645
   66MOL0     H 8844   8.068   4.465   3.352  0.3492  1.4129 -1.6106
   66MOL0     H 8845   7.864   4.305   2.985  0.2790  4.1747  0.2908
   66MOL0     H 8846   7.852   4.169   3.107  1.8759  0.7070 -0.3403
   66MOL0     H 8847   7.705   4.342   3.235 -3.1850 -0.7316  0.1991
   66MOL0     H 8848   7.677   4.415   3.086 -0.2892  1.0431  2.0634
   66MOL0     H 8849   7.610   4.190   2.982 -0.5557 -0.2308 -0.8280
   66MOL0     H 8850   7.629   4.116   3.141  0.6928  0.4147  0.5414
   66MOL0     H 8851   7.462   4.277   3.222 -2.2046  3.5753 -0.6078
   66MOL0     H 8852   7.422   4.324   3.062 -0.9672 -2.2726 -0.9637
   66MOL0     H 8853   7.376   4.102   2.994 -1.9540  1.0370  0.2610
   66MOL0     H 8854   7.435   4.031   3.146  1.4027 -0.3571 -3.1143
   66MOL0     H 8855   7.233   4.137   3.273 -2.3303  1.5764 -0.0082
   66MOL0     H 8856   7.186   4.207   3.115  2.0150 -1.7228 -3.4758
   66MOL0     H 8857   7.172   3.964   3.027 -0.6760 -1.5099  0.4433
   66MOL0     H 8858   7.230   3.908   3.185 -0.0165 -1.9102 -1.5456
   66MOL0     H 8859   6.968   4.047   3.138 -0.5771  1.0674  1.9616
   66MOL0     H 8860   7.024   3.977   3.294  2.0458  0.7999 -0.2795
   66MOL0     H 8861   6.840   3.875   2.975 -0.4800  0.0389 -0.2471
   66MOL0     H 8862   6.844   3.622   2.837 -0.8996  3.8858 -0.1759
   66MOL0     H 8863   6.831   3.493   2.960 -0.5917  0.2401 -1.5614
   66MOL0     H 8864   6.610   3.605   2.862  0.4810  0.5770 -0.3743
   66MOL0     H 8865   6.639   3.732   2.958 -0.2735  0.1594 -2.3476
   66MOL0     H 8866   6.668   3.568   3.161  1.7719 -2.1385 -1.2118
   66MOL0     H 8867   6.638   3.442   3.056  0.2723  0.3906  0.5503
   66MOL0     H 8868   6.426   3.664   3.123 -2.1270 -0.6631 -0.8559
   66MOL0     H 8869   6.442   3.503   3.192 -0.8999  0.2882  1.1044
   66MOL0     H 8870   6.233   3.480   2.773 -1.6826  1.4828 -1.2014
   66MOL0     H 8871   5.898   3.429   2.692 -0.2785  0.9617 -1.1931
   66MOL0     H 8872   5.917   3.606   2.699  1.5885  0.5157 -1.6534
   66MOL0     H 8873   6.056   3.502   2.649  0.6096 -1.1560 -0.3746
   66MOL0     H 8874   5.592   3.409   3.181 -0.2377 -0.2266 -1.2781
   66MOL0     H 8875   5.345   3.445   3.205  0.3540 -0.2325 -0.9856
   66MOL0     H 8876   5.101   3.517   3.072  2.8236 -1.3339  0.5222
   66MOL0     H 8877   5.163   3.504   3.248 -2.1655 -1.7080 -0.5127
   66MOL0     H 8878   5.025   3.703   3.300  2.5840 -0.1115 -1.1004
   66MOL0     H 8879   4.953   3.690   3.137 -0.8977 -0.5107 -0.3458
   66MOL0     H 8880   4.927   3.481   3.352  0.2580 -0.3473 -1.1747
   66MOL0     H 8881   4.889   3.441   3.192 -0.8603  0.7624 -1.2752
   66MOL0     H 8882   4.709   3.615   3.185 -0.1367 -3.1060 -0.7283
   66MOL0     H 8883   4.685   3.499   3.310 -1.2120  0.7727  1.9342
   66MOL0     H 8884   4.626   3.728   3.390  1.3007  1.4547 -1.3556
   66MOL0     H 8885   4.789   3.772   3.365 -1.3539  1.0376 -1.8178
   66MOL0     H 8886   4.854   3.602   3.544 -0.7611 -0.4711  1.4112
   66MOL0     H 8887   4.746   3.725   3.599  4.0289 -0.2540  0.1106
   66MOL0     H 8888   4.714   3.426   3.543  3.6723  1.1987 -1.5041
   66MOL0     H 8889   4.570   3.519   3.526  0.9463  1.7162 -1.0536
   66MOL0     H 8890   4.766   3.495   3.773 -0.3986 -0.9977  1.2016
   66MOL0     H 8891   4.609   3.403   3.749 -0.5155  1.2039 -0.3616
   66MOL0     H 8892   5.397   3.840   3.059  0.1441 -0.5294 -1.2785
   66MOL0     H 8893   5.647   3.809   3.052  0.0443  0.4775  1.8677
   66MOL0     H 8894   5.982   3.633   3.165  1.0342  0.0597  0.0326
   66MOL0     H 8895   6.215   3.602   3.195 -0.3723  0.9388  0.5806
   66MOL0     H 8896   8.099   4.216   2.997  1.8904  0.6361  0.4507
   66MOL0     H 8897   8.345   4.244   2.999 -0.3847  0.0596 -0.3068
   66MOL0     H 8898   8.697   4.234   3.184 -0.4342 -1.0580 -1.1693
   66MOL0     H 8899   8.927   4.235   3.204 -3.2035 -1.6973 -0.0229
   66MOL0     H 8900   9.177   4.273   3.241 -3.0012 -0.9300  0.0765
   66MOL0     H 8901   9.119   4.236   3.073  2.7170  1.3249 -2.9487
   66MOL0     H 8902   9.357   4.254   3.110 -0.6877 -0.6562 -2.1955
   66MOL0     H 8903   9.345   4.436   3.105 -0.3913  1.7745 -4.0595
   66MOL0     H 8904   9.235   4.416   2.899 -0.0514 -0.7795 -0.8844
   66MOL0     H 8905   9.245   4.237   2.910 -3.8789  1.3208  0.3138
   66MOL0     H 8906   9.399   4.336   2.746  0.6447  2.0452 -1.0034
   66MOL0     H 8907   9.492   4.252   2.873  1.0723  0.4498  0.1882
   66MOL0     H 8908   9.651   4.631   2.921  1.0773 -0.5549  1.8814
   66MOL0     H 8909   8.965   4.649   3.092  0.6701  0.3049 -0.5857
   66MOL0     H 8910   8.693   4.667   3.139 -0.3046 -1.2849  0.2413
   67MOL0     O 8911   2.708   4.706   3.255  1.0236 -0.4511  0.0849
   67MOL0     C 8912   2.784   4.802   3.260 -0.2521  0.4848 -0.5055
   67MOL0     O 8913   2.757   4.920   3.324 -0.2225 -0.4244 -0.1012
   67MOL0     C 8914   2.657   4.914   3.420  0.8058  0.2604  0.0336
   67MOL0     C 8915   2.527   4.952   3.371  0.2286 -0.1341  0.1681
   67MOL0     C 8916   2.411   4.954   3.458 -0.7339  0.1471  0.2019
   67MOL0     C 8917   2.429   4.910   3.590  0.0207  0.3474  0.2829
   67MOL0     O 8918   2.332   4.881   3.677 -0.2005 -0.3584 -0.3577
   67MOL0     C 8919   2.216   4.956   3.672  0.2433 -0.2944 -0.4033
   67MOL0     C 8920   2.107   4.879   3.744  0.9102  0.0480 -0.9608
   67MOL0     C 8921   1.963   4.893   3.688 -1.0380  0.3826 -0.4064
   67MOL0     C 8922   1.949   4.820   3.555 -0.9197  0.0253 -0.2792
   67MOL0     C 8923   1.826   4.848   3.470 -0.6397 -0.2739 -0.5602
   67MOL0     C 8924   1.694   4.857   3.546 -0.6125  0.1756  0.2784
   67MOL0     C 8925   1.576   4.846   3.447  0.5675 -0.1228  0.2929
   67MOL0     C 8926   1.552   4.703   3.393  0.7155  0.4266 -0.4444
   67MOL0     N 8927   1.501   4.607   3.499  0.0572 -0.5124  0.5876
   67MOL0     C 8928   1.387   4.621   3.572 -0.2720 -0.0388 -0.3412
   67MOL0     C 8929   1.372   4.508   3.640 -0.7738 -0.1545  1.0795
   67MOL0     C 8930   1.258   4.487   3.733 -0.5598 -0.1264 -0.0358
   67MOL0     C 8931   1.122   4.484   3.665  0.9220 -0.3992 -0.4659
   67MOL0     C 8932   1.000   4.467   3.763 -0.6936 -0.6711  0.1810
   67MOL0     C 8933   0.978   4.598   3.852  0.5387  0.0821  0.0873
   67MOL0     O 8934   0.946   4.714   3.770  0.1749 -0.3474  0.7849
   67MOL0     C 8935   0.907   4.830   3.823  0.3771 -1.0460  0.0447
   67MOL0     C 8936   0.887   4.849   3.960 -0.7479 -0.6073 -0.1942
   67MOL0     C 8937   0.856   4.982   4.003 -0.1642 -0.5325 -0.4021
   67MOL0     C 8938   0.834   4.991   4.148 -0.7363 -0.3857  0.3966
   67MOL0     C 8939   0.852   5.092   3.913 -0.7729  0.0798  0.2662
   67MOL0     C 8940   0.801   5.227   3.948  0.5952  0.3706  0.3037
   67MOL0     O 8941   0.717   5.295   3.857 -0.3540 -0.5284 -0.9310
   67MOL0     C 8942   0.685   5.430   3.883 -0.0554 -0.1723 -1.1817
   67MOL0     C 8943   0.775   5.534   3.846  0.2759 -0.3975  0.2243
   67MOL0     C 8944   0.737   5.666   3.861 -0.3054  0.2217 -0.4836
   67MOL0     C 8945   0.624   5.690   3.939 -0.2844  0.1835  0.3846
   67MOL0     O 8946   0.614   5.821   3.973 -0.4043  0.3053  0.0527
   67MOL0     C 8947   0.506   5.858   4.054  0.2416 -0.1815  0.2905
   67MOL0     C 8948   0.508   6.008   4.066  0.0824 -0.5286  0.7607
   67MOL0     C 8949   0.599   6.058   4.174 -0.2686 -1.2434  0.0256
   67MOL0     C 8950   0.623   6.211   4.184  0.7906 -0.1807  0.1509
   67MOL0     C 8951   0.660   6.256   4.325  0.4767  0.0672  0.4737
   67MOL0     C 8952   0.637   6.406   4.356 -0.1423 -1.2479  0.9161
   67MOL0     C 8953   0.690   6.448   4.494  0.5096 -0.5639  0.3476
   67MOL0     C 8954   0.692   6.601   4.505  0.6590 -0.4133  0.1699
   67MOL0    Cl 8955   0.523   6.669   4.506 -0.2556  0.0373  0.0600
   67MOL0     C 8956   0.540   5.585   3.975  0.0989  0.6614  0.2143
   67MOL0     C 8957   0.573   5.453   3.955 -0.0703 -0.2244 -0.0418
   67MOL0     O 8958   0.837   5.271   4.054  0.2309 -0.4701 -0.1639
   67MOL0     C 8959   0.848   5.062   3.774 -0.4029  0.0485 -0.3483
   67MOL0     C 8960   0.875   4.933   3.728  0.0919  0.7459 -0.3258
   67MOL0     N 8961   1.483   4.424   3.610 -0.6175 -0.1841 -0.5793
   67MOL0     N 8962   1.559   4.490   3.522 -0.3102  0.3767 -0.2920
   67MOL0     C 8963   2.555   4.863   3.628 -0.0893  0.6938 -0.1084
   67MOL0     C 8964   2.673   4.874   3.552  0.2001  0.3586  0.0107
   67MOL0     C 8965   2.908   4.807   3.174  0.2174 -0.0548 -0.4060
   67MOL0     C 8966   2.984   4.927   3.160 -0.4381 -0.0975  0.1580
   67MOL0     C 8967   3.091   4.929   3.072  0.5349  1.0369  0.0062
   67MOL0     C 8968   3.136   4.813   3.001  1.0137 -0.5694 -0.4171
   67MOL0     O 8969   3.247   4.824   2.920  0.0512 -0.9585 -0.2274
   67MOL0     C 8970   3.316   4.707   2.875 -1.6410  0.9604  1.2243
   67MOL0     C 8971   3.428   4.733   2.762  0.1748 -0.1102 -0.5068
   67MOL0     C 8972   3.558   4.781   2.824  0.0536  0.3515  0.0161
   67MOL0     C 8973   3.639   4.672   2.892  0.3479  0.9117  0.5480
   67MOL0     C 8974   3.679   4.562   2.807  0.1005  0.1742 -0.1482
   67MOL0     C 8975   3.724   4.461   2.752 -0.2217  0.2800  0.0281
   67MOL0     C 8976   3.076   4.689   3.028 -0.1900 -0.1608 -0.4143
   67MOL0     C 8977   2.957   4.691   3.103 -0.0787 -0.6525  0.4171
   67MOL0     H 8978   2.512   4.986   3.269 -1.3142 -2.4783 -0.4629
   67MOL0     H 8979   2.314   4.980   3.418  0.4239  1.5933 -1.8860
   67MOL0     H 8980   2.221   5.056   3.716  0.0118  0.1794 -1.4053
   67MOL0     H 8981   2.170   4.983   3.576 -0.6424 -1.1128 -0.2307
   67MOL0     H 8982   2.130   4.773   3.732 -0.2257 -0.4957  1.2025
   67MOL0     H 8983   2.108   4.902   3.851 -1.2523 -1.4624 -0.5594
   67MOL0     H 8984   1.889   4.852   3.758  1.1299 -0.6712  1.4067
   67MOL0     H 8985   1.959   5.002   3.685  1.7552  0.6377  1.1796
   67MOL0     H 8986   2.033   4.836   3.487 -0.5466  0.8078  0.3511
   67MOL0     H 8987   1.943   4.714   3.585 -1.6949  0.3033  0.5906
   67MOL0     H 8988   1.841   4.944   3.419  0.0443  0.6166  1.2234
   67MOL0     H 8989   1.827   4.776   3.387  1.4291  1.5173 -2.2480
   67MOL0     H 8990   1.691   4.780   3.624 -0.6073 -0.7576 -0.6188
   67MOL0     H 8991   1.698   4.953   3.599 -1.9523 -0.5891  1.8634
   67MOL0     H 8992   1.489   4.890   3.497  1.5227  0.0824  1.8368
   67MOL0     H 8993   1.592   4.918   3.366  3.0538  0.2915  1.0426
   67MOL0     H 8994   1.650   4.667   3.361  0.9208  1.1911 -0.7020
   67MOL0     H 8995   1.487   4.701   3.305  0.6795  2.3714 -0.5042
   67MOL0     H 8996   1.326   4.710   3.578 -1.4366 -0.9032  2.0111
   67MOL0     H 8997   1.274   4.405   3.803  1.5925  2.8757  3.3712
   67MOL0     H 8998   1.263   4.575   3.799  0.9024 -1.3767  1.6053
   67MOL0     H 8999   1.118   4.401   3.594 -1.5377 -1.7150  1.0536
   67MOL0     H 9000   1.104   4.579   3.613 -3.8403 -0.2849  0.9321
   67MOL0     H 9001   1.015   4.380   3.828  0.2182 -0.9451 -0.3817
   67MOL0     H 9002   0.911   4.447   3.704  0.9918 -3.2546 -1.7119
   67MOL0     H 9003   1.067   4.617   3.914 -0.4103  1.1086  1.1842
   67MOL0     H 9004   0.893   4.582   3.918 -0.7162 -1.1352 -1.7374
   67MOL0     H 9005   0.913   4.777   4.036  0.7924  0.9250  0.8021
   67MOL0     H 9006   0.744   5.047   4.175  0.2311  0.2713  2.4799
   67MOL0     H 9007   0.842   4.889   4.186  1.2494 -2.4585 -4.7145
   67MOL0     H 9008   0.924   5.048   4.175  0.1313 -1.2588 -0.5639
   67MOL0     H 9009   0.869   5.525   3.791 -0.5054 -1.1337 -1.0196
   67MOL0     H 9010   0.802   5.748   3.834 -1.3892  0.9107 -1.0554
   67MOL0     H 9011   0.421   5.819   3.999 -1.1837  3.5110 -0.4213
   67MOL0     H 9012   0.519   5.805   4.149 -0.2879 -0.4681  0.2051
   67MOL0     H 9013   0.541   6.036   3.965  4.6209 -2.0473  1.6003
   67MOL0     H 9014   0.403   6.032   4.085 -0.5832 -2.0091 -0.7904
   67MOL0     H 9015   0.700   6.018   4.157  1.1562  2.8258 -2.5795
   67MOL0     H 9016   0.561   6.023   4.270  2.8294  0.0474  1.8603
   67MOL0     H 9017   0.689   6.244   4.103  0.1871 -3.1516 -1.6831
   67MOL0     H 9018   0.530   6.266   4.162  0.6896  0.2911  1.6209
   67MOL0     H 9019   0.763   6.227   4.347 -0.4738 -2.6583  1.7915
   67MOL0     H 9020   0.603   6.202   4.401  2.5031  2.2641  3.8230
   67MOL0     H 9021   0.692   6.468   4.284  1.5179 -2.9064  0.6794
   67MOL0     H 9022   0.533   6.435   4.337  0.3888  1.3444  1.5124
   67MOL0     H 9023   0.786   6.397   4.509  0.1402 -1.3003  0.2692
   67MOL0     H 9024   0.634   6.418   4.583 -1.5689 -1.1662 -1.0966
   67MOL0     H 9025   0.755   6.650   4.430 -1.9659  1.7992 -0.7701
   67MOL0     H 9026   0.745   6.618   4.599  0.6065 -0.8582  0.2803
   67MOL0     H 9027   0.457   5.625   4.032  0.8498  1.8607  0.5049
   67MOL0     H 9028   0.514   5.367   3.985 -2.7066  1.7245  0.7015
   67MOL0     H 9029   0.812   5.135   3.702  1.8797 -0.5066 -2.1868
   67MOL0     H 9030   0.882   4.905   3.623  0.4634  0.3519 -0.1994
   67MOL0     H 9031   2.560   4.831   3.732  1.2753 -3.4352 -1.2565
   67MOL0     H 9032   2.771   4.842   3.587  0.2780 -0.6458 -1.0456
   67MOL0     H 9033   2.964   5.016   3.218  2.0949  1.8238 -1.6973
   67MOL0     H 9034   3.144   5.023   3.055 -0.0492  1.2439 -0.6851
   67MOL0     H 9035   3.367   4.668   2.963  0.5199  0.8929  0.0208
   67MOL0     H 9036   3.255   4.626   2.833  1.7645 -0.6473 -1.0570
   67MOL0     H 9037   3.398   4.812   2.692 -0.3678 -0.2439 -0.4318
   67MOL0     H 9038   3.446   4.642   2.705  0.0660 -0.8728  0.6446
   67MOL0     H 9039   3.556   4.861   2.899  0.8664  1.4165 -1.0612
   67MOL0     H 9040   3.611   4.817   2.735 -0.0427 -0.2028 -0.2725
   67MOL0     H 9041   3.571   4.641   2.972 -3.3746  3.6273 -1.2634
   67MOL0     H 9042   3.730   4.715   2.934  2.0145 -0.5457 -1.4100
   67MOL0     H 9043   3.754   4.364   2.717 -0.5807 -0.3904  1.4752
   67MOL0     H 9044   3.122   4.597   2.993 -1.0540 -1.4506  1.6588
   67MOL0     H 9045   2.904   4.596   3.105  0.5861 -1.1689 -2.2522
   68MOL0     O 9046   4.613   8.972   0.726 -0.5823 -0.2814 -0.0891
   68MOL0     C 9047   4.637   8.888   0.642  0.3798 -0.1590  0.0586
   68MOL0     O 9048   4.547   8.800   0.589  0.0879  0.6298 -0.0817
   68MOL0     C 9049   4.413   8.812   0.611 -0.3497 -0.5397 -0.2799
   68MOL0     C 9050   4.334   8.923   0.573 -0.4211 -0.3388 -0.1215
   68MOL0     C 9051   4.198   8.926   0.594 -0.2004 -0.8507  0.1752
   68MOL0     C 9052   4.132   8.813   0.630 -0.1111  0.1661 -0.3658
   68MOL0     O 9053   3.992   8.804   0.639  0.4781 -0.1437  0.4253
   68MOL0     C 9054   3.927   8.904   0.724  0.3045 -0.1755 -0.4805
   68MOL0     C 9055   3.776   8.880   0.716 -0.7769 -0.4870  0.0206
   68MOL0     C 9056   3.689   8.983   0.775  0.3247 -1.1632 -0.2765
   68MOL0     C 9057   3.540   8.947   0.777 -0.4113 -0.1845 -1.3001
   68MOL0     C 9058   3.456   9.063   0.832 -0.5035  0.4269  0.0664
   68MOL0     C 9059   3.305   9.041   0.809  0.1230  0.2348 -0.5889
   68MOL0     C 9060   3.229   9.172   0.820 -0.2113  0.8314 -0.5847
   68MOL0     C 9061   3.082   9.137   0.790  0.7226 -0.1549 -0.7399
   68MOL0     N 9062   3.023   9.053   0.892  1.3084 -0.4698  0.2460
   68MOL0     C 9063   2.974   9.105   1.002 -0.0689 -0.1856 -0.3766
   68MOL0     C 9064   2.912   8.996   1.066 -0.3941 -0.5249 -0.7618
   68MOL0     C 9065   2.851   9.011   1.197  0.1488 -0.0707 -0.3186
   68MOL0     C 9066   2.896   8.910   1.303 -0.1291 -1.3732 -0.5727
   68MOL0     C 9067   2.830   8.938   1.435 -0.5125  0.0893  0.4026
   68MOL0     C 9068   2.908   9.039   1.531 -0.2161 -0.5021  0.2732
   68MOL0     O 9069   2.884   9.175   1.496  0.1551  0.1348  0.7174
   68MOL0     C 9070   2.844   9.249   1.600  0.2288 -0.3718  0.0929
   68MOL0     C 9071   2.720   9.318   1.585  0.7694  0.1548  0.0038
   68MOL0     C 9072   2.655   9.396   1.685 -0.4786 -0.3695  0.3102
   68MOL0     C 9073   2.523   9.451   1.642  0.9248  0.1961 -0.0017
   68MOL0     C 9074   2.729   9.416   1.809  0.7141 -0.8735 -0.0976
   68MOL0     C 9075   2.674   9.507   1.918 -0.3702 -0.0515 -0.0227
   68MOL0     O 9076   2.565   9.567   1.891 -0.0869 -0.7733  0.4573
   68MOL0     C 9077   2.493   9.654   1.974  0.4108  0.8062 -0.1698
   68MOL0     C 9078   2.515   9.700   2.104 -0.0813 -0.0467  0.5808
   68MOL0     C 9079   2.418   9.763   2.181 -0.2802  0.0281  0.3332
   68MOL0     C 9080   2.292   9.779   2.125 -0.3037  0.2394 -0.0669
   68MOL0     O 9081   2.190   9.838   2.191 -1.0271 -0.3048 -0.5174
   68MOL0     C 9082   2.164   9.797   2.335 -0.3562 -0.1522  0.8149
   68MOL0     C 9083   2.020   9.756   2.338 -0.6132  0.7183  0.5084
   68MOL0     C 9084   1.968   9.718   2.483 -0.7890  0.8078  1.2047
   68MOL0     C 9085   2.045   9.600   2.544  0.1505 -0.5946 -0.9091
   68MOL0     C 9086   1.993   9.576   2.691 -0.2029 -0.4585  0.4357
   68MOL0     C 9087   2.091   9.492   2.768  0.9943 -0.8613 -0.9623
   68MOL0     C 9088   2.027   9.434   2.892 -0.5239 -0.4580 -0.0957
   68MOL0     C 9089   2.013   9.540   3.001 -0.3292  0.1526 -0.8199
   68MOL0    Cl 9090   1.918   9.481   3.148 -0.1123 -0.0508 -0.0988
   68MOL0     C 9091   2.265   9.745   1.994  0.7331  0.4248  0.0503
   68MOL0     C 9092   2.371   9.696   1.914 -0.0848  0.8655 -0.5988
   68MOL0     O 9093   2.730   9.507   2.028 -0.0300 -1.1936 -0.5270
   68MOL0     C 9094   2.850   9.347   1.823  0.0521  0.0815  0.2527
   68MOL0     C 9095   2.904   9.266   1.721  0.3447 -0.4472 -0.2139
   68MOL0     N 9096   2.903   8.891   0.975 -0.7217 -0.2626 -0.4584
   68MOL0     N 9097   2.976   8.924   0.876 -0.9382 -0.5936  0.2836
   68MOL0     C 9098   4.199   8.700   0.660  0.3530 -0.6811 -0.6723
   68MOL0     C 9099   4.341   8.700   0.657 -0.0131  0.1241  0.1135
   68MOL0     C 9100   4.783   8.880   0.600 -0.6663  0.2223 -0.7956
   68MOL0     C 9101   4.833   8.770   0.531  0.0481  0.1042  0.0946
   68MOL0     C 9102   4.975   8.758   0.510  0.5761 -0.1123  0.1971
   68MOL0     C 9103   5.062   8.860   0.541 -0.4151 -0.8314  0.2502
   68MOL0     O 9104   5.185   8.847   0.493 -0.6164 -0.4251 -0.6216
   68MOL0     C 9105   5.295   8.898   0.575 -0.7059  0.1690  0.5908
   68MOL0     C 9106   5.429   8.831   0.539  0.0715 -0.4393 -0.4975
   68MOL0     C 9107   5.465   8.822   0.390  0.7598 -0.9438 -0.3707
   68MOL0     C 9108   5.586   8.741   0.370 -0.9089  0.0935 -0.2954
   68MOL0     C 9109   5.706   8.798   0.450  0.1661 -0.7127  0.1914
   68MOL0     C 9110   5.787   8.836   0.521  0.2322  0.1512 -0.0992
   68MOL0     C 9111   5.011   8.976   0.612 -0.5061  0.8217 -0.2504
   68MOL0     C 9112   4.876   8.980   0.644 -0.1478 -0.4544  0.2994
   68MOL0     H 9113   4.388   9.000   0.518 -1.6285  0.8751  0.3217
   68MOL0     H 9114   4.150   9.021   0.576 -0.7155 -0.8742  1.3658
   68MOL0     H 9115   3.967   8.904   0.825 -2.2879 -1.4161  0.6385
   68MOL0     H 9116   3.934   9.002   0.674 -0.9505 -1.6041 -3.7336
   68MOL0     H 9117   3.750   8.879   0.609 -3.2948 -2.2493  0.5404
   68MOL0     H 9118   3.759   8.780   0.757 -0.5227 -0.6477 -0.2528
   68MOL0     H 9119   3.722   8.999   0.878 -3.7693 -1.5373  1.2808
   68MOL0     H 9120   3.696   9.078   0.721  0.8329  0.5926  2.6522
   68MOL0     H 9121   3.510   8.923   0.675 -3.7398 -0.5440 -0.3582
   68MOL0     H 9122   3.533   8.860   0.843  1.3285 -1.0308 -2.1618
   68MOL0     H 9123   3.484   9.077   0.936 -0.5714 -1.1019  0.3186
   68MOL0     H 9124   3.483   9.156   0.781  0.1652 -1.7496 -4.0378
   68MOL0     H 9125   3.291   9.000   0.709 -3.9993 -0.9940  0.2971
   68MOL0     H 9126   3.272   8.963   0.878  2.1691 -0.3530 -0.1888
   68MOL0     H 9127   3.243   9.223   0.917 -0.0294  0.9824 -0.6878
   68MOL0     H 9128   3.263   9.242   0.743 -1.7193  3.1005  0.6777
   68MOL0     H 9129   3.084   9.104   0.685 -3.1332  1.0759 -1.3955
   68MOL0     H 9130   3.028   9.232   0.790 -1.6851 -1.3452  2.4007
   68MOL0     H 9131   2.985   9.203   1.048  0.7400 -0.2491 -0.4284
   68MOL0     H 9132   2.880   9.112   1.225  3.5291 -0.5669 -1.5061
   68MOL0     H 9133   2.742   9.013   1.197  0.1185 -0.8712  0.6586
   68MOL0     H 9134   3.004   8.909   1.317 -0.0287  0.3177 -0.9617
   68MOL0     H 9135   2.864   8.808   1.281  2.6829 -1.7878 -3.4835
   68MOL0     H 9136   2.847   8.841   1.482 -0.5885 -0.6282 -1.0356
   68MOL0     H 9137   2.724   8.960   1.418 -0.3134 -0.8821 -2.5652
   68MOL0     H 9138   3.016   9.021   1.525 -0.1963  0.1353 -2.6077
   68MOL0     H 9139   2.884   9.010   1.633  2.9811 -3.0938  0.4618
   68MOL0     H 9140   2.667   9.283   1.497  0.8702 -1.1399  0.4411
   68MOL0     H 9141   2.449   9.447   1.723  1.1945 -1.2211  0.2020
   68MOL0     H 9142   2.531   9.553   1.604  2.3021  0.0533 -0.1308
   68MOL0     H 9143   2.486   9.385   1.562  0.4571 -0.4859  0.7554
   68MOL0     H 9144   2.609   9.665   2.145  3.0466 -0.9511 -6.0849
   68MOL0     H 9145   2.447   9.792   2.282  2.6847  0.2759 -0.5170
   68MOL0     H 9146   2.220   9.707   2.360  0.6846 -0.3369 -1.9232
   68MOL0     H 9147   2.179   9.882   2.403 -0.2382 -0.1895  0.8348
   68MOL0     H 9148   1.967   9.842   2.295 -0.4839  0.4407 -0.2167
   68MOL0     H 9149   2.007   9.668   2.275 -1.5152 -0.1169  1.8351
   68MOL0     H 9150   1.863   9.688   2.494 -0.0860 -1.5162  2.0399
   68MOL0     H 9151   1.971   9.812   2.540 -1.7499  0.5973  1.6229
   68MOL0     H 9152   2.021   9.505   2.497 -4.3601 -0.5459  0.7701
   68MOL0     H 9153   2.149   9.627   2.560 -0.5116  0.3354  2.7735
   68MOL0     H 9154   1.893   9.531   2.693  0.0958 -1.3391 -1.7491
   68MOL0     H 9155   1.986   9.676   2.735 -1.5028  0.2438 -1.2142
   68MOL0     H 9156   2.119   9.415   2.696 -3.5427 -1.0570 -2.9034
   68MOL0     H 9157   2.172   9.561   2.792 -1.2178  1.5362  0.1297
   68MOL0     H 9158   2.094   9.352   2.921  3.8288  2.3719 -1.2122
   68MOL0     H 9159   1.929   9.394   2.865  0.3801 -1.1122 -2.6912
   68MOL0     H 9160   1.975   9.634   2.960  1.6437  0.3852 -2.3106
   68MOL0     H 9161   2.114   9.567   3.034 -0.3219  1.7026 -1.9801
   68MOL0     H 9162   2.162   9.744   1.961  0.7850  0.1136 -0.1107
   68MOL0     H 9163   2.360   9.665   1.810  1.3036  1.0223 -0.8091
   68MOL0     H 9164   2.905   9.351   1.916  0.0959  1.2960  0.1868
   68MOL0     H 9165   2.999   9.217   1.741  1.1007  0.6842 -0.9034
   68MOL0     H 9166   4.148   8.605   0.673  0.6352 -0.7923 -0.3687
   68MOL0     H 9167   4.394   8.607   0.678 -2.1498 -0.9364  1.1016
   68MOL0     H 9168   4.767   8.686   0.512  0.2938 -0.1893  0.5211
   68MOL0     H 9169   5.009   8.668   0.459 -1.1907  0.3533 -1.9646
   68MOL0     H 9170   5.312   9.005   0.562 -0.1584 -0.0010 -0.1955
   68MOL0     H 9171   5.266   8.884   0.679 -0.6582  0.0553  0.5891
   68MOL0     H 9172   5.424   8.729   0.580  4.1180 -0.1081  1.3769
   68MOL0     H 9173   5.513   8.879   0.590 -0.6478 -0.0675  0.3505
   68MOL0     H 9174   5.480   8.923   0.349 -1.9786  0.3485  1.4789
   68MOL0     H 9175   5.388   8.768   0.335 -0.4211  1.0659 -0.8112
   68MOL0     H 9176   5.613   8.730   0.265  1.0555 -2.0947  0.3480
   68MOL0     H 9177   5.562   8.638   0.396 -2.1669 -0.4860 -3.3842
   68MOL0     H 9178   5.865   8.884   0.577 -0.6621  1.8954 -0.2647
   68MOL0     H 9179   5.068   9.051   0.666 -2.6831  2.8329 -0.5994
   68MOL0     H 9180   4.849   9.059   0.713  0.4835 -0.5150  0.6180
   69MOL0     O 9181   8.561   2.129   4.623  0.2495  0.0280  0.7906
   69MOL0     C 9182   8.600   2.108   4.730 -0.0700 -0.2843  0.7423
   69MOL0     O 9183   8.543   2.047   4.838  0.1471 -0.0003  0.1023
   69MOL0     C 9184   8.412   1.999   4.845 -1.5274 -0.4296  0.4074
   69MOL0     C 9185   8.326   2.000   4.729 -0.2615 -0.4311 -0.7161
   69MOL0     C 9186   8.203   1.947   4.746  0.2493  0.2525  0.3287
   69MOL0     C 9187   8.160   1.885   4.861  0.7276  0.5045 -0.0956
   69MOL0     O 9188   8.033   1.845   4.866  0.2134 -0.0550 -0.1338
   69MOL0     C 9189   7.920   1.942   4.850  0.0878  0.1198  0.2615
   69MOL0     C 9190   7.808   1.909   4.947  0.2737 -0.0534 -0.6187
   69MOL0     C 9191   7.732   1.790   4.895  0.3669 -0.0060  0.2472
   69MOL0     C 9192   7.611   1.750   4.985  0.6434  0.1966 -0.1371
   69MOL0     C 9193   7.529   1.875   5.038 -1.1691 -0.2683  0.7756
   69MOL0     C 9194   7.405   1.835   5.110  0.0833  0.6966 -0.2196
   69MOL0     C 9195   7.334   1.967   5.153 -0.1853 -0.3914 -0.0021
   69MOL0     C 9196   7.228   1.949   5.260  0.0590  0.1071  0.0695
   69MOL0     N 9197   7.144   2.061   5.295 -0.2248 -0.0536 -0.1408
   69MOL0     C 9198   7.024   2.042   5.359 -0.7498 -0.0979  0.2941
   69MOL0     C 9199   6.980   2.170   5.358  0.3603  0.2461  0.2732
   69MOL0     C 9200   6.853   2.229   5.419 -0.2609  0.3075 -0.2738
   69MOL0     C 9201   6.727   2.203   5.335  0.3803 -0.6375  0.3625
   69MOL0     C 9202   6.730   2.260   5.189 -0.6153  0.8084  0.3305
   69MOL0     C 9203   6.601   2.232   5.119  0.3809  1.0229  0.5080
   69MOL0     O 9204   6.505   2.331   5.168 -0.1852  0.0444  0.0853
   69MOL0     C 9205   6.372   2.313   5.129 -0.0949  0.3163  0.5794
   69MOL0     C 9206   6.308   2.195   5.097  0.1777 -0.0745 -0.2593
   69MOL0     C 9207   6.176   2.188   5.053 -0.3646 -1.1971  0.1594
   69MOL0     C 9208   6.108   2.045   5.044 -0.3409 -0.1017  0.3074
   69MOL0     C 9209   6.102   2.304   5.022 -0.0016  0.3655 -0.3187
   69MOL0     C 9210   5.962   2.299   4.966 -0.3905  0.2964 -0.0123
   69MOL0     O 9211   5.931   2.208   4.866  1.0290 -0.2483  0.0214
   69MOL0     C 9212   5.807   2.215   4.804  0.0644  0.0921 -0.2396
   69MOL0     C 9213   5.783   2.292   4.688  1.1707  0.0962  0.0185
   69MOL0     C 9214   5.653   2.290   4.634 -0.1011  1.0247 -0.7545
   69MOL0     C 9215   5.549   2.208   4.685 -0.3709  0.0607  0.3672
   69MOL0     O 9216   5.420   2.213   4.632  0.4250 -0.5824  1.0022
   69MOL0     C 9217   5.321   2.229   4.734 -0.1221 -0.0306 -0.3835
   69MOL0     C 9218   5.195   2.308   4.692  0.9109  0.5729 -0.1600
   69MOL0     C 9219   5.139   2.275   4.555 -0.1879 -0.8346  0.0697
   69MOL0     C 9220   5.102   2.123   4.551  0.1498 -0.7208 -0.6799
   69MOL0     C 9221   5.049   2.068   4.417  0.1102 -0.8654  0.2966
   69MOL0     C 9222   4.903   2.103   4.393 -0.7090 -0.4493  0.1304
   69MOL0     C 9223   4.846   2.070   4.253 -0.4368  0.5532  0.5009
   69MOL0     C 9224   4.913   2.166   4.150  0.8958  0.8402 -0.4397
   69MOL0    Cl 9225   4.846   2.161   3.985  0.4413 -0.2995  0.4535
   69MOL0     C 9226   5.575   2.128   4.804 -1.1116  0.3858  0.6470
   69MOL0     C 9227   5.703   2.140   4.865 -0.5700  0.1423 -0.3838
   69MOL0     O 9228   5.880   2.379   5.016 -0.7821  0.1867  0.0418
   69MOL0     C 9229   6.162   2.425   5.069  0.2617  0.1205  0.5728
   69MOL0     C 9230   6.296   2.426   5.116  0.2681 -0.2828 -0.8236
   69MOL0     N 9231   7.070   2.253   5.295 -0.4696  0.3024 -0.7746
   69MOL0     N 9232   7.164   2.185   5.254 -1.1580 -0.0551 -0.3612
   69MOL0     C 9233   8.237   1.898   4.971 -0.6537 -0.5209 -0.5627
   69MOL0     C 9234   8.368   1.933   4.959  0.0625 -0.1529  0.2077
   69MOL0     C 9235   8.748   2.127   4.748  0.4242 -0.3087 -0.0780
   69MOL0     C 9236   8.825   2.169   4.640  0.4748 -0.4469 -0.1433
   69MOL0     C 9237   8.964   2.166   4.661  0.2752  0.5039  0.0665
   69MOL0     C 9238   9.029   2.142   4.779  0.5017  0.5960 -0.4494
   69MOL0     O 9239   9.160   2.142   4.806  0.2979 -0.3761  0.1143
   69MOL0     C 9240   9.257   2.186   4.716 -0.0019 -0.0036 -0.3967
   69MOL0     C 9241   9.389   2.218   4.799  0.2231 -0.4912 -0.0423
   69MOL0     C 9242   9.357   2.279   4.943  0.5164 -0.6991  0.0694
   69MOL0     C 9243   9.488   2.328   5.006 -0.0898 -0.5545  0.5389
   69MOL0     C 9244   9.468   2.349   5.154 -1.0074  0.2063  0.2574
   69MOL0     C 9245   9.429   2.350   5.269 -0.5806  0.1443  0.3124
   69MOL0     C 9246   8.946   2.115   4.888  0.0229  0.5367  0.0784
   69MOL0     C 9247   8.805   2.102   4.874 -0.4869 -0.5189  0.4573
   69MOL0     H 9248   8.350   2.052   4.636 -2.3903  1.2814 -0.3827
   69MOL0     H 9249   8.125   1.953   4.671 -1.0316  3.3988  1.7352
   69MOL0     H 9250   7.955   2.045   4.864 -0.2181  0.4089 -0.9228
   69MOL0     H 9251   7.892   1.936   4.744  3.1384 -1.9638 -0.5580
   69MOL0     H 9252   7.849   1.879   5.044 -0.8440 -1.9646 -0.6727
   69MOL0     H 9253   7.752   2.001   4.966  3.8145  1.9881  0.9917
   69MOL0     H 9254   7.701   1.821   4.795 -1.9568  1.1210  1.2388
   69MOL0     H 9255   7.786   1.697   4.872  0.1376 -0.1870  0.4365
   69MOL0     H 9256   7.549   1.682   4.926 -1.7148  0.6047  1.6604
   69MOL0     H 9257   7.634   1.691   5.075  0.2881  0.9083  0.4313
   69MOL0     H 9258   7.587   1.940   5.105  0.3425 -1.2188  0.4477
   69MOL0     H 9259   7.506   1.940   4.953  1.3438 -1.0075 -0.5783
   69MOL0     H 9260   7.337   1.769   5.055  0.6328  0.6142 -0.8127
   69MOL0     H 9261   7.433   1.779   5.199 -0.0011 -0.4097 -0.8649
   69MOL0     H 9262   7.403   2.048   5.178 -1.6371  2.1315 -3.3499
   69MOL0     H 9263   7.277   2.002   5.066  1.5154  2.0306 -0.2541
   69MOL0     H 9264   7.291   1.930   5.347  1.2488  2.8072 -0.1061
   69MOL0     H 9265   7.174   1.855   5.243  2.2197 -0.9559 -1.4171
   69MOL0     H 9266   6.984   1.951   5.402 -0.5709  0.9273  2.7653
   69MOL0     H 9267   6.829   2.185   5.516  1.7981 -2.4167 -0.8678
   69MOL0     H 9268   6.866   2.336   5.440 -1.8384  0.0506  2.3618
   69MOL0     H 9269   6.642   2.249   5.386 -0.0876  1.6190 -2.1917
   69MOL0     H 9270   6.715   2.095   5.338 -0.2907 -0.5574  2.8787
   69MOL0     H 9271   6.815   2.230   5.127 -0.8697  0.8958 -0.0639
   69MOL0     H 9272   6.741   2.368   5.197 -3.1588  1.2293 -1.0214
   69MOL0     H 9273   6.566   2.133   5.149 -2.0126  2.4040  2.7310
   69MOL0     H 9274   6.614   2.231   5.010  2.1887  0.3386  0.7021
   69MOL0     H 9275   6.348   2.099   5.125  0.3002 -0.0999 -0.5165
   69MOL0     H 9276   6.000   2.053   5.031 -0.4929 -0.5628  1.1665
   69MOL0     H 9277   6.150   1.989   4.960  1.1474  0.8979  0.3388
   69MOL0     H 9278   6.119   1.993   5.140 -1.6236 -3.5470 -1.2316
   69MOL0     H 9279   5.848   2.376   4.666  0.2330  1.7077  2.9342
   69MOL0     H 9280   5.617   2.356   4.555 -2.9355 -0.7129 -1.0789
   69MOL0     H 9281   5.299   2.130   4.775  0.2092 -1.0300 -2.4875
   69MOL0     H 9282   5.359   2.286   4.819  0.4573 -0.4609 -0.3507
   69MOL0     H 9283   5.107   2.284   4.753  0.1420  0.2285 -1.3669
   69MOL0     H 9284   5.222   2.414   4.699 -1.1650  1.2623 -1.6049
   69MOL0     H 9285   5.211   2.311   4.480  1.8022 -1.4079  1.6145
   69MOL0     H 9286   5.050   2.333   4.530 -0.7216 -1.8605 -0.4664
   69MOL0     H 9287   5.198   2.073   4.562  0.2329 -0.7721 -1.5387
   69MOL0     H 9288   5.044   2.089   4.638 -0.4066 -0.9198 -1.1189
   69MOL0     H 9289   5.062   1.960   4.401 -2.0958 -0.9430 -1.4010
   69MOL0     H 9290   5.111   2.106   4.337 -0.8948  0.0659 -0.0682
   69MOL0     H 9291   4.839   2.050   4.464  0.8572  0.9142  2.7380
   69MOL0     H 9292   4.892   2.211   4.406  0.3161  0.0275 -2.3972
   69MOL0     H 9293   4.739   2.092   4.240  0.2691  2.5540 -2.8076
   69MOL0     H 9294   4.866   1.965   4.229 -0.1407  1.2301 -2.4710
   69MOL0     H 9295   5.021   2.151   4.148  1.0179  0.6542  2.4709
   69MOL0     H 9296   4.895   2.266   4.189  1.2933  0.5735  0.4647
   69MOL0     H 9297   5.489   2.071   4.837 -0.4428 -1.8411 -1.1415
   69MOL0     H 9298   5.717   2.095   4.962  0.2263 -1.0914 -1.0525
   69MOL0     H 9299   6.117   2.524   5.071  1.7718  0.8454  0.6563
   69MOL0     H 9300   6.340   2.518   5.152  1.6297 -0.9300 -0.7665
   69MOL0     H 9301   8.198   1.873   5.069 -1.1571  2.5060  0.1058
   69MOL0     H 9302   8.427   1.948   5.049  2.8156 -1.0187 -1.3326
   69MOL0     H 9303   8.779   2.185   4.543 -0.4761 -1.1553  0.1743
   69MOL0     H 9304   9.023   2.172   4.570  2.3861 -1.4209  1.1966
   69MOL0     H 9305   9.284   2.117   4.635  0.1123  0.5684 -0.8603
   69MOL0     H 9306   9.228   2.282   4.671  1.0607  2.3531  3.4809
   69MOL0     H 9307   9.443   2.300   4.751 -1.0512  0.3614 -0.0924
   69MOL0     H 9308   9.452   2.130   4.812  0.4233  0.0714  4.0715
   69MOL0     H 9309   9.318   2.199   5.006 -1.9048  0.7058  0.4681
   69MOL0     H 9310   9.278   2.355   4.944  1.7500  0.6316  0.9345
   69MOL0     H 9311   9.519   2.416   4.950 -2.4898  1.1736  1.7651
   69MOL0     H 9312   9.569   2.255   4.996 -0.4912 -1.1632  1.6025
   69MOL0     H 9313   9.375   2.376   5.358 -2.8065 -0.1931 -0.8488
   69MOL0     H 9314   8.999   2.093   4.980 -1.0046 -0.1562  0.5317
   69MOL0     H 9315   8.754   2.062   4.962  1.7303 -2.2947  1.0181
   70MOL0     O 9316   0.680   4.496   1.691 -0.1781  0.1996  0.0102
   70MOL0     C 9317   0.732   4.446   1.786 -0.3090 -0.7674 -0.8712
   70MOL0     O 9318   0.666   4.403   1.899 -0.1435 -0.2221 -0.3129
   70MOL0     C 9319   0.535   4.434   1.903  0.8928  0.1294  0.4039
   70MOL0     C 9320   0.442   4.334   1.876 -0.0026 -0.4015 -0.1351
   70MOL0     C 9321   0.308   4.371   1.883  0.3349  0.5006 -0.5660
   70MOL0     C 9322   0.256   4.505   1.902 -0.0683  0.6293 -0.2951
   70MOL0     O 9323   0.116   4.509   1.906 -0.2809 -0.2869  0.5808
   70MOL0     C 9324   0.054   4.629   1.955 -0.6584 -0.1932 -0.9733
   70MOL0     C 9325  -0.092   4.631   1.984  0.0060 -0.2664 -0.2853
   70MOL0     C 9326  -0.137   4.560   2.118 -0.6805 -0.1657 -0.4219
   70MOL0     C 9327  -0.282   4.544   2.144 -0.0610  0.5306 -0.0265
   70MOL0     C 9328  -0.331   4.448   2.261  0.1738 -0.9843  0.0332
   70MOL0     C 9329  -0.339   4.304   2.228  0.1966 -0.4736  0.5814
   70MOL0     C 9330  -0.374   4.211   2.339 -0.0415  1.0844 -0.0888
   70MOL0     C 9331  -0.363   4.062   2.291 -0.3310  0.2754  0.1127
   70MOL0     N 9332  -0.395   3.971   2.405  0.8465 -0.6619  0.3104
   70MOL0     C 9333  -0.523   3.921   2.438  0.3804 -0.6096  0.0680
   70MOL0     C 9334  -0.503   3.839   2.548  0.9901 -0.3962 -0.1106
   70MOL0     C 9335  -0.620   3.760   2.603  0.5999  0.1740 -0.5661
   70MOL0     C 9336  -0.751   3.845   2.648 -0.6529  0.7989  0.3288
   70MOL0     C 9337  -0.850   3.763   2.739 -0.8041 -0.6990  0.9126
   70MOL0     C 9338  -0.976   3.840   2.769 -0.8814  0.1034 -0.4304
   70MOL0     O 9339  -1.072   3.749   2.822 -0.1002  0.7012 -0.0024
   70MOL0     C 9340  -1.202   3.799   2.834 -0.3932 -0.7331 -0.0614
   70MOL0     C 9341  -1.226   3.935   2.843  0.3840  0.9959 -0.1339
   70MOL0     C 9342  -1.353   3.995   2.852  0.8624 -0.4792 -0.2120
   70MOL0     C 9343  -1.351   4.148   2.841 -0.1733  0.1350 -0.0784
   70MOL0     C 9344  -1.462   3.905   2.850 -0.9423  0.4771 -0.5280
   70MOL0     C 9345  -1.601   3.949   2.841  0.2725 -0.2950  0.0220
   70MOL0     O 9346  -1.695   3.858   2.795  0.3593  0.2603  0.2098
   70MOL0     C 9347  -1.828   3.903   2.802 -0.2838 -0.3568  0.3938
   70MOL0     C 9348  -1.895   3.955   2.694 -0.0097  0.1187 -0.3625
   70MOL0     C 9349  -2.026   3.986   2.702 -0.0155  0.0743  0.0528
   70MOL0     C 9350  -2.095   3.984   2.822  0.0183 -0.1051 -0.2093
   70MOL0     O 9351  -2.224   4.025   2.811 -0.6099  0.2793 -0.3301
   70MOL0     C 9352  -2.318   4.000   2.928  0.0256 -0.7103 -0.2176
   70MOL0     C 9353  -2.463   4.029   2.875 -0.1818  0.1512  0.7065
   70MOL0     C 9354  -2.572   3.989   2.981 -0.2234  0.0086 -0.3954
   70MOL0     C 9355  -2.715   3.973   2.935  0.1143 -0.4857  1.0923
   70MOL0     C 9356  -2.815   3.949   3.054 -0.1403  0.1123  0.1293
   70MOL0     C 9357  -2.962   3.924   3.012 -0.7206 -0.3481  0.9212
   70MOL0     C 9358  -3.040   3.878   3.128  0.8324  0.3564 -0.4340
   70MOL0     C 9359  -3.162   3.803   3.084 -0.0337  1.2332 -0.2804
   70MOL0    Cl 9360  -3.272   3.911   3.006  0.1603  0.1355 -0.1917
   70MOL0     C 9361  -2.021   3.935   2.936  0.7702  0.1228 -0.0135
   70MOL0     C 9362  -1.894   3.879   2.918 -0.1201  0.2506 -1.0215
   70MOL0     O 9363  -1.626   4.058   2.898  0.5329 -0.4380  0.8562
   70MOL0     C 9364  -1.439   3.767   2.843  0.2524  0.5166  0.5995
   70MOL0     C 9365  -1.312   3.711   2.833 -0.1004  0.7908  0.1679
   70MOL0     N 9366  -0.369   3.829   2.568  0.7019  0.5320 -0.9867
   70MOL0     N 9367  -0.308   3.915   2.486 -0.3597  0.2763 -0.1021
   70MOL0     C 9368   0.355   4.602   1.927 -0.5589 -0.1267  0.5076
   70MOL0     C 9369   0.488   4.566   1.922  0.9254 -0.1466 -1.1091
   70MOL0     C 9370   0.876   4.441   1.789 -1.2496  0.6607  0.0198
   70MOL0     C 9371   0.951   4.356   1.866  0.5131  0.1851 -0.5818
   70MOL0     C 9372   1.087   4.352   1.876  0.0339  0.3700  0.1915
   70MOL0     C 9373   1.166   4.432   1.786  0.3012  0.6953  0.3053
   70MOL0     O 9374   1.296   4.399   1.777  0.1172 -0.4018 -0.3789
   70MOL0     C 9375   1.348   4.418   1.647  0.3100 -0.1922  0.0170
   70MOL0     C 9376   1.469   4.339   1.630  0.1081  0.4485 -0.2601
   70MOL0     C 9377   1.579   4.376   1.733  0.6778 -0.2620  0.0286
   70MOL0     C 9378   1.714   4.316   1.692 -0.2997  0.3522  0.3035
   70MOL0     C 9379   1.718   4.169   1.718  0.3638 -0.2017  0.1030
   70MOL0     C 9380   1.723   4.045   1.730  0.2798 -0.3618  0.0810
   70MOL0     C 9381   1.095   4.515   1.708 -0.5035 -0.5093  0.4178
   70MOL0     C 9382   0.956   4.514   1.701  1.2967 -0.1662  0.5088
   70MOL0     H 9383   0.471   4.232   1.853  0.5662 -0.1427 -0.5749
   70MOL0     H 9384   0.229   4.302   1.855  0.8093  0.4130 -1.7202
   70MOL0     H 9385   0.096   4.653   2.053  2.6336  1.5832 -2.6273
   70MOL0     H 9386   0.071   4.712   1.885 -3.1310 -0.0732 -1.5232
   70MOL0     H 9387  -0.104   4.739   1.990  2.0172 -0.0387  0.5878
   70MOL0     H 9388  -0.145   4.589   1.898 -1.0883  2.1904 -0.8741
   70MOL0     H 9389  -0.090   4.461   2.118 -1.3623 -0.5168 -1.8555
   70MOL0     H 9390  -0.112   4.614   2.210 -2.6818  0.0656  0.0296
   70MOL0     H 9391  -0.332   4.638   2.170 -0.3971 -0.0161  1.4061
   70MOL0     H 9392  -0.324   4.498   2.054 -2.4756  0.2079  1.1863
   70MOL0     H 9393  -0.262   4.469   2.344  1.0611 -0.4891 -0.8107
   70MOL0     H 9394  -0.434   4.472   2.288  0.0102 -2.5221  0.8555
   70MOL0     H 9395  -0.417   4.296   2.151 -0.9213 -1.0158  1.7227
   70MOL0     H 9396  -0.239   4.289   2.186  0.4345  2.2602  0.0254
   70MOL0     H 9397  -0.313   4.220   2.429 -0.7654 -1.0581  0.6745
   70MOL0     H 9398  -0.479   4.219   2.369 -0.3335 -4.0441  1.1749
   70MOL0     H 9399  -0.263   4.043   2.250 -0.1445  1.7362 -0.1623
   70MOL0     H 9400  -0.436   4.053   2.211  3.0300 -1.4239 -3.0671
   70MOL0     H 9401  -0.619   3.942   2.391 -0.2432 -0.7027  1.2486
   70MOL0     H 9402  -0.645   3.669   2.547  1.8146  0.0863 -0.9920
   70MOL0     H 9403  -0.582   3.720   2.697  0.7851  3.0346  0.6666
   70MOL0     H 9404  -0.800   3.892   2.562  0.9863  0.9803 -0.5663
   70MOL0     H 9405  -0.710   3.930   2.704  1.0014  1.4847 -1.7438
   70MOL0     H 9406  -0.801   3.732   2.832  0.9735  1.2903  0.7055
   70MOL0     H 9407  -0.868   3.669   2.687 -3.2699  0.9845 -1.5461
   70MOL0     H 9408  -1.015   3.885   2.678 -0.3376 -0.7778 -1.1131
   70MOL0     H 9409  -0.952   3.922   2.838  0.5109 -1.1348  0.6379
   70MOL0     H 9410  -1.149   4.012   2.838  1.6520 -0.1332  1.2643
   70MOL0     H 9411  -1.442   4.197   2.875 -0.3397  0.4689 -0.9627
   70MOL0     H 9412  -1.268   4.186   2.901  2.5214 -2.6046 -1.7951
   70MOL0     H 9413  -1.326   4.175   2.738  1.7313  0.1895  0.3567
   70MOL0     H 9414  -1.838   3.957   2.602 -1.0895 -1.3135 -1.1148
   70MOL0     H 9415  -2.081   4.030   2.619 -1.2439 -1.3588  0.0552
   70MOL0     H 9416  -2.308   3.902   2.975  1.6918 -1.0999 -1.3111
   70MOL0     H 9417  -2.303   4.079   3.003  1.0887 -0.6770 -0.4565
   70MOL0     H 9418  -2.468   4.138   2.859  0.7652  0.1176  0.1247
   70MOL0     H 9419  -2.470   3.978   2.779  3.0530  0.7000  0.0900
   70MOL0     H 9420  -2.560   4.065   3.058  0.2595 -0.6024  0.1448
   70MOL0     H 9421  -2.530   3.901   3.031 -0.3642  1.4615  2.4342
   70MOL0     H 9422  -2.754   4.057   2.877  1.7942 -1.5193 -1.7513
   70MOL0     H 9423  -2.715   3.885   2.869 -3.5315 -1.3369  1.9945
   70MOL0     H 9424  -2.814   4.028   3.130 -2.2359 -1.1466  1.5819
   70MOL0     H 9425  -2.788   3.854   3.101  0.2189  0.5611  0.8537
   70MOL0     H 9426  -2.993   4.018   2.964  3.3835 -0.7018 -3.0099
   70MOL0     H 9427  -2.982   3.856   2.929 -0.6349  2.5067 -1.6370
   70MOL0     H 9428  -3.072   3.961   3.192  0.3527 -2.8470  3.9825
   70MOL0     H 9429  -2.974   3.824   3.197  1.3294  1.4602 -0.0311
   70MOL0     H 9430  -3.216   3.782   3.177  0.7620  1.1497  0.1706
   70MOL0     H 9431  -3.153   3.708   3.031 -1.7898  0.1956  1.1479
   70MOL0     H 9432  -2.085   3.911   3.019  0.8829 -1.9423 -0.4656
   70MOL0     H 9433  -1.853   3.827   3.004  4.0082  1.0713 -2.2621
   70MOL0     H 9434  -1.526   3.703   2.832 -0.8351  0.9699  5.0378
   70MOL0     H 9435  -1.295   3.604   2.830 -1.5325  0.5199 -2.9083
   70MOL0     H 9436   0.319   4.701   1.953  1.2519  0.9505 -0.8714
   70MOL0     H 9437   0.559   4.646   1.943  1.0904 -0.9243  1.5982
   70MOL0     H 9438   0.892   4.290   1.930  1.6136  0.5679  0.8809
   70MOL0     H 9439   1.124   4.271   1.939 -4.2617  0.2682  2.9676
   70MOL0     H 9440   1.290   4.380   1.562  1.3600  1.5076 -1.5444
   70MOL0     H 9441   1.363   4.524   1.622 -1.6520  0.3844  1.0673
   70MOL0     H 9442   1.509   4.350   1.529  0.4953 -0.5363 -0.2265
   70MOL0     H 9443   1.455   4.231   1.630 -2.4838  0.6850 -2.7077
   70MOL0     H 9444   1.560   4.349   1.837  0.3052 -2.1229 -0.4906
   70MOL0     H 9445   1.588   4.485   1.735 -1.9815  0.0347 -0.7004
   70MOL0     H 9446   1.794   4.373   1.741  0.4507  0.4909 -1.0370
   70MOL0     H 9447   1.735   4.328   1.585 -0.2431  2.5786  0.5064
   70MOL0     H 9448   1.730   3.939   1.746 -1.2210 -0.3230  1.1723
   70MOL0     H 9449   1.148   4.581   1.640 -0.2402  0.1668  1.2530
   70MOL0     H 9450   0.909   4.578   1.626 -0.9718 -1.9751  0.2967
   71MOL0     O 9451   0.390   0.530   8.445  0.3516 -0.8394 -0.3085
   71MOL0     C 9452   0.418   0.620   8.368 -0.7677  0.6528 -0.0437
   71MOL0     O 9453   0.328   0.693   8.287  0.1733  0.1715 -0.1826
   71MOL0     C 9454   0.197   0.666   8.310  1.0072 -0.3271 -0.5020
   71MOL0     C 9455   0.103   0.755   8.372  0.9040  0.0119  0.4874
   71MOL0     C 9456  -0.030   0.713   8.393  0.4425  0.5624  0.2891
   71MOL0     C 9457  -0.084   0.590   8.347  0.5379 -0.2616  0.3326
   71MOL0     O 9458  -0.217   0.548   8.373  0.6430 -0.0787  0.3254
   71MOL0     C 9459  -0.327   0.645   8.357  0.1432  0.6601  0.1052
   71MOL0     C 9460  -0.372   0.664   8.208  0.7761  1.1176 -0.2804
   71MOL0     C 9461  -0.515   0.711   8.174 -0.1505 -0.2507 -0.1229
   71MOL0     C 9462  -0.621   0.624   8.229  0.0304  0.2880  0.0003
   71MOL0     C 9463  -0.755   0.676   8.190 -0.2676  0.0455 -0.7435
   71MOL0     C 9464  -0.861   0.600   8.258  0.3192 -0.0691 -0.4914
   71MOL0     C 9465  -0.996   0.664   8.207  0.0737  0.3974  0.0091
   71MOL0     C 9466  -1.114   0.572   8.244 -0.9213  0.1924 -0.3897
   71MOL0     N 9467  -1.241   0.627   8.196 -0.2848  1.5946 -0.0050
   71MOL0     C 9468  -1.302   0.738   8.223  0.1066  0.4014  0.2513
   71MOL0     C 9469  -1.418   0.741   8.161 -0.1830 -0.4816 -0.5436
   71MOL0     C 9470  -1.525   0.843   8.184 -0.2095 -0.3700  0.9541
   71MOL0     C 9471  -1.568   0.852   8.333  0.9789  0.0160 -0.3196
   71MOL0     C 9472  -1.684   0.950   8.355 -0.0611 -0.2276  0.0463
   71MOL0     C 9473  -1.763   1.003   8.236  0.9637  0.8892  0.4892
   71MOL0     O 9474  -1.867   0.905   8.242  0.2306 -0.3515  0.0939
   71MOL0     C 9475  -2.000   0.945   8.226 -0.8174 -0.2052 -0.2827
   71MOL0     C 9476  -2.042   1.062   8.169 -0.4015 -0.2564 -0.2998
   71MOL0     C 9477  -2.176   1.109   8.162 -0.3257 -0.1917 -0.2994
   71MOL0     C 9478  -2.196   1.237   8.089 -0.0109 -0.8766 -0.9369
   71MOL0     C 9479  -2.273   1.024   8.212  0.6804  0.1072 -0.0722
   71MOL0     C 9480  -2.420   1.046   8.190  0.7542  0.3906 -1.0652
   71MOL0     O 9481  -2.453   1.173   8.149  0.6399 -0.2875 -0.5843
   71MOL0     C 9482  -2.580   1.212   8.151  0.2630 -0.7561 -0.1389
   71MOL0     C 9483  -2.621   1.293   8.053 -0.3069 -0.4623  0.2762
   71MOL0     C 9484  -2.752   1.345   8.063  0.6538 -0.1605  0.3269
   71MOL0     C 9485  -2.842   1.323   8.169  0.6969 -0.2275  0.6435
   71MOL0     O 9486  -2.973   1.356   8.182  0.3214  0.3485  1.0196
   71MOL0     C 9487  -3.027   1.458   8.106  0.0625  0.4089  0.2942
   71MOL0     C 9488  -3.168   1.504   8.151 -0.1297 -0.3960 -0.4272
   71MOL0     C 9489  -3.161   1.547   8.296 -0.0023 -0.8232  0.1893
   71MOL0     C 9490  -3.293   1.611   8.332  0.2716 -0.8037  0.4829
   71MOL0     C 9491  -3.318   1.607   8.482 -0.1513  0.3406  0.2757
   71MOL0     C 9492  -3.452   1.683   8.508  0.0745  0.2609  0.1254
   71MOL0     C 9493  -3.465   1.721   8.655  0.3620 -0.2997  0.3733
   71MOL0     C 9494  -3.507   1.605   8.740  0.5511  0.2747  0.3197
   71MOL0    Cl 9495  -3.680   1.550   8.710 -0.1531 -1.0455 -0.4237
   71MOL0     C 9496  -2.790   1.257   8.276 -0.2147 -0.0865 -0.9489
   71MOL0     C 9497  -2.662   1.202   8.264 -0.8392  0.8381  0.2999
   71MOL0     O 9498  -2.506   0.960   8.211  0.5010  0.8129 -0.2613
   71MOL0     C 9499  -2.239   0.905   8.279 -0.1836  0.1359 -0.4435
   71MOL0     C 9500  -2.106   0.870   8.284 -0.2511  0.2343 -0.3079
   71MOL0     N 9501  -1.439   0.634   8.092 -0.3540  0.1104 -0.1342
   71MOL0     N 9502  -1.334   0.566   8.116 -0.1599  0.3984 -0.4033
   71MOL0     C 9503   0.011   0.511   8.280  0.4576 -0.1691 -0.2557
   71MOL0     C 9504   0.144   0.547   8.261 -0.2370  0.7143 -1.2410
   71MOL0     C 9505   0.566   0.647   8.339  0.0173 -0.7807 -0.1207
   71MOL0     C 9506   0.602   0.753   8.252 -0.5195  0.5268 -0.6584
   71MOL0     C 9507   0.738   0.769   8.218  0.7161 -0.2111  0.8728
   71MOL0     C 9508   0.849   0.690   8.274  0.8284 -0.4882  0.4000
   71MOL0     O 9509   0.982   0.706   8.234  0.0566 -0.6981  0.5676
   71MOL0     C 9510   1.004   0.781   8.107 -0.1798  0.1302 -0.2507
   71MOL0     C 9511   1.157   0.762   8.066  0.4323 -0.6793 -0.0535
   71MOL0     C 9512   1.201   0.610   8.057  0.3866 -0.0551 -0.0826
   71MOL0     C 9513   1.354   0.594   8.051 -0.4007 -0.5780 -0.5310
   71MOL0     C 9514   1.410   0.675   7.939 -0.3495 -0.9161 -0.1212
   71MOL0     C 9515   1.472   0.722   7.846  0.1571  0.0020  0.1640
   71MOL0     C 9516   0.804   0.600   8.369  0.0220 -0.4352  0.4331
   71MOL0     C 9517   0.668   0.576   8.402 -0.0047 -0.2982  0.3837
   71MOL0     H 9518   0.136   0.852   8.408 -2.5794  1.7724 -0.6324
   71MOL0     H 9519  -0.090   0.777   8.457  0.7156  1.0707  0.0418
   71MOL0     H 9520  -0.414   0.603   8.408  0.2116  0.8778  0.4049
   71MOL0     H 9521  -0.298   0.738   8.408  2.1019 -0.2710  0.8155
   71MOL0     H 9522  -0.291   0.723   8.163  1.6404  0.1848  0.0044
   71MOL0     H 9523  -0.374   0.566   8.161 -2.3112  0.1293  1.6192
   71MOL0     H 9524  -0.526   0.816   8.202  3.9469  0.1218  0.7623
   71MOL0     H 9525  -0.522   0.719   8.065  2.4721  2.2637 -0.2361
   71MOL0     H 9526  -0.608   0.523   8.189 -0.7017  0.7482 -1.4854
   71MOL0     H 9527  -0.617   0.622   8.338  1.1148  0.2654 -0.0271
   71MOL0     H 9528  -0.758   0.777   8.233  0.5658  0.3765 -1.4290
   71MOL0     H 9529  -0.765   0.694   8.082  1.9369  0.9872 -0.8615
   71MOL0     H 9530  -0.837   0.498   8.225  5.9586  1.2900 -1.6034
   71MOL0     H 9531  -0.859   0.599   8.367  0.6162  1.8890 -0.4492
   71MOL0     H 9532  -1.013   0.763   8.250 -0.1808  0.9978 -1.4030
   71MOL0     H 9533  -1.000   0.680   8.099 -1.9691 -1.8569 -0.3400
   71MOL0     H 9534  -1.111   0.559   8.352  0.8751  0.6500 -0.3515
   71MOL0     H 9535  -1.086   0.474   8.206 -0.6937 -0.0950  0.5038
   71MOL0     H 9536  -1.256   0.810   8.290 -0.8026  0.6141  0.6546
   71MOL0     H 9537  -1.490   0.944   8.163  0.8545  0.1116  4.3550
   71MOL0     H 9538  -1.601   0.802   8.116  0.0159 -1.9561  1.6079
   71MOL0     H 9539  -1.490   0.892   8.398 -0.8697  1.3494  1.1979
   71MOL0     H 9540  -1.594   0.752   8.369  1.8844  0.3714  1.4219
   71MOL0     H 9541  -1.637   1.039   8.399 -2.1704 -0.1338  2.3008
   71MOL0     H 9542  -1.756   0.909   8.425 -1.7495  0.9137 -0.9398
   71MOL0     H 9543  -1.708   1.001   8.141  2.0595 -1.3333  1.1035
   71MOL0     H 9544  -1.788   1.108   8.256 -2.1798  0.6512 -1.4510
   71MOL0     H 9545  -1.967   1.131   8.131  0.5886 -0.4422  1.2269
   71MOL0     H 9546  -2.106   1.292   8.062  0.0550  0.1343  1.1320
   71MOL0     H 9547  -2.254   1.208   8.001  0.5357 -2.6568 -0.7479
   71MOL0     H 9548  -2.256   1.300   8.155 -2.8001 -0.6987 -3.4249
   71MOL0     H 9549  -2.562   1.329   7.969 -1.3186  2.3545  0.6491
   71MOL0     H 9550  -2.787   1.406   7.980  2.8014  2.8214  1.4260
   71MOL0     H 9551  -2.953   1.538   8.113  1.5719 -1.0485  1.9737
   71MOL0     H 9552  -3.031   1.421   8.003 -0.5496  2.8197 -0.6116
   71MOL0     H 9553  -3.207   1.593   8.101 -3.0345 -1.3742 -0.0862
   71MOL0     H 9554  -3.232   1.416   8.147  1.3776 -1.7093  1.8495
   71MOL0     H 9555  -3.087   1.628   8.303  0.5240 -0.9241 -3.0003
   71MOL0     H 9556  -3.145   1.463   8.365 -0.2766 -0.5374  0.6012
   71MOL0     H 9557  -3.284   1.712   8.292 -0.9709 -1.0019 -0.3385
   71MOL0     H 9558  -3.375   1.557   8.285  0.8129  0.1089 -1.6231
   71MOL0     H 9559  -3.236   1.658   8.533 -1.8372  0.6124  2.9535
   71MOL0     H 9560  -3.332   1.501   8.506  1.6462 -0.7153 -2.7542
   71MOL0     H 9561  -3.441   1.780   8.458 -2.0016 -0.0905 -1.1432
   71MOL0     H 9562  -3.542   1.629   8.477 -1.2166 -0.1609  4.0895
   71MOL0     H 9563  -3.532   1.808   8.660  0.8484  0.4740 -3.4378
   71MOL0     H 9564  -3.368   1.758   8.690  1.4231 -0.6354 -2.0755
   71MOL0     H 9565  -3.495   1.634   8.845  1.2650  1.2711 -0.0189
   71MOL0     H 9566  -3.434   1.524   8.734  1.2547  1.0076 -2.3032
   71MOL0     H 9567  -2.847   1.232   8.365 -0.0575  3.3078  0.2526
   71MOL0     H 9568  -2.631   1.143   8.349 -0.0681 -1.7232 -1.6344
   71MOL0     H 9569  -2.302   0.833   8.331  0.5154 -1.4336 -1.6873
   71MOL0     H 9570  -2.075   0.777   8.331  1.9769  0.7833 -0.5659
   71MOL0     H 9571  -0.032   0.416   8.250  0.3775  0.5652 -2.6231
   71MOL0     H 9572   0.211   0.476   8.212 -2.1371 -1.7923 -0.4517
   71MOL0     H 9573   0.530   0.824   8.215 -1.3649  0.5876  0.9986
   71MOL0     H 9574   0.772   0.844   8.148 -0.0556 -2.5839 -2.2620
   71MOL0     H 9575   0.937   0.743   8.029  0.0281 -1.5390  0.3429
   71MOL0     H 9576   0.982   0.888   8.113  0.3773  0.5242 -3.2740
   71MOL0     H 9577   1.211   0.816   8.144  0.1006 -2.0017  1.1282
   71MOL0     H 9578   1.166   0.822   7.975 -0.2073 -0.0400  0.2970
   71MOL0     H 9579   1.153   0.559   7.972  0.1805 -0.6037  0.3616
   71MOL0     H 9580   1.162   0.561   8.147 -3.6985  1.7862 -0.6212
   71MOL0     H 9581   1.392   0.493   8.038  0.4856 -0.2529 -0.5483
   71MOL0     H 9582   1.405   0.626   8.143  0.9500 -0.2420 -1.3661
   71MOL0     H 9583   1.528   0.763   7.764 -0.2988  1.6388  0.6383
   71MOL0     H 9584   0.874   0.539   8.425  1.8915 -1.6525 -2.9721
   71MOL0     H 9585   0.627   0.501   8.469  0.0903  0.7436  1.6405
   72MOL0     O 9586   0.686   9.659   4.973  0.4625 -0.2567  0.7264
   72MOL0     C 9587   0.635   9.555   5.013  1.2239  0.0418 -0.6991
   72MOL0     O 9588   0.509   9.516   4.982  0.0517  0.6697 -0.2695
   72MOL0     C 9589   0.460   9.568   4.866 -0.2185 -0.2802  0.0338
   72MOL0     C 9590   0.413   9.700   4.863  0.5465  0.3590  0.1552
   72MOL0     C 9591   0.362   9.748   4.747  0.3913 -0.2290 -0.5464
   72MOL0     C 9592   0.343   9.659   4.630 -0.1457  0.1267 -0.4478
   72MOL0     O 9593   0.294   9.728   4.527  0.1741  0.3687 -0.0592
   72MOL0     C 9594   0.338   9.701   4.392  0.2781 -0.0596 -0.3475
   72MOL0     C 9595   0.244   9.765   4.280 -0.3257 -0.1894  0.5561
   72MOL0     C 9596   0.120   9.682   4.279  0.1436 -0.7815  0.4418
   72MOL0     C 9597   0.035   9.725   4.156  0.1578  0.8272 -0.2540
   72MOL0     C 9598  -0.092   9.636   4.129 -0.3912  0.0560 -0.0693
   72MOL0     C 9599  -0.226   9.679   4.196  0.0148  0.5612 -0.1106
   72MOL0     C 9600  -0.327   9.574   4.162 -0.7511  0.0798 -0.4103
   72MOL0     C 9601  -0.463   9.592   4.229 -0.0899  0.7771  0.4850
   72MOL0     N 9602  -0.555   9.487   4.214  0.2570 -0.2143 -0.0692
   72MOL0     C 9603  -0.599   9.427   4.097 -0.1040  0.1693 -0.4804
   72MOL0     C 9604  -0.697   9.334   4.129  0.1752  0.8908  0.2449
   72MOL0     C 9605  -0.788   9.242   4.033 -0.0733 -0.6474  1.3627
   72MOL0     C 9606  -0.911   9.315   3.986  0.4737  0.4053 -0.0485
   72MOL0     C 9607  -0.993   9.346   4.108  0.6036  0.0682 -0.0244
   72MOL0     C 9608  -1.131   9.389   4.072  0.6520 -0.0607  0.5708
   72MOL0     O 9609  -1.145   9.495   3.980  0.7336 -0.1958 -0.0836
   72MOL0     C 9610  -1.263   9.567   3.966 -0.5675  0.2633 -0.1739
   72MOL0     C 9611  -1.386   9.536   4.029 -0.4758 -0.1654 -0.5534
   72MOL0     C 9612  -1.492   9.628   4.028 -0.1163 -0.1549 -0.3622
   72MOL0     C 9613  -1.612   9.584   4.097  0.0008  0.0008  0.6573
   72MOL0     C 9614  -1.476   9.751   3.967 -0.4134 -0.3931  0.8950
   72MOL0     C 9615  -1.580   9.846   3.949 -0.4533 -0.0119 -0.4172
   72MOL0     O 9616  -1.580   9.922   3.837  0.1051  0.2992  0.2970
   72MOL0     C 9617  -1.701   9.974   3.779 -0.1309 -0.0599 -0.2544
   72MOL0     C 9618  -1.691  10.060   3.667 -0.1275  0.1371 -0.2681
   72MOL0     C 9619  -1.804  10.093   3.594 -0.3703 -0.5136 -0.1793
   72MOL0     C 9620  -1.932  10.061   3.633 -0.0254 -0.2919 -0.0099
   72MOL0     O 9621  -2.031  10.083   3.546  0.1079  0.6483 -0.2880
   72MOL0     C 9622  -2.052  10.213   3.505 -0.4477 -0.7250 -0.0128
   72MOL0     C 9623  -2.199  10.242   3.473 -0.8796  0.6359  0.6607
   72MOL0     C 9624  -2.214  10.348   3.360  0.0100  0.5853  0.0758
   72MOL0     C 9625  -2.353  10.346   3.311  0.8463 -0.1218 -0.3417
   72MOL0     C 9626  -2.369  10.447   3.198  0.3724  0.1594 -1.1218
   72MOL0     C 9627  -2.498  10.438   3.123  0.5673 -0.3668 -0.4186
   72MOL0     C 9628  -2.628  10.460   3.215 -0.4869 -0.5890 -0.0679
   72MOL0     C 9629  -2.651  10.606   3.269  0.2832 -0.6426 -0.5452
   72MOL0    Cl 9630  -2.642  10.713   3.124  0.2957  0.2580  0.1450
   72MOL0     C 9631  -1.951   9.994   3.751 -0.6863  1.0763 -0.5851
   72MOL0     C 9632  -1.842   9.948   3.823 -0.1083 -0.3720 -0.7098
   72MOL0     O 9633  -1.667   9.857   4.042 -0.1424  0.0942 -0.8263
   72MOL0     C 9634  -1.359   9.777   3.887  0.3044  0.2647 -0.4366
   72MOL0     C 9635  -1.252   9.680   3.890  0.2860 -0.5806  0.0197
   72MOL0     N 9636  -0.714   9.347   4.268  0.5411 -0.9190  0.3141
   72MOL0     N 9637  -0.622   9.430   4.314 -0.1608  0.5574 -0.0360
   72MOL0     C 9638   0.415   9.537   4.626  0.3854  0.4303 -0.3436
   72MOL0     C 9639   0.455   9.491   4.748 -0.3652  0.6679 -1.0429
   72MOL0     C 9640   0.710   9.472   5.104  0.5493 -0.3952  0.0309
   72MOL0     C 9641   0.828   9.518   5.171 -0.6419  0.4917  0.0238
   72MOL0     C 9642   0.883   9.439   5.271  0.0460  0.1213 -0.1136
   72MOL0     C 9643   0.824   9.321   5.315  0.7137  0.4465  0.3126
   72MOL0     O 9644   0.873   9.244   5.414  0.3741  0.5696 -0.5397
   72MOL0     C 9645   0.922   9.315   5.530  0.0024  0.0404 -0.1797
   72MOL0     C 9646   0.955   9.207   5.627 -0.1480  0.6670 -0.1347
   72MOL0     C 9647   1.001   9.261   5.767  0.0867 -0.4252  0.8403
   72MOL0     C 9648   1.016   9.155   5.873 -0.8827  0.0349  1.0029
   72MOL0     C 9649   0.894   9.070   5.892 -0.2901  0.0322  0.2057
   72MOL0     C 9650   0.804   8.985   5.917 -0.2923 -0.4445  0.0280
   72MOL0     C 9651   0.705   9.280   5.251  0.5394  0.3862  0.4888
   72MOL0     C 9652   0.654   9.353   5.150 -0.1758 -0.2834 -0.7533
   72MOL0     H 9653   0.417   9.773   4.943 -1.6925  0.1944  0.4811
   72MOL0     H 9654   0.319   9.848   4.744  0.8664 -0.0374 -2.3616
   72MOL0     H 9655   0.441   9.734   4.372 -0.3213  1.7954 -0.5255
   72MOL0     H 9656   0.339   9.592   4.379  0.3897 -0.3758  1.8891
   72MOL0     H 9657   0.241   9.871   4.305  4.0795  0.8377 -2.0557
   72MOL0     H 9658   0.296   9.756   4.184  1.5990  0.7728  1.4507
   72MOL0     H 9659   0.144   9.576   4.282  0.3703 -0.7105  2.2846
   72MOL0     H 9660   0.065   9.702   4.372 -2.7426  0.2684 -1.3606
   72MOL0     H 9661   0.011   9.829   4.180 -0.0349  0.5978  0.5841
   72MOL0     H 9662   0.105   9.705   4.074 -0.7993 -0.5086 -0.7931
   72MOL0     H 9663  -0.118   9.633   4.023 -2.0303 -0.2127  0.3119
   72MOL0     H 9664  -0.059   9.536   4.159  1.8544  0.9635  0.6462
   72MOL0     H 9665  -0.198   9.677   4.302  1.4539 -0.5438 -0.4726
   72MOL0     H 9666  -0.257   9.782   4.177  0.5715  0.9087  0.7504
   72MOL0     H 9667  -0.340   9.571   4.054 -0.0851  1.5134 -0.5423
   72MOL0     H 9668  -0.285   9.479   4.196  1.9120  0.3992 -2.4760
   72MOL0     H 9669  -0.507   9.686   4.194  0.0817  0.4451 -0.6460
   72MOL0     H 9670  -0.445   9.616   4.334  0.0044  0.9736  0.4245
   72MOL0     H 9671  -0.568   9.451   3.997 -2.5976  0.0146 -1.3739
   72MOL0     H 9672  -0.721   9.220   3.949 -1.8213 -0.7474 -0.0617
   72MOL0     H 9673  -0.803   9.151   4.091  0.7457 -0.9450  1.1206
   72MOL0     H 9674  -0.952   9.242   3.916  2.7736 -0.1147 -0.9514
   72MOL0     H 9675  -0.887   9.406   3.930 -0.5214 -0.3478 -1.7914
   72MOL0     H 9676  -0.951   9.425   4.170  0.1247  2.3642 -2.4153
   72MOL0     H 9677  -0.994   9.259   4.174  2.2916  1.7846  2.4403
   72MOL0     H 9678  -1.178   9.405   4.170  0.4593  0.2768  0.4237
   72MOL0     H 9679  -1.183   9.303   4.028  1.5005  0.5711 -1.7789
   72MOL0     H 9680  -1.401   9.446   4.089  1.6083  0.1733  0.5605
   72MOL0     H 9681  -1.591   9.485   4.139 -2.0448 -0.4451  0.7095
   72MOL0     H 9682  -1.642   9.655   4.174  0.8284 -0.6497  1.6095
   72MOL0     H 9683  -1.691   9.579   4.021  1.5322 -0.6469 -0.9743
   72MOL0     H 9684  -1.590  10.077   3.631  0.2958 -0.4215  0.6374
   72MOL0     H 9685  -1.782  10.140   3.498  2.5028 -3.2232 -1.0137
   72MOL0     H 9686  -2.023  10.271   3.593  0.4853 -1.3480  0.1071
   72MOL0     H 9687  -1.981  10.216   3.422 -0.0817 -1.3945  0.2650
   72MOL0     H 9688  -2.250  10.146   3.458  0.3957 -0.1225  1.0144
   72MOL0     H 9689  -2.231  10.291   3.565  0.1600  2.2449  0.2123
   72MOL0     H 9690  -2.144  10.329   3.279  1.5491 -2.0479  1.8599
   72MOL0     H 9691  -2.184  10.440   3.410  0.8864  0.0674  0.5263
   72MOL0     H 9692  -2.393  10.251   3.273 -2.6689  1.1687 -0.1450
   72MOL0     H 9693  -2.414  10.377   3.395  1.2561  4.0272 -1.3723
   72MOL0     H 9694  -2.289  10.427   3.126  1.1377  2.1105 -0.8745
   72MOL0     H 9695  -2.369  10.551   3.232 -0.9827  1.3841 -4.4425
   72MOL0     H 9696  -2.495  10.515   3.045  1.0282  0.4107  0.3465
   72MOL0     H 9697  -2.501  10.342   3.072  0.9548 -0.8759  0.4977
   72MOL0     H 9698  -2.615  10.387   3.295  1.8040 -1.4236 -1.0946
   72MOL0     H 9699  -2.721  10.434   3.165 -0.9120  2.4092 -1.0539
   72MOL0     H 9700  -2.575  10.631   3.344 -2.4744  0.7542  2.0193
   72MOL0     H 9701  -2.746  10.623   3.321  0.7072 -1.5542  0.6011
   72MOL0     H 9702  -2.051   9.968   3.786 -0.2321 -1.2701 -0.8992
   72MOL0     H 9703  -1.866   9.905   3.919 -1.1576 -2.1978 -1.7436
   72MOL0     H 9704  -1.341   9.870   3.834 -0.1701  1.5748  1.5942
   72MOL0     H 9705  -1.153   9.696   3.848  1.0064 -4.5745 -0.1472
   72MOL0     H 9706   0.440   9.478   4.539  2.5681 -0.8893  1.0763
   72MOL0     H 9707   0.489   9.388   4.744  2.9190  1.4212  1.8991
   72MOL0     H 9708   0.881   9.610   5.149 -0.7364  0.3111 -1.0000
   72MOL0     H 9709   0.969   9.471   5.330 -1.3491  1.8901  1.0811
   72MOL0     H 9710   1.016   9.366   5.507 -0.1800  0.0362 -0.9750
   72MOL0     H 9711   0.849   9.388   5.567 -0.7191  0.7915 -2.8684
   72MOL0     H 9712   1.022   9.135   5.579 -1.2232 -1.4892  1.4178
   72MOL0     H 9713   0.865   9.152   5.658  0.0874  1.2414  1.6749
   72MOL0     H 9714   0.928   9.336   5.799  0.8931 -0.0893  1.9662
   72MOL0     H 9715   1.086   9.327   5.749  0.0325 -0.2786  1.1151
   72MOL0     H 9716   1.038   9.214   5.962 -0.6414  1.2959  0.1414
   72MOL0     H 9717   1.102   9.095   5.842  0.1926  1.8940  0.2079
   72MOL0     H 9718   0.729   8.926   5.966 -0.5327  0.1597  0.4015
   72MOL0     H 9719   0.653   9.191   5.286  1.3017 -0.1023  0.4089
   72MOL0     H 9720   0.563   9.316   5.104 -0.9811 -0.1965  0.7092
   73MOL0     O 9721   5.051   6.971   0.589  0.3668  0.1755 -0.0179
   73MOL0     C 9722   5.101   6.909   0.498  0.0927 -0.0563 -0.0091
   73MOL0     O 9723   5.041   6.807   0.422 -0.5804 -0.7636  0.5300
   73MOL0     C 9724   4.911   6.775   0.447 -0.2915 -0.1642 -0.0140
   73MOL0     C 9725   4.885   6.702   0.559 -0.6552 -0.0593 -0.4030
   73MOL0     C 9726   4.748   6.679   0.597 -0.7147  0.2112  0.0295
   73MOL0     C 9727   4.646   6.707   0.504 -0.9350 -0.1803  0.4118
   73MOL0     O 9728   4.518   6.668   0.535  0.2222 -0.4000 -0.0435
   73MOL0     C 9729   4.460   6.588   0.428 -0.5824 -0.2129 -1.3886
   73MOL0     C 9730   4.324   6.529   0.464  0.8544  0.0412 -0.2284
   73MOL0     C 9731   4.331   6.418   0.576 -0.0002 -0.3715  0.5715
   73MOL0     C 9732   4.187   6.376   0.626 -0.1433  0.3210 -0.1398
   73MOL0     C 9733   4.185   6.250   0.721  0.1953 -0.6556  0.0506
   73MOL0     C 9734   4.044   6.192   0.731  0.0675  0.1261 -0.5833
   73MOL0     C 9735   3.968   6.280   0.831  0.4855  0.5463  0.9650
   73MOL0     C 9736   3.823   6.232   0.809 -0.3831 -0.0867  0.2453
   73MOL0     N 9737   3.741   6.313   0.898  0.4045 -0.2113 -0.3391
   73MOL0     C 9738   3.716   6.296   1.036  0.4329 -0.6541 -0.0917
   73MOL0     C 9739   3.624   6.385   1.074  0.3334  0.2087  0.4886
   73MOL0     C 9740   3.567   6.405   1.211 -0.4279 -0.2477 -0.1383
   73MOL0     C 9741   3.412   6.402   1.223 -1.7046  0.1117 -0.2920
   73MOL0     C 9742   3.365   6.451   1.368 -0.1992 -0.8694  0.2848
   73MOL0     C 9743   3.211   6.469   1.380 -0.0834 -0.2600  0.9644
   73MOL0     O 9744   3.153   6.337   1.373 -0.7066 -0.5332 -0.1054
   73MOL0     C 9745   3.011   6.329   1.385 -0.9745  0.1753  0.3898
   73MOL0     C 9746   2.960   6.209   1.353 -0.0302 -0.0639 -0.2496
   73MOL0     C 9747   2.827   6.176   1.367 -0.2155  0.5269  0.2819
   73MOL0     C 9748   2.788   6.036   1.311 -0.3621  0.3552  0.2232
   73MOL0     C 9749   2.739   6.278   1.413 -0.1734  0.5185  1.1829
   73MOL0     C 9750   2.590   6.265   1.421 -0.2995 -0.2910 -0.9479
   73MOL0     O 9751   2.513   6.374   1.465  0.0170  0.4158  0.2812
   73MOL0     C 9752   2.376   6.350   1.478 -1.3979  0.4537 -0.4204
   73MOL0     C 9753   2.322   6.337   1.603  0.7789  0.4631 -0.2926
   73MOL0     C 9754   2.190   6.304   1.622 -0.1785  0.5181  0.3233
   73MOL0     C 9755   2.106   6.305   1.507 -0.3788  0.2220  0.6235
   73MOL0     O 9756   1.974   6.270   1.511  0.1275 -0.1534  0.2535
   73MOL0     C 9757   1.908   6.286   1.633  0.3978 -0.8425 -0.7882
   73MOL0     C 9758   1.761   6.310   1.623 -0.4956  0.2960 -0.0045
   73MOL0     C 9759   1.696   6.299   1.766 -0.2257  0.1337  0.0535
   73MOL0     C 9760   1.562   6.373   1.780 -0.2424 -0.3415 -0.2923
   73MOL0     C 9761   1.486   6.344   1.907 -0.3584  0.6529 -0.2247
   73MOL0     C 9762   1.368   6.439   1.896  0.1675  0.3516  0.1385
   73MOL0     C 9763   1.274   6.451   2.015 -0.1217  0.7459 -0.1375
   73MOL0     C 9764   1.180   6.566   1.995  1.1692 -0.1826  0.3605
   73MOL0    Cl 9765   1.071   6.552   1.845 -0.1767  0.3314 -0.1041
   73MOL0     C 9766   2.150   6.333   1.388  0.8994 -1.3679  0.3291
   73MOL0     C 9767   2.295   6.350   1.362 -0.2794  0.0183 -0.3881
   73MOL0     O 9768   2.545   6.153   1.413 -0.0555 -0.2133  0.4982
   73MOL0     C 9769   2.792   6.409   1.440  0.1663  0.5992  0.3921
   73MOL0     C 9770   2.927   6.434   1.423 -0.0870  0.1873  0.3255
   73MOL0     N 9771   3.592   6.460   0.955  0.1810  0.0807  0.2920
   73MOL0     N 9772   3.660   6.413   0.858  0.4206 -0.4651 -0.0840
   73MOL0     C 9773   4.683   6.769   0.384  0.4164 -0.2590  0.0549
   73MOL0     C 9774   4.814   6.798   0.361  0.8578  0.0849  0.3284
   73MOL0     C 9775   5.244   6.939   0.467 -0.0541  0.1373 -0.3438
   73MOL0     C 9776   5.296   6.887   0.343 -0.8147  0.6111 -0.0137
   73MOL0     C 9777   5.429   6.914   0.323  0.2865 -0.7536 -0.9364
   73MOL0     C 9778   5.510   6.983   0.413  0.3764  0.5924  0.2428
   73MOL0     O 9779   5.645   7.012   0.404 -0.1374 -0.9734  0.0467
   73MOL0     C 9780   5.716   6.965   0.289  0.1899 -0.3832 -0.2381
   73MOL0     C 9781   5.856   7.016   0.279  0.6758  0.8362  0.8262
   73MOL0     C 9782   5.880   7.158   0.333 -0.1497 -0.3959 -0.0157
   73MOL0     C 9783   6.024   7.196   0.369  0.0416  0.7219  0.4239
   73MOL0     C 9784   6.038   7.338   0.405  1.1522  0.1230 -0.6265
   73MOL0     C 9785   6.059   7.450   0.443  0.6560 -0.3009  0.5668
   73MOL0     C 9786   5.453   7.038   0.518  0.0369 -0.3350 -1.2324
   73MOL0     C 9787   5.322   7.020   0.552 -1.3225 -0.2249  0.1957
   73MOL0     H 9788   4.965   6.665   0.623 -0.9521 -1.5194 -0.8338
   73MOL0     H 9789   4.723   6.615   0.681 -0.2641  0.1249  0.0976
   73MOL0     H 9790   4.457   6.655   0.342  1.3535 -0.0762 -1.4097
   73MOL0     H 9791   4.529   6.506   0.406  1.5094  0.8420  0.6533
   73MOL0     H 9792   4.252   6.603   0.500  1.4743 -0.5503  2.4376
   73MOL0     H 9793   4.278   6.501   0.368 -1.1981 -1.4741  1.1164
   73MOL0     H 9794   4.384   6.330   0.539 -1.2707 -0.2408 -1.7055
   73MOL0     H 9795   4.395   6.456   0.656  1.2243 -1.2730  0.0635
   73MOL0     H 9796   4.137   6.455   0.682 -1.8545 -0.9593  0.2235
   73MOL0     H 9797   4.119   6.351   0.544 -0.8436  1.1987  0.1674
   73MOL0     H 9798   4.242   6.170   0.673  0.2027 -0.6163 -0.0069
   73MOL0     H 9799   4.226   6.262   0.821  3.1995  1.7854 -1.2804
   73MOL0     H 9800   3.991   6.174   0.638 -2.4188 -2.1437  1.1395
   73MOL0     H 9801   4.043   6.091   0.771 -0.3923  0.3792  0.0649
   73MOL0     H 9802   3.996   6.267   0.935 -1.7807  1.9884  1.8344
   73MOL0     H 9803   3.978   6.388   0.817  0.4568  0.2482 -2.4164
   73MOL0     H 9804   3.815   6.123   0.823  1.5063 -0.1683  0.9296
   73MOL0     H 9805   3.807   6.252   0.703  0.8708 -2.0779 -0.3894
   73MOL0     H 9806   3.775   6.219   1.084  1.3443  0.0037 -0.1191
   73MOL0     H 9807   3.613   6.332   1.279 -1.1711 -2.7232 -2.1415
   73MOL0     H 9808   3.601   6.504   1.243  0.5144 -0.5049 -0.3170
   73MOL0     H 9809   3.379   6.298   1.213  3.0765 -2.2891  4.0717
   73MOL0     H 9810   3.375   6.465   1.142  0.4219  0.6343 -0.9087
   73MOL0     H 9811   3.408   6.548   1.394 -1.8232 -0.4732  1.6591
   73MOL0     H 9812   3.399   6.371   1.433 -0.4483 -1.9388 -0.8671
   73MOL0     H 9813   3.176   6.535   1.300  1.9251  1.7862  1.6832
   73MOL0     H 9814   3.175   6.512   1.473 -1.5663  2.0419 -0.5620
   73MOL0     H 9815   3.026   6.132   1.314  0.1978  1.2041 -2.5570
   73MOL0     H 9816   2.877   5.973   1.314 -1.5711 -1.3870  1.0536
   73MOL0     H 9817   2.699   5.993   1.357 -2.1962  0.9608 -2.4823
   73MOL0     H 9818   2.766   6.037   1.203  0.1822  0.6218  0.1101
   73MOL0     H 9819   2.378   6.337   1.695 -1.2457  0.2989  0.9899
   73MOL0     H 9820   2.161   6.263   1.718 -1.2605 -0.6740 -0.4716
   73MOL0     H 9821   1.927   6.191   1.683 -0.7800 -0.0586  1.2628
   73MOL0     H 9822   1.961   6.362   1.692  0.3736 -0.7134 -0.9313
   73MOL0     H 9823   1.735   6.410   1.585 -0.3592  0.2112 -0.3211
   73MOL0     H 9824   1.732   6.232   1.552  2.9235 -0.8324 -0.3456
   73MOL0     H 9825   1.775   6.329   1.837 -0.3878 -5.2377  3.0091
   73MOL0     H 9826   1.680   6.193   1.787  1.1335 -0.3558 -1.1835
   73MOL0     H 9827   1.598   6.476   1.791 -1.6696  0.2135 -0.6515
   73MOL0     H 9828   1.512   6.362   1.683  0.9380  1.9680 -1.2467
   73MOL0     H 9829   1.543   6.365   1.997  1.7178  1.7823 -1.7197
   73MOL0     H 9830   1.451   6.240   1.903 -1.7139  1.0780 -0.0051
   73MOL0     H 9831   1.414   6.535   1.872  1.0987 -0.1680 -0.2047
   73MOL0     H 9832   1.307   6.410   1.810 -1.2416  2.8559  0.2114
   73MOL0     H 9833   1.327   6.476   2.107 -0.9278  1.3518  0.1733
   73MOL0     H 9834   1.218   6.360   2.038  3.0012 -0.9241  1.5118
   73MOL0     H 9835   1.235   6.661   2.000  1.3445 -0.2857  0.3900
   73MOL0     H 9836   1.120   6.573   2.086  2.1045 -0.6399  1.0285
   73MOL0     H 9837   2.081   6.338   1.304  0.4639  1.3196  0.7636
   73MOL0     H 9838   2.339   6.367   1.264  0.1835  2.2101  0.1369
   73MOL0     H 9839   2.732   6.492   1.476  1.5484  2.0147 -0.4111
   73MOL0     H 9840   2.963   6.535   1.439 -0.2418  0.8388 -2.8376
   73MOL0     H 9841   4.605   6.809   0.321 -0.7428 -2.0072  0.3281
   73MOL0     H 9842   4.842   6.863   0.279  0.0983  0.0701  0.0444
   73MOL0     H 9843   5.249   6.812   0.280 -2.0321  0.4861  0.9927
   73MOL0     H 9844   5.479   6.868   0.238  2.3502 -0.4058  0.0284
   73MOL0     H 9845   5.713   6.856   0.289 -1.2812 -0.3645 -0.2379
   73MOL0     H 9846   5.672   6.991   0.192 -3.3658 -1.6730  0.8576
   73MOL0     H 9847   5.886   7.006   0.175 -2.7277  2.6544 -0.5042
   73MOL0     H 9848   5.929   6.959   0.337  1.2585  1.9863  1.2649
   73MOL0     H 9849   5.821   7.168   0.424 -0.1655 -0.2391 -0.0429
   73MOL0     H 9850   5.848   7.235   0.261 -0.1602  1.2318  1.6581
   73MOL0     H 9851   6.100   7.167   0.296  1.1034 -0.8793  2.0720
   73MOL0     H 9852   6.054   7.131   0.451 -0.3569 -2.9885 -2.1263
   73MOL0     H 9853   6.073   7.557   0.448 -0.2343 -0.1524  0.0338
   73MOL0     H 9854   5.513   7.102   0.583 -1.0113 -1.6594  1.1635
   73MOL0     H 9855   5.276   7.052   0.645 -2.0512 -1.3102  0.2355
   74MOL0     O 9856   9.221  11.206  10.959  0.0957 -0.8078 -0.6096
   74MOL0     C 9857   9.305  11.300  10.984  1.0361 -1.0795  0.4116
   74MOL0     O 9858   9.279  11.431  11.012  0.7002  0.2995  0.6696
   74MOL0     C 9859   9.151  11.471  11.037  0.4694  0.2488  0.4130
   74MOL0     C 9860   9.040  11.435  10.953 -0.9566 -0.9780 -0.9550
   74MOL0     C 9861   8.915  11.474  10.995 -0.0061  0.3355 -0.9813
   74MOL0     C 9862   8.901  11.556  11.106  0.9567 -0.0012  0.5755
   74MOL0     O 9863   8.781  11.590  11.165  0.6205 -0.0702  0.7138
   74MOL0     C 9864   8.661  11.518  11.141 -0.8066  0.9669  0.1131
   74MOL0     C 9865   8.601  11.492  11.277  0.1253 -0.1828  0.2386
   74MOL0     C 9866   8.468  11.421  11.251 -0.0914 -0.5028  0.5286
   74MOL0     C 9867   8.364  11.431  11.369  0.2304 -0.6350 -0.3945
   74MOL0     C 9868   8.234  11.361  11.324 -0.0318 -0.1582  0.7242
   74MOL0     C 9869   8.131  11.378  11.437  0.6233  0.7033 -0.7180
   74MOL0     C 9870   8.057  11.518  11.439 -1.0051  0.6538 -0.0992
   74MOL0     C 9871   7.996  11.548  11.582 -0.0561  0.1244 -0.0057
   74MOL0     N 9872   7.874  11.466  11.603 -0.5105 -0.6790 -0.0881
   74MOL0     C 9873   7.839  11.450  11.730  0.6374 -0.3253  0.0552
   74MOL0     C 9874   7.729  11.384  11.726  0.3245  0.6301  0.2044
   74MOL0     C 9875   7.662  11.332  11.845  0.5394  0.2696 -0.1118
   74MOL0     C 9876   7.516  11.383  11.871  0.1782  0.4642 -0.9941
   74MOL0     C 9877   7.425  11.390  11.745  1.2177  0.7521  0.2616
   74MOL0     C 9878   7.280  11.434  11.776  0.1314  0.1602 -0.1340
   74MOL0     O 9879   7.271  11.571  11.809 -0.6694 -0.2938  0.0303
   74MOL0     C 9880   7.154  11.614  11.876  1.0676  0.3732  0.3479
   74MOL0     C 9881   7.157  11.741  11.928  0.2115  0.1214 -0.0196
   74MOL0     C 9882   7.038  11.803  11.979 -0.7246  0.7208 -0.0713
   74MOL0     C 9883   7.046  11.949  12.027  0.3884  0.0266  0.4427
   74MOL0     C 9884   6.920  11.724  12.008  1.0683  1.0816 -0.2822
   74MOL0     C 9885   6.789  11.767  12.066 -0.5329 -1.7026 -0.0658
   74MOL0     O 9886   6.671  11.725  12.018  0.3026  0.4816 -0.3731
   74MOL0     C 9887   6.554  11.765  12.075  0.9342 -0.3129 -0.0174
   74MOL0     C 9888   6.520  11.900  12.101  0.9740 -0.2635  0.3029
   74MOL0     C 9889   6.391  11.937  12.146 -0.8302 -0.2880 -0.2890
   74MOL0     C 9890   6.290  11.845  12.162  0.0638  0.3093 -0.1320
   74MOL0     O 9891   6.163  11.875  12.203  0.3618 -0.0369 -0.2580
   74MOL0     C 9892   6.114  11.986  12.137 -0.0115 -0.8735  0.1858
   74MOL0     C 9893   5.963  11.967  12.119 -0.2460 -0.6776  0.3165
   74MOL0     C 9894   5.882  11.987  12.245 -0.6511 -0.1739  0.2744
   74MOL0     C 9895   5.733  11.959  12.225  0.7872 -0.3304 -0.1976
   74MOL0     C 9896   5.662  11.970  12.362  0.6805  0.8131  0.9888
   74MOL0     C 9897   5.651  12.112  12.427 -0.0127 -0.1828  0.2878
   74MOL0     C 9898   5.587  12.226  12.351  0.3676 -0.6373  0.0382
   74MOL0     C 9899   5.436  12.209  12.322  0.0808 -0.2024 -0.0024
   74MOL0    Cl 9900   5.337  12.192  12.480 -0.0698  0.0386 -0.6910
   74MOL0     C 9901   6.315  11.720  12.140  0.2793  0.2106 -0.8837
   74MOL0     C 9902   6.444  11.676  12.096  0.1848 -0.2514 -1.4412
   74MOL0     O 9903   6.804  11.830  12.168 -0.3937 -0.8255  0.5871
   74MOL0     C 9904   6.922  11.586  11.965 -0.2703 -1.2343  0.1476
   74MOL0     C 9905   7.035  11.540  11.894  0.6151 -0.4752 -0.8383
   74MOL0     N 9906   7.694  11.353  11.596  0.6117  1.1101  0.1186
   74MOL0     N 9907   7.788  11.400  11.519 -0.7928 -0.4238 -0.6844
   74MOL0     C 9908   9.009  11.600  11.182 -0.1694 -0.3147  0.0371
   74MOL0     C 9909   9.133  11.549  11.149 -0.2650  0.2323 -0.3574
   74MOL0     C 9910   9.441  11.253  10.996 -0.2577  0.2321  0.9682
   74MOL0     C 9911   9.539  11.358  11.015  0.3069  0.6766 -1.0820
   74MOL0     C 9912   9.667  11.328  11.055  0.1091  0.4002 -0.8145
   74MOL0     C 9913   9.709  11.192  11.075  0.4249 -0.4057 -0.5255
   74MOL0     O 9914   9.836  11.184  11.135  0.0001 -0.0995 -0.0201
   74MOL0     C 9915   9.901  11.055  11.123  0.3071 -0.8163  0.7417
   74MOL0     C 9916   9.923  10.995  11.261 -0.6570 -0.0593 -1.2794
   74MOL0     C 9917   9.802  10.999  11.353 -0.5412  0.6769 -0.5342
   74MOL0     C 9918   9.835  10.934  11.495  0.8863 -0.3903 -0.3208
   74MOL0     C 9919   9.718  10.949  11.584 -1.2628 -0.0803 -0.8543
   74MOL0     C 9920   9.619  10.954  11.653  1.1362 -0.0041 -0.1892
   74MOL0     C 9921   9.619  11.088  11.052  0.1808  0.2070 -0.5377
   74MOL0     C 9922   9.488  11.118  11.008  0.2713  0.5704 -0.1917
   74MOL0     H 9923   9.058  11.386  10.859 -0.9228  0.2623 -1.6183
   74MOL0     H 9924   8.827  11.446  10.939  0.4834  0.5480 -1.8788
   74MOL0     H 9925   8.590  11.580  11.086  1.0343  0.2417 -3.4764
   74MOL0     H 9926   8.665  11.430  11.075 -2.0901 -1.1893  2.7360
   74MOL0     H 9927   8.671  11.434  11.338  0.1617 -0.3574  0.0328
   74MOL0     H 9928   8.580  11.589  11.323 -0.3786  0.1144 -0.6082
   74MOL0     H 9929   8.426  11.464  11.160  2.3897  0.5544 -0.1879
   74MOL0     H 9930   8.494  11.315  11.241 -0.8361 -0.5331 -1.6366
   74MOL0     H 9931   8.407  11.373  11.452 -3.3269  0.1238  2.2128
   74MOL0     H 9932   8.343  11.528  11.414  0.0027 -1.4101  1.2731
   74MOL0     H 9933   8.206  11.409  11.230 -4.4059 -1.6691  1.0222
   74MOL0     H 9934   8.246  11.254  11.304 -2.2182 -0.3747  0.2874
   74MOL0     H 9935   8.045  11.314  11.417 -0.7100  1.7755  1.2523
   74MOL0     H 9936   8.165  11.358  11.539 -2.4533  0.2760  0.3321
   74MOL0     H 9937   8.133  11.597  11.430  1.0077 -0.9774  1.5721
   74MOL0     H 9938   7.985  11.518  11.357  0.0419 -1.4724 -1.0976
   74MOL0     H 9939   7.960  11.649  11.601 -0.9346 -0.7378  3.7472
   74MOL0     H 9940   8.069  11.513  11.656 -0.7259 -3.2044 -0.7231
   74MOL0     H 9941   7.899  11.485  11.814  0.4596  0.6428 -0.2135
   74MOL0     H 9942   7.659  11.223  11.840 -1.6386  0.3143 -0.6490
   74MOL0     H 9943   7.721  11.352  11.935 -1.0491  2.5207  0.5139
   74MOL0     H 9944   7.525  11.483  11.916  0.4438 -0.0776  0.2082
   74MOL0     H 9945   7.471  11.331  11.956  2.1238  0.8080  0.3308
   74MOL0     H 9946   7.406  11.300  11.686  2.2366  1.2428 -0.8480
   74MOL0     H 9947   7.452  11.478  11.685  1.5886  1.7460  1.8373
   74MOL0     H 9948   7.249  11.382  11.867 -1.4262 -0.3382 -0.9135
   74MOL0     H 9949   7.220  11.406  11.689  2.0533  0.2715 -1.5408
   74MOL0     H 9950   7.243  11.805  11.912  0.4460  0.0551  0.9162
   74MOL0     H 9951   7.083  11.950  12.130  2.2117  0.2673 -0.1778
   74MOL0     H 9952   7.106  12.013  11.963  3.4193 -1.4618  1.5898
   74MOL0     H 9953   6.944  11.988  12.035 -0.3394 -2.0136  2.0423
   74MOL0     H 9954   6.594  11.975  12.073  1.4017 -1.2349 -1.3408
   74MOL0     H 9955   6.374  12.043  12.158  1.0967  0.1576 -1.1271
   74MOL0     H 9956   6.142  12.076  12.192  0.5287 -2.0299  1.8811
   74MOL0     H 9957   6.151  11.994  12.035  1.0871 -1.8940  0.4865
   74MOL0     H 9958   5.928  12.047  12.054  1.7258 -0.3970 -0.4889
   74MOL0     H 9959   5.939  11.875  12.065  1.3729 -0.1146 -1.4929
   74MOL0     H 9960   5.897  12.087  12.289  0.1956 -0.8991  1.7343
   74MOL0     H 9961   5.917  11.919  12.324  3.9354  0.6581 -0.7378
   74MOL0     H 9962   5.687  12.021  12.147  1.4981  0.4346 -0.0187
   74MOL0     H 9963   5.724  11.854  12.196  1.7349 -0.7382  0.9033
   74MOL0     H 9964   5.718  11.911  12.435  1.2577  1.8147  1.3699
   74MOL0     H 9965   5.561  11.929  12.359  0.7894  0.4967  1.5132
   74MOL0     H 9966   5.601  12.097  12.523 -0.8213  3.4585  0.5783
   74MOL0     H 9967   5.750  12.144  12.459  0.1842 -1.0103  0.5286
   74MOL0     H 9968   5.634  12.238  12.253 -0.7756 -0.1181 -0.4635
   74MOL0     H 9969   5.593  12.322  12.403  1.1478  1.3291 -3.3177
   74MOL0     H 9970   5.417  12.127  12.252  0.2655  0.8606 -1.3451
   74MOL0     H 9971   5.409  12.299  12.265 -1.3985  0.4609  1.6677
   74MOL0     H 9972   6.234  11.648  12.145  1.6626 -1.3484  0.8281
   74MOL0     H 9973   6.453  11.570  12.078  0.5662 -0.5503  0.3011
   74MOL0     H 9974   6.840  11.516  11.972 -0.2242 -1.2871  0.1630
   74MOL0     H 9975   7.026  11.445  11.842 -0.3601 -0.6809 -0.3269
   74MOL0     H 9976   8.997  11.654  11.276 -0.5219 -1.9630  0.9898
   74MOL0     H 9977   9.215  11.571  11.216 -1.3808  1.2324  0.7352
   74MOL0     H 9978   9.505  11.461  11.015  2.4468  1.4476  0.7097
   74MOL0     H 9979   9.739  11.408  11.074 -0.1249  0.6904 -1.1327
   74MOL0     H 9980   9.853  10.979  11.061 -2.0401  1.4985 -0.4774
   74MOL0     H 9981   9.997  11.084  11.081  0.6069 -2.2307  0.4003
   74MOL0     H 9982  10.004  11.050  11.309 -2.4183  1.3766  0.1828
   74MOL0     H 9983   9.950  10.889  11.248  0.5400 -0.4585  2.9676
   74MOL0     H 9984   9.714  10.954  11.306 -0.5955 -0.6790  0.7903
   74MOL0     H 9985   9.791  11.104  11.384 -0.9082 -0.4805  4.0791
   74MOL0     H 9986   9.926  10.976  11.538  1.4934 -1.5341 -0.4722
   74MOL0     H 9987   9.851  10.827  11.485 -2.5166 -0.7985 -3.2772
   74MOL0     H 9988   9.533  10.962  11.717  0.5392 -0.9937 -0.8386
   74MOL0     H 9989   9.643  10.984  11.068 -1.3752 -0.0131  0.5620
   74MOL0     H 9990   9.419  11.039  10.978  0.5038  1.0439 -2.1158
   75MOL0     O 9991   1.400   2.306   0.286  0.1405  0.2406 -0.2037
   75MOL0     C 9992   1.453   2.411   0.326  0.5772  0.3546 -0.4332
   75MOL0     O 9993   1.391   2.508   0.396  0.4349  0.4660  0.0998
   75MOL0     C 9994   1.264   2.480   0.420 -0.2494  0.5911  0.0414
   75MOL0     C 9995   1.223   2.381   0.506  0.4063  0.0224  0.5357
   75MOL0     C 9996   1.087   2.353   0.525 -0.2851  1.3089 -0.0552
   75MOL0     C 9997   0.983   2.415   0.461 -0.2712 -0.0433 -0.3069
   75MOL0     O 9998   0.857   2.370   0.477 -0.3574 -0.1729 -0.2215
   75MOL0     C 9999   0.752   2.432   0.409  0.1671 -0.3892 -1.0320
   75MOL0     C10000   0.623   2.410   0.490 -0.0350 -0.0416  0.1367
   75MOL0     C10001   0.496   2.481   0.428 -0.1585  0.3357 -0.2701
   75MOL0     C10002   0.381   2.412   0.496  0.4197  1.0787  0.1809
   75MOL0     C10003   0.251   2.490   0.460 -0.7206  0.5358 -1.1022
   75MOL0     C10004   0.198   2.477   0.323 -0.3517 -0.3776  1.1184
   75MOL0     C10005   0.207   2.336   0.261  0.2747 -0.5275  0.0094
   75MOL0     C10006   0.132   2.328   0.124 -0.4482  0.5320  0.6186
   75MOL0     N10007  -0.007   2.308   0.146 -0.0777 -0.2051 -0.6321
   75MOL0     C10008  -0.060   2.205   0.210  0.6895 -0.0684 -0.0032
   75MOL0     C10009  -0.194   2.203   0.174 -1.3873  0.1304  0.0195
   75MOL0     C10010  -0.292   2.108   0.224  0.0617  0.1229 -0.1120
   75MOL0     C10011  -0.367   2.172   0.343  0.0806  0.3562  0.5858
   75MOL0     C10012  -0.495   2.246   0.284 -0.3991 -0.0066  0.2811
   75MOL0     C10013  -0.607   2.263   0.375 -0.1941  0.5331 -0.2119
   75MOL0     O10014  -0.715   2.318   0.297 -0.0818 -0.3554  0.1738
   75MOL0     C10015  -0.836   2.302   0.354  1.3818 -0.0081  0.2751
   75MOL0     C10016  -0.934   2.255   0.268  0.4853 -1.3693  1.3575
   75MOL0     C10017  -1.071   2.251   0.300  0.3623  1.2451 -0.0037
   75MOL0     C10018  -1.162   2.209   0.182 -0.6709 -0.7282  0.7699
   75MOL0     C10019  -1.110   2.277   0.433 -0.0449  0.5507 -0.5899
   75MOL0     C10020  -1.253   2.273   0.476 -0.2495  0.1883 -0.3306
   75MOL0     O10021  -1.351   2.270   0.380 -0.4928 -0.7193  0.2412
   75MOL0     C10022  -1.468   2.322   0.411 -0.9664  0.4976  0.8278
   75MOL0     C10023  -1.481   2.452   0.469  0.1863 -0.5079 -0.0409
   75MOL0     C10024  -1.606   2.500   0.512 -0.1647  0.0236  0.1130
   75MOL0     C10025  -1.718   2.421   0.485 -0.2234  0.0016 -0.7928
   75MOL0     O10026  -1.830   2.474   0.542 -0.0712 -0.3827  0.0463
   75MOL0     C10027  -1.954   2.409   0.526  0.0551  0.0028  0.1850
   75MOL0     C10028  -2.055   2.528   0.558  0.2140  0.1139 -0.1778
   75MOL0     C10029  -2.203   2.487   0.563 -0.6183  0.3479 -0.4954
   75MOL0     C10030  -2.293   2.585   0.638  0.1709  0.5336  0.8709
   75MOL0     C10031  -2.443   2.570   0.598 -0.7178 -0.0494  0.0387
   75MOL0     C10032  -2.527   2.684   0.655  0.5822 -0.9493  0.6011
   75MOL0     C10033  -2.671   2.681   0.593 -0.4469  0.0685 -0.5438
   75MOL0     C10034  -2.757   2.574   0.662  0.6565  0.6354  0.0384
   75MOL0    Cl10035  -2.924   2.558   0.597 -0.1069  0.3179  0.1147
   75MOL0     C10036  -1.707   2.293   0.423  0.9471 -0.5923 -0.9913
   75MOL0     C10037  -1.578   2.242   0.381 -0.9598  0.4122 -0.6469
   75MOL0     O10038  -1.272   2.280   0.599 -0.5410 -0.7053  0.6982
   75MOL0     C10039  -1.006   2.303   0.529  0.3202  1.1857  0.5293
   75MOL0     C10040  -0.877   2.333   0.484  1.3006  0.2726  0.2372
   75MOL0     N10041  -0.207   2.315   0.090 -0.1834 -0.8694  0.5071
   75MOL0     N10042  -0.095   2.370   0.068  0.0139 -0.3275 -0.5324
   75MOL0     C10043   1.026   2.506   0.360  1.4242 -0.5350  0.4907
   75MOL0     C10044   1.161   2.546   0.349  0.1628  0.5720  0.0108
   75MOL0     C10045   1.591   2.440   0.291 -0.9412  0.0965 -0.1435
   75MOL0     C10046   1.647   2.566   0.320 -0.4428  0.3306  0.3015
   75MOL0     C10047   1.780   2.596   0.283  0.5277 -0.2041 -1.1244
   75MOL0     C10048   1.865   2.501   0.228 -0.8531 -0.2556 -0.5714
   75MOL0     O10049   1.993   2.537   0.191  0.2029  0.0436 -0.6842
   75MOL0     C10050   2.095   2.526   0.303  0.4156  0.0707  0.5883
   75MOL0     C10051   2.231   2.512   0.238 -0.2452 -0.4221  0.5520
   75MOL0     C10052   2.280   2.635   0.159  0.4589 -0.5987  0.3350
   75MOL0     C10053   2.430   2.622   0.126  0.7616  0.1103  0.0006
   75MOL0     C10054   2.450   2.519   0.024 -0.7185 -0.4406  0.5097
   75MOL0     C10055   2.476   2.430  -0.051  0.7363  0.4513 -0.7997
   75MOL0     C10056   1.817   2.375   0.209 -0.0212  0.4298 -0.6907
   75MOL0     C10057   1.681   2.346   0.240  0.0999  0.5769 -0.6074
   75MOL0     H10058   1.304   2.332   0.559  0.8814 -1.5254 -1.4845
   75MOL0     H10059   1.075   2.270   0.594  1.2496  1.9849  1.0625
   75MOL0     H10060   0.774   2.538   0.422  0.6937 -0.6514  0.4113
   75MOL0     H10061   0.746   2.403   0.303 -0.7057 -1.1840 -0.7789
   75MOL0     H10062   0.609   2.301   0.495 -1.8522  0.1304 -0.6425
   75MOL0     H10063   0.647   2.460   0.584  3.4284 -1.5794  0.2373
   75MOL0     H10064   0.493   2.588   0.455 -1.7359  0.0154  1.0367
   75MOL0     H10065   0.496   2.473   0.319  1.6144 -2.0596 -0.1691
   75MOL0     H10066   0.376   2.307   0.467 -3.8764  0.6664  1.7089
   75MOL0     H10067   0.392   2.405   0.605 -0.8804 -0.2791  0.2534
   75MOL0     H10068   0.179   2.445   0.529 -0.4061  0.4579 -0.8195
   75MOL0     H10069   0.266   2.593   0.494  1.8978 -0.5233  1.4091
   75MOL0     H10070   0.096   2.511   0.303 -0.3498  0.0042  1.7221
   75MOL0     H10071   0.257   2.552   0.271  0.5019 -0.0122  2.5521
   75MOL0     H10072   0.308   2.319   0.224  0.0735  1.6720 -1.7752
   75MOL0     H10073   0.158   2.268   0.332 -3.7951  1.5936 -0.4757
   75MOL0     H10074   0.172   2.241   0.072 -0.3588  0.3708  0.9512
   75MOL0     H10075   0.143   2.421   0.069 -2.5509  1.6272  1.9111
   75MOL0     H10076  -0.018   2.126   0.272  0.5139  0.3508  0.6618
   75MOL0     H10077  -0.361   2.076   0.145 -0.5895 -0.9220  0.8510
   75MOL0     H10078  -0.235   2.022   0.259  2.7475  1.5533 -0.7060
   75MOL0     H10079  -0.311   2.244   0.403 -0.3754  0.4089  0.9585
   75MOL0     H10080  -0.409   2.089   0.401 -1.6273  1.7249  1.4286
   75MOL0     H10081  -0.538   2.195   0.197 -1.2765  0.6019  0.3426
   75MOL0     H10082  -0.474   2.345   0.244  1.0595 -0.9416 -1.4161
   75MOL0     H10083  -0.578   2.328   0.457 -0.8495 -0.0554  0.5026
   75MOL0     H10084  -0.643   2.172   0.423 -0.9787  1.9529  2.0209
   75MOL0     H10085  -0.905   2.220   0.170  1.8964 -0.7276  1.5269
   75MOL0     H10086  -1.106   2.192   0.090 -2.2029 -0.9211 -0.1787
   75MOL0     H10087  -1.205   2.111   0.202 -1.3897 -0.7667 -0.8426
   75MOL0     H10088  -1.238   2.282   0.151  0.7599  0.6772  0.4761
   75MOL0     H10089  -1.389   2.504   0.495 -0.3896 -0.6433  2.5868
   75MOL0     H10090  -1.623   2.580   0.584 -0.1214 -0.9400  1.2411
   75MOL0     H10091  -1.971   2.375   0.424 -2.7241  1.3263  0.1126
   75MOL0     H10092  -1.964   2.323   0.593 -0.9547  1.3291  1.8261
   75MOL0     H10093  -2.020   2.561   0.657 -0.9213 -0.3479  0.3996
   75MOL0     H10094  -2.049   2.608   0.483  2.8425 -0.8992 -1.1550
   75MOL0     H10095  -2.227   2.390   0.607 -1.4334  1.5940  1.9838
   75MOL0     H10096  -2.229   2.476   0.457 -0.8303 -1.3354 -0.3036
   75MOL0     H10097  -2.276   2.568   0.744  0.6058 -2.7508  0.3811
   75MOL0     H10098  -2.256   2.685   0.616  1.0761  0.5200  2.2113
   75MOL0     H10099  -2.482   2.474   0.634 -1.3548 -1.3844 -3.6976
   75MOL0     H10100  -2.453   2.572   0.489 -2.3698 -0.3021  0.1583
   75MOL0     H10101  -2.534   2.686   0.764 -0.2915  2.9574  0.6179
   75MOL0     H10102  -2.473   2.774   0.625 -2.9675  1.6606  1.3875
   75MOL0     H10103  -2.668   2.650   0.488 -1.2783 -0.3232 -0.4561
   75MOL0     H10104  -2.716   2.777   0.616  1.1943  0.4006  1.6019
   75MOL0     H10105  -2.769   2.608   0.765  0.7642  0.6653  0.0415
   75MOL0     H10106  -2.710   2.475   0.660 -2.8538 -1.3445  2.8182
   75MOL0     H10107  -1.798   2.238   0.403 -2.0870  2.4708  2.7234
   75MOL0     H10108  -1.577   2.153   0.319 -3.2881 -1.4107  1.7181
   75MOL0     H10109  -1.036   2.307   0.633 -0.4412 -1.4484  0.4694
   75MOL0     H10110  -0.794   2.359   0.549  2.7913  1.5942 -2.0581
   75MOL0     H10111   0.952   2.552   0.295  2.1473  2.0038  1.3282
   75MOL0     H10112   1.193   2.624   0.280  0.7994  0.5570  0.2773
   75MOL0     H10113   1.587   2.647   0.359  3.3280  3.1080  0.8589
   75MOL0     H10114   1.817   2.697   0.296  0.3108 -0.4773  2.2714
   75MOL0     H10115   2.082   2.603   0.379  0.3233 -0.6625  1.3338
   75MOL0     H10116   2.082   2.434   0.361  2.0839  0.3794  1.5136
   75MOL0     H10117   2.227   2.423   0.174 -0.0443  0.3316 -0.5248
   75MOL0     H10118   2.299   2.497   0.323 -0.8430  1.0656  1.3286
   75MOL0     H10119   2.275   2.719   0.228  0.2791 -0.9813  0.7918
   75MOL0     H10120   2.229   2.647   0.063  2.9674 -1.5456 -1.2378
   75MOL0     H10121   2.484   2.602   0.219 -2.5354  0.4660  2.1614
   75MOL0     H10122   2.465   2.714   0.077  0.6145  2.6006  4.1089
   75MOL0     H10123   2.491   2.342  -0.110 -1.0744 -1.5112  1.4436
   75MOL0     H10124   1.881   2.297   0.170  1.7557  1.3636  0.2357
   75MOL0     H10125   1.641   2.246   0.229 -0.8130  0.9238 -0.5542
   76MOL0     O10126   0.150  10.168   3.373  0.7330 -0.9127  0.7043
   76MOL0     C10127   0.186  10.077   3.445 -0.0412 -0.3514  0.0746
   76MOL0     O10128   0.106   9.968   3.473 -0.0406 -0.6729  0.6102
   76MOL0     C10129  -0.032   9.972   3.456  0.4518  0.3458 -0.1953
   76MOL0     C10130  -0.109  10.088   3.434  0.0351  0.0858  0.1282
   76MOL0     C10131  -0.246  10.081   3.436 -1.0142  0.3504 -0.1761
   76MOL0     C10132  -0.309   9.959   3.471 -0.0088 -0.1097  0.3405
   76MOL0     O10133  -0.444   9.967   3.488  0.4034  0.0183  0.4606
   76MOL0     C10134  -0.491  10.064   3.577 -0.2577  0.1783  0.1135
   76MOL0     C10135  -0.642  10.043   3.594  0.0293 -0.0254 -0.8181
   76MOL0     C10136  -0.722  10.101   3.478 -0.5653 -0.0145 -0.1770
   76MOL0     C10137  -0.873  10.121   3.486 -0.1360  0.0662 -0.1170
   76MOL0     C10138  -0.939  10.213   3.383 -0.6016 -0.3209  0.4751
   76MOL0     C10139  -0.890  10.173   3.239  0.5143  0.0081  0.2231
   76MOL0     C10140  -0.977  10.232   3.116  0.2692  0.5482  0.1236
   76MOL0     C10141  -1.127  10.231   3.136 -0.8970  0.5719 -0.0918
   76MOL0     N10142  -1.207  10.248   3.014  0.6424  0.2909 -0.0339
   76MOL0     C10143  -1.318  10.175   2.973  0.4265  0.6211 -0.0144
   76MOL0     C10144  -1.361  10.240   2.861  0.1180 -0.1750 -0.2191
   76MOL0     C10145  -1.473  10.186   2.784  0.6120 -0.3238  0.1079
   76MOL0     C10146  -1.604  10.282   2.782 -0.4651  0.3159  0.2455
   76MOL0     C10147  -1.727  10.222   2.698  0.0512 -0.1115  0.1863
   76MOL0     C10148  -1.867  10.274   2.744  0.8284 -0.2278 -0.6508
   76MOL0     O10149  -1.887  10.403   2.695  0.2289  0.1695  0.0816
   76MOL0     C10150  -2.018  10.450   2.703  0.8450 -1.0979 -0.8593
   76MOL0     C10151  -2.048  10.567   2.626  0.0738 -0.6044  0.1476
   76MOL0     C10152  -2.180  10.623   2.627 -0.1337 -0.4761 -0.5471
   76MOL0     C10153  -2.208  10.745   2.540 -0.5037 -1.4243 -0.3317
   76MOL0     C10154  -2.283  10.560   2.708  0.2051  0.3512 -1.0806
   76MOL0     C10155  -2.432  10.605   2.719 -0.1705  0.3183 -0.4458
   76MOL0     O10156  -2.518  10.514   2.767 -0.1269  0.2988  0.3288
   76MOL0     C10157  -2.652  10.534   2.786  0.6630 -0.3948 -0.9987
   76MOL0     C10158  -2.737  10.424   2.772 -0.3150  0.7173 -0.3769
   76MOL0     C10159  -2.866  10.432   2.821 -0.1196  0.0744 -0.4340
   76MOL0     C10160  -2.921  10.550   2.868  0.2516 -0.7824  0.2938
   76MOL0     O10161  -3.052  10.555   2.905 -0.2732  0.0246  0.7089
   76MOL0     C10162  -3.117  10.663   2.984  0.1294  0.0080  0.1572
   76MOL0     C10163  -3.261  10.619   2.980  1.1968 -0.0601  0.3358
   76MOL0     C10164  -3.280  10.472   3.017  0.5427  0.0024 -0.5437
   76MOL0     C10165  -3.368  10.458   3.141 -0.3981  0.0050  0.1092
   76MOL0     C10166  -3.379  10.309   3.180 -0.4839  0.5926  0.2381
   76MOL0     C10167  -3.411  10.193   3.072  0.8684  0.0092  0.2475
   76MOL0     C10168  -3.531  10.219   2.977 -0.0284 -0.3516  0.2161
   76MOL0     C10169  -3.669  10.218   3.040 -0.6603 -0.5650 -0.9785
   76MOL0    Cl10170  -3.789  10.238   2.918  0.0932  0.3219  0.3437
   76MOL0     C10171  -2.837  10.661   2.875 -0.0266  0.4005  0.3180
   76MOL0     C10172  -2.707  10.654   2.833 -0.0034  0.0062 -0.2444
   76MOL0     O10173  -2.467  10.711   2.665  0.2863  0.1152 -0.6443
   76MOL0     C10174  -2.243  10.449   2.788 -0.2043 -0.0632 -0.0951
   76MOL0     C10175  -2.117  10.393   2.788 -0.8449 -0.0165  0.1009
   76MOL0     N10176  -1.279  10.342   2.834 -0.0927  0.5146  0.0375
   76MOL0     N10177  -1.191  10.350   2.922 -1.1539  1.0199 -0.2392
   76MOL0     C10178  -0.238   9.843   3.486 -0.8371  1.0729  0.9062
   76MOL0     C10179  -0.099   9.850   3.470 -0.9013 -0.2229  0.3725
   76MOL0     C10180   0.332  10.050   3.465 -0.3698  0.2933 -0.3615
   76MOL0     C10181   0.433  10.135   3.417  0.2347 -0.0633  0.5446
   76MOL0     C10182   0.566  10.118   3.439  0.0939 -0.6878  0.2712
   76MOL0     C10183   0.618  10.015   3.518  0.2950 -0.6134 -0.1041
   76MOL0     O10184   0.757  10.002   3.529  0.4300  0.3834 -0.7551
   76MOL0     C10185   0.813   9.898   3.445  1.2147 -0.1112 -0.0028
   76MOL0     C10186   0.962   9.904   3.439 -0.3431  0.5116 -0.3387
   76MOL0     C10187   1.022   9.861   3.573  0.5235  0.0836  0.2557
   76MOL0     C10188   1.005   9.715   3.615 -0.5288 -0.4991  0.5599
   76MOL0     C10189   1.062   9.615   3.524  0.4471 -0.7220  0.5641
   76MOL0     C10190   1.126   9.541   3.455  0.3068 -0.2155 -0.7402
   76MOL0     C10191   0.523   9.922   3.569  0.1489 -0.0680  1.1886
   76MOL0     C10192   0.383   9.941   3.542  0.1767  0.2999 -0.5967
   76MOL0     H10193  -0.071  10.188   3.419  0.7317 -0.1193  0.4401
   76MOL0     H10194  -0.302  10.174   3.430 -1.9816 -0.1530  0.7635
   76MOL0     H10195  -0.437  10.055   3.672  1.6956 -0.3375 -0.9863
   76MOL0     H10196  -0.468  10.166   3.544  0.6394  0.0769  0.3906
   76MOL0     H10197  -0.655   9.937   3.617  2.0712 -0.0443  0.5574
   76MOL0     H10198  -0.672  10.104   3.679  2.2608 -1.6815  1.2866
   76MOL0     H10199  -0.665  10.194   3.464  2.3622 -1.3428  1.8053
   76MOL0     H10200  -0.699  10.045   3.387 -0.4111 -0.7358  0.2987
   76MOL0     H10201  -0.905  10.017   3.489  2.6658 -0.9779 -2.2336
   76MOL0     H10202  -0.889  10.168   3.583  1.4307  4.3356 -1.6756
   76MOL0     H10203  -1.046  10.201   3.402 -1.0523 -0.8333 -2.0797
   76MOL0     H10204  -0.897  10.311   3.406 -4.3849  0.8759  3.4346
   76MOL0     H10205  -0.785  10.198   3.224  0.3292  1.7779  1.5684
   76MOL0     H10206  -0.893  10.064   3.229 -0.0704  0.1694 -1.7903
   76MOL0     H10207  -0.955  10.338   3.100 -0.6547  0.6661 -0.4000
   76MOL0     H10208  -0.943  10.192   3.021  2.1056  1.8951  0.1494
   76MOL0     H10209  -1.157  10.310   3.205  1.4196  1.4992 -0.0716
   76MOL0     H10210  -1.152  10.134   3.181 -1.8756  0.7794 -0.1589
   76MOL0     H10211  -1.361  10.092   3.028 -1.0071  0.9068 -0.6676
   76MOL0     H10212  -1.450  10.171   2.679  0.8884 -0.3545  0.1718
   76MOL0     H10213  -1.502  10.091   2.829 -2.1330 -0.1586 -1.1469
   76MOL0     H10214  -1.590  10.387   2.753 -1.0269  0.4758  0.5406
   76MOL0     H10215  -1.641  10.268   2.883  1.0090 -0.4461  0.7034
   76MOL0     H10216  -1.716  10.113   2.702 -0.0428 -0.1192  0.2596
   76MOL0     H10217  -1.716  10.256   2.595  0.0720 -2.3031 -0.5926
   76MOL0     H10218  -1.886  10.280   2.852  0.7659 -1.3161 -0.5864
   76MOL0     H10219  -1.945  10.214   2.696  0.4986  1.3076 -2.1481
   76MOL0     H10220  -1.966  10.617   2.575  0.2832 -1.4646 -0.3804
   76MOL0     H10221  -2.113  10.785   2.504 -0.1803 -1.0352  0.9035
   76MOL0     H10222  -2.285  10.737   2.463 -1.1556  0.1540  0.1233
   76MOL0     H10223  -2.251  10.811   2.615 -0.1235  0.2889 -1.5643
   76MOL0     H10224  -2.690  10.338   2.725  2.0802  0.3058  2.4891
   76MOL0     H10225  -2.932  10.346   2.818 -2.3750  1.7182 -1.1418
   76MOL0     H10226  -3.078  10.661   3.086  1.7449 -2.7251 -0.4092
   76MOL0     H10227  -3.096  10.763   2.945 -0.5750  0.5140  1.0522
   76MOL0     H10228  -3.325  10.683   3.041  1.8442  2.8198 -1.7920
   76MOL0     H10229  -3.295  10.643   2.879  1.7798  1.5328  0.4958
   76MOL0     H10230  -3.182  10.428   3.038  1.3303  2.4216  1.4353
   76MOL0     H10231  -3.330  10.424   2.933 -4.5762  1.1682  1.4488
   76MOL0     H10232  -3.340  10.516   3.229 -1.3986  0.3515  0.2146
   76MOL0     H10233  -3.468  10.492   3.112 -0.6555  0.3778  1.3598
   76MOL0     H10234  -3.451  10.306   3.263 -0.5717  1.8602  0.2235
   76MOL0     H10235  -3.283  10.282   3.226 -0.1442  1.5322  0.1027
   76MOL0     H10236  -3.328  10.178   3.003  1.5434 -1.4702  1.3250
   76MOL0     H10237  -3.432  10.098   3.123  1.3265  0.4496  1.2693
   76MOL0     H10238  -3.534  10.144   2.897 -1.2248 -0.0759 -0.0233
   76MOL0     H10239  -3.520  10.316   2.928 -1.8994 -0.1002  0.2099
   76MOL0     H10240  -3.681  10.303   3.108 -0.2446  1.5120 -3.3433
   76MOL0     H10241  -3.686  10.118   3.082  0.7931  0.2392  1.8410
   76MOL0     H10242  -2.873  10.753   2.920 -0.9720  0.7680 -1.1249
   76MOL0     H10243  -2.638  10.737   2.847 -1.1136  1.2559 -1.8894
   76MOL0     H10244  -2.321  10.407   2.851 -1.5011 -0.3710 -1.8119
   76MOL0     H10245  -2.102  10.304   2.849 -0.3825 -0.0063  0.0029
   76MOL0     H10246  -0.283   9.752   3.523 -0.2350  1.5035  2.8167
   76MOL0     H10247  -0.037   9.761   3.468 -0.6257 -0.1601  2.8688
   76MOL0     H10248   0.416  10.212   3.342  0.6386  2.1976  2.6488
   76MOL0     H10249   0.640  10.177   3.387  0.2598  2.1135  3.3045
   76MOL0     H10250   0.775   9.800   3.476 -1.0343  0.7831  0.2721
   76MOL0     H10251   0.788   9.915   3.340  1.8400  2.3006  0.1831
   76MOL0     H10252   0.987  10.009   3.418  1.2469  0.3536  0.6276
   76MOL0     H10253   1.005   9.846   3.357 -0.7131  0.4905 -0.5175
   76MOL0     H10254   0.981   9.921   3.654  0.9331 -0.1098  0.6115
   76MOL0     H10255   1.129   9.888   3.575  1.1274 -2.1479  1.0507
   76MOL0     H10256   0.902   9.705   3.650 -0.8378  2.9377  0.9218
   76MOL0     H10257   1.068   9.715   3.705  0.2037  2.9776  0.1796
   76MOL0     H10258   1.175   9.481   3.381  0.8435  1.5537 -1.8772
   76MOL0     H10259   0.567   9.844   3.632 -0.7842 -1.0316  0.6798
   76MOL0     H10260   0.319   9.872   3.595 -2.8231  3.9207  0.9308
   77MOL0     O10261   0.192   9.728   7.066 -0.0379 -0.3099  0.1073
   77MOL0     C10262   0.184   9.829   6.997  0.2361  0.5442  1.4965
   77MOL0     O10263   0.277   9.866   6.896  0.0639 -0.1170 -0.2555
   77MOL0     C10264   0.364   9.769   6.858 -0.7462 -0.0281 -0.3047
   77MOL0     C10265   0.501   9.768   6.907  0.3495  0.0466  0.2252
   77MOL0     C10266   0.591   9.681   6.862 -0.2461 -0.0150 -0.0472
   77MOL0     C10267   0.553   9.586   6.775  0.2161  0.9424 -0.0196
   77MOL0     O10268   0.615   9.473   6.741  0.2237 -0.4713 -0.3005
   77MOL0     C10269   0.751   9.444   6.784 -0.1160 -0.7268  0.6868
   77MOL0     C10270   0.801   9.336   6.694 -0.2285 -0.8645 -0.6132
   77MOL0     C10271   0.777   9.385   6.546 -0.0723 -1.1750  0.4091
   77MOL0     C10272   0.836   9.272   6.463  0.5266 -0.9696 -0.6587
   77MOL0     C10273   0.815   9.291   6.312 -0.1587 -0.1579 -0.2983
   77MOL0     C10274   0.893   9.409   6.262  0.4383  0.1135  0.3148
   77MOL0     C10275   0.886   9.414   6.106 -1.2704 -0.4351 -0.1165
   77MOL0     C10276   0.873   9.557   6.042  0.7850  0.2860 -0.0208
   77MOL0     N10277   0.729   9.587   6.019 -0.3012  0.3069  0.5804
   77MOL0     C10278   0.631   9.636   6.104 -0.1638  0.2981  0.8386
   77MOL0     C10279   0.522   9.649   6.026 -0.0593  0.4141 -0.4023
   77MOL0     C10280   0.380   9.702   6.069 -0.4752 -0.6932 -0.6851
   77MOL0     C10281   0.306   9.601   6.150  0.1577 -0.0864  0.5221
   77MOL0     C10282   0.301   9.459   6.082 -0.5725  0.2566 -0.8454
   77MOL0     C10283   0.226   9.454   5.940  0.7082 -0.0785  0.6173
   77MOL0     O10284   0.108   9.518   5.958  0.1511 -0.6919  0.2716
   77MOL0     C10285   0.014   9.529   5.860 -0.1218 -0.4963 -0.2326
   77MOL0     C10286   0.033   9.480   5.732  0.5436  0.6139  1.4346
   77MOL0     C10287  -0.061   9.504   5.623  0.5953 -0.2709 -0.4106
   77MOL0     C10288  -0.020   9.464   5.485  0.5674  0.3368 -0.0451
   77MOL0     C10289  -0.182   9.572   5.655  0.7301  0.0560 -0.3838
   77MOL0     C10290  -0.303   9.566   5.572  0.3795  0.2060  0.7087
   77MOL0     O10291  -0.421   9.627   5.619 -0.3335 -0.0708  0.3026
   77MOL0     C10292  -0.540   9.593   5.558 -0.7031  0.3409  0.4286
   77MOL0     C10293  -0.634   9.695   5.527  0.2021  0.2373 -0.1766
   77MOL0     C10294  -0.755   9.660   5.454  0.3207 -1.0744  0.8762
   77MOL0     C10295  -0.790   9.538   5.435 -0.0616  0.9071  0.7856
   77MOL0     O10296  -0.896   9.501   5.358  0.2008  0.0421 -0.0553
   77MOL0     C10297  -1.018   9.579   5.375  0.3132 -0.7136  0.3604
   77MOL0     C10298  -1.146   9.523   5.305  0.4303  0.3757  0.3281
   77MOL0     C10299  -1.127   9.482   5.157 -0.0050 -0.6280  0.4901
   77MOL0     C10300  -1.264   9.461   5.081  0.1720  0.2306  0.9766
   77MOL0     C10301  -1.325   9.329   5.140  0.7274 -0.8263  0.3219
   77MOL0     C10302  -1.454   9.296   5.062  0.2021 -0.6005 -0.5784
   77MOL0     C10303  -1.532   9.188   5.138 -0.9107  0.6607  0.0805
   77MOL0     C10304  -1.446   9.059   5.140  0.2937  0.3230  1.0090
   77MOL0    Cl10305  -1.538   8.918   5.194  0.2964 -0.1076 -0.0701
   77MOL0     C10306  -0.712   9.433   5.488 -0.5739  0.5390 -0.8219
   77MOL0     C10307  -0.588   9.461   5.552  0.9895  0.2149  0.2096
   77MOL0     O10308  -0.301   9.500   5.466  0.5059 -0.0370  0.4815
   77MOL0     C10309  -0.198   9.608   5.783  0.1624  0.5133 -0.0274
   77MOL0     C10310  -0.102   9.589   5.887 -0.0194  0.3485  1.2127
   77MOL0     N10311   0.562   9.608   5.897  0.0341 -0.2993 -0.4540
   77MOL0     N10312   0.685   9.580   5.889 -0.0050 -1.3496 -0.1685
   77MOL0     C10313   0.424   9.596   6.715 -0.3604  0.0931 -0.1238
   77MOL0     C10314   0.331   9.694   6.747 -0.9866  0.0953 -0.6040
   77MOL0     C10315   0.055   9.908   6.995 -0.4144  0.8837  0.5345
   77MOL0     C10316  -0.037   9.881   7.088  0.2698  0.1742 -0.1614
   77MOL0     C10317  -0.155   9.949   7.100 -0.0206 -0.1187 -0.3720
   77MOL0     C10318  -0.186  10.055   7.012 -0.4687 -0.6479 -0.2367
   77MOL0     O10319  -0.290  10.136   7.026  0.5092  0.0325  0.3016
   77MOL0     C10320  -0.361  10.147   7.147  0.8676  0.0617  0.8363
   77MOL0     C10321  -0.460  10.257   7.114  0.4454  0.0501  0.6920
   77MOL0     C10322  -0.554  10.204   7.004 -0.7092 -0.3030 -0.0419
   77MOL0     C10323  -0.665  10.305   6.969  0.5405  0.4327  0.5409
   77MOL0     C10324  -0.616  10.389   6.861 -0.1362  0.0519 -0.7960
   77MOL0     C10325  -0.580  10.436   6.749 -0.0582 -0.4705 -0.5893
   77MOL0     C10326  -0.093  10.072   6.905 -0.3220 -0.3272 -0.1919
   77MOL0     C10327   0.025   9.991   6.894  0.3807 -0.2124  0.2433
   77MOL0     H10328   0.536   9.830   6.990  3.8836 -0.3108 -0.8174
   77MOL0     H10329   0.686   9.664   6.910 -0.3089 -1.3196 -0.3568
   77MOL0     H10330   0.818   9.526   6.757  0.2991 -0.9335  1.0627
   77MOL0     H10331   0.766   9.430   6.892  2.4186 -1.8504  0.2656
   77MOL0     H10332   0.906   9.309   6.709 -0.4431 -1.2340  0.3199
   77MOL0     H10333   0.743   9.245   6.713  0.4166 -0.9079  1.4956
   77MOL0     H10334   0.672   9.382   6.515  0.2163 -3.6864 -0.6362
   77MOL0     H10335   0.812   9.486   6.526  2.4390 -1.9566  0.6045
   77MOL0     H10336   0.941   9.252   6.489  0.6956 -0.0194 -0.5932
   77MOL0     H10337   0.783   9.182   6.495  0.7470 -0.3646  1.5535
   77MOL0     H10338   0.851   9.200   6.262 -1.3386 -0.0374 -1.4002
   77MOL0     H10339   0.711   9.301   6.279  0.1148 -1.6075 -1.7926
   77MOL0     H10340   0.849   9.502   6.298 -2.0212 -0.2235 -1.5449
   77MOL0     H10341   0.999   9.404   6.290  0.5063 -3.5753 -0.1517
   77MOL0     H10342   0.980   9.377   6.064 -2.4161 -0.5135 -2.8141
   77MOL0     H10343   0.812   9.343   6.068 -1.2338 -0.8171  0.5036
   77MOL0     H10344   0.933   9.557   5.951 -0.0057  1.9037 -0.5826
   77MOL0     H10345   0.915   9.625   6.116  0.0720  2.2988 -1.3710
   77MOL0     H10346   0.626   9.655   6.211  0.5285 -1.0140  1.1133
   77MOL0     H10347   0.390   9.793   6.128 -2.2044 -0.2020 -1.1037
   77MOL0     H10348   0.315   9.724   5.984 -3.7708  1.3632  2.1208
   77MOL0     H10349   0.204   9.641   6.156 -0.6722 -2.2145  1.6103
   77MOL0     H10350   0.340   9.586   6.253  0.5834 -1.6254  0.1740
   77MOL0     H10351   0.236   9.401   6.149  0.4174 -0.1883 -0.2451
   77MOL0     H10352   0.397   9.406   6.079 -1.4500 -1.4246 -0.7880
   77MOL0     H10353   0.202   9.352   5.909  4.1904 -0.5805 -0.9025
   77MOL0     H10354   0.292   9.499   5.865  0.1039  3.3471  1.9548
   77MOL0     H10355   0.123   9.432   5.695 -2.9887 -3.0072 -3.9660
   77MOL0     H10356  -0.057   9.537   5.412 -3.9498  1.2167  2.7219
   77MOL0     H10357   0.087   9.442   5.481  0.1710 -1.6142 -1.0920
   77MOL0     H10358  -0.056   9.371   5.441  1.5154  0.4359 -1.0809
   77MOL0     H10359  -0.619   9.803   5.529 -0.9075  0.4073 -0.0574
   77MOL0     H10360  -0.792   9.748   5.403  4.6818  0.4104 -0.1891
   77MOL0     H10361  -1.039   9.585   5.482 -0.7700  1.1065  0.0940
   77MOL0     H10362  -1.001   9.678   5.330 -1.7383 -0.6594 -0.3896
   77MOL0     H10363  -1.179   9.433   5.357 -2.5823  0.2352 -1.5806
   77MOL0     H10364  -1.233   9.589   5.308 -0.9533 -1.2661 -1.2805
   77MOL0     H10365  -1.064   9.392   5.154 -1.1497 -1.4653  0.7030
   77MOL0     H10366  -1.082   9.564   5.100 -1.3939 -1.8119 -2.5267
   77MOL0     H10367  -1.325   9.552   5.091 -0.3767 -0.0225  0.1244
   77MOL0     H10368  -1.255   9.451   4.972 -1.0149  1.2291  0.7610
   77MOL0     H10369  -1.346   9.361   5.243 -2.4834 -1.2999 -0.1107
   77MOL0     H10370  -1.248   9.251   5.136 -0.0111 -1.5118 -1.1063
   77MOL0     H10371  -1.507   9.391   5.064  0.1230 -0.5880  3.0721
   77MOL0     H10372  -1.425   9.259   4.963 -0.1777 -2.9755  0.1208
   77MOL0     H10373  -1.625   9.169   5.084  1.8058  1.3509 -5.5998
   77MOL0     H10374  -1.545   9.221   5.241 -0.4074  1.5631 -0.1395
   77MOL0     H10375  -1.366   9.082   5.210  2.1598 -2.6779  0.0796
   77MOL0     H10376  -1.409   9.024   5.043 -1.0502 -3.7813  1.7584
   77MOL0     H10377  -0.744   9.330   5.478 -0.5667  0.4740 -0.2361
   77MOL0     H10378  -0.535   9.372   5.584  2.2162  0.5470 -0.8050
   77MOL0     H10379  -0.292   9.657   5.806 -0.0843  1.5394 -2.8362
   77MOL0     H10380  -0.126   9.634   5.983  0.2831 -1.0481  1.9651
   77MOL0     H10381   0.410   9.522   6.636 -0.1784  1.2915 -1.3296
   77MOL0     H10382   0.233   9.719   6.707 -1.7503 -1.6849  0.0661
   77MOL0     H10383  -0.018   9.801   7.159 -0.0554  0.1823 -0.0629
   77MOL0     H10384  -0.230   9.924   7.174  0.9182  1.7343  1.3012
   77MOL0     H10385  -0.421  10.065   7.187 -2.9951  1.9994 -0.4516
   77MOL0     H10386  -0.291  10.187   7.221  1.5401 -2.0108  1.3777
   77MOL0     H10387  -0.402  10.339   7.069  1.1444 -1.2668 -0.9048
   77MOL0     H10388  -0.515  10.297   7.200  0.3618  2.7261 -0.4985
   77MOL0     H10389  -0.594  10.111   7.044  0.6893 -1.0476 -0.3142
   77MOL0     H10390  -0.495  10.176   6.916  1.4700 -0.8704  1.5006
   77MOL0     H10391  -0.692  10.373   7.050 -3.2881  3.2920 -2.7193
   77MOL0     H10392  -0.748  10.246   6.931  1.5894 -1.1195  0.5550
   77MOL0     H10393  -0.534  10.491   6.669 -1.1265 -0.0597 -0.9458
   77MOL0     H10394  -0.108  10.161   6.845  1.8992 -0.8267 -1.5920
   77MOL0     H10395   0.091  10.001   6.808  2.2259  0.3386  1.6656
   78MOL0     O10396   0.511   8.472   1.420  0.1889  0.4581 -0.2325
   78MOL0     C10397   0.582   8.377   1.460  0.1207  0.1582  0.6377
   78MOL0     O10398   0.542   8.273   1.541  0.2343  0.3404  0.3752
   78MOL0     C10399   0.414   8.255   1.551  0.9455  0.2205 -0.1787
   78MOL0     C10400   0.346   8.302   1.666 -0.5826  0.1021  0.1041
   78MOL0     C10401   0.206   8.298   1.664 -0.4370 -0.7634 -0.2015
   78MOL0     C10402   0.133   8.229   1.565  0.2412 -0.5840  0.2298
   78MOL0     O10403  -0.007   8.224   1.580 -0.3376 -0.0182  0.2724
   78MOL0     C10404  -0.100   8.189   1.468 -0.7819 -0.1812 -0.3787
   78MOL0     C10405  -0.254   8.228   1.508 -0.0356 -0.9310  0.6843
   78MOL0     C10406  -0.264   8.381   1.526 -0.4751 -0.4061 -0.0557
   78MOL0     C10407  -0.400   8.434   1.568 -0.0837  0.1146 -0.3466
   78MOL0     C10408  -0.427   8.568   1.486  0.3189 -0.2024 -0.0786
   78MOL0     C10409  -0.322   8.678   1.509  0.3979  0.0708  0.7005
   78MOL0     C10410  -0.309   8.715   1.651  1.0391 -0.6075 -0.4218
   78MOL0     C10411  -0.199   8.821   1.676 -0.2003 -1.0124 -0.5129
   78MOL0     N10412  -0.235   8.962   1.643  0.0179 -0.2056 -0.4629
   78MOL0     C10413  -0.346   9.028   1.694  0.0207  0.3412 -0.0601
   78MOL0     C10414  -0.339   9.153   1.645  0.2694  0.0004 -0.3042
   78MOL0     C10415  -0.437   9.257   1.687 -0.3510 -0.2909  0.3593
   78MOL0     C10416  -0.546   9.294   1.592  0.0762  0.2018  0.3065
   78MOL0     C10417  -0.500   9.336   1.453 -0.0004 -0.6164  0.6754
   78MOL0     C10418  -0.615   9.345   1.356  0.4994  0.2209 -0.4002
   78MOL0     O10419  -0.695   9.461   1.376 -0.2547 -0.3319 -0.2764
   78MOL0     C10420  -0.824   9.445   1.321 -0.0154  0.7338 -0.0060
   78MOL0     C10421  -0.862   9.349   1.227 -0.5309  0.3836  0.3470
   78MOL0     C10422  -0.982   9.357   1.159 -0.3759  0.2833  0.2495
   78MOL0     C10423  -1.011   9.243   1.069 -0.4328  0.3309  0.2025
   78MOL0     C10424  -1.078   9.456   1.200 -0.6945 -0.5552 -0.4654
   78MOL0     C10425  -1.213   9.466   1.140 -0.2814 -0.0555  0.0655
   78MOL0     O10426  -1.265   9.350   1.087  0.0425 -0.3661 -0.7482
   78MOL0     C10427  -1.394   9.321   1.074 -0.1449  0.2929  0.8435
   78MOL0     C10428  -1.429   9.235   0.965  0.4893  0.0770  0.5969
   78MOL0     C10429  -1.565   9.211   0.944  0.0794  0.3126 -0.2928
   78MOL0     C10430  -1.669   9.252   1.033 -0.7632 -0.3499  0.4306
   78MOL0     O10431  -1.799   9.242   1.010  0.3754 -0.0414  0.2628
   78MOL0     C10432  -1.839   9.114   0.940  0.8751 -0.3831  0.1598
   78MOL0     C10433  -1.989   9.114   0.926  0.6922  0.0146  0.1804
   78MOL0     C10434  -2.045   8.984   0.873 -0.2816 -0.7176  0.8009
   78MOL0     C10435  -2.040   8.869   0.978  0.0344  0.8547 -0.1783
   78MOL0     C10436  -2.123   8.752   0.943  0.0708  0.8029  0.7496
   78MOL0     C10437  -2.123   8.715   0.793  0.5236  1.3278  0.1995
   78MOL0     C10438  -2.203   8.582   0.766  0.1770 -0.0691 -0.0126
   78MOL0     C10439  -2.344   8.594   0.805  0.2134 -0.6069 -0.1896
   78MOL0    Cl10440  -2.456   8.469   0.745  0.2584 -0.0466  0.5507
   78MOL0     C10441  -1.628   9.321   1.145  0.2693 -0.2783 -0.2567
   78MOL0     C10442  -1.493   9.359   1.165 -0.3623  0.7185 -0.2163
   78MOL0     O10443  -1.274   9.572   1.128 -0.4725  0.2494 -0.9262
   78MOL0     C10444  -1.034   9.550   1.297  0.7561 -0.5895  0.0931
   78MOL0     C10445  -0.906   9.554   1.357 -0.0993 -0.0810  0.0827
   78MOL0     N10446  -0.233   9.157   1.557 -0.0420  0.4704  0.0590
   78MOL0     N10447  -0.172   9.049   1.554 -0.9663  0.2177  0.7443
   78MOL0     C10448   0.199   8.179   1.451 -0.4596 -0.3888  0.6743
   78MOL0     C10449   0.344   8.193   1.448  0.4730  0.2791  0.8036
   78MOL0     C10450   0.723   8.393   1.434  0.1351  0.5136  0.0615
   78MOL0     C10451   0.778   8.521   1.396  0.5120 -0.2300  0.1705
   78MOL0     C10452   0.915   8.534   1.377 -0.2837  0.3725  0.7928
   78MOL0     C10453   1.004   8.425   1.380 -0.4436  0.2738 -0.9234
   78MOL0     O10454   1.146   8.437   1.366  0.3601  0.3405 -1.0895
   78MOL0     C10455   1.179   8.503   1.250 -0.8101  0.4491  0.2982
   78MOL0     C10456   1.330   8.520   1.243  0.2165  0.3276  0.0697
   78MOL0     C10457   1.362   8.621   1.356 -0.0436 -0.7338  0.1282
   78MOL0     C10458   1.506   8.673   1.337 -0.4432  0.7207 -0.0079
   78MOL0     C10459   1.605   8.572   1.368 -0.7623 -0.2397 -0.7372
   78MOL0     C10460   1.685   8.483   1.390 -0.4163 -0.5092 -0.3525
   78MOL0     C10461   0.949   8.300   1.415 -0.2283 -0.3774 -0.0299
   78MOL0     C10462   0.815   8.282   1.444  0.2222  0.7379  0.1738
   78MOL0     H10463   0.394   8.344   1.754 -1.0129  1.2894 -0.2145
   78MOL0     H10464   0.151   8.335   1.750  0.5023 -0.2546  0.1990
   78MOL0     H10465  -0.067   8.243   1.378 -1.9227 -0.1288 -0.7855
   78MOL0     H10466  -0.089   8.083   1.443 -2.1796  0.4251 -4.2994
   78MOL0     H10467  -0.320   8.205   1.424  1.4343  0.4925 -0.9384
   78MOL0     H10468  -0.299   8.177   1.594 -2.5764 -2.2779 -1.2996
   78MOL0     H10469  -0.192   8.408   1.604  0.5886 -0.5223 -0.9704
   78MOL0     H10470  -0.215   8.419   1.436  3.8631 -3.0888  0.9049
   78MOL0     H10471  -0.475   8.355   1.557 -1.6949  1.7004 -1.3760
   78MOL0     H10472  -0.396   8.458   1.674 -0.2554 -0.7238 -0.1428
   78MOL0     H10473  -0.430   8.535   1.382 -0.1771  2.3295 -0.9522
   78MOL0     H10474  -0.525   8.611   1.511  0.5845 -1.1028  2.8582
   78MOL0     H10475  -0.224   8.641   1.477  0.6455  1.9758 -0.9361
   78MOL0     H10476  -0.345   8.768   1.453  1.2778 -0.0324  0.1462
   78MOL0     H10477  -0.399   8.760   1.695 -0.0578 -3.0881  0.0571
   78MOL0     H10478  -0.290   8.634   1.721 -1.3910 -0.6502  0.3117
   78MOL0     H10479  -0.112   8.789   1.617  0.7192 -0.5499  0.5541
   78MOL0     H10480  -0.174   8.829   1.782  0.7436  1.9010 -0.8841
   78MOL0     H10481  -0.427   8.986   1.753  0.6737 -4.2818 -2.0319
   78MOL0     H10482  -0.488   9.238   1.783 -0.5943 -2.6620 -0.1812
   78MOL0     H10483  -0.370   9.341   1.704 -2.0951  1.1874  0.1919
   78MOL0     H10484  -0.590   9.382   1.640 -0.7215  0.1695 -0.3449
   78MOL0     H10485  -0.617   9.212   1.583 -0.1589  0.5260 -0.9741
   78MOL0     H10486  -0.418   9.276   1.412  1.1596  0.0931  1.8624
   78MOL0     H10487  -0.464   9.439   1.462 -0.2906 -0.4446 -0.1343
   78MOL0     H10488  -0.677   9.258   1.375  0.4739  0.6495  1.8398
   78MOL0     H10489  -0.578   9.349   1.253  1.4581  0.4743 -0.0560
   78MOL0     H10490  -0.798   9.271   1.187  0.0281  1.9793 -2.1702
   78MOL0     H10491  -1.046   9.158   1.129 -1.7426  0.4067 -0.4084
   78MOL0     H10492  -1.079   9.269   0.987  0.6890 -0.0539 -0.8942
   78MOL0     H10493  -0.920   9.215   1.015 -1.6208 -1.8629 -0.8209
   78MOL0     H10494  -1.352   9.204   0.896  2.7855  3.5005  1.3282
   78MOL0     H10495  -1.595   9.161   0.852 -0.2979  0.1976 -0.1092
   78MOL0     H10496  -1.800   9.104   0.839  1.0856  0.1422  0.1875
   78MOL0     H10497  -1.803   9.024   0.991  1.2783  0.0746  0.6931
   78MOL0     H10498  -2.023   9.135   1.027  3.2510  0.6448  0.9993
   78MOL0     H10499  -2.023   9.191   0.856 -1.0570 -0.1665  0.7848
   78MOL0     H10500  -1.995   8.947   0.782 -0.2612 -1.9687  1.2959
   78MOL0     H10501  -2.150   8.999   0.846  0.2701  0.1591 -1.0229
   78MOL0     H10502  -1.933   8.848   0.972  0.6426  3.8732 -2.6947
   78MOL0     H10503  -2.068   8.901   1.079  0.0931 -0.5129  0.2952
   78MOL0     H10504  -2.223   8.773   0.982  0.2688 -0.5721  2.1290
   78MOL0     H10505  -2.085   8.666   0.999 -0.6929  0.2708  0.4554
   78MOL0     H10506  -2.174   8.798   0.743 -0.5168  1.3525  1.2737
   78MOL0     H10507  -2.020   8.717   0.755 -0.6772 -2.0565 -4.1448
   78MOL0     H10508  -2.147   8.505   0.819  0.4571  1.1674  1.5320
   78MOL0     H10509  -2.202   8.557   0.659  2.3853 -0.5809  0.0842
   78MOL0     H10510  -2.386   8.691   0.777 -0.2199 -1.1105 -1.3265
   78MOL0     H10511  -2.349   8.593   0.915 -2.4485 -1.0402 -0.2415
   78MOL0     H10512  -1.710   9.353   1.209  0.0212 -1.1164 -0.1430
   78MOL0     H10513  -1.459   9.423   1.245  0.4989 -0.8866  0.7641
   78MOL0     H10514  -1.101   9.628   1.332  1.9961  1.1857 -1.2985
   78MOL0     H10515  -0.870   9.635   1.420 -3.0469  0.8054  0.7923
   78MOL0     H10516   0.147   8.125   1.373 -1.4133  2.9604 -1.1729
   78MOL0     H10517   0.416   8.162   1.373  1.9777  2.1828  1.3977
   78MOL0     H10518   0.716   8.611   1.400  2.7394  1.3565  2.9360
   78MOL0     H10519   0.940   8.632   1.336 -0.9816 -0.1302 -0.9343
   78MOL0     H10520   1.137   8.449   1.164 -0.7731 -1.6301  1.5098
   78MOL0     H10521   1.130   8.601   1.245 -0.9421  0.3494 -0.4942
   78MOL0     H10522   1.354   8.550   1.141  1.9226 -0.1882  0.2876
   78MOL0     H10523   1.379   8.424   1.261 -0.6255 -0.5385 -1.9255
   78MOL0     H10524   1.354   8.583   1.458 -0.5235 -0.1626  0.3076
   78MOL0     H10525   1.309   8.715   1.343  1.3913  0.1673  0.5598
   78MOL0     H10526   1.532   8.748   1.412 -0.5567  2.4884 -1.6734
   78MOL0     H10527   1.526   8.722   1.241  1.3751  1.8503  0.8757
   78MOL0     H10528   1.758   8.409   1.414 -3.6078 -3.9402 -0.3330
   78MOL0     H10529   1.019   8.218   1.407  1.7731  1.2501 -0.2032
   78MOL0     H10530   0.778   8.182   1.466 -1.3662  1.4413  0.8522
   79MOL0     O10531  10.051   2.119   0.929 -0.0106  0.5560 -0.3599
   79MOL0     C10532  10.094   2.055   0.831 -0.0792 -0.1961 -0.5658
   79MOL0     O10533  10.013   1.978   0.747 -0.0701  0.4562  0.3638
   79MOL0     C10534   9.878   1.992   0.774 -0.6112  0.0338  0.3153
   79MOL0     C10535   9.799   2.083   0.704 -0.5460  1.0987 -0.6496
   79MOL0     C10536   9.672   2.110   0.737 -0.0017  0.4463  0.0509
   79MOL0     C10537   9.611   2.049   0.850  0.2718 -0.3275 -0.2529
   79MOL0     O10538   9.484   2.075   0.902  0.4945  0.7619  0.7589
   79MOL0     C10539   9.399   2.176   0.854 -0.1207 -0.5852  0.2797
   79MOL0     C10540   9.270   2.171   0.937 -0.6762 -0.3338  0.1430
   79MOL0     C10541   9.208   2.030   0.919  0.6857 -0.4889  0.6454
   79MOL0     C10542   9.072   2.022   0.980  0.3353  0.5161  0.2990
   79MOL0     C10543   8.959   2.123   0.933 -0.3237  0.0490 -0.0472
   79MOL0     C10544   8.824   2.085   0.980 -0.2657  0.0136  0.3628
   79MOL0     C10545   8.718   2.191   0.975  0.0874  0.9536  0.3874
   79MOL0     C10546   8.740   2.283   1.097  0.6749  0.3356  0.4580
   79MOL0     N10547   8.660   2.398   1.069 -0.3383  0.0481 -0.5394
   79MOL0     C10548   8.526   2.415   1.113  0.9751  0.0268  0.3739
   79MOL0     C10549   8.501   2.539   1.063 -0.0313 -0.0486 -0.4803
   79MOL0     C10550   8.368   2.618   1.075 -0.0964 -0.5440 -0.5111
   79MOL0     C10551   8.256   2.583   0.972 -0.3152 -0.2124  0.0650
   79MOL0     C10552   8.200   2.716   0.912 -0.4745 -0.1333  0.2531
   79MOL0     C10553   8.091   2.694   0.805  0.2995 -0.0214  0.7961
   79MOL0     O10554   7.990   2.620   0.875 -0.4801  0.2714  0.2221
   79MOL0     C10555   7.862   2.632   0.831  0.8118  0.3728 -0.6326
   79MOL0     C10556   7.833   2.685   0.701 -0.2148  0.5470  0.0150
   79MOL0     C10557   7.694   2.709   0.663  0.0416 -0.6157  0.2463
   79MOL0     C10558   7.670   2.767   0.531 -0.8789 -0.6396  0.0796
   79MOL0     C10559   7.586   2.678   0.754 -0.3386  0.8164  0.2688
   79MOL0     C10560   7.435   2.690   0.720  0.2268  0.2092  0.7430
   79MOL0     O10561   7.351   2.614   0.801 -0.3463 -0.1449  0.7618
   79MOL0     C10562   7.232   2.677   0.824  0.7172  0.4175 -0.3617
   79MOL0     C10563   7.203   2.810   0.848  0.6060  1.0546 -0.0196
   79MOL0     C10564   7.080   2.862   0.895  0.2982  0.5988  0.9931
   79MOL0     C10565   6.972   2.766   0.903  0.1400  0.3401  0.9907
   79MOL0     O10566   6.852   2.826   0.939 -0.6083 -0.0564 -0.0373
   79MOL0     C10567   6.729   2.755   0.939  0.6229 -0.3028 -0.6983
   79MOL0     C10568   6.684   2.750   0.791  0.2193 -1.0922 -0.1845
   79MOL0     C10569   6.571   2.654   0.758  0.3298  0.5254  0.5748
   79MOL0     C10570   6.438   2.706   0.811 -0.2805  0.5128  0.0761
   79MOL0     C10571   6.340   2.595   0.799 -0.3109  0.5324 -0.1293
   79MOL0     C10572   6.199   2.634   0.848  0.2345 -0.4501 -0.2590
   79MOL0     C10573   6.101   2.518   0.804  0.7414 -0.6197 -0.5873
   79MOL0     C10574   6.042   2.534   0.667 -0.2208 -0.6534  0.9428
   79MOL0    Cl10575   5.911   2.650   0.659  0.3122  0.3325  0.1264
   79MOL0     C10576   6.993   2.631   0.866 -0.4643  0.6663  0.7675
   79MOL0     C10577   7.124   2.588   0.838  0.1257  0.4147 -0.0028
   79MOL0     O10578   7.394   2.776   0.638 -0.1673  0.3208  0.1036
   79MOL0     C10579   7.623   2.622   0.879 -0.0014  1.1677  0.1478
   79MOL0     C10580   7.755   2.606   0.920 -0.0503  0.9775 -0.4513
   79MOL0     N10581   8.615   2.590   1.003  0.1194  0.2711  0.3510
   79MOL0     N10582   8.714   2.506   0.999 -0.6228  0.5648 -0.1335
   79MOL0     C10583   9.689   1.954   0.918 -0.1475 -0.4152  1.0670
   79MOL0     C10584   9.824   1.928   0.874  0.4545 -1.5533 -0.1996
   79MOL0     C10585  10.238   2.065   0.807  0.8390 -0.1972  0.7803
   79MOL0     C10586  10.303   1.978   0.717  0.4816 -0.2923 -0.1395
   79MOL0     C10587  10.442   1.976   0.711  0.5375  0.0772  1.0334
   79MOL0     C10588  10.520   2.074   0.767  0.4647 -0.9756  0.9029
   79MOL0     O10589  10.658   2.071   0.747  0.4071 -0.4491 -0.0227
   79MOL0     C10590  10.744   2.180   0.784  0.2568  0.5230 -0.4101
   79MOL0     C10591  10.883   2.148   0.744 -0.4706  0.1105  1.0552
   79MOL0     C10592  10.991   2.250   0.806 -0.3833 -0.5323  0.0539
   79MOL0     C10593  11.140   2.226   0.758  0.1476  0.0414  0.7067
   79MOL0     C10594  11.165   2.301   0.634  0.1181 -0.0883  0.0948
   79MOL0     C10595  11.202   2.350   0.529  0.8946  0.0499 -0.3314
   79MOL0     C10596  10.461   2.175   0.848 -0.3760 -0.1759  0.4685
   79MOL0     C10597  10.320   2.169   0.868  0.4904  0.4134  0.6709
   79MOL0     H10598   9.843   2.133   0.618 -0.1226  0.1988 -0.9723
   79MOL0     H10599   9.617   2.174   0.669 -1.7329 -0.5154  0.4919
   79MOL0     H10600   9.456   2.267   0.871  0.3002 -0.5129 -1.3761
   79MOL0     H10601   9.377   2.166   0.747  2.6255  0.8818 -0.4924
   79MOL0     H10602   9.288   2.182   1.044 -0.9252  1.7757  0.0173
   79MOL0     H10603   9.202   2.250   0.904 -2.9855 -2.7281 -1.1935
   79MOL0     H10604   9.207   2.011   0.811 -3.8616 -0.8128  0.5441
   79MOL0     H10605   9.269   1.950   0.962  0.0237 -0.3138  1.9573
   79MOL0     H10606   9.038   1.918   0.970  1.1481 -0.0200  2.5440
   79MOL0     H10607   9.086   2.037   1.087  0.1178  0.0464  0.4001
   79MOL0     H10608   9.003   2.220   0.960 -1.1244  0.3505  0.2167
   79MOL0     H10609   8.951   2.128   0.824  0.6183  3.0706 -0.0655
   79MOL0     H10610   8.798   2.000   0.916 -1.2069  0.7313 -0.2321
   79MOL0     H10611   8.836   2.037   1.078  0.7236 -2.5882 -0.9305
   79MOL0     H10612   8.727   2.245   0.880  3.7698  0.7575  0.4598
   79MOL0     H10613   8.625   2.134   0.983  0.9645 -0.6045 -0.1234
   79MOL0     H10614   8.847   2.309   1.094  0.7142  0.2726  1.0762
   79MOL0     H10615   8.719   2.238   1.195  1.9078 -0.9026  0.2000
   79MOL0     H10616   8.448   2.349   1.151  0.0501  0.4303 -0.7350
   79MOL0     H10617   8.325   2.588   1.172  0.2907 -1.5080 -0.6236
   79MOL0     H10618   8.393   2.724   1.080  1.4906 -0.8074 -2.0626
   79MOL0     H10619   8.178   2.518   1.013  0.4625 -1.2147 -0.0058
   79MOL0     H10620   8.311   2.537   0.889  1.5349  1.3706  0.3343
   79MOL0     H10621   8.279   2.781   0.873  0.3284 -1.6202 -0.6815
   79MOL0     H10622   8.144   2.778   0.983 -2.5868  1.8180 -2.8772
   79MOL0     H10623   8.121   2.632   0.720  0.0196 -1.0499  1.4239
   79MOL0     H10624   8.055   2.791   0.770  0.5699 -0.1690  0.1062
   79MOL0     H10625   7.902   2.718   0.624 -2.0187  3.2988 -0.5809
   79MOL0     H10626   7.615   2.699   0.465 -0.0271 -4.1406  2.6818
   79MOL0     H10627   7.619   2.861   0.554  3.6660  2.2217 -0.1020
   79MOL0     H10628   7.760   2.797   0.477 -1.2943 -1.2160 -0.9646
   79MOL0     H10629   7.283   2.884   0.844  0.5550  1.5339  3.9782
   79MOL0     H10630   7.077   2.968   0.919  2.3274  0.2656  3.2372
   79MOL0     H10631   6.738   2.659   0.991 -3.4135 -0.6106 -0.2991
   79MOL0     H10632   6.654   2.815   0.991  0.7046  1.3976 -2.4136
   79MOL0     H10633   6.671   2.849   0.746 -0.1903 -0.8949  0.3478
   79MOL0     H10634   6.770   2.711   0.736 -0.6071 -1.9975 -0.8776
   79MOL0     H10635   6.597   2.557   0.803  0.2797 -0.2122 -0.9376
   79MOL0     H10636   6.581   2.635   0.651 -2.4883  1.9053 -0.0518
   79MOL0     H10637   6.456   2.726   0.917  1.4626  0.1785 -0.1300
   79MOL0     H10638   6.409   2.802   0.767 -2.3988  0.3261  0.9622
   79MOL0     H10639   6.378   2.511   0.859 -0.2558  1.5959  1.3779
   79MOL0     H10640   6.328   2.569   0.693 -0.6710  1.6566 -0.3716
   79MOL0     H10641   6.190   2.655   0.955  0.1662 -0.2799 -0.2974
   79MOL0     H10642   6.158   2.722   0.797 -0.7894 -1.1509 -0.6803
   79MOL0     H10643   6.018   2.525   0.874  1.0169  0.1028 -0.3224
   79MOL0     H10644   6.138   2.416   0.817 -3.5243 -2.2159  0.5389
   79MOL0     H10645   5.987   2.445   0.635 -4.4462  2.6618 -2.1469
   79MOL0     H10646   6.128   2.544   0.601 -0.8596  3.0943  0.4949
   79MOL0     H10647   6.913   2.559   0.852  0.1058  0.4647 -2.0317
   79MOL0     H10648   7.140   2.482   0.819  1.4790  0.7017 -0.6217
   79MOL0     H10649   7.548   2.588   0.950  0.9585 -2.5276 -0.3888
   79MOL0     H10650   7.779   2.570   1.020  0.4674  4.2345  0.7268
   79MOL0     H10651   9.638   1.911   1.003 -1.5720  1.7847  1.4165
   79MOL0     H10652   9.880   1.866   0.944  1.4391  0.5550  1.0003
   79MOL0     H10653  10.246   1.900   0.668 -0.7015 -0.4098  1.3757
   79MOL0     H10654  10.499   1.906   0.650 -0.3930  1.9764 -2.2346
   79MOL0     H10655  10.711   2.273   0.738  1.2432  0.7778 -0.6353
   79MOL0     H10656  10.750   2.208   0.889  1.9412  4.8891 -1.4716
   79MOL0     H10657  10.890   2.141   0.635 -0.3020 -1.4808  1.1542
   79MOL0     H10658  10.905   2.045   0.774 -0.5097 -0.1285  0.2756
   79MOL0     H10659  10.989   2.233   0.914 -0.7882 -1.5458 -0.0979
   79MOL0     H10660  10.955   2.353   0.797 -1.6053 -0.6837  2.4134
   79MOL0     H10661  11.146   2.118   0.738  0.3992 -0.0411  1.2004
   79MOL0     H10662  11.217   2.244   0.834 -0.7783  1.5992  1.3192
   79MOL0     H10663  11.236   2.388   0.435  0.3064 -3.3514 -2.0837
   79MOL0     H10664  10.524   2.242   0.905 -1.7052  0.1371  1.6232
   79MOL0     H10665  10.281   2.242   0.938 -0.7192  1.9343 -1.4667
   80MOL0     O10666   4.870   3.094   7.489  0.3596 -0.0679 -0.3158
   80MOL0     C10667   4.932   3.202   7.463  0.1450  0.7360 -0.1034
   80MOL0     O10668   4.873   3.316   7.418  0.4370 -0.0525  0.6049
   80MOL0     C10669   4.742   3.318   7.414  0.6969  0.3605 -0.0939
   80MOL0     C10670   4.677   3.307   7.293  0.4854 -0.0341  0.0576
   80MOL0     C10671   4.538   3.310   7.299 -0.3420  0.7962  0.5628
   80MOL0     C10672   4.464   3.323   7.420  0.2568 -0.0823  0.0628
   80MOL0     O10673   4.333   3.303   7.417  0.4918 -0.0303 -0.5901
   80MOL0     C10674   4.272   3.183   7.362 -0.6275  0.7665  0.6670
   80MOL0     C10675   4.129   3.179   7.419 -0.0984 -0.0052 -0.2327
   80MOL0     C10676   4.028   3.194   7.306 -0.5733 -0.1256  0.0106
   80MOL0     C10677   3.891   3.177   7.361 -0.0153  0.5520  0.0973
   80MOL0     C10678   3.785   3.174   7.248  0.3877 -0.6375 -0.3443
   80MOL0     C10679   3.652   3.132   7.308 -0.4867  0.5277  0.3114
   80MOL0     C10680   3.626   2.982   7.302 -0.1586  0.0354  0.9821
   80MOL0     C10681   3.507   2.929   7.383  0.2901  0.2843  0.3729
   80MOL0     N10682   3.380   2.987   7.346  0.5748 -0.6773 -0.0385
   80MOL0     C10683   3.286   3.047   7.427  0.0040 -0.2446  0.5731
   80MOL0     C10684   3.189   3.087   7.346  0.2198 -0.0934 -1.0157
   80MOL0     C10685   3.059   3.142   7.379 -0.3365 -0.1089 -0.2724
   80MOL0     C10686   2.957   3.067   7.285  0.3364 -0.9333  0.0426
   80MOL0     C10687   2.813   3.102   7.332 -0.7134 -1.0030  0.2412
   80MOL0     C10688   2.761   3.234   7.267 -0.0657 -0.3096 -0.2576
   80MOL0     O10689   2.628   3.263   7.316  0.0349 -0.5167 -0.0973
   80MOL0     C10690   2.520   3.183   7.276  0.4107 -0.9527 -0.2896
   80MOL0     C10691   2.515   3.097   7.162 -0.1753 -0.2329 -0.1539
   80MOL0     C10692   2.389   3.045   7.122  0.4077 -0.5284 -0.4442
   80MOL0     C10693   2.391   2.979   6.984  0.5673  0.8108 -1.3700
   80MOL0     C10694   2.267   3.073   7.198 -0.0768  1.1837 -0.4565
   80MOL0     C10695   2.139   3.025   7.144  0.7926  0.2906  0.4307
   80MOL0     O10696   2.036   3.045   7.236  0.0068  0.5197 -0.1548
   80MOL0     C10697   1.913   2.995   7.224 -0.8086  0.0510  0.0042
   80MOL0     C10698   1.804   3.070   7.262 -0.7463  0.2297 -0.7613
   80MOL0     C10699   1.674   3.019   7.253 -0.0146 -0.2888  0.3031
   80MOL0     C10700   1.654   2.887   7.202  0.7199 -0.0735  0.0358
   80MOL0     O10701   1.535   2.827   7.197  0.1483 -0.2862  0.1299
   80MOL0     C10702   1.429   2.921   7.156 -0.6276  0.1179  0.4773
   80MOL0     C10703   1.316   2.836   7.119  0.9044 -0.9176  0.3995
   80MOL0     C10704   1.204   2.925   7.056 -0.3508 -0.3363  0.6969
   80MOL0     C10705   1.086   2.839   7.005 -0.4460 -0.8836  0.6694
   80MOL0     C10706   0.983   2.928   6.940  0.5765 -0.2458  0.9750
   80MOL0     C10707   0.867   2.848   6.884 -0.4448  0.3102 -0.2831
   80MOL0     C10708   0.773   2.927   6.795 -0.3949  0.8612  0.2015
   80MOL0     C10709   0.647   2.844   6.754 -0.9829  1.0984 -0.5508
   80MOL0    Cl10710   0.542   2.951   6.647 -0.0167  0.5237 -0.3774
   80MOL0     C10711   1.763   2.817   7.158 -0.5984  0.0180 -0.4957
   80MOL0     C10712   1.890   2.871   7.160  0.4129  0.3022 -0.7651
   80MOL0     O10713   2.122   3.005   7.025 -0.1649  0.1860 -0.8815
   80MOL0     C10714   2.276   3.142   7.318 -0.4397  0.7782 -1.1562
   80MOL0     C10715   2.398   3.207   7.351 -0.2742 -0.0096  0.1491
   80MOL0     N10716   3.227   3.059   7.217  0.4379 -0.0508 -0.2320
   80MOL0     N10717   3.335   2.996   7.222 -0.5837  0.3173 -0.3758
   80MOL0     C10718   4.533   3.331   7.535 -1.2718  0.1767 -0.3943
   80MOL0     C10719   4.672   3.332   7.530 -0.6465 -0.9378 -1.1443
   80MOL0     C10720   5.080   3.195   7.450 -0.2833 -0.2523  0.4731
   80MOL0     C10721   5.155   3.099   7.513  0.2221 -0.2278 -0.5199
   80MOL0     C10722   5.292   3.100   7.517 -0.9575 -0.6660 -0.5664
   80MOL0     C10723   5.358   3.198   7.439 -0.9212 -0.0683 -0.1854
   80MOL0     O10724   5.488   3.230   7.438 -0.4662  0.0285  0.7704
   80MOL0     C10725   5.564   3.116   7.480  0.6683  0.6899 -0.3617
   80MOL0     C10726   5.705   3.143   7.434  0.5214 -0.0826  0.4523
   80MOL0     C10727   5.803   3.026   7.436 -0.0357 -0.1260  0.8425
   80MOL0     C10728   5.943   3.080   7.382  0.2141 -0.7503 -1.1761
   80MOL0     C10729   6.020   2.978   7.326 -0.2962 -0.0013  0.4294
   80MOL0     C10730   6.090   2.886   7.294 -0.7248 -0.2285  0.1667
   80MOL0     C10731   5.282   3.294   7.364 -0.1254 -1.4170 -1.5808
   80MOL0     C10732   5.146   3.288   7.367 -0.4221 -0.1000  0.1657
   80MOL0     H10733   4.733   3.282   7.203  2.6032  0.4209  1.1716
   80MOL0     H10734   4.483   3.301   7.206  0.5610  0.7615  0.0206
   80MOL0     H10735   4.254   3.195   7.255 -1.4513 -1.1588  0.5430
   80MOL0     H10736   4.338   3.102   7.391 -0.8425 -1.0176 -3.2049
   80MOL0     H10737   4.109   3.080   7.461  1.7532 -0.0644  0.6198
   80MOL0     H10738   4.116   3.252   7.500 -1.4778 -1.5008  0.9666
   80MOL0     H10739   4.036   3.296   7.266  1.8357 -1.0267 -2.0541
   80MOL0     H10740   4.034   3.115   7.231 -0.6494  1.4265 -1.6821
   80MOL0     H10741   3.882   3.075   7.400 -0.8393 -0.3554 -2.2333
   80MOL0     H10742   3.868   3.242   7.445 -0.3635 -1.6588  1.7970
   80MOL0     H10743   3.767   3.272   7.203 -0.7049 -0.4308  0.5189
   80MOL0     H10744   3.808   3.101   7.170 -2.5138 -0.8279 -1.1009
   80MOL0     H10745   3.641   3.170   7.410  0.8876  0.9723  0.3193
   80MOL0     H10746   3.572   3.184   7.255 -0.3698  1.3624  0.9494
   80MOL0     H10747   3.609   2.951   7.198  0.3570  0.7769  0.6638
   80MOL0     H10748   3.712   2.928   7.343  0.8926  0.2234 -0.8546
   80MOL0     H10749   3.529   2.942   7.490 -4.2293 -3.6313  2.1058
   80MOL0     H10750   3.499   2.824   7.356  1.6602  0.8353 -2.5639
   80MOL0     H10751   3.294   3.049   7.535  1.5920  0.6663  0.4712
   80MOL0     H10752   3.030   3.122   7.483 -0.3914  2.8501  0.3754
   80MOL0     H10753   3.057   3.251   7.365  1.7301  0.3186  2.0034
   80MOL0     H10754   2.978   2.960   7.285 -1.0777 -1.2488 -0.9294
   80MOL0     H10755   2.963   3.100   7.181  0.7400 -3.0787 -0.6648
   80MOL0     H10756   2.807   3.093   7.441 -3.0375 -4.6247  0.0157
   80MOL0     H10757   2.760   3.014   7.293  0.5031 -0.5461 -2.7081
   80MOL0     H10758   2.772   3.229   7.158  1.0122  0.3657 -0.1998
   80MOL0     H10759   2.822   3.320   7.295 -1.0116  0.2854  0.0038
   80MOL0     H10760   2.601   3.103   7.096  0.0071  2.4595  0.2431
   80MOL0     H10761   2.334   3.034   6.909 -1.4332 -0.2195 -0.6889
   80MOL0     H10762   2.487   2.960   6.935  0.9186 -2.5438  0.3291
   80MOL0     H10763   2.340   2.882   6.994  0.8999  0.6747 -0.9623
   80MOL0     H10764   1.810   3.163   7.318 -2.1703  0.4436 -0.9449
   80MOL0     H10765   1.596   3.090   7.277 -0.3352 -0.4941 -0.1090
   80MOL0     H10766   1.401   2.998   7.229 -1.8791  0.5142 -0.3999
   80MOL0     H10767   1.471   2.976   7.071 -1.6080  2.8765  1.6595
   80MOL0     H10768   1.359   2.770   7.043 -0.5148 -1.2581 -0.1362
   80MOL0     H10769   1.267   2.780   7.198 -0.9762  2.6762  2.0267
   80MOL0     H10770   1.244   2.980   6.970 -2.8973  0.8645  0.1760
   80MOL0     H10771   1.160   2.995   7.127 -2.1069  0.5171 -1.1287
   80MOL0     H10772   1.133   2.766   6.939 -0.7128 -0.7357  0.3163
   80MOL0     H10773   1.041   2.781   7.086 -1.6445 -0.1493  0.5610
   80MOL0     H10774   1.022   2.991   6.860 -0.0382 -1.9146 -0.7145
   80MOL0     H10775   0.946   2.999   7.014 -2.8141  1.0460 -1.6971
   80MOL0     H10776   0.914   2.771   6.821 -4.1669 -0.6925 -2.0917
   80MOL0     H10777   0.820   2.802   6.972  0.9634  0.8649  0.8004
   80MOL0     H10778   0.828   2.949   6.703 -0.4427  0.6977  0.1328
   80MOL0     H10779   0.748   3.019   6.848  1.9906 -0.0135  3.1446
   80MOL0     H10780   0.595   2.799   6.840 -1.2889  2.0055 -0.2497
   80MOL0     H10781   0.688   2.755   6.704  2.4652  0.3512  3.1548
   80MOL0     H10782   1.741   2.729   7.098 -2.8262  2.2189 -3.1756
   80MOL0     H10783   1.973   2.808   7.128  3.7802  3.9726 -0.0889
   80MOL0     H10784   2.190   3.162   7.381  0.5720  1.1321  0.1633
   80MOL0     H10785   2.400   3.253   7.449  0.4714 -2.5473  1.4350
   80MOL0     H10786   4.479   3.329   7.630  0.7359  2.6695  0.9334
   80MOL0     H10787   4.716   3.342   7.629 -4.7658  1.0777  0.6945
   80MOL0     H10788   5.099   3.019   7.560 -0.4470  0.0163 -0.8947
   80MOL0     H10789   5.348   3.033   7.582 -2.2894  0.0606  1.4341
   80MOL0     H10790   5.557   3.093   7.586 -1.7923 -1.4140 -0.8838
   80MOL0     H10791   5.518   3.033   7.426 -1.7973  2.3466 -0.9564
   80MOL0     H10792   5.734   3.223   7.503 -3.1159  2.8701 -1.0847
   80MOL0     H10793   5.694   3.176   7.330  0.6261  1.2314  0.8483
   80MOL0     H10794   5.780   2.947   7.364  3.1692 -1.1427  0.7743
   80MOL0     H10795   5.799   2.984   7.537 -1.4624  0.6635  1.1290
   80MOL0     H10796   5.995   3.122   7.469 -0.3853 -1.1940 -0.5901
   80MOL0     H10797   5.917   3.146   7.299 -4.0112  0.0823  0.5555
   80MOL0     H10798   6.157   2.813   7.252  1.2161  1.6289 -0.1548
   80MOL0     H10799   5.338   3.376   7.319 -0.1822 -0.0141  0.7612
   80MOL0     H10800   5.092   3.369   7.319 -1.8036 -0.4862  0.9997
   81MOL0     O10801   5.865   7.371   4.830  0.0989 -0.6044 -0.3550
   81MOL0     C10802   5.975   7.430   4.857  0.7600  0.1531  0.1857
   81MOL0     O10803   5.995   7.531   4.944  0.1521 -0.2961  0.1423
   81MOL0     C10804   5.907   7.595   5.030  0.1906  0.6036 -0.2664
   81MOL0     C10805   5.765   7.588   5.006  0.4304  0.1778 -0.8865
   81MOL0     C10806   5.682   7.639   5.104 -0.0452 -0.2482 -0.5030
   81MOL0     C10807   5.735   7.692   5.220 -0.6524  1.2165  0.6714
   81MOL0     O10808   5.645   7.755   5.310 -0.0972  0.5882 -0.2895
   81MOL0     C10809   5.667   7.761   5.452 -0.8279  1.1749 -0.3522
   81MOL0     C10810   5.677   7.623   5.525 -0.2343 -1.0239  0.2380
   81MOL0     C10811   5.534   7.550   5.520  0.0462 -0.2612  0.0665
   81MOL0     C10812   5.551   7.397   5.558  0.1584 -0.3168  0.0435
   81MOL0     C10813   5.418   7.326   5.591  0.4202 -1.1020  0.3629
   81MOL0     C10814   5.466   7.185   5.633 -0.5228 -0.0066 -0.1735
   81MOL0     C10815   5.345   7.091   5.668 -0.1165 -0.7963 -0.5206
   81MOL0     C10816   5.255   7.058   5.545 -0.3725  0.4783  0.3479
   81MOL0     N10817   5.179   6.930   5.568 -0.0165  0.4356 -0.4779
   81MOL0     C10818   5.214   6.791   5.570  0.5797  0.0998  0.6304
   81MOL0     C10819   5.098   6.726   5.572 -0.4591  0.0776  0.0745
   81MOL0     C10820   5.072   6.580   5.560 -0.5602  0.2848  0.6801
   81MOL0     C10821   4.977   6.526   5.664  0.0970  0.3242  0.1572
   81MOL0     C10822   4.829   6.544   5.636 -0.1808 -0.2443 -0.2144
   81MOL0     C10823   4.756   6.541   5.769 -0.0963  0.2822  0.2873
   81MOL0     O10824   4.614   6.542   5.735  0.7096 -0.0325 -0.4579
   81MOL0     C10825   4.509   6.536   5.825  0.8237  0.0729 -0.0835
   81MOL0     C10826   4.533   6.537   5.963  0.1728 -0.0892  0.1000
   81MOL0     C10827   4.420   6.524   6.055 -0.6772  0.0507  0.3204
   81MOL0     C10828   4.443   6.544   6.211  1.0194 -0.3204  0.3082
   81MOL0     C10829   4.288   6.509   6.001 -1.1134 -0.2106  0.4842
   81MOL0     C10830   4.161   6.480   6.078 -0.0276 -0.5938  0.3658
   81MOL0     O10831   4.052   6.436   5.999 -0.8372  0.4543 -0.1919
   81MOL0     C10832   3.934   6.426   6.058  0.7562  0.3553 -0.0272
   81MOL0     C10833   3.878   6.536   6.135  0.1294 -0.3648  0.4359
   81MOL0     C10834   3.759   6.510   6.205 -0.0346 -0.9353 -0.3140
   81MOL0     C10835   3.691   6.391   6.185 -0.2397  0.1709  0.2899
   81MOL0     O10836   3.577   6.376   6.269 -0.7007  0.1029 -1.0568
   81MOL0     C10837   3.484   6.266   6.247  0.9565  1.1430  0.3333
   81MOL0     C10838   3.337   6.310   6.287  0.0086  0.4050  0.0764
   81MOL0     C10839   3.345   6.396   6.419 -0.2405  0.0296  0.1468
   81MOL0     C10840   3.203   6.414   6.478  0.4933 -0.5918  0.5721
   81MOL0     C10841   3.121   6.527   6.400 -0.6619  0.1775 -0.2206
   81MOL0     C10842   2.974   6.529   6.422  0.4840  0.2635  0.0055
   81MOL0     C10843   2.899   6.607   6.316 -0.7468 -0.3844  0.0774
   81MOL0     C10844   2.756   6.572   6.305  0.7578  0.4276 -0.2531
   81MOL0    Cl10845   2.687   6.612   6.457 -0.2860  0.4634  0.1007
   81MOL0     C10846   3.725   6.294   6.089 -0.0333  0.7156  0.2204
   81MOL0     C10847   3.851   6.314   6.031  0.1012  0.2555  0.0735
   81MOL0     O10848   4.157   6.493   6.199 -0.0433 -0.6416 -0.1055
   81MOL0     C10849   4.279   6.518   5.855 -0.4248  0.6087  0.1239
   81MOL0     C10850   4.385   6.542   5.770 -0.2119 -0.6887 -0.2203
   81MOL0     N10851   4.986   6.800   5.562 -1.2711  0.0538  0.2270
   81MOL0     N10852   5.037   6.924   5.562  0.2747 -0.1464 -0.0164
   81MOL0     C10853   5.870   7.712   5.237  0.4636 -0.3838  0.6953
   81MOL0     C10854   5.954   7.666   5.135 -0.1673 -0.1446 -0.6835
   81MOL0     C10855   6.091   7.373   4.794 -0.4070  0.5037 -0.5329
   81MOL0     C10856   6.209   7.372   4.869 -0.1783  0.0884  0.2020
   81MOL0     C10857   6.330   7.320   4.819 -0.8263 -0.8374 -0.2006
   81MOL0     C10858   6.337   7.275   4.688  0.3462 -1.3602  0.4553
   81MOL0     O10859   6.450   7.221   4.631  0.3848 -0.3640 -0.0804
   81MOL0     C10860   6.544   7.330   4.595 -0.0478 -0.1033 -0.2645
   81MOL0     C10861   6.514   7.388   4.457  0.1942 -0.5109 -0.0132
   81MOL0     C10862   6.571   7.307   4.334 -0.6522  0.3585 -0.2351
   81MOL0     C10863   6.726   7.316   4.339 -0.2341  0.2048  0.1701
   81MOL0     C10864   6.776   7.270   4.208 -0.0616 -0.7016 -0.0840
   81MOL0     C10865   6.824   7.249   4.098 -0.1573 -0.3280 -0.4065
   81MOL0     C10866   6.221   7.288   4.613 -0.2560 -0.9730  0.2528
   81MOL0     C10867   6.099   7.339   4.659  0.2300 -0.3088  0.0967
   81MOL0     H10868   5.722   7.545   4.916 -2.8628 -0.5380  0.8523
   81MOL0     H10869   5.575   7.623   5.087 -1.2392  2.9286  2.8987
   81MOL0     H10870   5.761   7.817   5.458  1.1265 -1.7103 -1.9046
   81MOL0     H10871   5.598   7.827   5.506  2.0424  2.2603  2.3259
   81MOL0     H10872   5.758   7.557   5.492 -1.4567 -2.0678 -0.8008
   81MOL0     H10873   5.688   7.634   5.633 -4.2737 -1.1554  0.8106
   81MOL0     H10874   5.468   7.613   5.580  0.5353 -0.1209  0.4708
   81MOL0     H10875   5.488   7.549   5.421 -0.4610  0.3854  0.2922
   81MOL0     H10876   5.598   7.352   5.470 -0.7628 -1.1811 -0.0207
   81MOL0     H10877   5.623   7.397   5.641  0.9409  3.1593 -0.4950
   81MOL0     H10878   5.358   7.373   5.670  0.3629 -0.8728  0.1824
   81MOL0     H10879   5.368   7.296   5.498  1.3413 -0.5519 -0.3311
   81MOL0     H10880   5.532   7.142   5.557  0.4944 -0.7405  1.0679
   81MOL0     H10881   5.528   7.191   5.724 -1.9234 -0.1420  0.8240
   81MOL0     H10882   5.391   6.999   5.703 -1.1207 -0.7510  1.0244
   81MOL0     H10883   5.289   7.127   5.755 -0.3773 -0.7130 -0.7182
   81MOL0     H10884   5.316   7.048   5.455 -1.7960 -1.2799 -0.4657
   81MOL0     H10885   5.181   7.137   5.530  0.7409  1.3537 -0.7053
   81MOL0     H10886   5.312   6.745   5.562 -0.1493 -1.6652  1.2846
   81MOL0     H10887   5.028   6.555   5.463 -3.3681 -3.9174  2.7129
   81MOL0     H10888   5.168   6.528   5.571 -0.2604  0.0528 -2.2573
   81MOL0     H10889   5.002   6.576   5.758 -0.1772 -1.6420  1.3360
   81MOL0     H10890   5.002   6.421   5.681  1.3262  0.6024  0.1683
   81MOL0     H10891   4.803   6.458   5.574 -1.3699 -1.3069  1.6634
   81MOL0     H10892   4.812   6.636   5.579 -0.6517 -2.0669 -3.2675
   81MOL0     H10893   4.782   6.633   5.823  2.8045 -0.0818 -0.3265
   81MOL0     H10894   4.786   6.457   5.833 -0.6137  0.0623  0.2484
   81MOL0     H10895   4.634   6.552   5.997  0.8543 -1.0008 -1.4122
   81MOL0     H10896   4.398   6.638   6.245 -0.5976 -0.7531 -0.5345
   81MOL0     H10897   4.394   6.457   6.257  2.8916 -1.0396  1.0418
   81MOL0     H10898   4.549   6.540   6.234  1.0156 -0.2083  0.3417
   81MOL0     H10899   3.947   6.619   6.144 -0.5970  0.3344 -0.2503
   81MOL0     H10900   3.720   6.571   6.286  1.1005  1.1861 -1.2608
   81MOL0     H10901   3.485   6.221   6.147 -2.1342 -0.0624  0.7307
   81MOL0     H10902   3.508   6.182   6.311  0.0082 -0.1109 -0.8964
   81MOL0     H10903   3.286   6.368   6.209 -3.9837 -2.6128  0.0983
   81MOL0     H10904   3.270   6.224   6.296 -0.5249  0.4333 -2.5842
   81MOL0     H10905   3.388   6.495   6.401  0.0001 -0.0879  0.0773
   81MOL0     H10906   3.401   6.337   6.492  0.3619 -1.4260 -1.4340
   81MOL0     H10907   3.139   6.326   6.473  0.0614 -0.2012 -1.5115
   81MOL0     H10908   3.219   6.438   6.583  1.0546  1.7999  0.0034
   81MOL0     H10909   3.128   6.510   6.292  1.7036  0.9697 -0.2389
   81MOL0     H10910   3.162   6.627   6.417 -0.3133  0.0771 -0.4781
   81MOL0     H10911   2.949   6.422   6.416 -2.2804  0.8704 -0.6437
   81MOL0     H10912   2.961   6.561   6.525 -0.0269 -1.9412  0.6847
   81MOL0     H10913   2.942   6.586   6.218 -1.4769  1.8733 -0.8113
   81MOL0     H10914   2.907   6.712   6.345  1.4102 -0.6429  0.5798
   81MOL0     H10915   2.743   6.464   6.291  0.3913  0.1733  1.6806
   81MOL0     H10916   2.705   6.625   6.224 -2.6835 -1.2129  0.6245
   81MOL0     H10917   3.682   6.198   6.062 -1.4031  1.7070 -1.2450
   81MOL0     H10918   3.886   6.238   5.963  1.6193 -0.8749  1.9938
   81MOL0     H10919   4.185   6.503   5.804 -0.1234  0.8915 -0.5353
   81MOL0     H10920   4.368   6.545   5.663 -1.1325  1.8702 -0.0820
   81MOL0     H10921   5.916   7.766   5.319  0.5229 -1.2586  1.2518
   81MOL0     H10922   6.061   7.681   5.141 -0.0456 -0.2461 -2.2088
   81MOL0     H10923   6.214   7.403   4.973  1.7391  0.8607 -0.0978
   81MOL0     H10924   6.421   7.314   4.878 -0.9290 -1.1754 -0.0759
   81MOL0     H10925   6.538   7.403   4.676 -3.6271 -0.3686 -0.1397
   81MOL0     H10926   6.648   7.295   4.602  0.5880  1.9142  1.4917
   81MOL0     H10927   6.568   7.483   4.471 -1.2274  0.1086  1.7324
   81MOL0     H10928   6.407   7.401   4.439  0.2580  1.6970  0.8794
   81MOL0     H10929   6.525   7.328   4.236 -3.2771 -1.5209  0.4699
   81MOL0     H10930   6.537   7.204   4.345 -1.5405  0.7969  1.4420
   81MOL0     H10931   6.770   7.251   4.414  0.5606 -1.0634 -1.3437
   81MOL0     H10932   6.763   7.417   4.361  0.1463 -0.1598  1.2127
   81MOL0     H10933   6.868   7.227   4.003 -1.8749 -1.1756 -1.0402
   81MOL0     H10934   6.236   7.258   4.510  0.8787  0.5581 -0.0676
   81MOL0     H10935   6.008   7.350   4.602  1.7346 -0.4191 -2.4774
   82MOL0     O10936   5.566   1.294   7.019 -0.4461 -0.5056 -0.0129
   82MOL0     C10937   5.636   1.274   7.117  0.1806 -0.3716  0.1097
   82MOL0     O10938   5.592   1.236   7.244 -0.5891  0.1668  0.2599
   82MOL0     C10939   5.458   1.213   7.271 -0.0991  0.1490 -0.2998
   82MOL0     C10940   5.349   1.282   7.211 -0.2460 -0.1809 -0.3885
   82MOL0     C10941   5.213   1.250   7.256  0.4890 -0.0919  0.0975
   82MOL0     C10942   5.190   1.159   7.354 -0.4094 -0.1787  0.2433
   82MOL0     O10943   5.063   1.125   7.390 -0.3439  0.1816 -0.0431
   82MOL0     C10944   4.990   1.210   7.478 -0.6026 -0.4557 -0.4327
   82MOL0     C10945   4.838   1.177   7.463  0.6588 -0.7562  0.2947
   82MOL0     C10946   4.797   1.236   7.329 -0.7004  0.3761  0.7335
   82MOL0     C10947   4.657   1.190   7.294  0.1668 -0.0096 -0.1634
   82MOL0     C10948   4.615   1.228   7.158 -0.0580  0.7486  0.2035
   82MOL0     C10949   4.473   1.183   7.117  0.1801  0.2082  0.2439
   82MOL0     C10950   4.402   1.276   7.017  0.2638  0.5583 -0.3720
   82MOL0     C10951   4.277   1.212   6.957  0.2746 -0.4983  0.4030
   82MOL0     N10952   4.160   1.305   6.953 -0.2496  0.1739 -0.0973
   82MOL0     C10953   4.076   1.334   7.055  0.2145  0.0543 -0.9509
   82MOL0     C10954   3.997   1.435   7.016  0.4838  0.3291  0.9764
   82MOL0     C10955   3.891   1.499   7.096 -0.2547  0.5043 -0.1437
   82MOL0     C10956   3.748   1.447   7.046 -0.3012  0.3172  0.0454
   82MOL0     C10957   3.645   1.476   7.161 -0.0362 -0.0122 -0.1353
   82MOL0     C10958   3.499   1.427   7.134  0.8341  0.2481 -0.2554
   82MOL0     O10959   3.433   1.424   7.260 -0.2810 -0.5314 -0.3708
   82MOL0     C10960   3.308   1.392   7.277  0.0025  0.3765 -0.3518
   82MOL0     C10961   3.249   1.431   7.397  0.3872 -0.1082 -0.2241
   82MOL0     C10962   3.112   1.412   7.424  0.3272 -1.4524  0.2743
   82MOL0     C10963   3.074   1.455   7.562  0.3101 -0.2643  0.1122
   82MOL0     C10964   3.034   1.344   7.338 -0.3268  1.1074 -0.3580
   82MOL0     C10965   2.885   1.312   7.364 -0.1095 -0.6868 -0.3218
   82MOL0     O10966   2.837   1.204   7.297 -0.1470 -0.2533 -0.0362
   82MOL0     C10967   2.703   1.173   7.310  0.0212 -0.4608  0.5898
   82MOL0     C10968   2.633   1.172   7.433  0.0205 -0.2429  0.1739
   82MOL0     C10969   2.494   1.141   7.430  0.3443  0.4639 -0.9177
   82MOL0     C10970   2.417   1.093   7.325 -0.0313  0.1741 -0.0372
   82MOL0     O10971   2.288   1.055   7.351 -0.2828 -0.2236  0.0633
   82MOL0     C10972   2.191   1.117   7.255 -0.6821 -0.2127  0.4043
   82MOL0     C10973   2.046   1.110   7.282 -0.6014  1.1064 -0.0464
   82MOL0     C10974   1.987   1.176   7.410 -0.8388 -0.3044  0.1811
   82MOL0     C10975   1.837   1.133   7.437 -0.2219  0.9010 -0.1468
   82MOL0     C10976   1.788   1.167   7.575  0.4035 -0.5935  0.2393
   82MOL0     C10977   1.870   1.088   7.680  0.3049  0.1237  0.2454
   82MOL0     C10978   1.801   1.081   7.822  0.1288  0.8833  1.0933
   82MOL0     C10979   1.880   0.996   7.925  0.1310  0.0076  0.5664
   82MOL0    Cl10980   2.032   1.082   7.977  0.0186  0.2554  0.0588
   82MOL0     C10981   2.492   1.096   7.204  0.0714 -0.5018  0.7185
   82MOL0     C10982   2.632   1.126   7.191 -0.0927  0.4960  0.1425
   82MOL0     O10983   2.809   1.391   7.419  0.5629  0.1841 -0.0191
   82MOL0     C10984   3.089   1.304   7.210  0.2954 -0.6413 -0.1433
   82MOL0     C10985   3.232   1.319   7.188  0.1402  0.1760  0.3817
   82MOL0     N10986   4.036   1.471   6.883  0.2062 -0.7418 -0.0067
   82MOL0     N10987   4.133   1.387   6.850  1.0480 -0.1931  0.1276
   82MOL0     C10988   5.301   1.092   7.412  0.7905 -0.8414 -0.1156
   82MOL0     C10989   5.429   1.122   7.374  1.3675  0.2001  0.3271
   82MOL0     C10990   5.782   1.308   7.102  0.4744  1.1469  0.0402
   82MOL0     C10991   5.816   1.369   6.988 -0.0021  0.1550  0.2840
   82MOL0     C10992   5.951   1.401   6.968  0.1877  0.6458 -0.0549
   82MOL0     C10993   6.053   1.360   7.062  0.8175 -0.0483 -0.3751
   82MOL0     O10994   6.183   1.388   7.052 -0.7389  0.2987  0.3887
   82MOL0     C10995   6.227   1.462   6.933  0.1494  0.4608 -0.2630
   82MOL0     C10996   6.383   1.472   6.939  0.5918  0.3031  0.0020
   82MOL0     C10997   6.433   1.590   7.005  0.0157  0.1170  0.0275
   82MOL0     C10998   6.576   1.586   7.027 -0.2468  0.2935  0.0658
   82MOL0     C10999   6.617   1.711   7.092  0.0259 -0.5971 -0.2310
   82MOL0     C11000   6.646   1.819   7.137 -0.3914  0.1497 -0.4406
   82MOL0     C11001   6.013   1.281   7.174 -0.3911 -0.0436  0.6753
   82MOL0     C11002   5.879   1.261   7.195  0.9178 -0.0304  0.1457
   82MOL0     H11003   5.373   1.366   7.145  0.5407  0.8321  1.1110
   82MOL0     H11004   5.123   1.300   7.223  1.8794  1.6773 -1.1834
   82MOL0     H11005   5.025   1.191   7.579  0.5813  1.6539 -0.3982
   82MOL0     H11006   5.004   1.317   7.459 -1.8902  0.2863  2.3672
   82MOL0     H11007   4.834   1.068   7.464  2.0210 -0.8215  0.6007
   82MOL0     H11008   4.779   1.219   7.545 -1.3313 -3.0445  0.1502
   82MOL0     H11009   4.805   1.345   7.335  0.4718  0.4941 -1.7137
   82MOL0     H11010   4.863   1.206   7.248 -1.4036  0.8311 -0.0216
   82MOL0     H11011   4.641   1.083   7.310 -1.8942  0.1840 -0.6867
   82MOL0     H11012   4.585   1.236   7.363 -0.3225 -0.6417 -0.2344
   82MOL0     H11013   4.634   1.335   7.147  0.4204  0.9080  2.1788
   82MOL0     H11014   4.690   1.180   7.094 -0.2012 -0.2148  0.7433
   82MOL0     H11015   4.489   1.084   7.075  0.4974  0.8205 -1.1342
   82MOL0     H11016   4.407   1.164   7.203  0.9666 -0.3878  0.7253
   82MOL0     H11017   4.372   1.361   7.079 -2.0369  1.7939 -2.9940
   82MOL0     H11018   4.469   1.315   6.940 -0.0597  4.6776  1.2091
   82MOL0     H11019   4.249   1.121   7.010 -1.1971 -0.9781 -1.1251
   82MOL0     H11020   4.309   1.173   6.860  2.9512 -3.6430  2.3668
   82MOL0     H11021   4.083   1.295   7.157  1.7152  0.7874 -0.7462
   82MOL0     H11022   3.906   1.480   7.203 -0.7546 -1.4261 -0.3758
   82MOL0     H11023   3.898   1.608   7.098  2.2959  0.3757  1.4342
   82MOL0     H11024   3.747   1.338   7.036 -1.8231  0.3560 -0.4863
   82MOL0     H11025   3.725   1.497   6.952  1.4488  0.0089 -0.5846
   82MOL0     H11026   3.645   1.582   7.189  0.7607  0.1773 -0.8105
   82MOL0     H11027   3.687   1.414   7.240  1.0751 -0.6234 -1.1646
   82MOL0     H11028   3.493   1.335   7.074 -1.1074  1.0563 -1.4079
   82MOL0     H11029   3.462   1.498   7.059  0.7011 -1.4139 -1.8499
   82MOL0     H11030   3.322   1.473   7.466 -1.5551  1.9771  0.6706
   82MOL0     H11031   3.056   1.371   7.629 -1.7426 -1.0439 -1.3262
   82MOL0     H11032   3.158   1.507   7.610  0.6588 -3.1330  2.9131
   82MOL0     H11033   2.990   1.525   7.566  0.7501  0.2207  2.3831
   82MOL0     H11034   2.686   1.192   7.526 -2.0148 -0.2423  1.3867
   82MOL0     H11035   2.449   1.140   7.529 -0.4277 -2.1861 -1.2204
   82MOL0     H11036   2.208   1.225   7.255 -2.5484  0.1430  2.2925
   82MOL0     H11037   2.212   1.085   7.152 -0.0330 -0.7872  0.7089
   82MOL0     H11038   1.995   1.163   7.200  1.1138  0.7394 -1.3934
   82MOL0     H11039   2.024   1.003   7.283  1.7299  0.4031 -3.6152
   82MOL0     H11040   1.990   1.285   7.408  0.9730 -0.1431  3.3807
   82MOL0     H11041   2.044   1.132   7.493 -3.1263 -5.3774 -0.5105
   82MOL0     H11042   1.766   1.189   7.375 -0.7477  2.9104  2.1169
   82MOL0     H11043   1.816   1.027   7.422  1.9551  0.5715 -1.2211
   82MOL0     H11044   1.680   1.163   7.589  0.4627 -1.2587  0.5469
   82MOL0     H11045   1.819   1.268   7.605  0.2620 -1.1841  2.5624
   82MOL0     H11046   1.874   0.988   7.638  0.2066 -0.5251  1.7131
   82MOL0     H11047   1.973   1.122   7.694  0.2140  0.7307 -0.4820
   82MOL0     H11048   1.701   1.040   7.802  0.0173  0.6712  2.0226
   82MOL0     H11049   1.788   1.184   7.858  1.0486  1.6753 -0.7648
   82MOL0     H11050   1.903   0.891   7.904  2.7876  0.5779  0.2181
   82MOL0     H11051   1.814   0.990   8.012 -0.8993 -0.5753 -0.2269
   82MOL0     H11052   2.442   1.081   7.109 -0.3545  3.7001  0.0643
   82MOL0     H11053   2.683   1.125   7.095  2.4138  0.3048  1.4050
   82MOL0     H11054   3.032   1.247   7.137 -0.8590  0.6732 -0.3125
   82MOL0     H11055   3.267   1.266   7.100 -3.1967  0.2682 -1.1458
   82MOL0     H11056   5.283   1.022   7.492  2.8145 -0.0921  1.0730
   82MOL0     H11057   5.511   1.074   7.426 -0.8164 -1.9810  2.0561
   82MOL0     H11058   5.744   1.397   6.912 -1.1989 -2.4548  0.3645
   82MOL0     H11059   5.983   1.463   6.886  1.6426  0.0950  0.0676
   82MOL0     H11060   6.189   1.414   6.842 -0.1817 -0.2472  0.2376
   82MOL0     H11061   6.192   1.565   6.941  0.9844  0.9979 -2.8073
   82MOL0     H11062   6.420   1.472   6.836  1.2546  2.9073  0.1820
   82MOL0     H11063   6.410   1.380   6.993 -0.3834 -0.4915 -0.8201
   82MOL0     H11064   6.387   1.598   7.104  2.4636  2.2183  1.1175
   82MOL0     H11065   6.408   1.679   6.945 -0.8986 -0.1265  0.0352
   82MOL0     H11066   6.635   1.581   6.935  3.2672  0.4993  2.1077
   82MOL0     H11067   6.613   1.504   7.090 -0.9389 -1.6604 -1.9558
   82MOL0     H11068   6.660   1.916   7.182 -0.6188  0.6613 -1.4415
   82MOL0     H11069   6.093   1.253   7.242  0.9233  2.4142  0.2546
   82MOL0     H11070   5.849   1.213   7.288 -2.4235  0.7168 -0.3898
   83MOL0     O11071   7.771   2.717  10.593 -0.2454 -0.6182  0.5585
   83MOL0     C11072   7.876   2.674  10.645 -0.4298  0.7041  0.3384
   83MOL0     O11073   7.919   2.540  10.644 -0.1039  0.4625 -0.2163
   83MOL0     C11074   7.827   2.457  10.591 -0.5372  0.0295  0.0600
   83MOL0     C11075   7.806   2.467  10.451 -0.1549  0.0729 -0.5958
   83MOL0     C11076   7.698   2.404  10.392 -0.4931  1.0702  0.2998
   83MOL0     C11077   7.616   2.313  10.464 -0.2761 -0.8570 -0.8859
   83MOL0     O11078   7.506   2.253  10.398 -0.6945  0.1177  0.0374
   83MOL0     C11079   7.414   2.180  10.472 -0.0642  0.6485  0.5259
   83MOL0     C11080   7.300   2.126  10.389 -0.4333 -0.0022 -0.3092
   83MOL0     C11081   7.250   1.987  10.421 -0.2357  0.6404 -0.0724
   83MOL0     C11082   7.138   1.932  10.330 -0.6114  0.7005  0.5077
   83MOL0     C11083   7.102   1.781  10.344  0.2245 -0.3962 -0.1718
   83MOL0     C11084   7.008   1.748  10.464 -0.2058  0.2838  0.2138
   83MOL0     C11085   6.855   1.778  10.444 -0.4253  0.1974 -0.2757
   83MOL0     C11086   6.776   1.736  10.569 -0.3201  0.6772 -0.2735
   83MOL0     N11087   6.635   1.779  10.555  0.2460  0.6177  0.6914
   83MOL0     C11088   6.565   1.769  10.445 -0.1074 -0.8714  0.1288
   83MOL0     C11089   6.455   1.839  10.457 -0.4265 -0.4480 -0.3449
   83MOL0     C11090   6.350   1.844  10.347  0.4189  0.2516 -0.0570
   83MOL0     C11091   6.215   1.916  10.390 -0.7594  0.6439 -0.4850
   83MOL0     C11092   6.153   1.833  10.504  0.3252 -0.0552 -0.4145
   83MOL0     C11093   6.014   1.899  10.526  0.0115  0.5368  0.4555
   83MOL0     O11094   5.930   1.876  10.414  0.6679  0.0672 -0.2042
   83MOL0     C11095   5.803   1.934  10.416  0.4127  0.1176 -0.0547
   83MOL0     C11096   5.760   2.022  10.509 -0.4439 -0.4611  0.0093
   83MOL0     C11097   5.628   2.071  10.515  0.3044  0.4666 -0.1173
   83MOL0     C11098   5.593   2.174  10.619  0.4373  0.6882  0.3944
   83MOL0     C11099   5.523   2.024  10.417  0.9861 -0.8089  0.5464
   83MOL0     C11100   5.375   2.067  10.414 -0.5862 -0.5300  0.1302
   83MOL0     O11101   5.310   2.037  10.296  0.3716 -0.2951 -0.3525
   83MOL0     C11102   5.169   2.045  10.287 -0.2671 -0.1909 -0.4107
   83MOL0     C11103   5.082   1.958  10.351  0.5103 -0.1876  0.0729
   83MOL0     C11104   4.948   1.968  10.354 -0.2527  0.0461  0.2866
   83MOL0     C11105   4.890   2.074  10.278 -0.9997  0.1353  0.0467
   83MOL0     O11106   4.751   2.080  10.285  0.4126 -0.2500  0.6363
   83MOL0     C11107   4.720   2.217  10.322  0.5410  0.0752  0.7455
   83MOL0     C11108   4.582   2.207  10.393 -0.3369 -0.5978  1.3520
   83MOL0     C11109   4.529   2.352  10.422  0.1535 -0.6464  0.0052
   83MOL0     C11110   4.397   2.352  10.492  0.2177  0.1421 -0.2561
   83MOL0     C11111   4.356   2.497  10.529 -1.4162 -0.1386 -0.4305
   83MOL0     C11112   4.229   2.511  10.611  0.3929  0.1280  0.0584
   83MOL0     C11113   4.109   2.551  10.517  0.6448  0.3113  0.8459
   83MOL0     C11114   3.982   2.601  10.582 -0.5920  0.0605 -0.6673
   83MOL0    Cl11115   3.919   2.481  10.685 -0.2762 -0.0944 -0.2612
   83MOL0     C11116   4.971   2.178  10.224  0.0655  0.5229  1.0292
   83MOL0     C11117   5.108   2.162  10.236 -0.4572 -0.0899  0.7932
   83MOL0     O11118   5.316   2.118  10.509 -0.6784 -0.0837 -0.1687
   83MOL0     C11119   5.570   1.941  10.313  0.0136 -0.5258  0.0379
   83MOL0     C11120   5.704   1.900  10.314 -0.6054  0.4922 -0.4243
   83MOL0     N11121   6.443   1.892  10.583 -0.1776 -0.3285  0.5574
   83MOL0     N11122   6.556   1.859  10.647 -0.1341  0.5425  0.7937
   83MOL0     C11123   7.646   2.299  10.604 -0.5251  0.4303  0.5642
   83MOL0     C11124   7.750   2.369  10.663 -0.1362  0.1275 -0.7259
   83MOL0     C11125   7.963   2.773  10.718 -1.2175 -0.5363  0.5094
   83MOL0     C11126   7.929   2.908  10.731 -0.0054 -0.5652  0.1596
   83MOL0     C11127   8.019   3.000  10.795 -0.2638 -0.0301 -0.3430
   83MOL0     C11128   8.133   2.948  10.857 -0.2267  0.4373 -0.5043
   83MOL0     O11129   8.216   3.044  10.902 -0.1284 -0.2737 -0.4281
   83MOL0     C11130   8.335   3.024  10.976 -0.7798 -0.5677  0.5564
   83MOL0     C11131   8.362   3.155  11.054  0.3574  0.7149 -0.0910
   83MOL0     C11132   8.501   3.150  11.115 -0.8282 -0.1598  0.3265
   83MOL0     C11133   8.496   3.084  11.255  0.8159 -0.9727  0.6150
   83MOL0     C11134   8.625   3.072  11.321 -0.4737 -1.3881  0.0634
   83MOL0     C11135   8.718   3.063  11.400 -0.2106 -0.6325  0.3597
   83MOL0     C11136   8.169   2.810  10.856  0.1544  0.2079  0.0642
   83MOL0     C11137   8.081   2.726  10.782  0.8308 -0.1994 -0.0362
   83MOL0     H11138   7.865   2.537  10.393 -1.0593  2.0654  0.7598
   83MOL0     H11139   7.670   2.431  10.290  1.0234  2.8363  0.3113
   83MOL0     H11140   7.470   2.098  10.517 -0.6848 -2.5490 -3.8008
   83MOL0     H11141   7.365   2.244  10.545  0.4178 -0.6929  2.0675
   83MOL0     H11142   7.213   2.192  10.392 -0.2211  0.2323  0.8192
   83MOL0     H11143   7.337   2.123  10.286 -3.1054  1.5512 -1.4438
   83MOL0     H11144   7.339   1.924  10.427 -0.4470  0.5094  3.0004
   83MOL0     H11145   7.203   1.988  10.520  0.9755 -0.1470  0.5331
   83MOL0     H11146   7.055   2.003  10.333  0.3749  1.9520 -0.6396
   83MOL0     H11147   7.188   1.942  10.233  1.2903 -1.7603  1.1081
   83MOL0     H11148   7.052   1.747  10.253  1.1510  0.0324 -0.8522
   83MOL0     H11149   7.196   1.727  10.357 -0.1702 -2.1630 -3.6027
   83MOL0     H11150   7.023   1.644  10.496 -1.9016 -0.1037 -0.1745
   83MOL0     H11151   7.042   1.809  10.548 -0.8256 -0.8749  1.3481
   83MOL0     H11152   6.836   1.884  10.426  0.7385  0.1323 -2.3103
   83MOL0     H11153   6.825   1.732  10.349 -0.3737 -0.4903  0.0369
   83MOL0     H11154   6.815   1.771  10.665  0.2484  1.5612 -0.8141
   83MOL0     H11155   6.777   1.627  10.578  1.1042  0.4975 -2.0583
   83MOL0     H11156   6.599   1.718  10.355 -1.6916 -1.8686  0.0538
   83MOL0     H11157   6.392   1.910  10.272  1.0763 -0.6779 -0.5339
   83MOL0     H11158   6.328   1.745  10.304  0.4181  0.0664  0.3592
   83MOL0     H11159   6.141   1.920  10.309 -1.7075 -2.0246  0.1367
   83MOL0     H11160   6.249   2.012  10.430  1.5213 -0.8459  1.4372
   83MOL0     H11161   6.205   1.829  10.600 -0.7631  1.1147  0.2610
   83MOL0     H11162   6.134   1.733  10.465  5.6712 -1.2621 -0.6045
   83MOL0     H11163   6.021   2.006  10.547 -1.6904  0.8279 -0.2594
   83MOL0     H11164   5.961   1.850  10.607  0.6107 -2.1698 -0.6654
   83MOL0     H11165   5.829   2.062  10.582 -3.6174  0.6295  2.6791
   83MOL0     H11166   5.575   2.119  10.711  0.6119 -1.2420 -0.6697
   83MOL0     H11167   5.675   2.240  10.649  3.3748 -1.1912 -2.6668
   83MOL0     H11168   5.501   2.229  10.598 -1.6446 -1.8627  2.1907
   83MOL0     H11169   5.119   1.867  10.396 -3.3394 -2.2231 -0.4912
   83MOL0     H11170   4.891   1.897  10.414  1.7009 -1.8281  0.0383
   83MOL0     H11171   4.790   2.261  10.394  1.1964  0.3111 -0.0210
   83MOL0     H11172   4.719   2.279  10.232 -1.0226  0.5039  1.0260
   83MOL0     H11173   4.506   2.154  10.335 -0.1754  1.1032 -0.5309
   83MOL0     H11174   4.586   2.157  10.490  1.0554 -1.7628  0.7354
   83MOL0     H11175   4.525   2.411  10.330 -1.0616 -0.5951  0.0734
   83MOL0     H11176   4.600   2.403  10.487 -0.6831 -0.4353  0.7717
   83MOL0     H11177   4.318   2.306  10.431 -0.1316 -2.6302  2.0650
   83MOL0     H11178   4.406   2.292  10.583 -0.9569 -2.6903 -1.8418
   83MOL0     H11179   4.360   2.560  10.440  0.3692  0.1464 -0.1760
   83MOL0     H11180   4.440   2.533  10.590 -1.7004 -0.2566  0.0394
   83MOL0     H11181   4.214   2.412  10.656 -1.2004 -0.3191 -1.3482
   83MOL0     H11182   4.231   2.573  10.701 -6.1586 -0.6456  1.3060
   83MOL0     H11183   4.083   2.462  10.459 -0.1568  0.4621  0.9661
   83MOL0     H11184   4.139   2.625  10.441 -1.6221  0.2753 -0.1708
   83MOL0     H11185   3.903   2.636  10.515 -2.1428 -1.0686  0.4991
   83MOL0     H11186   4.008   2.687  10.644 -0.2127 -0.6616  0.1942
   83MOL0     H11187   4.929   2.258  10.165  1.8054 -1.3266 -3.1499
   83MOL0     H11188   5.178   2.229  10.188 -0.8022 -1.2069 -1.4324
   83MOL0     H11189   5.503   1.906  10.235  0.1158  2.2583 -1.4344
   83MOL0     H11190   5.716   1.818  10.244 -3.2065 -0.8930  0.6295
   83MOL0     H11191   7.589   2.219  10.651  0.7410 -1.0340 -0.2892
   83MOL0     H11192   7.763   2.373  10.771  2.4742  0.2239 -0.9623
   83MOL0     H11193   7.838   2.947  10.687 -0.7397 -2.8051 -0.4560
   83MOL0     H11194   7.998   3.106  10.805 -0.0040  0.1671 -1.6265
   83MOL0     H11195   8.334   2.936  11.041  2.0274  0.4792  2.2233
   83MOL0     H11196   8.415   3.012  10.902 -1.6488  0.0872 -0.5181
   83MOL0     H11197   8.287   3.152  11.133  1.2984 -0.6079  0.7773
   83MOL0     H11198   8.346   3.243  10.991  1.3624 -1.5811 -3.9122
   83MOL0     H11199   8.541   3.252  11.118 -2.5773  0.6303 -1.1846
   83MOL0     H11200   8.572   3.090  11.057 -1.0086  0.6666 -0.7893
   83MOL0     H11201   8.446   2.987  11.248 -2.1153  0.4541  0.2794
   83MOL0     H11202   8.426   3.129  11.327  2.3615 -0.6500  1.9912
   83MOL0     H11203   8.795   3.066  11.474 -0.7901  3.0269  0.9603
   83MOL0     H11204   8.264   2.779  10.899  0.8189 -1.9639 -2.7219
   83MOL0     H11205   8.105   2.620  10.777  2.3183  0.1682 -2.0904
   84MOL0     O11206   5.119   1.367   0.084 -0.0307  0.0924  0.4475
   84MOL0     C11207   5.144   1.483   0.060 -0.0168 -0.5368 -0.9553
   84MOL0     O11208   5.059   1.580   0.006 -0.6907  0.3748  1.0070
   84MOL0     C11209   4.940   1.547  -0.059  0.4397 -0.5426  0.6908
   84MOL0     C11210   4.850   1.644  -0.106  0.4287  0.4641 -0.2799
   84MOL0     C11211   4.725   1.617  -0.176  0.1264 -0.1729  0.6162
   84MOL0     C11212   4.698   1.484  -0.203  0.7893  0.1900 -0.2424
   84MOL0     O11213   4.582   1.456  -0.274 -0.1901  0.1498 -0.1302
   84MOL0     C11214   4.592   1.340  -0.365 -0.2823 -0.2049 -0.1776
   84MOL0     C11215   4.650   1.382  -0.496 -0.0143 -0.5637  0.1041
   84MOL0     C11216   4.563   1.486  -0.571  0.3156 -0.2322 -1.0065
   84MOL0     C11217   4.614   1.512  -0.712 -0.1412  0.7820 -0.3212
   84MOL0     C11218   4.548   1.641  -0.759 -0.3021 -0.2007  0.0557
   84MOL0     C11219   4.579   1.660  -0.905  0.1166  0.0993 -0.2589
   84MOL0     C11220   4.500   1.781  -0.954 -1.0028 -0.1530 -0.1819
   84MOL0     C11221   4.538   1.807  -1.102  0.0387  0.1090 -0.7132
   84MOL0     N11222   4.419   1.879  -1.156  0.8073  0.2190 -0.1548
   84MOL0     C11223   4.428   2.005  -1.198  0.3937  0.0650 -0.0235
   84MOL0     C11224   4.302   2.041  -1.229  0.0742  0.2917 -0.1197
   84MOL0     C11225   4.263   2.184  -1.261  0.0465  0.2585  0.5128
   84MOL0     C11226   4.179   2.174  -1.397  0.1011 -0.2647 -0.8784
   84MOL0     C11227   4.117   2.315  -1.422 -0.0358  0.5454 -0.3555
   84MOL0     C11228   4.017   2.307  -1.542 -0.0444  0.4025  0.1035
   84MOL0     O11229   3.907   2.215  -1.519 -0.8016  0.2795 -0.0808
   84MOL0     C11230   3.833   2.178  -1.635  0.3395  0.1126  1.1198
   84MOL0     C11231   3.829   2.259  -1.750 -0.0275  0.0759  0.0591
   84MOL0     C11232   3.758   2.217  -1.859  0.2060 -0.2157  0.3025
   84MOL0     C11233   3.728   2.321  -1.977 -0.0356 -0.3695 -0.7113
   84MOL0     C11234   3.713   2.080  -1.869  0.1944  0.1162 -0.3700
   84MOL0     C11235   3.664   2.015  -1.991 -0.1648 -0.6188 -0.4946
   84MOL0     O11236   3.695   1.885  -2.005  0.3881 -0.0705  0.0183
   84MOL0     C11237   3.632   1.812  -2.112 -0.6090  0.2004  0.3615
   84MOL0     C11238   3.503   1.754  -2.097  0.5282  0.2114  0.4473
   84MOL0     C11239   3.443   1.707  -2.219  0.0650 -0.0648 -0.8343
   84MOL0     C11240   3.505   1.708  -2.341  0.2986  0.5570  0.0170
   84MOL0     O11241   3.437   1.686  -2.461  0.4164 -0.0315 -0.2411
   84MOL0     C11242   3.300   1.645  -2.444 -0.0178 -0.2878  0.4530
   84MOL0     C11243   3.244   1.657  -2.593  0.0665  0.7435 -0.7015
   84MOL0     C11244   3.093   1.632  -2.595  0.2282  0.1514 -0.0680
   84MOL0     C11245   3.035   1.623  -2.737 -0.5002  0.1919  0.1779
   84MOL0     C11246   2.906   1.536  -2.730  0.5293  0.1523  0.6526
   84MOL0     C11247   2.792   1.607  -2.662  0.2865  0.4219 -1.1613
   84MOL0     C11248   2.688   1.497  -2.616 -0.3896 -0.0335  0.5470
   84MOL0     C11249   2.578   1.551  -2.529  0.7302 -0.7350 -0.4003
   84MOL0    Cl11250   2.493   1.674  -2.625  0.1935 -0.3382  0.0935
   84MOL0     C11251   3.639   1.747  -2.346 -1.1215  0.0213 -0.5264
   84MOL0     C11252   3.694   1.800  -2.229  0.2208 -0.4501  0.2930
   84MOL0     O11253   3.597   2.082  -2.073 -0.3657 -0.3619 -0.5935
   84MOL0     C11254   3.721   2.000  -1.753  0.6474 -0.4715 -1.1393
   84MOL0     C11255   3.779   2.051  -1.638  0.9470 -0.5465  0.6045
   84MOL0     N11256   4.225   1.928  -1.214 -0.0094 -0.2425  0.0865
   84MOL0     N11257   4.291   1.832  -1.169 -0.0067  0.4288  0.2542
   84MOL0     C11258   4.789   1.383  -0.159 -1.2522 -0.5069  0.2963
   84MOL0     C11259   4.904   1.420  -0.097 -0.7230  0.4801  0.7149
   84MOL0     C11260   5.288   1.521   0.080 -0.1861 -0.2086 -0.1784
   84MOL0     C11261   5.344   1.640   0.030 -0.0379 -0.2282  1.2944
   84MOL0     C11262   5.479   1.676   0.054 -1.1220 -0.1106 -0.2119
   84MOL0     C11263   5.569   1.594   0.121 -0.3047  0.1359 -0.2136
   84MOL0     O11264   5.694   1.637   0.137  0.6285 -0.1735 -0.8719
   84MOL0     C11265   5.771   1.559   0.238 -0.1010  0.6493 -0.1672
   84MOL0     C11266   5.914   1.603   0.249 -0.1819 -0.6107  0.5010
   84MOL0     C11267   5.980   1.555   0.379 -0.2633 -0.0373 -1.0226
   84MOL0     C11268   6.135   1.563   0.373  0.8793 -0.2878 -0.2716
   84MOL0     C11269   6.203   1.461   0.465  0.0217  0.0496  0.5697
   84MOL0     C11270   6.257   1.383   0.548 -0.2409 -0.7511  0.1966
   84MOL0     C11271   5.504   1.477   0.179  0.1676 -0.4606  0.2839
   84MOL0     C11272   5.372   1.439   0.159  0.8597  0.4411  0.5138
   84MOL0     H11273   4.883   1.747  -0.098 -0.6801  0.9852 -1.9697
   84MOL0     H11274   4.658   1.697  -0.208 -0.0466 -1.4756 -2.6845
   84MOL0     H11275   4.638   1.251  -0.320 -2.3017 -0.6684  1.1077
   84MOL0     H11276   4.490   1.302  -0.367 -0.0117 -1.0749  1.1501
   84MOL0     H11277   4.752   1.419  -0.485  0.3971 -1.0959 -1.5509
   84MOL0     H11278   4.658   1.297  -0.565 -1.8402 -0.2462 -0.5409
   84MOL0     H11279   4.461   1.446  -0.573 -0.6492  2.0881 -0.7789
   84MOL0     H11280   4.566   1.577  -0.510 -1.0155 -1.7115  1.4316
   84MOL0     H11281   4.720   1.543  -0.709  0.4533 -1.2334  0.8806
   84MOL0     H11282   4.600   1.426  -0.777  1.1560  0.0370  0.3514
   84MOL0     H11283   4.443   1.634  -0.728 -0.9442  1.4971 -1.5298
   84MOL0     H11284   4.580   1.728  -0.701 -1.5194 -0.0156  0.4648
   84MOL0     H11285   4.687   1.667  -0.921  0.4485  1.1473  1.9381
   84MOL0     H11286   4.552   1.568  -0.956  0.6447  1.0452 -2.3342
   84MOL0     H11287   4.393   1.761  -0.941 -1.5623  0.9984 -2.4358
   84MOL0     H11288   4.539   1.862  -0.893  0.7142 -1.8924  1.1269
   84MOL0     H11289   4.549   1.713  -1.158 -0.1919  0.8641 -2.0493
   84MOL0     H11290   4.635   1.855  -1.119  0.8000 -2.0753 -3.2559
   84MOL0     H11291   4.510   2.073  -1.179 -0.7031  0.9171  2.0951
   84MOL0     H11292   4.224   2.246  -1.180 -0.8549 -0.7725  0.8806
   84MOL0     H11293   4.356   2.233  -1.291 -1.5517  1.6558 -2.5946
   84MOL0     H11294   4.101   2.099  -1.384  0.1472 -0.1901 -0.0856
   84MOL0     H11295   4.253   2.145  -1.471 -0.7818 -1.0543 -1.4643
   84MOL0     H11296   4.201   2.381  -1.446  1.5641  0.3249  3.6882
   84MOL0     H11297   4.070   2.336  -1.325 -0.3547  0.1043 -0.4104
   84MOL0     H11298   4.076   2.288  -1.632 -0.7453  3.1361 -1.0222
   84MOL0     H11299   3.993   2.413  -1.558 -1.7431  0.1537  0.7437
   84MOL0     H11300   3.865   2.361  -1.749  1.1075 -0.2366 -2.3324
   84MOL0     H11301   3.744   2.424  -1.943 -2.7043  0.1902 -0.9318
   84MOL0     H11302   3.803   2.314  -2.056 -0.4509  1.2954 -1.2867
   84MOL0     H11303   3.625   2.311  -2.011  0.0162  1.6838 -1.5823
   84MOL0     H11304   3.466   1.763  -1.995  1.0356  1.8583  0.5180
   84MOL0     H11305   3.339   1.682  -2.198  0.4435  0.2489  1.8596
   84MOL0     H11306   3.290   1.542  -2.409  1.4469 -1.2483 -1.6719
   84MOL0     H11307   3.240   1.715  -2.385  0.7889  0.2880  0.6065
   84MOL0     H11308   3.254   1.752  -2.647  0.2348  0.4581 -1.1718
   84MOL0     H11309   3.293   1.587  -2.660 -0.4298 -1.2643  0.9428
   84MOL0     H11310   3.038   1.704  -2.534  2.0589  0.6287  1.0992
   84MOL0     H11311   3.080   1.533  -2.551 -0.6268 -0.0761 -0.7944
   84MOL0     H11312   3.014   1.728  -2.761 -2.1552  0.4447  2.3448
   84MOL0     H11313   3.114   1.595  -2.807  0.0266  1.9440  0.0261
   84MOL0     H11314   2.931   1.442  -2.681 -0.2873  0.8774  2.5739
   84MOL0     H11315   2.862   1.513  -2.827  0.8818 -1.6157  0.8777
   84MOL0     H11316   2.826   1.664  -2.574  1.0607 -0.7995 -0.6354
   84MOL0     H11317   2.746   1.676  -2.732  0.6502 -1.8908 -3.8569
   84MOL0     H11318   2.738   1.423  -2.554  1.1526 -0.0899 -0.6942
   84MOL0     H11319   2.658   1.441  -2.705 -0.7763 -0.2300  0.7994
   84MOL0     H11320   2.604   1.601  -2.435 -1.5088 -1.0590  0.4563
   84MOL0     H11321   2.505   1.475  -2.500 -0.2774  0.7760  1.2495
   84MOL0     H11322   3.697   1.740  -2.437 -0.9040  0.6828 -0.4431
   84MOL0     H11323   3.794   1.842  -2.233 -0.3954  1.1285  0.8222
   84MOL0     H11324   3.680   1.902  -1.734 -1.8778  0.7953  0.4421
   84MOL0     H11325   3.787   1.987  -1.551 -1.7615  0.0443  1.3824
   84MOL0     H11326   4.775   1.276  -0.170  0.3113 -0.7466  0.3859
   84MOL0     H11327   4.968   1.333  -0.088  0.9601  1.0785 -3.2331
   84MOL0     H11328   5.288   1.707  -0.034  2.4424 -0.1477 -0.9482
   84MOL0     H11329   5.524   1.767   0.015 -0.4669 -1.2382 -2.2762
   84MOL0     H11330   5.716   1.564   0.332 -3.3873  1.0367 -1.9673
   84MOL0     H11331   5.769   1.458   0.196 -0.3398  1.2819 -1.7400
   84MOL0     H11332   5.910   1.712   0.254 -1.3962 -0.6814  1.7171
   84MOL0     H11333   5.975   1.566   0.166  0.4791  1.9219 -0.2082
   84MOL0     H11334   5.966   1.447   0.389  0.3576 -0.3725 -3.2256
   84MOL0     H11335   5.945   1.604   0.470  1.9210  1.3120 -0.8291
   84MOL0     H11336   6.170   1.666   0.388  2.0375 -0.8593  1.1580
   84MOL0     H11337   6.159   1.532   0.271 -1.5401 -1.1627 -0.6600
   84MOL0     H11338   6.320   1.319   0.606  2.8301  0.8142 -1.1979
   84MOL0     H11339   5.561   1.413   0.246  1.0601 -0.8717 -0.8328
   84MOL0     H11340   5.333   1.349   0.205 -3.5303  1.6134 -0.4426
   85MOL0     O11341   1.188   0.996   3.458 -0.1187  0.2157 -0.7973
   85MOL0     C11342   1.260   1.096   3.453  0.3615  0.7703 -0.2503
   85MOL0     O11343   1.214   1.220   3.479  0.1295 -0.3673 -0.3293
   85MOL0     C11344   1.092   1.242   3.539  1.1797 -0.2102  0.6375
   85MOL0     C11345   1.017   1.349   3.485 -0.5276 -0.3917 -0.4925
   85MOL0     C11346   0.892   1.386   3.547 -0.7905 -0.0159  0.4342
   85MOL0     C11347   0.845   1.313   3.654 -0.2828  0.5889 -1.0247
   85MOL0     O11348   0.727   1.346   3.726 -0.8461  0.0037  0.0302
   85MOL0     C11349   0.618   1.419   3.657 -0.2492 -0.1106  0.4502
   85MOL0     C11350   0.485   1.363   3.705  0.1780  1.1089 -0.1345
   85MOL0     C11351   0.463   1.365   3.861  0.1276  0.1117  0.2885
   85MOL0     C11352   0.310   1.369   3.890 -0.5689  0.0481 -0.3875
   85MOL0     C11353   0.254   1.229   3.857  0.5543 -0.3462 -0.3798
   85MOL0     C11354   0.111   1.208   3.916  0.1561 -0.5754 -0.1205
   85MOL0     C11355   0.063   1.071   3.891  0.2775 -0.3371  0.3032
   85MOL0     C11356  -0.058   1.025   3.977 -0.4506 -0.7166 -0.9007
   85MOL0     N11357  -0.185   1.095   3.967  0.3389  0.1268  0.0247
   85MOL0     C11358  -0.258   1.111   3.849  0.2422 -0.0341  0.5360
   85MOL0     C11359  -0.372   1.191   3.879  0.4313  1.0692 -0.1057
   85MOL0     C11360  -0.474   1.240   3.783 -0.0314 -0.2955 -0.0410
   85MOL0     C11361  -0.602   1.275   3.870 -0.8307 -0.9607 -0.3978
   85MOL0     C11362  -0.720   1.290   3.776  0.1672 -0.0674  0.8814
   85MOL0     C11363  -0.794   1.155   3.753  0.6587  0.4370 -1.0513
   85MOL0     O11364  -0.880   1.152   3.632 -0.3614 -0.2377 -0.0346
   85MOL0     C11365  -0.984   1.238   3.628 -1.2554 -0.6009  0.2620
   85MOL0     C11366  -0.974   1.374   3.577 -0.5316 -0.0239  0.1387
   85MOL0     C11367  -1.083   1.463   3.575  0.2065  0.4098  0.7691
   85MOL0     C11368  -1.056   1.594   3.528  0.1776 -0.0411 -0.2828
   85MOL0     C11369  -1.214   1.410   3.607  0.2306 -0.5179  0.0465
   85MOL0     C11370  -1.351   1.483   3.595  0.5669  0.0208 -0.6108
   85MOL0     O11371  -1.449   1.412   3.651  0.4662 -1.0604 -0.5490
   85MOL0     C11372  -1.577   1.462   3.629 -0.4695 -0.7207 -0.0443
   85MOL0     C11373  -1.638   1.458   3.509  0.0349  0.5764  0.8600
   85MOL0     C11374  -1.777   1.494   3.499  0.0406  0.8567 -0.0784
   85MOL0     C11375  -1.846   1.549   3.611 -0.0763  0.6429 -0.4081
   85MOL0     O11376  -1.974   1.583   3.622  0.5824 -0.2646 -0.1774
   85MOL0     C11377  -2.043   1.598   3.494 -0.9816  0.5388  0.0774
   85MOL0     C11378  -2.181   1.660   3.513  0.7172  0.3176  0.1137
   85MOL0     C11379  -2.252   1.681   3.381 -0.4608 -0.3202 -0.0269
   85MOL0     C11380  -2.401   1.691   3.400 -0.1242  0.2284  0.2448
   85MOL0     C11381  -2.478   1.734   3.273 -0.4741 -0.3730  0.9746
   85MOL0     C11382  -2.626   1.741   3.299  0.4173  0.5310 -0.2649
   85MOL0     C11383  -2.706   1.763   3.179  0.3155  1.0254 -0.8006
   85MOL0     C11384  -2.858   1.760   3.218  0.0969  0.2188 -0.2902
   85MOL0    Cl11385  -2.896   1.618   3.336  0.3632  0.0201  0.1512
   85MOL0     C11386  -1.782   1.530   3.735  0.9943  0.4075  1.1486
   85MOL0     C11387  -1.651   1.486   3.745 -0.0581  0.2819  0.4746
   85MOL0     O11388  -1.363   1.596   3.538 -0.6167 -0.0727  0.2755
   85MOL0     C11389  -1.213   1.283   3.670  0.4708 -0.7880  0.6276
   85MOL0     C11390  -1.099   1.209   3.691  0.5059  0.1170  0.6314
   85MOL0     N11391  -0.351   1.227   4.015  0.8397 -0.9277  0.1101
   85MOL0     N11392  -0.249   1.170   4.065 -0.4522 -0.2224  0.1005
   85MOL0     C11393   0.930   1.221   3.721 -0.7467  0.3712  0.0027
   85MOL0     C11394   1.049   1.184   3.662  0.2042 -0.7002 -0.9238
   85MOL0     C11395   1.389   1.076   3.393 -0.3466 -0.4917 -0.1960
   85MOL0     C11396   1.422   0.944   3.364 -0.8477 -1.0373 -0.4447
   85MOL0     C11397   1.545   0.918   3.310  0.5281  0.1866  1.1804
   85MOL0     C11398   1.626   1.019   3.271 -0.4942 -1.1406 -1.2128
   85MOL0     O11399   1.742   1.006   3.201  0.4185 -0.6894  0.0480
   85MOL0     C11400   1.737   0.897   3.105  0.0247  0.4833 -0.6088
   85MOL0     C11401   1.862   0.902   3.021  0.1517  0.0107 -1.1107
   85MOL0     C11402   1.864   1.029   2.940 -0.3728  0.4355 -0.7819
   85MOL0     C11403   1.968   1.037   2.831 -0.9832  0.4395  0.3329
   85MOL0     C11404   2.110   1.042   2.887  0.5341  0.4847 -0.1673
   85MOL0     C11405   2.224   1.050   2.923 -0.3683 -0.1043  0.5594
   85MOL0     C11406   1.581   1.153   3.286 -1.2653  0.1346 -0.1810
   85MOL0     C11407   1.462   1.181   3.351 -0.9907 -0.2202  2.1199
   85MOL0     H11408   1.057   1.399   3.398 -1.4666  1.9186  0.3378
   85MOL0     H11409   0.835   1.460   3.492 -1.7516 -1.8162 -1.1137
   85MOL0     H11410   0.611   1.523   3.691  0.8829  0.4786 -1.0157
   85MOL0     H11411   0.621   1.423   3.548 -3.6060 -1.6215  0.2032
   85MOL0     H11412   0.406   1.422   3.659  0.1597  0.8337 -0.4633
   85MOL0     H11413   0.490   1.255   3.684  0.5227  0.2779  3.4696
   85MOL0     H11414   0.512   1.282   3.913 -0.8651 -1.2919 -0.9494
   85MOL0     H11415   0.515   1.452   3.902  1.9884 -1.5259  1.5758
   85MOL0     H11416   0.296   1.391   3.996 -1.0691 -0.1227 -0.4118
   85MOL0     H11417   0.259   1.450   3.837 -2.4382  0.5772  2.0667
   85MOL0     H11418   0.238   1.233   3.749  1.9109 -1.0902 -0.6351
   85MOL0     H11419   0.317   1.142   3.880  2.0331  0.6049 -0.6590
   85MOL0     H11420   0.104   1.223   4.024 -0.3917 -3.0435  0.2571
   85MOL0     H11421   0.035   1.276   3.877  0.1890 -1.8926 -2.6489
   85MOL0     H11422   0.026   1.071   3.788 -0.4155 -0.3874  0.5411
   85MOL0     H11423   0.142   0.998   3.911  2.0557  1.4724  0.2243
   85MOL0     H11424  -0.032   1.049   4.081 -0.3890  0.9632 -1.2918
   85MOL0     H11425  -0.073   0.917   3.964  0.9703 -1.0782  0.2069
   85MOL0     H11426  -0.230   1.066   3.755 -0.7974  1.1712 -0.3805
   85MOL0     H11427  -0.428   1.325   3.732 -2.6358  1.6312  0.6171
   85MOL0     H11428  -0.489   1.158   3.712  2.8221 -1.7790  0.9041
   85MOL0     H11429  -0.581   1.363   3.931 -0.1812 -2.0983  1.0818
   85MOL0     H11430  -0.629   1.197   3.941 -1.3953  0.9153  1.5202
   85MOL0     H11431  -0.695   1.340   3.682 -1.5699 -2.1677 -0.8125
   85MOL0     H11432  -0.790   1.351   3.833  0.9527  2.7862 -0.9971
   85MOL0     H11433  -0.857   1.117   3.834 -0.9044  0.4734 -2.2062
   85MOL0     H11434  -0.717   1.079   3.734 -0.4553 -1.4030  1.2311
   85MOL0     H11435  -0.872   1.388   3.542 -0.8823 -1.7985 -1.7816
   85MOL0     H11436  -0.955   1.618   3.562  0.5587 -2.3403  0.3728
   85MOL0     H11437  -1.060   1.591   3.419 -2.5189  1.6178 -0.3240
   85MOL0     H11438  -1.129   1.667   3.565  0.4885  0.0380  0.1784
   85MOL0     H11439  -1.577   1.427   3.424 -0.8082 -0.1596  0.5026
   85MOL0     H11440  -1.824   1.485   3.402 -2.3682  1.6299  0.9534
   85MOL0     H11441  -1.993   1.660   3.419 -1.4194 -0.3680 -0.9930
   85MOL0     H11442  -2.058   1.497   3.457 -3.4427  0.1511  1.8332
   85MOL0     H11443  -2.240   1.607   3.588 -0.0474  3.5293  1.9764
   85MOL0     H11444  -2.161   1.754   3.565  0.7220 -0.1200  0.9147
   85MOL0     H11445  -2.231   1.603   3.307 -0.8903  2.1025 -2.8633
   85MOL0     H11446  -2.223   1.770   3.325  2.2187 -1.5348 -0.7438
   85MOL0     H11447  -2.440   1.594   3.430  2.6373 -1.1258 -0.2608
   85MOL0     H11448  -2.421   1.758   3.484 -1.1256  2.0713 -1.3790
   85MOL0     H11449  -2.462   1.662   3.191 -0.0453  2.7977 -1.9595
   85MOL0     H11450  -2.437   1.828   3.235  0.6883 -0.9425  0.7661
   85MOL0     H11451  -2.659   1.644   3.336 -1.7659  0.3670 -2.3987
   85MOL0     H11452  -2.649   1.816   3.375 -1.0096  2.4195 -2.4392
   85MOL0     H11453  -2.688   1.691   3.099  0.7870 -1.0521  1.0665
   85MOL0     H11454  -2.681   1.861   3.137  2.7830  1.8859  2.3021
   85MOL0     H11455  -2.925   1.742   3.134 -3.0760 -1.1577  2.3108
   85MOL0     H11456  -2.877   1.859   3.260  1.1208  2.1614 -3.9935
   85MOL0     H11457  -1.841   1.546   3.824  1.0666  0.2676  1.2206
   85MOL0     H11458  -1.596   1.469   3.837  3.2690 -0.0456 -1.4068
   85MOL0     H11459  -1.306   1.241   3.705  0.6926 -1.6796  0.1640
   85MOL0     H11460  -1.107   1.121   3.754  2.5618 -0.7584 -0.2482
   85MOL0     H11461   0.905   1.186   3.820 -0.5035  3.5209  1.3110
   85MOL0     H11462   1.110   1.107   3.709 -1.8061  0.7059  4.8042
   85MOL0     H11463   1.365   0.855   3.390  0.5464 -1.3142  2.0599
   85MOL0     H11464   1.561   0.812   3.292 -1.4205  0.4221 -3.0931
   85MOL0     H11465   1.743   0.801   3.158 -1.0741  0.9787  0.4831
   85MOL0     H11466   1.646   0.906   3.044  0.6580  4.0437 -1.2313
   85MOL0     H11467   1.866   0.820   2.949  2.9788 -0.8932 -0.0635
   85MOL0     H11468   1.947   0.909   3.091 -0.9672 -1.9845  0.5427
   85MOL0     H11469   1.872   1.114   3.008 -0.5014 -0.6294  0.6285
   85MOL0     H11470   1.765   1.023   2.895  0.1159 -3.4375 -1.7520
   85MOL0     H11471   1.950   1.130   2.777 -1.1146  1.0869  1.4544
   85MOL0     H11472   1.947   0.957   2.760 -1.1436  1.8467 -1.2762
   85MOL0     H11473   2.324   1.042   2.962  0.6422  2.2843 -1.2349
   85MOL0     H11474   1.637   1.237   3.247  0.9986  0.1576  2.7558
   85MOL0     H11475   1.433   1.285   3.342  0.5110  0.0493 -0.3428
   86MOL0     O11476   6.843  10.754   8.915  0.8985 -0.5104 -0.2783
   86MOL0     C11477   6.910  10.848   8.957 -0.3357  0.1966 -0.0911
   86MOL0     O11478   6.868  10.970   8.998  0.3636  0.8319 -0.0154
   86MOL0     C11479   6.733  11.007   8.981 -0.0769  0.0521 -0.6202
   86MOL0     C11480   6.626  10.952   9.063  0.3158  0.4352  0.4772
   86MOL0     C11481   6.495  10.988   9.039  0.2820 -0.2108 -0.4130
   86MOL0     C11482   6.464  11.086   8.940  0.3338  0.6367  0.2025
   86MOL0     O11483   6.327  11.112   8.938 -0.1743  0.1037  0.9699
   86MOL0     C11484   6.288  11.212   8.855 -0.3881  0.9518  0.6266
   86MOL0     C11485   6.137  11.248   8.887  0.0027  0.5051  0.1965
   86MOL0     C11486   6.042  11.125   8.905  0.9236  0.3571 -1.0711
   86MOL0     C11487   5.903  11.173   8.933  0.0392 -0.5627 -0.2599
   86MOL0     C11488   5.831  11.087   9.034  0.6028 -0.3045  0.0569
   86MOL0     C11489   5.683  11.132   9.041  0.3654  0.9056 -0.3951
   86MOL0     C11490   5.599  11.071   9.152  0.0214 -0.6414  0.6124
   86MOL0     C11491   5.474  11.152   9.185  0.2997 -0.6073  0.5890
   86MOL0     N11492   5.379  11.085   9.269  0.6808 -0.6365  0.3325
   86MOL0     C11493   5.309  10.969   9.251 -0.2562  0.4785  0.1785
   86MOL0     C11494   5.223  10.960   9.350  0.1272  0.2512 -0.6996
   86MOL0     C11495   5.126  10.845   9.367 -0.2015  0.1110  0.4485
   86MOL0     C11496   5.186  10.741   9.469  0.0214 -0.4078  0.5792
   86MOL0     C11497   5.086  10.625   9.510  0.9442 -0.0896  0.7385
   86MOL0     C11498   4.984  10.581   9.401  0.4782 -0.1526 -0.4092
   86MOL0     O11499   4.883  10.496   9.458 -0.1360 -0.0410  0.1357
   86MOL0     C11500   4.782  10.467   9.371  0.2010  0.4322 -0.4842
   86MOL0     C11501   4.699  10.358   9.413  0.1027  0.4611  0.6764
   86MOL0     C11502   4.578  10.316   9.349 -0.2062  0.0238 -0.2237
   86MOL0     C11503   4.494  10.214   9.421 -0.0918 -0.4407 -0.6129
   86MOL0     C11504   4.540  10.397   9.233 -1.3705  0.2890  0.3426
   86MOL0     C11505   4.425  10.358   9.140 -0.3054  0.0944 -0.7299
   86MOL0     O11506   4.331  10.281   9.197  0.1271  0.5743  0.2708
   86MOL0     C11507   4.214  10.256   9.132  0.2091 -0.2685  0.0328
   86MOL0     C11508   4.166  10.117   9.147  0.0037  0.0972 -1.1469
   86MOL0     C11509   4.037  10.089   9.102  0.2623 -0.2615 -0.4913
   86MOL0     C11510   3.947  10.183   9.047  1.0152 -0.1637  0.1070
   86MOL0     O11511   3.817  10.149   9.005  0.0262  0.1879 -0.5648
   86MOL0     C11512   3.735  10.250   8.942  0.6458  0.3920  0.7979
   86MOL0     C11513   3.626  10.170   8.872 -0.1567 -0.1770 -0.8652
   86MOL0     C11514   3.553  10.265   8.776 -0.0345  0.8869 -0.9473
   86MOL0     C11515   3.484  10.196   8.659  0.0886 -0.0123  0.8225
   86MOL0     C11516   3.334  10.156   8.697  0.0997 -1.6008 -0.6682
   86MOL0     C11517   3.279  10.058   8.602  0.5097  0.7395  0.5495
   86MOL0     C11518   3.145  10.002   8.654  0.6166 -0.1264  0.5456
   86MOL0     C11519   3.034   9.972   8.546 -0.1073 -0.1738 -0.4934
   86MOL0    Cl11520   2.871   9.904   8.609  0.4172  0.3755 -0.0162
   86MOL0     C11521   4.000  10.317   9.032 -0.6443 -0.1903 -0.2682
   86MOL0     C11522   4.131  10.349   9.067  0.3747 -0.3246  1.0009
   86MOL0     O11523   4.422  10.408   9.022  0.3487  0.5272  0.1274
   86MOL0     C11524   4.629  10.493   9.192  0.0265 -0.0449 -0.0360
   86MOL0     C11525   4.743  10.532   9.254  0.2954 -0.8304 -0.4710
   86MOL0     N11526   5.238  11.072   9.435  0.7962  0.7770 -0.2075
   86MOL0     N11527   5.334  11.146   9.385 -0.1572  0.5278 -0.7833
   86MOL0     C11528   6.566  11.131   8.857  0.3646 -0.9047 -0.1831
   86MOL0     C11529   6.695  11.095   8.877 -0.2821  0.8159 -0.3357
   86MOL0     C11530   7.051  10.827   8.977 -0.8518 -0.3914 -0.0088
   86MOL0     C11531   7.112  10.701   8.969 -0.2968 -0.5900 -0.3449
   86MOL0     C11532   7.249  10.679   8.986  0.0560 -0.9459 -0.7017
   86MOL0     C11533   7.334  10.789   9.006  0.4068  0.9448  0.5349
   86MOL0     O11534   7.468  10.786   9.030  0.4235 -0.0726  0.0321
   86MOL0     C11535   7.532  10.663   8.987 -0.1009 -0.1042 -0.8912
   86MOL0     C11536   7.672  10.678   9.031  0.7717  0.4337  0.2703
   86MOL0     C11537   7.752  10.781   8.955  0.1616 -0.3697 -0.6996
   86MOL0     C11538   7.868  10.827   9.039  0.6254 -0.6648  0.0410
   86MOL0     C11539   7.945  10.927   8.961  0.8776 -0.3149 -0.6578
   86MOL0     C11540   8.028  10.990   8.890 -0.3040  0.1828  0.1578
   86MOL0     C11541   7.271  10.919   9.011 -0.9865 -0.4622  0.2570
   86MOL0     C11542   7.135  10.941   8.992  1.0982 -0.0688 -0.0050
   86MOL0     H11543   6.653  10.887   9.145 -0.5914 -0.4765  0.0713
   86MOL0     H11544   6.415  10.946   9.099 -1.7660  0.3243 -2.5657
   86MOL0     H11545   6.346  11.304   8.862 -0.5107  1.1647 -0.8589
   86MOL0     H11546   6.292  11.179   8.751 -3.3358 -0.0426  0.7201
   86MOL0     H11547   6.138  11.310   8.978 -1.6075  0.2690  0.3893
   86MOL0     H11548   6.110  11.316   8.806 -0.4159  1.2063  0.9081
   86MOL0     H11549   6.028  11.057   8.821 -0.9055 -1.5272  0.6687
   86MOL0     H11550   6.091  11.084   8.993 -0.8005  1.0828  0.2896
   86MOL0     H11551   5.902  11.273   8.976 -2.5882 -1.2367  1.4545
   86MOL0     H11552   5.848  11.173   8.838 -1.4168  0.7042  0.5514
   86MOL0     H11553   5.826  10.980   9.009 -1.0689 -0.2747  0.1003
   86MOL0     H11554   5.875  11.097   9.134 -0.8375 -1.4697  0.8522
   86MOL0     H11555   5.675  11.240   9.059 -2.9756  0.4150  1.9477
   86MOL0     H11556   5.644  11.117   8.940 -0.3567  2.5885 -0.4092
   86MOL0     H11557   5.589  10.963   9.134  3.8216 -0.9901 -0.4464
   86MOL0     H11558   5.663  11.069   9.241  1.5947 -0.8237 -0.4689
   86MOL0     H11559   5.424  11.167   9.089 -2.5666 -0.1653  2.0610
   86MOL0     H11560   5.507  11.245   9.233  0.0601 -0.6869  0.9144
   86MOL0     H11561   5.326  10.890   9.179  2.3710  0.1195  1.1108
   86MOL0     H11562   5.033  10.891   9.402 -0.4319 -0.1003  0.1217
   86MOL0     H11563   5.126  10.790   9.273  2.6387 -2.5916  1.8051
   86MOL0     H11564   5.214  10.800   9.556 -0.9304 -0.6746  1.0694
   86MOL0     H11565   5.272  10.689   9.424  0.8716 -0.1765  1.8716
   86MOL0     H11566   5.022  10.663   9.590 -2.1678  0.2255 -1.7403
   86MOL0     H11567   5.139  10.533   9.539  0.7755  0.1247  1.7812
   86MOL0     H11568   5.032  10.537   9.313 -0.1123 -0.1086 -0.7568
   86MOL0     H11569   4.936  10.672   9.365  0.4333  0.1472  0.3995
   86MOL0     H11570   4.721  10.315   9.510 -1.2012 -1.2377  0.2711
   86MOL0     H11571   4.395  10.256   9.443  0.0772 -1.0015  1.4143
   86MOL0     H11572   4.503  10.122   9.363  0.3738  0.5830 -2.2315
   86MOL0     H11573   4.527  10.185   9.522 -0.3789  2.0240  0.2605
   86MOL0     H11574   4.224  10.037   9.191 -1.2258 -0.4487 -0.4795
   86MOL0     H11575   3.993   9.990   9.108 -1.3716  0.4101 -0.7223
   86MOL0     H11576   3.683  10.314   9.013 -0.5281  0.7680 -0.3642
   86MOL0     H11577   3.790  10.320   8.878 -1.3741  3.1109  1.8565
   86MOL0     H11578   3.666  10.085   8.816  0.8479  0.9547 -1.9160
   86MOL0     H11579   3.561  10.121   8.946 -0.2980  1.5501  0.1966
   86MOL0     H11580   3.625  10.339   8.739 -2.6290  4.5942  0.7515
   86MOL0     H11581   3.471  10.318   8.825 -0.6061 -0.5022 -0.3417
   86MOL0     H11582   3.488  10.263   8.573 -3.0350 -0.2372  0.4074
   86MOL0     H11583   3.540  10.104   8.641  0.6649 -0.4400  4.0834
   86MOL0     H11584   3.276  10.249   8.703  1.4381 -0.8339  1.9595
   86MOL0     H11585   3.324  10.107   8.794 -1.2405  0.0047  0.0744
   86MOL0     H11586   3.255  10.109   8.509 -0.5020 -1.0650 -0.2348
   86MOL0     H11587   3.350   9.977   8.584  1.5815  2.1465 -2.0453
   86MOL0     H11588   3.096  10.075   8.719 -2.0981 -0.0065 -1.4473
   86MOL0     H11589   3.170   9.907   8.702 -0.1595 -0.0050  1.2155
   86MOL0     H11590   3.078   9.908   8.469  1.2392 -0.9947  0.8870
   86MOL0     H11591   3.003  10.066   8.501 -0.3794 -1.3624 -2.9617
   86MOL0     H11592   3.936  10.390   8.984 -1.5985 -0.7559  0.1186
   86MOL0     H11593   4.172  10.447   9.043 -0.7164  0.5100  2.4172
   86MOL0     H11594   4.611  10.538   9.095  2.4454 -1.3523 -1.1704
   86MOL0     H11595   4.792  10.623   9.221 -0.6884  0.4969  1.5190
   86MOL0     H11596   6.539  11.184   8.766  2.1256 -1.7906 -1.2946
   86MOL0     H11597   6.759  11.130   8.797  0.8589 -0.9604 -0.2763
   86MOL0     H11598   7.054  10.609   8.973  0.5410 -1.0968  0.8713
   86MOL0     H11599   7.284  10.577   8.974 -0.7521 -1.2372 -0.6251
   86MOL0     H11600   7.503  10.575   9.045  1.3796 -1.3285 -1.9281
   86MOL0     H11601   7.525  10.651   8.878 -2.3602  2.6117 -1.1748
   86MOL0     H11602   7.708  10.576   9.042  0.1692  0.2918  1.0349
   86MOL0     H11603   7.669  10.713   9.135 -1.3906  2.1297 -0.2887
   86MOL0     H11604   7.688  10.869   8.941 -0.7511 -0.2934  2.9750
   86MOL0     H11605   7.775  10.740   8.856  0.3245 -0.9614 -0.4177
   86MOL0     H11606   7.936  10.743   9.052  1.1498 -0.9208 -3.4458
   86MOL0     H11607   7.837  10.873   9.134  0.9665  0.1952 -0.2590
   86MOL0     H11608   8.097  11.059   8.845 -1.0457  0.7414 -0.1457
   86MOL0     H11609   7.336  11.002   9.032 -1.7960 -0.5631  4.0281
   86MOL0     H11610   7.089  11.039   8.985 -1.5746 -1.2327 -0.1531
   87MOL0     O11611   7.541   8.638   5.026 -0.6422  0.3560 -0.2530
   87MOL0     C11612   7.609   8.743   5.035  0.8684 -0.4799 -0.6105
   87MOL0     O11613   7.574   8.859   5.102  0.1093 -0.3586 -0.0789
   87MOL0     C11614   7.473   8.857   5.195  0.7041 -0.5673  0.1249
   87MOL0     C11615   7.352   8.921   5.170 -0.2648 -0.0784 -0.1395
   87MOL0     C11616   7.248   8.910   5.265  0.2281  0.0047 -0.4679
   87MOL0     C11617   7.255   8.820   5.373  0.7105 -0.4977 -1.0475
   87MOL0     O11618   7.139   8.805   5.446 -0.8991 -0.5097 -0.3924
   87MOL0     C11619   7.123   8.682   5.524 -0.5621  0.9923  0.3942
   87MOL0     C11620   6.983   8.661   5.575 -0.1233 -0.0408 -0.5321
   87MOL0     C11621   6.891   8.622   5.460  0.2192  0.3842  0.6554
   87MOL0     C11622   6.755   8.615   5.520  0.3519  0.5211  0.3176
   87MOL0     C11623   6.646   8.566   5.430 -0.0206  0.0649 -0.0309
   87MOL0     C11624   6.507   8.579   5.484  0.5531 -0.3371 -0.2638
   87MOL0     C11625   6.446   8.724   5.500 -0.8450 -0.1784  0.3698
   87MOL0     C11626   6.415   8.781   5.359 -0.1439  0.1606 -0.2344
   87MOL0     N11627   6.346   8.909   5.377  0.3173  0.1751  1.1572
   87MOL0     C11628   6.403   9.031   5.343 -0.2592 -0.1147 -0.9255
   87MOL0     C11629   6.313   9.126   5.362  0.5865 -0.6589  0.1734
   87MOL0     C11630   6.316   9.265   5.312 -0.6578 -0.8500 -0.5449
   87MOL0     C11631   6.378   9.365   5.418 -0.0605  0.3996 -0.0156
   87MOL0     C11632   6.296   9.420   5.544 -0.5330  0.1582 -0.3722
   87MOL0     C11633   6.153   9.440   5.500 -0.0109  0.0264 -0.9262
   87MOL0     O11634   6.095   9.530   5.594 -0.8388  0.0472 -0.1695
   87MOL0     C11635   5.967   9.573   5.587  0.7260 -0.7526 -0.3642
   87MOL0     C11636   5.871   9.530   5.496 -0.4630 -0.8940  0.1577
   87MOL0     C11637   5.737   9.567   5.495  0.1609  0.4844  0.1396
   87MOL0     C11638   5.654   9.504   5.381 -0.2943  0.5228  0.3083
   87MOL0     C11639   5.687   9.659   5.592 -0.2243  0.3266  0.5086
   87MOL0     C11640   5.542   9.707   5.602 -0.5837 -0.4857  0.5489
   87MOL0     O11641   5.452   9.636   5.527  0.4156 -0.6159  0.1566
   87MOL0     C11642   5.324   9.691   5.514 -0.3514 -0.2610  0.2862
   87MOL0     C11643   5.296   9.773   5.406  0.9314  0.6519  0.9954
   87MOL0     C11644   5.161   9.828   5.387  0.3583 -0.0391 -0.8789
   87MOL0     C11645   5.074   9.806   5.486  1.0373 -0.3557 -0.6176
   87MOL0     O11646   4.953   9.862   5.470 -0.0579  0.1019 -0.2982
   87MOL0     C11647   4.841   9.840   5.562  0.4893 -0.3231 -0.3957
   87MOL0     C11648   4.722   9.919   5.524 -0.0722  0.3764  0.3582
   87MOL0     C11649   4.602   9.887   5.618  0.4176 -0.3852 -0.5693
   87MOL0     C11650   4.522   9.760   5.578  0.6337  0.1339 -0.5627
   87MOL0     C11651   4.376   9.758   5.642 -0.3264  0.8266 -0.1699
   87MOL0     C11652   4.379   9.767   5.795 -0.7955 -0.3560  0.6402
   87MOL0     C11653   4.243   9.740   5.849 -0.9525  0.3682 -0.1173
   87MOL0     C11654   4.251   9.707   5.995  0.9519  0.1001  0.1293
   87MOL0    Cl11655   4.264   9.861   6.087  0.4039  0.2783  0.0906
   87MOL0     C11656   5.095   9.729   5.597 -0.9400 -0.4137 -0.0373
   87MOL0     C11657   5.229   9.671   5.604  0.8323  0.4088 -0.1429
   87MOL0     O11658   5.517   9.818   5.655 -0.0844  0.0883  0.0764
   87MOL0     C11659   5.782   9.711   5.686  0.0230  0.3654  0.6083
   87MOL0     C11660   5.914   9.652   5.689 -0.3584 -0.3319  0.1896
   87MOL0     N11661   6.195   9.066   5.407 -0.1083 -0.4433 -0.2926
   87MOL0     N11662   6.217   8.936   5.412  0.1690 -0.5782 -0.1112
   87MOL0     C11663   7.380   8.758   5.402  0.1310  0.1345 -0.6728
   87MOL0     C11664   7.484   8.776   5.307  0.3310 -0.0028 -0.3883
   87MOL0     C11665   7.738   8.738   4.973 -0.2287  0.2585 -0.4161
   87MOL0     C11666   7.789   8.621   4.918  0.3826  0.8636  0.0150
   87MOL0     C11667   7.918   8.618   4.866 -0.5979  1.5968 -0.4258
   87MOL0     C11668   8.002   8.731   4.862  0.3274 -0.5849 -0.9032
   87MOL0     O11669   8.133   8.717   4.822 -0.1201 -0.0743 -0.1182
   87MOL0     C11670   8.236   8.813   4.868  1.0224 -0.0251  0.1229
   87MOL0     C11671   8.243   8.928   4.767 -0.9571  0.6465 -0.4309
   87MOL0     C11672   8.368   9.010   4.794 -0.6783  0.6829  0.3941
   87MOL0     C11673   8.366   9.083   4.928  0.3823  0.2610 -0.2751
   87MOL0     C11674   8.484   9.175   4.934 -0.2131  0.2709  0.1877
   87MOL0     C11675   8.574   9.252   4.922 -0.2811 -0.0572 -0.3519
   87MOL0     C11676   7.944   8.852   4.903  1.3248  0.8006 -0.6015
   87MOL0     C11677   7.814   8.856   4.952 -0.6274  0.1652 -0.6600
   87MOL0     H11678   7.348   8.999   5.095  1.8505 -2.0593 -2.4816
   87MOL0     H11679   7.154   8.960   5.246  0.1711  0.0454 -0.0719
   87MOL0     H11680   7.154   8.597   5.463 -1.9613  2.1219 -2.0117
   87MOL0     H11681   7.196   8.678   5.606 -0.0040 -3.3618 -0.0474
   87MOL0     H11682   6.992   8.587   5.655  0.8422  2.3376  1.7022
   87MOL0     H11683   6.954   8.751   5.629  3.4754  0.4894  0.7386
   87MOL0     H11684   6.902   8.687   5.373  0.3534 -1.6321 -0.8913
   87MOL0     H11685   6.939   8.527   5.433  1.1766  0.8241  0.7521
   87MOL0     H11686   6.768   8.547   5.604 -0.4790  0.8909  0.7552
   87MOL0     H11687   6.723   8.709   5.566 -0.4484 -0.7612  2.4965
   87MOL0     H11688   6.647   8.616   5.333 -1.6785 -2.6929 -1.6041
   87MOL0     H11689   6.665   8.459   5.415  2.0878  0.3853  0.0685
   87MOL0     H11690   6.442   8.528   5.412  0.0452 -1.2547  0.8041
   87MOL0     H11691   6.507   8.533   5.584  0.0428 -2.1025 -1.0340
   87MOL0     H11692   6.347   8.705   5.542 -2.8678 -0.6174 -4.0630
   87MOL0     H11693   6.500   8.790   5.568 -3.2484  0.8561  1.3685
   87MOL0     H11694   6.338   8.719   5.311 -0.5997  0.5108  0.0366
   87MOL0     H11695   6.500   8.780   5.291 -0.3684  0.7009 -0.5224
   87MOL0     H11696   6.506   9.063   5.330 -0.4486  1.4938  1.0240
   87MOL0     H11697   6.369   9.276   5.217 -0.2683  0.0037 -0.2358
   87MOL0     H11698   6.216   9.300   5.284  0.7926  3.7469 -0.7514
   87MOL0     H11699   6.404   9.447   5.350  2.9337 -0.4030  0.0333
   87MOL0     H11700   6.469   9.312   5.446 -0.3649 -0.2992 -0.3300
   87MOL0     H11701   6.348   9.502   5.594 -1.9155  0.6338  0.3659
   87MOL0     H11702   6.295   9.348   5.627  3.9117  1.3758  1.0290
   87MOL0     H11703   6.100   9.346   5.517  0.1177 -0.0937 -1.1925
   87MOL0     H11704   6.138   9.485   5.402 -1.8128 -1.6415 -1.4789
   87MOL0     H11705   5.910   9.464   5.419  1.2539 -0.1419  0.3257
   87MOL0     H11706   5.714   9.479   5.293  0.4180 -0.9801  1.1712
   87MOL0     H11707   5.601   9.413   5.412 -3.0665  1.3333 -1.6604
   87MOL0     H11708   5.576   9.573   5.349 -1.9467 -0.0986  2.7250
   87MOL0     H11709   5.377   9.795   5.337  2.6056  0.5403  2.8456
   87MOL0     H11710   5.144   9.882   5.294 -1.1248  1.0504  0.0032
   87MOL0     H11711   4.799   9.739   5.570 -2.4827  0.9410  2.3081
   87MOL0     H11712   4.880   9.867   5.661  0.3880  1.4333 -0.8023
   87MOL0     H11713   4.746  10.025   5.513  1.8687 -0.1234 -0.6035
   87MOL0     H11714   4.688   9.904   5.420 -0.5049  3.0731  0.0275
   87MOL0     H11715   4.530   9.966   5.596  0.0937 -0.0312  1.5745
   87MOL0     H11716   4.626   9.902   5.723 -0.0100 -0.1418 -0.5030
   87MOL0     H11717   4.510   9.775   5.470 -1.2828  2.2475 -0.1315
   87MOL0     H11718   4.571   9.666   5.604 -4.5523 -2.7858  0.0146
   87MOL0     H11719   4.335   9.663   5.608  2.2438 -1.3545  2.3360
   87MOL0     H11720   4.312   9.836   5.599 -0.4036  1.0237  0.2943
   87MOL0     H11721   4.451   9.688   5.816 -0.3981 -0.7435 -1.9218
   87MOL0     H11722   4.410   9.862   5.841 -2.7122  1.3098 -1.2832
   87MOL0     H11723   4.198   9.661   5.787 -1.8520  1.5140 -0.9738
   87MOL0     H11724   4.170   9.820   5.833  0.9285  1.9473 -1.3566
   87MOL0     H11725   4.334   9.640   6.019  0.2048 -0.2049  2.1063
   87MOL0     H11726   4.160   9.651   6.019  1.9405 -1.5609  0.1137
   87MOL0     H11727   5.025   9.718   5.679  0.0538  2.6178  1.3536
   87MOL0     H11728   5.251   9.606   5.688 -1.8964 -0.0449  0.3257
   87MOL0     H11729   5.747   9.784   5.758 -0.0807  0.8765  0.0516
   87MOL0     H11730   5.985   9.681   5.766  0.4267 -1.7711  0.0515
   87MOL0     H11731   7.395   8.705   5.495  1.0556  0.5530 -0.5720
   87MOL0     H11732   7.574   8.719   5.325  1.1831  1.4426  0.0423
   87MOL0     H11733   7.726   8.533   4.916  1.9968 -0.3363 -1.6527
   87MOL0     H11734   7.956   8.522   4.834  0.5266  0.6173  3.3170
   87MOL0     H11735   8.211   8.854   4.966 -0.5814  3.3395 -1.5269
   87MOL0     H11736   8.332   8.760   4.871 -0.1049 -2.1655  0.2341
   87MOL0     H11737   8.152   8.983   4.790 -0.2544  0.8016  2.3299
   87MOL0     H11738   8.237   8.903   4.661 -0.5829  3.9622 -1.3155
   87MOL0     H11739   8.378   9.079   4.709  1.2442  1.0071  0.8426
   87MOL0     H11740   8.456   8.948   4.779  0.0095  1.8333 -0.5548
   87MOL0     H11741   8.373   9.017   5.015  1.6209  1.7157  0.7794
   87MOL0     H11742   8.277   9.143   4.951 -1.8189 -2.9988  0.3838
   87MOL0     H11743   8.635   9.339   4.908 -0.7876  0.0083 -2.4397
   87MOL0     H11744   7.988   8.952   4.902  0.4040  1.2390  0.8557
   87MOL0     H11745   7.772   8.948   4.990  2.1098  1.6411 -1.0067
   88MOL0     O11746   0.648  11.085  10.056  0.6809 -0.0712  0.0294
   88MOL0     C11747   0.750  11.029  10.025  0.3691 -0.4138  0.2447
   88MOL0     O11748   0.765  10.956   9.917  0.1099  0.2331 -0.7182
   88MOL0     C11749   0.676  10.942   9.809 -1.0120 -0.9739 -0.6282
   88MOL0     C11750   0.537  10.968   9.814  0.3745 -0.2580  0.3118
   88MOL0     C11751   0.460  10.964   9.695  0.4109 -0.0682  0.0438
   88MOL0     C11752   0.520  10.923   9.575 -0.0495 -0.8599  0.5312
   88MOL0     O11753   0.429  10.916   9.468  0.3044  0.3799 -0.8373
   88MOL0     C11754   0.312  11.009   9.451  0.4041 -0.1229  0.3857
   88MOL0     C11755   0.274  10.975   9.306  0.2982  0.1896  0.0427
   88MOL0     C11756   0.193  10.840   9.305 -0.0457 -0.6736 -0.6806
   88MOL0     C11757   0.187  10.769   9.167 -0.7396  0.2805 -0.3742
   88MOL0     C11758   0.135  10.623   9.174  0.3866  0.6342  0.3090
   88MOL0     C11759   0.179  10.542   9.060 -1.0651 -0.3038 -0.6951
   88MOL0     C11760   0.161  10.395   9.075 -0.3385  0.0974 -0.2482
   88MOL0     C11761   0.198  10.314   8.947  0.0494  0.2608  0.4139
   88MOL0     N11762   0.092  10.317   8.845  0.0611  0.0204  0.1010
   88MOL0     C11763  -0.035  10.271   8.863 -0.1505  0.4339 -0.5400
   88MOL0     C11764  -0.099  10.305   8.752  0.4309 -0.0182 -0.5384
   88MOL0     C11765  -0.244  10.286   8.739 -0.0333  0.5092  0.1814
   88MOL0     C11766  -0.305  10.391   8.647 -0.2881  0.2313  1.2619
   88MOL0     C11767  -0.446  10.337   8.605 -0.6949  0.2626 -0.5132
   88MOL0     C11768  -0.560  10.362   8.701  0.0779 -0.4054 -0.4827
   88MOL0     O11769  -0.572  10.498   8.746  0.0730 -0.0425 -0.1094
   88MOL0     C11770  -0.683  10.527   8.824 -0.0526  0.0076 -0.1460
   88MOL0     C11771  -0.702  10.659   8.852 -0.5802 -0.0272  0.2768
   88MOL0     C11772  -0.808  10.704   8.930 -0.3423 -0.2705 -0.0555
   88MOL0     C11773  -0.818  10.852   8.954 -0.5645 -0.3907 -0.7616
   88MOL0     C11774  -0.902  10.612   8.991 -0.3880  0.1234  1.0975
   88MOL0     C11775  -1.007  10.637   9.094 -0.3136  0.5420  0.9999
   88MOL0     O11776  -1.061  10.532   9.158  0.0025  0.0957  0.2932
   88MOL0     C11777  -1.171  10.551   9.236  0.0679  0.5392  0.5971
   88MOL0     C11778  -1.296  10.530   9.174 -0.2935  1.0674 -0.3929
   88MOL0     C11779  -1.408  10.545   9.253 -0.3165  0.4381  0.6331
   88MOL0     C11780  -1.401  10.590   9.386 -0.0055  0.2778  0.3992
   88MOL0     O11781  -1.512  10.623   9.448 -0.7147 -0.5922  0.7358
   88MOL0     C11782  -1.531  10.558   9.567 -0.6223 -0.2389 -0.4891
   88MOL0     C11783  -1.688  10.549   9.588 -0.4631  0.0445  0.4694
   88MOL0     C11784  -1.759  10.671   9.655 -0.0072 -0.4854  0.2965
   88MOL0     C11785  -1.904  10.637   9.699 -0.1375  0.1380  0.0843
   88MOL0     C11786  -1.963  10.751   9.788 -0.1518 -0.2438 -0.4191
   88MOL0     C11787  -2.070  10.690   9.877 -0.0912  0.0189 -0.5621
   88MOL0     C11788  -2.139  10.790   9.981 -0.6015  0.0005  0.6843
   88MOL0     C11789  -2.263  10.730  10.057 -0.0064  0.0695 -0.1938
   88MOL0    Cl11790  -2.210  10.681  10.224 -0.0184  0.0176  0.2359
   88MOL0     C11791  -1.271  10.605   9.443  0.7346  0.0596  0.1667
   88MOL0     C11792  -1.154  10.594   9.366  0.4151  0.6036 -0.1185
   88MOL0     O11793  -1.040  10.758   9.105  0.1559  0.1614  0.0720
   88MOL0     C11794  -0.881  10.475   8.958  0.5610  0.6231  0.4924
   88MOL0     C11795  -0.775  10.433   8.875 -0.7689  0.7581  0.2012
   88MOL0     N11796  -0.012  10.356   8.667 -0.2476 -0.2612  0.6115
   88MOL0     N11797   0.106  10.358   8.720 -0.1236  0.1976  0.6748
   88MOL0     C11798   0.652  10.877   9.571  0.3768 -0.0083 -0.5887
   88MOL0     C11799   0.727  10.891   9.686  0.6961 -0.3787 -0.6361
   88MOL0     C11800   0.877  11.058  10.097  0.4483 -0.2673 -0.1094
   88MOL0     C11801   0.881  11.143  10.212 -0.0822 -0.3556  0.0358
   88MOL0     C11802   1.000  11.143  10.291  0.2094 -0.4034  0.5385
   88MOL0     C11803   1.118  11.079  10.242 -0.7753  0.3448 -0.1081
   88MOL0     O11804   1.226  11.077  10.325 -0.1486  0.2507 -0.5123
   88MOL0     C11805   1.358  11.060  10.267 -0.5697  0.6387  0.3075
   88MOL0     C11806   1.437  11.187  10.276 -0.2995 -0.0298 -0.4500
   88MOL0     C11807   1.543  11.195  10.384 -0.2329 -0.4891 -0.4010
   88MOL0     C11808   1.671  11.122  10.346 -0.7014  0.4794  0.0436
   88MOL0     C11809   1.769  11.151  10.449  0.1424  0.6046 -0.4960
   88MOL0     C11810   1.850  11.146  10.541 -0.3152  0.4431  0.1487
   88MOL0     C11811   1.114  11.001  10.130  0.2198 -0.3856  0.9686
   88MOL0     C11812   0.998  10.992  10.057 -0.1828 -0.2785  0.0094
   88MOL0     H11813   0.483  10.964   9.908  0.0812  1.5673  0.2602
   88MOL0     H11814   0.353  10.980   9.703  0.6340  2.1431 -0.8159
   88MOL0     H11815   0.231  10.993   9.522  1.2684 -1.1191  1.1859
   88MOL0     H11816   0.332  11.117   9.447 -1.3834  0.2330 -0.0955
   88MOL0     H11817   0.213  11.051   9.256  2.2167 -0.4816 -3.6294
   88MOL0     H11818   0.365  10.971   9.246 -0.1561  2.0708 -0.8471
   88MOL0     H11819   0.230  10.768   9.379 -0.0315  1.9060  2.0079
   88MOL0     H11820   0.094  10.875   9.335  0.3750 -0.6069  0.7137
   88MOL0     H11821   0.136  10.825   9.088 -1.3765  1.7648  1.0288
   88MOL0     H11822   0.293  10.763   9.140 -0.1415  0.5808  1.7007
   88MOL0     H11823   0.182  10.584   9.264  2.8119  0.9264 -0.7612
   88MOL0     H11824   0.026  10.617   9.188  0.3394  2.4137  1.1102
   88MOL0     H11825   0.123  10.563   8.969  0.3663  2.2215 -1.1002
   88MOL0     H11826   0.284  10.567   9.040 -0.4228 -0.8634  1.6713
   88MOL0     H11827   0.218  10.356   9.160 -0.0025 -0.2025 -0.6038
   88MOL0     H11828   0.058  10.364   9.097  0.2377 -0.4336  1.9090
   88MOL0     H11829   0.210  10.213   8.987 -1.0245  0.7015  1.9540
   88MOL0     H11830   0.294  10.344   8.905  0.5268  0.2577  1.4689
   88MOL0     H11831  -0.072  10.232   8.958  0.8188  2.3805  0.6958
   88MOL0     H11832  -0.254  10.191   8.685  1.2065  0.6353 -0.3067
   88MOL0     H11833  -0.287  10.272   8.838 -0.8081  1.1470 -0.0525
   88MOL0     H11834  -0.246  10.408   8.556 -1.0576  0.1438  0.7364
   88MOL0     H11835  -0.323  10.484   8.702 -3.5057 -1.0796  2.6569
   88MOL0     H11836  -0.432  10.232   8.577  1.7766  0.9719 -2.2776
   88MOL0     H11837  -0.475  10.385   8.511  1.4456 -0.1450 -1.4540
   88MOL0     H11838  -0.522  10.321   8.794  1.7770 -1.1134 -1.4336
   88MOL0     H11839  -0.653  10.318   8.664 -0.6141  1.3547 -0.9666
   88MOL0     H11840  -0.626  10.724   8.810 -0.7561  2.8481  3.9324
   88MOL0     H11841  -0.828  10.876   9.060  2.1178 -2.1128 -0.0258
   88MOL0     H11842  -0.725  10.899   8.922 -0.4199  1.5072  2.1119
   88MOL0     H11843  -0.895  10.904   8.897 -0.7793 -1.6016 -1.6220
   88MOL0     H11844  -1.295  10.501   9.069 -0.0124 -1.6365  0.2886
   88MOL0     H11845  -1.505  10.514   9.215  0.3137 -0.9534  0.0763
   88MOL0     H11846  -1.497  10.454   9.560 -0.6755 -0.3662  0.8666
   88MOL0     H11847  -1.483  10.602   9.654  2.6960  0.6588 -2.5986
   88MOL0     H11848  -1.738  10.531   9.492  0.0359 -0.7591  0.3495
   88MOL0     H11849  -1.713  10.464   9.653  1.2632 -0.4311  0.5501
   88MOL0     H11850  -1.770  10.755   9.585 -1.6806  0.4813  1.6359
   88MOL0     H11851  -1.697  10.710   9.737  0.2935 -0.6469  0.1489
   88MOL0     H11852  -1.962  10.622   9.608  0.6974 -2.2593 -0.1227
   88MOL0     H11853  -1.902  10.540   9.750  0.3896  0.4624  0.7098
   88MOL0     H11854  -2.008  10.834   9.732 -0.4134  0.2419  0.5031
   88MOL0     H11855  -1.881  10.792   9.848 -0.2853 -0.1314 -0.3141
   88MOL0     H11856  -2.151  10.654   9.813  0.2579 -0.0876 -0.9511
   88MOL0     H11857  -2.020  10.611   9.934 -3.4747 -1.4018  0.7088
   88MOL0     H11858  -2.165  10.882   9.929  1.2662  0.2010  0.0408
   88MOL0     H11859  -2.071  10.826  10.058  0.0776  2.8411 -1.1144
   88MOL0     H11860  -2.295  10.642  10.001  0.7116  0.0161 -0.5328
   88MOL0     H11861  -2.342  10.806  10.059  0.3802  0.4554  1.1429
   88MOL0     H11862  -1.274  10.632   9.548  1.4518 -1.0897  0.4998
   88MOL0     H11863  -1.055  10.615   9.404  0.3892  4.1640 -1.6373
   88MOL0     H11864  -0.943  10.391   8.990  3.2126 -0.2641  3.8624
   88MOL0     H11865  -0.760  10.328   8.850  1.9838  1.3103 -0.8076
   88MOL0     H11866   0.695  10.829   9.483  1.2922 -1.4892  0.6167
   88MOL0     H11867   0.832  10.865   9.674  0.8374  0.1797 -0.6340
   88MOL0     H11868   0.790  11.191  10.244 -0.1399 -0.0585 -0.5528
   88MOL0     H11869   1.002  11.205  10.380 -0.6406  1.8228 -0.8882
   88MOL0     H11870   1.417  10.979  10.310  0.4152  1.3147  0.2634
   88MOL0     H11871   1.362  11.040  10.159  1.8616  2.4063 -0.0486
   88MOL0     H11872   1.371  11.272  10.298 -1.2127 -0.9791  0.6695
   88MOL0     H11873   1.479  11.209  10.178 -0.7735  0.5207 -0.5371
   88MOL0     H11874   1.501  11.156  10.477 -1.8672 -3.4734 -2.2174
   88MOL0     H11875   1.578  11.299  10.389 -0.0998 -0.5093 -0.8440
   88MOL0     H11876   1.697  11.154  10.245  1.9734 -2.6924 -0.4304
   88MOL0     H11877   1.648  11.016  10.332  0.8473  0.3513 -2.0161
   88MOL0     H11878   1.913  11.161  10.627  0.3620  1.8144 -0.5640
   88MOL0     H11879   1.207  10.953  10.101  1.8080  0.8595  3.5766
   88MOL0     H11880   0.995  10.937   9.963  2.9307 -1.3752  0.4250
   89MOL0     O11881   5.890   4.589   3.466  0.2249 -0.4096 -0.7388
   89MOL0     C11882   5.976   4.513   3.508  0.0964 -0.0867 -0.0027
   89MOL0     O11883   5.966   4.372   3.512  0.1752 -0.1060  0.4610
   89MOL0     C11884   5.836   4.330   3.502  0.2647 -0.3670  0.1056
   89MOL0     C11885   5.791   4.303   3.371 -0.7966 -0.2600  0.3782
   89MOL0     C11886   5.664   4.253   3.343  0.3750 -0.1592  0.2431
   89MOL0     C11887   5.582   4.237   3.456  1.2970  0.5541 -0.2896
   89MOL0     O11888   5.453   4.192   3.449 -0.0732  0.4089  0.7001
   89MOL0     C11889   5.392   4.152   3.325  0.9388  0.3124  0.0355
   89MOL0     C11890   5.233   4.136   3.356  0.5674  0.0542 -0.3416
   89MOL0     C11891   5.211   3.999   3.426  1.0997 -1.0004 -0.5229
   89MOL0     C11892   5.064   3.979   3.464 -0.2945  0.0461 -0.5216
   89MOL0     C11893   5.012   4.069   3.577  0.4147 -0.1333  1.1070
   89MOL0     C11894   4.880   4.010   3.637 -0.4017 -0.4136  0.2237
   89MOL0     C11895   4.746   4.043   3.555 -0.2603 -0.6185 -1.2633
   89MOL0     C11896   4.708   4.188   3.583 -1.0071  0.3530  0.6261
   89MOL0     N11897   4.575   4.218   3.538 -0.2331 -0.2190 -0.9611
   89MOL0     C11898   4.458   4.156   3.572  0.2643 -0.2946  0.6435
   89MOL0     C11899   4.363   4.202   3.482 -0.1517  0.0388  0.3005
   89MOL0     C11900   4.220   4.175   3.478 -0.1584  0.6944  0.4535
   89MOL0     C11901   4.149   4.281   3.568 -0.0102  0.5036  0.3096
   89MOL0     C11902   4.163   4.423   3.520  0.2130  0.0314  0.1181
   89MOL0     C11903   4.058   4.516   3.587 -0.6656  0.2773 -0.0908
   89MOL0     O11904   3.921   4.466   3.561 -0.1131  0.1651 -0.1937
   89MOL0     C11905   3.814   4.508   3.629  0.3418 -1.1021 -0.4964
   89MOL0     C11906   3.825   4.609   3.722  0.2195 -0.5921 -0.8383
   89MOL0     C11907   3.717   4.668   3.794  0.8730  0.3710 -0.6325
   89MOL0     C11908   3.738   4.778   3.889 -0.4143 -0.4297  0.2613
   89MOL0     C11909   3.583   4.625   3.761 -0.1482 -0.7416  0.0894
   89MOL0     C11910   3.462   4.664   3.824  1.1792  0.1741  1.2705
   89MOL0     O11911   3.350   4.581   3.798 -0.3543 -0.3263  0.7357
   89MOL0     C11912   3.226   4.609   3.855  0.0459  0.2636  0.5688
   89MOL0     C11913   3.120   4.553   3.786 -0.2346  0.6561 -0.2531
   89MOL0     C11914   2.991   4.590   3.825  0.0733  0.2670 -0.4190
   89MOL0     C11915   2.963   4.672   3.931 -0.1033 -0.2449 -0.0265
   89MOL0     O11916   2.830   4.704   3.952  0.2341  0.1798 -0.6080
   89MOL0     C11917   2.796   4.794   4.057 -0.7986 -0.6014 -0.0820
   89MOL0     C11918   2.642   4.805   4.070  0.3582  0.1793 -0.1041
   89MOL0     C11919   2.569   4.666   4.040  0.0460 -0.0298  0.2325
   89MOL0     C11920   2.419   4.684   4.032 -0.1827 -0.1280 -0.3955
   89MOL0     C11921   2.357   4.535   4.025 -0.4259  0.0604  0.2904
   89MOL0     C11922   2.207   4.538   3.988  0.2715  0.7415  0.2838
   89MOL0     C11923   2.143   4.407   4.033 -0.8301  0.1272 -0.1886
   89MOL0     C11924   2.202   4.283   3.978 -0.5055  0.5039 -0.0403
   89MOL0    Cl11925   2.106   4.133   4.001 -0.2573 -0.4006  0.0041
   89MOL0     C11926   3.065   4.729   4.004  0.0666  0.5211  0.2256
   89MOL0     C11927   3.196   4.691   3.971  0.2808  1.7592 -0.4918
   89MOL0     O11928   3.463   4.762   3.894  0.3105  0.3268  0.2195
   89MOL0     C11929   3.578   4.524   3.658  0.4614  0.0860 -0.8075
   89MOL0     C11930   3.690   4.462   3.601 -1.0778 -0.0270  0.2369
   89MOL0     N11931   4.432   4.301   3.404 -0.0215 -0.3420 -0.5182
   89MOL0     N11932   4.552   4.304   3.438  0.3304 -0.2906  0.2060
   89MOL0     C11933   5.624   4.282   3.579 -0.1735  0.4402  0.3261
   89MOL0     C11934   5.745   4.329   3.600 -0.7491 -1.0283 -0.3019
   89MOL0     C11935   6.107   4.574   3.559  0.2117  0.3101  1.0690
   89MOL0     C11936   6.227   4.495   3.564 -0.2536 -0.2055  0.9688
   89MOL0     C11937   6.357   4.551   3.575  0.3134 -0.8227  0.2396
   89MOL0     C11938   6.368   4.688   3.609  0.5396 -0.4645  0.2202
   89MOL0     O11939   6.485   4.748   3.637 -0.5850  0.1311  0.3104
   89MOL0     C11940   6.605   4.673   3.642 -0.1152 -0.7476  0.4639
   89MOL0     C11941   6.719   4.763   3.680  0.3034 -0.3200  0.0954
   89MOL0     C11942   6.858   4.699   3.650  0.9211  0.3181  0.3238
   89MOL0     C11943   6.976   4.796   3.649  0.0041 -0.2984  0.1737
   89MOL0     C11944   6.963   4.894   3.536  0.7121 -0.1960  0.0673
   89MOL0     C11945   6.946   4.979   3.449 -0.7932 -0.4818  0.4053
   89MOL0     C11946   6.248   4.766   3.613 -0.4457  0.3552  0.4001
   89MOL0     C11947   6.120   4.711   3.581  0.4080 -0.2655 -0.7140
   89MOL0     H11948   5.863   4.295   3.290 -1.0598 -0.8538  0.1936
   89MOL0     H11949   5.624   4.237   3.243  0.0258 -0.8764  0.4910
   89MOL0     H11950   5.407   4.235   3.255 -0.1825  0.8105  0.3778
   89MOL0     H11951   5.439   4.062   3.284 -1.7402 -1.2205  0.1314
   89MOL0     H11952   5.197   4.215   3.422 -0.4823 -1.0191  0.4178
   89MOL0     H11953   5.176   4.155   3.265  0.0934  0.1247 -0.0351
   89MOL0     H11954   5.243   3.919   3.358 -1.1766 -2.1358 -0.3725
   89MOL0     H11955   5.264   3.994   3.521 -2.8675 -3.3679  1.8796
   89MOL0     H11956   5.005   3.984   3.372  0.7117 -1.3371 -1.2888
   89MOL0     H11957   5.052   3.876   3.500 -1.0329  0.4816  0.5367
   89MOL0     H11958   5.089   4.080   3.653 -1.1462 -2.3566  3.1774
   89MOL0     H11959   4.996   4.167   3.531 -1.4549  0.6061  3.1352
   89MOL0     H11960   4.900   3.904   3.655  3.2294  0.5898  3.7333
   89MOL0     H11961   4.864   4.061   3.733 -0.3668  0.1932 -0.0919
   89MOL0     H11962   4.752   4.031   3.446 -1.2360  1.0415 -1.5273
   89MOL0     H11963   4.665   3.974   3.582  0.1567 -1.7562 -2.7730
   89MOL0     H11964   4.782   4.258   3.544  1.1981 -1.9525  0.4562
   89MOL0     H11965   4.711   4.207   3.691  0.1394 -0.2567  0.7095
   89MOL0     H11966   4.447   4.076   3.644 -1.1109 -0.5408  0.1878
   89MOL0     H11967   4.178   4.187   3.378  1.1012 -0.4282 -0.2570
   89MOL0     H11968   4.210   4.074   3.520  2.0751 -0.3002 -1.1564
   89MOL0     H11969   4.199   4.280   3.665  0.3458 -1.1152  0.1407
   89MOL0     H11970   4.044   4.250   3.572  0.6451 -1.7025  2.2231
   89MOL0     H11971   4.143   4.428   3.412 -1.9219  0.4759  0.4971
   89MOL0     H11972   4.263   4.455   3.549 -0.2670  1.7611 -0.0600
   89MOL0     H11973   4.061   4.612   3.536  1.0286 -0.0642 -0.7075
   89MOL0     H11974   4.085   4.523   3.693  0.5772 -1.5741 -0.2249
   89MOL0     H11975   3.923   4.652   3.740  0.5506  0.1173 -3.7999
   89MOL0     H11976   3.696   4.754   3.988 -1.5050  0.9375  0.1561
   89MOL0     H11977   3.844   4.796   3.907 -0.5602  0.2384  0.5004
   89MOL0     H11978   3.692   4.873   3.862 -1.5508 -1.4300 -1.4851
   89MOL0     H11979   3.137   4.490   3.699 -1.5538 -1.2253  0.7636
   89MOL0     H11980   2.907   4.557   3.765 -1.0333 -0.2849  1.3731
   89MOL0     H11981   2.835   4.763   4.154 -1.3460  1.3170  0.7897
   89MOL0     H11982   2.850   4.886   4.037 -1.7960  0.5302  2.0713
   89MOL0     H11983   2.610   4.833   4.170  0.3538 -1.7003  0.4415
   89MOL0     H11984   2.609   4.880   3.996 -1.4501 -2.0770 -1.7305
   89MOL0     H11985   2.593   4.601   4.124 -1.5175 -1.5038 -0.3780
   89MOL0     H11986   2.601   4.624   3.944  1.7527 -0.9444  1.1449
   89MOL0     H11987   2.394   4.743   4.121  2.9682 -0.0580  0.5592
   89MOL0     H11988   2.403   4.743   3.941  0.6277 -0.1543 -0.5615
   89MOL0     H11989   2.364   4.489   4.124 -1.3915  3.0594  1.8888
   89MOL0     H11990   2.403   4.475   3.946 -1.3661  0.3115 -0.4676
   89MOL0     H11991   2.163   4.626   4.035  3.7873  1.5884  2.3025
   89MOL0     H11992   2.200   4.544   3.879  0.7039 -3.1874 -0.1065
   89MOL0     H11993   2.037   4.413   4.011 -1.1936  0.9283  1.6035
   89MOL0     H11994   2.143   4.395   4.142 -0.3613 -3.7193 -0.4730
   89MOL0     H11995   2.306   4.264   4.006 -0.2516 -0.2164 -1.3876
   89MOL0     H11996   2.216   4.297   3.871  1.8649 -1.9644 -0.1731
   89MOL0     H11997   3.049   4.786   4.095 -0.8045 -1.1330  1.1772
   89MOL0     H11998   3.276   4.741   4.026 -0.0494  2.9411 -1.0411
   89MOL0     H11999   3.483   4.483   3.625  0.7979  0.3625 -2.1999
   89MOL0     H12000   3.678   4.386   3.525 -4.1113  1.7253 -1.2306
   89MOL0     H12001   5.552   4.264   3.659 -1.0237 -3.6726 -1.1594
   89MOL0     H12002   5.767   4.352   3.703 -0.2270 -1.5879 -0.2827
   89MOL0     H12003   6.219   4.388   3.545  2.1535 -0.3105  0.2985
   89MOL0     H12004   6.441   4.482   3.578  1.8616  0.9377 -0.7176
   89MOL0     H12005   6.604   4.598   3.722  0.1630 -0.8486  0.3731
   89MOL0     H12006   6.630   4.626   3.547 -3.6305 -0.5532 -0.7177
   89MOL0     H12007   6.723   4.797   3.784  2.1122  1.0510 -0.3596
   89MOL0     H12008   6.709   4.855   3.622  1.7491 -0.0390  0.2550
   89MOL0     H12009   6.855   4.654   3.551 -0.3011  0.2481  0.3798
   89MOL0     H12010   6.885   4.619   3.719 -1.3130  0.6442  1.6783
   89MOL0     H12011   7.066   4.738   3.629  0.1299  0.2347 -0.8862
   89MOL0     H12012   6.987   4.842   3.747 -0.9605 -1.6402  0.9378
   89MOL0     H12013   6.930   5.056   3.377  1.0936 -0.2603  0.1967
   89MOL0     H12014   6.260   4.872   3.630 -2.9957  0.5373  1.5975
   89MOL0     H12015   6.038   4.782   3.576 -1.2103 -1.8985  1.0518
   90MOL0     O12016   3.671  10.355   9.880  0.7262 -0.1096 -0.2999
   90MOL0     C12017   3.701  10.415   9.982  0.1623  0.3087 -1.0743
   90MOL0     O12018   3.624  10.424  10.097  0.2718 -0.1251  0.4851
   90MOL0     C12019   3.489  10.388  10.075  0.3755 -0.6376  1.0122
   90MOL0     C12020   3.412  10.461   9.984  0.0863 -0.2325 -0.4689
   90MOL0     C12021   3.277  10.417   9.967  0.7519  0.8781  0.8445
   90MOL0     C12022   3.232  10.296  10.023  0.5410 -0.2521 -0.0896
   90MOL0     O12023   3.102  10.265  10.007 -0.0402  0.0227 -0.8051
   90MOL0     C12024   3.024  10.249  10.128  0.1861  0.8188  0.3696
   90MOL0     C12025   2.907  10.160  10.096  0.5630 -0.6863 -0.2273
   90MOL0     C12026   2.810  10.129  10.216  0.2563 -0.0938 -0.3747
   90MOL0     C12027   2.674  10.085  10.151 -0.0739  0.3248 -0.5105
   90MOL0     C12028   2.573  10.038  10.261  0.2890 -1.1775 -0.0125
   90MOL0     C12029   2.460   9.970  10.187  0.3462  0.7426 -0.1305
   90MOL0     C12030   2.336   9.953  10.278 -1.6028 -0.5102  0.3477
   90MOL0     C12031   2.221   9.876  10.206  0.2023  0.5546  0.0134
   90MOL0     N12032   2.113   9.843  10.302  0.1710  0.4597  0.3635
   90MOL0     C12033   1.977   9.839  10.273 -0.0222  0.8103 -0.4088
   90MOL0     C12034   1.923   9.815  10.396  0.8797 -0.2316  0.3573
   90MOL0     C12035   1.778   9.803  10.414 -0.0726  0.2186 -0.5278
   90MOL0     C12036   1.717   9.702  10.321  1.1205  0.2107 -0.0235
   90MOL0     C12037   1.609   9.606  10.396 -0.7737 -0.2742  0.2966
   90MOL0     C12038   1.484   9.679  10.422 -0.4442  0.4954  0.0156
   90MOL0     O12039   1.399   9.588  10.481  0.5924 -0.5868 -0.4517
   90MOL0     C12040   1.279   9.640  10.515 -1.1791 -1.4602  0.1067
   90MOL0     C12041   1.225   9.767  10.472 -0.4963  0.9955  0.6553
   90MOL0     C12042   1.092   9.795  10.503 -0.8453 -0.2957  0.2232
   90MOL0     C12043   1.036   9.926  10.461  0.4597  0.1627  0.0880
   90MOL0     C12044   1.020   9.714  10.595  0.6094  0.2647 -0.0666
   90MOL0     C12045   0.883   9.745  10.636  0.4836  0.9352  0.1085
   90MOL0     O12046   0.849   9.872  10.682 -0.3073  0.1066  0.0066
   90MOL0     C12047   0.719   9.900  10.681  0.0444  0.5265 -0.8557
   90MOL0     C12048   0.635   9.848  10.777 -1.2455  0.6345  0.1540
   90MOL0     C12049   0.502   9.877  10.773  0.6495  0.7110  0.6200
   90MOL0     C12050   0.443   9.964  10.683 -0.7316 -0.0232  0.0729
   90MOL0     O12051   0.310  10.015  10.686 -0.5153  0.2814  0.3364
   90MOL0     C12052   0.218   9.960  10.779 -0.4325 -0.4844 -0.4373
   90MOL0     C12053   0.084  10.022  10.763 -0.2029 -0.3348 -0.2783
   90MOL0     C12054   0.102  10.176  10.795  0.0050  0.2858  0.2378
   90MOL0     C12055  -0.041  10.236  10.801 -0.1097  0.5822 -0.3516
   90MOL0     C12056  -0.097  10.230  10.945 -0.2834  0.6043 -0.7422
   90MOL0     C12057  -0.246  10.268  10.943 -0.0092 -0.0593  0.6405
   90MOL0     C12058  -0.298  10.290  11.081  0.3748 -0.3705  0.2358
   90MOL0     C12059  -0.436  10.347  11.077  1.1920  0.1964  1.3701
   90MOL0    Cl12060  -0.501  10.335  11.245  0.2571  0.3345 -0.0929
   90MOL0     C12061   0.532  10.022  10.593 -0.2836  0.5452  0.3530
   90MOL0     C12062   0.667   9.988  10.581  0.3057  0.6405 -1.1515
   90MOL0     O12063   0.806   9.649  10.625 -0.3247 -0.1725 -0.0835
   90MOL0     C12064   1.070   9.587  10.633 -0.7153  0.1342  0.6049
   90MOL0     C12065   1.197   9.555  10.584  0.4865 -0.6007  0.2809
   90MOL0     N12066   2.024   9.791  10.488 -2.0184  1.1043 -0.2458
   90MOL0     N12067   2.135   9.821  10.427  1.4595 -0.0673 -0.6582
   90MOL0     C12068   3.316  10.221  10.096  0.3204  0.5889  0.5459
   90MOL0     C12069   3.439  10.270  10.129  0.2906  0.4708  0.1553
   90MOL0     C12070   3.829  10.477   9.993  0.2195 -0.0964 -0.2039
   90MOL0     C12071   3.930  10.466   9.900  0.0626 -0.0343  0.3565
   90MOL0     C12072   4.053  10.542   9.909  0.1259  0.1226  0.9654
   90MOL0     C12073   4.082  10.625  10.018  0.5320 -0.5346  0.5019
   90MOL0     O12074   4.203  10.690  10.032 -0.9152 -0.0082  0.5479
   90MOL0     C12075   4.228  10.784   9.922 -1.0683  0.0871  0.6932
   90MOL0     C12076   4.340  10.883   9.954  0.0829  0.1668  0.1280
   90MOL0     C12077   4.321  10.962  10.092 -0.5341 -0.9165  0.6842
   90MOL0     C12078   4.452  11.047  10.108 -0.1150  0.4946 -0.3802
   90MOL0     C12079   4.459  11.151  10.003 -0.3859 -0.4393  0.0626
   90MOL0     C12080   4.466  11.210   9.897  0.0888  0.0893 -0.0110
   90MOL0     C12081   3.986  10.638  10.121  0.0255  0.1679  0.6133
   90MOL0     C12082   3.857  10.571  10.098 -0.4650 -1.2158 -0.4542
   90MOL0     H12083   3.441  10.558   9.948  1.2419  0.0511  1.1243
   90MOL0     H12084   3.209  10.489   9.922 -1.3601 -1.8463 -0.6469
   90MOL0     H12085   3.084  10.215  10.212 -1.6231 -1.8838  0.6657
   90MOL0     H12086   2.978  10.346  10.151 -0.7115  0.3809  0.4436
   90MOL0     H12087   2.844  10.207  10.020 -0.5921 -1.5537  0.1665
   90MOL0     H12088   2.949  10.070  10.052 -0.1626 -2.0894  1.8037
   90MOL0     H12089   2.851  10.055  10.287  0.3025  0.1976 -0.0961
   90MOL0     H12090   2.792  10.221  10.271  1.0674 -0.6624  0.9016
   90MOL0     H12091   2.638  10.165  10.085 -0.5265  1.7118  1.3530
   90MOL0     H12092   2.700  10.000  10.086 -1.0795 -1.3737  1.2263
   90MOL0     H12093   2.628   9.973  10.330  1.0618  1.3538  1.8875
   90MOL0     H12094   2.536  10.128  10.311  0.1758 -1.3718  0.2533
   90MOL0     H12095   2.425  10.028  10.101  0.7519 -0.3269 -1.0416
   90MOL0     H12096   2.506   9.876  10.155  2.3995  0.8954  2.1325
   90MOL0     H12097   2.366   9.900  10.369 -1.0072 -0.3529  0.2437
   90MOL0     H12098   2.295  10.052  10.299 -1.0161 -0.1933 -0.0027
   90MOL0     H12099   2.255   9.793  10.143 -2.1498  0.6803 -1.5672
   90MOL0     H12100   2.183   9.948  10.133 -0.6830 -1.0096 -1.1460
   90MOL0     H12101   1.914   9.849  10.185 -1.6422 -1.3404  0.4205
   90MOL0     H12102   1.770   9.770  10.518  1.5908  1.5191  0.0721
   90MOL0     H12103   1.731   9.902  10.402 -0.2613  0.4220  1.5664
   90MOL0     H12104   1.801   9.641  10.283  3.3642  2.2110  1.4463
   90MOL0     H12105   1.679   9.753  10.232  5.0182  3.3459 -0.2043
   90MOL0     H12106   1.645   9.562  10.489 -3.0845 -1.6748  0.6061
   90MOL0     H12107   1.582   9.530  10.322 -0.9748 -0.2435  0.3391
   90MOL0     H12108   1.447   9.705  10.322  0.0070 -1.5610 -0.7421
   90MOL0     H12109   1.498   9.766  10.486  0.6175  1.9590 -2.0583
   90MOL0     H12110   1.278   9.846  10.420 -1.0808  1.2294  0.4178
   90MOL0     H12111   1.092   9.986  10.388  2.9363 -0.7750  1.1159
   90MOL0     H12112   0.937   9.910  10.415  1.7234 -0.4280 -2.6782
   90MOL0     H12113   1.025   9.985  10.552 -0.2226 -0.3827  0.3701
   90MOL0     H12114   0.686   9.783  10.847  0.9626  1.2847 -0.7797
   90MOL0     H12115   0.441   9.825  10.846 -0.3499 -1.2581 -1.4968
   90MOL0     H12116   0.222   9.852  10.762 -1.4174 -0.5784 -0.1482
   90MOL0     H12117   0.243   9.977  10.883  2.0456  3.2460 -1.4522
   90MOL0     H12118   0.050  10.007  10.660 -2.8210 -1.0710  0.6171
   90MOL0     H12119   0.009   9.985  10.834 -0.7499  1.7632  0.2816
   90MOL0     H12120   0.144  10.220  10.703  0.7042 -2.7705 -1.0156
   90MOL0     H12121   0.156  10.205  10.885 -0.3234  0.3524  0.4144
   90MOL0     H12122  -0.042  10.341  10.773 -0.9464  0.5053 -0.6310
   90MOL0     H12123  -0.115  10.187  10.737 -4.2737  1.8454  2.9973
   90MOL0     H12124  -0.045  10.304  11.006 -0.0470 -0.2891  0.1682
   90MOL0     H12125  -0.077  10.133  10.993  2.7072  0.1649 -2.6158
   90MOL0     H12126  -0.277  10.357  10.887 -0.3142 -0.0814  0.7710
   90MOL0     H12127  -0.307  10.186  10.903 -1.2956  1.2149 -0.1252
   90MOL0     H12128  -0.225  10.356  11.129 -1.3727  0.4464  1.9415
   90MOL0     H12129  -0.299  10.198  11.139 -0.0719  0.0826  0.9759
   90MOL0     H12130  -0.495  10.275  11.019  1.1677 -0.0935  1.7482
   90MOL0     H12131  -0.450  10.446  11.031 -1.7197 -0.1209  1.3575
   90MOL0     H12132   0.488  10.092  10.522  1.2494 -0.8097 -2.0793
   90MOL0     H12133   0.733  10.038  10.511 -0.4600 -0.8548 -3.0440
   90MOL0     H12134   1.016   9.517  10.696 -1.6649  0.3903  0.1031
   90MOL0     H12135   1.225   9.450  10.593 -0.0322 -0.6518  1.6520
   90MOL0     H12136   3.275  10.131  10.140 -2.1547  2.1742  1.7486
   90MOL0     H12137   3.504  10.217  10.197 -0.0073 -0.5382 -0.3313
   90MOL0     H12138   3.919  10.409   9.808 -1.0150  0.7558 -0.0312
   90MOL0     H12139   4.126  10.540   9.828 -1.4639  0.2245 -0.5315
   90MOL0     H12140   4.259  10.737   9.828 -1.9528 -2.5275  1.6206
   90MOL0     H12141   4.135  10.839   9.907 -1.3324 -1.1412 -3.3410
   90MOL0     H12142   4.349  10.948   9.866 -1.4032 -2.0564 -1.7817
   90MOL0     H12143   4.430  10.822   9.954 -1.7359 -2.8039  2.4458
   90MOL0     H12144   4.312  10.894  10.177  0.2710 -2.2717 -0.2725
   90MOL0     H12145   4.225  11.014  10.093 -1.2174 -2.1253  0.6483
   90MOL0     H12146   4.532  10.973  10.104 -1.4941 -1.0760 -0.2544
   90MOL0     H12147   4.454  11.104  10.202  1.3501  0.5603 -0.4339
   90MOL0     H12148   4.475  11.254   9.800 -2.4205  1.0282  0.1225
   90MOL0     H12149   4.012  10.692  10.211  0.5164 -0.5228  0.8937
   90MOL0     H12150   3.785  10.589  10.177  2.0434  0.8336  1.5533
   91MOL0     O12151  10.563   7.207   2.042 -0.2327 -0.1358 -0.3020
   91MOL0     C12152  10.637   7.139   1.974  0.5239  0.3924  0.1193
   91MOL0     O12153  10.596   7.066   1.867  0.1101 -0.2390 -0.6133
   91MOL0     C12154  10.468   7.049   1.828 -0.3460 -0.3709  0.4311
   91MOL0     C12155  10.369   7.147   1.831 -0.3267  0.1614 -0.0793
   91MOL0     C12156  10.240   7.112   1.771  0.0540 -0.3823  1.4041
   91MOL0     C12157  10.214   6.985   1.720  0.5021 -0.3555 -0.6997
   91MOL0     O12158  10.081   6.967   1.670 -0.5318 -0.6457 -0.5772
   91MOL0     C12159  10.057   6.835   1.621 -0.6438 -0.1389  0.2339
   91MOL0     C12160  10.039   6.740   1.739  0.1321  0.3127  0.1658
   91MOL0     C12161  10.012   6.593   1.677 -0.4709 -0.4784  0.0476
   91MOL0     C12162  10.142   6.520   1.656 -0.0306 -0.4814  0.5412
   91MOL0     C12163  10.172   6.502   1.501  0.3043  0.7447  1.1126
   91MOL0     C12164  10.305   6.432   1.475 -0.7008 -0.1073 -0.5650
   91MOL0     C12165  10.426   6.515   1.523 -0.5350  0.1391  0.0550
   91MOL0     C12166  10.559   6.452   1.468 -0.0457  0.1318  0.8210
   91MOL0     N12167  10.679   6.520   1.511 -0.5032 -0.4192  0.1413
   91MOL0     C12168  10.742   6.625   1.452 -0.0734  0.5318 -0.0215
   91MOL0     C12169  10.842   6.653   1.541 -0.2968 -0.8298 -0.6439
   91MOL0     C12170  10.931   6.771   1.509 -0.2858 -0.4804 -0.0405
   91MOL0     C12171  10.905   6.892   1.612 -0.0509 -0.1905 -0.2668
   91MOL0     C12172  10.825   7.005   1.546 -0.3270 -1.0653  0.1995
   91MOL0     C12173  10.694   6.965   1.481  0.0639 -0.0820  0.0411
   91MOL0     O12174  10.609   7.078   1.471 -0.7495 -0.3740 -0.0765
   91MOL0     C12175  10.484   7.049   1.440  0.2969  0.6209  0.2301
   91MOL0     C12176  10.435   6.943   1.358 -0.8372  0.4732  0.7385
   91MOL0     C12177  10.301   6.938   1.310  0.1650 -0.0548 -0.4473
   91MOL0     C12178  10.269   6.825   1.224 -0.1905 -0.5324  0.0139
   91MOL0     C12179  10.210   7.042   1.341 -0.5751 -1.1475  0.0702
   91MOL0     C12180  10.065   7.048   1.312  0.1862  0.2720  0.5117
   91MOL0     O12181   9.987   7.141   1.359  0.5897 -0.0143  0.7260
   91MOL0     C12182   9.865   7.166   1.292 -0.7873  0.0967 -0.5220
   91MOL0     C12183   9.753   7.090   1.331  0.1473 -0.0603  0.1431
   91MOL0     C12184   9.631   7.113   1.264  0.1464  0.1346  0.6498
   91MOL0     C12185   9.615   7.211   1.168  0.5434  0.3513 -0.2074
   91MOL0     O12186   9.494   7.219   1.094 -0.3498 -0.3055  0.8842
   91MOL0     C12187   9.480   7.313   0.980  0.4108 -0.3958  0.6456
   91MOL0     C12188   9.372   7.278   0.878 -0.6577 -0.3715 -0.4883
   91MOL0     C12189   9.254   7.205   0.931  0.6019  0.5046 -0.2926
   91MOL0     C12190   9.153   7.173   0.821  0.4071 -0.0549 -0.1986
   91MOL0     C12191   9.039   7.074   0.852 -0.1107 -0.2972 -0.4112
   91MOL0     C12192   8.940   7.040   0.743  0.7253  0.4878 -0.4658
   91MOL0     C12193   8.855   6.926   0.802  0.8165  0.3731 -0.1040
   91MOL0     C12194   8.748   6.863   0.709 -0.2316 -0.3827  0.1873
   91MOL0    Cl12195   8.628   6.759   0.801  0.0969 -0.1000  0.1773
   91MOL0     C12196   9.716   7.306   1.151 -0.6002 -0.3340  0.4710
   91MOL0     C12197   9.841   7.280   1.217  0.3128 -0.0632 -0.4982
   91MOL0     O12198  10.019   6.942   1.258  0.2868  0.5988 -0.3182
   91MOL0     C12199  10.261   7.142   1.436  0.3063  0.1789 -0.5011
   91MOL0     C12200  10.392   7.142   1.480  0.0792 -0.2349 -0.2431
   91MOL0     N12201  10.845   6.553   1.644 -0.4586 -0.5820  0.6917
   91MOL0     N12202  10.735   6.484   1.633  0.3779 -0.4139 -0.4900
   91MOL0     C12203  10.317   6.893   1.726  0.3398  0.5845 -0.4592
   91MOL0     C12204  10.438   6.926   1.775  0.0193  0.1907  0.2508
   91MOL0     C12205  10.769   7.140   2.022  0.3476  0.0473 -0.2062
   91MOL0     C12206  10.860   7.067   1.946  0.1502  0.2752 -0.0045
   91MOL0     C12207  10.991   7.056   1.982  0.0742  0.0899 -0.0753
   91MOL0     C12208  11.034   7.126   2.094  0.3563  0.1292 -0.5113
   91MOL0     O12209  11.162   7.113   2.129 -0.1029  0.7109  0.0242
   91MOL0     C12210  11.222   7.186   2.232 -0.3600 -0.4928 -0.8489
   91MOL0     C12211  11.364   7.135   2.267  0.3698 -0.0583  0.2955
   91MOL0     C12212  11.457   7.106   2.146  0.7197 -0.2178  0.3990
   91MOL0     C12213  11.593   7.053   2.187 -0.5315 -0.0585 -0.3108
   91MOL0     C12214  11.586   6.915   2.246  0.1719  0.9383 -0.0942
   91MOL0     C12215  11.582   6.802   2.295 -0.4783 -0.4756 -0.4375
   91MOL0     C12216  10.944   7.196   2.177  0.3419 -0.4407  0.2152
   91MOL0     C12217  10.804   7.206   2.142  0.0039 -0.0992 -0.5157
   91MOL0     H12218  10.393   7.245   1.869  2.1369  0.0370 -1.1631
   91MOL0     H12219  10.163   7.188   1.765 -1.6622 -2.1645 -0.5980
   91MOL0     H12220   9.966   6.830   1.560  1.2527 -1.0591 -2.6998
   91MOL0     H12221  10.146   6.798   1.570 -0.6870 -1.5480  1.1170
   91MOL0     H12222  10.125   6.747   1.806  0.5035  1.8860 -0.4255
   91MOL0     H12223   9.952   6.766   1.799 -0.1343 -0.1969  0.0064
   91MOL0     H12224   9.946   6.530   1.738 -0.4132 -1.4632 -0.8786
   91MOL0     H12225   9.953   6.613   1.587  0.3716 -1.3006 -0.7031
   91MOL0     H12226  10.231   6.568   1.699 -0.1955  0.4420 -0.1111
   91MOL0     H12227  10.144   6.422   1.704 -2.6724  0.1441  2.1465
   91MOL0     H12228  10.091   6.439   1.464 -0.2254 -0.2455  3.7299
   91MOL0     H12229  10.169   6.601   1.454  0.9244  1.6498  2.8503
   91MOL0     H12230  10.300   6.337   1.529 -0.2788 -0.3530 -0.9516
   91MOL0     H12231  10.321   6.417   1.368  0.3324  1.9845 -0.7487
   91MOL0     H12232  10.430   6.617   1.484  2.6522 -1.0489 -3.2296
   91MOL0     H12233  10.440   6.520   1.632  0.3276 -1.0825  0.0152
   91MOL0     H12234  10.548   6.457   1.359 -0.2233  1.2577  0.8787
   91MOL0     H12235  10.570   6.345   1.492  2.9939  0.0947 -0.3291
   91MOL0     H12236  10.730   6.669   1.354 -0.6937 -1.8164 -1.0658
   91MOL0     H12237  11.032   6.731   1.510  0.2442  0.7033 -1.6706
   91MOL0     H12238  10.925   6.801   1.404  3.2866 -1.1301 -0.5435
   91MOL0     H12239  10.998   6.933   1.654 -0.3438 -0.6457  0.8719
   91MOL0     H12240  10.850   6.848   1.695 -1.2550 -2.4794 -2.1544
   91MOL0     H12241  10.890   7.068   1.484 -0.4407  0.0941  1.2051
   91MOL0     H12242  10.804   7.079   1.624 -0.3180 -1.0134  0.1536
   91MOL0     H12243  10.652   6.898   1.557  2.2831 -1.0388  0.5092
   91MOL0     H12244  10.711   6.931   1.379 -0.3929  1.0015 -0.4031
   91MOL0     H12245  10.512   6.872   1.330 -2.0084 -0.6076  0.1954
   91MOL0     H12246  10.363   6.782   1.189  0.9349  1.7160  0.1152
   91MOL0     H12247  10.205   6.748   1.267 -3.7103  1.0001 -2.0434
   91MOL0     H12248  10.217   6.859   1.134  0.3279  2.4727  0.7479
   91MOL0     H12249   9.761   7.012   1.406 -1.9361 -1.0755 -0.6068
   91MOL0     H12250   9.538   7.059   1.277 -1.1697  1.5804 -1.9290
   91MOL0     H12251   9.450   7.408   1.025  4.3539  1.3615 -0.0070
   91MOL0     H12252   9.573   7.335   0.927 -0.5704 -2.4244 -2.2044
   91MOL0     H12253   9.339   7.373   0.835  0.8770 -0.4733 -2.0172
   91MOL0     H12254   9.423   7.219   0.801  0.8810 -0.4048  0.5123
   91MOL0     H12255   9.204   7.275   0.998  2.4276  3.0620 -1.4326
   91MOL0     H12256   9.283   7.112   0.981 -2.0373  0.5222  1.4789
   91MOL0     H12257   9.111   7.269   0.788  0.7187  0.2128  0.1746
   91MOL0     H12258   9.212   7.136   0.736  0.8930  1.6405 -0.6447
   91MOL0     H12259   8.983   7.119   0.936  1.6399  2.2885 -0.5209
   91MOL0     H12260   9.084   6.983   0.892  4.5702  1.6488 -0.6163
   91MOL0     H12261   8.872   7.120   0.712 -0.4649 -1.1286 -2.2645
   91MOL0     H12262   8.999   6.998   0.661  1.1107 -1.8293  0.8965
   91MOL0     H12263   8.806   6.957   0.895 -2.7380  0.4844 -1.8367
   91MOL0     H12264   8.926   6.845   0.820 -1.7338 -1.8919  0.6096
   91MOL0     H12265   8.802   6.798   0.640 -1.9922  0.0412 -1.6731
   91MOL0     H12266   8.692   6.929   0.643  1.1673  0.4033 -0.2615
   91MOL0     H12267   9.704   7.394   1.088 -0.2596  0.4827  1.5297
   91MOL0     H12268   9.916   7.357   1.204 -1.1814  1.2991 -1.4644
   91MOL0     H12269  10.202   7.222   1.479  1.8611  1.0302  0.1478
   91MOL0     H12270  10.421   7.233   1.533 -1.2351 -1.4912  2.8525
   91MOL0     H12271  10.300   6.793   1.689 -1.9667 -0.0530  2.0165
   91MOL0     H12272  10.522   6.857   1.773  2.9930  3.4793  1.4116
   91MOL0     H12273  10.834   7.005   1.861  1.5968  0.9401 -0.9789
   91MOL0     H12274  11.052   6.996   1.915 -1.7758  0.8993 -2.6494
   91MOL0     H12275  11.231   7.285   2.186  0.3140  1.0053  2.2178
   91MOL0     H12276  11.161   7.193   2.322  0.9474 -0.6425  0.0850
   91MOL0     H12277  11.349   7.046   2.328 -1.6427 -1.2146 -1.7479
   91MOL0     H12278  11.417   7.205   2.331  0.5179 -1.1626  1.4098
   91MOL0     H12279  11.471   7.200   2.093 -0.8718  0.8673  1.7947
   91MOL0     H12280  11.404   7.041   2.076  0.8128  0.7648 -0.6095
   91MOL0     H12281  11.641   7.136   2.241 -3.0998  1.4434 -0.2090
   91MOL0     H12282  11.653   7.035   2.097 -0.4858  1.1402 -0.5363
   91MOL0     H12283  11.582   6.700   2.330  1.1037 -0.1015  0.7501
   91MOL0     H12284  10.973   7.246   2.269 -2.2395  0.6917  0.5094
   91MOL0     H12285  10.727   7.267   2.187 -0.2593 -0.0895 -0.9699
   92MOL0     O12286   7.260   2.635   6.708 -0.3976  0.1768 -0.0019
   92MOL0     C12287   7.249   2.677   6.827 -0.6127 -0.4079  0.8959
   92MOL0     O12288   7.137   2.652   6.899  0.0412  0.1135 -0.9069
   92MOL0     C12289   7.013   2.611   6.846 -0.6648  0.8705  0.0631
   92MOL0     C12290   7.000   2.489   6.762 -0.4336 -0.0439  0.9411
   92MOL0     C12291   6.882   2.461   6.703 -1.1669 -0.6635 -0.8544
   92MOL0     C12292   6.768   2.538   6.727  0.1763  0.3663 -0.3968
   92MOL0     O12293   6.647   2.502   6.669 -0.6914 -1.1093  0.0018
   92MOL0     C12294   6.523   2.527   6.736 -0.4230 -0.5251 -0.4889
   92MOL0     C12295   6.414   2.468   6.640 -0.5441 -0.1626 -0.2595
   92MOL0     C12296   6.273   2.478   6.705 -0.4229 -0.6264 -0.3020
   92MOL0     C12297   6.165   2.392   6.641 -0.2008 -0.3870  0.5332
   92MOL0     C12298   6.025   2.405   6.703 -0.0159  0.7050 -0.5916
   92MOL0     C12299   6.018   2.340   6.843 -0.6504 -0.0928 -0.1020
   92MOL0     C12300   5.879   2.338   6.903  0.4149 -0.1928  0.3026
   92MOL0     C12301   5.831   2.480   6.925 -0.4688  0.2194  0.2761
   92MOL0     N12302   5.705   2.478   6.998  0.3404 -1.0021  0.0391
   92MOL0     C12303   5.588   2.452   6.924 -1.1853 -0.0127 -0.0595
   92MOL0     C12304   5.491   2.471   7.018  0.4323  0.0573 -0.1450
   92MOL0     C12305   5.335   2.479   7.004 -0.4343  0.3802  0.2368
   92MOL0     C12306   5.287   2.612   6.942  0.1051 -0.0667  0.5442
   92MOL0     C12307   5.131   2.623   6.929  0.8340  0.4321  0.3241
   92MOL0     C12308   5.093   2.759   6.876  0.3489  0.4011  0.1266
   92MOL0     O12309   4.954   2.775   6.926 -0.1067  0.5348 -0.3903
   92MOL0     C12310   4.852   2.742   6.845  0.5484 -0.0414 -1.6092
   92MOL0     C12311   4.857   2.718   6.712  0.0536 -0.0640  0.1343
   92MOL0     C12312   4.741   2.689   6.638 -0.2109 -0.7106  0.5911
   92MOL0     C12313   4.769   2.644   6.488  0.5250  0.2496  0.4409
   92MOL0     C12314   4.618   2.677   6.703  0.5946 -0.4058  0.0202
   92MOL0     C12315   4.495   2.654   6.632 -1.3925 -0.4729 -0.0416
   92MOL0     O12316   4.393   2.593   6.706  0.1229 -0.4361  0.2499
   92MOL0     C12317   4.282   2.534   6.647  0.1146  0.2164  1.0838
   92MOL0     C12318   4.162   2.530   6.716  0.3589 -0.7069 -0.1793
   92MOL0     C12319   4.048   2.460   6.667  0.2925 -0.5606 -0.7427
   92MOL0     C12320   4.069   2.385   6.547 -0.3256 -0.5304  0.8639
   92MOL0     O12321   3.953   2.324   6.502  0.1333 -0.5531 -0.1224
   92MOL0     C12322   3.960   2.208   6.415 -0.0849  0.5553 -0.9463
   92MOL0     C12323   3.821   2.204   6.351  0.6456 -0.2485 -0.2252
   92MOL0     C12324   3.802   2.092   6.258  0.1152  0.5276 -0.1341
   92MOL0     C12325   3.649   2.078   6.208 -0.8259  0.1799  0.3413
   92MOL0     C12326   3.594   1.936   6.225 -0.3858 -1.2512 -0.0135
   92MOL0     C12327   3.458   1.917   6.164  0.3496  0.6681  0.0089
   92MOL0     C12328   3.425   1.769   6.129  0.8835  0.3827 -0.1680
   92MOL0     C12329   3.279   1.765   6.097  0.8749 -0.6615 -0.3910
   92MOL0    Cl12330   3.239   1.836   5.933 -0.5456  0.0298  0.0083
   92MOL0     C12331   4.187   2.386   6.474 -0.3914  0.6844  0.8675
   92MOL0     C12332   4.300   2.461   6.530  0.4319  0.2108  0.2653
   92MOL0     O12333   4.485   2.709   6.522  0.0146 -0.5004 -0.3816
   92MOL0     C12334   4.612   2.697   6.845  0.0126 -0.2544  0.2880
   92MOL0     C12335   4.731   2.730   6.912  0.3386 -0.0918 -0.3222
   92MOL0     N12336   5.552   2.509   7.140  0.2122 -0.5243  0.3516
   92MOL0     N12337   5.678   2.520   7.125  0.4107  0.4376 -0.1112
   92MOL0     C12338   6.772   2.644   6.818 -1.3466  0.8583  0.2100
   92MOL0     C12339   6.899   2.687   6.870 -0.1271  0.1301 -0.7819
   92MOL0     C12340   7.363   2.736   6.898  0.5222  0.9713 -0.0806
   92MOL0     C12341   7.341   2.812   7.013 -0.0847  0.2658  0.1909
   92MOL0     C12342   7.451   2.849   7.096 -0.6641  0.5522  0.7642
   92MOL0     C12343   7.585   2.821   7.048 -0.1974 -0.2176  0.2024
   92MOL0     O12344   7.692   2.873   7.115 -0.2270 -0.3418 -0.2181
   92MOL0     C12345   7.821   2.867   7.060  0.1628  0.5922  0.1745
   92MOL0     C12346   7.923   2.952   7.135  0.2690  0.2200 -0.1926
   92MOL0     C12347   7.937   2.918   7.287 -0.6494  0.2352  0.1339
   92MOL0     C12348   8.040   3.011   7.350 -0.7877 -0.0281 -0.1917
   92MOL0     C12349   8.173   3.011   7.291 -0.7094 -0.1518 -0.8643
   92MOL0     C12350   8.281   3.018   7.240  0.0577 -0.4893 -0.4650
   92MOL0     C12351   7.603   2.743   6.934 -0.1569  1.1773  0.4127
   92MOL0     C12352   7.494   2.692   6.867 -0.7048 -0.0739 -0.6918
   92MOL0     H12353   7.087   2.426   6.741  0.5459  0.8099  2.2517
   92MOL0     H12354   6.877   2.386   6.625  2.6836 -0.3955 -1.5116
   92MOL0     H12355   6.511   2.472   6.830 -2.2761 -0.8467 -0.8847
   92MOL0     H12356   6.502   2.631   6.763  1.5509 -0.5338  1.3903
   92MOL0     H12357   6.409   2.529   6.549 -1.5417  2.2779  1.3541
   92MOL0     H12358   6.434   2.362   6.620 -1.4010 -0.6371  1.2613
   92MOL0     H12359   6.279   2.442   6.808 -0.3415  1.8525  0.6340
   92MOL0     H12360   6.249   2.584   6.714  1.7242 -0.2617  2.5073
   92MOL0     H12361   6.150   2.426   6.537  0.7556 -0.1311  0.4716
   92MOL0     H12362   6.188   2.286   6.633 -2.0293 -0.7870  0.1898
   92MOL0     H12363   6.006   2.513   6.696  0.7998  0.7844 -2.0842
   92MOL0     H12364   5.950   2.353   6.644  1.4534 -0.9167 -1.1259
   92MOL0     H12365   6.046   2.235   6.837 -2.9033 -0.7878  0.3815
   92MOL0     H12366   6.082   2.387   6.918  0.6019 -1.0753 -0.5186
   92MOL0     H12367   5.812   2.270   6.849 -1.3346  1.6057  0.0957
   92MOL0     H12368   5.895   2.300   7.004  1.8256 -1.1715 -0.2525
   92MOL0     H12369   5.814   2.536   6.832 -3.5182  1.1998  1.3119
   92MOL0     H12370   5.903   2.539   6.983  0.6182 -0.4774 -0.3310
   92MOL0     H12371   5.577   2.434   6.818 -1.6570  0.4372 -0.0890
   92MOL0     H12372   5.297   2.402   6.935 -1.2833 -0.4369  1.5786
   92MOL0     H12373   5.282   2.458   7.097 -2.2533 -1.0806 -1.0423
   92MOL0     H12374   5.332   2.623   6.843  0.9437  0.3997  0.9675
   92MOL0     H12375   5.320   2.688   7.013  2.9569 -0.9234  0.2458
   92MOL0     H12376   5.075   2.605   7.021  1.4273  1.7439  0.9635
   92MOL0     H12377   5.097   2.541   6.865 -2.8247  0.7782  1.6244
   92MOL0     H12378   5.111   2.777   6.769 -0.0976 -1.2112 -0.2447
   92MOL0     H12379   5.152   2.835   6.927  1.9248  0.3391 -1.4950
   92MOL0     H12380   4.954   2.718   6.662 -1.2932  1.9335 -2.7745
   92MOL0     H12381   4.730   2.725   6.426 -1.9816 -0.1590  1.3612
   92MOL0     H12382   4.873   2.637   6.454  0.0769  2.5657 -1.7231
   92MOL0     H12383   4.714   2.551   6.472  0.7884 -0.7458  4.3679
   92MOL0     H12384   4.148   2.582   6.811 -1.3511 -0.0594 -0.7534
   92MOL0     H12385   3.956   2.446   6.724  0.1198 -1.6858 -1.2683
   92MOL0     H12386   4.034   2.213   6.334  0.4463 -3.2387 -0.9017
   92MOL0     H12387   3.972   2.114   6.471 -2.3434 -0.3171 -1.8242
   92MOL0     H12388   3.740   2.188   6.424 -0.7413 -1.1393 -1.9026
   92MOL0     H12389   3.804   2.295   6.293  2.4307  0.1509 -0.1613
   92MOL0     H12390   3.835   2.005   6.315  2.8525  1.4518 -0.1551
   92MOL0     H12391   3.879   2.089   6.179 -0.4315 -3.5509 -0.7193
   92MOL0     H12392   3.582   2.140   6.268 -3.4508 -1.1824 -0.9838
   92MOL0     H12393   3.639   2.117   6.107 -4.9217 -0.0690  0.4683
   92MOL0     H12394   3.591   1.908   6.331 -1.4721 -2.1231 -0.2510
   92MOL0     H12395   3.667   1.870   6.177  1.6560  0.7843  0.1539
   92MOL0     H12396   3.374   1.949   6.226 -1.5367 -0.9770 -1.5656
   92MOL0     H12397   3.453   1.971   6.068 -2.4749  1.7205  0.6668
   92MOL0     H12398   3.446   1.705   6.215 -0.1214  1.1360  0.6713
   92MOL0     H12399   3.478   1.743   6.037  0.8282  2.6812 -0.9217
   92MOL0     H12400   3.210   1.809   6.170  1.6366 -0.6804  0.3633
   92MOL0     H12401   3.238   1.664   6.106 -3.3960  1.0271  1.7867
   92MOL0     H12402   4.202   2.321   6.388  2.4306  1.3159  0.7806
   92MOL0     H12403   4.392   2.462   6.473  1.4430 -1.6426  1.7663
   92MOL0     H12404   4.520   2.695   6.903 -0.1743 -0.4748 -0.0150
   92MOL0     H12405   4.735   2.729   7.021  0.7335  2.0930 -0.2792
   92MOL0     H12406   6.685   2.702   6.850 -1.4678  0.9381 -0.2556
   92MOL0     H12407   6.907   2.775   6.933 -0.1163  1.0077 -1.9562
   92MOL0     H12408   7.243   2.847   7.042  0.4484  1.8797  0.1521
   92MOL0     H12409   7.438   2.885   7.197 -0.5818 -2.0532  1.7736
   92MOL0     H12410   7.862   2.766   7.055  0.1046  0.2795  3.4125
   92MOL0     H12411   7.818   2.894   6.954  0.7696 -2.0142 -0.5623
   92MOL0     H12412   7.898   3.058   7.128 -1.1930 -0.1189 -0.4328
   92MOL0     H12413   8.018   2.937   7.083  0.1594 -0.6964 -0.1493
   92MOL0     H12414   7.959   2.812   7.304 -0.3618  0.3029  0.2022
   92MOL0     H12415   7.844   2.946   7.337  0.7223  0.3907  2.7813
   92MOL0     H12416   8.053   2.992   7.457 -3.0205  1.3074  0.3781
   92MOL0     H12417   8.006   3.114   7.337 -0.6282 -0.1313 -1.5863
   92MOL0     H12418   8.383   3.032   7.209 -0.7864  0.5995 -3.0074
   92MOL0     H12419   7.700   2.707   6.901 -1.8549 -1.4806 -2.2844
   92MOL0     H12420   7.509   2.632   6.778  1.5180  0.7092 -0.9034
   93MOL0     O12421   6.709   0.389  10.528  0.9971 -0.5021 -0.1025
   93MOL0     C12422   6.758   0.284  10.491  0.1077  1.0170 -0.5511
   93MOL0     O12423   6.697   0.172  10.438 -0.7630 -0.2969 -0.6417
   93MOL0     C12424   6.564   0.169  10.403  0.0970  0.2020 -0.4283
   93MOL0     C12425   6.466   0.273  10.413  0.8424 -0.7089 -0.5363
   93MOL0     C12426   6.333   0.252  10.361  0.3775  0.6609 -0.0614
   93MOL0     C12427   6.306   0.127  10.304 -0.6709  0.4789 -0.2021
   93MOL0     O12428   6.179   0.119  10.244  0.3826 -0.3185 -0.3360
   93MOL0     C12429   6.158   0.014  10.149  0.1594 -0.0968 -0.0651
   93MOL0     C12430   6.015   0.012  10.100 -0.2542 -0.1768 -0.5871
   93MOL0     C12431   5.994  -0.095  10.000  0.3039  0.6338 -0.0781
   93MOL0     C12432   5.851  -0.082   9.938  0.1878 -0.4561  0.2663
   93MOL0     C12433   5.862  -0.140   9.802  0.5133  0.6584 -0.3983
   93MOL0     C12434   5.722  -0.192   9.762  0.4025  0.1595 -0.6795
   93MOL0     C12435   5.728  -0.263   9.624 -0.1291  0.6721 -0.2000
   93MOL0     C12436   5.587  -0.287   9.563 -0.1371 -0.1618 -0.1413
   93MOL0     N12437   5.543  -0.413   9.618  0.0602  0.3519  0.2661
   93MOL0     C12438   5.474  -0.428   9.740  0.2928 -0.8980 -0.5054
   93MOL0     C12439   5.436  -0.550   9.745 -1.6673  0.7323  0.2007
   93MOL0     C12440   5.383  -0.623   9.865  0.1741 -0.5699 -0.8223
   93MOL0     C12441   5.239  -0.640   9.864  0.0278 -0.0234 -0.9666
   93MOL0     C12442   5.178  -0.697   9.994  0.1138 -0.0175 -0.0574
   93MOL0     C12443   5.025  -0.695   9.994 -0.8460  0.1967  0.5344
   93MOL0     O12444   4.983  -0.772   9.880  0.0204 -0.4981 -0.7805
   93MOL0     C12445   4.861  -0.840   9.885  0.1250  0.0096 -0.1878
   93MOL0     C12446   4.744  -0.798   9.938  0.1815  0.0628 -0.2900
   93MOL0     C12447   4.623  -0.878   9.937 -0.7025 -0.3338  0.5708
   93MOL0     C12448   4.508  -0.809  10.003 -0.2387 -0.5838  0.1654
   93MOL0     C12449   4.613  -0.999   9.861 -1.0591 -0.0197  0.9605
   93MOL0     C12450   4.492  -1.086   9.850 -0.1724  0.3734  0.3473
   93MOL0     O12451   4.374  -1.029   9.905 -0.1537  0.4647 -0.3451
   93MOL0     C12452   4.258  -1.100   9.870  0.2423 -0.0715  0.2202
   93MOL0     C12453   4.172  -1.124   9.977 -0.2294 -0.2055 -0.3025
   93MOL0     C12454   4.054  -1.197   9.955  0.0053  0.5031  0.4349
   93MOL0     C12455   4.029  -1.251   9.830  0.9290  0.2514 -0.4207
   93MOL0     O12456   3.914  -1.322   9.803 -0.3064 -0.3601  0.0572
   93MOL0     C12457   3.815  -1.330   9.905 -0.0337 -0.5094  0.2645
   93MOL0     C12458   3.694  -1.411   9.865 -0.1274  0.4636 -0.4505
   93MOL0     C12459   3.569  -1.413   9.952  0.5086 -0.4944 -0.5546
   93MOL0     C12460   3.593  -1.533  10.050  0.3210  0.1914 -0.2861
   93MOL0     C12461   3.484  -1.562  10.151 -0.0622 -0.4829 -0.1241
   93MOL0     C12462   3.355  -1.607  10.085 -0.4189 -0.0409  0.0310
   93MOL0     C12463   3.259  -1.662  10.181 -0.1667  0.0859 -0.3397
   93MOL0     C12464   3.297  -1.803  10.246  0.0968 -0.1147  0.2695
   93MOL0    Cl12465   3.316  -1.936  10.130  0.1868  0.0399 -0.0054
   93MOL0     C12466   4.106  -1.220   9.718  0.8912 -0.6247 -0.0368
   93MOL0     C12467   4.227  -1.147   9.741  0.0265  0.2906 -0.2073
   93MOL0     O12468   4.506  -1.199   9.805 -0.0188  0.7672  0.4483
   93MOL0     C12469   4.741  -1.040   9.803  0.2451  0.1034  0.0902
   93MOL0     C12470   4.860  -0.963   9.813 -0.7955 -0.8671  0.7206
   93MOL0     N12471   5.475  -0.619   9.626 -0.1995 -0.9041 -0.1648
   93MOL0     N12472   5.532  -0.535   9.549 -0.9691 -0.0482  0.0163
   93MOL0     C12473   6.405   0.027  10.301  0.4128  0.6642 -0.3116
   93MOL0     C12474   6.530   0.042  10.358 -0.3102 -0.7839 -0.0308
   93MOL0     C12475   6.908   0.266  10.516  0.8427 -0.5387 -0.5459
   93MOL0     C12476   6.982   0.374  10.563 -0.8276 -0.1681 -0.7547
   93MOL0     C12477   7.118   0.360  10.593  0.4907  1.1596 -0.2096
   93MOL0     C12478   7.184   0.237  10.569  0.6673  0.9362  0.0320
   93MOL0     O12479   7.315   0.214  10.619  0.2941 -0.6525  0.0228
   93MOL0     C12480   7.387   0.337  10.668 -0.3441  0.9435  0.0182
   93MOL0     C12481   7.520   0.289  10.717  0.4117  0.2096 -0.7195
   93MOL0     C12482   7.625   0.251  10.606 -0.3173  0.2873 -0.7643
   93MOL0     C12483   7.754   0.180  10.660 -0.6180  0.5666  0.0128
   93MOL0     C12484   7.807   0.274  10.758  0.0270  0.1600  0.2258
   93MOL0     C12485   7.867   0.348  10.825 -0.5715 -0.0409 -0.1507
   93MOL0     C12486   7.104   0.132  10.516 -0.3450  0.5721  0.5134
   93MOL0     C12487   6.972   0.142  10.489  0.8046 -0.1515 -0.3204
   93MOL0     H12488   6.484   0.364  10.469 -0.5147 -0.8430  0.1607
   93MOL0     H12489   6.250   0.320  10.377  2.2494  2.7201  1.3629
   93MOL0     H12490   6.232   0.014  10.068  1.3484 -2.3187  0.9601
   93MOL0     H12491   6.177  -0.077  10.206 -0.2336 -0.0259  0.1787
   93MOL0     H12492   5.954   0.002  10.190  1.9171  0.4320  1.0343
   93MOL0     H12493   6.003   0.101  10.037  1.7289 -0.2496 -1.1333
   93MOL0     H12494   6.068  -0.087   9.920 -1.9402 -0.8376 -2.4696
   93MOL0     H12495   5.998  -0.190  10.054 -1.3211  1.6715  2.0099
   93MOL0     H12496   5.772  -0.132   9.994  0.1941 -0.4477  0.2834
   93MOL0     H12497   5.819   0.023   9.935 -1.5544 -0.9429  0.9164
   93MOL0     H12498   5.903  -0.073   9.725 -0.6156  1.5597 -0.2595
   93MOL0     H12499   5.927  -0.227   9.812 -0.9705 -0.3031  1.4842
   93MOL0     H12500   5.683  -0.260   9.838  2.4242  0.3831  0.6477
   93MOL0     H12501   5.649  -0.111   9.756  0.1366 -0.1715 -2.5449
   93MOL0     H12502   5.785  -0.204   9.552  2.2490  0.5512  1.4624
   93MOL0     H12503   5.778  -0.359   9.637 -1.0147  0.0891 -1.0564
   93MOL0     H12504   5.585  -0.287   9.454 -0.5556  2.1375 -0.1751
   93MOL0     H12505   5.519  -0.206   9.589 -0.2290 -0.8200  1.8440
   93MOL0     H12506   5.472  -0.351   9.816  1.9554  1.9680 -3.1117
   93MOL0     H12507   5.435  -0.719   9.868 -1.5744 -1.5389 -0.4160
   93MOL0     H12508   5.404  -0.560   9.952 -1.8065  3.0407 -2.7255
   93MOL0     H12509   5.208  -0.702   9.779 -4.4844  1.3783 -0.6226
   93MOL0     H12510   5.189  -0.543   9.860  1.1386  0.8712  2.8963
   93MOL0     H12511   5.205  -0.646  10.087 -2.4512  0.7737  0.3240
   93MOL0     H12512   5.213  -0.800  10.010 -0.5735 -0.4679 -1.3336
   93MOL0     H12513   4.995  -0.591   9.982  1.8990  0.9075 -1.1408
   93MOL0     H12514   4.982  -0.739  10.085  0.4778  1.1753  1.6785
   93MOL0     H12515   4.737  -0.700   9.985 -1.6632 -0.7725  1.3280
   93MOL0     H12516   4.475  -0.849  10.099 -1.1613  0.8967  0.5057
   93MOL0     H12517   4.539  -0.704  10.004  3.2652 -1.4821  1.3933
   93MOL0     H12518   4.424  -0.798   9.933 -0.5656 -0.0073  0.6392
   93MOL0     H12519   4.206  -1.103  10.078  1.7791  1.2953 -1.2024
   93MOL0     H12520   3.976  -1.212  10.029 -0.5932 -0.3903 -0.3480
   93MOL0     H12521   3.855  -1.364  10.001 -0.2104  2.1745  1.3713
   93MOL0     H12522   3.780  -1.228   9.921  1.5808  0.1955 -0.4580
   93MOL0     H12523   3.651  -1.365   9.776 -1.0275  1.0297  0.2582
   93MOL0     H12524   3.728  -1.514   9.852 -3.2879 -0.6942 -0.4189
   93MOL0     H12525   3.489  -1.441   9.883 -1.2631  0.2712  1.0987
   93MOL0     H12526   3.551  -1.317  10.001  2.9865  0.7471 -1.8831
   93MOL0     H12527   3.595  -1.622   9.986 -0.9145  0.6832 -1.0615
   93MOL0     H12528   3.690  -1.529  10.101  0.3229 -0.7622 -0.2002
   93MOL0     H12529   3.456  -1.472  10.207  0.5888 -0.6216  0.4462
   93MOL0     H12530   3.517  -1.632  10.228 -1.8064 -0.8168  0.3503
   93MOL0     H12531   3.299  -1.526  10.038  0.8856  1.4834  1.0342
   93MOL0     H12532   3.389  -1.681  10.011 -0.3241 -0.5218  0.5478
   93MOL0     H12533   3.155  -1.661  10.149 -0.1553 -0.4070 -0.4018
   93MOL0     H12534   3.261  -1.591  10.264 -1.0242 -0.2926  0.0159
   93MOL0     H12535   3.222  -1.827  10.322  2.3098 -1.7888  2.0456
   93MOL0     H12536   3.387  -1.789  10.308 -0.8546  0.1200  1.6451
   93MOL0     H12537   4.068  -1.247   9.620 -0.6961 -1.3523  0.7451
   93MOL0     H12538   4.297  -1.129   9.660  3.0502 -0.1122  2.1289
   93MOL0     H12539   4.756  -1.129   9.742  2.8605  0.3732  0.2055
   93MOL0     H12540   4.958  -0.996   9.781  0.5806  0.3531  3.3862
   93MOL0     H12541   6.384  -0.073  10.263 -1.5559  1.2740 -0.9304
   93MOL0     H12542   6.609  -0.032  10.361  0.1358 -0.2830  1.6478
   93MOL0     H12543   6.926   0.466  10.578  0.5927  0.4159  1.4670
   93MOL0     H12544   7.163   0.444  10.644 -2.5405  1.1527  2.8796
   93MOL0     H12545   7.389   0.409  10.586  1.2967 -1.5881 -2.3552
   93MOL0     H12546   7.330   0.377  10.752  1.7015 -2.4011  3.3060
   93MOL0     H12547   7.499   0.205  10.783 -0.9022  2.5415  2.1010
   93MOL0     H12548   7.563   0.365  10.785 -0.3371 -0.5378  0.6361
   93MOL0     H12549   7.670   0.336  10.554  0.9381  0.7825  1.0123
   93MOL0     H12550   7.571   0.193  10.531 -3.4963  2.8560 -0.6443
   93MOL0     H12551   7.823   0.149  10.581 -1.1105  0.1690 -0.2682
   93MOL0     H12552   7.734   0.081  10.703  0.3643  0.1687 -0.4280
   93MOL0     H12553   7.900   0.418  10.899 -0.3695  1.8073 -1.8817
   93MOL0     H12554   7.168   0.049  10.487  1.4508  1.7955  0.7944
   93MOL0     H12555   6.907   0.062  10.456  1.7286 -0.9824 -0.1732
   94MOL0     O12556   8.480   6.746   5.538  0.0816  0.0556 -0.4331
   94MOL0     C12557   8.537   6.641   5.557 -0.7730  0.4917 -0.5370
   94MOL0     O12558   8.486   6.513   5.540 -0.1096 -0.1729 -0.1807
   94MOL0     C12559   8.360   6.503   5.496 -0.2175  0.3784  0.4660
   94MOL0     C12560   8.334   6.465   5.367 -0.2535  0.0603  0.2769
   94MOL0     C12561   8.202   6.464   5.330  0.7059  1.2726  0.2425
   94MOL0     C12562   8.094   6.498   5.409  0.8246 -0.8589  0.2866
   94MOL0     O12563   7.960   6.490   5.373  0.1512 -1.0270  0.2139
   94MOL0     C12564   7.926   6.489   5.232 -0.5828  0.5343  0.1589
   94MOL0     C12565   7.781   6.467   5.208  0.1770 -0.2295  0.6781
   94MOL0     C12566   7.743   6.494   5.065  0.5301  0.0183  0.8789
   94MOL0     C12567   7.605   6.440   5.024 -0.3030  0.0633  0.5163
   94MOL0     C12568   7.581   6.445   4.864  0.2296 -0.6452 -0.0007
   94MOL0     C12569   7.445   6.367   4.830 -0.2603 -0.2013 -0.3525
   94MOL0     C12570   7.320   6.445   4.880 -1.3160  0.3918  0.0441
   94MOL0     C12571   7.195   6.379   4.843  0.2160 -0.2198 -0.6044
   94MOL0     N12572   7.075   6.464   4.855  0.2643 -0.2075 -0.2039
   94MOL0     C12573   6.959   6.442   4.935  0.6747 -0.1545 -0.4842
   94MOL0     C12574   6.881   6.546   4.907 -0.3750  0.1843  0.0736
   94MOL0     C12575   6.761   6.595   4.976  0.0414  0.2761 -0.2180
   94MOL0     C12576   6.642   6.488   4.983 -0.5043  0.3478  0.1840
   94MOL0     C12577   6.514   6.559   5.023 -0.4618 -0.0535  0.3121
   94MOL0     C12578   6.513   6.592   5.171 -0.3586 -0.8728  0.7108
   94MOL0     O12579   6.575   6.717   5.178 -0.4164  0.2057 -0.1228
   94MOL0     C12580   6.497   6.829   5.200 -0.0146 -0.0508  0.5462
   94MOL0     C12581   6.376   6.852   5.135 -0.2236  0.8314  0.2865
   94MOL0     C12582   6.306   6.974   5.150 -0.6478 -0.0850  0.9034
   94MOL0     C12583   6.170   6.983   5.084 -0.3544  0.0519  0.1915
   94MOL0     C12584   6.375   7.075   5.228  0.5549 -0.5361  0.3519
   94MOL0     C12585   6.330   7.218   5.237  0.2877 -0.0876 -0.0958
   94MOL0     O12586   6.358   7.283   5.353  0.6170 -0.3468 -0.8697
   94MOL0     C12587   6.321   7.416   5.358  0.1585  0.2357  0.7204
   94MOL0     C12588   6.408   7.515   5.313  0.1442  0.5842  0.5903
   94MOL0     C12589   6.357   7.654   5.290 -0.6367  0.1695  0.0089
   94MOL0     C12590   6.226   7.687   5.348  0.2847  0.1194 -0.9170
   94MOL0     O12591   6.177   7.816   5.340 -0.1321  0.5918 -0.4367
   94MOL0     C12592   6.264   7.923   5.321 -0.2153  0.2811 -0.8118
   94MOL0     C12593   6.223   8.049   5.395 -0.1977 -0.6673 -0.4227
   94MOL0     C12594   6.082   8.090   5.337 -0.6218 -0.6406  0.2728
   94MOL0     C12595   6.021   8.208   5.414 -0.4758  0.0119  0.1486
   94MOL0     C12596   6.078   8.337   5.344 -0.2381 -0.1981  0.8941
   94MOL0     C12597   5.988   8.460   5.379  1.0100  0.3529 -0.6720
   94MOL0     C12598   6.049   8.598   5.333 -0.7739  0.7801 -0.9155
   94MOL0     C12599   5.967   8.708   5.379  0.2429 -0.3196 -0.1506
   94MOL0    Cl12600   5.801   8.676   5.320 -0.1584 -0.1850 -0.2571
   94MOL0     C12601   6.153   7.586   5.401  0.3729  1.1136 -0.2930
   94MOL0     C12602   6.192   7.450   5.407  0.0924 -1.2956  0.3299
   94MOL0     O12603   6.254   7.260   5.151  0.6573 -0.4183 -0.1231
   94MOL0     C12604   6.494   7.041   5.292  0.6511 -0.5966  0.3955
   94MOL0     C12605   6.558   6.921   5.271 -0.5423  0.3679 -0.2842
   94MOL0     N12606   6.933   6.623   4.804 -0.4237  0.0090  0.9466
   94MOL0     N12607   7.057   6.578   4.780 -0.4734  0.2598  0.1014
   94MOL0     C12608   8.128   6.542   5.531  0.4620  0.3207  0.3259
   94MOL0     C12609   8.253   6.541   5.578  0.1437 -0.1411  0.2934
   94MOL0     C12610   8.685   6.635   5.577  0.2934 -0.2249  0.5737
   94MOL0     C12611   8.750   6.515   5.584 -0.5710  0.5600  1.2290
   94MOL0     C12612   8.891   6.524   5.588 -0.4127  0.6641 -0.7355
   94MOL0     C12613   8.962   6.647   5.582  0.7409  0.1600  0.6033
   94MOL0     O12614   9.096   6.656   5.575  0.0358  0.0056  0.5329
   94MOL0     C12615   9.169   6.552   5.642  0.1779 -0.2085 -0.0707
   94MOL0     C12616   9.318   6.587   5.638 -0.2370  0.1460  0.1177
   94MOL0     C12617   9.410   6.480   5.699  0.4842 -0.5690  0.6666
   94MOL0     C12618   9.558   6.527   5.707  0.3657  0.3585  0.5741
   94MOL0     C12619   9.630   6.430   5.782 -0.3595  0.0689  0.7485
   94MOL0     C12620   9.680   6.333   5.838  0.1700  0.1509  0.4149
   94MOL0     C12621   8.895   6.761   5.575  1.3065  0.2298 -0.8205
   94MOL0     C12622   8.756   6.762   5.583 -0.0086  0.3761 -0.7051
   94MOL0     H12623   8.418   6.438   5.303  2.9342  0.3905  3.9885
   94MOL0     H12624   8.185   6.435   5.227 -0.3505 -0.7515  0.9406
   94MOL0     H12625   7.982   6.574   5.191 -0.6340  2.1019  3.0513
   94MOL0     H12626   7.974   6.402   5.186 -2.9848 -1.3944  1.0685
   94MOL0     H12627   7.763   6.363   5.236  0.2129 -0.2758  0.5280
   94MOL0     H12628   7.728   6.530   5.282  1.3966  0.2740  1.1571
   94MOL0     H12629   7.742   6.600   5.038 -1.5907  0.2759  1.7433
   94MOL0     H12630   7.827   6.454   5.008  0.7005  0.8258  0.5602
   94MOL0     H12631   7.599   6.335   5.056 -1.0958  0.1928  0.8065
   94MOL0     H12632   7.523   6.491   5.075 -1.4350 -0.1101 -1.0662
   94MOL0     H12633   7.577   6.542   4.815  1.7770 -0.8940 -0.6578
   94MOL0     H12634   7.665   6.391   4.820  0.4039 -1.6346  1.4665
   94MOL0     H12635   7.445   6.344   4.723  2.8384 -0.8036 -0.3310
   94MOL0     H12636   7.435   6.269   4.878 -2.0833  0.3565  0.4928
   94MOL0     H12637   7.308   6.448   4.989 -4.6891  2.4277 -0.2572
   94MOL0     H12638   7.332   6.545   4.837 -0.5888  0.3634  0.1539
   94MOL0     H12639   7.184   6.296   4.914  1.2903 -2.0292 -2.4212
   94MOL0     H12640   7.194   6.340   4.741 -1.1595  0.2344 -0.7886
   94MOL0     H12641   6.949   6.371   5.016 -0.4145 -2.1526 -2.2879
   94MOL0     H12642   6.788   6.611   5.080 -0.1952 -1.9638  0.2458
   94MOL0     H12643   6.735   6.688   4.925  0.5157  1.2103  1.1988
   94MOL0     H12644   6.665   6.406   5.052  1.3288  0.5463 -0.1376
   94MOL0     H12645   6.628   6.451   4.881 -0.2086 -0.3578  0.3896
   94MOL0     H12646   6.430   6.490   5.009 -1.8782  1.3346  1.5167
   94MOL0     H12647   6.486   6.635   4.949  1.3775  1.0406  0.6925
   94MOL0     H12648   6.571   6.518   5.226 -3.3413 -2.4613  1.9503
   94MOL0     H12649   6.414   6.582   5.216 -0.0957 -1.5254  1.1668
   94MOL0     H12650   6.339   6.775   5.069  0.8674 -0.1726  0.8072
   94MOL0     H12651   6.084   7.021   5.141 -1.8408 -2.5949 -0.1238
   94MOL0     H12652   6.178   7.053   5.001  2.3538  0.4171  0.6631
   94MOL0     H12653   6.141   6.887   5.041 -0.4054  0.4233 -0.6115
   94MOL0     H12654   6.500   7.479   5.269  0.8923  2.7722  0.2785
   94MOL0     H12655   6.427   7.724   5.245  0.8089 -0.6708  0.8613
   94MOL0     H12656   6.364   7.894   5.357 -0.8579 -0.0312  0.8074
   94MOL0     H12657   6.277   7.953   5.217  2.9534  1.8188 -0.1009
   94MOL0     H12658   6.216   8.041   5.504 -1.8291  1.3190 -0.3165
   94MOL0     H12659   6.296   8.126   5.371  1.0244 -0.2565  3.7936
   94MOL0     H12660   6.016   8.003   5.332 -1.1966 -0.2494  0.9006
   94MOL0     H12661   6.089   8.114   5.230 -0.9298 -1.3546  0.0859
   94MOL0     H12662   5.914   8.220   5.397 -0.7546 -0.3845  1.5067
   94MOL0     H12663   6.042   8.203   5.521  3.2310 -1.5777 -0.4825
   94MOL0     H12664   6.081   8.329   5.235 -0.9283 -4.0295  1.0203
   94MOL0     H12665   6.180   8.363   5.373 -0.0690  0.2455 -0.0324
   94MOL0     H12666   5.890   8.440   5.334  1.0667  3.0821 -2.2473
   94MOL0     H12667   5.980   8.460   5.488 -0.9570 -0.8642 -0.7649
   94MOL0     H12668   6.055   8.599   5.224 -1.1292 -0.7207 -0.9702
   94MOL0     H12669   6.153   8.609   5.364 -1.2160  1.6370  0.3477
   94MOL0     H12670   5.993   8.804   5.334  0.0760  0.1621  0.7544
   94MOL0     H12671   5.980   8.710   5.488  0.0647 -1.0485 -0.1053
   94MOL0     H12672   6.052   7.599   5.438  0.5320  1.5246  0.0109
   94MOL0     H12673   6.114   7.385   5.444 -2.5663  2.3044  1.5610
   94MOL0     H12674   6.541   7.116   5.356  4.2858 -0.8430 -1.7096
   94MOL0     H12675   6.659   6.906   5.305  0.1150 -0.5779 -2.4439
   94MOL0     H12676   8.047   6.580   5.593  0.4840 -1.1223  1.2871
   94MOL0     H12677   8.265   6.573   5.681 -2.9847 -0.4882  0.8634
   94MOL0     H12678   8.698   6.421   5.566 -1.9146  1.5239 -0.1880
   94MOL0     H12679   8.944   6.430   5.582 -3.0373 -0.9772  0.0111
   94MOL0     H12680   9.131   6.549   5.745  0.6516 -0.2892  0.1062
   94MOL0     H12681   9.145   6.454   5.598  0.6555 -0.5052  0.3220
   94MOL0     H12682   9.331   6.671   5.706  0.2411  1.0372 -1.0365
   94MOL0     H12683   9.351   6.616   5.537 -2.0831  1.5230 -0.1352
   94MOL0     H12684   9.387   6.399   5.629  0.3334 -0.3985  0.5154
   94MOL0     H12685   9.359   6.460   5.793 -0.2332  1.9187  0.8874
   94MOL0     H12686   9.559   6.626   5.752  0.9235  1.3671 -1.5209
   94MOL0     H12687   9.595   6.540   5.605  0.5487  0.4073  0.6472
   94MOL0     H12688   9.713   6.237   5.874 -0.3477  0.6086  2.2100
   94MOL0     H12689   8.953   6.853   5.571 -1.1253  1.8922 -0.0668
   94MOL0     H12690   8.696   6.852   5.581  0.6032  0.8253  0.4608
   95MOL0     O12691   8.369  11.173   4.351  0.4193 -0.1760 -0.1290
   95MOL0     C12692   8.357  11.206   4.471 -0.1776 -0.7025  0.4687
   95MOL0     O12693   8.242  11.212   4.542  0.3296 -0.5827 -0.5675
   95MOL0     C12694   8.120  11.186   4.476 -1.0512  0.1682  0.2988
   95MOL0     C12695   8.076  11.060   4.427  0.1111 -0.0997  0.7856
   95MOL0     C12696   7.947  11.054   4.362 -0.6403 -0.0441 -0.6945
   95MOL0     C12697   7.863  11.168   4.360 -0.4103  0.2761 -0.3652
   95MOL0     O12698   7.746  11.143   4.304  0.5058 -0.0039 -0.3519
   95MOL0     C12699   7.650  11.249   4.270  0.3522 -0.4170 -0.5722
   95MOL0     C12700   7.626  11.258   4.123  0.4227  0.1145 -0.1854
   95MOL0     C12701   7.530  11.147   4.073 -0.0073 -0.1268 -0.2351
   95MOL0     C12702   7.512  11.143   3.911  0.3205  0.3409 -0.3489
   95MOL0     C12703   7.436  11.017   3.862 -0.3478  0.5951  0.1060
   95MOL0     C12704   7.289  11.005   3.902 -0.8054  0.0520  0.6114
   95MOL0     C12705   7.197  11.126   3.868  0.2128 -0.6396 -0.3284
   95MOL0     C12706   7.192  11.158   3.713  0.4563  0.1034  0.0824
   95MOL0     N12707   7.088  11.258   3.677 -0.0062 -0.2089  0.4009
   95MOL0     C12708   6.959  11.268   3.727  0.1937 -0.0284 -0.2722
   95MOL0     C12709   6.882  11.354   3.650 -0.4161  0.2204  0.1479
   95MOL0     C12710   6.738  11.384   3.678 -0.6400 -0.7372  0.2553
   95MOL0     C12711   6.639  11.269   3.640  0.0393  0.0075 -0.0962
   95MOL0     C12712   6.642  11.204   3.498 -0.1415 -0.2670  0.5514
   95MOL0     C12713   6.634  11.308   3.387  0.1561 -0.2146 -0.6150
   95MOL0     O12714   6.507  11.366   3.399  1.1051 -0.3917  0.0104
   95MOL0     C12715   6.433  11.411   3.297 -0.1237  0.2006 -0.2355
   95MOL0     C12716   6.476  11.416   3.159  0.4652  0.3298  0.2796
   95MOL0     C12717   6.396  11.456   3.052  0.2739 -0.2326  0.2749
   95MOL0     C12718   6.455  11.441   2.912 -0.4565 -0.2778 -0.1658
   95MOL0     C12719   6.266  11.504   3.078  0.2343 -0.9253 -0.1085
   95MOL0     C12720   6.173  11.562   2.981  0.3052 -0.6737 -0.1586
   95MOL0     O12721   6.047  11.586   3.026  0.0791 -0.6625 -0.4046
   95MOL0     C12722   5.960  11.668   2.961  0.6267  0.3813 -0.7888
   95MOL0     C12723   5.904  11.634   2.840 -0.3832  1.3924  0.2746
   95MOL0     C12724   5.798  11.701   2.792  0.4381  0.5169  0.0777
   95MOL0     C12725   5.733  11.798   2.865  0.8851 -0.8287  0.1817
   95MOL0     O12726   5.615  11.866   2.832 -0.2535  0.1133  0.2773
   95MOL0     C12727   5.561  11.844   2.706 -0.4027 -0.4467  0.5700
   95MOL0     C12728   5.446  11.938   2.663  0.1688  0.2972  0.1172
   95MOL0     C12729   5.331  11.923   2.755  0.3801 -0.6846  0.6914
   95MOL0     C12730   5.226  12.027   2.725 -0.6198 -0.1492 -0.0232
   95MOL0     C12731   5.100  12.010   2.799  0.2969 -0.3654 -0.6933
   95MOL0     C12732   5.000  12.120   2.779  0.0701 -0.4333 -0.2470
   95MOL0     C12733   4.886  12.102   2.889 -0.6260  0.1575 -0.0162
   95MOL0     C12734   4.787  12.213   2.873  0.0541  0.3444  0.2287
   95MOL0    Cl12735   4.649  12.200   2.973  0.1571  0.4551  0.0897
   95MOL0     C12736   5.791  11.839   2.983 -0.1241  0.0473  0.2580
   95MOL0     C12737   5.910  11.783   3.028 -0.3848  0.4122 -0.4642
   95MOL0     O12738   6.213  11.590   2.867  1.2922 -0.2837 -0.4090
   95MOL0     C12739   6.222  11.493   3.215 -0.1856  0.7008 -0.4700
   95MOL0     C12740   6.306  11.442   3.321 -0.2510 -0.0135 -0.1590
   95MOL0     N12741   6.968  11.384   3.543 -0.0432 -0.5813  0.4953
   95MOL0     N12742   7.084  11.329   3.560  0.4523 -1.2778 -0.5213
   95MOL0     C12743   7.909  11.287   4.414 -0.3287  0.1502  0.0212
   95MOL0     C12744   8.037  11.290   4.469  0.4426  0.0551  0.6360
   95MOL0     C12745   8.470  11.277   4.523  0.0063 -0.5287  0.0365
   95MOL0     C12746   8.455  11.362   4.630  0.7253  0.2118  0.0993
   95MOL0     C12747   8.559  11.419   4.694 -0.4485  0.1766 -0.2179
   95MOL0     C12748   8.688  11.367   4.671  0.9183 -0.6320 -0.0598
   95MOL0     O12749   8.801  11.403   4.748 -0.1331  0.3387 -0.1234
   95MOL0     C12750   8.823  11.545   4.765  0.6352  0.3806  0.3376
   95MOL0     C12751   8.970  11.562   4.792 -0.3328 -0.4299  0.3678
   95MOL0     C12752   9.047  11.531   4.670 -0.0833  0.0426  0.3767
   95MOL0     C12753   9.097  11.384   4.671 -0.5684 -0.1441 -0.1969
   95MOL0     C12754   9.180  11.349   4.554  0.5653  0.1344 -0.1903
   95MOL0     C12755   9.265  11.320   4.468  0.4656  0.2214  0.1773
   95MOL0     C12756   8.705  11.293   4.563 -0.0904  0.4608  0.8280
   95MOL0     C12757   8.596  11.249   4.479 -0.0834 -0.4593  0.4885
   95MOL0     H12758   8.150  10.981   4.429 -1.0127 -1.4082 -2.4606
   95MOL0     H12759   7.924  10.956   4.321  3.0551 -1.2251 -0.2936
   95MOL0     H12760   7.553  11.236   4.319 -1.1858  2.1080 -2.6601
   95MOL0     H12761   7.688  11.349   4.291 -1.1176 -0.1343  0.9322
   95MOL0     H12762   7.582  11.355   4.099  1.1741 -0.0593 -2.5059
   95MOL0     H12763   7.719  11.249   4.066 -0.1264  0.6756 -1.2087
   95MOL0     H12764   7.573  11.050   4.101 -1.5718 -0.6775  0.3672
   95MOL0     H12765   7.432  11.164   4.119 -0.3357 -0.1422 -0.9189
   95MOL0     H12766   7.462  11.234   3.877 -0.1274 -0.2332 -1.2388
   95MOL0     H12767   7.610  11.126   3.865  0.6801 -1.4879  1.0004
   95MOL0     H12768   7.454  11.022   3.754 -0.5569  2.2170  0.1326
   95MOL0     H12769   7.487  10.934   3.912  1.4739  0.2400 -2.1661
   95MOL0     H12770   7.252  10.910   3.861  0.0368  0.0203 -0.1021
   95MOL0     H12771   7.285  10.983   4.010 -2.5616 -0.4786  0.4626
   95MOL0     H12772   7.100  11.099   3.910  2.1355 -4.0820  2.4452
   95MOL0     H12773   7.237  11.212   3.922 -2.3129 -0.2488  1.0690
   95MOL0     H12774   7.181  11.066   3.655  0.5386  1.0992 -1.5672
   95MOL0     H12775   7.289  11.198   3.682  2.8275 -3.8024  1.7135
   95MOL0     H12776   6.922  11.216   3.815  0.3775  1.2371  0.5798
   95MOL0     H12777   6.744  11.411   3.784  1.3755  2.8055 -0.6190
   95MOL0     H12778   6.688  11.473   3.638  0.9101  0.6408  1.2697
   95MOL0     H12779   6.538  11.309   3.652  0.3223  0.7115 -0.0080
   95MOL0     H12780   6.659  11.185   3.706  2.6895 -0.0861 -0.9026
   95MOL0     H12781   6.560  11.131   3.490 -0.0602 -0.2105 -1.1954
   95MOL0     H12782   6.735  11.146   3.494  1.1778  1.8336 -2.4946
   95MOL0     H12783   6.646  11.262   3.289  1.4140  0.2519 -0.7067
   95MOL0     H12784   6.718  11.379   3.391  3.6277 -3.8343 -1.9763
   95MOL0     H12785   6.572  11.376   3.127 -2.0028 -4.3387 -2.4243
   95MOL0     H12786   6.540  11.372   2.922 -0.3373  0.2067  2.9861
   95MOL0     H12787   6.381  11.393   2.847 -1.3033 -0.7309  1.0880
   95MOL0     H12788   6.488  11.538   2.874 -1.9435  0.8023  1.1862
   95MOL0     H12789   5.949  11.549   2.791 -2.1691 -0.6428  1.9595
   95MOL0     H12790   5.764  11.682   2.691  1.0209 -1.7228  0.2504
   95MOL0     H12791   5.644  11.865   2.638  0.6496 -1.4858  1.4800
   95MOL0     H12792   5.525  11.740   2.699 -1.3295 -0.0550 -0.8739
   95MOL0     H12793   5.485  12.040   2.665 -0.3868  0.5128  0.0197
   95MOL0     H12794   5.413  11.913   2.561 -1.4042  1.4992  0.2976
   95MOL0     H12795   5.361  11.929   2.860 -0.2105 -0.4381  0.8491
   95MOL0     H12796   5.287  11.823   2.751  1.3878 -1.1649  1.2894
   95MOL0     H12797   5.267  12.127   2.745  2.0591 -1.1451 -0.2457
   95MOL0     H12798   5.211  12.017   2.617  0.8893 -2.0290 -0.1078
   95MOL0     H12799   5.122  11.998   2.906 -1.6139  1.7154  0.0017
   95MOL0     H12800   5.043  11.921   2.770  1.6887 -1.5218 -0.0318
   95MOL0     H12801   5.057  12.211   2.798  0.1310  0.1320 -2.8387
   95MOL0     H12802   4.967  12.128   2.675 -2.3109  0.3107  0.4983
   95MOL0     H12803   4.917  12.095   2.994 -0.2651  0.0294 -0.1300
   95MOL0     H12804   4.839  12.004   2.877  0.7526 -0.2845 -2.5330
   95MOL0     H12805   4.748  12.217   2.771 -1.8694  1.7313  0.9638
   95MOL0     H12806   4.837  12.307   2.898 -0.5139  0.5654  0.5396
   95MOL0     H12807   5.738  11.918   3.035 -1.9798  0.0544 -1.5032
   95MOL0     H12808   5.949  11.823   3.122  3.2952  1.8697 -2.4205
   95MOL0     H12809   6.125  11.525   3.250  0.9106  1.7893  1.7941
   95MOL0     H12810   6.277  11.442   3.426  0.4669 -1.5628  0.0764
   95MOL0     H12811   7.858  11.383   4.413  1.2077  0.9958 -0.4024
   95MOL0     H12812   8.064  11.385   4.514  1.1848 -0.5119  1.4303
   95MOL0     H12813   8.357  11.395   4.662 -0.8998  0.7419 -4.5669
   95MOL0     H12814   8.549  11.492   4.773  0.6936  0.9733 -0.7930
   95MOL0     H12815   8.799  11.602   4.675  0.1998 -0.2530  0.0515
   95MOL0     H12816   8.752  11.565   4.846  0.6797 -0.4695  0.5899
   95MOL0     H12817   9.002  11.511   4.884  1.9061  2.2137  1.2096
   95MOL0     H12818   8.987  11.669   4.808 -0.2286 -0.5364  1.0223
   95MOL0     H12819   9.135  11.595   4.659 -0.1443 -0.2580 -2.8635
   95MOL0     H12820   8.989  11.549   4.578 -0.0994 -0.7067  0.2317
   95MOL0     H12821   9.015  11.313   4.682  0.7454 -1.6547  0.1421
   95MOL0     H12822   9.157  11.365   4.760 -0.7764 -0.3538 -0.0982
   95MOL0     H12823   9.314  11.290   4.377 -0.8379 -1.1914 -0.1041
   95MOL0     H12824   8.806  11.260   4.539  0.2469  1.0001  1.4850
   95MOL0     H12825   8.618  11.192   4.389  2.8546 -0.3826  1.0660
   96MOL0     O12826   7.373   0.498  10.972 -0.6383 -0.6226  0.4232
   96MOL0     C12827   7.422   0.400  11.033  0.7180 -0.5354 -0.2786
   96MOL0     O12828   7.354   0.282  11.045 -0.5117  0.4750 -0.2731
   96MOL0     C12829   7.222   0.264  10.996 -0.7298 -0.1152  0.4196
   96MOL0     C12830   7.113   0.352  10.993 -0.2817 -0.0686  0.0793
   96MOL0     C12831   6.993   0.302  10.954  0.2597  0.7108  0.7735
   96MOL0     C12832   6.970   0.171  10.908  1.1784 -0.2984  1.0665
   96MOL0     O12833   6.850   0.112  10.854  0.2333 -0.1182  0.8088
   96MOL0     C12834   6.738   0.200  10.852  0.4946 -0.0914 -0.5470
   96MOL0     C12835   6.633   0.101  10.822  0.2443  0.0507  0.4838
   96MOL0     C12836   6.506   0.182  10.799  0.1899 -1.3238  0.7145
   96MOL0     C12837   6.392   0.086  10.755  0.2791 -0.7677 -0.8831
   96MOL0     C12838   6.258   0.166  10.730  0.1178  0.0908  0.2208
   96MOL0     C12839   6.138   0.077  10.674 -0.5224  0.1247 -0.4588
   96MOL0     C12840   5.998   0.136  10.671 -0.4342 -0.2944  0.7703
   96MOL0     C12841   5.896   0.032  10.632  0.1342  0.9457  0.3175
   96MOL0     N12842   5.753   0.070  10.610  0.1998 -0.2445  0.2240
   96MOL0     C12843   5.638   0.058  10.696 -1.2062  0.4211 -0.4279
   96MOL0     C12844   5.538   0.134  10.638  0.6530  0.8816  0.5767
   96MOL0     C12845   5.398   0.160  10.689  0.6305  0.3943  0.3451
   96MOL0     C12846   5.381   0.281  10.778 -0.3275  1.1264  0.0935
   96MOL0     C12847   5.299   0.388  10.709 -0.3542 -0.3835 -0.6174
   96MOL0     C12848   5.305   0.528  10.768 -0.6455 -0.7469  0.2004
   96MOL0     O12849   5.261   0.626  10.667 -0.4765 -0.8408  0.2141
   96MOL0     C12850   5.122   0.639  10.650 -0.7351 -0.8100  0.7219
   96MOL0     C12851   5.073   0.697  10.534 -0.2494  0.4688  0.0208
   96MOL0     C12852   4.940   0.708  10.496  0.1609  0.1533  0.1398
   96MOL0     C12853   4.922   0.752  10.348  0.6006  0.2848  0.6686
   96MOL0     C12854   4.839   0.669  10.586  0.7182 -0.3806  1.2837
   96MOL0     C12855   4.694   0.676  10.547  0.6240  0.3281  0.4800
   96MOL0     O12856   4.623   0.569  10.602  0.4648 -0.7905  1.1362
   96MOL0     C12857   4.486   0.570  10.580 -0.6359 -0.8445  0.0372
   96MOL0     C12858   4.406   0.657  10.660  0.2890 -0.1518  0.8008
   96MOL0     C12859   4.269   0.652  10.643  0.5754  0.4054 -0.0240
   96MOL0     C12860   4.209   0.564  10.549 -0.4688 -0.4645 -0.3215
   96MOL0     O12861   4.072   0.572  10.540 -0.0091 -0.0376  0.1368
   96MOL0     C12862   4.005   0.495  10.441 -0.3134 -0.0167  0.1151
   96MOL0     C12863   3.867   0.558  10.416  0.3198  0.7741 -0.9379
   96MOL0     C12864   3.815   0.517  10.272 -0.4766 -0.9966 -0.6124
   96MOL0     C12865   3.675   0.571  10.243  0.1569 -0.1468  0.5914
   96MOL0     C12866   3.648   0.586  10.091  0.5866  0.4557  0.1756
   96MOL0     C12867   3.513   0.644  10.068  0.7227  0.2197 -0.0777
   96MOL0     C12868   3.477   0.674   9.922  0.5439  0.2756  0.4118
   96MOL0     C12869   3.327   0.707   9.914 -0.4828 -0.3494  1.0696
   96MOL0    Cl12870   3.265   0.713   9.740 -0.1055 -0.1088  0.1373
   96MOL0     C12871   4.291   0.488  10.463  0.0559  0.1316  0.0307
   96MOL0     C12872   4.427   0.492  10.479  0.6252 -0.2302 -0.8562
   96MOL0     O12873   4.652   0.754  10.460  0.3846  0.3557  0.3187
   96MOL0     C12874   4.890   0.612  10.703  0.3554 -0.5094  0.1234
   96MOL0     C12875   5.020   0.591  10.735 -1.1911 -0.7644 -0.6425
   96MOL0     N12876   5.586   0.187  10.522 -0.2052 -1.0284  0.0127
   96MOL0     N12877   5.709   0.151  10.500  1.1741 -0.3753  0.3768
   96MOL0     C12878   7.076   0.078  10.909 -0.3517 -0.6704  0.9440
   96MOL0     C12879   7.208   0.126  10.950  0.7801 -0.9249 -0.8812
   96MOL0     C12880   7.555   0.423  11.092  0.3758 -0.6791  0.2742
   96MOL0     C12881   7.636   0.522  11.041 -0.0628 -0.3494 -0.2545
   96MOL0     C12882   7.758   0.538  11.114  0.2086  0.2463  0.2309
   96MOL0     C12883   7.797   0.462  11.222  1.1033  0.4374 -0.0256
   96MOL0     O12884   7.924   0.453  11.281 -0.0735 -0.3252 -0.3563
   96MOL0     C12885   7.999   0.579  11.277  0.3991 -1.0316 -0.0607
   96MOL0     C12886   8.092   0.586  11.159 -0.4062  0.1470 -0.2106
   96MOL0     C12887   8.165   0.458  11.138 -1.0528 -0.7271  0.1148
   96MOL0     C12888   8.284   0.485  11.050 -0.3022 -0.0997  0.7810
   96MOL0     C12889   8.404   0.535  11.118  0.2709  0.1823  0.2100
   96MOL0     C12890   8.504   0.580  11.179  0.0902 -0.5593  1.0217
   96MOL0     C12891   7.715   0.365  11.273 -0.4247  0.1462 -0.0291
   96MOL0     C12892   7.595   0.337  11.201  0.5058 -0.3911 -0.4171
   96MOL0     H12893   7.132   0.443  11.049 -0.1152  0.4425 -0.7880
   96MOL0     H12894   6.906   0.366  10.945 -1.3879 -1.7289 -2.8551
   96MOL0     H12895   6.725   0.245  10.951  0.4767  0.3753 -0.7580
   96MOL0     H12896   6.741   0.273  10.771 -2.5147  1.0975  0.2534
   96MOL0     H12897   6.659   0.059  10.725 -1.7460  1.0776 -0.5652
   96MOL0     H12898   6.628   0.028  10.904  3.3779 -0.8172  0.0310
   96MOL0     H12899   6.479   0.245  10.884 -1.8162  0.9571 -1.4714
   96MOL0     H12900   6.526   0.249  10.715 -0.5454  0.0717  1.6245
   96MOL0     H12901   6.417   0.044  10.657  3.2632  0.3161 -0.6877
   96MOL0     H12902   6.369   0.006  10.826 -2.2798 -0.7429 -1.5618
   96MOL0     H12903   6.218   0.210  10.822 -0.7192  0.6330 -0.3856
   96MOL0     H12904   6.283   0.241  10.654  0.9475  1.7288  2.0162
   96MOL0     H12905   6.152   0.050  10.569 -2.4129 -1.1267 -0.4427
   96MOL0     H12906   6.134  -0.019  10.726 -0.7739 -0.0988 -0.8898
   96MOL0     H12907   5.974   0.177  10.769 -2.2757  4.7385 -1.4681
   96MOL0     H12908   5.987   0.211  10.592 -0.3481  0.1648  1.1956
   96MOL0     H12909   5.904  -0.054  10.700  3.3601  1.8144  1.2331
   96MOL0     H12910   5.923  -0.003  10.532  0.3703  1.4570  0.1997
   96MOL0     H12911   5.639   0.003  10.789 -0.4338  1.4481  0.1949
   96MOL0     H12912   5.340   0.175  10.597  2.8312  3.2036 -0.7167
   96MOL0     H12913   5.357   0.066  10.727  1.5290 -0.9549 -1.8075
   96MOL0     H12914   5.481   0.314  10.807  0.4265 -1.5639  0.8352
   96MOL0     H12915   5.336   0.249  10.873 -0.4055 -0.7636 -0.5215
   96MOL0     H12916   5.195   0.352  10.714 -0.0140 -1.3495 -0.3148
   96MOL0     H12917   5.332   0.396  10.605  0.8757  0.7763 -0.1610
   96MOL0     H12918   5.411   0.547  10.788 -1.4302  1.1140  3.2888
   96MOL0     H12919   5.259   0.532  10.867 -1.4069  1.8707 -0.1970
   96MOL0     H12920   5.154   0.727  10.469 -0.1886  0.3422  0.0390
   96MOL0     H12921   5.006   0.818  10.322  0.3494  0.7796  1.0872
   96MOL0     H12922   4.924   0.669  10.278  0.4812 -0.2770  1.3281
   96MOL0     H12923   4.836   0.818  10.332  0.3862 -0.5538 -2.2534
   96MOL0     H12924   4.455   0.726  10.728  3.2905  0.2130 -1.5460
   96MOL0     H12925   4.201   0.721  10.693  0.6785  0.3391  0.2105
   96MOL0     H12926   4.065   0.501  10.350  0.8887 -1.1166  0.8006
   96MOL0     H12927   3.992   0.388  10.461  1.5628 -0.2856  0.0222
   96MOL0     H12928   3.786   0.524  10.481  2.2588 -0.0762  1.1860
   96MOL0     H12929   3.865   0.668  10.424 -0.9412  0.9766 -3.2183
   96MOL0     H12930   3.818   0.408  10.267  2.8232 -0.9804 -1.3835
   96MOL0     H12931   3.879   0.557  10.193  0.2035 -1.1679 -0.1580
   96MOL0     H12932   3.596   0.507  10.282 -0.9804 -0.2986 -1.8040
   96MOL0     H12933   3.665   0.673  10.281  1.6028  0.5122 -0.6900
   96MOL0     H12934   3.660   0.487  10.046  1.1488  0.6095 -0.0165
   96MOL0     H12935   3.720   0.655  10.045  1.7715 -0.4221  0.6676
   96MOL0     H12936   3.430   0.587  10.111  0.2636  2.2111  1.8625
   96MOL0     H12937   3.517   0.734  10.130  1.2948 -0.8064  1.4292
   96MOL0     H12938   3.510   0.593   9.856  1.1815  2.9207 -2.7733
   96MOL0     H12939   3.541   0.754   9.882  1.3385 -0.8560 -0.6504
   96MOL0     H12940   3.304   0.804   9.958  0.5486 -0.3318  1.5954
   96MOL0     H12941   3.279   0.631   9.976  0.8180 -1.3909  0.8649
   96MOL0     H12942   4.258   0.422  10.383  1.1175  2.0310 -2.0871
   96MOL0     H12943   4.483   0.425  10.414  2.7607 -0.0691  0.7277
   96MOL0     H12944   4.814   0.581  10.775  1.8161  0.2017  2.0761
   96MOL0     H12945   5.040   0.547  10.832  1.1590  1.9201  0.2405
   96MOL0     H12946   7.060  -0.024  10.877  3.4984 -1.7883  1.9855
   96MOL0     H12947   7.290   0.055  10.954  0.6290 -1.1727 -1.9926
   96MOL0     H12948   7.608   0.584  10.956 -3.9134 -0.8235  0.4675
   96MOL0     H12949   7.824   0.616  11.077  0.0471  1.0541  1.6004
   96MOL0     H12950   7.941   0.672  11.265  2.0407 -0.2270 -2.7328
   96MOL0     H12951   8.060   0.587  11.367  0.0671  0.7969  0.0551
   96MOL0     H12952   8.164   0.661  11.192  1.0587 -2.0112  1.8586
   96MOL0     H12953   8.041   0.624  11.070 -1.1050 -3.0296 -1.3098
   96MOL0     H12954   8.095   0.395  11.082 -0.5718 -0.6580 -0.5669
   96MOL0     H12955   8.201   0.410  11.230 -2.2391 -1.1098  0.3986
   96MOL0     H12956   8.254   0.557  10.974  0.6389  0.3385  0.8049
   96MOL0     H12957   8.322   0.393  11.007 -2.5512 -0.3930 -0.7473
   96MOL0     H12958   8.594   0.608  11.230 -0.0153 -0.1181  0.9708
   96MOL0     H12959   7.730   0.299  11.358 -0.5070 -0.8635 -0.7786
   96MOL0     H12960   7.524   0.267  11.244  2.1016 -1.6225  0.3076
   97MOL0     O12961   6.037   3.646   5.193 -0.5532  0.3046  0.0080
   97MOL0     C12962   6.082   3.574   5.279 -0.0615  0.5670  0.5820
   97MOL0     O12963   6.026   3.451   5.311  0.3040 -0.1257 -0.3639
   97MOL0     C12964   5.891   3.431   5.316  0.2895 -0.1136 -0.1853
   97MOL0     C12965   5.843   3.298   5.284  0.7861 -0.2292 -0.3632
   97MOL0     C12966   5.707   3.261   5.307 -0.1947  0.4109  0.3325
   97MOL0     C12967   5.618   3.362   5.329  0.4145 -0.6873 -0.6415
   97MOL0     O12968   5.485   3.330   5.365 -0.0217 -0.1698  0.8328
   97MOL0     C12969   5.386   3.428   5.358  0.4264 -0.3639 -0.1986
   97MOL0     C12970   5.246   3.350   5.378 -0.2231  0.8056 -0.1123
   97MOL0     C12971   5.131   3.454   5.395 -0.9483  0.2087 -0.1417
   97MOL0     C12972   4.981   3.395   5.410 -0.6495  0.1405  0.1915
   97MOL0     C12973   4.869   3.503   5.428 -0.1299 -0.0163 -0.1550
   97MOL0     C12974   4.763   3.469   5.319  0.7123 -0.4403 -0.0926
   97MOL0     C12975   4.642   3.564   5.326  0.0030  0.6860 -0.0507
   97MOL0     C12976   4.530   3.524   5.223  0.0708  0.5072 -0.4861
   97MOL0     N12977   4.555   3.594   5.095  0.7744  0.0886 -0.3956
   97MOL0     C12978   4.476   3.689   5.043  0.8557 -0.1735 -0.5703
   97MOL0     C12979   4.538   3.727   4.929 -0.8762 -0.8041  0.3514
   97MOL0     C12980   4.498   3.854   4.849  0.5453  1.0253 -0.8981
   97MOL0     C12981   4.415   3.819   4.730 -0.1432  0.5696 -1.1333
   97MOL0     C12982   4.288   3.752   4.768  0.9043  0.5330  0.0694
   97MOL0     C12983   4.194   3.775   4.648 -0.0967 -0.1904 -0.5102
   97MOL0     O12984   4.074   3.697   4.669 -1.2306  0.4140  0.3099
   97MOL0     C12985   3.980   3.690   4.572 -0.3895  0.5182  0.7271
   97MOL0     C12986   3.882   3.607   4.601  0.1092  0.7269  0.3469
   97MOL0     C12987   3.765   3.593   4.527  0.1511  0.6457 -0.5071
   97MOL0     C12988   3.649   3.519   4.581  0.1837  0.2410 -0.2300
   97MOL0     C12989   3.756   3.670   4.403  0.7429 -0.0381  0.4563
   97MOL0     C12990   3.631   3.681   4.313 -0.0962  0.4274 -0.4064
   97MOL0     O12991   3.637   3.758   4.203  0.1574 -0.5663  0.5625
   97MOL0     C12992   3.519   3.797   4.133 -0.7010 -0.1716 -0.0396
   97MOL0     C12993   3.532   3.808   3.997  0.6244  1.0605  0.3104
   97MOL0     C12994   3.422   3.840   3.918  0.2583 -0.3587  0.6329
   97MOL0     C12995   3.301   3.880   3.971 -0.8589  0.1604  0.9306
   97MOL0     O12996   3.201   3.923   3.897 -0.4951 -0.1337 -0.1204
   97MOL0     C12997   3.100   3.820   3.881 -0.4191 -0.5389  1.0427
   97MOL0     C12998   3.038   3.820   3.740 -0.3770 -0.0936  0.4297
   97MOL0     C12999   3.155   3.793   3.635 -0.9520 -0.3534  0.0862
   97MOL0     C13000   3.209   3.642   3.646  0.1176 -0.3385 -0.5095
   97MOL0     C13001   3.304   3.619   3.530  0.0616  0.5393 -0.1923
   97MOL0     C13002   3.445   3.675   3.550  0.3704 -0.3628 -0.6452
   97MOL0     C13003   3.531   3.656   3.428  0.3912  0.0510 -0.7636
   97MOL0     C13004   3.583   3.508   3.426  0.2221 -0.5852 -0.4868
   97MOL0    Cl13005   3.671   3.473   3.568  0.1768 -0.1646 -0.1140
   97MOL0     C13006   3.292   3.877   4.109 -0.2708 -0.2937  0.1453
   97MOL0     C13007   3.398   3.829   4.192  0.2868 -0.2719  0.2122
   97MOL0     O13008   3.539   3.597   4.335  0.0478 -0.1427  0.4605
   97MOL0     C13009   3.865   3.758   4.371 -0.1644  1.1695 -0.1189
   97MOL0     C13010   3.970   3.766   4.459 -0.4905  0.1126  0.1279
   97MOL0     N13011   4.659   3.655   4.923 -0.0667 -0.4116 -0.7303
   97MOL0     N13012   4.667   3.583   5.021 -0.0251 -0.3622 -0.5479
   97MOL0     C13013   5.665   3.500   5.334 -0.0866  0.8211  0.3669
   97MOL0     C13014   5.799   3.530   5.339 -0.1583 -0.1212  0.4402
   97MOL0     C13015   6.201   3.611   5.346 -1.0150  0.5141 -0.0302
   97MOL0     C13016   6.267   3.521   5.429  0.3420 -0.3697  1.1623
   97MOL0     C13017   6.381   3.566   5.489 -0.3558 -0.2097  0.0306
   97MOL0     C13018   6.428   3.691   5.484  0.0598 -0.0280  0.2412
   97MOL0     O13019   6.559   3.723   5.526  0.4888  0.7231  0.0413
   97MOL0     C13020   6.585   3.866   5.547 -0.5786  0.6719 -0.4883
   97MOL0     C13021   6.714   3.867   5.633  0.1305 -1.0001 -0.2112
   97MOL0     C13022   6.775   4.007   5.658 -0.1594  0.0908 -0.1615
   97MOL0     C13023   6.906   3.991   5.729 -0.0900 -0.8918  0.2868
   97MOL0     C13024   6.946   4.125   5.776  0.3399 -0.3180 -0.2916
   97MOL0     C13025   6.955   4.245   5.802  0.8176  1.2119 -0.4851
   97MOL0     C13026   6.346   3.784   5.410  0.0074 -0.5976 -0.0877
   97MOL0     C13027   6.234   3.742   5.346 -0.7549  0.5246 -0.0138
   97MOL0     H13028   5.903   3.208   5.276 -1.8064 -2.3145  1.7929
   97MOL0     H13029   5.682   3.158   5.329 -1.8613  1.3259  3.2760
   97MOL0     H13030   5.400   3.501   5.438  1.0982 -1.4874  0.7412
   97MOL0     H13031   5.384   3.471   5.257  1.8536 -0.5812 -0.3428
   97MOL0     H13032   5.223   3.303   5.281  1.8657 -1.2583  0.3237
   97MOL0     H13033   5.245   3.280   5.462 -1.8441 -0.6131 -1.2295
   97MOL0     H13034   5.146   3.526   5.476 -1.9100  0.5896 -0.2875
   97MOL0     H13035   5.121   3.515   5.304  0.8490  0.5822 -0.1280
   97MOL0     H13036   4.959   3.335   5.321 -1.0338 -0.7986  0.9098
   97MOL0     H13037   4.989   3.337   5.502  4.1779  2.5236  1.5950
   97MOL0     H13038   4.823   3.490   5.526 -0.5621  2.7470  0.0950
   97MOL0     H13039   4.896   3.609   5.420 -1.5283  0.2368 -2.7812
   97MOL0     H13040   4.809   3.480   5.221  0.2963  1.4981 -0.1035
   97MOL0     H13041   4.721   3.370   5.341 -0.2295  0.1828  1.0646
   97MOL0     H13042   4.606   3.562   5.430  2.6664  0.1830  0.9299
   97MOL0     H13043   4.677   3.666   5.305  0.9883 -0.2421 -3.5609
   97MOL0     H13044   4.435   3.556   5.267 -0.5917 -2.5541  0.5261
   97MOL0     H13045   4.529   3.418   5.197 -1.4877  1.1455 -3.4700
   97MOL0     H13046   4.388   3.737   5.085  0.8720  2.2698 -3.0334
   97MOL0     H13047   4.442   3.914   4.923  1.0927  0.4494 -0.0007
   97MOL0     H13048   4.585   3.915   4.823  1.5614  0.9427  1.9313
   97MOL0     H13049   4.473   3.734   4.693 -1.7253 -1.4373  0.6927
   97MOL0     H13050   4.422   3.900   4.657  1.2622  1.1788 -0.3586
   97MOL0     H13051   4.248   3.806   4.854  0.2633 -0.8056  0.6376
   97MOL0     H13052   4.302   3.647   4.797  0.0081  0.2985 -0.3174
   97MOL0     H13053   4.244   3.743   4.557 -0.5919  3.8710 -2.4144
   97MOL0     H13054   4.173   3.882   4.661 -0.7540 -0.6384  3.6668
   97MOL0     H13055   3.891   3.547   4.691  1.2768 -1.5422 -1.1804
   97MOL0     H13056   3.682   3.470   4.673 -1.1753 -1.3522 -0.5408
   97MOL0     H13057   3.558   3.575   4.607 -2.5863 -2.2063 -3.6542
   97MOL0     H13058   3.614   3.442   4.513  0.8237  2.2580 -3.0274
   97MOL0     H13059   3.630   3.799   3.952  0.4342 -1.1488  0.1846
   97MOL0     H13060   3.439   3.848   3.811 -0.6053 -0.7795  0.4592
   97MOL0     H13061   3.152   3.726   3.902  1.9268  0.5344  0.3130
   97MOL0     H13062   3.013   3.842   3.944 -1.1278  2.8054 -0.8682
   97MOL0     H13063   2.958   3.747   3.729 -2.2029  2.0226 -1.5164
   97MOL0     H13064   2.996   3.920   3.724 -2.8737 -0.8546  1.7108
   97MOL0     H13065   3.245   3.852   3.656 -0.3754 -1.0883 -0.2570
   97MOL0     H13066   3.124   3.819   3.534  0.7024  2.9672  0.3084
   97MOL0     H13067   3.252   3.614   3.743 -0.0450  1.9835  0.3053
   97MOL0     H13068   3.114   3.588   3.635 -1.3817  2.1673 -0.7947
   97MOL0     H13069   3.250   3.663   3.446 -1.5698  0.6566  0.8721
   97MOL0     H13070   3.306   3.509   3.527 -1.4525  0.4892 -0.1674
   97MOL0     H13071   3.435   3.777   3.588  0.6455 -1.3925  2.4481
   97MOL0     H13072   3.479   3.625   3.641  0.8343  2.6716  0.9756
   97MOL0     H13073   3.620   3.720   3.427  0.2395  0.2876  0.0945
   97MOL0     H13074   3.480   3.685   3.336  0.6480  0.0221 -0.9178
   97MOL0     H13075   3.650   3.492   3.340 -2.0524 -1.3189 -2.2291
   97MOL0     H13076   3.500   3.439   3.407 -2.2125  2.5007 -2.0139
   97MOL0     H13077   3.193   3.910   4.137 -0.0139  0.8134 -0.1864
   97MOL0     H13078   3.380   3.822   4.299 -3.0902  3.3327  0.1554
   97MOL0     H13079   3.864   3.828   4.287 -3.0785  1.9841  0.4800
   97MOL0     H13080   4.054   3.831   4.436  0.8078 -0.5691  2.6320
   97MOL0     H13081   5.585   3.568   5.360 -2.4368 -1.0259 -1.6503
   97MOL0     H13082   5.840   3.624   5.375  0.9976 -0.7115  0.7097
   97MOL0     H13083   6.232   3.419   5.442  2.0765 -1.5227 -2.0176
   97MOL0     H13084   6.439   3.489   5.540 -1.3286 -0.9758  0.0189
   97MOL0     H13085   6.597   3.924   5.455  1.6449  0.6239 -0.2835
   97MOL0     H13086   6.507   3.918   5.604  1.0058  1.2328  1.2754
   97MOL0     H13087   6.793   3.816   5.577  0.5222  0.7904 -1.3422
   97MOL0     H13088   6.690   3.814   5.726 -3.0520  0.2572 -0.1899
   97MOL0     H13089   6.702   4.074   5.706 -1.2014  0.7875 -2.5540
   97MOL0     H13090   6.793   4.047   5.558  2.4579 -2.6449 -0.9091
   97MOL0     H13091   6.986   3.947   5.668  2.4971 -1.0187  3.5057
   97MOL0     H13092   6.898   3.928   5.818  1.6422 -1.5947 -0.0179
   97MOL0     H13093   6.952   4.348   5.833 -1.1146  0.3342  2.7190
   97MOL0     H13094   6.387   3.884   5.415  1.4389 -1.1729  0.0450
   97MOL0     H13095   6.167   3.812   5.297 -0.1161  1.3983  0.3258
   98MOL0     O13096   5.013   3.342   7.743 -0.2339  0.3996  0.1974
   98MOL0     C13097   5.081   3.258   7.808  0.3474  0.0870 -0.1805
   98MOL0     O13098   5.036   3.139   7.849 -0.7053 -0.3376 -0.0806
   98MOL0     C13099   4.901   3.109   7.838 -0.4042  0.5771  0.5404
   98MOL0     C13100   4.864   2.992   7.765  0.1017  0.0623 -0.2823
   98MOL0     C13101   4.720   2.967   7.742  0.8574 -0.6502 -0.0639
   98MOL0     C13102   4.622   3.047   7.808 -0.3813  0.1613 -0.2736
   98MOL0     O13103   4.496   3.003   7.796  0.4461 -0.3744 -0.1173
   98MOL0     C13104   4.399   3.060   7.887  0.2664 -0.2553 -0.9729
   98MOL0     C13105   4.263   3.038   7.827  0.0094 -1.0583  0.2306
   98MOL0     C13106   4.147   3.049   7.915  0.3392  0.5608 -1.2154
   98MOL0     C13107   4.024   3.050   7.821 -0.4252 -0.3184  0.4656
   98MOL0     C13108   3.891   3.048   7.903 -0.9335  0.2604 -0.1944
   98MOL0     C13109   3.770   3.065   7.808  0.0367 -0.4266  0.7512
   98MOL0     C13110   3.643   3.086   7.887  0.4459 -0.2978 -0.4978
   98MOL0     C13111   3.521   3.116   7.801  0.3393 -0.9009 -0.4767
   98MOL0     N13112   3.393   3.126   7.881 -0.1865  0.1427  0.2038
   98MOL0     C13113   3.362   3.206   7.986  0.1949  0.0255 -0.3828
   98MOL0     C13114   3.227   3.211   8.008 -0.4859  0.4643  0.1994
   98MOL0     C13115   3.145   3.279   8.123 -0.2725 -0.4471 -0.4266
   98MOL0     C13116   3.087   3.409   8.070  0.0972 -0.1757  0.4275
   98MOL0     C13117   2.975   3.466   8.158  1.0534 -0.2320 -0.1623
   98MOL0     C13118   2.928   3.611   8.124 -0.0990  0.0295  0.1356
   98MOL0     O13119   2.852   3.607   8.004 -0.1324  0.2382  0.2728
   98MOL0     C13120   2.764   3.715   7.972 -0.3522  1.0712  0.5409
   98MOL0     C13121   2.766   3.839   8.035  0.1207  0.2971 -0.0193
   98MOL0     C13122   2.673   3.941   7.992 -0.6371  0.6832 -0.7275
   98MOL0     C13123   2.685   4.073   8.056  0.2504  0.2295  0.7094
   98MOL0     C13124   2.568   3.912   7.894 -0.5057  0.2948  0.4766
   98MOL0     C13125   2.474   4.018   7.844  0.4296  0.1202  0.0879
   98MOL0     O13126   2.380   3.967   7.760  0.3695 -0.3433 -0.0269
   98MOL0     C13127   2.288   4.042   7.699  0.0891 -0.4332  0.8937
   98MOL0     C13128   2.319   4.117   7.585  0.1553  0.3695  0.2417
   98MOL0     C13129   2.217   4.170   7.510 -0.7534 -0.3256  0.6131
   98MOL0     C13130   2.083   4.157   7.547  0.2323 -0.3707  0.7079
   98MOL0     O13131   1.996   4.208   7.463 -0.0165 -0.1895 -0.5051
   98MOL0     C13132   1.859   4.185   7.491  0.0139 -0.3793  0.1886
   98MOL0     C13133   1.780   4.222   7.359  0.4201 -0.0365 -0.3500
   98MOL0     C13134   1.641   4.178   7.371 -0.6499  0.2309  0.5916
   98MOL0     C13135   1.560   4.213   7.238  0.0425  0.1667 -0.3922
   98MOL0     C13136   1.410   4.190   7.262 -0.1048 -0.0162  0.5254
   98MOL0     C13137   1.346   4.160   7.127 -0.3527 -0.9425 -0.1770
   98MOL0     C13138   1.203   4.160   7.148  0.6685 -0.0839 -0.1277
   98MOL0     C13139   1.130   4.148   7.014  0.4930  0.2475 -0.2574
   98MOL0    Cl13140   0.952   4.138   7.022  0.4364 -0.1207 -0.4022
   98MOL0     C13141   2.058   4.095   7.667  1.0985  0.6085 -0.2143
   98MOL0     C13142   2.162   4.042   7.747 -0.6141  0.3366  0.3912
   98MOL0     O13143   2.487   4.138   7.870  0.1824  0.0699  0.0383
   98MOL0     C13144   2.568   3.781   7.834  0.0142 -0.7582 -1.1537
   98MOL0     C13145   2.666   3.690   7.870 -0.8910  0.1597 -0.6843
   98MOL0     N13146   3.173   3.127   7.915 -0.4078 -0.4269  0.1727
   98MOL0     N13147   3.269   3.089   7.832  0.8416 -0.2237  0.3702
   98MOL0     C13148   4.667   3.154   7.890 -0.4622 -0.1915 -0.2168
   98MOL0     C13149   4.801   3.190   7.904 -0.3374  0.3352 -0.0173
   98MOL0     C13150   5.219   3.303   7.850 -0.4899 -0.3433  0.2379
   98MOL0     C13151   5.284   3.245   7.964 -0.5705  0.7423  0.3505
   98MOL0     C13152   5.425   3.268   7.989  0.7765 -0.0230 -0.5166
   98MOL0     C13153   5.489   3.363   7.908  0.0122 -0.7184 -0.2869
   98MOL0     O13154   5.623   3.371   7.917 -0.4557  1.1142 -0.5622
   98MOL0     C13155   5.700   3.285   7.825 -0.7173  0.3135 -0.4850
   98MOL0     C13156   5.853   3.267   7.860  0.5414 -0.2484 -0.5770
   98MOL0     C13157   5.909   3.410   7.902 -0.3634 -0.0904 -0.0308
   98MOL0     C13158   6.063   3.407   7.921  0.4139 -0.2847 -0.1504
   98MOL0     C13159   6.128   3.538   7.930 -0.4700  0.8060  0.2338
   98MOL0     C13160   6.189   3.645   7.939  0.0419 -0.7778 -0.6457
   98MOL0     C13161   5.427   3.416   7.794  0.2641 -0.3223 -0.2246
   98MOL0     C13162   5.295   3.388   7.765  0.4425 -0.9583  0.6090
   98MOL0     H13163   4.928   2.912   7.731 -1.3365 -0.9992 -0.5989
   98MOL0     H13164   4.673   2.878   7.702 -0.1726 -0.2879  0.2999
   98MOL0     H13165   4.404   2.996   7.976  0.5174 -1.3862 -1.7739
   98MOL0     H13166   4.399   3.164   7.919 -2.9150 -0.6347  0.7229
   98MOL0     H13167   4.257   3.111   7.745  0.3635 -1.1646  0.1079
   98MOL0     H13168   4.269   2.940   7.780  1.7515 -0.5093 -0.7899
   98MOL0     H13169   4.146   2.969   7.990  2.7413  0.1146 -1.5419
   98MOL0     H13170   4.156   3.139   7.975  1.2350  0.9909 -1.9568
   98MOL0     H13171   4.026   3.136   7.754 -0.6504 -0.6407  0.0344
   98MOL0     H13172   4.027   2.956   7.763  2.2312  0.1332 -0.2270
   98MOL0     H13173   3.873   2.950   7.948 -3.6757 -0.1933 -2.0446
   98MOL0     H13174   3.888   3.120   7.985 -3.0784 -1.8877  1.7724
   98MOL0     H13175   3.778   3.147   7.737 -1.0826  0.2192  1.3255
   98MOL0     H13176   3.763   2.969   7.755 -1.4771  0.0482  0.0191
   98MOL0     H13177   3.624   2.996   7.947 -0.0573  0.1781  0.0824
   98MOL0     H13178   3.653   3.171   7.955 -1.3358 -1.4001  1.2580
   98MOL0     H13179   3.509   3.039   7.724 -0.2391 -0.3930 -0.9028
   98MOL0     H13180   3.549   3.210   7.753  0.6981 -1.3252 -1.1047
   98MOL0     H13181   3.427   3.264   8.050  0.1346 -0.9787  0.6305
   98MOL0     H13182   3.061   3.217   8.156 -0.2329 -0.0174  0.4779
   98MOL0     H13183   3.201   3.302   8.213 -1.2955 -0.7891  0.3105
   98MOL0     H13184   3.069   3.402   7.962  1.7247  0.3629  0.0941
   98MOL0     H13185   3.165   3.485   8.067  1.5852 -1.6360  0.1275
   98MOL0     H13186   3.007   3.469   8.263 -1.3275 -1.4397  0.6754
   98MOL0     H13187   2.889   3.400   8.140 -1.3550  2.2768  1.2213
   98MOL0     H13188   3.012   3.681   8.128  0.5786 -0.8014  1.0578
   98MOL0     H13189   2.860   3.645   8.203  0.3528 -0.5227  0.7767
   98MOL0     H13190   2.832   3.871   8.115 -2.1170  4.7882  0.3155
   98MOL0     H13191   2.747   4.065   8.145 -1.8514 -2.2767  2.1085
   98MOL0     H13192   2.725   4.153   7.993 -0.4812  0.7040  0.8284
   98MOL0     H13193   2.590   4.102   8.102  1.3133  2.1375  1.8301
   98MOL0     H13194   2.421   4.133   7.550 -0.0178 -0.2478 -0.5679
   98MOL0     H13195   2.234   4.229   7.421  3.3931 -1.7493  0.2406
   98MOL0     H13196   1.847   4.077   7.503 -0.1644 -0.4713 -0.7458
   98MOL0     H13197   1.835   4.250   7.575  2.2682 -2.1896  2.3801
   98MOL0     H13198   1.786   4.331   7.357  1.0688 -0.0659 -0.4199
   98MOL0     H13199   1.841   4.190   7.274  1.8429  0.3292  0.4940
   98MOL0     H13200   1.585   4.229   7.450 -2.5679  0.1951 -0.6875
   98MOL0     H13201   1.642   4.070   7.387  0.1764  0.1713  0.2189
   98MOL0     H13202   1.574   4.318   7.213 -0.0702  0.5062  0.8787
   98MOL0     H13203   1.593   4.147   7.157  1.3791  2.1147 -1.4942
   98MOL0     H13204   1.364   4.275   7.312  0.9638  1.1060 -0.3188
   98MOL0     H13205   1.393   4.098   7.319  0.5631 -2.3915 -2.7598
   98MOL0     H13206   1.376   4.236   7.055 -1.7454  0.2400  0.4330
   98MOL0     H13207   1.385   4.060   7.106 -0.1242 -1.0162  0.5745
   98MOL0     H13208   1.178   4.256   7.193 -2.0438 -0.8511  0.2007
   98MOL0     H13209   1.163   4.085   7.216 -1.9795  1.7146  0.4506
   98MOL0     H13210   1.164   4.058   6.962  3.4356  0.7479  0.6151
   98MOL0     H13211   1.159   4.238   6.958  0.9549  0.1631 -0.1633
   98MOL0     H13212   1.959   4.074   7.707  0.4982  2.9569 -0.3328
   98MOL0     H13213   2.149   3.996   7.845  1.3955 -1.6640 -0.2197
   98MOL0     H13214   2.508   3.757   7.746 -0.0007  0.1306 -1.3996
   98MOL0     H13215   2.671   3.595   7.817 -0.5043 -0.2146  0.0057
   98MOL0     H13216   4.602   3.213   7.953 -0.1658  0.3316 -0.3947
   98MOL0     H13217   4.829   3.275   7.966  2.7689 -1.2514  0.9556
   98MOL0     H13218   5.229   3.173   8.025  1.6131 -1.9031 -0.5819
   98MOL0     H13219   5.483   3.216   8.064  0.4519 -2.9710 -2.1733
   98MOL0     H13220   5.654   3.185   7.834  2.2309 -0.9707  2.2963
   98MOL0     H13221   5.689   3.316   7.721  0.8080 -1.2501 -1.1632
   98MOL0     H13222   5.915   3.221   7.783  3.3467  1.8787  0.2154
   98MOL0     H13223   5.859   3.200   7.946  1.3779 -1.1232 -1.2953
   98MOL0     H13224   5.881   3.444   8.002  1.1089  0.9267  0.0823
   98MOL0     H13225   5.879   3.491   7.835 -2.2075  0.2345  1.1184
   98MOL0     H13226   6.118   3.353   7.843 -0.5538 -0.4306 -0.7446
   98MOL0     H13227   6.074   3.358   8.018 -1.5017 -0.0708  0.1959
   98MOL0     H13228   6.244   3.732   7.967  0.8230 -0.8228 -1.9428
   98MOL0     H13229   5.483   3.469   7.717  1.2816 -0.8619  0.1248
   98MOL0     H13230   5.252   3.429   7.674 -0.5524  2.5199  2.4857
   99MOL0     O13231   7.150   8.786   0.222  0.5897  0.0965  0.2629
   99MOL0     C13232   7.218   8.782   0.121  0.0661 -0.3244  0.1169
   99MOL0     O13233   7.190   8.704   0.012  0.4808 -0.4053  0.1631
   99MOL0     C13234   7.081   8.627   0.009 -0.9287  0.8617  0.2530
   99MOL0     C13235   6.962   8.668  -0.050  0.4141  0.0561  0.1223
   99MOL0     C13236   6.852   8.582  -0.033  0.2768  0.2857  0.1030
   99MOL0     C13237   6.852   8.456   0.024 -0.3661  0.4479  0.4682
   99MOL0     O13238   6.729   8.391   0.020 -0.0799 -0.2635  0.4768
   99MOL0     C13239   6.740   8.255   0.060 -1.1114 -0.3680  0.2251
   99MOL0     C13240   6.601   8.185   0.032  0.5132 -0.8960 -0.1697
   99MOL0     C13241   6.571   8.152  -0.121 -0.1209 -0.3699 -0.2516
   99MOL0     C13242   6.429   8.099  -0.139 -0.1103 -0.9326  0.0662
   99MOL0     C13243   6.357   8.137  -0.273 -0.3347  0.5987  0.9101
   99MOL0     C13244   6.226   8.072  -0.288  0.0725  0.9090  1.2114
   99MOL0     C13245   6.132   8.113  -0.174 -1.0484 -0.5818 -0.3237
   99MOL0     C13246   5.989   8.071  -0.200  0.7142 -0.5547  0.3722
   99MOL0     N13247   5.936   8.136  -0.321 -0.4280  0.5722  0.4290
   99MOL0     C13248   5.877   8.260  -0.330 -0.1309  0.1324 -0.1825
   99MOL0     C13249   5.800   8.258  -0.443 -0.4408 -0.3071  0.1989
   99MOL0     C13250   5.693   8.358  -0.475 -1.2147 -0.0066 -0.4375
   99MOL0     C13251   5.559   8.294  -0.512  0.4774 -0.8085  0.6531
   99MOL0     C13252   5.507   8.352  -0.646  0.2747  0.0586  0.0936
   99MOL0     C13253   5.372   8.291  -0.685 -0.0911  0.0320  0.0224
   99MOL0     O13254   5.284   8.298  -0.568 -0.8328 -0.3072  0.0491
   99MOL0     C13255   5.164   8.230  -0.572  0.0211  0.5480  0.6082
   99MOL0     C13256   5.116   8.173  -0.689 -0.4154  0.4778  0.9911
   99MOL0     C13257   4.995   8.104  -0.700  0.1724  0.1624  0.8106
   99MOL0     C13258   4.952   8.065  -0.840 -0.6172  0.4750 -0.4618
   99MOL0     C13259   4.910   8.091  -0.587 -0.0847 -0.1985 -0.2864
   99MOL0     C13260   4.768   8.046  -0.585  0.2588  0.4735  0.1094
   99MOL0     O13261   4.705   8.067  -0.466 -0.5761 -0.2283 -0.4141
   99MOL0     C13262   4.574   8.029  -0.452  0.3785 -0.4855  0.0389
   99MOL0     C13263   4.551   7.895  -0.420 -0.7992 -0.0150 -0.0874
   99MOL0     C13264   4.425   7.848  -0.402 -0.4818  0.2764  0.2674
   99MOL0     C13265   4.310   7.926  -0.422 -0.9460  0.2029  0.6089
   99MOL0     O13266   4.189   7.862  -0.414 -0.4030 -0.1528 -0.3330
   99MOL0     C13267   4.099   7.934  -0.322 -1.0124 -0.6483  0.3936
   99MOL0     C13268   3.974   7.850  -0.292 -0.3901  0.5636  0.2367
   99MOL0     C13269   4.013   7.726  -0.213  0.5999 -1.2848  0.1405
   99MOL0     C13270   3.892   7.630  -0.210 -0.1490  0.0412  0.1976
   99MOL0     C13271   3.777   7.679  -0.126  1.1264 -0.0267 -0.9707
   99MOL0     C13272   3.677   7.566  -0.109 -0.8505 -0.1758  0.4245
   99MOL0     C13273   3.543   7.607  -0.033  0.7613  0.1799  0.0701
   99MOL0     C13274   3.436   7.489  -0.048  0.2947 -0.1309 -0.1311
   99MOL0    Cl13275   3.493   7.345   0.018 -0.3336  0.0798  0.2802
   99MOL0     C13276   4.330   8.062  -0.456  0.1348  0.0702 -0.2216
   99MOL0     C13277   4.460   8.113  -0.478  0.7480  0.1151  0.8055
   99MOL0     O13278   4.708   8.019  -0.696 -0.0380  0.1445 -0.3294
   99MOL0     C13279   4.973   8.140  -0.461  0.0791  0.0034  0.6857
   99MOL0     C13280   5.091   8.213  -0.464  0.2593  0.0700  0.1466
   99MOL0     N13281   5.822   8.136  -0.501 -0.2332 -0.4893  0.0074
   99MOL0     N13282   5.898   8.060  -0.429  0.4172 -0.2918 -0.5450
   99MOL0     C13283   6.974   8.421   0.088 -1.1531  0.3870  0.4832
   99MOL0     C13284   7.087   8.506   0.084  0.1891 -0.6145 -0.6571
   99MOL0     C13285   7.351   8.858   0.138 -0.4191  1.1936  1.3277
   99MOL0     C13286   7.448   8.848   0.038 -0.2812  0.0884  0.4103
   99MOL0     C13287   7.573   8.896   0.061  0.4080 -0.0837 -0.1481
   99MOL0     C13288   7.602   8.985   0.164  0.3377  0.3002  0.2571
   99MOL0     O13289   7.735   9.026   0.184  0.5485 -0.2764  0.4566
   99MOL0     C13290   7.779   9.046   0.314  0.3562  0.0080 -0.8422
   99MOL0     C13291   7.918   9.093   0.319 -0.2591  0.7233 -0.7108
   99MOL0     C13292   7.970   9.101   0.462 -0.3505  0.1795 -0.2004
   99MOL0     C13293   8.112   9.161   0.468 -0.1736  0.5049 -0.0630
   99MOL0     C13294   8.173   9.124   0.598  0.3578 -0.1699  0.2037
   99MOL0     C13295   8.213   9.076   0.703 -0.2153  0.6061 -0.9905
   99MOL0     C13296   7.502   9.002   0.257  0.3041  0.8158 -0.0850
   99MOL0     C13297   7.375   8.949   0.241  0.2705 -0.4431 -0.4055
   99MOL0     H13298   6.959   8.766  -0.096 -0.7312  0.6596  1.3944
   99MOL0     H13299   6.761   8.624  -0.074  0.9861  1.2070 -0.5839
   99MOL0     H13300   6.813   8.195   0.005 -2.1045 -1.3602 -0.0635
   99MOL0     H13301   6.757   8.245   0.167  3.1948 -0.8453 -0.3409
   99MOL0     H13302   6.582   8.088   0.078 -1.6711 -0.2157  0.4654
   99MOL0     H13303   6.528   8.258   0.068  3.2033  2.6589 -1.3134
   99MOL0     H13304   6.571   8.246  -0.176 -0.8099 -0.2459 -0.0403
   99MOL0     H13305   6.648   8.089  -0.168 -0.1519 -1.7175  1.3951
   99MOL0     H13306   6.442   7.991  -0.152 -0.7320 -0.6597 -3.8894
   99MOL0     H13307   6.363   8.128  -0.056 -1.6895 -2.0064 -0.7683
   99MOL0     H13308   6.336   8.244  -0.269  3.5521  1.5304  0.5822
   99MOL0     H13309   6.433   8.124  -0.352 -0.7412  0.4027  0.5464
   99MOL0     H13310   6.184   8.096  -0.386  0.2881 -2.9204  0.0130
   99MOL0     H13311   6.233   7.963  -0.299  0.4555  0.8903  1.6635
   99MOL0     H13312   6.163   8.065  -0.080 -0.1219 -1.9788 -1.3131
   99MOL0     H13313   6.136   8.221  -0.158  2.3728 -0.6280 -0.1404
   99MOL0     H13314   5.918   8.080  -0.116 -0.7364 -1.2337 -0.7228
   99MOL0     H13315   5.997   7.964  -0.222 -0.9066 -0.5314 -0.5580
   99MOL0     H13316   5.889   8.338  -0.255 -3.4011  1.3502 -0.7633
   99MOL0     H13317   5.690   8.436  -0.399 -1.4210 -1.7442  1.4082
   99MOL0     H13318   5.731   8.410  -0.564 -2.0427 -0.2049 -0.9167
   99MOL0     H13319   5.497   8.328  -0.429 -0.2594  0.2781 -0.3030
   99MOL0     H13320   5.560   8.186  -0.526 -1.1233 -0.6436 -1.1893
   99MOL0     H13321   5.563   8.314  -0.731  0.2303  0.7411 -0.2474
   99MOL0     H13322   5.498   8.461  -0.642 -1.2380 -0.0650  1.4913
   99MOL0     H13323   5.391   8.185  -0.706 -1.0367 -0.2528  0.5464
   99MOL0     H13324   5.322   8.334  -0.772 -3.8691 -0.1518  1.9074
   99MOL0     H13325   5.161   8.205  -0.783 -0.3597  2.3082  1.5902
   99MOL0     H13326   5.037   8.077  -0.908  0.7051  5.0992  1.5930
   99MOL0     H13327   4.915   7.962  -0.844 -1.2691  0.4482  3.0603
   99MOL0     H13328   4.881   8.142  -0.872  1.9919  3.8040  1.1192
   99MOL0     H13329   4.645   7.843  -0.402 -0.4740  1.0302  1.4026
   99MOL0     H13330   4.409   7.743  -0.378  2.3785 -0.3742 -0.2801
   99MOL0     H13331   4.147   7.970  -0.231  0.5865  0.8062 -0.9327
   99MOL0     H13332   4.065   8.029  -0.367 -2.4377 -1.9294 -1.4170
   99MOL0     H13333   3.903   7.912  -0.238  0.1580  2.2766 -0.9272
   99MOL0     H13334   3.934   7.813  -0.387 -0.4570 -0.3933  0.6245
   99MOL0     H13335   4.040   7.768  -0.116  2.4927  3.0897 -2.0013
   99MOL0     H13336   4.102   7.674  -0.249 -0.0909 -2.0640 -0.5117
   99MOL0     H13337   3.858   7.604  -0.311 -0.9125  1.8201 -0.0580
   99MOL0     H13338   3.932   7.538  -0.167  1.2058  0.8693  0.7823
   99MOL0     H13339   3.717   7.757  -0.174 -0.9314 -1.2014 -0.4531
   99MOL0     H13340   3.816   7.716  -0.031 -1.3740  0.6584 -0.1165
   99MOL0     H13341   3.656   7.536  -0.213  0.1924 -0.4515  0.2755
   99MOL0     H13342   3.733   7.481  -0.069  1.9922  0.7460 -1.2898
   99MOL0     H13343   3.503   7.701  -0.071  1.2836  0.3693 -0.0042
   99MOL0     H13344   3.555   7.612   0.076 -0.1684  0.2990  0.1762
   99MOL0     H13345   3.416   7.465  -0.152 -1.5238  0.0524  0.1367
   99MOL0     H13346   3.344   7.516   0.005 -0.8759 -0.2404 -2.0197
   99MOL0     H13347   4.249   8.128  -0.487  0.4718  1.4429  1.6397
   99MOL0     H13348   4.480   8.210  -0.522  0.9178 -0.5574 -0.6601
   99MOL0     H13349   4.930   8.118  -0.364 -1.1512  0.6942  0.3121
   99MOL0     H13350   5.134   8.255  -0.374  2.5227  0.9262 -1.2359
   99MOL0     H13351   6.985   8.328   0.144  2.1374 -0.9056 -1.9702
   99MOL0     H13352   7.174   8.495   0.148 -1.5072  0.6010  2.0289
   99MOL0     H13353   7.422   8.801  -0.057  1.2398  0.8144 -0.4085
   99MOL0     H13354   7.641   8.881  -0.022  1.0866 -1.2910  0.6053
   99MOL0     H13355   7.729   9.134   0.356  2.1123  0.1459  1.1249
   99MOL0     H13356   7.768   8.961   0.382 -2.0004 -0.6959 -1.9946
   99MOL0     H13357   7.922   9.188   0.265 -0.5636  0.7257 -0.7281
   99MOL0     H13358   7.977   9.018   0.266 -0.7310 -1.5285  1.7520
   99MOL0     H13359   7.985   8.995   0.486 -2.6285 -0.9580 -3.2264
   99MOL0     H13360   7.904   9.155   0.531  2.0196  1.3915  1.2593
   99MOL0     H13361   8.099   9.269   0.458  1.4589  0.7937  0.5901
   99MOL0     H13362   8.170   9.134   0.380  0.4802  1.8674 -0.0796
   99MOL0     H13363   8.218   9.026   0.798  0.3864  0.0374 -1.3112
   99MOL0     H13364   7.524   9.058   0.347 -0.2391 -1.5555  1.6088
   99MOL0     H13365   7.292   8.969   0.307 -0.1283  0.0572 -1.0548
  100MOL0     O13366   9.419   2.707  10.025  0.6213 -0.2431  0.0509
  100MOL0     C13367   9.494   2.773   9.952  0.1307 -0.1012  1.2681
  100MOL0     O13368   9.458   2.889   9.881 -1.3979 -0.1385 -0.1122
  100MOL0     C13369   9.337   2.945   9.903  0.0488  0.4978 -0.2250
  100MOL0     C13370   9.320   3.061   9.986 -0.3479  1.0792  0.5221
  100MOL0     C13371   9.201   3.101  10.044  0.9403  0.0408  0.4579
  100MOL0     C13372   9.090   3.022  10.025 -0.5969  0.5144 -1.1281
  100MOL0     O13373   8.977   3.056  10.103 -0.4683  0.4791  0.8118
  100MOL0     C13374   8.849   2.984  10.068  0.5377  0.9042 -0.4541
  100MOL0     C13375   8.731   3.038  10.153 -0.1984  0.2465 -0.1966
  100MOL0     C13376   8.733   2.983  10.294 -0.4980  0.6774  0.4801
  100MOL0     C13377   8.669   3.077  10.395  0.4087  0.4021  0.4797
  100MOL0     C13378   8.527   3.104  10.370  0.0035  0.2508 -0.2108
  100MOL0     C13379   8.449   3.177  10.490 -0.4910  0.2719  0.5046
  100MOL0     C13380   8.319   3.233  10.440  0.2196  0.0705  1.3661
  100MOL0     C13381   8.208   3.130  10.467 -0.1464 -0.3655  0.0061
  100MOL0     N13382   8.080   3.185  10.429 -0.0573 -0.4133  0.1178
  100MOL0     C13383   8.046   3.226  10.303  0.7064  0.9028  1.3577
  100MOL0     C13384   7.920   3.268  10.318 -1.2498 -0.1353 -0.0214
  100MOL0     C13385   7.831   3.330  10.209 -0.2229 -0.0296  0.4179
  100MOL0     C13386   7.852   3.488  10.210  0.8981 -0.0207  0.1260
  100MOL0     C13387   7.745   3.566  10.139  0.3360 -0.6313  0.9496
  100MOL0     C13388   7.610   3.570  10.199  0.3096  0.0831 -0.5019
  100MOL0     O13389   7.519   3.634  10.113 -0.1294 -0.5391  0.0229
  100MOL0     C13390   7.390   3.656  10.156  0.3971  0.1792 -0.9344
  100MOL0     C13391   7.329   3.591  10.263  0.8024  0.0965 -0.2072
  100MOL0     C13392   7.191   3.610  10.290 -0.4151  0.9716 -0.1659
  100MOL0     C13393   7.147   3.536  10.413  0.2343  0.5525  0.5210
  100MOL0     C13394   7.110   3.693  10.209 -0.0369  0.4089 -1.4515
  100MOL0     C13395   6.964   3.705  10.232  0.0310 -0.7329 -0.4833
  100MOL0     O13396   6.902   3.785  10.146  0.0944  0.4061  0.4213
  100MOL0     C13397   6.766   3.824  10.160  0.6658 -0.2474  0.4047
  100MOL0     C13398   6.700   3.845  10.037  0.2597  0.4521  0.2630
  100MOL0     C13399   6.559   3.863  10.038  0.0857  0.1757  0.5905
  100MOL0     C13400   6.494   3.887  10.156 -0.9407 -0.1556 -0.0887
  100MOL0     O13401   6.360   3.913  10.144 -0.1726 -0.2051  0.0180
  100MOL0     C13402   6.306   3.989  10.258  0.0390 -0.5243 -0.0221
  100MOL0     C13403   6.158   4.025  10.224  0.3227 -0.4151 -1.2530
  100MOL0     C13404   6.116   4.144  10.309  0.1944 -0.0481 -0.0504
  100MOL0     C13405   6.146   4.283  10.260  1.0116  0.0264 -1.2304
  100MOL0     C13406   6.068   4.396  10.335 -0.8743  0.5766 -0.2217
  100MOL0     C13407   6.107   4.537  10.279 -0.3647  0.7251  0.0459
  100MOL0     C13408   6.252   4.569  10.284 -0.7202  0.5634  0.4330
  100MOL0     C13409   6.299   4.712  10.238 -0.8971  0.7078 -0.4039
  100MOL0    Cl13410   6.318   4.710  10.067 -0.3289  0.1604  0.0613
  100MOL0     C13411   6.556   3.863  10.281  0.1140 -0.6540 -0.0161
  100MOL0     C13412   6.692   3.832  10.282  0.2856 -0.2784  0.1071
  100MOL0     O13413   6.910   3.632  10.314 -0.6337  0.2720 -0.7123
  100MOL0     C13414   7.176   3.757  10.107 -0.7830 -0.0311  0.4698
  100MOL0     C13415   7.307   3.742  10.077 -0.5565  0.4917 -0.1944
  100MOL0     N13416   7.891   3.267  10.452  0.0057  0.6352 -0.0206
  100MOL0     N13417   7.980   3.210  10.519 -0.1254  0.7394  0.4292
  100MOL0     C13418   9.099   2.917   9.931 -0.2801  0.2202  0.6026
  100MOL0     C13419   9.222   2.875   9.869  0.4638 -0.2679  0.4343
  100MOL0     C13420   9.637   2.728   9.926  0.6434 -0.5842 -0.0218
  100MOL0     C13421   9.684   2.609   9.979 -0.4677 -0.0535  0.4911
  100MOL0     C13422   9.805   2.558   9.929 -0.4401 -0.0794 -0.2201
  100MOL0     C13423   9.895   2.639   9.855  0.4984  0.1768  0.6993
  100MOL0     O13424  10.007   2.592   9.794 -0.3978 -0.2223  0.1626
  100MOL0     C13425  10.063   2.467   9.835 -0.6517 -0.3559 -0.0780
  100MOL0     C13426  10.214   2.445   9.797 -0.2124  0.3606  0.6281
  100MOL0     C13427  10.327   2.516   9.874 -0.3451  0.6679 -0.8935
  100MOL0     C13428  10.465   2.457   9.816 -1.0608 -1.2805 -0.4182
  100MOL0     C13429  10.544   2.576   9.773 -0.5442 -0.2047 -0.2240
  100MOL0     C13430  10.597   2.680   9.744 -0.3915  0.6211 -0.2373
  100MOL0     C13431   9.857   2.770   9.830  0.2224  0.1312  0.1994
  100MOL0     C13432   9.725   2.815   9.854  0.0908 -0.4600 -0.0673
  100MOL0     H13433   9.408   3.121  10.006  1.4377 -1.4132  0.6174
  100MOL0     H13434   9.183   3.189  10.104 -2.7575 -0.1785 -0.0727
  100MOL0     H13435   8.829   2.998   9.961  2.3791  1.6072 -0.7503
  100MOL0     H13436   8.858   2.878  10.094 -2.9377  0.6844  0.4010
  100MOL0     H13437   8.738   3.147  10.149  1.1943  0.2387  1.0116
  100MOL0     H13438   8.635   3.007  10.112 -0.1158  0.7737 -0.8145
  100MOL0     H13439   8.673   2.891  10.284 -0.6844  0.8290  0.2038
  100MOL0     H13440   8.833   2.958  10.330  0.2934  2.5617 -0.3241
  100MOL0     H13441   8.678   3.025  10.491 -0.6945 -1.2828 -0.2751
  100MOL0     H13442   8.732   3.167  10.395  1.2083 -0.1472  0.5982
  100MOL0     H13443   8.516   3.161  10.277  0.0479  0.4523 -0.0916
  100MOL0     H13444   8.473   3.010  10.355  1.2969 -0.6688  0.6680
  100MOL0     H13445   8.438   3.110  10.576 -1.8718 -0.2384 -0.0426
  100MOL0     H13446   8.521   3.254  10.519  1.7639 -1.7736  0.6543
  100MOL0     H13447   8.302   3.324  10.498 -0.8523  1.2059 -0.6142
  100MOL0     H13448   8.328   3.267  10.337 -1.1336  2.2613  1.8982
  100MOL0     H13449   8.206   3.107  10.574  0.1436  1.9909  0.5583
  100MOL0     H13450   8.229   3.036  10.414  0.2128 -1.5736  2.1460
  100MOL0     H13451   8.101   3.232  10.209 -0.1133  0.8785  0.8704
  100MOL0     H13452   7.848   3.288  10.109 -2.4392  1.1192 -0.5070
  100MOL0     H13453   7.726   3.303  10.224  0.5171 -1.7238  3.3649
  100MOL0     H13454   7.954   3.517  10.184  0.0312  1.3754 -2.0815
  100MOL0     H13455   7.822   3.518  10.310 -3.8667 -0.7816 -0.8240
  100MOL0     H13456   7.736   3.518  10.041  0.6540  0.9166  0.1209
  100MOL0     H13457   7.774   3.671  10.131  0.6704 -0.8134 -0.5808
  100MOL0     H13458   7.620   3.626  10.292 -3.9327 -0.5776  0.5446
  100MOL0     H13459   7.577   3.468  10.221  2.1128 -0.2161  1.0677
  100MOL0     H13460   7.382   3.524  10.330 -2.6980 -1.7990  0.9169
  100MOL0     H13461   7.087   3.597  10.481 -0.6395 -0.3784  0.6170
  100MOL0     H13462   7.084   3.450  10.389  1.4371  0.1108 -1.3299
  100MOL0     H13463   7.230   3.488  10.466 -0.7519 -2.0984 -0.1571
  100MOL0     H13464   6.764   3.834   9.950  2.9269  0.3702  2.1015
  100MOL0     H13465   6.505   3.859   9.944 -3.2462 -4.9704  2.2819
  100MOL0     H13466   6.304   3.923  10.345 -0.8840 -0.9260 -0.3409
  100MOL0     H13467   6.358   4.082  10.285 -1.4641 -0.1571  1.8310
  100MOL0     H13468   6.145   4.034  10.116 -0.5660 -0.4249 -1.1553
  100MOL0     H13469   6.096   3.940  10.251 -0.4231  0.4561 -0.1304
  100MOL0     H13470   6.173   4.144  10.403 -0.6130 -0.9385  0.4570
  100MOL0     H13471   6.009   4.146  10.328  0.6054  2.8363  2.9663
  100MOL0     H13472   6.254   4.293  10.260  1.4292 -0.7397  5.0377
  100MOL0     H13473   6.113   4.285  10.155  0.4471 -1.8578 -1.1209
  100MOL0     H13474   6.101   4.401  10.439  0.5713  2.3403 -0.7016
  100MOL0     H13475   5.960   4.386  10.343 -0.9255  2.4442  3.5391
  100MOL0     H13476   6.068   4.544  10.177 -0.7871  0.9494  0.2212
  100MOL0     H13477   6.053   4.613  10.337 -1.8025  0.8061 -1.3280
  100MOL0     H13478   6.307   4.495  10.225  0.4383  1.0789  0.8276
  100MOL0     H13479   6.282   4.575  10.389  0.3020  1.7803  0.0996
  100MOL0     H13480   6.391   4.734  10.291 -1.9101  3.0018  0.5189
  100MOL0     H13481   6.224   4.787  10.266  0.2197  1.3713  0.8692
  100MOL0     H13482   6.498   3.859  10.372  0.8818  1.6939  0.6383
  100MOL0     H13483   6.733   3.817  10.381 -0.9924 -0.9700  0.5549
  100MOL0     H13484   7.125   3.830  10.044  0.1714  1.4848  1.3797
  100MOL0     H13485   7.352   3.802   9.998  2.4119  0.8162  1.5602
  100MOL0     H13486   9.006   2.866   9.908  0.8237 -1.1085 -1.2227
  100MOL0     H13487   9.224   2.784   9.810  2.9496 -0.0970  0.1141
  100MOL0     H13488   9.622   2.544  10.039  0.0679  0.1490  1.2841
  100MOL0     H13489   9.818   2.454   9.955  1.7756  0.9955  3.9220
  100MOL0     H13490  10.060   2.466   9.944 -2.5528  0.1113 -0.0900
  100MOL0     H13491  10.003   2.388   9.788 -1.0735 -0.6957  0.9829
  100MOL0     H13492  10.226   2.475   9.692 -0.3140 -1.7156 -0.0283
  100MOL0     H13493  10.224   2.337   9.803  2.5669  0.4884 -0.2531
  100MOL0     H13494  10.326   2.481   9.978  1.6358  0.7721 -0.8062
  100MOL0     H13495  10.310   2.624   9.877  1.6315  1.0202  1.7487
  100MOL0     H13496  10.441   2.398   9.727 -0.3425 -3.2984  0.6634
  100MOL0     H13497  10.521   2.399   9.890 -1.7851 -0.5234  0.7511
  100MOL0     H13498  10.639   2.771   9.707 -0.4449  0.5154 -0.5640
  100MOL0     H13499   9.921   2.843   9.782  1.1182 -1.6697 -1.4924
  100MOL0     H13500   9.688   2.913   9.826 -0.8526 -1.3760 -2.2504
  101MOL0     O13501   6.957   1.875   0.134  0.2638  0.2393  0.3465
  101MOL0     C13502   7.051   1.949   0.166 -0.5660  0.0741 -0.5089
  101MOL0     O13503   7.049   2.085   0.181 -0.2267  0.6344  0.3002
  101MOL0     C13504   6.926   2.146   0.148 -0.1140 -0.0499  0.1228
  101MOL0     C13505   6.898   2.199   0.020 -0.4798 -0.1014 -0.6992
  101MOL0     C13506   6.773   2.249  -0.008 -0.2116  0.0797 -0.6603
  101MOL0     C13507   6.674   2.248   0.084 -0.2210  0.5765 -0.5698
  101MOL0     O13508   6.551   2.299   0.047  0.1341 -0.2135  1.0084
  101MOL0     C13509   6.440   2.263   0.123 -0.0362  0.0025  0.2717
  101MOL0     C13510   6.312   2.329   0.069  0.0089 -0.9802  0.2731
  101MOL0     C13511   6.289   2.294  -0.076 -0.2545  0.7140  0.0468
  101MOL0     C13512   6.161   2.365  -0.135 -0.0402  0.3208  1.2920
  101MOL0     C13513   6.025   2.325  -0.075  0.4078  0.4368  0.2918
  101MOL0     C13514   5.915   2.432  -0.108 -0.0699 -0.4956  0.1287
  101MOL0     C13515   5.820   2.385  -0.222  0.1687  0.2469 -0.6417
  101MOL0     C13516   5.680   2.463  -0.201 -0.3354  0.5805 -0.1073
  101MOL0     N13517   5.586   2.434  -0.309 -0.5945  0.3066 -0.0663
  101MOL0     C13518   5.476   2.350  -0.310 -1.3185  0.1987 -0.0902
  101MOL0     C13519   5.435   2.349  -0.434  0.2995 -0.9580 -1.3603
  101MOL0     C13520   5.309   2.282  -0.474  0.5184 -0.0926  0.0031
  101MOL0     C13521   5.230   2.376  -0.565  0.1692  0.1370 -0.3552
  101MOL0     C13522   5.099   2.306  -0.609 -0.9189 -0.1536  0.2447
  101MOL0     C13523   5.012   2.408  -0.677  1.4651 -0.2114 -0.1633
  101MOL0     O13524   4.967   2.507  -0.584 -1.3720  0.0723  0.0321
  101MOL0     C13525   4.868   2.597  -0.604 -0.4393  0.8338 -1.1205
  101MOL0     C13526   4.850   2.694  -0.509 -1.4431  0.0878  0.9129
  101MOL0     C13527   4.744   2.783  -0.521 -0.1665  0.8009 -1.1353
  101MOL0     C13528   4.726   2.882  -0.413 -0.2030 -0.4917 -0.6940
  101MOL0     C13529   4.685   2.801  -0.642  0.6257  0.2105  1.4099
  101MOL0     C13530   4.576   2.899  -0.666  0.0793  0.3519  0.0077
  101MOL0     O13531   4.542   2.912  -0.798  0.3102 -0.1146 -0.0897
  101MOL0     C13532   4.407   2.934  -0.826  0.0375 -0.7244  0.3452
  101MOL0     C13533   4.293   2.870  -0.767 -0.4496  0.0393 -0.9467
  101MOL0     C13534   4.161   2.900  -0.810  0.0639 -0.7033 -0.9029
  101MOL0     C13535   4.131   2.998  -0.905  0.4764 -0.2431  0.1371
  101MOL0     O13536   4.007   3.051  -0.942  0.3803  0.9485 -0.8932
  101MOL0     C13537   3.893   2.993  -0.873 -0.2242 -0.3157  0.2010
  101MOL0     C13538   3.775   3.078  -0.885  0.3657 -0.0489  0.3992
  101MOL0     C13539   3.714   3.068  -1.025 -0.2888  0.1565 -0.8252
  101MOL0     C13540   3.576   3.129  -1.020  0.7393 -0.4188  0.7625
  101MOL0     C13541   3.486   3.117  -1.156 -1.2184 -0.4033 -0.9097
  101MOL0     C13542   3.333   3.137  -1.127 -0.8863  0.5526 -0.2288
  101MOL0     C13543   3.243   3.108  -1.247 -0.1521  0.5156 -1.2342
  101MOL0     C13544   3.130   3.206  -1.250  0.1885  0.5610 -0.5749
  101MOL0    Cl13545   3.048   3.192  -1.410  0.2197  0.0466  0.1532
  101MOL0     C13546   4.241   3.060  -0.958 -0.4535  0.4587  0.8950
  101MOL0     C13547   4.372   3.024  -0.926  0.1784 -0.0564  1.0801
  101MOL0     O13548   4.507   2.933  -0.573 -1.0622 -0.3163 -0.4299
  101MOL0     C13549   4.708   2.704  -0.741  0.2590  0.1997 -0.1740
  101MOL0     C13550   4.796   2.603  -0.719  0.1232 -0.1882  1.6461
  101MOL0     N13551   5.513   2.437  -0.512  0.7281 -1.0897 -0.8705
  101MOL0     N13552   5.604   2.488  -0.433 -0.5578 -0.2751 -0.6640
  101MOL0     C13553   6.702   2.202   0.216  0.4373  0.5907  1.2952
  101MOL0     C13554   6.829   2.155   0.255 -0.2066  1.0954  0.9402
  101MOL0     C13555   7.176   1.879   0.191 -0.5296  0.0270  0.6160
  101MOL0     C13556   7.271   1.942   0.265  0.0169  0.4120 -0.1869
  101MOL0     C13557   7.399   1.885   0.286 -1.0926 -0.3674  0.1448
  101MOL0     C13558   7.427   1.752   0.233  0.3244 -0.1390 -0.2063
  101MOL0     O13559   7.546   1.680   0.255  0.0013  0.2044  0.3818
  101MOL0     C13560   7.643   1.749   0.328 -0.5751 -1.0138 -0.0526
  101MOL0     C13561   7.776   1.673   0.316 -0.7175  0.5861 -0.0999
  101MOL0     C13562   7.879   1.740   0.414  0.0532 -0.0998  0.3872
  101MOL0     C13563   7.950   1.632   0.493  0.4894  0.3912  0.1349
  101MOL0     C13564   8.033   1.538   0.413  0.0434  0.5598  0.0320
  101MOL0     C13565   8.093   1.453   0.349  0.9406  1.1532  0.9271
  101MOL0     C13566   7.324   1.683   0.163 -0.5518 -0.3450 -0.2802
  101MOL0     C13567   7.202   1.747   0.148 -0.1320  0.1661 -0.3142
  101MOL0     H13568   6.977   2.217  -0.052  2.3680  0.7474  2.3837
  101MOL0     H13569   6.750   2.285  -0.108  0.9159 -1.8987 -1.6841
  101MOL0     H13570   6.432   2.155   0.140  4.2961 -0.7845 -1.3795
  101MOL0     H13571   6.450   2.304   0.224  0.9324  1.4344 -0.3748
  101MOL0     H13572   6.233   2.296   0.137  0.6062 -0.2355  1.3522
  101MOL0     H13573   6.311   2.438   0.076 -0.9721 -0.8403 -1.5097
  101MOL0     H13574   6.373   2.326  -0.138  0.6695 -2.4710 -0.5600
  101MOL0     H13575   6.281   2.185  -0.083  2.8405  0.2733  1.4129
  101MOL0     H13576   6.165   2.474  -0.140 -3.1581  0.4872 -0.9543
  101MOL0     H13577   6.155   2.333  -0.240 -1.4860  2.1781  0.7540
  101MOL0     H13578   5.999   2.223  -0.105  0.2449  0.9461 -1.3742
  101MOL0     H13579   6.045   2.323   0.033 -0.5232  0.3371  0.4710
  101MOL0     H13580   5.860   2.441  -0.014 -3.0921 -0.9787 -1.4658
  101MOL0     H13581   5.950   2.531  -0.137 -1.4422  0.0543  0.2643
  101MOL0     H13582   5.871   2.412  -0.315 -1.7263 -0.4687 -1.9422
  101MOL0     H13583   5.805   2.276  -0.220  3.6872 -0.3867  1.5118
  101MOL0     H13584   5.693   2.570  -0.190 -2.0898  0.9195 -0.8570
  101MOL0     H13585   5.631   2.410  -0.118 -0.5974 -1.2385 -1.3523
  101MOL0     H13586   5.439   2.289  -0.228  2.0985  1.1910  2.4431
  101MOL0     H13587   5.335   2.192  -0.529 -1.4430  0.4596 -1.9889
  101MOL0     H13588   5.242   2.264  -0.389 -0.1838  1.3281 -0.2171
  101MOL0     H13589   5.298   2.398  -0.648 -1.1075  2.2552 -0.9084
  101MOL0     H13590   5.209   2.464  -0.504  2.8877  0.8146 -0.2458
  101MOL0     H13591   5.039   2.266  -0.527 -2.0334  0.5976 -0.1811
  101MOL0     H13592   5.123   2.224  -0.678 -1.5965  1.4872 -2.0784
  101MOL0     H13593   4.935   2.350  -0.728 -0.1595  2.8505 -1.4882
  101MOL0     H13594   5.070   2.470  -0.746  0.8209 -0.0031 -0.5232
  101MOL0     H13595   4.916   2.686  -0.423  0.1278  2.1506 -0.0183
  101MOL0     H13596   4.735   2.981  -0.460 -1.5949 -0.8732 -1.8530
  101MOL0     H13597   4.635   2.872  -0.353  0.4605  1.3152  0.6953
  101MOL0     H13598   4.809   2.880  -0.342 -0.6167  2.4940  0.0161
  101MOL0     H13599   4.309   2.791  -0.694 -3.4086 -0.4192 -0.6599
  101MOL0     H13600   4.076   2.849  -0.766 -1.8705  1.1604 -2.2852
  101MOL0     H13601   3.873   2.891  -0.907  0.1578 -0.7262  1.1964
  101MOL0     H13602   3.923   2.993  -0.768  1.9674  1.5734 -0.3502
  101MOL0     H13603   3.715   3.040  -0.803  0.0656  2.0140  1.2082
  101MOL0     H13604   3.790   3.187  -0.885 -2.5951  0.4573 -0.9027
  101MOL0     H13605   3.691   2.967  -1.059 -1.6832 -0.0367  0.5785
  101MOL0     H13606   3.777   3.116  -1.100  4.4684  3.3016  4.4354
  101MOL0     H13607   3.521   3.081  -0.939 -0.8141  0.9134  0.5336
  101MOL0     H13608   3.594   3.232  -0.989 -1.4458  0.7208 -1.4738
  101MOL0     H13609   3.503   3.019  -1.200  0.1496 -2.0925  2.9476
  101MOL0     H13610   3.524   3.198  -1.218  3.3274 -1.0130  0.7294
  101MOL0     H13611   3.312   3.071  -1.042  0.2413  1.0355  0.4447
  101MOL0     H13612   3.324   3.236  -1.081 -1.0879 -1.1622  3.8873
  101MOL0     H13613   3.201   3.008  -1.234  1.5513  0.0547  1.8764
  101MOL0     H13614   3.290   3.111  -1.345 -3.3536  3.0227 -2.9076
  101MOL0     H13615   3.165   3.307  -1.229 -2.5205  1.1906  1.4598
  101MOL0     H13616   3.070   3.171  -1.166  1.4201 -1.0325 -0.3126
  101MOL0     H13617   4.219   3.138  -1.031 -1.3106 -1.3993 -0.9498
  101MOL0     H13618   4.458   3.067  -0.976  0.2957  0.5035  1.7356
  101MOL0     H13619   4.666   2.705  -0.841  2.7163  2.0183 -1.3048
  101MOL0     H13620   4.801   2.530  -0.799 -2.8454  1.1342  0.0902
  101MOL0     H13621   6.624   2.200   0.291 -1.8828 -0.3644 -1.0274
  101MOL0     H13622   6.848   2.121   0.357 -0.3151 -0.2260  0.5375
  101MOL0     H13623   7.253   2.038   0.311 -1.4617 -1.5169  3.6979
  101MOL0     H13624   7.467   1.937   0.353 -1.8748 -0.7095  1.2360
  101MOL0     H13625   7.660   1.851   0.290 -0.8155 -0.6950  0.6717
  101MOL0     H13626   7.624   1.757   0.435 -3.0527  0.1131 -0.5058
  101MOL0     H13627   7.821   1.664   0.217 -0.1572  2.1351 -0.0147
  101MOL0     H13628   7.750   1.573   0.352 -0.6740  1.6579  3.3000
  101MOL0     H13629   7.820   1.799   0.484 -1.1206 -1.5325  0.6716
  101MOL0     H13630   7.953   1.794   0.354 -0.8597  0.2928 -0.4182
  101MOL0     H13631   7.873   1.581   0.552 -1.6571  0.6600 -2.2481
  101MOL0     H13632   8.024   1.676   0.561  1.1825 -2.1572  1.1792
  101MOL0     H13633   8.134   1.376   0.286  1.5658  0.1965  2.4489
  101MOL0     H13634   7.367   1.596   0.114 -0.0901  0.4569 -1.3315
  101MOL0     H13635   7.118   1.700   0.097 -0.0854  0.5383 -0.7400
  102MOL0     O13636   6.894   8.605   5.096 -0.0339  0.3263  0.8463
  102MOL0     C13637   6.902   8.481   5.117 -0.6758 -0.6588  0.5660
  102MOL0     O13638   6.796   8.384   5.107 -0.2054  0.0232 -0.6298
  102MOL0     C13639   6.667   8.429   5.098 -0.3214 -0.2864  0.3956
  102MOL0     C13640   6.624   8.530   5.008 -0.4229  0.3950  0.2347
  102MOL0     C13641   6.493   8.551   4.980 -0.3835  0.7186  0.0873
  102MOL0     C13642   6.398   8.473   5.052  0.1994 -0.0522  0.7840
  102MOL0     O13643   6.264   8.480   5.034 -0.2583 -0.5851  0.0818
  102MOL0     C13644   6.211   8.499   4.901 -0.4032  0.2571 -0.8099
  102MOL0     C13645   6.062   8.466   4.884 -0.8247  0.2559 -0.4801
  102MOL0     C13646   6.036   8.314   4.885 -0.1212  0.0717 -0.4293
  102MOL0     C13647   5.896   8.297   4.837 -0.1008 -0.0335  1.0717
  102MOL0     C13648   5.862   8.153   4.789  0.2368 -0.1390 -0.8864
  102MOL0     C13649   5.707   8.132   4.792 -0.6432 -0.3429  0.2580
  102MOL0     C13650   5.684   7.983   4.757  0.5767  0.4619 -0.0876
  102MOL0     C13651   5.533   7.963   4.753  0.1524  0.1607 -0.0314
  102MOL0     N13652   5.485   7.971   4.617 -0.1790 -0.4730  0.1854
  102MOL0     C13653   5.483   7.875   4.518  0.2602  0.0087  0.0583
  102MOL0     C13654   5.423   7.927   4.415 -0.1143  0.5237 -0.1716
  102MOL0     C13655   5.371   7.850   4.303  0.8680  0.5068 -0.3800
  102MOL0     C13656   5.239   7.788   4.346  0.5680  0.4679 -0.3421
  102MOL0     C13657   5.129   7.882   4.396 -0.2492  0.0067  0.2129
  102MOL0     C13658   4.993   7.819   4.422  0.1669  0.0394 -0.2604
  102MOL0     O13659   4.930   7.775   4.300  1.0578  0.3938  0.6211
  102MOL0     C13660   4.801   7.730   4.316 -0.1253 -0.1947 -0.3994
  102MOL0     C13661   4.750   7.640   4.212 -0.1717 -0.7324 -0.1024
  102MOL0     C13662   4.615   7.601   4.210  0.6167 -0.9161  0.4422
  102MOL0     C13663   4.574   7.517   4.084  0.4402  0.0882  0.1831
  102MOL0     C13664   4.528   7.651   4.314  0.0293 -0.1174  1.0337
  102MOL0     C13665   4.378   7.624   4.320  0.6875 -0.4784  0.2695
  102MOL0     O13666   4.333   7.517   4.257  0.7639  0.3242 -0.4882
  102MOL0     C13667   4.194   7.512   4.250 -0.5883 -0.2676  1.8468
  102MOL0     C13668   4.120   7.443   4.343 -0.5254  0.1396 -0.8092
  102MOL0     C13669   3.981   7.423   4.345 -0.4451 -0.1508 -0.4581
  102MOL0     C13670   3.908   7.499   4.255  0.3183 -0.5887 -0.5147
  102MOL0     O13671   3.769   7.495   4.242  0.7060  0.2667 -0.3368
  102MOL0     C13672   3.685   7.466   4.357  0.2129  0.2261  0.3160
  102MOL0     C13673   3.610   7.338   4.352  0.3719  0.3857  0.0344
  102MOL0     C13674   3.477   7.336   4.279  0.7965  0.1193  1.9324
  102MOL0     C13675   3.371   7.434   4.336 -0.3716  0.2933 -0.1294
  102MOL0     C13676   3.251   7.421   4.243  0.2756  0.2198  0.0238
  102MOL0     C13677   3.127   7.496   4.312  0.1697  0.1337  0.3264
  102MOL0     C13678   3.003   7.469   4.233 -0.4499 -0.8634  0.9807
  102MOL0     C13679   2.890   7.543   4.302 -0.2940 -0.4097 -0.6102
  102MOL0    Cl13680   2.738   7.516   4.213 -0.7610  0.0835 -0.4268
  102MOL0     C13681   3.978   7.563   4.152 -0.1885  0.2633  0.4842
  102MOL0     C13682   4.118   7.571   4.145  0.0638  0.3126 -0.3981
  102MOL0     O13683   4.304   7.707   4.380 -0.4224 -1.1505  0.0675
  102MOL0     C13684   4.584   7.735   4.415 -0.1417  0.1526  0.5632
  102MOL0     C13685   4.713   7.771   4.417  0.0111  0.1944 -0.9542
  102MOL0     N13686   5.396   8.054   4.449 -0.4463  0.0362  0.6115
  102MOL0     N13687   5.421   8.079   4.569  0.1675  0.0221 -0.6304
  102MOL0     C13688   6.436   8.379   5.153  0.6022  0.0115 -0.5329
  102MOL0     C13689   6.577   8.350   5.169 -0.8790  0.4456 -0.4445
  102MOL0     C13690   7.042   8.431   5.140 -0.5765  0.5625 -0.4427
  102MOL0     C13691   7.071   8.291   5.166  0.1555 -0.1191 -0.2483
  102MOL0     C13692   7.199   8.252   5.205  0.3876 -0.0362  0.0839
  102MOL0     C13693   7.305   8.343   5.200  0.7680  1.3481 -0.5541
  102MOL0     O13694   7.429   8.289   5.239 -0.8422 -0.8300  0.1794
  102MOL0     C13695   7.545   8.374   5.240  0.2439  0.7935  0.5866
  102MOL0     C13696   7.672   8.302   5.307  0.0624  0.9764  1.5326
  102MOL0     C13697   7.737   8.208   5.210  0.4189  0.0445  1.2491
  102MOL0     C13698   7.795   8.096   5.290 -0.0501 -0.1046 -0.2590
  102MOL0     C13699   7.868   7.998   5.198  0.1578 -0.4848 -0.1964
  102MOL0     C13700   7.934   7.930   5.129 -0.3282  0.7798 -0.3366
  102MOL0     C13701   7.281   8.478   5.165 -0.9781  0.5731  0.4813
  102MOL0     C13702   7.151   8.520   5.133  0.0715 -0.4166 -0.7240
  102MOL0     H13703   6.692   8.592   4.950  3.1218 -3.0496  0.3077
  102MOL0     H13704   6.467   8.627   4.907 -0.4829  1.4230  0.8507
  102MOL0     H13705   6.215   8.605   4.875  0.2711  0.8616  1.5232
  102MOL0     H13706   6.264   8.431   4.834  0.7711 -0.0730  0.4206
  102MOL0     H13707   6.001   8.516   4.959  0.9657  1.1394  0.4487
  102MOL0     H13708   6.029   8.512   4.790 -2.3151  0.8816  0.3164
  102MOL0     H13709   6.112   8.264   4.824  0.3982  0.9707 -0.5457
  102MOL0     H13710   6.040   8.280   4.989  1.6993  1.1436 -0.0950
  102MOL0     H13711   5.831   8.330   4.919  0.8794 -0.7247  2.1537
  102MOL0     H13712   5.865   8.366   4.758  3.5639  1.6084  0.8719
  102MOL0     H13713   5.902   8.141   4.688 -0.7218 -1.4110 -1.1453
  102MOL0     H13714   5.908   8.080   4.856  0.6208  1.0573  0.2009
  102MOL0     H13715   5.654   8.157   4.885 -1.3444 -1.9085  0.3078
  102MOL0     H13716   5.660   8.198   4.719  3.1398  1.6560 -0.6708
  102MOL0     H13717   5.731   7.954   4.663 -0.5041 -0.6665 -0.3100
  102MOL0     H13718   5.723   7.919   4.836 -0.7619 -0.2174  0.0637
  102MOL0     H13719   5.496   8.035   4.827  2.0512 -0.7553  1.9084
  102MOL0     H13720   5.499   7.865   4.788 -0.3204  0.3545  0.0730
  102MOL0     H13721   5.515   7.771   4.517 -2.5745 -0.9685  1.1560
  102MOL0     H13722   5.361   7.910   4.212 -1.5167 -0.5860 -0.9158
  102MOL0     H13723   5.433   7.763   4.279 -0.6308 -1.2835  1.7309
  102MOL0     H13724   5.258   7.718   4.429 -0.1455  0.0469 -0.5224
  102MOL0     H13725   5.186   7.731   4.269 -1.0348  0.9468  0.3669
  102MOL0     H13726   5.114   7.950   4.312  0.1381 -0.8657 -0.5867
  102MOL0     H13727   5.155   7.927   4.492  0.6140  2.4805 -1.1010
  102MOL0     H13728   4.942   7.905   4.465  1.7011  1.5397 -1.3234
  102MOL0     H13729   4.997   7.737   4.494 -0.8210 -1.2682 -1.6136
  102MOL0     H13730   4.819   7.620   4.131  1.4661 -0.9779  1.3013
  102MOL0     H13731   4.636   7.524   3.994 -2.2233 -2.1961 -2.0001
  102MOL0     H13732   4.562   7.413   4.115  0.0074 -0.7328 -2.5116
  102MOL0     H13733   4.475   7.554   4.057  1.2013  1.4900 -0.8270
  102MOL0     H13734   4.170   7.384   4.418 -1.1551 -2.7887 -2.5589
  102MOL0     H13735   3.939   7.362   4.424  2.7251 -0.7916  0.9075
  102MOL0     H13736   3.744   7.461   4.449  3.0005  3.5587 -1.0835
  102MOL0     H13737   3.616   7.546   4.386  1.4703  0.9629  1.3797
  102MOL0     H13738   3.680   7.265   4.310  2.0618  0.6883  2.1221
  102MOL0     H13739   3.585   7.305   4.454 -0.0893 -1.7591 -0.7271
  102MOL0     H13740   3.436   7.237   4.301  0.8322 -0.1641  0.7723
  102MOL0     H13741   3.489   7.357   4.173 -3.1270  0.1251  1.3521
  102MOL0     H13742   3.341   7.416   4.440  2.9531 -0.3914  0.8121
  102MOL0     H13743   3.415   7.534   4.342  0.3298 -0.0555  0.7795
  102MOL0     H13744   3.235   7.315   4.224  0.6746 -0.0664  1.1702
  102MOL0     H13745   3.261   7.480   4.152  0.9934  3.1080  1.8233
  102MOL0     H13746   3.119   7.449   4.411  3.7156  0.8476  1.0935
  102MOL0     H13747   3.142   7.604   4.318 -1.0919  0.4206 -1.1869
  102MOL0     H13748   2.973   7.364   4.229 -0.3253 -0.8750 -0.3705
  102MOL0     H13749   2.999   7.509   4.131 -1.0592 -1.1581  0.8858
  102MOL0     H13750   2.912   7.651   4.306  0.3647 -0.5619  0.5871
  102MOL0     H13751   2.887   7.501   4.403  2.4752 -0.5871 -0.5331
  102MOL0     H13752   3.938   7.604   4.060  3.4424 -0.3862 -1.5837
  102MOL0     H13753   4.166   7.624   4.063 -0.4945  1.4452 -0.0189
  102MOL0     H13754   4.518   7.774   4.491 -0.3743 -2.0630  1.5815
  102MOL0     H13755   4.746   7.827   4.503  0.1754 -0.6524 -0.4585
  102MOL0     H13756   6.365   8.324   5.214  1.3490 -1.0271 -0.5895
  102MOL0     H13757   6.605   8.282   5.249 -5.8672  0.5701  1.7829
  102MOL0     H13758   6.989   8.220   5.167  0.5207 -0.5722  1.3854
  102MOL0     H13759   7.222   8.149   5.227 -0.1288  0.2861  2.4103
  102MOL0     H13760   7.577   8.411   5.142  0.6531  2.0041  1.1613
  102MOL0     H13761   7.522   8.459   5.303 -1.9254  1.1165 -0.5524
  102MOL0     H13762   7.640   8.247   5.396 -4.2489  0.9449  0.2023
  102MOL0     H13763   7.755   8.368   5.336  2.0028 -1.0207  0.7902
  102MOL0     H13764   7.811   8.265   5.153  1.0613 -1.0486  0.9601
  102MOL0     H13765   7.660   8.172   5.141  0.0319  0.2342  1.5839
  102MOL0     H13766   7.723   8.038   5.350 -1.7188  2.9861  0.9293
  102MOL0     H13767   7.869   8.142   5.355 -1.0615 -0.8783  1.5204
  102MOL0     H13768   8.000   7.861   5.081 -2.1640  0.1654 -2.1514
  102MOL0     H13769   7.364   8.547   5.158  1.1783 -1.9583 -0.9331
  102MOL0     H13770   7.138   8.625   5.107 -1.9311  0.3403  2.7187
  103MOL0     O13771   1.909   7.264   7.927  0.3588  0.1203  0.3828
  103MOL0     C13772   1.933   7.178   7.843 -1.0271  0.9954 -0.1945
  103MOL0     O13773   1.852   7.142   7.730  0.4875  0.8899 -0.5516
  103MOL0     C13774   1.733   7.192   7.699  0.6118  0.0524  0.1082
  103MOL0     C13775   1.681   7.195   7.561  0.0830 -0.0781 -0.4311
  103MOL0     C13776   1.546   7.239   7.531  0.2981  0.1229  0.5405
  103MOL0     C13777   1.463   7.292   7.629 -0.5155 -0.6207  0.4614
  103MOL0     O13778   1.330   7.333   7.598  0.2685 -0.5450  0.0650
  103MOL0     C13779   1.267   7.429   7.679 -0.1077  0.6809  0.0669
  103MOL0     C13780   1.132   7.456   7.605  0.4759  0.0314  0.6385
  103MOL0     C13781   1.045   7.559   7.685  0.0141  0.0234  0.2804
  103MOL0     C13782   0.895   7.527   7.648 -0.6320 -0.3790  0.2397
  103MOL0     C13783   0.800   7.641   7.687 -0.3922 -0.5109 -0.0836
  103MOL0     C13784   0.654   7.609   7.658  0.1722  0.0683 -0.4159
  103MOL0     C13785   0.568   7.732   7.701 -0.7061  0.2093  0.9314
  103MOL0     C13786   0.430   7.685   7.697  0.0772  0.3707 -0.4413
  103MOL0     N13787   0.331   7.794   7.674  0.1510  0.1791 -0.0280
  103MOL0     C13788   0.293   7.837   7.551  0.4704 -0.6718 -0.2569
  103MOL0     C13789   0.203   7.938   7.582  0.0364 -0.5043  0.6448
  103MOL0     C13790   0.133   8.037   7.489  0.3434  0.8147 -0.4742
  103MOL0     C13791   0.066   7.972   7.361  0.1554 -0.0380  0.5691
  103MOL0     C13792   0.039   8.086   7.269 -0.0325 -0.7586  0.4229
  103MOL0     C13793  -0.025   8.040   7.135  0.1006  1.1058  0.1807
  103MOL0     O13794  -0.144   7.971   7.179 -1.0982  0.1990  0.0036
  103MOL0     C13795  -0.247   7.982   7.089  0.2058 -0.9037  0.3105
  103MOL0     C13796  -0.251   8.041   6.956 -0.2868 -0.4422  0.4667
  103MOL0     C13797  -0.371   8.041   6.883  0.7954 -0.3860  0.5034
  103MOL0     C13798  -0.375   8.095   6.739  0.3738 -0.9822  0.0309
  103MOL0     C13799  -0.487   7.977   6.935 -0.3768  0.6092  0.4226
  103MOL0     C13800  -0.622   7.977   6.870  0.1417 -0.5098 -0.7281
  103MOL0     O13801  -0.656   8.080   6.780  0.1318  0.2670 -0.5259
  103MOL0     C13802  -0.784   8.089   6.729 -0.0390 -0.4964 -0.2623
  103MOL0     C13803  -0.825   7.980   6.646  0.3543 -0.1355  0.8127
  103MOL0     C13804  -0.956   7.952   6.630 -0.4315 -0.6401 -0.2934
  103MOL0     C13805  -1.057   8.043   6.685 -0.3600 -0.4370 -0.8231
  103MOL0     O13806  -1.187   8.011   6.678 -0.1151 -0.1817 -0.3750
  103MOL0     C13807  -1.279   8.044   6.789 -0.3775  0.8271  0.5999
  103MOL0     C13808  -1.374   8.147   6.739  0.5532  0.0093  0.5280
  103MOL0     C13809  -1.460   8.102   6.619  0.6233  0.2650  0.2179
  103MOL0     C13810  -1.510   8.227   6.546  0.4421  0.1652 -0.5804
  103MOL0     C13811  -1.584   8.172   6.423  1.2537  0.3367  0.3241
  103MOL0     C13812  -1.670   8.281   6.356  0.9384  0.1812  0.2497
  103MOL0     C13813  -1.793   8.316   6.436 -0.3481  0.6007  0.0706
  103MOL0     C13814  -1.864   8.430   6.363 -0.8826  0.8235 -0.1928
  103MOL0    Cl13815  -1.962   8.377   6.221 -0.1228  0.0616  0.2649
  103MOL0     C13816  -1.017   8.154   6.758  0.3030 -0.2886 -0.3346
  103MOL0     C13817  -0.879   8.174   6.784  0.0952  0.4140 -0.3817
  103MOL0     O13818  -0.695   7.884   6.902  0.4110  0.0451  0.3346
  103MOL0     C13819  -0.477   7.913   7.057 -0.0210  0.4307  0.6873
  103MOL0     C13820  -0.361   7.918   7.135 -0.3789 -0.0802 -0.0121
  103MOL0     N13821   0.192   7.947   7.721 -0.7774 -0.7459  0.0224
  103MOL0     N13822   0.268   7.862   7.778 -0.0269  0.1240  0.6570
  103MOL0     C13823   1.512   7.290   7.763 -0.0822 -1.0395  0.2142
  103MOL0     C13824   1.648   7.246   7.797  0.5150  0.1408 -1.1051
  103MOL0     C13825   2.054   7.101   7.857 -0.0511  0.4009 -0.7012
  103MOL0     C13826   2.080   6.989   7.773  0.2068 -0.4350 -0.1311
  103MOL0     C13827   2.197   6.913   7.780 -0.2466  0.4619  1.1387
  103MOL0     C13828   2.294   6.941   7.877 -0.0408 -0.2312 -0.4487
  103MOL0     O13829   2.397   6.856   7.903  0.9437 -0.3904 -0.7317
  103MOL0     C13830   2.427   6.743   7.813 -0.1614  0.2746 -0.2013
  103MOL0     C13831   2.531   6.655   7.889 -0.2429 -0.6088  0.7939
  103MOL0     C13832   2.676   6.689   7.872  0.5430 -0.2566 -0.2586
  103MOL0     C13833   2.765   6.594   7.950  0.3619 -0.8139  0.5665
  103MOL0     C13834   2.907   6.632   7.953 -0.1611 -0.0734  0.3129
  103MOL0     C13835   3.024   6.645   7.945  0.3660  0.3089  0.4865
  103MOL0     C13836   2.275   7.059   7.955  0.8916 -0.5277  0.2223
  103MOL0     C13837   2.154   7.131   7.954 -0.0989 -0.8220 -0.0586
  103MOL0     H13838   1.740   7.158   7.478 -0.5396 -1.2407 -0.3751
  103MOL0     H13839   1.515   7.233   7.427  1.7458  1.0501  0.0284
  103MOL0     H13840   1.251   7.394   7.782  1.3334 -2.1976 -0.5580
  103MOL0     H13841   1.325   7.519   7.697  1.9062 -0.4802 -0.3160
  103MOL0     H13842   1.149   7.489   7.502  1.3073 -0.7348  0.5270
  103MOL0     H13843   1.079   7.361   7.594 -0.8107  0.7125  0.7230
  103MOL0     H13844   1.054   7.549   7.793 -0.3509  1.4779  0.4634
  103MOL0     H13845   1.064   7.662   7.656 -1.4726 -0.3047 -2.2646
  103MOL0     H13846   0.884   7.513   7.540 -1.4856 -2.3456  0.5289
  103MOL0     H13847   0.856   7.437   7.697  2.7253  0.2567  4.7446
  103MOL0     H13848   0.798   7.664   7.794 -3.3623 -1.4295  0.1699
  103MOL0     H13849   0.829   7.728   7.628 -0.2896  0.3756  1.2316
  103MOL0     H13850   0.651   7.592   7.550  2.6211  2.5714 -0.9932
  103MOL0     H13851   0.633   7.509   7.699  2.3777 -1.4876 -2.7037
  103MOL0     H13852   0.586   7.772   7.801 -0.3683  0.1048  0.9138
  103MOL0     H13853   0.591   7.807   7.624  2.2089 -1.1978  0.2987
  103MOL0     H13854   0.416   7.624   7.787  0.4305  1.0898  0.1087
  103MOL0     H13855   0.415   7.620   7.611 -0.0734  0.9105 -0.8209
  103MOL0     H13856   0.316   7.814   7.447 -0.4719  0.6910 -0.7853
  103MOL0     H13857   0.051   8.083   7.545  1.4395  1.2661  0.8275
  103MOL0     H13858   0.207   8.114   7.464  0.2627  1.3398  0.8238
  103MOL0     H13859  -0.028   7.932   7.402  1.3543 -2.3901  1.1910
  103MOL0     H13860   0.121   7.884   7.329 -0.4173  0.0124 -0.5870
  103MOL0     H13861   0.127   8.142   7.239  0.4460 -1.5602  0.3065
  103MOL0     H13862  -0.031   8.160   7.309  0.2821  0.1947 -0.7641
  103MOL0     H13863   0.052   7.983   7.082  2.6507  2.2202  2.3904
  103MOL0     H13864  -0.038   8.132   7.078  1.2782  0.6718 -0.8345
  103MOL0     H13865  -0.165   8.086   6.907 -1.6911  0.9031 -0.8620
  103MOL0     H13866  -0.450   8.174   6.733  0.0546 -1.1490  1.4914
  103MOL0     H13867  -0.282   8.148   6.719 -1.2526  1.8319 -0.5642
  103MOL0     H13868  -0.393   8.032   6.651 -1.6832 -0.0732 -0.2475
  103MOL0     H13869  -0.760   7.906   6.602  1.2482  0.5570  0.9356
  103MOL0     H13870  -0.987   7.862   6.580 -1.6657 -0.5056  0.1988
  103MOL0     H13871  -1.338   7.956   6.816 -1.6759  0.7740 -2.1257
  103MOL0     H13872  -1.230   8.073   6.883 -1.2377 -0.5625  1.5057
  103MOL0     H13873  -1.439   8.176   6.822  1.1381 -3.1626  2.2207
  103MOL0     H13874  -1.315   8.233   6.706 -0.1815  0.9541  1.5692
  103MOL0     H13875  -1.542   8.045   6.663 -2.5932  4.2042 -0.1090
  103MOL0     H13876  -1.403   8.044   6.546  1.9724  2.3776 -0.4918
  103MOL0     H13877  -1.567   8.281   6.622 -0.3811 -1.0134 -0.3266
  103MOL0     H13878  -1.432   8.299   6.521  0.1766  1.8041  2.7048
  103MOL0     H13879  -1.646   8.085   6.446  1.1362 -0.3367 -2.2339
  103MOL0     H13880  -1.519   8.140   6.342 -1.3687  0.0426 -1.8008
  103MOL0     H13881  -1.609   8.369   6.334 -3.0028  2.5381 -2.6124
  103MOL0     H13882  -1.701   8.252   6.255  0.3360 -1.5000  0.8823
  103MOL0     H13883  -1.753   8.348   6.533  2.3308 -0.8664 -0.4401
  103MOL0     H13884  -1.853   8.226   6.446  1.6225 -1.0023 -1.5140
  103MOL0     H13885  -1.792   8.507   6.335 -0.0518  1.3058  2.9462
  103MOL0     H13886  -1.920   8.483   6.441 -0.4131 -3.4119  3.4455
  103MOL0     H13887  -1.095   8.220   6.795  0.9419  1.9749 -2.7148
  103MOL0     H13888  -0.850   8.248   6.857 -2.0436 -0.8814  1.9122
  103MOL0     H13889  -0.569   7.863   7.086  0.7090 -0.5102  1.4716
  103MOL0     H13890  -0.356   7.880   7.237 -1.6443 -0.7773 -0.2053
  103MOL0     H13891   1.449   7.325   7.844  0.3388 -2.3471  1.1430
  103MOL0     H13892   1.671   7.245   7.903 -1.1555  0.9074 -0.7044
  103MOL0     H13893   2.002   6.961   7.702  1.2511 -0.8254 -1.1426
  103MOL0     H13894   2.211   6.828   7.714 -2.7185  1.9891 -1.5872
  103MOL0     H13895   2.339   6.679   7.808  0.2090 -0.7760  3.5661
  103MOL0     H13896   2.468   6.766   7.714 -0.4778  1.7088 -0.0236
  103MOL0     H13897   2.511   6.550   7.866 -1.1332 -0.3466  0.2937
  103MOL0     H13898   2.515   6.662   7.997 -1.0468 -2.9409  0.8847
  103MOL0     H13899   2.681   6.791   7.911  0.8180 -0.5309  0.4449
  103MOL0     H13900   2.698   6.697   7.765  0.5757 -0.0234 -0.2352
  103MOL0     H13901   2.766   6.495   7.905  1.4594  1.1480 -4.3244
  103MOL0     H13902   2.729   6.572   8.051  0.0808 -0.0778  0.6318
  103MOL0     H13903   3.126   6.674   7.956  1.2073 -2.9668  2.6536
  103MOL0     H13904   2.353   7.089   8.024  0.5711  1.6208 -0.2785
  103MOL0     H13905   2.151   7.219   8.016  2.7047 -1.5567  1.2766
  104MOL0     O13906   3.614   1.576   8.054  0.3831 -0.0511 -0.4789
  104MOL0     C13907   3.599   1.673   7.978  0.1809 -1.2231 -0.8907
  104MOL0     O13908   3.478   1.718   7.924  0.6677 -0.8174 -0.2024
  104MOL0     C13909   3.365   1.640   7.936  0.0560  0.1103  1.5339
  104MOL0     C13910   3.366   1.498   7.902  0.4213 -0.6408  0.1510
  104MOL0     C13911   3.243   1.433   7.896 -0.1742 -0.8300 -0.0798
  104MOL0     C13912   3.124   1.497   7.926  0.7851  0.5065 -0.8254
  104MOL0     O13913   3.004   1.423   7.903  0.4597 -0.6803  0.6547
  104MOL0     C13914   2.878   1.498   7.905 -0.7547 -0.2294 -0.0323
  104MOL0     C13915   2.766   1.410   7.854  0.6779 -0.6515  0.1059
  104MOL0     C13916   2.622   1.467   7.855 -1.1049  0.4390 -0.1278
  104MOL0     C13917   2.529   1.397   7.761 -0.3435  0.3125  1.2896
  104MOL0     C13918   2.380   1.436   7.777  1.2760 -0.1582  0.4527
  104MOL0     C13919   2.343   1.586   7.759 -0.3837 -0.3775 -0.0032
  104MOL0     C13920   2.233   1.637   7.853  0.3714 -0.1262 -0.3573
  104MOL0     C13921   2.096   1.566   7.838 -0.1472  0.7559  0.1126
  104MOL0     N13922   2.000   1.639   7.924  0.1260 -0.3794 -0.5846
  104MOL0     C13923   1.935   1.756   7.896  0.2645  0.4180 -0.3866
  104MOL0     C13924   1.847   1.785   7.997  0.9297  0.3152  0.1208
  104MOL0     C13925   1.773   1.911   7.996  0.8709 -0.7147  0.8515
  104MOL0     C13926   1.627   1.892   7.952 -0.1269  0.1708  0.4715
  104MOL0     C13927   1.537   2.012   7.968 -0.0203  0.3135 -0.3728
  104MOL0     C13928   1.403   1.996   7.907  0.7806 -0.3454  0.7269
  104MOL0     O13929   1.314   2.110   7.947  0.6179  0.5470 -0.0735
  104MOL0     C13930   1.195   2.107   7.883  0.2726 -0.6649  0.5997
  104MOL0     C13931   1.198   2.150   7.749 -0.3934 -0.3639 -0.4476
  104MOL0     C13932   1.074   2.168   7.689 -0.1020 -0.0443  1.1953
  104MOL0     C13933   1.087   2.218   7.550 -0.2233  0.2890  1.0002
  104MOL0     C13934   0.945   2.140   7.753  1.0609 -0.5006  0.4393
  104MOL0     C13935   0.813   2.169   7.685  0.6309 -0.1419 -0.3633
  104MOL0     O13936   0.712   2.079   7.719  0.8691 -0.4297 -0.1322
  104MOL0     C13937   0.585   2.098   7.672  0.3842  0.1136  0.7925
  104MOL0     C13938   0.527   1.983   7.619  0.0753  0.7056  0.6788
  104MOL0     C13939   0.391   1.992   7.574 -0.4687  0.3421 -0.9211
  104MOL0     C13940   0.321   2.113   7.577  0.1762  0.4467 -0.3311
  104MOL0     O13941   0.194   2.122   7.538  0.4156  0.3263 -0.1736
  104MOL0     C13942   0.160   2.054   7.414 -0.0196  0.2575  0.2138
  104MOL0     C13943   0.023   2.108   7.365  0.1037  0.4194 -0.3735
  104MOL0     C13944  -0.084   2.059   7.467  0.3943  0.7338 -0.0000
  104MOL0     C13945  -0.228   2.064   7.416 -0.2140  0.9737  0.3269
  104MOL0     C13946  -0.333   2.035   7.523 -0.0069  0.0532  0.8429
  104MOL0     C13947  -0.477   2.059   7.461  0.5177  0.8184 -0.3482
  104MOL0     C13948  -0.597   2.030   7.553 -0.4496 -0.9511  0.7421
  104MOL0     C13949  -0.667   1.897   7.531  0.3402  1.8543  0.0061
  104MOL0    Cl13950  -0.756   1.905   7.388 -0.4191  0.0252  0.3241
  104MOL0     C13951   0.383   2.225   7.630 -0.0754  0.9534  0.6874
  104MOL0     C13952   0.516   2.219   7.669  0.1191 -0.5294  0.1999
  104MOL0     O13953   0.803   2.273   7.625  0.9951  0.2578  0.2656
  104MOL0     C13954   0.945   2.101   7.893 -0.6537 -0.3023  0.6408
  104MOL0     C13955   1.077   2.084   7.951 -1.1236 -0.8459 -0.9499
  104MOL0     N13956   1.855   1.683   8.091 -0.2698 -0.3712 -0.1774
  104MOL0     N13957   1.942   1.597   8.044  0.1736  0.6430 -0.1927
  104MOL0     C13958   3.124   1.634   7.956  0.1023 -0.3894 -1.0397
  104MOL0     C13959   3.241   1.706   7.960  0.5225  0.6669  0.3672
  104MOL0     C13960   3.709   1.772   7.966  0.2265  1.2978 -0.4833
  104MOL0     C13961   3.781   1.801   8.084  1.0806  1.0570  0.9218
  104MOL0     C13962   3.902   1.875   8.068  0.0597  1.1184 -0.3582
  104MOL0     C13963   3.946   1.935   7.945  0.4808 -0.0254  0.5658
  104MOL0     O13964   4.048   2.020   7.926 -0.3273  0.1779  0.3968
  104MOL0     C13965   4.129   2.064   8.026  0.3413  1.1103 -0.8313
  104MOL0     C13966   4.217   2.173   7.971  0.2891  0.3819 -0.7360
  104MOL0     C13967   4.334   2.197   8.078 -0.2611  0.4523  0.7873
  104MOL0     C13968   4.452   2.278   8.009  0.7416  0.2671 -0.3429
  104MOL0     C13969   4.574   2.279   8.095  0.6178 -0.3668  0.2159
  104MOL0     C13970   4.671   2.279   8.162 -1.0463  0.7423  0.1646
  104MOL0     C13971   3.858   1.913   7.838 -0.4077  0.2626 -0.0113
  104MOL0     C13972   3.750   1.825   7.848 -0.9018  0.2827 -0.3316
  104MOL0     H13973   3.450   1.435   7.876 -0.0016 -1.5102  0.8145
  104MOL0     H13974   3.242   1.334   7.853  1.2198 -1.3727  1.0758
  104MOL0     H13975   2.851   1.524   8.007  1.4598  0.5159  0.4405
  104MOL0     H13976   2.883   1.586   7.840  0.1043  0.0689  0.4167
  104MOL0     H13977   2.781   1.399   7.746  1.2801  0.7980  0.0179
  104MOL0     H13978   2.778   1.305   7.884 -0.8116 -0.7686  0.3565
  104MOL0     H13979   2.585   1.447   7.956 -0.7073  0.1712 -0.0316
  104MOL0     H13980   2.635   1.575   7.846  1.7996  0.1358 -0.8330
  104MOL0     H13981   2.562   1.415   7.658  1.0724 -0.2486  1.6234
  104MOL0     H13982   2.531   1.290   7.784 -2.4530 -0.6317 -2.1043
  104MOL0     H13983   2.318   1.390   7.699  0.3911  0.2603  0.9023
  104MOL0     H13984   2.341   1.397   7.872  0.6989 -0.9001 -0.0764
  104MOL0     H13985   2.435   1.644   7.766  1.7210 -3.5526  1.4136
  104MOL0     H13986   2.315   1.606   7.655 -0.3172  1.0858  0.2415
  104MOL0     H13987   2.282   1.616   7.949 -2.4740  1.2728  1.5379
  104MOL0     H13988   2.214   1.745   7.853  0.3861 -0.1156  0.8510
  104MOL0     H13989   2.103   1.460   7.866 -0.8269  0.5164 -0.5838
  104MOL0     H13990   2.068   1.573   7.733 -1.5487  1.9249  0.5388
  104MOL0     H13991   1.948   1.817   7.807  1.0120  0.2640 -0.3884
  104MOL0     H13992   1.780   1.968   8.090 -0.4794 -0.1947  0.6739
  104MOL0     H13993   1.822   1.987   7.935  0.7976 -0.5970  0.9367
  104MOL0     H13994   1.588   1.805   8.006  0.1758  0.5841  1.3688
  104MOL0     H13995   1.631   1.868   7.846  2.9346  0.5497  0.4064
  104MOL0     H13996   1.590   2.093   7.916 -0.8475  0.5193 -0.9244
  104MOL0     H13997   1.527   2.029   8.075  0.8569 -1.0608 -0.0611
  104MOL0     H13998   1.345   1.911   7.945 -1.2045 -0.6225 -2.4976
  104MOL0     H13999   1.417   1.987   7.798 -0.6002  1.4032  0.3586
  104MOL0     H14000   1.296   2.167   7.706 -0.3180  0.0736 -0.1170
  104MOL0     H14001   1.097   2.327   7.556  0.3997  0.3113 -0.2370
  104MOL0     H14002   1.172   2.178   7.494 -2.4320 -4.1783  0.3552
  104MOL0     H14003   0.999   2.209   7.485 -0.4642 -2.8253  1.5741
  104MOL0     H14004   0.572   1.885   7.614  0.5397  0.9818 -0.7650
  104MOL0     H14005   0.342   1.903   7.536  0.9397  0.1833 -2.4535
  104MOL0     H14006   0.243   2.077   7.346 -0.3244  1.6838  0.3009
  104MOL0     H14007   0.153   1.945   7.417  0.8551  0.0119 -2.9802
  104MOL0     H14008   0.036   2.215   7.386  0.6943  0.1294  0.8149
  104MOL0     H14009   0.001   2.092   7.259 -1.2289 -1.8271  0.1712
  104MOL0     H14010  -0.068   2.114   7.561  0.0793  3.7964 -1.6266
  104MOL0     H14011  -0.073   1.951   7.485 -0.8737  0.5005 -0.5029
  104MOL0     H14012  -0.243   2.167   7.382  0.3049  0.9608  0.0486
  104MOL0     H14013  -0.256   1.996   7.335 -3.1375  0.6482  1.4794
  104MOL0     H14014  -0.307   2.100   7.608 -2.8673  0.5410  1.4277
  104MOL0     H14015  -0.317   1.935   7.564  1.5892 -0.0289  0.0802
  104MOL0     H14016  -0.493   2.166   7.443  0.6277  0.9327  0.2048
  104MOL0     H14017  -0.505   2.000   7.374  0.7422  0.1682  0.0180
  104MOL0     H14018  -0.674   2.107   7.542 -0.1523 -0.8927 -1.2429
  104MOL0     H14019  -0.560   2.062   7.652  0.3927  1.2899 -0.2213
  104MOL0     H14020  -0.734   1.876   7.614  0.0295  0.9838 -0.4556
  104MOL0     H14021  -0.591   1.818   7.526 -1.5324  0.0266 -1.1617
  104MOL0     H14022   0.328   2.318   7.633 -1.3179  0.4440 -2.2400
  104MOL0     H14023   0.570   2.308   7.700  0.7466 -0.2841 -1.4826
  104MOL0     H14024   0.851   2.081   7.943 -0.8543  2.1699  1.3927
  104MOL0     H14025   1.080   2.049   8.054  1.6229  2.4353  0.3051
  104MOL0     H14026   3.034   1.693   7.968 -0.9395 -2.2263  1.1219
  104MOL0     H14027   3.241   1.811   7.987 -1.8038  0.6052  0.7852
  104MOL0     H14028   3.762   1.766   8.185 -1.6263  1.4240  0.5906
  104MOL0     H14029   3.964   1.902   8.153  1.2698  2.8799 -1.7229
  104MOL0     H14030   4.064   2.105   8.103  1.5628  0.8891  0.3535
  104MOL0     H14031   4.193   1.977   8.047  1.8080  2.7651  2.0555
  104MOL0     H14032   4.153   2.261   7.964 -0.3749  0.0638  0.8467
  104MOL0     H14033   4.256   2.146   7.873  0.2710 -0.0199 -0.6348
  104MOL0     H14034   4.378   2.105   8.117  0.0788  1.2316  2.3382
  104MOL0     H14035   4.300   2.251   8.166  0.0233  1.7558  0.1195
  104MOL0     H14036   4.422   2.382   7.997  0.4439  0.5279  2.1118
  104MOL0     H14037   4.481   2.240   7.911  1.5314 -2.1386  0.7465
  104MOL0     H14038   4.760   2.281   8.222  0.7721 -1.3418 -2.2501
  104MOL0     H14039   3.890   1.956   7.743  3.1154 -1.5493  0.1970
  104MOL0     H14040   3.679   1.802   7.769 -4.3761  3.2741  1.6017
  105MOL0     O14041   5.259   1.487   8.114 -0.2824  0.0597 -0.2834
  105MOL0     C14042   5.359   1.447   8.180  0.2416  0.0261  0.1570
  105MOL0     O14043   5.351   1.422   8.313  0.1012  0.1960  0.2070
  105MOL0     C14044   5.234   1.438   8.373  0.7874 -0.3508 -0.1132
  105MOL0     C14045   5.162   1.558   8.375 -0.2357 -0.6016  0.0018
  105MOL0     C14046   5.030   1.561   8.419 -0.2341 -0.0615  0.1570
  105MOL0     C14047   4.970   1.445   8.474  0.6614  0.0701 -0.4339
  105MOL0     O14048   4.845   1.447   8.535  0.1431  0.6637  0.9097
  105MOL0     C14049   4.757   1.561   8.518  0.0687 -0.0445 -0.1391
  105MOL0     C14050   4.638   1.526   8.609  0.0630 -0.4420 -0.4088
  105MOL0     C14051   4.545   1.408   8.568  0.2263 -0.2109 -0.3291
  105MOL0     C14052   4.430   1.450   8.471  0.6083  0.1147  0.2689
  105MOL0     C14053   4.327   1.346   8.436  0.2867  0.0934  0.0962
  105MOL0     C14054   4.393   1.221   8.370 -0.4953  0.0553 -0.0622
  105MOL0     C14055   4.286   1.120   8.350  0.0095 -0.7056 -0.0788
  105MOL0     C14056   4.339   0.987   8.299  0.3014  0.9295 -0.4606
  105MOL0     N14057   4.216   0.911   8.264 -0.1803  0.3202  0.7098
  105MOL0     C14058   4.167   0.806   8.337 -0.3673 -0.5992 -0.2171
  105MOL0     C14059   4.050   0.776   8.275  0.7046  0.4448  0.7958
  105MOL0     C14060   3.961   0.653   8.302  0.3599 -0.0955  0.3607
  105MOL0     C14061   3.826   0.702   8.358 -1.3427 -0.5309 -0.1057
  105MOL0     C14062   3.740   0.774   8.253 -0.7512 -0.2922  0.1655
  105MOL0     C14063   3.599   0.792   8.294 -0.1420 -0.4320  0.1919
  105MOL0     O14064   3.586   0.867   8.416 -0.0170 -0.7242 -0.1015
  105MOL0     C14065   3.460   0.881   8.475  0.2298 -0.2614  0.4015
  105MOL0     C14066   3.345   0.810   8.433 -0.3086  0.2129 -1.0862
  105MOL0     C14067   3.212   0.842   8.475 -0.2197  0.0037  0.0131
  105MOL0     C14068   3.110   0.752   8.420 -0.0131 -0.0245  0.6950
  105MOL0     C14069   3.190   0.943   8.579  0.5819 -0.1625  0.6707
  105MOL0     C14070   3.054   0.993   8.625  1.6451  0.1103  0.0636
  105MOL0     O14071   2.944   0.914   8.603  0.0613  0.0055  0.0581
  105MOL0     C14072   2.829   0.942   8.667  0.0520  0.0770 -1.9563
  105MOL0     C14073   2.825   0.988   8.807  0.2240 -0.4702  0.3004
  105MOL0     C14074   2.697   1.035   8.862 -0.4108 -0.2954  0.4289
  105MOL0     C14075   2.584   1.028   8.783  0.2676  0.1083 -0.0657
  105MOL0     O14076   2.458   1.063   8.836 -0.1249 -0.0513  0.9699
  105MOL0     C14077   2.449   1.088   8.979 -0.8157 -0.0947 -1.4045
  105MOL0     C14078   2.300   1.105   9.016 -0.0360 -0.3903  0.4891
  105MOL0     C14079   2.205   0.988   8.964  0.0419  0.4305  0.4948
  105MOL0     C14080   2.061   1.016   8.999 -0.0629  0.5666  0.6267
  105MOL0     C14081   1.965   0.926   8.923  0.0197  0.4332  0.0155
  105MOL0     C14082   1.971   0.779   8.952 -0.0713  0.1799  0.0963
  105MOL0     C14083   1.845   0.703   8.923 -0.0888  1.0441  0.1089
  105MOL0     C14084   1.794   0.714   8.774  0.1809  0.8133 -0.7093
  105MOL0    Cl14085   1.935   0.674   8.666  0.2830 -0.3029 -0.2190
  105MOL0     C14086   2.586   0.968   8.653 -0.1684  0.5041 -0.3680
  105MOL0     C14087   2.712   0.932   8.598  0.2789 -0.7116  0.0008
  105MOL0     O14088   3.054   1.095   8.689 -0.9539  0.1208  0.2011
  105MOL0     C14089   3.310   0.996   8.629 -0.2996 -0.0537 -0.3269
  105MOL0     C14090   3.439   0.963   8.584 -0.0076  0.3154  0.2467
  105MOL0     N14091   4.039   0.854   8.159 -0.1696  0.3237 -0.0984
  105MOL0     N14092   4.133   0.943   8.160 -0.7242  0.0522  0.0700
  105MOL0     C14093   5.047   1.335   8.480 -0.7024  0.3237 -0.0249
  105MOL0     C14094   5.180   1.324   8.423  0.3618  0.3917 -0.7078
  105MOL0     C14095   5.476   1.415   8.098 -0.7185 -0.7664 -0.0294
  105MOL0     C14096   5.587   1.349   8.155 -0.2769  0.2955 -0.2504
  105MOL0     C14097   5.701   1.314   8.086  0.5720  0.1240  0.6626
  105MOL0     C14098   5.706   1.345   7.947 -0.2051  0.1720 -0.5298
  105MOL0     O14099   5.800   1.307   7.861 -0.6747  1.4061  0.1118
  105MOL0     C14100   5.925   1.251   7.914  0.1743  0.4840  0.0809
  105MOL0     C14101   6.011   1.375   7.928 -0.4011 -0.0141 -0.0756
  105MOL0     C14102   6.064   1.386   8.077  0.7602 -0.2851 -0.6457
  105MOL0     C14103   6.166   1.502   8.096 -0.5585  0.0952 -0.1516
  105MOL0     C14104   6.285   1.483   8.007  0.7336 -0.0132  0.3519
  105MOL0     C14105   6.381   1.490   7.938  0.2139  0.3256  0.7005
  105MOL0     C14106   5.604   1.424   7.894  0.0193 -0.5419  0.4195
  105MOL0     C14107   5.486   1.455   7.968  0.6481  1.0959 -0.1983
  105MOL0     H14108   5.209   1.645   8.331  0.1409 -0.0508  1.4226
  105MOL0     H14109   4.956   1.640   8.405 -3.0523 -2.0412  2.5672
  105MOL0     H14110   4.810   1.651   8.550  0.6114 -0.2792 -0.3696
  105MOL0     H14111   4.717   1.573   8.418 -3.6685  0.1233  1.2347
  105MOL0     H14112   4.667   1.510   8.713  2.1081  1.0254 -0.7007
  105MOL0     H14113   4.579   1.617   8.594  0.3934 -0.1651 -0.0610
  105MOL0     H14114   4.611   1.339   8.514  1.9710  0.9401  0.2616
  105MOL0     H14115   4.508   1.353   8.655 -0.7051  1.2687  0.2570
  105MOL0     H14116   4.374   1.529   8.520 -0.2949  0.7888 -1.7603
  105MOL0     H14117   4.472   1.485   8.376 -0.0039 -2.6974 -1.1654
  105MOL0     H14118   4.260   1.316   8.518 -0.3610  1.1750 -0.0242
  105MOL0     H14119   4.272   1.401   8.360 -0.1719  3.5517  2.7046
  105MOL0     H14120   4.453   1.255   8.285  0.6238  0.6170  0.9249
  105MOL0     H14121   4.468   1.186   8.442 -0.4362 -0.6530 -0.4688
  105MOL0     H14122   4.231   1.108   8.443 -0.0198  0.5336  0.0763
  105MOL0     H14123   4.218   1.163   8.276  1.2669 -0.1627 -0.9625
  105MOL0     H14124   4.393   0.938   8.380 -0.2446  0.5064 -0.3441
  105MOL0     H14125   4.404   0.993   8.212 -0.5443 -0.2222 -1.1935
  105MOL0     H14126   4.211   0.764   8.428 -1.0469 -1.0175 -0.0789
  105MOL0     H14127   3.950   0.585   8.217  0.3563 -0.2593  0.4911
  105MOL0     H14128   4.007   0.597   8.384  0.1119 -0.2438  0.4007
  105MOL0     H14129   3.847   0.769   8.442  0.0563  0.7313 -1.4032
  105MOL0     H14130   3.766   0.619   8.395 -1.6908 -1.3027 -2.2757
  105MOL0     H14131   3.745   0.722   8.157 -1.3626  0.6816 -0.4076
  105MOL0     H14132   3.784   0.872   8.233  2.0398 -1.4352  0.2556
  105MOL0     H14133   3.559   0.691   8.307  0.4861 -0.5122  1.7276
  105MOL0     H14134   3.538   0.850   8.224 -1.0814 -3.3626 -1.5799
  105MOL0     H14135   3.358   0.740   8.351  0.6067  0.6205 -1.3081
  105MOL0     H14136   3.012   0.798   8.405  0.0935 -0.1276 -0.4001
  105MOL0     H14137   3.143   0.721   8.320  0.5756  1.1847  0.4950
  105MOL0     H14138   3.100   0.665   8.486  1.7002 -2.7430 -2.2997
  105MOL0     H14139   2.918   0.997   8.863  1.4887 -0.8284 -1.6716
  105MOL0     H14140   2.701   1.069   8.965 -4.6169  0.2774  0.5809
  105MOL0     H14141   2.497   1.008   9.036  2.0876  1.8792 -0.8962
  105MOL0     H14142   2.512   1.171   9.010  0.0436 -1.6036  1.2432
  105MOL0     H14143   2.295   1.090   9.124 -3.1808 -0.1994  0.4393
  105MOL0     H14144   2.256   1.204   8.998  3.5584  0.8060 -3.5172
  105MOL0     H14145   2.252   0.896   9.001  0.3979 -0.7991 -2.7319
  105MOL0     H14146   2.213   0.978   8.855  2.1032  2.7533  0.3281
  105MOL0     H14147   2.038   1.020   9.105  1.6394  2.3352  0.9776
  105MOL0     H14148   2.038   1.112   8.952 -1.4841 -1.2536 -2.8400
  105MOL0     H14149   1.976   0.946   8.816  1.0733  0.5056  0.1236
  105MOL0     H14150   1.863   0.957   8.947 -0.5571  1.1364 -2.9630
  105MOL0     H14151   2.051   0.739   8.889  0.6929  1.2348  0.3691
  105MOL0     H14152   1.995   0.759   9.057 -0.5155 -2.2411 -0.2162
  105MOL0     H14153   1.760   0.737   8.983 -0.9662 -1.0577  0.1256
  105MOL0     H14154   1.877   0.601   8.944 -0.2033  1.0440  0.2790
  105MOL0     H14155   1.758   0.817   8.767  1.7537  1.4915  0.4730
  105MOL0     H14156   1.708   0.651   8.748  0.7695  0.5198 -1.9713
  105MOL0     H14157   2.502   0.955   8.584 -3.1962  1.3471  2.8685
  105MOL0     H14158   2.724   0.897   8.496  0.5166 -1.5059  0.2935
  105MOL0     H14159   3.304   1.059   8.718  2.2844 -1.8723  1.2986
  105MOL0     H14160   3.521   1.020   8.627  2.8424 -1.2946 -2.6067
  105MOL0     H14161   5.011   1.240   8.517  2.2278 -1.4181 -1.2463
  105MOL0     H14162   5.239   1.233   8.430 -0.3932 -0.0100  0.8307
  105MOL0     H14163   5.592   1.328   8.261 -0.4309  2.0166  0.1368
  105MOL0     H14164   5.774   1.251   8.135 -1.4030 -1.3013  1.9369
  105MOL0     H14165   5.915   1.203   8.012 -0.2366 -0.8971 -0.6124
  105MOL0     H14166   5.979   1.183   7.848  0.8836  1.7330 -0.6783
  105MOL0     H14167   5.960   1.468   7.901 -2.4109 -1.0632 -0.0502
  105MOL0     H14168   6.099   1.366   7.862 -2.4215  0.2123 -3.0214
  105MOL0     H14169   6.110   1.291   8.104 -0.0110 -0.2837  0.7625
  105MOL0     H14170   5.973   1.384   8.138  0.3804 -0.4789 -1.2107
  105MOL0     H14171   6.197   1.509   8.201  2.1034 -0.4226 -0.8223
  105MOL0     H14172   6.114   1.594   8.071 -0.3300  0.1700 -0.3609
  105MOL0     H14173   6.458   1.506   7.864 -0.1692  2.4782  0.7071
  105MOL0     H14174   5.608   1.450   7.789 -2.0309 -0.1663  0.3846
  105MOL0     H14175   5.407   1.502   7.911 -0.0185  0.4244  0.1492
  106MOL0     O14176   2.196   9.010  10.979  0.2231 -0.1671  0.9301
  106MOL0     C14177   2.234   8.921  10.906 -0.8003 -0.5383  0.8556
  106MOL0     O14178   2.201   8.791  10.920 -0.2561  0.2687 -0.4065
  106MOL0     C14179   2.120   8.733  11.018  0.2122  0.1225  0.0113
  106MOL0     C14180   2.064   8.612  10.985  0.1619 -0.3193  0.5502
  106MOL0     C14181   1.973   8.546  11.066 -0.0394  1.0418 -0.2404
  106MOL0     C14182   1.937   8.599  11.191 -0.6225  0.4272  0.2076
  106MOL0     O14183   1.850   8.531  11.268  0.1720  0.1167  0.5371
  106MOL0     C14184   1.846   8.540  11.409 -1.2243 -0.4487 -0.0245
  106MOL0     C14185   1.782   8.426  11.483  0.4199  0.8478 -0.4374
  106MOL0     C14186   1.740   8.477  11.622  0.1494  0.1281 -0.1400
  106MOL0     C14187   1.707   8.376  11.728 -0.2122  0.3526 -0.5818
  106MOL0     C14188   1.567   8.320  11.716  0.6832  0.0271 -0.2545
  106MOL0     C14189   1.522   8.304  11.862 -0.9452 -0.8727 -0.2402
  106MOL0     C14190   1.385   8.248  11.850 -1.0968 -0.0963 -0.4498
  106MOL0     C14191   1.321   8.240  11.985 -0.0080  0.6194  0.2969
  106MOL0     N14192   1.287   8.375  12.026 -0.1317 -0.5665 -0.5252
  106MOL0     C14193   1.179   8.450  11.973  0.0451 -0.4459  0.1188
  106MOL0     C14194   1.158   8.549  12.065  0.1232 -0.2088  0.4001
  106MOL0     C14195   1.074   8.665  12.041  0.4298  0.1385 -0.4084
  106MOL0     C14196   0.943   8.656  12.120  0.1917  0.3033  0.1683
  106MOL0     C14197   0.820   8.603  12.048 -0.9613 -0.5852  0.6448
  106MOL0     C14198   0.775   8.689  11.930 -0.3953  0.2643 -0.0233
  106MOL0     O14199   0.702   8.800  11.983 -0.1222  0.2620 -0.1275
  106MOL0     C14200   0.661   8.908  11.903 -0.9804 -0.0235 -0.3338
  106MOL0     C14201   0.573   8.995  11.950  0.5442 -0.6612 -0.1855
  106MOL0     C14202   0.531   9.102  11.876  0.2143  0.3223 -0.4826
  106MOL0     C14203   0.439   9.203  11.939 -0.5101 -0.2371 -0.2926
  106MOL0     C14204   0.587   9.128  11.747 -0.8472  0.2383 -0.6546
  106MOL0     C14205   0.561   9.236  11.658  0.2019  0.2627 -0.7122
  106MOL0     O14206   0.655   9.264  11.557  0.7028 -0.6857 -0.2185
  106MOL0     C14207   0.641   9.386  11.498 -1.3275 -0.4811 -0.2296
  106MOL0     C14208   0.535   9.425  11.422 -0.2621  0.4413  0.6246
  106MOL0     C14209   0.513   9.550  11.372 -0.4579  0.0786  0.3165
  106MOL0     C14210   0.613   9.646  11.398  0.0534  0.8004  0.3728
  106MOL0     O14211   0.618   9.771  11.344 -0.2657  0.6336  0.0247
  106MOL0     C14212   0.556   9.781  11.212 -0.2514 -0.3281  0.0038
  106MOL0     C14213   0.577   9.915  11.155 -0.3414 -0.3080 -0.5014
  106MOL0     C14214   0.491  10.025  11.208 -0.3787  0.3705 -0.0553
  106MOL0     C14215   0.497  10.154  11.122 -0.3588 -0.0982 -1.2678
  106MOL0     C14216   0.427  10.283  11.183 -0.3040  0.0790  0.1913
  106MOL0     C14217   0.277  10.277  11.174  0.3335 -0.4834 -0.2449
  106MOL0     C14218   0.202  10.369  11.275 -0.2396 -0.0702  0.8645
  106MOL0     C14219   0.226  10.516  11.232 -0.0998 -0.2820 -0.8331
  106MOL0    Cl14220   0.138  10.618  11.355  0.0394 -0.5458  0.0958
  106MOL0     C14221   0.725   9.612  11.474 -0.0002 -0.0994 -0.0132
  106MOL0     C14222   0.740   9.484  11.524  0.6789  0.1480 -0.2789
  106MOL0     O14223   0.454   9.295  11.673  0.1327 -0.8482  0.0263
  106MOL0     C14224   0.671   9.029  11.697  1.1323 -0.6119  0.2988
  106MOL0     C14225   0.701   8.916  11.768 -0.4310 -0.6359  0.1770
  106MOL0     N14226   1.265   8.547  12.159  0.1204 -0.3568 -0.2879
  106MOL0     N14227   1.329   8.439  12.145 -0.0955  0.5410  0.3040
  106MOL0     C14228   1.998   8.720  11.226 -0.4644  0.4587  0.1633
  106MOL0     C14229   2.096   8.781  11.147 -0.3371  0.3686  0.0196
  106MOL0     C14230   2.343   8.957  10.799  0.5498  0.6839 -1.3152
  106MOL0     C14231   2.381   9.089  10.779  0.0848 -0.1900  0.2985
  106MOL0     C14232   2.485   9.119  10.697 -1.1870 -0.6671 -0.6677
  106MOL0     C14233   2.546   9.027  10.612  1.0389 -0.4955 -0.2943
  106MOL0     O14234   2.650   9.051  10.532  0.4907  0.2772  0.4837
  106MOL0     C14235   2.690   9.173  10.465  0.2368 -1.1355  0.0515
  106MOL0     C14236   2.827   9.162  10.397  0.1929  1.0376  1.2115
  106MOL0     C14237   2.840   9.254  10.268  0.4028  0.1229 -0.6497
  106MOL0     C14238   2.840   9.404  10.293 -0.9788 -0.5996  0.9566
  106MOL0     C14239   2.931   9.444  10.397 -0.4616 -0.1535 -0.3936
  106MOL0     C14240   2.996   9.474  10.496 -0.4104 -0.0886  0.2483
  106MOL0     C14241   2.503   8.895  10.632  0.1073 -0.4027 -0.2100
  106MOL0     C14242   2.405   8.860  10.727  0.4511  1.0438  1.0315
  106MOL0     H14243   2.085   8.561  10.891  0.4403 -0.3986  0.6543
  106MOL0     H14244   1.957   8.450  11.018 -0.2192  0.5510  0.7933
  106MOL0     H14245   1.951   8.541  11.440 -1.3703 -0.0210  0.4714
  106MOL0     H14246   1.791   8.632  11.430 -0.7282  0.2575 -1.6713
  106MOL0     H14247   1.701   8.375  11.429 -0.0545  2.1134 -0.9820
  106MOL0     H14248   1.856   8.347  11.495 -1.3202 -0.5515  1.8255
  106MOL0     H14249   1.817   8.546  11.659 -2.3061  0.7414  4.5488
  106MOL0     H14250   1.647   8.531  11.604 -0.7735 -1.5132 -0.4436
  106MOL0     H14251   1.786   8.301  11.715  1.6437  1.5183  2.7222
  106MOL0     H14252   1.740   8.412  11.825  1.6906  1.2955 -1.5276
  106MOL0     H14253   1.507   8.389  11.657  3.1269  2.1156 -0.4521
  106MOL0     H14254   1.550   8.220  11.674 -0.8684 -1.6772  3.9294
  106MOL0     H14255   1.594   8.241  11.914  0.7472  0.5418 -0.7573
  106MOL0     H14256   1.527   8.404  11.907  2.3920 -1.4438  0.9444
  106MOL0     H14257   1.318   8.298  11.780 -1.8791 -0.3238  0.1161
  106MOL0     H14258   1.382   8.141  11.824 -1.1928  0.5099 -3.2113
  106MOL0     H14259   1.380   8.187  12.060  0.4745  1.3503  0.4480
  106MOL0     H14260   1.227   8.184  11.978  0.9958 -1.4147  2.0359
  106MOL0     H14261   1.127   8.440  11.878 -0.5131 -2.4561  0.5830
  106MOL0     H14262   1.122   8.747  12.095  0.8140 -0.7083  0.5759
  106MOL0     H14263   1.050   8.674  11.934 -1.8949 -2.2468 -0.1792
  106MOL0     H14264   0.912   8.752  12.164  0.7587  0.4088  0.3457
  106MOL0     H14265   0.959   8.596  12.210  0.4820  2.1528  1.4079
  106MOL0     H14266   0.734   8.590  12.114 -1.0597  1.2560  0.9364
  106MOL0     H14267   0.837   8.501  12.012  0.1372 -0.0441 -0.4487
  106MOL0     H14268   0.714   8.634  11.858 -1.1767  1.0266  0.0385
  106MOL0     H14269   0.867   8.731  11.887  0.0938  1.3012  1.9230
  106MOL0     H14270   0.545   8.996  12.055 -2.7013 -1.0220 -0.9279
  106MOL0     H14271   0.343   9.193  11.888 -0.9124  0.3305  0.3194
  106MOL0     H14272   0.421   9.181  12.045  1.3254 -0.3022  0.0356
  106MOL0     H14273   0.472   9.307  11.938 -0.5559 -0.2204 -1.5649
  106MOL0     H14274   0.462   9.352  11.387  1.5136 -1.5493  0.8701
  106MOL0     H14275   0.429   9.582  11.312  0.1623  2.2568  0.5431
  106MOL0     H14276   0.603   9.711  11.143  4.4458  2.2275  0.2429
  106MOL0     H14277   0.449   9.757  11.218 -0.3252  0.2993  2.3011
  106MOL0     H14278   0.681   9.949  11.142 -1.2925  2.2592 -2.1309
  106MOL0     H14279   0.548   9.914  11.050  0.5529  2.0886 -0.8477
  106MOL0     H14280   0.516  10.052  11.311  0.4300 -1.6528  0.3243
  106MOL0     H14281   0.392   9.980  11.200 -0.1957  0.2745 -2.4580
  106MOL0     H14282   0.601  10.183  11.108 -0.5437  2.2838  1.5156
  106MOL0     H14283   0.445  10.125  11.030 -1.7723 -2.4644  0.1694
  106MOL0     H14284   0.452  10.376  11.130  2.8499 -0.6328  0.2454
  106MOL0     H14285   0.463  10.306  11.283  1.3891  1.2786 -0.6499
  106MOL0     H14286   0.241  10.277  11.071 -0.2259 -1.5860 -0.0620
  106MOL0     H14287   0.240  10.178  11.203 -1.9843  0.2347 -0.5615
  106MOL0     H14288   0.253  10.358  11.371 -0.3712 -1.2587  0.8194
  106MOL0     H14289   0.095  10.347  11.276 -0.8333  2.5029 -0.0028
  106MOL0     H14290   0.190  10.545  11.133 -1.0223  1.7458  0.0468
  106MOL0     H14291   0.333  10.538  11.230 -0.3286  0.8362 -2.0749
  106MOL0     H14292   0.794   9.685  11.513  1.4816 -0.5935 -1.5860
  106MOL0     H14293   0.817   9.467  11.600  0.3823 -0.6415 -0.1470
  106MOL0     H14294   0.708   9.036  11.595 -0.2949  0.6624 -0.1657
  106MOL0     H14295   0.766   8.838  11.730 -0.7793 -0.4117 -0.9284
  106MOL0     H14296   1.983   8.767  11.322  1.0325  1.7759 -0.1991
  106MOL0     H14297   2.146   8.869  11.185 -0.5215  0.0429  1.0582
  106MOL0     H14298   2.344   9.169  10.843 -0.5588 -2.2887  2.7671
  106MOL0     H14299   2.526   9.218  10.684  0.1716 -1.0514  0.4428
  106MOL0     H14300   2.618   9.200  10.387  1.1331  1.2111 -0.0606
  106MOL0     H14301   2.699   9.257  10.535 -4.2004 -1.2251  1.0693
  106MOL0     H14302   2.840   9.059  10.362  1.5261  1.0704  1.5435
  106MOL0     H14303   2.902   9.174  10.476  0.7786  0.8188  0.6974
  106MOL0     H14304   2.759   9.227  10.201  0.6199 -0.7856 -0.5551
  106MOL0     H14305   2.933   9.234  10.214 -0.2094 -0.5436 -1.4682
  106MOL0     H14306   2.740   9.435  10.325 -1.5437  0.9317 -1.9497
  106MOL0     H14307   2.855   9.460  10.200  0.7021 -0.1246  1.4726
  106MOL0     H14308   3.056   9.504  10.580  0.9097 -1.0259 -0.3158
  106MOL0     H14309   2.552   8.826  10.564  1.3024 -0.5504  0.7745
  106MOL0     H14310   2.370   8.758  10.740 -0.2501  1.4285  2.3261
  107MOL0     O14311   2.592   9.342   9.115 -0.3075 -0.5415  0.2609
  107MOL0     C14312   2.600   9.222   9.096  0.4196 -0.1044  0.1780
  107MOL0     O14313   2.701   9.145   9.113 -0.7081  0.1314 -0.7257
  107MOL0     C14314   2.821   9.196   9.133  0.3469 -0.2763 -0.0146
  107MOL0     C14315   2.915   9.126   9.074 -0.0689 -0.1580  0.3422
  107MOL0     C14316   3.051   9.144   9.109 -0.1896 -0.3223  0.1300
  107MOL0     C14317   3.081   9.239   9.211 -0.5574  0.6109 -0.8535
  107MOL0     O14318   3.212   9.266   9.252  1.2455  0.1219  0.3039
  107MOL0     C14319   3.325   9.225   9.186  0.1895 -0.2179  0.9317
  107MOL0     C14320   3.448   9.270   9.256 -0.3815  0.0370 -0.8070
  107MOL0     C14321   3.569   9.206   9.198 -0.1094 -0.0006  0.0921
  107MOL0     C14322   3.641   9.282   9.083  0.8479 -0.1780 -0.1837
  107MOL0     C14323   3.779   9.223   9.053  0.8057 -0.2116  0.1211
  107MOL0     C14324   3.777   9.078   8.998  0.2596  0.2677  0.0497
  107MOL0     C14325   3.908   9.021   8.970 -0.6520 -0.1986  0.0667
  107MOL0     C14326   3.958   9.085   8.844  0.3067 -0.0943  0.3476
  107MOL0     N14327   4.045   9.001   8.761  0.1096  0.5589 -0.4201
  107MOL0     C14328   4.140   8.912   8.811 -0.5561  0.4058  0.1524
  107MOL0     C14329   4.177   8.831   8.710  0.1545 -0.0443  0.1244
  107MOL0     C14330   4.283   8.726   8.713 -0.3341 -0.3540 -0.2186
  107MOL0     C14331   4.408   8.755   8.626  0.1298 -0.7151 -0.3397
  107MOL0     C14332   4.501   8.634   8.622 -0.1979 -0.3345  1.0686
  107MOL0     C14333   4.432   8.501   8.590 -0.6634 -0.5679  0.2141
  107MOL0     O14334   4.355   8.519   8.464 -0.3117 -0.3459 -0.7535
  107MOL0     C14335   4.222   8.487   8.465  0.1897  0.4264 -0.0040
  107MOL0     C14336   4.166   8.381   8.536 -0.0625  0.2926 -0.2381
  107MOL0     C14337   4.030   8.338   8.525  0.6657 -0.8400  0.0597
  107MOL0     C14338   3.998   8.214   8.604  1.2596 -0.2502 -0.5135
  107MOL0     C14339   3.944   8.403   8.443  0.1229  0.2183  0.0527
  107MOL0     C14340   3.795   8.371   8.423 -0.1975 -0.0659 -0.0155
  107MOL0     O14341   3.751   8.264   8.487 -0.0695  0.3664 -0.3050
  107MOL0     C14342   3.623   8.226   8.455 -0.8516  0.7953 -0.0761
  107MOL0     C14343   3.619   8.110   8.376 -0.4288  0.1280 -0.1233
  107MOL0     C14344   3.494   8.051   8.349 -1.0165 -0.4058  0.5067
  107MOL0     C14345   3.373   8.117   8.390 -0.1699  0.0379  0.1264
  107MOL0     O14346   3.257   8.070   8.348  0.3060  0.0906 -0.0616
  107MOL0     C14347   3.159   8.160   8.289 -0.6038 -0.2175  0.3437
  107MOL0     C14348   3.064   8.091   8.194  0.4320 -0.0016  0.8855
  107MOL0     C14349   2.959   8.188   8.137  0.3012  0.2472  0.3581
  107MOL0     C14350   2.849   8.223   8.251  0.1138 -0.0721  0.3782
  107MOL0     C14351   2.741   8.321   8.195 -0.6211 -0.1176 -0.0331
  107MOL0     C14352   2.613   8.334   8.287 -0.0850  0.4648  0.4022
  107MOL0     C14353   2.568   8.191   8.329  0.1496 -0.2845 -0.4558
  107MOL0     C14354   2.440   8.188   8.418  0.3482  1.1328  0.1842
  107MOL0    Cl14355   2.394   8.021   8.468  0.2057 -0.0473 -0.6426
  107MOL0     C14356   3.383   8.243   8.451 -0.6552  0.3803 -0.5520
  107MOL0     C14357   3.506   8.295   8.486  0.1386 -0.3880 -0.6040
  107MOL0     O14358   3.729   8.449   8.358  0.8036 -0.1777  0.4521
  107MOL0     C14359   3.998   8.525   8.383  0.1719 -0.1201  0.1075
  107MOL0     C14360   4.137   8.564   8.388  0.1781  0.2670  0.1758
  107MOL0     N14361   4.092   8.856   8.599  0.1746 -0.2972 -0.0979
  107MOL0     N14362   4.005   8.954   8.635 -0.2693 -0.0330 -0.4766
  107MOL0     C14363   2.981   9.309   9.280  0.1887  0.2693 -0.2090
  107MOL0     C14364   2.855   9.291   9.237  0.8009 -0.2738  1.1222
  107MOL0     C14365   2.473   9.153   9.079  0.0139 -0.1671 -0.2739
  107MOL0     C14366   2.353   9.209   9.122 -0.1753 -0.3682 -0.0080
  107MOL0     C14367   2.230   9.147   9.119 -0.9006  0.4901 -0.0132
  107MOL0     C14368   2.229   9.013   9.073 -0.4290  0.4313  0.7198
  107MOL0     O14369   2.126   8.930   9.074  0.2120 -0.1093 -0.7697
  107MOL0     C14370   1.996   8.985   9.126 -1.0218 -0.7354  0.3690
  107MOL0     C14371   1.909   8.865   9.141  0.4410 -1.0077  0.8953
  107MOL0     C14372   1.780   8.900   9.216 -0.1125 -0.6634 -0.2626
  107MOL0     C14373   1.685   8.985   9.134  0.1333 -0.9919 -0.1710
  107MOL0     C14374   1.569   9.040   9.211 -1.1984  0.0328 -0.2874
  107MOL0     C14375   1.476   9.075   9.274 -0.2184  0.5479  0.7889
  107MOL0     C14376   2.343   8.954   9.023 -1.6250  0.0271 -0.3772
  107MOL0     C14377   2.468   9.019   9.031 -0.4304  0.0068 -0.0068
  107MOL0     H14378   2.895   9.050   8.999 -0.3422  0.0836  0.1712
  107MOL0     H14379   3.124   9.078   9.063  0.7522 -0.6827  2.0484
  107MOL0     H14380   3.324   9.116   9.188 -1.4795 -0.2521 -0.2447
  107MOL0     H14381   3.321   9.263   9.083  0.1654  1.9829  1.6820
  107MOL0     H14382   3.453   9.378   9.242 -3.5885  0.6672  1.7829
  107MOL0     H14383   3.446   9.243   9.362 -0.2093 -0.7615 -0.9958
  107MOL0     H14384   3.631   9.182   9.285 -0.9916  0.5854  0.9045
  107MOL0     H14385   3.541   9.110   9.153 -0.0051  0.7294 -1.6265
  107MOL0     H14386   3.582   9.293   8.992 -1.2870 -4.6655  0.4010
  107MOL0     H14387   3.653   9.380   9.130 -2.1669  0.0213  0.3847
  107MOL0     H14388   3.821   9.292   8.979 -1.6613  0.1183 -1.1015
  107MOL0     H14389   3.848   9.227   9.137 -0.3184 -2.6506  1.2659
  107MOL0     H14390   3.733   9.018   9.078  0.0117  1.0411  0.5060
  107MOL0     H14391   3.707   9.067   8.914  0.8705 -1.6155 -0.2659
  107MOL0     H14392   3.977   9.034   9.054 -1.6294 -0.6655  0.9842
  107MOL0     H14393   3.895   8.914   8.955 -1.5292 -0.2087  0.7655
  107MOL0     H14394   4.002   9.183   8.864  0.1104  0.5035 -1.8966
  107MOL0     H14395   3.874   9.109   8.779  0.1222  0.1024  0.6589
  107MOL0     H14396   4.189   8.917   8.908 -0.6805  0.0190  0.2365
  107MOL0     H14397   4.316   8.709   8.816  0.2678  1.9461  0.0257
  107MOL0     H14398   4.233   8.633   8.686  1.3215 -1.1285 -0.7564
  107MOL0     H14399   4.456   8.850   8.649 -2.6038  0.3497  1.5332
  107MOL0     H14400   4.364   8.775   8.528 -3.4210 -0.4126  1.1338
  107MOL0     H14401   4.555   8.628   8.717  1.1132 -2.6360  0.2575
  107MOL0     H14402   4.575   8.653   8.544 -0.2919  1.4875  1.3836
  107MOL0     H14403   4.364   8.461   8.667  2.2705 -0.6198  2.9835
  107MOL0     H14404   4.509   8.424   8.581  0.0513  0.3357 -2.3829
  107MOL0     H14405   4.233   8.323   8.598 -1.6830  0.0803  1.3967
  107MOL0     H14406   4.085   8.182   8.663  1.2698  0.8150  0.0757
  107MOL0     H14407   3.914   8.224   8.673  0.9679 -0.2930 -0.8587
  107MOL0     H14408   3.968   8.141   8.529 -1.4256 -0.2576  0.4667
  107MOL0     H14409   3.709   8.063   8.337 -0.2010 -0.5995  1.2438
  107MOL0     H14410   3.478   7.959   8.294 -2.2697  1.1490 -1.9028
  107MOL0     H14411   3.110   8.212   8.372  0.7784  1.2749  0.2763
  107MOL0     H14412   3.206   8.236   8.225  0.1249 -0.0885  1.0254
  107MOL0     H14413   3.118   8.047   8.110  0.9043  1.4588  0.3782
  107MOL0     H14414   3.025   8.010   8.257  0.5557  0.7324  1.9405
  107MOL0     H14415   2.914   8.135   8.053  2.4124 -1.2521  0.0982
  107MOL0     H14416   3.004   8.284   8.108 -1.4984  1.1639  0.4098
  107MOL0     H14417   2.803   8.126   8.270  0.1862 -0.0629  0.5968
  107MOL0     H14418   2.901   8.255   8.342  0.0560 -2.3059  1.2703
  107MOL0     H14419   2.715   8.295   8.092 -0.4551  0.2467 -0.1682
  107MOL0     H14420   2.793   8.417   8.186  2.1049 -1.5280 -0.3053
  107MOL0     H14421   2.627   8.394   8.377  1.5961 -1.1183  1.2535
  107MOL0     H14422   2.536   8.391   8.233 -0.0029  1.5509  1.3935
  107MOL0     H14423   2.647   8.161   8.398 -2.4191 -1.3538  2.2509
  107MOL0     H14424   2.564   8.127   8.240 -1.4017  0.2432 -0.7918
  107MOL0     H14425   2.358   8.231   8.360  2.2808  0.9673 -2.8803
  107MOL0     H14426   2.452   8.239   8.514  1.5329 -0.1040  0.7221
  107MOL0     H14427   3.299   8.295   8.495  0.0416  0.5512  0.6357
  107MOL0     H14428   3.514   8.392   8.534  0.1504 -1.2342  1.1790
  107MOL0     H14429   3.931   8.593   8.331 -1.6646  0.2491  2.7654
  107MOL0     H14430   4.165   8.647   8.324  1.5286 -0.7246 -0.5770
  107MOL0     H14431   2.989   9.384   9.359 -1.5332  0.9048 -0.6040
  107MOL0     H14432   2.777   9.351   9.283  0.3916 -0.7909  1.0996
  107MOL0     H14433   2.350   9.313   9.152 -1.3707 -1.0170  2.3550
  107MOL0     H14434   2.157   9.214   9.163  1.9299  1.4359  3.7814
  107MOL0     H14435   2.018   9.034   9.221  2.4911 -0.6573 -0.3686
  107MOL0     H14436   1.954   9.056   9.054 -3.2906 -1.9583  0.3700
  107MOL0     H14437   1.961   8.794   9.205  2.2125  0.2632  0.9511
  107MOL0     H14438   1.892   8.816   9.045 -0.0262 -1.6499  1.3023
  107MOL0     H14439   1.813   8.955   9.304 -0.6511  0.9417 -1.0377
  107MOL0     H14440   1.729   8.810   9.253  0.8023 -0.1382  2.4951
  107MOL0     H14441   1.661   8.936   9.039 -0.5643  3.9072 -2.9102
  107MOL0     H14442   1.744   9.071   9.098  0.4436 -0.5041  1.4411
  107MOL0     H14443   1.381   9.113   9.305 -1.1496 -1.2245  0.2520
  107MOL0     H14444   2.339   8.854   8.981 -0.2990 -0.4531  0.5660
  107MOL0     H14445   2.560   8.970   9.001 -0.5479  1.5052 -3.2270
  108MOL0     O14446   4.291   8.832   9.176 -0.3876  0.3472  0.4024
  108MOL0     C14447   4.260   8.760   9.272 -1.2077  0.1750 -0.1916
  108MOL0     O14448   4.165   8.667   9.271  0.1470 -0.3569  0.0851
  108MOL0     C14449   4.076   8.649   9.170  0.2883 -0.0503 -0.1493
  108MOL0     C14450   3.940   8.634   9.202 -0.6481 -0.1568 -0.5690
  108MOL0     C14451   3.855   8.604   9.101  0.0120  0.4107  0.3325
  108MOL0     C14452   3.895   8.591   8.965 -1.0290 -0.4337  0.6564
  108MOL0     O14453   3.791   8.548   8.878 -0.1069  0.6706  0.0545
  108MOL0     C14454   3.814   8.542   8.734 -1.1089 -0.1090  0.3948
  108MOL0     C14455   3.789   8.679   8.673 -0.7834 -0.4709 -0.5429
  108MOL0     C14456   3.650   8.696   8.627 -0.4663  0.7421 -0.2873
  108MOL0     C14457   3.553   8.746   8.735  0.8053 -0.5992  0.4785
  108MOL0     C14458   3.407   8.709   8.703 -0.0557  0.4799  0.5013
  108MOL0     C14459   3.356   8.743   8.562  0.5288 -0.0570 -0.7881
  108MOL0     C14460   3.203   8.699   8.545  0.1236 -0.9894 -0.3063
  108MOL0     C14461   3.180   8.554   8.533 -0.2149  0.0139  0.7458
  108MOL0     N14462   3.036   8.530   8.550 -0.1559 -0.4840  0.0557
  108MOL0     C14463   2.980   8.535   8.676 -0.9009  0.4392 -0.2216
  108MOL0     C14464   2.860   8.487   8.650 -0.2365  1.1216  0.5851
  108MOL0     C14465   2.756   8.451   8.749 -0.4685  0.1549  0.2460
  108MOL0     C14466   2.702   8.303   8.732 -0.2799  0.0523 -0.3295
  108MOL0     C14467   2.613   8.270   8.847  0.6843  0.2991  0.3295
  108MOL0     C14468   2.489   8.361   8.854 -0.1715  0.2652  0.5205
  108MOL0     O14469   2.389   8.338   8.745  0.1119  0.0435  0.4074
  108MOL0     C14470   2.273   8.404   8.749 -0.1536 -0.2803 -0.0231
  108MOL0     C14471   2.178   8.379   8.652  0.0794  0.5956 -0.0811
  108MOL0     C14472   2.044   8.418   8.655 -0.0184  0.3972  0.6581
  108MOL0     C14473   1.958   8.345   8.551 -0.3399  0.1167  0.1713
  108MOL0     C14474   2.002   8.510   8.751 -0.3380  0.6104  0.1826
  108MOL0     C14475   1.860   8.564   8.766  0.1562  0.1976 -0.5837
  108MOL0     O14476   1.759   8.483   8.716  0.3267  0.0799  0.1084
  108MOL0     C14477   1.628   8.537   8.703  0.3809 -0.5988 -0.7026
  108MOL0     C14478   1.573   8.668   8.716 -0.1199 -0.5650 -0.3527
  108MOL0     C14479   1.430   8.702   8.702 -1.2693  0.8085 -0.7365
  108MOL0     C14480   1.336   8.591   8.699 -0.2088 -0.7056  0.4848
  108MOL0     O14481   1.202   8.616   8.707  0.2724 -0.2362 -0.4851
  108MOL0     C14482   1.102   8.517   8.678 -0.2262 -0.2354 -0.2483
  108MOL0     C14483   1.045   8.465   8.808  0.3547  0.0575 -0.1641
  108MOL0     C14484   0.932   8.567   8.861  0.2988  0.2744  0.1630
  108MOL0     C14485   0.936   8.591   9.009  0.6484 -0.1228  0.5307
  108MOL0     C14486   0.821   8.688   9.047 -0.7040 -0.1448 -0.4472
  108MOL0     C14487   0.795   8.704   9.199  0.7711  0.4555  0.2882
  108MOL0     C14488   0.699   8.817   9.234 -1.2096  0.3852 -0.0434
  108MOL0     C14489   0.676   8.834   9.384 -0.2876  0.3367 -0.6452
  108MOL0    Cl14490   0.678   9.011   9.430 -0.6864 -0.6443 -0.2665
  108MOL0     C14491   1.397   8.457   8.680  0.8942 -1.1327 -0.0237
  108MOL0     C14492   1.533   8.432   8.678 -0.0678 -0.3990  0.1822
  108MOL0     O14493   1.840   8.652   8.851 -0.7637  0.3727 -0.0248
  108MOL0     C14494   2.105   8.548   8.849 -0.7024  0.1684 -0.6553
  108MOL0     C14495   2.235   8.486   8.853  0.6149  0.8146 -0.6128
  108MOL0     N14496   2.845   8.461   8.511 -0.1057 -0.3535 -0.3885
  108MOL0     N14497   2.955   8.485   8.453  0.7876 -0.3364 -0.0875
  108MOL0     C14498   4.028   8.607   8.928  0.2546  0.6780  0.2334
  108MOL0     C14499   4.117   8.636   9.034 -0.5168  0.8351 -0.6083
  108MOL0     C14500   4.333   8.764   9.398 -0.4672 -0.0956  0.1838
  108MOL0     C14501   4.458   8.840   9.406 -0.5835  1.1547  0.0344
  108MOL0     C14502   4.524   8.832   9.528 -0.3538  0.3748 -0.1943
  108MOL0     C14503   4.484   8.760   9.638 -0.6091 -0.3030 -0.2386
  108MOL0     O14504   4.560   8.747   9.750  0.2719  0.1284  0.0310
  108MOL0     C14505   4.528   8.831   9.866  0.3126  0.0249  0.3569
  108MOL0     C14506   4.418   8.772   9.955 -0.0587 -0.5789  0.1651
  108MOL0     C14507   4.450   8.629  10.009 -0.1397 -0.0291  0.5843
  108MOL0     C14508   4.573   8.627  10.100 -0.3529  0.1063 -0.3512
  108MOL0     C14509   4.525   8.659  10.235  0.2094  0.6540  1.2240
  108MOL0     C14510   4.484   8.687  10.345 -0.2017  0.0451  0.1060
  108MOL0     C14511   4.354   8.712   9.633 -0.0826  0.7610 -0.2328
  108MOL0     C14512   4.278   8.702   9.512  0.2900  0.0948 -0.2746
  108MOL0     H14513   3.902   8.632   9.304 -2.2372  0.3605 -1.1268
  108MOL0     H14514   3.751   8.590   9.125  0.0645 -1.3325 -0.3281
  108MOL0     H14515   3.919   8.524   8.710 -0.8399 -0.0566  1.4766
  108MOL0     H14516   3.761   8.459   8.687  0.2607  0.1695 -1.7884
  108MOL0     H14517   3.812   8.753   8.750 -2.6077  1.8013 -2.0114
  108MOL0     H14518   3.859   8.696   8.591  1.2667 -0.2349  1.1923
  108MOL0     H14519   3.651   8.772   8.548  1.6007 -0.7984 -1.8478
  108MOL0     H14520   3.627   8.600   8.580 -0.5686  0.5961  0.0585
  108MOL0     H14521   3.577   8.712   8.836 -3.2194 -2.3307  1.0098
  108MOL0     H14522   3.567   8.854   8.748  0.2356 -0.6062  1.2461
  108MOL0     H14523   3.390   8.602   8.716 -2.1468  0.6078 -0.7111
  108MOL0     H14524   3.344   8.761   8.776 -2.1329  1.1721 -1.6291
  108MOL0     H14525   3.378   8.848   8.541  1.7299  0.1525  1.3298
  108MOL0     H14526   3.406   8.691   8.480 -0.7597 -0.4911 -1.3265
  108MOL0     H14527   3.160   8.733   8.640 -1.2619  0.2036 -1.3286
  108MOL0     H14528   3.158   8.758   8.465  1.7038  0.8745  0.0962
  108MOL0     H14529   3.233   8.498   8.611  2.4756 -1.3777 -1.8693
  108MOL0     H14530   3.219   8.516   8.438 -1.5561  1.4408 -0.4373
  108MOL0     H14531   3.032   8.555   8.770 -0.1543 -1.5608 -0.1551
  108MOL0     H14532   2.794   8.475   8.849 -4.0230 -1.5145  2.1930
  108MOL0     H14533   2.672   8.521   8.741 -2.2315 -1.4981  2.7204
  108MOL0     H14534   2.786   8.232   8.739  0.7358  1.2809  0.3313
  108MOL0     H14535   2.646   8.291   8.639  0.4934 -1.0603 -0.6838
  108MOL0     H14536   2.658   8.281   8.946  0.1566  0.7818  0.5191
  108MOL0     H14537   2.588   8.164   8.842 -1.0009  0.4953  3.0883
  108MOL0     H14538   2.512   8.468   8.858 -3.3878  1.0396  0.8121
  108MOL0     H14539   2.453   8.336   8.954  0.3477  0.7146  0.8322
  108MOL0     H14540   2.217   8.309   8.578  1.7686 -3.7750  4.3659
  108MOL0     H14541   1.922   8.416   8.476 -3.6176 -0.6177  0.8659
  108MOL0     H14542   2.006   8.254   8.513 -0.1804  1.1509 -2.2587
  108MOL0     H14543   1.868   8.306   8.600 -1.8363 -0.1429 -2.5826
  108MOL0     H14544   1.643   8.750   8.731  0.8174 -1.0903 -1.6728
  108MOL0     H14545   1.394   8.802   8.723 -0.6818  1.1330 -1.2443
  108MOL0     H14546   1.029   8.560   8.609 -0.4096  0.1604  0.1864
  108MOL0     H14547   1.146   8.435   8.620  1.3984  2.1825 -2.6565
  108MOL0     H14548   1.004   8.365   8.792 -2.9775  1.2511  0.1216
  108MOL0     H14549   1.129   8.459   8.879  2.2853 -0.6180 -2.3780
  108MOL0     H14550   0.834   8.531   8.828  0.9189 -1.4321  0.0554
  108MOL0     H14551   0.942   8.663   8.809 -1.2647 -0.3323 -1.3498
  108MOL0     H14552   0.919   8.498   9.065 -1.9315 -0.5379 -0.8109
  108MOL0     H14553   1.030   8.637   9.041  0.0615  1.3722  0.1653
  108MOL0     H14554   0.736   8.654   8.988  1.3247 -2.4926 -2.2286
  108MOL0     H14555   0.848   8.787   9.007 -4.6196  2.6292  2.8842
  108MOL0     H14556   0.750   8.610   9.230  1.6751  0.1358  0.6702
  108MOL0     H14557   0.890   8.718   9.252  1.5980 -2.4567 -0.2559
  108MOL0     H14558   0.607   8.815   9.176 -0.5153  0.6624 -1.1901
  108MOL0     H14559   0.760   8.899   9.195 -1.2551 -0.0621 -1.0743
  108MOL0     H14560   0.757   8.780   9.433 -0.0909  0.8777 -0.3735
  108MOL0     H14561   0.579   8.794   9.414  0.0987 -0.5243 -0.5308
  108MOL0     H14562   1.333   8.369   8.670 -1.9587  1.0037 -2.2474
  108MOL0     H14563   1.562   8.327   8.675  3.3545  0.4585  0.2443
  108MOL0     H14564   2.074   8.622   8.922 -1.5278  0.7893 -1.6000
  108MOL0     H14565   2.307   8.525   8.925 -1.3299  1.2327  1.2102
  108MOL0     H14566   4.075   8.594   8.831  1.6792  2.2590  0.6641
  108MOL0     H14567   4.221   8.660   9.017 -0.5440  1.5749  0.1980
  108MOL0     H14568   4.499   8.884   9.316 -0.6369 -1.0677 -1.1368
  108MOL0     H14569   4.616   8.890   9.540 -1.6156  2.3235  0.6250
  108MOL0     H14570   4.627   8.833   9.913  0.4659  0.2161  0.0273
  108MOL0     H14571   4.502   8.930   9.828 -1.6656  0.6108  2.9202
  108MOL0     H14572   4.329   8.774   9.892  0.4105  2.1611 -0.5516
  108MOL0     H14573   4.390   8.848  10.029 -2.5815 -1.6306  0.4067
  108MOL0     H14574   4.468   8.565   9.922 -2.8869 -0.0272 -0.1015
  108MOL0     H14575   4.362   8.583  10.056 -1.3973 -0.0421 -1.5962
  108MOL0     H14576   4.651   8.701  10.082  0.7080 -1.1267 -1.0356
  108MOL0     H14577   4.629   8.533  10.107  0.4620  0.6241  0.3163
  108MOL0     H14578   4.421   8.708  10.429 -2.8407 -0.6843 -1.5722
  108MOL0     H14579   4.324   8.643   9.711  4.0800 -1.1443 -0.0332
  108MOL0     H14580   4.186   8.645   9.507  0.3570 -0.2277  1.4925
  109MOL0     O14581   8.973   0.901   1.496 -0.1722 -0.5567 -0.3474
  109MOL0     C14582   9.013   0.978   1.405 -0.1261 -0.7087 -0.4047
  109MOL0     O14583   8.955   1.001   1.292  0.9999 -0.8665 -0.1596
  109MOL0     C14584   8.832   0.944   1.268  1.0144  1.0030  0.4207
  109MOL0     C14585   8.720   1.032   1.280 -0.4114 -0.5113 -0.2230
  109MOL0     C14586   8.596   0.977   1.266 -0.4616  0.0692 -0.4725
  109MOL0     C14587   8.565   0.841   1.245  0.1198  0.1769 -0.4177
  109MOL0     O14588   8.437   0.787   1.223  0.3904  0.6841 -0.1873
  109MOL0     C14589   8.318   0.871   1.235  1.3325  0.3690 -0.1118
  109MOL0     C14590   8.198   0.783   1.212  0.7592 -0.3081  0.4841
  109MOL0     C14591   8.070   0.877   1.207 -0.3490  0.5147 -0.0211
  109MOL0     C14592   7.944   0.794   1.209  0.1850  0.1090  0.2598
  109MOL0     C14593   7.823   0.884   1.194  0.4285 -0.6626 -0.2560
  109MOL0     C14594   7.693   0.802   1.206  0.5571  0.0233 -0.0663
  109MOL0     C14595   7.573   0.872   1.132 -0.0409 -0.9526  0.1611
  109MOL0     C14596   7.445   0.794   1.173 -0.0714 -0.8971  0.0233
  109MOL0     N14597   7.328   0.810   1.082 -0.0150 -0.5496  0.1925
  109MOL0     C14598   7.227   0.898   1.118 -1.1198  0.2348  0.2331
  109MOL0     C14599   7.149   0.911   1.010  0.0223 -0.1129 -0.1103
  109MOL0     C14600   7.015   0.986   1.002 -0.4325  0.0131 -0.8393
  109MOL0     C14601   6.909   0.940   1.101 -0.3636 -0.2595 -0.8721
  109MOL0     C14602   6.816   0.830   1.042  0.5150 -0.1419 -0.7751
  109MOL0     C14603   6.674   0.814   1.115  0.0153 -0.2386  1.3614
  109MOL0     O14604   6.605   0.937   1.108  0.3156  0.0395 -0.0999
  109MOL0     C14605   6.463   0.935   1.122 -0.3542  0.3084 -0.2440
  109MOL0     C14606   6.382   0.821   1.149 -0.9892  0.3634 -0.1271
  109MOL0     C14607   6.252   0.833   1.189 -0.0963 -0.5923  0.3399
  109MOL0     C14608   6.172   0.713   1.236  0.2456  1.6255  0.6729
  109MOL0     C14609   6.197   0.966   1.199  0.6190 -0.8286 -0.2047
  109MOL0     C14610   6.056   1.002   1.231  1.1216  0.4435 -0.2747
  109MOL0     O14611   6.013   1.128   1.216  0.2047  0.9248  0.0816
  109MOL0     C14612   5.889   1.168   1.254 -0.4315  0.8432  1.5296
  109MOL0     C14613   5.831   1.168   1.373  0.3540 -0.4417  0.0020
  109MOL0     C14614   5.699   1.217   1.392 -0.9020  0.5157  0.2035
  109MOL0     C14615   5.638   1.278   1.287  1.0778 -0.3418  0.2398
  109MOL0     O14616   5.509   1.329   1.313  0.0702 -0.2060  0.2990
  109MOL0     C14617   5.411   1.305   1.220  0.2155  0.3167 -0.1992
  109MOL0     C14618   5.283   1.383   1.271  0.0612 -0.4316 -0.7970
  109MOL0     C14619   5.169   1.375   1.173  0.9090 -0.4197  1.0594
  109MOL0     C14620   5.139   1.221   1.141 -0.6133 -0.5910  1.2756
  109MOL0     C14621   5.003   1.219   1.070 -0.4711  0.6294  0.1799
  109MOL0     C14622   4.968   1.077   1.019  0.3495 -0.1641  0.0437
  109MOL0     C14623   4.943   0.972   1.132 -0.2129  0.0128 -0.9239
  109MOL0     C14624   4.912   0.838   1.062 -0.1668 -0.3195  0.2413
  109MOL0    Cl14625   4.774   0.840   0.945 -0.5967  0.5264  0.5174
  109MOL0     C14626   5.695   1.286   1.159  0.4607  0.6751 -0.1672
  109MOL0     C14627   5.820   1.216   1.139 -0.3499 -0.4438 -0.2594
  109MOL0     O14628   5.978   0.909   1.240  0.4023 -0.4777 -0.8176
  109MOL0     C14629   6.286   1.080   1.179  0.9591  1.2257  0.5881
  109MOL0     C14630   6.417   1.061   1.141  0.2687 -0.2101  0.3702
  109MOL0     N14631   7.202   0.836   0.912 -0.4321  0.1823 -0.1338
  109MOL0     N14632   7.313   0.780   0.949 -0.8998 -0.2115  1.4102
  109MOL0     C14633   8.677   0.759   1.242 -0.4658  0.1667 -0.1766
  109MOL0     C14634   8.809   0.806   1.248  0.3684  0.6112  0.2391
  109MOL0     C14635   9.157   1.031   1.431  0.0259 -0.2660  0.5200
  109MOL0     C14636   9.210   1.124   1.348  0.2663  0.0398 -0.2209
  109MOL0     C14637   9.341   1.169   1.358 -0.5004  0.4357 -0.7979
  109MOL0     C14638   9.421   1.119   1.461  0.3419  0.7286 -0.1050
  109MOL0     O14639   9.560   1.136   1.470 -0.5536  1.1631  0.0858
  109MOL0     C14640   9.611   1.261   1.454  0.3493  0.4355  0.3926
  109MOL0     C14641   9.763   1.256   1.413  0.7425 -0.0755  0.5093
  109MOL0     C14642   9.796   1.180   1.280  0.6260  0.1409  0.5968
  109MOL0     C14643   9.677   1.170   1.182 -0.8259  0.4590  0.4071
  109MOL0     C14644   9.715   1.111   1.048 -0.2501 -0.4340  0.5197
  109MOL0     C14645   9.758   1.059   0.939  0.8982  0.0155 -0.0077
  109MOL0     C14646   9.367   1.028   1.543 -0.0935 -0.0631 -0.1166
  109MOL0     C14647   9.239   0.980   1.533 -0.7901 -0.0896 -0.1313
  109MOL0     H14648   8.739   1.137   1.297 -0.6403 -0.6442  0.9930
  109MOL0     H14649   8.519   1.051   1.288  0.5652  0.4180  2.3733
  109MOL0     H14650   8.311   0.913   1.335 -4.0407  1.8506 -0.7630
  109MOL0     H14651   8.326   0.952   1.162  1.6869  0.1129 -0.3612
  109MOL0     H14652   8.216   0.732   1.117  1.2474  1.4007 -0.3808
  109MOL0     H14653   8.183   0.703   1.286  0.1629 -1.5018 -0.8793
  109MOL0     H14654   8.061   0.940   1.296  0.4030  1.0814 -0.3307
  109MOL0     H14655   8.067   0.925   1.109  2.2575 -0.0333 -0.4354
  109MOL0     H14656   7.936   0.721   1.128  0.5490  1.8255 -1.4171
  109MOL0     H14657   7.948   0.740   1.304  2.6271  1.8548  1.2444
  109MOL0     H14658   7.813   0.966   1.265  3.5399 -0.8634  0.5462
  109MOL0     H14659   7.830   0.934   1.097  0.5911 -3.3905 -1.7586
  109MOL0     H14660   7.710   0.707   1.154  0.9796 -0.2932  0.6416
  109MOL0     H14661   7.675   0.792   1.313 -1.1559  0.3988 -0.2909
  109MOL0     H14662   7.546   0.971   1.170  0.4705 -0.9341  0.5004
  109MOL0     H14663   7.600   0.864   1.026 -1.9580  2.4363 -0.7404
  109MOL0     H14664   7.419   0.830   1.273  2.7643  1.5396  0.0079
  109MOL0     H14665   7.474   0.688   1.174  0.4564 -0.7606  1.5153
  109MOL0     H14666   7.229   0.957   1.209 -2.0019  3.0083 -1.4246
  109MOL0     H14667   7.047   1.089   1.021 -3.2452  1.6124 -3.6482
  109MOL0     H14668   6.974   0.986   0.900 -1.1086  3.6617 -0.7188
  109MOL0     H14669   6.860   1.038   1.107  1.7895  0.8457 -0.1475
  109MOL0     H14670   6.956   0.922   1.198  1.6624  0.3180 -1.6956
  109MOL0     H14671   6.860   0.732   1.064 -0.6869 -0.1515  1.9827
  109MOL0     H14672   6.802   0.848   0.935 -0.8721  0.8079 -0.4561
  109MOL0     H14673   6.696   0.785   1.218 -0.4005  1.7264  2.0407
  109MOL0     H14674   6.619   0.735   1.062 -0.0769  0.4858  0.3609
  109MOL0     H14675   6.417   0.719   1.151 -1.3618  0.2224 -0.6109
  109MOL0     H14676   6.137   0.740   1.336  1.8218 -0.6625  1.9296
  109MOL0     H14677   6.092   0.681   1.168  0.6885 -0.0772  0.8852
  109MOL0     H14678   6.240   0.627   1.243  0.9824  2.1101 -0.3813
  109MOL0     H14679   5.886   1.141   1.463 -1.2182 -0.0744  1.1099
  109MOL0     H14680   5.644   1.212   1.485  0.8484 -0.9989  1.2283
  109MOL0     H14681   5.437   1.341   1.120  0.4443  2.8356  0.6924
  109MOL0     H14682   5.388   1.199   1.232 -2.9809  0.9996  0.6935
  109MOL0     H14683   5.250   1.342   1.367  0.2729 -3.3969 -1.8777
  109MOL0     H14684   5.315   1.487   1.283  0.6003 -0.8504  2.1270
  109MOL0     H14685   5.190   1.444   1.091 -0.4651  3.6229  3.7679
  109MOL0     H14686   5.076   1.422   1.207  1.5643  4.3839 -2.6497
  109MOL0     H14687   5.221   1.182   1.079  1.0989  0.3939  2.8026
  109MOL0     H14688   5.122   1.161   1.231 -0.2305  0.1784  1.8733
  109MOL0     H14689   5.019   1.283   0.982  1.2474  1.8815  1.3545
  109MOL0     H14690   4.919   1.254   1.131 -1.6605 -2.4051  0.4573
  109MOL0     H14691   4.881   1.083   0.952  0.6503  0.1996 -0.3173
  109MOL0     H14692   5.051   1.042   0.957 -1.0632 -1.5725 -1.1541
  109MOL0     H14693   4.863   1.006   1.199  0.8057  1.2169 -0.2622
  109MOL0     H14694   5.034   0.957   1.191  0.0030 -0.7499 -1.4442
  109MOL0     H14695   4.889   0.763   1.138  1.7700  0.6249  1.8661
  109MOL0     H14696   4.993   0.794   1.002 -2.2581 -3.6709 -0.3851
  109MOL0     H14697   5.641   1.324   1.072 -2.3298  0.5787  1.4087
  109MOL0     H14698   5.867   1.197   1.043  1.6607  1.2926  0.3136
  109MOL0     H14699   6.258   1.184   1.193  3.2795  1.8278  1.2947
  109MOL0     H14700   6.467   1.157   1.134  1.5844 -1.0116 -3.6189
  109MOL0     H14701   8.666   0.652   1.227 -1.5234  0.4601 -1.7750
  109MOL0     H14702   8.899   0.747   1.237  0.6457  1.3592 -2.0252
  109MOL0     H14703   9.145   1.160   1.269 -0.6482 -0.9234  0.0739
  109MOL0     H14704   9.380   1.241   1.287 -0.7811  0.4470 -0.9418
  109MOL0     H14705   9.560   1.318   1.376  0.2354 -0.2247 -0.0302
  109MOL0     H14706   9.587   1.314   1.547  0.7843 -3.6451  3.0998
  109MOL0     H14707   9.821   1.209   1.493  0.9689  1.4496  1.2854
  109MOL0     H14708   9.796   1.360   1.405  0.8067 -0.1732 -0.6699
  109MOL0     H14709   9.810   1.077   1.313 -1.2457 -0.1258  0.6794
  109MOL0     H14710   9.885   1.224   1.233  0.5908  1.1488  1.4359
  109MOL0     H14711   9.631   1.269   1.167 -0.9312  0.7330  2.3317
  109MOL0     H14712   9.596   1.108   1.219 -0.9576 -2.3224 -3.8211
  109MOL0     H14713   9.804   1.022   0.849  1.6553 -0.0767  0.4053
  109MOL0     H14714   9.418   0.988   1.630  0.9366  2.0009  0.2844
  109MOL0     H14715   9.196   0.912   1.606  2.2057  0.4789  2.3832
  110MOL0     O14716   2.603   8.710   8.985  0.4274 -0.4700 -0.1931
  110MOL0     C14717   2.669   8.673   9.075  0.7926  1.4175 -0.7155
  110MOL0     O14718   2.622   8.611   9.190 -0.3729  0.3629 -0.1214
  110MOL0     C14719   2.489   8.589   9.210  0.0629  0.1242 -0.1166
  110MOL0     C14720   2.395   8.690   9.229 -0.2492 -0.3924 -0.6359
  110MOL0     C14721   2.259   8.663   9.257  0.0874 -0.0317  0.2563
  110MOL0     C14722   2.212   8.536   9.259 -0.3447  0.6188  0.2999
  110MOL0     O14723   2.072   8.519   9.279  0.2559 -0.1090 -0.1097
  110MOL0     C14724   2.018   8.390   9.277 -0.0048 -0.8483  0.2889
  110MOL0     C14725   1.862   8.388   9.297 -0.1440  0.0651 -0.3567
  110MOL0     C14726   1.809   8.488   9.183  0.0262  0.2251 -0.2346
  110MOL0     C14727   1.663   8.506   9.204  0.0172  0.4981 -0.2972
  110MOL0     C14728   1.590   8.571   9.085 -0.6010  0.1562  0.0728
  110MOL0     C14729   1.443   8.601   9.089 -0.5397  0.0708  0.0335
  110MOL0     C14730   1.392   8.661   9.222  0.0971 -0.0380 -0.7348
  110MOL0     C14731   1.245   8.698   9.198  0.0206 -0.4270 -0.7328
  110MOL0     N14732   1.179   8.762   9.310 -0.2361 -0.2515  0.0152
  110MOL0     C14733   1.159   8.899   9.320 -0.2693  0.3157 -0.7003
  110MOL0     C14734   1.078   8.912   9.428  0.2591  0.3360  0.0160
  110MOL0     C14735   1.019   9.032   9.495 -0.2112  0.4036 -0.3492
  110MOL0     C14736   1.129   9.128   9.540 -0.0835 -0.5104 -0.0841
  110MOL0     C14737   1.218   9.072   9.654 -0.1513 -0.6198  0.4886
  110MOL0     C14738   1.308   9.167   9.734 -0.5238 -0.5316 -0.4285
  110MOL0     O14739   1.448   9.146   9.704 -0.0783 -0.0132 -0.5837
  110MOL0     C14740   1.527   9.218   9.626  0.2471  0.2544 -0.2791
  110MOL0     C14741   1.502   9.340   9.567  0.2173  0.2874  0.3565
  110MOL0     C14742   1.595   9.412   9.493 -0.2920 -0.3178  0.3206
  110MOL0     C14743   1.555   9.535   9.414  0.9316 -0.1021  0.0342
  110MOL0     C14744   1.734   9.371   9.495  0.6690 -0.6428  0.1644
  110MOL0     C14745   1.849   9.445   9.438  0.1181 -0.3387 -0.0758
  110MOL0     O14746   1.973   9.390   9.458 -0.0938 -1.1421 -0.5809
  110MOL0     C14747   2.084   9.458   9.406  0.7523  0.5137  0.9401
  110MOL0     C14748   2.133   9.437   9.278 -0.6080  0.5243 -0.4115
  110MOL0     C14749   2.236   9.525   9.232  0.0460  0.8838  0.5302
  110MOL0     C14750   2.295   9.621   9.316  0.1447 -0.7194  0.2747
  110MOL0     O14751   2.395   9.704   9.266 -0.2698  0.3487  0.5902
  110MOL0     C14752   2.498   9.753   9.352 -0.6905  0.2386 -0.4229
  110MOL0     C14753   2.578   9.853   9.268  0.0819 -0.0140  0.1703
  110MOL0     C14754   2.692   9.921   9.340 -0.1157 -0.5058  0.1973
  110MOL0     C14755   2.758  10.010   9.229 -0.6834 -0.4568 -0.1710
  110MOL0     C14756   2.893  10.074   9.273 -0.4806  0.1194 -0.1096
  110MOL0     C14757   2.964  10.146   9.153  0.2699 -0.4799  0.9093
  110MOL0     C14758   3.102  10.188   9.198 -0.7442 -0.0526  0.7481
  110MOL0     C14759   3.202  10.209   9.081 -0.2985 -0.0210  0.5374
  110MOL0    Cl14760   3.177  10.341   8.967  0.3796  0.2277 -0.0478
  110MOL0     C14761   2.254   9.624   9.449 -0.2212  0.4805  0.7638
  110MOL0     C14762   2.146   9.543   9.494 -0.0571 -0.3755 -0.2302
  110MOL0     O14763   1.835   9.557   9.399  0.4397  0.2027  0.2263
  110MOL0     C14764   1.765   9.252   9.570 -0.2911 -0.2548  0.7902
  110MOL0     C14765   1.659   9.176   9.625 -0.8457 -0.4968 -0.4913
  110MOL0     N14766   1.065   8.789   9.491  0.2864  0.1118 -0.2607
  110MOL0     N14767   1.128   8.701   9.418  0.3540  0.1654 -0.0502
  110MOL0     C14768   2.310   8.428   9.237  0.2271  0.0127 -0.0392
  110MOL0     C14769   2.444   8.460   9.210  0.3938  0.2720  0.4723
  110MOL0     C14770   2.811   8.702   9.075  0.5501  0.0649 -0.3742
  110MOL0     C14771   2.881   8.720   9.198  0.8101  0.0268 -0.4665
  110MOL0     C14772   3.018   8.751   9.201  0.5437  0.2401 -0.0444
  110MOL0     C14773   3.087   8.764   9.075 -0.0299  0.3780  0.3839
  110MOL0     O14774   3.219   8.791   9.062 -0.2083  0.4857  0.5896
  110MOL0     C14775   3.294   8.795   9.179  0.3332  0.2939 -0.0508
  110MOL0     C14776   3.451   8.776   9.167  0.5638  0.0172  0.7986
  110MOL0     C14777   3.516   8.806   9.301 -0.2398  0.5702 -0.7473
  110MOL0     C14778   3.537   8.689   9.408  0.0075 -0.0420  0.3143
  110MOL0     C14779   3.565   8.749   9.542  0.1494  0.1175  0.2686
  110MOL0     C14780   3.578   8.813   9.648 -0.3176  0.5041 -0.0792
  110MOL0     C14781   3.014   8.743   8.955  0.0045 -0.0259  0.4586
  110MOL0     C14782   2.881   8.703   8.951  0.0195 -0.1197  0.7269
  110MOL0     H14783   2.431   8.792   9.218  0.0255 -0.2325  1.3457
  110MOL0     H14784   2.187   8.742   9.279 -0.1688 -0.3372  0.5403
  110MOL0     H14785   2.040   8.349   9.178  2.8409  0.9174  0.0928
  110MOL0     H14786   2.061   8.320   9.349  1.0038 -0.1645  0.3652
  110MOL0     H14787   1.822   8.288   9.281 -0.8472  0.2462  0.2330
  110MOL0     H14788   1.837   8.432   9.394 -2.3139 -0.8013 -0.4831
  110MOL0     H14789   1.854   8.587   9.193  1.2925 -0.4607  1.5286
  110MOL0     H14790   1.811   8.439   9.086 -4.1005  1.6908 -1.2736
  110MOL0     H14791   1.617   8.407   9.210  1.2868 -0.1543 -0.9469
  110MOL0     H14792   1.652   8.563   9.296 -0.5399  2.0452 -1.2759
  110MOL0     H14793   1.646   8.661   9.058 -1.1192  1.1635  2.1655
  110MOL0     H14794   1.609   8.504   9.001  4.1400 -0.5854  1.4251
  110MOL0     H14795   1.433   8.673   9.007  2.8187  0.7553  0.0962
  110MOL0     H14796   1.393   8.506   9.069 -0.8519 -0.0932  1.5041
  110MOL0     H14797   1.404   8.581   9.295 -2.5313 -1.7415 -1.9904
  110MOL0     H14798   1.443   8.753   9.254 -3.0755  0.5700  3.3669
  110MOL0     H14799   1.194   8.605   9.171  0.0175 -1.0468  1.2768
  110MOL0     H14800   1.232   8.758   9.107  3.4604  1.1650 -0.3379
  110MOL0     H14801   1.193   8.978   9.254  3.1189 -0.2656  0.1834
  110MOL0     H14802   0.966   9.085   9.415  1.5011  2.1361 -0.4118
  110MOL0     H14803   0.952   9.006   9.577  1.0764  0.2973  0.7037
  110MOL0     H14804   1.085   9.219   9.581  1.5890  1.2425 -1.9130
  110MOL0     H14805   1.187   9.164   9.454  0.2798 -1.1691 -0.1223
  110MOL0     H14806   1.279   9.000   9.599 -0.8929  0.3072 -1.6467
  110MOL0     H14807   1.147   9.014   9.713 -1.7411  0.1186 -0.6300
  110MOL0     H14808   1.286   9.136   9.836  1.5548  0.0589  0.2596
  110MOL0     H14809   1.281   9.272   9.718 -0.0133 -0.2799  0.3306
  110MOL0     H14810   1.402   9.380   9.575  0.2299  0.1175  1.4921
  110MOL0     H14811   1.584   9.530   9.308 -1.8241  0.2797 -0.8277
  110MOL0     H14812   1.445   9.537   9.417  0.9424  0.2275  0.1462
  110MOL0     H14813   1.593   9.626   9.459 -0.8140  0.6869  0.0130
  110MOL0     H14814   2.084   9.377   9.202  3.1843  0.0716 -2.7980
  110MOL0     H14815   2.261   9.527   9.126 -4.0442  0.3688 -0.6549
  110MOL0     H14816   2.474   9.795   9.450 -0.6116 -3.0488  1.1388
  110MOL0     H14817   2.564   9.668   9.374 -1.4302 -0.0172  0.9202
  110MOL0     H14818   2.616   9.791   9.186 -0.7381 -0.5009  0.1453
  110MOL0     H14819   2.508   9.923   9.222  0.1300 -0.5258 -0.7101
  110MOL0     H14820   2.764   9.851   9.384  0.7092  0.1002 -0.1596
  110MOL0     H14821   2.660   9.985   9.422  2.4805 -0.0624  0.9729
  110MOL0     H14822   2.769   9.947   9.141 -1.0451  0.5452 -0.9495
  110MOL0     H14823   2.692  10.094   9.204  0.2726  0.1693 -0.6311
  110MOL0     H14824   2.954   9.989   9.306 -0.2044 -0.3144 -1.6693
  110MOL0     H14825   2.880  10.157   9.343  1.6398  3.6591 -3.5387
  110MOL0     H14826   2.971  10.074   9.071  1.9852 -0.8149  1.3124
  110MOL0     H14827   2.910  10.237   9.123  1.4504 -0.5520 -1.6609
  110MOL0     H14828   3.143  10.114   9.268  0.7565 -0.4147 -0.4675
  110MOL0     H14829   3.092  10.279   9.258  3.2657  0.7239  0.5455
  110MOL0     H14830   3.211  10.115   9.026 -4.1417 -0.4774  0.4196
  110MOL0     H14831   3.294  10.229   9.136 -0.0301  0.0712  0.0635
  110MOL0     H14832   2.288   9.706   9.511  1.1823 -1.0729  2.1577
  110MOL0     H14833   2.113   9.558   9.596  1.9754  1.7893  0.1880
  110MOL0     H14834   1.862   9.204   9.573  0.1555  0.4991 -0.5958
  110MOL0     H14835   1.692   9.097   9.692  2.5956  0.7780 -0.4859
  110MOL0     H14836   2.270   8.328   9.235 -1.7415  0.7409  0.4875
  110MOL0     H14837   2.515   8.388   9.171 -2.5370 -2.5798 -0.0111
  110MOL0     H14838   2.815   8.732   9.284  0.2195 -2.9054 -0.4005
  110MOL0     H14839   3.069   8.774   9.293  1.1921  0.5704 -0.4824
  110MOL0     H14840   3.273   8.892   9.226 -0.8512  0.2468 -0.4465
  110MOL0     H14841   3.259   8.712   9.241  2.0168 -1.4215 -1.3123
  110MOL0     H14842   3.480   8.847   9.088 -1.0104  1.2328  1.2683
  110MOL0     H14843   3.473   8.674   9.135  1.0801  0.4977 -0.4863
  110MOL0     H14844   3.456   8.879   9.354  4.1113  2.8135  1.5868
  110MOL0     H14845   3.616   8.848   9.286  0.0897  0.0169 -0.1246
  110MOL0     H14846   3.625   8.630   9.382 -0.9857 -2.2951  1.7155
  110MOL0     H14847   3.444   8.633   9.413  0.0655 -0.1965 -0.2990
  110MOL0     H14848   3.599   8.855   9.744 -0.6283  1.3318 -0.3681
  110MOL0     H14849   3.048   8.749   8.852 -4.3890 -0.7480 -1.2579
  110MOL0     H14850   2.830   8.692   8.857 -1.0504 -0.1905  1.3040
  111MOL0     O14851   9.754   1.154  10.533 -0.1391  0.0382  0.1139
  111MOL0     C14852   9.814   1.155  10.419  0.3854 -0.4058 -0.3907
  111MOL0     O14853   9.778   1.211  10.301 -0.0816  0.2629 -1.0184
  111MOL0     C14854   9.669   1.289  10.303  0.1002 -0.0628  0.3481
  111MOL0     C14855   9.541   1.255  10.356 -0.0462  0.0228 -0.1833
  111MOL0     C14856   9.428   1.342  10.348 -1.0961  0.9810 -0.0965
  111MOL0     C14857   9.446   1.471  10.300 -0.5123 -0.8778 -0.1351
  111MOL0     O14858   9.343   1.558  10.287 -0.3844  0.1689 -0.0213
  111MOL0     C14859   9.230   1.542  10.369  0.0690  0.1106  0.3324
  111MOL0     C14860   9.180   1.684  10.401 -0.3046  0.2253  1.0007
  111MOL0     C14861   9.063   1.707  10.492 -0.3364 -0.3675  0.3744
  111MOL0     C14862   8.945   1.621  10.449 -0.2714 -0.4653  0.5427
  111MOL0     C14863   8.818   1.640  10.525  0.3300  0.0951  0.2492
  111MOL0     C14864   8.752   1.768  10.497  0.1172 -0.1638 -0.0057
  111MOL0     C14865   8.643   1.796  10.596  0.8894  0.4832  0.0137
  111MOL0     C14866   8.680   1.848  10.732 -0.5182  0.3667  1.1252
  111MOL0     N14867   8.591   1.796  10.834  0.3438  0.0260  0.3159
  111MOL0     C14868   8.567   1.845  10.960 -0.4662  0.5844  0.8147
  111MOL0     C14869   8.471   1.774  11.013  0.2074 -0.0406  0.5677
  111MOL0     C14870   8.410   1.815  11.148 -0.0758 -0.1899 -0.7643
  111MOL0     C14871   8.274   1.886  11.150 -0.7100 -0.8215  0.1901
  111MOL0     C14872   8.283   2.036  11.109  0.0291 -0.0626  0.6309
  111MOL0     C14873   8.159   2.115  11.143 -0.7843 -0.1513  0.3316
  111MOL0     O14874   8.148   2.110  11.289 -0.1097 -0.3117 -0.2157
  111MOL0     C14875   8.029   2.141  11.346  0.6508 -0.3432  0.2654
  111MOL0     C14876   7.999   2.091  11.472 -0.0875 -1.4188  0.3370
  111MOL0     C14877   7.876   2.109  11.534  0.2737 -0.1343  0.4316
  111MOL0     C14878   7.868   2.085  11.683 -0.3468  0.3010  0.3486
  111MOL0     C14879   7.779   2.194  11.464  0.0294  0.2909 -0.5969
  111MOL0     C14880   7.655   2.244  11.529 -0.9423 -0.0637  0.0667
  111MOL0     O14881   7.601   2.353  11.460 -0.5726  0.1510  0.2297
  111MOL0     C14882   7.481   2.397  11.508 -0.7470 -0.7550  0.0922
  111MOL0     C14883   7.356   2.333  11.472  0.7931 -0.0818  0.2680
  111MOL0     C14884   7.239   2.393  11.527  0.2948 -0.0281 -0.8047
  111MOL0     C14885   7.243   2.498  11.611 -0.0443 -1.1876  0.1612
  111MOL0     O14886   7.117   2.531  11.665  0.4628 -0.1157 -0.2354
  111MOL0     C14887   7.104   2.645  11.753 -0.5109  0.2680 -0.0825
  111MOL0     C14888   6.971   2.666  11.819 -1.0221  0.6010  0.1818
  111MOL0     C14889   6.861   2.693  11.716 -0.2401  0.1875  0.6874
  111MOL0     C14890   6.766   2.572  11.709  0.5450 -0.8314 -0.6352
  111MOL0     C14891   6.665   2.589  11.588 -0.2135  0.0484 -0.1404
  111MOL0     C14892   6.530   2.657  11.634 -0.1255  0.2124 -0.3597
  111MOL0     C14893   6.552   2.789  11.708 -0.5991 -1.6272  0.0715
  111MOL0     C14894   6.418   2.871  11.740 -1.0228  0.3039  0.7133
  111MOL0    Cl14895   6.282   2.777  11.810 -0.5701  0.3920  0.2457
  111MOL0     C14896   7.369   2.562  11.636 -0.3704 -1.0534 -0.5407
  111MOL0     C14897   7.482   2.512  11.581  0.2752 -0.4678 -0.0294
  111MOL0     O14898   7.597   2.184  11.619 -0.4095 -0.5963  0.0411
  111MOL0     C14899   7.803   2.233  11.335  0.1965 -0.8786  0.3690
  111MOL0     C14900   7.921   2.204  11.278 -0.6570 -1.1488 -0.0379
  111MOL0     N14901   8.431   1.674  10.928 -0.9930 -0.1868  0.0263
  111MOL0     N14902   8.516   1.683  10.835  0.3351 -0.1336 -0.3668
  111MOL0     C14903   9.572   1.509  10.251  0.0823  0.2421 -0.5428
  111MOL0     C14904   9.675   1.416  10.239 -0.3205  0.0696  0.2497
  111MOL0     C14905   9.923   1.060  10.405 -0.6516  0.7095 -0.5784
  111MOL0     C14906  10.002   1.062  10.287 -0.2641  0.5187 -0.4134
  111MOL0     C14907  10.114   0.981  10.271  0.0413 -0.1349 -0.9107
  111MOL0     C14908  10.150   0.887  10.373  0.5126  0.2314 -0.0567
  111MOL0     O14909  10.253   0.798  10.357 -0.5829  0.9165 -0.4069
  111MOL0     C14910  10.218   0.659  10.391  0.1703  0.5973  0.7663
  111MOL0     C14911  10.357   0.609  10.427 -0.6427  0.0593 -0.4389
  111MOL0     C14912  10.373   0.459  10.436 -0.0760  0.0226 -0.1576
  111MOL0     C14913  10.283   0.373  10.530  0.7953  0.0326 -0.0297
  111MOL0     C14914  10.141   0.371  10.489 -0.4743  0.5789  0.0974
  111MOL0     C14915  10.031   0.372  10.462  0.0205 -0.2097  0.0695
  111MOL0     C14916  10.075   0.891  10.491 -0.0363 -0.0275  0.5068
  111MOL0     C14917   9.961   0.975  10.508  0.3624 -1.0212 -0.3808
  111MOL0     H14918   9.533   1.152  10.390  0.1219  0.0291 -0.1261
  111MOL0     H14919   9.340   1.312  10.405  0.5880 -1.4554  1.4065
  111MOL0     H14920   9.152   1.481  10.323 -0.6297  1.5913 -0.5181
  111MOL0     H14921   9.247   1.494  10.466 -1.2380 -0.9854  0.0420
  111MOL0     H14922   9.264   1.729  10.455 -0.1821 -0.6310  1.5407
  111MOL0     H14923   9.153   1.740  10.311  1.6458 -0.8720 -0.3198
  111MOL0     H14924   9.098   1.686  10.593 -0.6175 -0.7236  0.3999
  111MOL0     H14925   9.024   1.809  10.486  1.1141  0.1113 -1.8611
  111MOL0     H14926   8.927   1.649  10.344 -3.4939 -1.9477  0.5696
  111MOL0     H14927   8.972   1.515  10.444  0.0037 -0.3967  0.5713
  111MOL0     H14928   8.747   1.560  10.504 -1.1597  1.8730 -1.8990
  111MOL0     H14929   8.841   1.636  10.632 -1.4088  0.9683  0.6957
  111MOL0     H14930   8.818   1.856  10.499  0.6260 -0.5529  0.8128
  111MOL0     H14931   8.713   1.751  10.397 -0.9109 -1.8565  0.6472
  111MOL0     H14932   8.561   1.849  10.547  0.9722 -0.5751 -1.3225
  111MOL0     H14933   8.606   1.695  10.615  0.0371  0.5999 -0.9602
  111MOL0     H14934   8.667   1.957  10.733 -0.8564  0.3492 -0.1657
  111MOL0     H14935   8.787   1.829  10.749 -1.1117 -2.6433  1.9662
  111MOL0     H14936   8.610   1.931  11.011  3.1044 -0.7177  0.3141
  111MOL0     H14937   8.402   1.727  11.213  0.9536 -0.4474 -0.9755
  111MOL0     H14938   8.481   1.878  11.202  3.1689 -2.4300 -2.1135
  111MOL0     H14939   8.241   1.886  11.254  2.0940 -2.0492  1.1595
  111MOL0     H14940   8.197   1.843  11.086 -0.0659  0.2614 -1.3737
  111MOL0     H14941   8.298   2.040  11.001  1.8012  0.4945  0.8631
  111MOL0     H14942   8.363   2.089  11.161  1.6787 -0.2002 -1.6215
  111MOL0     H14943   8.075   2.078  11.083  0.7637  0.0942 -2.1612
  111MOL0     H14944   8.185   2.217  11.115  0.6711 -0.4030  0.6355
  111MOL0     H14945   8.083   2.056  11.532 -0.0559 -0.4797  0.8524
  111MOL0     H14946   7.948   2.018  11.713  1.1663  0.0100 -3.7080
  111MOL0     H14947   7.880   2.172  11.748  0.3349  0.5554 -0.1136
  111MOL0     H14948   7.773   2.038  11.712  0.5877 -0.5284  2.2395
  111MOL0     H14949   7.353   2.251  11.401  0.7807  0.8477 -0.8424
  111MOL0     H14950   7.140   2.350  11.512 -0.9011  1.0540  2.8463
  111MOL0     H14951   7.178   2.629  11.833  1.0800  1.4769 -1.2482
  111MOL0     H14952   7.126   2.741  11.706 -1.8891  1.2221  1.1085
  111MOL0     H14953   6.945   2.572  11.868  0.3094 -0.0626 -0.3364
  111MOL0     H14954   6.977   2.741  11.899  0.5963 -0.1033  0.7754
  111MOL0     H14955   6.906   2.698  11.617 -0.6575  0.9573  0.5232
  111MOL0     H14956   6.809   2.785  11.746 -0.0916  0.1922  0.9330
  111MOL0     H14957   6.815   2.478  11.683  0.1958 -1.4486  0.8820
  111MOL0     H14958   6.708   2.553  11.799  1.9827  1.2785  0.8355
  111MOL0     H14959   6.643   2.488  11.551 -0.3447 -0.1548  0.4727
  111MOL0     H14960   6.718   2.645  11.511  1.1002  2.0314  2.0858
  111MOL0     H14961   6.457   2.677  11.555 -3.4721  0.1608  2.4347
  111MOL0     H14962   6.473   2.588  11.697 -0.2715 -0.0958 -0.8219
  111MOL0     H14963   6.618   2.851  11.646 -0.8108  0.8722  2.1915
  111MOL0     H14964   6.602   2.769  11.803  1.7010 -2.6041 -1.2482
  111MOL0     H14965   6.376   2.907  11.646  0.0311  0.4572  0.2829
  111MOL0     H14966   6.441   2.956  11.805 -3.1189  3.6419 -2.5317
  111MOL0     H14967   7.383   2.651  11.697 -0.2426 -0.4410 -1.4468
  111MOL0     H14968   7.570   2.573  11.601 -0.3872 -0.0971  2.1328
  111MOL0     H14969   7.737   2.300  11.281  1.0353  1.5621  2.1867
  111MOL0     H14970   7.944   2.240  11.178  0.5435  1.0567  0.9378
  111MOL0     H14971   9.592   1.607  10.207  0.2612  0.3412 -0.2457
  111MOL0     H14972   9.775   1.431  10.198  0.6198 -2.7102  1.2991
  111MOL0     H14973   9.981   1.130  10.205  1.5473 -0.5682 -1.8527
  111MOL0     H14974  10.173   0.995  10.180  1.5431  1.6004  0.2592
  111MOL0     H14975  10.133   0.647  10.459 -0.1591 -0.9225  0.1372
  111MOL0     H14976  10.196   0.604  10.299  0.0485  0.9770  0.5670
  111MOL0     H14977  10.378   0.648  10.527 -0.4112 -0.2922 -0.3508
  111MOL0     H14978  10.429   0.640  10.351 -0.4005 -1.5709 -0.9029
  111MOL0     H14979  10.473   0.438  10.475 -0.4393 -0.1080  0.7327
  111MOL0     H14980  10.368   0.409  10.338  1.9366  2.7094 -1.7463
  111MOL0     H14981  10.289   0.411  10.632  1.2622 -0.0197 -0.0332
  111MOL0     H14982  10.321   0.271  10.538 -0.2519 -0.4332 -0.8338
  111MOL0     H14983   9.934   0.383  10.419  0.3333 -1.6212 -1.0860
  111MOL0     H14984  10.108   0.841  10.581 -0.5184 -3.2386 -0.9549
  111MOL0     H14985   9.904   0.986  10.600  0.4717 -0.0326 -0.4231
  112MOL0     O14986   2.160   3.166   0.672 -0.1966  0.4285  0.5436
  112MOL0     C14987   2.164   3.286   0.633 -0.6038  0.7361  0.2555
  112MOL0     O14988   2.068   3.379   0.630  0.0742 -0.1045 -0.6254
  112MOL0     C14989   1.940   3.347   0.649 -0.0076 -0.4469  0.2869
  112MOL0     C14990   1.837   3.369   0.557  0.2603  0.1072  0.4185
  112MOL0     C14991   1.712   3.327   0.595 -0.1614 -0.6404  1.0824
  112MOL0     C14992   1.675   3.293   0.722  0.6286  0.5970 -0.8528
  112MOL0     O14993   1.538   3.271   0.742 -0.2060 -0.1295  0.1160
  112MOL0     C14994   1.490   3.219   0.868 -0.0794  0.7676 -0.7802
  112MOL0     C14995   1.333   3.191   0.866 -0.8738  0.5481  0.4286
  112MOL0     C14996   1.290   3.170   1.011 -1.2300 -0.0005 -0.2117
  112MOL0     C14997   1.141   3.172   1.021  0.4493  0.3155 -0.6846
  112MOL0     C14998   1.071   3.204   1.159  0.1720 -0.1072 -0.1918
  112MOL0     C14999   1.133   3.328   1.214 -0.3439  0.3038 -0.2185
  112MOL0     C15000   1.068   3.382   1.335  1.2950  0.5616  0.0677
  112MOL0     C15001   1.129   3.518   1.371 -0.0032 -0.2861 -0.1573
  112MOL0     N15002   1.075   3.576   1.491 -0.0081 -0.1901  0.1148
  112MOL0     C15003   1.120   3.536   1.618  0.5545  0.7279  0.9936
  112MOL0     C15004   1.044   3.615   1.700 -0.1746 -0.5824  0.3446
  112MOL0     C15005   1.022   3.589   1.846 -0.4921 -0.0210  0.4073
  112MOL0     C15006   0.940   3.464   1.859  0.0882  0.2793  0.6035
  112MOL0     C15007   0.876   3.448   1.992  0.5874 -0.1836  0.3639
  112MOL0     C15008   0.802   3.308   1.998 -0.5667 -0.3050  0.5701
  112MOL0     O15009   0.692   3.288   1.901  0.6588 -0.8860  0.2551
  112MOL0     C15010   0.585   3.212   1.946  0.6555 -0.2532  0.6465
  112MOL0     C15011   0.561   3.172   2.080  0.7961 -0.1552 -0.0032
  112MOL0     C15012   0.467   3.070   2.117  0.9118  0.2438  0.8473
  112MOL0     C15013   0.485   3.023   2.263  0.5082 -0.6540 -0.3196
  112MOL0     C15014   0.375   3.014   2.027 -0.6394 -0.1844 -0.5305
  112MOL0     C15015   0.272   2.915   2.061  0.0083 -0.5346  0.3496
  112MOL0     O15016   0.221   2.906   2.185 -0.2653  0.0685 -0.0977
  112MOL0     C15017   0.105   2.835   2.202  0.1420 -0.0575 -0.8080
  112MOL0     C15018   0.071   2.703   2.149  0.0717  0.3816  0.7273
  112MOL0     C15019  -0.051   2.636   2.167 -0.2329  0.3265  0.0338
  112MOL0     C15020  -0.144   2.705   2.236 -0.1103 -0.4049 -0.8835
  112MOL0     O15021  -0.268   2.634   2.245  0.3407  0.0103 -0.4047
  112MOL0     C15022  -0.389   2.691   2.301 -0.2166 -0.0808  0.9417
  112MOL0     C15023  -0.500   2.580   2.297 -0.3930 -0.1002  0.8404
  112MOL0     C15024  -0.637   2.647   2.297 -0.3367  0.4157  0.0823
  112MOL0     C15025  -0.754   2.551   2.274  0.6864  0.2205 -0.1234
  112MOL0     C15026  -0.885   2.627   2.282 -0.8831  0.6124  0.4415
  112MOL0     C15027  -1.007   2.541   2.266 -0.3268  0.4042  0.1159
  112MOL0     C15028  -1.131   2.633   2.283 -0.1398  1.4839 -0.6333
  112MOL0     C15029  -1.263   2.553   2.268  0.5165  0.1305  0.3724
  112MOL0    Cl15030  -1.397   2.650   2.297  0.6138  0.2855 -0.0984
  112MOL0     C15031  -0.121   2.831   2.293 -0.6398  1.3168  0.9422
  112MOL0     C15032   0.004   2.892   2.280  0.1076 -0.2542 -0.2264
  112MOL0     O15033   0.228   2.859   1.967 -0.3096 -0.4281  0.4638
  112MOL0     C15034   0.397   3.056   1.890  0.8906 -0.7493  0.0905
  112MOL0     C15035   0.497   3.154   1.856  0.3053  0.1256 -0.6255
  112MOL0     N15036   0.965   3.702   1.626  0.1251 -0.0263 -0.5710
  112MOL0     N15037   0.979   3.669   1.498  0.3909  0.2951 -0.7204
  112MOL0     C15038   1.772   3.281   0.812  0.6262 -0.0932 -0.6047
  112MOL0     C15039   1.907   3.307   0.781  0.0431 -0.5998  0.2068
  112MOL0     C15040   2.299   3.327   0.583 -0.2924 -0.8064  0.9593
  112MOL0     C15041   2.319   3.464   0.541  0.4454  0.2082  0.3057
  112MOL0     C15042   2.441   3.494   0.493 -0.4529  0.3973  0.4116
  112MOL0     C15043   2.550   3.406   0.479 -0.5692 -0.3122 -0.0484
  112MOL0     O15044   2.669   3.461   0.442  0.0621 -0.1092  0.1348
  112MOL0     C15045   2.790   3.430   0.518 -0.4728  1.0814  0.4077
  112MOL0     C15046   2.881   3.555   0.527  0.8006 -0.3330  0.7508
  112MOL0     C15047   2.822   3.702   0.522  0.3181 -0.0749  0.7967
  112MOL0     C15048   2.736   3.738   0.640  0.4832 -0.1100  0.2762
  112MOL0     C15049   2.682   3.872   0.621 -0.8446 -0.2408  0.2677
  112MOL0     C15050   2.639   3.981   0.614  0.7413  0.4173  0.1246
  112MOL0     C15051   2.532   3.269   0.514 -0.3197 -0.1816 -0.1444
  112MOL0     C15052   2.404   3.235   0.563 -0.4397  0.1438 -0.1478
  112MOL0     H15053   1.866   3.401   0.458  0.2379 -2.1554 -0.3860
  112MOL0     H15054   1.645   3.338   0.511 -0.0023 -1.2627  0.8695
  112MOL0     H15055   1.538   3.123   0.892 -1.0863 -0.3508 -2.9418
  112MOL0     H15056   1.508   3.284   0.954  0.0022 -3.8537  3.1584
  112MOL0     H15057   1.296   3.285   0.824  3.6381  2.4579  0.0504
  112MOL0     H15058   1.312   3.099   0.812 -0.3849  0.6277  0.0973
  112MOL0     H15059   1.323   3.071   1.043  0.0543 -0.6484 -3.1714
  112MOL0     H15060   1.346   3.245   1.067  0.5692 -2.4058  1.4205
  112MOL0     H15061   1.101   3.236   0.942  1.7657  0.4685 -1.2454
  112MOL0     H15062   1.107   3.076   0.980  0.1374 -0.2207  0.7485
  112MOL0     H15063   0.967   3.231   1.138 -0.1608 -0.5984  0.7443
  112MOL0     H15064   1.072   3.122   1.231 -1.4522  0.4761  0.5666
  112MOL0     H15065   1.238   3.306   1.238 -0.4771  0.7734  0.8228
  112MOL0     H15066   1.131   3.403   1.134 -3.0214 -0.6971 -1.2114
  112MOL0     H15067   0.962   3.401   1.320  1.0592 -0.7178 -0.0041
  112MOL0     H15068   1.072   3.302   1.409  0.8077  0.9876  0.5703
  112MOL0     H15069   1.109   3.585   1.286  2.0527 -1.0955 -1.3582
  112MOL0     H15070   1.237   3.501   1.376 -0.2136 -1.7442 -0.3202
  112MOL0     H15071   1.187   3.454   1.640 -0.4394  0.2419  2.3339
  112MOL0     H15072   1.110   3.581   1.911 -0.2260 -1.2748 -0.0810
  112MOL0     H15073   0.950   3.657   1.892 -0.1698 -0.9692  2.4064
  112MOL0     H15074   1.005   3.377   1.846 -0.3467  0.1888 -1.3102
  112MOL0     H15075   0.849   3.456   1.798 -2.7867 -1.4106  4.6480
  112MOL0     H15076   0.807   3.533   2.001  2.0627  0.9008  2.3682
  112MOL0     H15077   0.942   3.453   2.079  0.8374 -5.0986  0.7261
  112MOL0     H15078   0.772   3.309   2.103 -0.7543 -0.3408  0.5164
  112MOL0     H15079   0.867   3.220   1.990 -0.8672 -0.6037  1.3103
  112MOL0     H15080   0.615   3.205   2.168  1.6430 -2.6490  0.5149
  112MOL0     H15081   0.436   2.926   2.274 -0.8556  0.1124  0.6450
  112MOL0     H15082   0.592   3.001   2.271  0.5125 -0.0409  2.2565
  112MOL0     H15083   0.455   3.091   2.343  1.5589 -2.2837  1.5472
  112MOL0     H15084   0.142   2.646   2.090 -0.8950 -1.3615  1.1819
  112MOL0     H15085  -0.076   2.533   2.142 -1.0404 -0.8696  4.6613
  112MOL0     H15086  -0.375   2.721   2.405 -1.4016 -1.4392  1.5274
  112MOL0     H15087  -0.411   2.777   2.236  3.6243  0.7620  0.5450
  112MOL0     H15088  -0.495   2.539   2.196 -1.2456  0.1865  0.6709
  112MOL0     H15089  -0.493   2.510   2.381 -0.8570 -0.1114  0.8705
  112MOL0     H15090  -0.641   2.725   2.220 -2.1700 -0.3580 -0.6499
  112MOL0     H15091  -0.656   2.693   2.395 -2.4590  1.3151 -0.7049
  112MOL0     H15092  -0.751   2.499   2.178 -1.0677  0.5026 -0.3714
  112MOL0     H15093  -0.753   2.479   2.357  1.7141  1.4227  0.9513
  112MOL0     H15094  -0.887   2.705   2.206 -0.8811 -0.0230 -0.2231
  112MOL0     H15095  -0.904   2.693   2.367 -3.0787  1.4089 -0.5889
  112MOL0     H15096  -1.001   2.498   2.166 -0.1139 -2.7983  1.4071
  112MOL0     H15097  -1.004   2.458   2.337  0.2479  1.9709  2.0489
  112MOL0     H15098  -1.136   2.711   2.207 -2.5656  0.0325 -2.1395
  112MOL0     H15099  -1.131   2.677   2.384  3.0668  0.6350 -0.1698
  112MOL0     H15100  -1.267   2.482   2.351  0.2148  0.5959  0.7632
  112MOL0     H15101  -1.269   2.498   2.174 -0.8963  0.5489  0.1863
  112MOL0     H15102  -0.213   2.877   2.329 -2.2638 -0.3488 -0.8575
  112MOL0     H15103   0.037   2.976   2.340  2.2971 -0.1033 -1.5268
  112MOL0     H15104   0.335   3.023   1.807  0.9791  0.6008 -0.5524
  112MOL0     H15105   0.510   3.192   1.755 -0.7609  0.2697 -0.7189
  112MOL0     H15106   1.738   3.260   0.913  0.1638 -3.1031 -1.2843
  112MOL0     H15107   1.987   3.309   0.854  1.1357  0.3759 -0.9603
  112MOL0     H15108   2.245   3.544   0.541  0.8831  0.6437  1.5303
  112MOL0     H15109   2.451   3.600   0.476 -1.4872  0.3504 -0.5770
  112MOL0     H15110   2.761   3.397   0.618  1.6463 -1.0878  0.3919
  112MOL0     H15111   2.856   3.362   0.463 -0.1297  1.5561  0.2236
  112MOL0     H15112   2.956   3.553   0.448  1.7357 -0.4412  1.6203
  112MOL0     H15113   2.925   3.544   0.627  0.7634 -0.7214  0.7255
  112MOL0     H15114   2.769   3.719   0.427  1.0735 -0.3378  0.3208
  112MOL0     H15115   2.910   3.767   0.529  0.1291  0.4327 -1.0643
  112MOL0     H15116   2.793   3.740   0.733  0.6656  4.7101  0.3063
  112MOL0     H15117   2.655   3.664   0.649  1.6506 -1.7104 -1.6313
  112MOL0     H15118   2.597   4.079   0.623 -1.3809 -0.4485  0.2531
  112MOL0     H15119   2.605   3.188   0.514  0.2718  0.3444  0.1614
  112MOL0     H15120   2.384   3.134   0.599  2.3772 -0.1411  0.8455
  113MOL0     O15121   8.716   1.029   5.851 -0.2343 -0.8416  0.6347
  113MOL0     C15122   8.724   1.111   5.946 -0.0582 -0.7609  0.5475
  113MOL0     O15123   8.627   1.143   6.034 -0.0021 -0.1309 -0.1054
  113MOL0     C15124   8.493   1.097   6.015  0.2208  0.5678  0.1333
  113MOL0     C15125   8.429   1.048   6.123 -0.0490  0.4272 -0.0080
  113MOL0     C15126   8.293   0.995   6.114 -0.6583  0.0060  0.6335
  113MOL0     C15127   8.228   1.003   5.989  0.0845  0.0976  0.6225
  113MOL0     O15128   8.099   0.968   5.949 -0.6478  0.0170 -0.6900
  113MOL0     C15129   8.017   0.879   6.029 -0.3612 -0.4777  0.7320
  113MOL0     C15130   7.875   0.920   5.999 -1.4190  0.0589  0.2026
  113MOL0     C15131   7.847   0.943   5.845 -0.1917  0.3337  1.1291
  113MOL0     C15132   7.695   0.970   5.828  0.2807  0.1956 -0.4311
  113MOL0     C15133   7.672   0.980   5.680 -0.2536 -0.3371  0.0714
  113MOL0     C15134   7.518   1.004   5.651  0.1009 -0.1483  0.9420
  113MOL0     C15135   7.489   0.987   5.510 -0.1612  0.2832 -0.1001
  113MOL0     C15136   7.338   1.010   5.492 -0.1856  0.4447 -0.4786
  113MOL0     N15137   7.298   0.979   5.349 -0.2493  0.0796  0.6178
  113MOL0     C15138   7.210   1.054   5.279 -0.9400  0.4533  0.7917
  113MOL0     C15139   7.196   0.988   5.164  0.1795 -0.1360  0.4380
  113MOL0     C15140   7.102   1.012   5.039 -0.1768 -0.4924 -1.5024
  113MOL0     C15141   7.078   1.158   5.005  0.4443  0.5135 -0.2454
  113MOL0     C15142   6.987   1.171   4.882 -0.7245  0.7988 -0.3359
  113MOL0     C15143   6.839   1.165   4.913 -0.5539 -0.8734 -0.0710
  113MOL0     O15144   6.772   1.209   4.794 -0.3253  0.4419  0.2953
  113MOL0     C15145   6.634   1.222   4.780 -0.3904  0.4402  0.1072
  113MOL0     C15146   6.585   1.256   4.656  0.1016 -0.2272  0.3904
  113MOL0     C15147   6.452   1.283   4.637 -0.4231  0.0981  0.0017
  113MOL0     C15148   6.412   1.324   4.498  0.4852 -0.2862 -0.2692
  113MOL0     C15149   6.357   1.266   4.744  0.3106 -0.1848 -0.3032
  113MOL0     C15150   6.213   1.293   4.729 -0.7383 -0.0845  0.3026
  113MOL0     O15151   6.143   1.293   4.848 -0.2458  0.2463 -0.3695
  113MOL0     C15152   6.008   1.316   4.846 -0.1970 -1.2015 -0.4900
  113MOL0     C15153   5.928   1.250   4.758  0.2188  0.3508 -0.0668
  113MOL0     C15154   5.788   1.277   4.749 -0.3702  0.5330 -0.4788
  113MOL0     C15155   5.719   1.342   4.845 -0.0783  0.3443  0.4365
  113MOL0     O15156   5.585   1.355   4.823 -0.4559  0.5008 -0.0689
  113MOL0     C15157   5.513   1.370   4.948  0.1757 -0.5911 -0.0600
  113MOL0     C15158   5.380   1.301   4.937  0.2164  0.5571  0.0526
  113MOL0     C15159   5.285   1.377   4.844  0.1142  0.4939  0.6825
  113MOL0     C15160   5.154   1.291   4.824 -0.1924 -0.0882 -0.1203
  113MOL0     C15161   5.087   1.336   4.700 -0.7899 -0.2678 -0.0390
  113MOL0     C15162   4.963   1.246   4.680 -0.1880 -0.7474 -0.1852
  113MOL0     C15163   4.891   1.306   4.555  1.0995  0.4850 -0.3195
  113MOL0     C15164   4.948   1.248   4.430  0.6874 -0.2562  0.0005
  113MOL0    Cl15165   4.847   1.303   4.299  0.5185  0.4135 -0.0856
  113MOL0     C15166   5.794   1.384   4.951 -0.6037  0.2904 -0.1577
  113MOL0     C15167   5.932   1.380   4.945 -1.1619 -0.0990  0.2091
  113MOL0     O15168   6.170   1.330   4.616  0.4368  0.8036  0.0417
  113MOL0     C15169   6.415   1.226   4.869  0.4141 -0.0248  0.9596
  113MOL0     C15170   6.544   1.207   4.883  0.1706  0.0614  0.2400
  113MOL0     N15171   7.270   0.867   5.173 -0.2728  0.3629 -0.1299
  113MOL0     N15172   7.336   0.864   5.283  0.5930 -0.3829  0.5418
  113MOL0     C15173   8.301   1.035   5.880 -0.6777  0.4282  1.1064
  113MOL0     C15174   8.432   1.082   5.889 -0.4897 -0.8569 -0.1063
  113MOL0     C15175   8.861   1.178   5.974  0.3173 -0.0913  0.6628
  113MOL0     C15176   8.879   1.266   6.085  0.1079  0.5403  0.2026
  113MOL0     C15177   9.002   1.287   6.145 -0.4835 -0.6031  0.1031
  113MOL0     C15178   9.119   1.230   6.096 -0.6823  0.9771  1.2561
  113MOL0     O15179   9.242   1.222   6.156 -0.1587  0.7547 -0.3547
  113MOL0     C15180   9.250   1.276   6.290 -0.0317  0.4447 -0.5097
  113MOL0     C15181   9.381   1.263   6.361 -0.4750 -0.1979  0.0127
  113MOL0     C15182   9.493   1.331   6.273  0.0963 -0.6106  0.0189
  113MOL0     C15183   9.635   1.292   6.323 -0.2005 -0.4056 -0.8614
  113MOL0     C15184   9.739   1.373   6.261 -1.0023  0.4047  0.5740
  113MOL0     C15185   9.812   1.434   6.182  0.2349 -0.3125 -0.1996
  113MOL0     C15186   9.109   1.160   5.974 -0.4919  0.3002  0.0233
  113MOL0     C15187   8.984   1.132   5.915  0.2041  0.4148 -0.2711
  113MOL0     H15188   8.473   1.026   6.220  0.9574 -2.6097 -1.0664
  113MOL0     H15189   8.247   0.944   6.198 -1.1429 -0.0116  0.3612
  113MOL0     H15190   8.037   0.779   5.988 -3.2813  0.3453 -3.3337
  113MOL0     H15191   8.034   0.892   6.137 -0.1494  0.6776  0.5668
  113MOL0     H15192   7.806   0.844   6.034 -0.3079 -1.7691 -1.3805
  113MOL0     H15193   7.857   1.019   6.043 -2.2354 -0.4630  1.0515
  113MOL0     H15194   7.899   1.026   5.797  0.5424 -0.5646  0.3481
  113MOL0     H15195   7.869   0.848   5.797  0.3106 -0.1125  2.2065
  113MOL0     H15196   7.632   0.896   5.878 -0.3194  2.9116  3.3391
  113MOL0     H15197   7.671   1.069   5.869 -2.2331 -1.1690  1.7003
  113MOL0     H15198   7.732   1.054   5.628  1.7210 -2.0808 -0.2665
  113MOL0     H15199   7.701   0.882   5.639 -1.2761 -0.4607 -0.3852
  113MOL0     H15200   7.459   0.923   5.694 -1.4215 -0.2843 -1.2242
  113MOL0     H15201   7.486   1.103   5.684 -0.0464  0.5053 -1.0353
  113MOL0     H15202   7.543   1.065   5.456 -1.2289  0.8435 -0.3879
  113MOL0     H15203   7.510   0.883   5.483  1.2772 -0.1816  2.4865
  113MOL0     H15204   7.305   1.107   5.530 -3.7064 -0.7137 -0.2050
  113MOL0     H15205   7.304   0.925   5.551  2.6504  0.0774  0.7823
  113MOL0     H15206   7.164   1.149   5.305 -1.0032 -0.0407  2.5951
  113MOL0     H15207   7.166   0.976   4.958  0.5926  2.8384 -2.4972
  113MOL0     H15208   7.010   0.953   5.044  0.3149 -1.1800 -0.1274
  113MOL0     H15209   7.174   1.210   4.994  0.0469  1.3427  0.1558
  113MOL0     H15210   7.039   1.204   5.096 -0.4426  1.6596 -1.1803
  113MOL0     H15211   7.013   1.099   4.804  0.0434 -0.6468  1.1905
  113MOL0     H15212   6.996   1.271   4.837  0.4210 -1.2413 -5.3142
  113MOL0     H15213   6.813   1.230   4.997  2.3123  2.0411 -1.2432
  113MOL0     H15214   6.810   1.061   4.934  1.1698 -1.3694 -0.0003
  113MOL0     H15215   6.656   1.277   4.577 -0.7499 -1.2615 -0.6863
  113MOL0     H15216   6.346   1.247   4.457  2.9784 -1.1347 -3.0977
  113MOL0     H15217   6.367   1.422   4.479 -0.4395  0.0105  2.9018
  113MOL0     H15218   6.495   1.312   4.428  1.4461  0.7627  0.6459
  113MOL0     H15219   5.955   1.190   4.671 -3.2483 -1.3713 -0.1165
  113MOL0     H15220   5.727   1.239   4.668  0.5033 -0.9614 -0.4770
  113MOL0     H15221   5.560   1.331   5.039  2.7686 -0.7970 -1.3812
  113MOL0     H15222   5.496   1.475   4.975 -3.4239 -1.6478  2.4924
  113MOL0     H15223   5.392   1.201   4.894 -1.7244 -0.0331  0.8011
  113MOL0     H15224   5.337   1.284   5.036 -1.3474 -2.4971 -1.0296
  113MOL0     H15225   5.336   1.407   4.752  2.8930 -3.6421  0.5827
  113MOL0     H15226   5.252   1.470   4.891 -1.7955  0.0486  0.2792
  113MOL0     H15227   5.180   1.185   4.816  0.4640  0.1826 -2.8603
  113MOL0     H15228   5.088   1.291   4.911 -3.1598 -0.8612 -2.2366
  113MOL0     H15229   5.163   1.331   4.622 -0.4999 -0.7715  0.2735
  113MOL0     H15230   5.059   1.441   4.713  0.7040  0.1440 -0.0550
  113MOL0     H15231   4.993   1.142   4.667  4.0415  0.3299 -0.3610
  113MOL0     H15232   4.904   1.264   4.771  1.0641  1.5428  0.2453
  113MOL0     H15233   4.889   1.416   4.560 -2.3033  0.4762  0.6786
  113MOL0     H15234   4.787   1.275   4.559  1.7898 -1.9449  2.6039
  113MOL0     H15235   4.963   1.140   4.420 -0.0495 -0.1472 -3.7766
  113MOL0     H15236   5.042   1.303   4.414 -1.0651  2.7267 -0.8085
  113MOL0     H15237   5.757   1.418   5.047 -0.6847  0.2017 -0.1573
  113MOL0     H15238   5.981   1.430   5.029  1.2179 -2.8028  0.5702
  113MOL0     H15239   6.344   1.208   4.949 -0.4410 -2.9749 -0.3212
  113MOL0     H15240   6.589   1.180   4.978  3.1993  3.2298 -0.0688
  113MOL0     H15241   8.249   1.021   5.785 -1.4002  1.3581  1.3539
  113MOL0     H15242   8.485   1.124   5.804  0.0559 -2.3090 -0.5134
  113MOL0     H15243   8.786   1.315   6.112 -0.8523  0.3963 -2.5184
  113MOL0     H15244   9.010   1.365   6.220 -1.8589 -0.1165 -0.2294
  113MOL0     H15245   9.241   1.383   6.268 -0.1769  0.6503  0.4659
  113MOL0     H15246   9.171   1.243   6.359  0.8779  0.0606  0.3718
  113MOL0     H15247   9.402   1.159   6.387 -1.0325 -0.5779 -1.0228
  113MOL0     H15248   9.378   1.316   6.457 -2.5298  0.0322 -0.1246
  113MOL0     H15249   9.496   1.440   6.268  2.2357 -0.3350  3.7826
  113MOL0     H15250   9.479   1.308   6.167 -1.3867  0.4417 -0.0483
  113MOL0     H15251   9.654   1.185   6.313  2.9755  0.0496 -0.5558
  113MOL0     H15252   9.645   1.323   6.428  1.0569  1.3427 -1.4573
  113MOL0     H15253   9.862   1.479   6.099  0.0776  1.1974  0.5030
  113MOL0     H15254   9.201   1.123   5.930 -0.5234  0.2711 -0.0187
  113MOL0     H15255   8.985   1.066   5.829 -1.2954  0.9181 -0.6956
  114MOL0     O15256  10.268   7.968   5.159 -0.2136 -0.3275 -0.0991
  114MOL0     C15257  10.254   8.045   5.250  0.0559  0.0537 -0.0059
  114MOL0     O15258  10.154   8.139   5.259  0.7207  0.6950 -0.2108
  114MOL0     C15259  10.062   8.155   5.158  0.1968  0.6545 -0.2026
  114MOL0     C15260  10.102   8.156   5.027  0.3313 -0.0794  0.5315
  114MOL0     C15261  10.002   8.167   4.926 -0.3648  0.0841 -0.1215
  114MOL0     C15262   9.867   8.175   4.957 -0.8968 -0.0449 -0.6094
  114MOL0     O15263   9.771   8.186   4.867 -0.5826  0.1064 -0.4031
  114MOL0     C15264   9.759   8.318   4.810  0.2589  0.3024  0.4184
  114MOL0     C15265   9.805   8.315   4.666 -0.2489  0.0954  0.6169
  114MOL0     C15266   9.756   8.440   4.592 -0.1644 -0.2602  0.0727
  114MOL0     C15267   9.739   8.417   4.445 -0.3039 -0.1289  1.3580
  114MOL0     C15268   9.694   8.549   4.369 -0.9393  0.3219  0.0703
  114MOL0     C15269   9.654   8.531   4.219  0.6346  0.5460 -0.5826
  114MOL0     C15270   9.511   8.468   4.216  0.2819  0.7171 -0.4831
  114MOL0     C15271   9.488   8.404   4.069  0.5387 -0.2204 -0.1495
  114MOL0     N15272   9.365   8.320   4.057 -0.0018  0.3846  0.3650
  114MOL0     C15273   9.362   8.207   3.983 -0.4734 -0.2306  0.1888
  114MOL0     C15274   9.248   8.147   4.012  0.3736  0.1387  0.9502
  114MOL0     C15275   9.218   8.006   3.957  0.2296  0.2903  0.4346
  114MOL0     C15276   9.084   7.998   3.885  0.0442  0.1116 -0.6574
  114MOL0     C15277   9.081   8.089   3.769 -0.3166  0.1746  1.4779
  114MOL0     C15278   8.948   8.080   3.691 -0.0856 -0.3118 -0.8284
  114MOL0     O15279   8.952   8.177   3.587 -0.2830  0.2156 -0.1102
  114MOL0     C15280   8.848   8.195   3.497 -0.3718  0.0015  0.4679
  114MOL0     C15281   8.859   8.303   3.408  0.2983  0.1663 -0.1196
  114MOL0     C15282   8.761   8.322   3.310  0.5769  0.6188  0.0298
  114MOL0     C15283   8.778   8.442   3.222  0.3496 -0.3320 -0.3023
  114MOL0     C15284   8.644   8.239   3.299 -0.7107  0.0116  0.0241
  114MOL0     C15285   8.531   8.279   3.204  0.6159  0.8792  0.5346
  114MOL0     O15286   8.416   8.214   3.238  0.6173  0.2983 -0.0652
  114MOL0     C15287   8.312   8.202   3.147 -1.2420 -0.6213 -0.5843
  114MOL0     C15288   8.185   8.236   3.193 -0.6488 -0.2902 -1.0937
  114MOL0     C15289   8.074   8.206   3.122  0.3287  1.3366 -0.5784
  114MOL0     C15290   8.082   8.138   3.004  0.3529 -0.5395  0.7884
  114MOL0     O15291   7.972   8.111   2.921  0.3289 -0.1818 -0.5259
  114MOL0     C15292   7.837   8.101   2.972 -0.1797 -0.2023 -0.1702
  114MOL0     C15293   7.755   8.106   2.842  0.7873 -0.4796 -0.4789
  114MOL0     C15294   7.602   8.103   2.850 -0.3315 -0.2045  0.3914
  114MOL0     C15295   7.545   8.093   2.711  0.6713 -0.5181  0.9230
  114MOL0     C15296   7.392   8.110   2.732  0.3810  0.4808  0.3937
  114MOL0     C15297   7.318   8.056   2.608  0.8896 -0.1111  0.3743
  114MOL0     C15298   7.184   8.122   2.593  0.1031  0.1945 -0.5407
  114MOL0     C15299   7.128   8.079   2.457 -1.0010 -0.0049  0.6828
  114MOL0    Cl15300   6.967   8.147   2.427  0.2858 -0.2573 -0.1486
  114MOL0     C15301   8.206   8.102   2.954 -0.6368  0.1382 -0.1040
  114MOL0     C15302   8.328   8.134   3.020  0.7134  0.6453 -0.0459
  114MOL0     O15303   8.551   8.323   3.095 -0.0794  0.4378 -0.2806
  114MOL0     C15304   8.630   8.133   3.395 -0.0176  0.5567  0.1709
  114MOL0     C15305   8.731   8.109   3.487 -0.0171 -0.9549 -0.5649
  114MOL0     N15306   9.175   8.221   4.101  0.4345 -0.3337 -0.8122
  114MOL0     N15307   9.250   8.324   4.131 -0.0340  0.0272  0.2933
  114MOL0     C15308   9.838   8.190   5.094  0.0454 -0.0494  0.4155
  114MOL0     C15309   9.929   8.175   5.195  0.4381 -0.2295 -0.5139
  114MOL0     C15310  10.362   8.061   5.348  0.9096  0.0881 -0.5407
  114MOL0     C15311  10.444   7.955   5.380  0.5581  0.0011 -0.2708
  114MOL0     C15312  10.557   7.969   5.455 -0.1859 -0.2005  0.5929
  114MOL0     C15313  10.596   8.094   5.506  0.4643  0.5378  0.1108
  114MOL0     O15314  10.713   8.093   5.579  0.2353 -0.2342  0.2251
  114MOL0     C15315  10.729   8.197   5.681  0.3048  0.0402  0.0243
  114MOL0     C15316  10.658   8.163   5.813  0.0963 -0.2082 -0.4546
  114MOL0     C15317  10.721   8.035   5.877  0.4388  0.0733  0.5955
  114MOL0     C15318  10.645   8.000   6.008  0.1144 -0.5538 -0.0032
  114MOL0     C15319  10.724   8.044   6.121 -0.1396  0.1908 -0.6706
  114MOL0     C15320  10.790   8.093   6.217  0.1860  0.0097 -0.1302
  114MOL0     C15321  10.512   8.208   5.486 -0.0521  0.2388 -0.2134
  114MOL0     C15322  10.391   8.190   5.408 -0.1929 -0.6619  0.0293
  114MOL0     H15323  10.206   8.152   4.996 -0.2062  1.1436 -1.6221
  114MOL0     H15324  10.033   8.148   4.824 -0.3914 -0.3688 -0.0432
  114MOL0     H15325   9.653   8.340   4.825  0.4099  1.4403 -0.0760
  114MOL0     H15326   9.825   8.390   4.860 -0.8199  0.2434  2.0093
  114MOL0     H15327   9.915   8.311   4.670  0.0152  1.8286 -2.2897
  114MOL0     H15328   9.761   8.234   4.607 -2.7122  0.6772  1.5384
  114MOL0     H15329   9.659   8.462   4.638 -0.3124 -1.2442  0.2460
  114MOL0     H15330   9.830   8.520   4.601  1.4067 -1.1199 -3.4326
  114MOL0     H15331   9.836   8.400   4.399 -1.6520  1.3619 -2.4031
  114MOL0     H15332   9.679   8.330   4.417 -1.0512 -0.2550  3.2147
  114MOL0     H15333   9.614   8.593   4.429 -0.5253  1.3988 -0.1464
  114MOL0     H15334   9.767   8.630   4.377 -1.5011  0.7447  0.9678
  114MOL0     H15335   9.646   8.632   4.177  1.2435  0.2313 -1.5017
  114MOL0     H15336   9.737   8.477   4.172  1.7776 -2.5439  4.3065
  114MOL0     H15337   9.495   8.388   4.289  0.5302  0.6502 -0.5033
  114MOL0     H15338   9.433   8.540   4.244  0.1060 -0.0099  0.9991
  114MOL0     H15339   9.578   8.350   4.038  1.0451  0.5225 -0.0187
  114MOL0     H15340   9.482   8.487   3.997 -0.1717 -1.2149 -1.2574
  114MOL0     H15341   9.431   8.171   3.908 -1.1237 -3.4685  1.0153
  114MOL0     H15342   9.302   7.974   3.894 -1.6711 -1.6685 -1.2308
  114MOL0     H15343   9.232   7.935   4.039  1.3702 -2.2171 -1.7800
  114MOL0     H15344   9.005   8.032   3.953 -0.3223 -3.4115  0.8686
  114MOL0     H15345   9.069   7.897   3.845  1.2944 -0.1763 -0.4335
  114MOL0     H15346   9.155   8.064   3.692 -0.4781  0.3495  1.2682
  114MOL0     H15347   9.098   8.189   3.808 -0.0504  1.2682 -1.2308
  114MOL0     H15348   8.857   8.098   3.749 -0.5711 -3.3213 -0.5355
  114MOL0     H15349   8.933   7.978   3.654 -1.1934 -0.2537 -0.5780
  114MOL0     H15350   8.939   8.377   3.408  0.3871  0.1339 -2.4376
  114MOL0     H15351   8.693   8.511   3.215  0.6765 -0.0410 -1.8833
  114MOL0     H15352   8.857   8.501   3.268  0.5041 -0.3940 -0.4865
  114MOL0     H15353   8.813   8.405   3.125  0.4593 -0.2350 -0.3000
  114MOL0     H15354   8.184   8.293   3.285 -0.3229  0.3383 -1.4713
  114MOL0     H15355   7.976   8.219   3.167  0.5679  1.5550 -0.1000
  114MOL0     H15356   7.831   8.006   3.026  1.2321 -0.5440 -0.5644
  114MOL0     H15357   7.810   8.185   3.037 -2.3308 -2.0614  1.5084
  114MOL0     H15358   7.782   8.196   2.786 -0.0842  1.3407  1.8978
  114MOL0     H15359   7.780   8.022   2.777 -0.8877  1.4133 -3.8376
  114MOL0     H15360   7.568   8.199   2.891 -0.5774  0.5248 -1.3950
  114MOL0     H15361   7.574   8.024   2.920  0.0612 -1.5740 -0.9303
  114MOL0     H15362   7.574   8.183   2.655 -0.9886  1.3163  2.8241
  114MOL0     H15363   7.573   8.005   2.652 -0.7436 -1.8651  2.1924
  114MOL0     H15364   7.355   8.213   2.733 -3.1305 -0.6250  1.9136
  114MOL0     H15365   7.350   8.056   2.817  0.8036 -0.6413 -0.0859
  114MOL0     H15366   7.384   8.074   2.524  3.9832  1.7901  3.0016
  114MOL0     H15367   7.298   7.949   2.624  0.1317 -0.0137  0.1233
  114MOL0     H15368   7.184   8.231   2.607 -0.5120  0.1089  0.2360
  114MOL0     H15369   7.129   8.075   2.675  0.4451 -3.7475 -2.3423
  114MOL0     H15370   7.118   7.970   2.455 -3.3577  0.1303  1.7404
  114MOL0     H15371   7.201   8.108   2.381 -0.6189 -1.0699  0.6267
  114MOL0     H15372   8.208   8.038   2.867 -1.1270  1.9254 -1.4958
  114MOL0     H15373   8.423   8.085   2.998  1.3765  1.6161  0.5672
  114MOL0     H15374   8.537   8.076   3.394 -0.6451  1.3237  3.1478
  114MOL0     H15375   8.724   8.033   3.563  2.7639 -0.3167  0.4419
  114MOL0     H15376   9.731   8.197   5.111 -0.4326 -1.3930 -1.6442
  114MOL0     H15377   9.898   8.192   5.297 -1.4446  2.0797 -1.3761
  114MOL0     H15378  10.435   7.858   5.331 -1.4939  0.6172 -1.2068
  114MOL0     H15379  10.616   7.881   5.477  1.8710  0.7013 -1.0125
  114MOL0     H15380  10.834   8.211   5.704  0.2389 -0.2850  0.5397
  114MOL0     H15381  10.694   8.296   5.649 -1.7239 -1.1996 -1.9331
  114MOL0     H15382  10.553   8.138   5.795  0.2821 -2.4510  1.1619
  114MOL0     H15383  10.662   8.244   5.886 -0.5567 -1.9193  1.6008
  114MOL0     H15384  10.827   8.062   5.886  0.4938  0.3651 -0.7491
  114MOL0     H15385  10.716   7.959   5.799 -1.2873  0.6583  0.0998
  114MOL0     H15386  10.646   7.890   6.014 -0.0395 -0.7719 -2.7772
  114MOL0     H15387  10.545   8.044   6.015  1.1037  1.9053 -0.4260
  114MOL0     H15388  10.856   8.134   6.291 -3.3586  0.0819  3.2763
  114MOL0     H15389  10.534   8.308   5.522 -0.3030  0.5734 -0.9893
  114MOL0     H15390  10.324   8.275   5.400  0.5984 -0.1600 -1.7510
  115MOL0     O15391  10.642   8.116   3.328 -0.4978  0.1111  0.0745
  115MOL0     C15392  10.574   8.116   3.431 -0.9721 -0.0899  0.1335
  115MOL0     O15393  10.440   8.123   3.441 -0.2327 -1.0358 -0.6156
  115MOL0     C15394  10.355   8.110   3.340 -0.8910  0.2860  0.8856
  115MOL0     C15395  10.384   8.037   3.223  0.1573 -0.9970 -0.0268
  115MOL0     C15396  10.293   8.014   3.118  0.2869 -0.3583 -0.3338
  115MOL0     C15397  10.165   8.068   3.131  0.6404  0.1243  0.7352
  115MOL0     O15398  10.061   8.038   3.047 -0.5773 -0.0293  0.3911
  115MOL0     C15399  10.047   8.133   2.940  0.9065 -0.7907 -0.7741
  115MOL0     C15400   9.923   8.116   2.859 -0.1630 -0.6873 -0.5613
  115MOL0     C15401   9.797   8.166   2.936  0.0493 -0.4037  0.2307
  115MOL0     C15402   9.672   8.147   2.855  0.3791 -0.4619  0.1275
  115MOL0     C15403   9.558   8.210   2.926 -0.3917 -0.5676 -0.4227
  115MOL0     C15404   9.436   8.176   2.858  0.9317 -0.2270  0.7113
  115MOL0     C15405   9.317   8.241   2.925 -0.1756  1.1229  0.2356
  115MOL0     C15406   9.180   8.188   2.871  0.1083 -0.1203  0.3490
  115MOL0     N15407   9.095   8.303   2.848  0.3138  0.1373  0.1285
  115MOL0     C15408   9.043   8.352   2.736  0.4094  0.5437  0.2859
  115MOL0     C15409   8.954   8.450   2.774 -0.0187 -0.5238  0.3092
  115MOL0     C15410   8.899   8.563   2.697  0.3203  0.0820  0.1221
  115MOL0     C15411   8.749   8.570   2.722  1.0538 -0.0043  0.8495
  115MOL0     C15412   8.676   8.446   2.664 -0.4418  0.0275 -0.3774
  115MOL0     C15413   8.522   8.428   2.682 -0.5901 -0.3240 -0.0053
  115MOL0     O15414   8.462   8.540   2.608  0.1241 -0.1554  0.4658
  115MOL0     C15415   8.336   8.531   2.564 -0.3494 -0.2314 -0.1620
  115MOL0     C15416   8.241   8.435   2.620 -0.4336 -0.8214  0.1798
  115MOL0     C15417   8.119   8.427   2.560  0.1279 -0.4305  0.8787
  115MOL0     C15418   8.032   8.316   2.620 -0.8838 -0.8607 -0.9020
  115MOL0     C15419   8.068   8.528   2.471 -0.3052 -0.1248  0.1237
  115MOL0     C15420   7.923   8.537   2.430 -0.0730 -0.5777  0.4058
  115MOL0     O15421   7.826   8.468   2.502  0.0755  0.4607  0.0356
  115MOL0     C15422   7.695   8.466   2.456  0.6426  0.0973  0.0275
  115MOL0     C15423   7.587   8.444   2.544 -0.1611 -0.2010  0.4907
  115MOL0     C15424   7.460   8.435   2.494 -0.2554 -0.3621 -0.2170
  115MOL0     C15425   7.425   8.439   2.363 -0.4113 -0.2233  0.4457
  115MOL0     O15426   7.291   8.413   2.335  0.2479  0.2237 -0.3079
  115MOL0     C15427   7.260   8.406   2.196 -0.5772  0.1935  0.3766
  115MOL0     C15428   7.113   8.356   2.186 -0.9269  0.0794 -0.1508
  115MOL0     C15429   7.053   8.410   2.053 -0.1339  0.3288 -0.6004
  115MOL0     C15430   6.914   8.347   2.024  0.0760 -0.0147 -0.2070
  115MOL0     C15431   6.860   8.422   1.897  0.3197 -0.3003 -0.8607
  115MOL0     C15432   6.734   8.343   1.862  0.5306 -0.1809 -0.3253
  115MOL0     C15433   6.635   8.405   1.750  0.4319 -0.1324 -0.6538
  115MOL0     C15434   6.553   8.284   1.717 -0.2748 -0.2754 -0.8996
  115MOL0    Cl15435   6.439   8.330   1.588 -0.1382 -0.3033 -0.3690
  115MOL0     C15436   7.526   8.466   2.271 -0.0255  0.4782 -0.8752
  115MOL0     C15437   7.662   8.477   2.316  0.6423  0.3026 -1.0408
  115MOL0     O15438   7.915   8.611   2.331  0.1832 -0.7769 -0.0685
  115MOL0     C15439   8.165   8.608   2.404  0.3489 -0.0451  0.1712
  115MOL0     C15440   8.296   8.612   2.455 -0.6805 -0.5226  0.0671
  115MOL0     N15441   8.943   8.444   2.904  0.0751 -0.5146 -0.6165
  115MOL0     N15442   9.040   8.370   2.956  0.4757 -0.5766 -0.0778
  115MOL0     C15443  10.131   8.144   3.241  0.0146  0.1058 -0.1747
  115MOL0     C15444  10.224   8.167   3.336  0.2568 -0.1067 -1.1111
  115MOL0     C15445  10.649   8.124   3.561  0.0034  0.0934  0.7880
  115MOL0     C15446  10.584   8.132   3.687  0.2043 -0.1135 -0.3971
  115MOL0     C15447  10.656   8.143   3.809  0.4879 -0.4638 -0.4450
  115MOL0     C15448  10.794   8.158   3.800 -0.1739  0.1296  0.3108
  115MOL0     O15449  10.852   8.165   3.922  0.2141 -1.0131  0.1002
  115MOL0     C15450  10.987   8.220   3.927  0.2130 -0.3503  0.5670
  115MOL0     C15451  11.023   8.248   4.072  0.0020  0.3750  0.3950
  115MOL0     C15452  11.155   8.335   4.084  0.3743 -0.0520 -0.8498
  115MOL0     C15453  11.232   8.333   4.221  0.5606 -0.0142  0.4992
  115MOL0     C15454  11.145   8.358   4.334  1.5547 -0.8753  0.6124
  115MOL0     C15455  11.052   8.377   4.416 -0.6617  0.8730 -0.0865
  115MOL0     C15456  10.865   8.143   3.675 -0.0330  1.1388 -1.3584
  115MOL0     C15457  10.791   8.127   3.561  0.5142 -0.3459  0.0025
  115MOL0     H15458  10.478   7.986   3.207 -0.4242 -1.8663 -0.7433
  115MOL0     H15459  10.320   7.950   3.034  0.2307  0.0876 -0.6959
  115MOL0     H15460  10.040   8.236   2.976  0.5026 -1.4226  1.0376
  115MOL0     H15461  10.135   8.117   2.877  0.3071  0.4941 -1.9980
  115MOL0     H15462   9.926   8.175   2.767 -1.5804  3.5580  1.8286
  115MOL0     H15463   9.929   8.008   2.840 -0.8388 -0.8273 -0.0230
  115MOL0     H15464   9.795   8.117   3.034  2.7637  0.8190  0.9767
  115MOL0     H15465   9.815   8.271   2.958  2.4694 -0.6700 -0.1294
  115MOL0     H15466   9.680   8.192   2.756  2.3657 -2.1575 -0.5620
  115MOL0     H15467   9.659   8.038   2.850  2.1969 -0.6864 -0.7965
  115MOL0     H15468   9.551   8.157   3.021  0.4918 -0.4282 -0.2684
  115MOL0     H15469   9.583   8.315   2.942  2.3220 -1.2730  0.5762
  115MOL0     H15470   9.443   8.208   2.754  1.2796  2.2618  1.4337
  115MOL0     H15471   9.417   8.069   2.870  0.7811 -0.0930  1.7391
  115MOL0     H15472   9.314   8.229   3.033 -2.6657  0.7368  0.1648
  115MOL0     H15473   9.325   8.350   2.916 -2.2860  1.1751 -2.0711
  115MOL0     H15474   9.138   8.131   2.954  0.7693  1.3166  1.7321
  115MOL0     H15475   9.191   8.122   2.784  1.4326  0.5897 -0.0520
  115MOL0     H15476   9.080   8.322   2.638  1.0449 -2.4417  1.3492
  115MOL0     H15477   8.943   8.656   2.734  0.1030  0.4319 -0.4935
  115MOL0     H15478   8.925   8.544   2.593  2.8290 -3.5605  1.2153
  115MOL0     H15479   8.711   8.661   2.676  3.4657  0.4455 -0.4119
  115MOL0     H15480   8.734   8.578   2.831  3.2400  1.2063  1.1399
  115MOL0     H15481   8.729   8.354   2.686 -0.6975 -0.0273  0.0219
  115MOL0     H15482   8.672   8.462   2.555 -2.4873  0.0121 -0.3528
  115MOL0     H15483   8.500   8.427   2.790 -0.2640 -0.0030  0.0685
  115MOL0     H15484   8.498   8.331   2.638  0.8762 -1.1134  0.8471
  115MOL0     H15485   8.271   8.371   2.703 -2.1214 -0.4039  1.1579
  115MOL0     H15486   8.090   8.240   2.674 -0.2006 -1.6266 -2.6535
  115MOL0     H15487   7.956   8.352   2.690  1.4473 -1.2356  2.0339
  115MOL0     H15488   7.979   8.261   2.542 -1.3372  0.3556 -1.4764
  115MOL0     H15489   7.617   8.441   2.648 -1.7786  2.0845  1.1073
  115MOL0     H15490   7.378   8.415   2.563 -0.4492 -2.0664 -0.8932
  115MOL0     H15491   7.274   8.504   2.151 -2.2195 -0.6419 -2.1264
  115MOL0     H15492   7.316   8.332   2.137  0.9218 -0.7241  2.7705
  115MOL0     H15493   7.111   8.247   2.188  1.9901 -0.0445  1.4961
  115MOL0     H15494   7.056   8.373   2.278 -1.5371  0.4047 -0.5839
  115MOL0     H15495   7.123   8.376   1.976  0.1177  1.1340 -0.7341
  115MOL0     H15496   7.043   8.519   2.061 -2.3539  0.0878  0.9439
  115MOL0     H15497   6.922   8.239   2.009  0.1811 -0.3474  2.0085
  115MOL0     H15498   6.856   8.372   2.113 -0.7895 -1.6056 -0.2732
  115MOL0     H15499   6.932   8.441   1.817  3.4190  1.3591  2.0547
  115MOL0     H15500   6.829   8.519   1.938  1.0107 -1.9403  4.4237
  115MOL0     H15501   6.759   8.243   1.825  0.3190 -0.2311 -0.3377
  115MOL0     H15502   6.690   8.327   1.961 -2.2423 -1.7549 -1.6812
  115MOL0     H15503   6.692   8.436   1.662 -0.5803  2.0186 -0.6326
  115MOL0     H15504   6.573   8.485   1.793  0.6238  0.1736 -0.9442
  115MOL0     H15505   6.501   8.250   1.807  1.3202 -0.8684 -0.1583
  115MOL0     H15506   6.603   8.201   1.667  1.7729  0.0276  0.5385
  115MOL0     H15507   7.509   8.455   2.164  1.2704 -0.4276 -1.0172
  115MOL0     H15508   7.747   8.479   2.249  1.5052  0.5565  0.0198
  115MOL0     H15509   8.146   8.669   2.317 -3.1894 -0.3231  0.6047
  115MOL0     H15510   8.373   8.675   2.411 -1.6039  1.5842  1.3325
  115MOL0     H15511  10.030   8.182   3.240  0.7986  2.2973 -0.9812
  115MOL0     H15512  10.189   8.222   3.422  0.4636 -1.1807 -0.3133
  115MOL0     H15513  10.475   8.131   3.692  0.2375 -2.6388  2.2932
  115MOL0     H15514  10.619   8.169   3.907 -2.2663  2.5457 -2.0544
  115MOL0     H15515  11.059   8.147   3.889 -0.9385 -0.6924 -1.0602
  115MOL0     H15516  10.990   8.309   3.865 -2.8414 -1.7094 -1.8177
  115MOL0     H15517  11.047   8.158   4.128  0.8209  1.3529  1.6646
  115MOL0     H15518  10.937   8.293   4.123  1.5642  0.9025  2.6785
  115MOL0     H15519  11.130   8.441   4.068  0.1607 -0.1107 -0.8949
  115MOL0     H15520  11.224   8.299   4.007  0.0937 -0.8373 -0.7364
  115MOL0     H15521  11.298   8.419   4.207  1.4786 -0.3704  2.2673
  115MOL0     H15522  11.302   8.249   4.231  0.1725 -0.3617  0.3498
  115MOL0     H15523  10.988   8.401   4.499  1.7410  1.4208  1.7416
  115MOL0     H15524  10.972   8.153   3.656  0.3495 -0.8655 -0.5475
  115MOL0     H15525  10.830   8.131   3.460 -0.3779 -0.1649 -0.3399
  116MOL0     O15526   9.566   9.301   3.054  0.9308  0.0163  0.4271
  116MOL0     C15527   9.555   9.253   3.167 -0.1551 -0.4508  1.8580
  116MOL0     O15528   9.445   9.261   3.241 -0.2751  0.0853  0.1702
  116MOL0     C15529   9.323   9.266   3.179  0.2201  0.1876 -0.5690
  116MOL0     C15530   9.278   9.178   3.089  0.1379  0.7221  0.5067
  116MOL0     C15531   9.146   9.171   3.054  0.2966 -1.3227  0.9650
  116MOL0     C15532   9.053   9.271   3.104 -0.3925  0.4054  0.5370
  116MOL0     O15533   8.923   9.283   3.060  0.1252  0.5344 -0.0507
  116MOL0     C15534   8.850   9.178   2.995  0.4442 -0.2550 -0.1805
  116MOL0     C15535   8.720   9.253   2.968  1.2856  0.4098  0.4082
  116MOL0     C15536   8.640   9.190   2.858  0.2084  0.1475 -0.1187
  116MOL0     C15537   8.522   9.268   2.805 -0.4824 -0.5239 -0.3366
  116MOL0     C15538   8.419   9.200   2.718 -0.6946 -0.3432  0.5959
  116MOL0     C15539   8.474   9.173   2.583 -0.0705 -0.0943 -0.0457
  116MOL0     C15540   8.366   9.119   2.492  0.5464 -0.1500  0.2620
  116MOL0     C15541   8.250   9.224   2.453 -0.3337  1.0160 -0.4399
  116MOL0     N15542   8.147   9.159   2.364  0.4333  0.3410  0.3068
  116MOL0     C15543   8.040   9.097   2.412  1.1401  1.3855  0.1867
  116MOL0     C15544   7.980   9.038   2.304  0.1197  0.7800 -0.3093
  116MOL0     C15545   7.857   8.955   2.325  0.0087 -0.0657 -0.1796
  116MOL0     C15546   7.774   8.920   2.199  0.4351  0.3539  0.1931
  116MOL0     C15547   7.630   8.864   2.236 -0.7265  0.3434 -0.5106
  116MOL0     C15548   7.546   8.842   2.121  0.1815  0.2389 -0.3993
  116MOL0     O15549   7.595   8.732   2.038 -0.2239  0.1791  0.6892
  116MOL0     C15550   7.518   8.680   1.939  0.6474  0.5844 -0.4968
  116MOL0     C15551   7.567   8.624   1.822  0.2662 -0.5986 -0.1251
  116MOL0     C15552   7.484   8.583   1.713 -1.4366  0.6967  0.4400
  116MOL0     C15553   7.537   8.548   1.578  0.1597  0.4683  0.3159
  116MOL0     C15554   7.341   8.595   1.719  0.3099 -0.5830  0.0182
  116MOL0     C15555   7.229   8.579   1.618 -0.4703  0.4946 -0.6365
  116MOL0     O15556   7.109   8.645   1.631  0.3501 -0.7056  0.0358
  116MOL0     C15557   7.007   8.633   1.539 -0.4846  0.4275 -0.6730
  116MOL0     C15558   6.945   8.752   1.502  0.5126  0.8531  0.0148
  116MOL0     C15559   6.831   8.745   1.424  0.0818  0.7057  0.4004
  116MOL0     C15560   6.773   8.623   1.388 -0.1940  0.1122  0.1026
  116MOL0     O15561   6.665   8.626   1.310  0.8663  0.9622  0.0081
  116MOL0     C15562   6.581   8.512   1.292 -0.1214  0.1928  0.3468
  116MOL0     C15563   6.461   8.562   1.208  0.1028 -0.1697 -0.7509
  116MOL0     C15564   6.359   8.448   1.202 -0.3232 -0.2437  0.4956
  116MOL0     C15565   6.223   8.504   1.144 -0.1379 -0.9308  0.0248
  116MOL0     C15566   6.119   8.385   1.136 -0.9783  0.1659 -0.8348
  116MOL0     C15567   5.983   8.443   1.107 -1.2051 -0.4073  1.0366
  116MOL0     C15568   5.883   8.339   1.098  0.1014  0.0160  0.7878
  116MOL0     C15569   5.754   8.400   1.075  0.2113 -0.0933 -0.3100
  116MOL0    Cl15570   5.638   8.272   1.037 -0.0847  0.3693 -0.0064
  116MOL0     C15571   6.840   8.501   1.426 -0.0562  0.8447  0.5698
  116MOL0     C15572   6.961   8.508   1.500  0.5515 -0.0098 -0.1823
  116MOL0     O15573   7.251   8.506   1.524 -1.1031  0.5212 -0.0257
  116MOL0     C15574   7.288   8.630   1.851  0.3304 -0.2073 -0.3372
  116MOL0     C15575   7.372   8.682   1.953  0.8684 -0.6091 -0.2553
  116MOL0     N15576   8.054   9.062   2.194  0.5171  1.1580 -0.3202
  116MOL0     N15577   8.159   9.145   2.226  0.0832 -1.0280  0.1307
  116MOL0     C15578   9.105   9.367   3.187 -0.4748  0.2771 -0.4932
  116MOL0     C15579   9.241   9.366   3.229  0.0607 -0.0125 -0.8775
  116MOL0     C15580   9.676   9.182   3.229  0.7741 -0.8556  0.1692
  116MOL0     C15581   9.783   9.139   3.157 -1.6167 -0.6344  1.3428
  116MOL0     C15582   9.890   9.082   3.223 -0.1675  0.0720 -1.2750
  116MOL0     C15583   9.886   9.055   3.365  0.1611 -0.4679  0.3503
  116MOL0     O15584   9.989   8.991   3.419 -0.2460 -0.3737 -0.2909
  116MOL0     C15585   9.983   8.933   3.547 -0.5287  0.3196 -0.5565
  116MOL0     C15586  10.041   9.032   3.645  0.9663 -0.5616 -0.1175
  116MOL0     C15587  10.006   8.992   3.788 -0.1340 -0.4243 -0.6212
  116MOL0     C15588  10.010   9.119   3.876 -0.1726  0.2001 -0.3580
  116MOL0     C15589   9.899   9.205   3.856  0.7157 -0.6239 -0.1649
  116MOL0     C15590   9.803   9.284   3.843  0.0922 -0.2252  0.7336
  116MOL0     C15591   9.760   9.085   3.433  0.4073 -0.5461 -0.1818
  116MOL0     C15592   9.662   9.156   3.367  0.6818  0.4456 -0.3219
  116MOL0     H15593   9.343   9.105   3.042 -0.9783  0.1476 -0.1659
  116MOL0     H15594   9.117   9.098   2.980  0.1252 -0.6730  0.3762
  116MOL0     H15595   8.901   9.157   2.900  0.6552  2.9028 -0.8773
  116MOL0     H15596   8.838   9.090   3.059 -0.8563  0.4114  0.5159
  116MOL0     H15597   8.650   9.247   3.052 -0.6219 -0.9808 -1.1945
  116MOL0     H15598   8.734   9.359   2.943 -2.1583  0.7912 -0.4585
  116MOL0     H15599   8.699   9.150   2.775 -1.2476 -3.3883  0.3291
  116MOL0     H15600   8.600   9.097   2.900  2.0750 -1.5490 -1.8382
  116MOL0     H15601   8.480   9.303   2.900  2.7264  1.0738  0.6236
  116MOL0     H15602   8.569   9.348   2.747  3.7754 -1.6295  1.1820
  116MOL0     H15603   8.376   9.114   2.771 -3.1828 -0.2893 -1.1600
  116MOL0     H15604   8.330   9.261   2.701 -0.2663 -0.7031 -4.3422
  116MOL0     H15605   8.512   9.266   2.539 -1.3164  1.9869  2.9508
  116MOL0     H15606   8.555   9.099   2.578  2.2995  2.4085 -2.3553
  116MOL0     H15607   8.413   9.089   2.398 -0.4941  0.1586 -0.3697
  116MOL0     H15608   8.314   9.037   2.542 -2.4274  0.8954 -0.9010
  116MOL0     H15609   8.295   9.314   2.411  1.3672  0.2526 -0.3512
  116MOL0     H15610   8.199   9.264   2.541 -0.6756 -0.1379 -0.0904
  116MOL0     H15611   8.002   9.096   2.514  3.9212  0.3157  1.3009
  116MOL0     H15612   7.883   8.862   2.375 -0.0855  0.7707  1.4758
  116MOL0     H15613   7.787   9.008   2.391  0.5141  0.2727  0.0856
  116MOL0     H15614   7.822   8.852   2.129 -2.9344 -0.6705 -1.3285
  116MOL0     H15615   7.760   9.019   2.154 -0.3341  0.1856  0.0383
  116MOL0     H15616   7.577   8.929   2.305 -0.7421 -2.6308  2.5480
  116MOL0     H15617   7.639   8.767   2.286 -1.2869 -0.1493 -1.3330
  116MOL0     H15618   7.539   8.931   2.059 -1.6390 -0.0692 -0.6726
  116MOL0     H15619   7.450   8.819   2.168  0.7760 -0.9983  0.2579
  116MOL0     H15620   7.674   8.623   1.801 -0.0394 -0.2192 -1.8554
  116MOL0     H15621   7.503   8.630   1.514 -0.3211  1.9981  2.3877
  116MOL0     H15622   7.644   8.558   1.558  0.3911 -0.8981  0.7633
  116MOL0     H15623   7.509   8.448   1.546 -2.1881  0.5271  1.9096
  116MOL0     H15624   6.982   8.852   1.522  1.9018  0.5407 -0.8486
  116MOL0     H15625   6.778   8.833   1.389 -0.9567 -0.0345  0.0640
  116MOL0     H15626   6.632   8.436   1.233 -0.7157 -1.1399  1.5076
  116MOL0     H15627   6.551   8.481   1.392  1.4560 -0.3358  0.6857
  116MOL0     H15628   6.406   8.643   1.258  0.8558 -0.3785  0.4593
  116MOL0     H15629   6.496   8.596   1.110  0.0833  3.5939  0.3904
  116MOL0     H15630   6.345   8.418   1.307  1.9825 -0.4729  0.7931
  116MOL0     H15631   6.397   8.366   1.140  0.1411 -0.2086  0.7248
  116MOL0     H15632   6.186   8.577   1.217  1.0904 -1.0338  0.7854
  116MOL0     H15633   6.237   8.540   1.042  0.9391 -4.9860 -1.4318
  116MOL0     H15634   6.113   8.345   1.238 -0.3658  1.1796 -0.3888
  116MOL0     H15635   6.157   8.298   1.082  0.7082  0.6049 -0.3964
  116MOL0     H15636   5.956   8.521   1.178  2.7351  1.8069  0.4214
  116MOL0     H15637   5.992   8.494   1.011  3.7468 -3.1470 -0.3134
  116MOL0     H15638   5.886   8.286   1.194  2.2821  0.3516  0.9501
  116MOL0     H15639   5.892   8.268   1.015  0.2803  2.0805 -1.0528
  116MOL0     H15640   5.758   8.470   0.990  3.2412  0.7552  0.3922
  116MOL0     H15641   5.724   8.452   1.166 -0.9219 -3.8664  1.6649
  116MOL0     H15642   6.803   8.400   1.414 -0.3521  1.0594 -0.3623
  116MOL0     H15643   7.014   8.420   1.534  0.4856 -0.8099 -2.0274
  116MOL0     H15644   7.181   8.645   1.858  0.4719  0.2297  1.7663
  116MOL0     H15645   7.331   8.723   2.044  1.3984 -1.3911  0.3440
  116MOL0     H15646   9.042   9.454   3.205 -0.5797  0.2967 -0.9383
  116MOL0     H15647   9.283   9.435   3.302 -0.3200 -1.8126  1.1798
  116MOL0     H15648   9.798   9.173   3.055  0.0492 -0.0909  1.7438
  116MOL0     H15649   9.971   9.036   3.167  0.6372  0.4297 -0.4306
  116MOL0     H15650   9.884   8.899   3.578  0.7548 -0.9089  2.6480
  116MOL0     H15651  10.034   8.836   3.555  0.4263  0.8968  0.7713
  116MOL0     H15652   9.991   9.126   3.617 -2.8275 -2.2811  0.3342
  116MOL0     H15653  10.150   9.041   3.636  0.7066  1.2415 -3.2310
  116MOL0     H15654  10.079   8.921   3.827 -0.1210 -0.2042 -0.2451
  116MOL0     H15655   9.904   8.954   3.798 -1.4107  3.2921  4.1522
  116MOL0     H15656  10.109   9.164   3.862 -0.1877  0.3064 -0.1307
  116MOL0     H15657  10.003   9.074   3.976 -3.7901  0.7041 -0.2442
  116MOL0     H15658   9.718   9.347   3.826  1.1764  1.1131  0.0564
  116MOL0     H15659   9.764   9.055   3.537 -0.2616 -0.1498 -0.0386
  116MOL0     H15660   9.573   9.183   3.422  0.9770  1.4674 -0.3251
  117MOL0     O15661   9.408   7.920   4.932 -0.4358  0.4253  0.5375
  117MOL0     C15662   9.433   7.805   4.964  0.6041 -0.1975 -0.1730
  117MOL0     O15663   9.343   7.696   4.949  0.0573 -0.5324  0.1083
  117MOL0     C15664   9.229   7.719   4.884 -0.0027 -0.4501  0.3224
  117MOL0     C15665   9.109   7.758   4.953 -0.0674 -0.2676  0.0243
  117MOL0     C15666   9.001   7.814   4.889 -0.8695 -0.3087  0.0882
  117MOL0     C15667   8.996   7.812   4.749  0.0117 -1.0720  0.9184
  117MOL0     O15668   8.890   7.859   4.672 -0.1483  0.1776 -0.1096
  117MOL0     C15669   8.773   7.900   4.735 -0.2989  0.1609 -0.6215
  117MOL0     C15670   8.649   7.918   4.640  0.2490  0.1856  1.2117
  117MOL0     C15671   8.593   7.781   4.576 -0.1017  0.2911  0.0302
  117MOL0     C15672   8.470   7.796   4.478  0.4934 -0.5006 -0.5860
  117MOL0     C15673   8.498   7.836   4.342 -0.0401 -0.5766 -1.2636
  117MOL0     C15674   8.377   7.820   4.248 -0.4265 -0.5539  0.3228
  117MOL0     C15675   8.268   7.920   4.278 -1.0929 -0.0934 -0.4298
  117MOL0     C15676   8.159   7.923   4.172 -0.1131 -0.1964 -0.4508
  117MOL0     N15677   8.078   7.798   4.184  1.1027  0.3229  0.8965
  117MOL0     C15678   7.984   7.778   4.279  0.2942 -0.2108  0.3090
  117MOL0     C15679   7.941   7.653   4.253  0.8567 -0.1626 -0.5004
  117MOL0     C15680   7.822   7.594   4.331 -0.4467  0.2040  0.4472
  117MOL0     C15681   7.690   7.663   4.285 -0.7735  0.7998  0.3738
  117MOL0     C15682   7.621   7.601   4.155 -0.5755  0.5002 -0.3920
  117MOL0     C15683   7.481   7.669   4.143  0.2190  0.6662  0.7673
  117MOL0     O15684   7.384   7.561   4.153  0.1856 -0.7195 -0.1264
  117MOL0     C15685   7.252   7.604   4.123 -0.4802 -0.3447 -0.6854
  117MOL0     C15686   7.217   7.734   4.076 -0.0803  0.6688  0.9145
  117MOL0     C15687   7.079   7.766   4.056 -0.3324  0.8116 -0.7778
  117MOL0     C15688   7.051   7.905   4.008 -0.3544 -0.1666 -0.0470
  117MOL0     C15689   6.978   7.675   4.090  0.4275  0.3211  1.0490
  117MOL0     C15690   6.832   7.685   4.081  0.6833  0.3804 -0.1255
  117MOL0     O15691   6.758   7.636   4.179 -0.1185 -0.3196 -0.5329
  117MOL0     C15692   6.621   7.626   4.174  0.4825 -0.2841  0.9232
  117MOL0     C15693   6.541   7.682   4.267 -0.0805  0.4637  0.4987
  117MOL0     C15694   6.405   7.650   4.260  0.5365  0.5235 -0.7822
  117MOL0     C15695   6.354   7.566   4.162 -0.4233 -0.2738  0.1968
  117MOL0     O15696   6.228   7.533   4.139 -0.0943 -1.1246 -0.1025
  117MOL0     C15697   6.171   7.454   4.247 -0.0457 -0.3817 -0.1165
  117MOL0     C15698   6.044   7.380   4.192 -0.7858  0.5345 -0.1616
  117MOL0     C15699   5.986   7.302   4.317  0.9077  0.1014  0.4254
  117MOL0     C15700   5.884   7.199   4.268  0.4101  0.6547 -0.3644
  117MOL0     C15701   5.854   7.096   4.379 -0.2780 -0.5948 -0.2764
  117MOL0     C15702   5.782   7.149   4.505  0.2163 -0.0973 -0.2575
  117MOL0     C15703   5.778   7.035   4.609  0.4103 -0.1383 -0.1037
  117MOL0     C15704   5.789   7.085   4.754 -0.1807 -0.1676  0.6062
  117MOL0    Cl15705   5.795   6.940   4.866 -0.6001 -0.3928 -0.0266
  117MOL0     C15706   6.435   7.517   4.062 -0.0043  0.3445 -0.3416
  117MOL0     C15707   6.567   7.557   4.066 -0.4786  0.5852  0.3381
  117MOL0     O15708   6.788   7.738   3.986 -0.0253  0.5764  0.0703
  117MOL0     C15709   7.017   7.558   4.154  0.7745  0.6555  0.4868
  117MOL0     C15710   7.149   7.520   4.159  0.0540  0.1620  0.2334
  117MOL0     N15711   8.003   7.601   4.138 -0.2133 -0.2405  0.6068
  117MOL0     N15712   8.086   7.688   4.106 -0.9554 -0.3325  0.4464
  117MOL0     C15713   9.103   7.777   4.679 -0.4211 -1.1346 -0.1243
  117MOL0     C15714   9.226   7.740   4.738  0.5044 -0.7867 -0.6359
  117MOL0     C15715   9.565   7.779   5.031  0.0214  0.8177 -0.9799
  117MOL0     C15716   9.593   7.658   5.090  0.4825 -0.3859 -0.0051
  117MOL0     C15717   9.719   7.627   5.145 -1.4486 -0.2289 -0.8273
  117MOL0     C15718   9.816   7.720   5.150 -0.1927 -0.0341 -0.4432
  117MOL0     O15719   9.921   7.681   5.228 -0.6281 -0.7476 -0.5064
  117MOL0     C15720  10.022   7.782   5.267  0.2535  0.3933 -0.6258
  117MOL0     C15721  10.098   7.738   5.399 -0.2510  0.0420 -0.6603
  117MOL0     C15722  10.180   7.618   5.373 -0.3109  0.9885  1.2866
  117MOL0     C15723  10.111   7.478   5.396 -0.5899  0.1980 -1.1381
  117MOL0     C15724  10.226   7.385   5.390 -1.0022  0.6995 -0.1265
  117MOL0     C15725  10.328   7.316   5.401 -0.4123 -0.3191  0.0748
  117MOL0     C15726   9.799   7.838   5.079 -0.1060 -0.0047  0.1185
  117MOL0     C15727   9.676   7.866   5.022 -0.7899 -0.4746  0.9590
  117MOL0     H15728   9.106   7.751   5.061 -0.1092 -3.1456 -0.0975
  117MOL0     H15729   8.917   7.858   4.941 -1.2183  2.1735 -2.3491
  117MOL0     H15730   8.742   7.824   4.807  0.6336  0.6736  0.3461
  117MOL0     H15731   8.804   7.994   4.782  1.5472 -0.8529  0.2853
  117MOL0     H15732   8.564   7.954   4.700 -0.9360  1.4941 -1.1152
  117MOL0     H15733   8.668   7.998   4.569 -0.4563 -1.5536 -1.0630
  117MOL0     H15734   8.677   7.727   4.532 -0.3268 -1.2087  1.3328
  117MOL0     H15735   8.574   7.715   4.662  0.6816  1.5602  1.2028
  117MOL0     H15736   8.432   7.694   4.467 -0.6499 -0.0423 -1.0687
  117MOL0     H15737   8.390   7.853   4.526  1.4516  0.1447  0.2829
  117MOL0     H15738   8.539   7.937   4.347 -0.7334 -0.3382  0.4988
  117MOL0     H15739   8.578   7.770   4.307  1.5610  1.6120 -1.9683
  117MOL0     H15740   8.416   7.834   4.147 -4.0286 -0.1265 -1.1786
  117MOL0     H15741   8.331   7.721   4.261 -1.3024  0.0509  2.3601
  117MOL0     H15742   8.224   7.900   4.376 -2.6887 -2.0546 -1.4599
  117MOL0     H15743   8.320   8.016   4.270 -1.0436 -0.0555  0.2526
  117MOL0     H15744   8.203   7.932   4.073  0.9146 -1.6120 -0.1620
  117MOL0     H15745   8.096   8.008   4.198 -1.3390 -1.2834  0.2486
  117MOL0     H15746   7.960   7.839   4.365 -1.6110  0.7544 -0.8431
  117MOL0     H15747   7.812   7.485   4.332  0.5673  0.0910 -0.2822
  117MOL0     H15748   7.828   7.626   4.436 -0.7858  3.7862 -0.5066
  117MOL0     H15749   7.711   7.770   4.269 -1.0346  0.5017 -2.5624
  117MOL0     H15750   7.618   7.660   4.367 -0.0509  0.7461  1.0141
  117MOL0     H15751   7.616   7.492   4.158 -2.8864  0.5499  2.1007
  117MOL0     H15752   7.677   7.636   4.068  2.1429  0.4814  1.2338
  117MOL0     H15753   7.479   7.713   4.043  0.9140 -1.1755 -0.1068
  117MOL0     H15754   7.475   7.747   4.220 -1.5859  0.7287  0.5944
  117MOL0     H15755   7.296   7.801   4.046 -0.7449  0.7183 -0.8201
  117MOL0     H15756   6.953   7.931   4.049  0.7609  1.3633  1.8399
  117MOL0     H15757   7.124   7.973   4.053 -1.0664 -1.2752  2.9646
  117MOL0     H15758   7.056   7.918   3.899  0.4894 -0.6948 -0.0829
  117MOL0     H15759   6.585   7.746   4.343  0.2975  1.8158 -0.7962
  117MOL0     H15760   6.342   7.705   4.330  0.4430 -0.7522  0.1792
  117MOL0     H15761   6.248   7.380   4.271 -0.6795 -1.2608 -0.7178
  117MOL0     H15762   6.153   7.520   4.332  2.1350 -2.3869  2.0416
  117MOL0     H15763   5.974   7.454   4.152  2.1757  4.3083  1.0205
  117MOL0     H15764   6.073   7.305   4.117  1.2375  0.3630  0.7216
  117MOL0     H15765   5.952   7.376   4.390  0.2356 -1.0319  1.3017
  117MOL0     H15766   6.066   7.250   4.370  0.8869 -0.8437 -0.4420
  117MOL0     H15767   5.804   7.260   4.227  1.0513  0.4224 -2.0382
  117MOL0     H15768   5.937   7.144   4.190 -0.2520  2.7277 -2.3638
  117MOL0     H15769   5.949   7.050   4.405  0.4052  0.6818 -0.4153
  117MOL0     H15770   5.784   7.028   4.329 -0.8097 -1.5069  1.5886
  117MOL0     H15771   5.833   7.235   4.549  0.6234 -0.4333 -0.0715
  117MOL0     H15772   5.677   7.172   4.484 -0.1401 -1.7450 -0.4286
  117MOL0     H15773   5.862   6.965   4.600  1.8949  1.4835  0.5505
  117MOL0     H15774   5.678   6.993   4.597 -0.7887  2.5150  0.0845
  117MOL0     H15775   5.705   7.150   4.781  0.2580  0.3908  0.6569
  117MOL0     H15776   5.881   7.144   4.764 -0.4153 -0.0107  2.1434
  117MOL0     H15777   6.400   7.459   3.977  0.6990  0.1824 -0.5247
  117MOL0     H15778   6.624   7.530   3.978 -1.1397 -1.8312  0.5715
  117MOL0     H15779   6.946   7.485   4.191  0.9734 -0.7386 -1.6959
  117MOL0     H15780   7.162   7.425   4.210 -1.2505 -0.7848 -1.1035
  117MOL0     H15781   9.101   7.783   4.570  0.4293 -3.6590 -0.3555
  117MOL0     H15782   9.324   7.720   4.697  1.2088 -1.1378  1.1395
  117MOL0     H15783   9.517   7.580   5.090  2.9221 -2.9205 -0.2057
  117MOL0     H15784   9.738   7.531   5.193 -0.9901 -0.7792 -2.0681
  117MOL0     H15785  10.087   7.801   5.181 -0.4919  1.3639 -0.9867
  117MOL0     H15786   9.984   7.878   5.302 -0.9185 -0.1582 -0.3307
  117MOL0     H15787  10.029   7.719   5.481 -0.3746 -2.2943 -1.2267
  117MOL0     H15788  10.169   7.813   5.435 -0.5623  0.0681 -0.0945
  117MOL0     H15789  10.265   7.626   5.441 -0.6088 -0.6438  1.8958
  117MOL0     H15790  10.219   7.621   5.271  0.0102 -0.1261  1.3673
  117MOL0     H15791  10.024   7.464   5.332 -0.8255 -0.4875 -0.6693
  117MOL0     H15792  10.074   7.472   5.498  1.5091  0.5464 -0.2948
  117MOL0     H15793  10.415   7.254   5.405  0.3671  0.7760  0.8817
  117MOL0     H15794   9.876   7.915   5.070 -0.6589  0.4062 -1.4921
  117MOL0     H15795   9.663   7.967   4.985  1.4239  0.3611  2.2485
  118MOL0     O15796   9.456   9.112   5.815  0.1434 -0.8239 -0.2777
  118MOL0     C15797   9.413   9.086   5.924  0.4989  0.4564  0.4985
  118MOL0     O15798   9.296   9.131   5.965  0.9563 -0.2807  0.0027
  118MOL0     C15799   9.242   9.097   6.090 -0.3777 -1.1392  0.3529
  118MOL0     C15800   9.112   9.035   6.095 -0.2576 -1.2239  0.4151
  118MOL0     C15801   9.042   9.012   6.207  0.5362  0.9410 -0.5694
  118MOL0     C15802   9.096   9.057   6.329  0.1887  0.1016 -0.3396
  118MOL0     O15803   9.027   9.041   6.444  0.3361  0.5639 -0.0342
  118MOL0     C15804   9.051   9.135   6.547 -0.7953 -0.5775  0.4761
  118MOL0     C15805   8.955   9.109   6.664 -0.6739 -0.6146 -0.0888
  118MOL0     C15806   8.807   9.103   6.616 -0.5698 -0.5527  0.2933
  118MOL0     C15807   8.722   9.058   6.740  0.5821 -0.2837 -1.0259
  118MOL0     C15808   8.568   9.053   6.711 -0.0392  0.1682 -0.2125
  118MOL0     C15809   8.511   8.963   6.818  0.4001  0.3533  0.2500
  118MOL0     C15810   8.353   8.957   6.822 -0.3890 -0.1027  0.9383
  118MOL0     C15811   8.282   8.981   6.961 -0.4561  0.2773  0.7488
  118MOL0     N15812   8.132   8.985   6.936  0.1322  0.1191  0.5256
  118MOL0     C15813   8.066   8.897   6.856  0.3183  0.1111  0.2002
  118MOL0     C15814   7.949   8.961   6.821 -0.2089  0.0892 -0.5809
  118MOL0     C15815   7.839   8.908   6.737 -0.4204  0.1612  0.5668
  118MOL0     C15816   7.836   8.968   6.595  0.2129 -0.4763 -0.6025
  118MOL0     C15817   7.823   9.117   6.589  0.4288 -0.1307 -0.2279
  118MOL0     C15818   7.696   9.169   6.664 -0.5378 -0.1162 -0.4529
  118MOL0     O15819   7.582   9.106   6.603  0.1978  0.3413  0.2952
  118MOL0     C15820   7.450   9.137   6.632  0.4908  0.0652 -0.4478
  118MOL0     C15821   7.413   9.229   6.734  0.1227  0.0482  0.7758
  118MOL0     C15822   7.275   9.240   6.772  0.9141 -0.0714  0.0191
  118MOL0     C15823   7.250   9.337   6.889  0.0794  0.0414  0.0095
  118MOL0     C15824   7.173   9.178   6.688 -0.4387  0.4397 -0.5019
  118MOL0     C15825   7.032   9.205   6.711 -0.1164 -0.0666 -0.4899
  118MOL0     O15826   6.997   9.339   6.738 -0.2023  0.1179  0.3242
  118MOL0     C15827   6.867   9.358   6.790 -1.1660 -0.0361  0.1594
  118MOL0     C15828   6.831   9.315   6.912 -0.3617 -0.4359 -0.7320
  118MOL0     C15829   6.715   9.353   6.966  0.3983  0.4443  0.6392
  118MOL0     C15830   6.625   9.435   6.896 -0.9607  0.3712  0.4058
  118MOL0     O15831   6.520   9.492   6.961 -1.0106 -0.0610  0.7750
  118MOL0     C15832   6.407   9.473   6.877  1.0237  0.1109  0.9014
  118MOL0     C15833   6.280   9.478   6.966 -0.4232 -0.5298  0.4000
  118MOL0     C15834   6.153   9.481   6.876  0.0761 -0.8216 -1.1823
  118MOL0     C15835   6.025   9.457   6.964 -0.4013 -0.0533  0.3948
  118MOL0     C15836   5.922   9.423   6.858 -0.1243  0.6805 -1.0389
  118MOL0     C15837   5.788   9.406   6.928 -0.0016  0.4203  0.3486
  118MOL0     C15838   5.671   9.361   6.831  0.6311  0.1437 -0.1962
  118MOL0     C15839   5.548   9.298   6.901  1.0447 -0.6732  0.2429
  118MOL0    Cl15840   5.444   9.222   6.779  0.0288 -0.3721 -0.2576
  118MOL0     C15841   6.660   9.461   6.764  0.3294 -1.0335 -0.4671
  118MOL0     C15842   6.776   9.421   6.709  0.1773  0.2121  0.8607
  118MOL0     O15843   6.957   9.109   6.700  0.1829 -0.0482  0.5005
  118MOL0     C15844   7.216   9.089   6.585 -0.7188 -0.3503 -0.0155
  118MOL0     C15845   7.355   9.065   6.558  0.2409  0.2253  0.0307
  118MOL0     N15846   7.947   9.086   6.883  0.8881  0.1196  0.4991
  118MOL0     N15847   8.062   9.101   6.932  0.0650 -0.0109  0.0482
  118MOL0     C15848   9.227   9.113   6.335  1.2336 -1.0156  0.6243
  118MOL0     C15849   9.287   9.142   6.214  0.4022 -0.5812 -0.1673
  118MOL0     C15850   9.501   8.994   5.996 -0.2631  0.2153 -0.3787
  118MOL0     C15851   9.443   8.876   6.050 -0.4939  0.2381  0.6505
  118MOL0     C15852   9.531   8.788   6.118  0.0926  0.2909 -0.2122
  118MOL0     C15853   9.672   8.815   6.132 -0.4093 -0.2516 -0.5392
  118MOL0     O15854   9.754   8.717   6.185 -0.4861 -0.1327  0.2403
  118MOL0     C15855   9.896   8.741   6.213 -0.9562 -0.3970 -0.0963
  118MOL0     C15856   9.965   8.604   6.237 -0.1952 -0.2193 -0.3658
  118MOL0     C15857   9.925   8.497   6.131 -0.2976 -0.0648  0.0959
  118MOL0     C15858  10.048   8.414   6.110  0.1941  0.2576  0.1902
  118MOL0     C15859  10.083   8.337   6.227 -0.7841  0.0033  0.0400
  118MOL0     C15860  10.102   8.299   6.339  0.0457 -0.6030  0.7280
  118MOL0     C15861   9.724   8.934   6.069 -0.9162 -0.6639 -0.3353
  118MOL0     C15862   9.633   9.024   6.004  0.6744 -0.3519 -0.2305
  118MOL0     H15863   9.072   9.018   5.996  0.2698  0.9308 -0.2301
  118MOL0     H15864   8.939   8.980   6.202  0.4757  1.3153 -2.6343
  118MOL0     H15865   9.149   9.127   6.595 -0.7415  1.2253  0.7170
  118MOL0     H15866   9.025   9.232   6.503  0.6066  0.4396  1.7769
  118MOL0     H15867   8.999   9.021   6.710 -2.1973 -1.1355  0.4201
  118MOL0     H15868   8.962   9.196   6.731 -3.1433 -2.6276  3.1017
  118MOL0     H15869   8.770   9.195   6.570  0.2362 -1.4604 -2.3623
  118MOL0     H15870   8.798   9.036   6.531  0.8440  0.9224 -1.0971
  118MOL0     H15871   8.765   8.959   6.759  1.6845  0.8255  3.2669
  118MOL0     H15872   8.739   9.113   6.833  0.8836 -0.6348 -0.8725
  118MOL0     H15873   8.520   9.151   6.712 -0.2501  0.1754 -2.8894
  118MOL0     H15874   8.547   9.012   6.611 -2.7149 -0.3257  0.4846
  118MOL0     H15875   8.552   8.863   6.798  2.7255  1.2521  0.2346
  118MOL0     H15876   8.557   9.001   6.909  2.2364 -2.5049  0.6194
  118MOL0     H15877   8.321   9.040   6.758 -0.7536  0.3454  1.6837
  118MOL0     H15878   8.322   8.859   6.784  0.5367 -0.7332  1.7466
  118MOL0     H15879   8.319   9.076   6.999  1.6834 -0.0911 -0.2510
  118MOL0     H15880   8.306   8.909   7.039 -1.6100 -1.1007 -0.1037
  118MOL0     H15881   8.093   8.799   6.818  1.0311  0.9395 -1.5482
  118MOL0     H15882   7.859   8.801   6.724 -0.7663  0.1923 -0.2396
  118MOL0     H15883   7.744   8.924   6.789 -0.3665 -0.3037  0.8201
  118MOL0     H15884   7.745   8.929   6.549 -1.7858  1.1345  1.7120
  118MOL0     H15885   7.929   8.935   6.549  1.4691 -1.3677  2.3166
  118MOL0     H15886   7.816   9.148   6.484 -1.3052 -0.1041 -0.1340
  118MOL0     H15887   7.913   9.159   6.634  2.2577 -0.8596 -2.9798
  118MOL0     H15888   7.692   9.278   6.658  0.7562 -0.1259 -2.9306
  118MOL0     H15889   7.692   9.151   6.772  1.1011 -1.0469 -0.5107
  118MOL0     H15890   7.491   9.276   6.794 -2.2498  3.6860  1.3454
  118MOL0     H15891   7.328   9.334   6.966 -0.5792  3.7314  1.0379
  118MOL0     H15892   7.257   9.437   6.845  0.9309 -0.0175 -0.0142
  118MOL0     H15893   7.154   9.323   6.940 -0.5434 -3.3147 -1.7972
  118MOL0     H15894   6.887   9.244   6.972 -0.7861 -1.1473 -1.1621
  118MOL0     H15895   6.685   9.313   7.063  1.0456 -0.6303  0.4124
  118MOL0     H15896   6.401   9.550   6.799  1.5615 -2.9845 -2.4869
  118MOL0     H15897   6.412   9.379   6.822  1.3944  0.1031  0.9503
  118MOL0     H15898   6.280   9.393   7.034  1.6062 -0.1336  0.9414
  118MOL0     H15899   6.288   9.564   7.033  1.3115 -1.1173  0.9828
  118MOL0     H15900   6.169   9.403   6.800  0.1796  0.1166 -2.1440
  118MOL0     H15901   6.141   9.573   6.818 -1.9740 -0.5299 -0.4041
  118MOL0     H15902   6.032   9.370   7.031  0.4477  0.7789  1.4012
  118MOL0     H15903   5.999   9.541   7.029 -0.9250 -0.5178  0.7971
  118MOL0     H15904   5.952   9.335   6.801 -0.4117  0.6878 -1.2077
  118MOL0     H15905   5.914   9.506   6.786  1.2247 -1.5345 -3.9567
  118MOL0     H15906   5.794   9.333   7.010  1.0464 -1.9606 -1.7326
  118MOL0     H15907   5.760   9.495   6.985  0.4026  1.0395 -0.4022
  118MOL0     H15908   5.713   9.284   6.765 -0.8261 -1.7586  0.9889
  118MOL0     H15909   5.657   9.446   6.765  1.6552  0.6752  0.2447
  118MOL0     H15910   5.495   9.378   6.954  1.1346 -0.1274 -0.4769
  118MOL0     H15911   5.582   9.216   6.966  2.3317 -0.7910 -0.5395
  118MOL0     H15912   6.595   9.528   6.710 -0.6566 -0.2902  1.5584
  118MOL0     H15913   6.797   9.434   6.603  0.3189 -1.4483  0.6597
  118MOL0     H15914   7.145   9.051   6.512  0.6086 -0.6492 -1.1892
  118MOL0     H15915   7.375   8.987   6.485  0.2034 -1.0801  1.3654
  118MOL0     H15916   9.271   9.148   6.428 -0.2417  1.1145  0.5921
  118MOL0     H15917   9.379   9.201   6.216 -0.5477  1.0055 -1.1745
  118MOL0     H15918   9.337   8.858   6.060 -0.4677  0.2894  1.0559
  118MOL0     H15919   9.477   8.707   6.166  0.4394 -0.1059 -0.4753
  118MOL0     H15920   9.950   8.789   6.130 -0.7865 -0.6109 -0.1115
  118MOL0     H15921   9.904   8.814   6.294  3.1439  0.7061 -1.2203
  118MOL0     H15922   9.940   8.576   6.340  0.1405  1.3133  0.1542
  118MOL0     H15923  10.073   8.617   6.247 -0.4155  2.2341 -0.5605
  118MOL0     H15924   9.899   8.539   6.033  0.1295 -0.0611 -0.0149
  118MOL0     H15925   9.837   8.437   6.155 -0.2171 -0.5912 -0.8544
  118MOL0     H15926  10.136   8.473   6.082  0.4615  1.5060  3.2398
  118MOL0     H15927  10.032   8.339   6.032 -0.5201 -0.2505  0.8101
  118MOL0     H15928  10.130   8.271   6.439 -1.2312 -2.5183  0.5979
  118MOL0     H15929   9.827   8.965   6.080 -1.8572  2.1561  2.1836
  118MOL0     H15930   9.670   9.124   5.981  1.2870 -0.6846 -0.7409
  119MOL0     O15931   0.886   5.718   0.075  0.7160  0.6806  0.2102
  119MOL0     C15932   0.976   5.710   0.152 -1.0976 -0.4645 -0.4252
  119MOL0     O15933   0.966   5.692   0.290 -0.2014 -0.4576 -0.1585
  119MOL0     C15934   0.844   5.713   0.340 -0.3697  0.6242 -0.0008
  119MOL0     C15935   0.791   5.840   0.333  0.0378  0.6182 -0.3015
  119MOL0     C15936   0.685   5.875   0.412  0.0477  0.1726  0.5811
  119MOL0     C15937   0.623   5.778   0.497  1.2038  0.6002 -0.2858
  119MOL0     O15938   0.512   5.800   0.574  0.8987  0.5704  0.2202
  119MOL0     C15939   0.425   5.910   0.532  0.4264  0.5390 -0.3926
  119MOL0     C15940   0.289   5.914   0.618  0.3550 -0.6534  0.0840
  119MOL0     C15941   0.184   6.003   0.551  0.7103  0.2513 -0.1401
  119MOL0     C15942   0.085   6.055   0.654 -0.7800 -0.2170 -0.7482
  119MOL0     C15943  -0.008   6.161   0.589 -0.1555  0.8700 -0.4055
  119MOL0     C15944  -0.143   6.169   0.664 -0.1121  0.8333  0.5328
  119MOL0     C15945  -0.254   6.222   0.567 -0.5180 -0.4370 -0.4426
  119MOL0     C15946  -0.387   6.216   0.638 -0.5425 -0.2162 -0.4704
  119MOL0     N15947  -0.476   6.304   0.562 -0.6046 -0.9609  0.2481
  119MOL0     C15948  -0.600   6.260   0.512 -0.7935  0.3665 -0.1416
  119MOL0     C15949  -0.663   6.370   0.472 -0.5760  0.1677  0.3682
  119MOL0     C15950  -0.794   6.375   0.409  0.8506  0.1350  0.1320
  119MOL0     C15951  -0.914   6.329   0.492 -0.1625  0.2346 -0.2829
  119MOL0     C15952  -1.041   6.330   0.409 -0.3731 -0.2336 -0.4769
  119MOL0     C15953  -1.142   6.264   0.501  0.0127  0.1438 -0.0942
  119MOL0     O15954  -1.264   6.255   0.425  0.5964 -0.3947 -0.4462
  119MOL0     C15955  -1.380   6.235   0.497 -0.0474 -1.0118 -0.1270
  119MOL0     C15956  -1.401   6.199   0.632  1.2119 -0.2477 -0.0885
  119MOL0     C15957  -1.531   6.194   0.697 -0.1473  0.3318  0.0160
  119MOL0     C15958  -1.528   6.152   0.837 -0.5867  0.6010 -0.5351
  119MOL0     C15959  -1.649   6.223   0.616  0.3755 -0.6482 -0.1586
  119MOL0     C15960  -1.790   6.204   0.658 -0.1239 -0.5418  0.3864
  119MOL0     O15961  -1.886   6.220   0.560 -0.3037  0.1370 -0.3511
  119MOL0     C15962  -2.010   6.159   0.568  0.9846 -0.2217  0.7517
  119MOL0     C15963  -2.042   6.049   0.647 -0.6555 -0.3711 -0.0707
  119MOL0     C15964  -2.173   6.019   0.652 -0.0077  0.9526 -0.3522
  119MOL0     C15965  -2.273   6.072   0.575 -0.7948  0.4231 -0.3290
  119MOL0     O15966  -2.399   6.029   0.556 -0.1122 -0.7047  0.0474
  119MOL0     C15967  -2.460   5.957   0.666  0.1828  0.6229  0.0413
  119MOL0     C15968  -2.606   5.959   0.658 -0.1583 -0.5397 -0.6037
  119MOL0     C15969  -2.641   5.865   0.538  0.1782  0.1937 -0.0835
  119MOL0     C15970  -2.794   5.885   0.497 -0.6070  0.3635 -0.4968
  119MOL0     C15971  -2.861   5.746   0.493 -0.4988  0.0327  0.4490
  119MOL0     C15972  -3.003   5.745   0.427 -0.6081 -0.6426  0.2725
  119MOL0     C15973  -3.067   5.607   0.458  0.5062  0.4097 -0.5336
  119MOL0     C15974  -3.214   5.591   0.405 -0.5091  0.1446  0.6053
  119MOL0    Cl15975  -3.241   5.424   0.449  0.0657  0.0145  0.1984
  119MOL0     C15976  -2.235   6.173   0.483  0.3745 -0.0913  0.1707
  119MOL0     C15977  -2.103   6.221   0.489  0.1502 -0.4328  0.6209
  119MOL0     O15978  -1.816   6.192   0.773 -0.3096 -0.1929 -0.4294
  119MOL0     C15979  -1.623   6.253   0.485 -0.1302 -0.5060  0.3142
  119MOL0     C15980  -1.498   6.270   0.425 -0.2207 -0.7263  0.6271
  119MOL0     N15981  -0.581   6.482   0.497 -0.1534 -0.6478 -0.0959
  119MOL0     N15982  -0.475   6.438   0.561 -0.5300  0.2862  0.9112
  119MOL0     C15983   0.677   5.650   0.499 -0.5064  0.5403 -0.6722
  119MOL0     C15984   0.795   5.617   0.423 -0.1608  0.9696 -0.1915
  119MOL0     C15985   1.105   5.679   0.092  0.9780 -0.1263 -0.5614
  119MOL0     C15986   1.121   5.648  -0.046  0.6421 -0.2978 -1.2523
  119MOL0     C15987   1.241   5.626  -0.102 -0.0145 -0.8756 -0.0560
  119MOL0     C15988   1.362   5.648  -0.032  0.6519  0.6728  0.2879
  119MOL0     O15989   1.463   5.617  -0.112 -0.4677 -0.3165 -0.6050
  119MOL0     C15990   1.583   5.604  -0.043  0.4274  0.8100  0.6070
  119MOL0     C15991   1.691   5.577  -0.141 -0.0215  0.1854  0.0289
  119MOL0     C15992   1.726   5.701  -0.227  0.3105  0.9144 -0.4933
  119MOL0     C15993   1.829   5.653  -0.329 -0.2903 -0.5732  0.0275
  119MOL0     C15994   1.771   5.581  -0.436 -0.0932  0.1350  1.3658
  119MOL0     C15995   1.709   5.510  -0.522 -0.7316 -0.4376  0.0061
  119MOL0     C15996   1.352   5.682   0.107  0.6660 -0.3654 -0.5237
  119MOL0     C15997   1.225   5.695   0.166 -1.2119 -0.9999 -0.3741
  119MOL0     H15998   0.836   5.909   0.263  0.1967  1.4563  0.5944
  119MOL0     H15999   0.644   5.974   0.396 -2.2872 -0.9217 -0.8482
  119MOL0     H16000   0.461   6.013   0.526 -2.2070  2.0461  4.2154
  119MOL0     H16001   0.389   5.882   0.433  2.3755 -1.0914 -0.6916
  119MOL0     H16002   0.240   5.819   0.643  1.3120 -0.6886  2.0604
  119MOL0     H16003   0.313   5.969   0.709  1.3348  2.0809 -1.7163
  119MOL0     H16004   0.240   6.088   0.512  0.8592 -0.5939 -1.8812
  119MOL0     H16005   0.135   5.948   0.470 -1.4524  0.2043  1.1169
  119MOL0     H16006   0.030   5.969   0.692 -1.0216  0.9362  1.7142
  119MOL0     H16007   0.139   6.101   0.738  1.2877  1.8023 -3.0038
  119MOL0     H16008   0.045   6.256   0.596 -0.9931  1.4122 -1.1309
  119MOL0     H16009  -0.020   6.141   0.482  2.0690  1.4128 -0.8063
  119MOL0     H16010  -0.167   6.067   0.695  2.6223 -0.4048 -1.1234
  119MOL0     H16011  -0.130   6.230   0.754  1.8507  0.4710  0.5315
  119MOL0     H16012  -0.236   6.328   0.545  0.1128 -0.3206  0.5902
  119MOL0     H16013  -0.259   6.168   0.472 -0.8482 -0.1319 -0.6018
  119MOL0     H16014  -0.382   6.264   0.736  0.5203 -0.0577 -0.5946
  119MOL0     H16015  -0.429   6.115   0.648 -1.1869  0.0255 -0.6717
  119MOL0     H16016  -0.636   6.159   0.495 -1.2482  0.2940  1.1299
  119MOL0     H16017  -0.805   6.477   0.371 -0.3474  0.8034  2.1066
  119MOL0     H16018  -0.793   6.311   0.321 -0.3699  0.4258 -0.1178
  119MOL0     H16019  -0.923   6.384   0.586  2.0732 -0.5037  0.4487
  119MOL0     H16020  -0.885   6.228   0.521  3.3304  1.1358 -0.0866
  119MOL0     H16021  -1.013   6.274   0.320  1.5570 -1.6387  0.9234
  119MOL0     H16022  -1.070   6.433   0.386  1.5181 -0.0362 -2.2970
  119MOL0     H16023  -1.153   6.315   0.597  1.7988  0.1737  0.1248
  119MOL0     H16024  -1.115   6.158   0.501 -0.2753 -0.0492 -3.4995
  119MOL0     H16025  -1.311   6.170   0.685 -0.2444 -1.8605  1.6689
  119MOL0     H16026  -1.592   6.219   0.896  2.6998  1.1279  2.8209
  119MOL0     H16027  -1.569   6.051   0.844  2.9417 -0.8986  0.2180
  119MOL0     H16028  -1.427   6.150   0.879 -0.4810 -2.0990 -0.7589
  119MOL0     H16029  -1.962   6.001   0.701  1.0529  1.7560 -0.5739
  119MOL0     H16030  -2.191   5.930   0.711  4.1996  0.7973  1.0350
  119MOL0     H16031  -2.416   5.857   0.670  0.6646  0.8503  0.5150
  119MOL0     H16032  -2.440   5.999   0.765  1.1374 -1.4732  0.7981
  119MOL0     H16033  -2.650   5.915   0.748  0.5359  0.9594  0.5072
  119MOL0     H16034  -2.641   6.062   0.647 -0.0678 -0.4125  0.2540
  119MOL0     H16035  -2.634   5.762   0.575  0.4952 -0.0754 -0.8756
  119MOL0     H16036  -2.575   5.868   0.451 -2.5397 -1.1178 -2.3609
  119MOL0     H16037  -2.853   5.937   0.572  0.1951  0.1454  0.2997
  119MOL0     H16038  -2.783   5.940   0.403  3.3587 -1.7614 -1.5370
  119MOL0     H16039  -2.872   5.717   0.598 -2.4035 -1.0192 -0.0028
  119MOL0     H16040  -2.797   5.673   0.444 -0.2662 -0.9928  2.1958
  119MOL0     H16041  -3.063   5.819   0.480  1.4835  0.5029  1.1690
  119MOL0     H16042  -2.991   5.763   0.320  3.2780 -1.8695  0.3498
  119MOL0     H16043  -3.080   5.594   0.566 -0.5910 -1.3712 -0.8457
  119MOL0     H16044  -2.997   5.529   0.424  1.1165 -0.2984  2.0895
  119MOL0     H16045  -3.215   5.606   0.297 -0.0638  2.3084  0.8503
  119MOL0     H16046  -3.283   5.668   0.442 -0.0081  0.9574 -0.1056
  119MOL0     H16047  -2.305   6.210   0.408  1.8384 -1.0770 -1.7778
  119MOL0     H16048  -2.072   6.306   0.429  0.4356 -0.5537  0.5971
  119MOL0     H16049  -1.702   6.276   0.414  0.4468 -0.2166 -0.2437
  119MOL0     H16050  -1.496   6.305   0.323 -0.8776 -1.6946  0.2705
  119MOL0     H16051   0.618   5.588   0.565 -0.7591  0.4368 -0.9929
  119MOL0     H16052   0.844   5.521   0.427 -1.7686  0.1539  0.8471
  119MOL0     H16053   1.031   5.635  -0.106  0.2441 -1.8443 -0.3692
  119MOL0     H16054   1.233   5.619  -0.210  0.3377 -0.1234 -0.1347
  119MOL0     H16055   1.604   5.700   0.004  0.1752  0.4087  1.5638
  119MOL0     H16056   1.573   5.527   0.034  3.4309  0.2761  0.5936
  119MOL0     H16057   1.656   5.499  -0.208  0.0705 -0.6918  0.9772
  119MOL0     H16058   1.779   5.538  -0.089  2.3345  2.0175 -2.3063
  119MOL0     H16059   1.761   5.781  -0.161  0.8933  1.4947 -1.4811
  119MOL0     H16060   1.641   5.748  -0.277 -0.4559  1.8593  1.5672
  119MOL0     H16061   1.899   5.593  -0.270 -2.8237 -1.6272  2.1774
  119MOL0     H16062   1.881   5.741  -0.369 -3.6591  0.3491 -2.8155
  119MOL0     H16063   1.662   5.446  -0.595 -2.3551  0.8502 -0.1410
  119MOL0     H16064   1.441   5.702   0.165  0.1377  0.0152  0.1739
  119MOL0     H16065   1.216   5.734   0.266 -0.0045 -1.8283  0.0765
  120MOL0     O16066   8.649   1.251  10.511 -0.6611 -0.1853  0.0297
  120MOL0     C16067   8.663   1.287  10.624  0.5267  0.8213 -0.1697
  120MOL0     O16068   8.557   1.315  10.702  0.7471  0.2051 -0.3321
  120MOL0     C16069   8.426   1.284  10.668  0.4947  0.2243 -0.5063
  120MOL0     C16070   8.395   1.166  10.597 -0.0954  0.5487  0.2918
  120MOL0     C16071   8.261   1.131  10.584 -0.0531  0.4891  0.4798
  120MOL0     C16072   8.163   1.205  10.647 -0.0818  0.6261  0.1935
  120MOL0     O16073   8.043   1.164  10.613  0.3587  0.3284 -0.1093
  120MOL0     C16074   7.929   1.230  10.668  0.2764  0.0271  0.7655
  120MOL0     C16075   7.810   1.161  10.600  0.2277  0.1812 -0.7134
  120MOL0     C16076   7.685   1.245  10.625  0.4700  0.0051 -0.4205
  120MOL0     C16077   7.570   1.154  10.676 -0.2405 -0.0746 -0.2581
  120MOL0     C16078   7.454   1.239  10.722 -0.1421 -0.1114  0.5060
  120MOL0     C16079   7.327   1.154  10.740 -0.1761  0.1920  1.0315
  120MOL0     C16080   7.211   1.232  10.799 -0.1722  0.0154 -0.2877
  120MOL0     C16081   7.143   1.316  10.685  0.2281  0.2854 -0.9938
  120MOL0     N16082   7.031   1.398  10.731 -0.0081 -0.0888 -0.3202
  120MOL0     C16083   7.044   1.535  10.751  0.7703 -0.4303 -0.2651
  120MOL0     C16084   6.943   1.559  10.843  0.2443  0.3658  0.8411
  120MOL0     C16085   6.923   1.673  10.933  0.5101  0.0375  0.0233
  120MOL0     C16086   6.930   1.655  11.087 -0.8480 -1.3127  0.5711
  120MOL0     C16087   7.042   1.576  11.140 -0.1235 -0.4288  0.0830
  120MOL0     C16088   7.178   1.641  11.115  0.2336 -0.4686 -0.1335
  120MOL0     O16089   7.269   1.534  11.156  0.3015 -0.6388 -0.1362
  120MOL0     C16090   7.398   1.534  11.111 -0.3190  0.3749  1.2703
  120MOL0     C16091   7.478   1.415  11.133 -1.2623 -0.8623  0.4089
  120MOL0     C16092   7.608   1.397  11.060 -0.4082 -0.2772 -0.7387
  120MOL0     C16093   7.667   1.261  11.056 -0.2753 -0.0127 -0.4626
  120MOL0     C16094   7.663   1.506  10.983 -0.4709  0.0383 -0.2405
  120MOL0     C16095   7.793   1.499  10.903  0.7444 -0.2730 -0.0806
  120MOL0     O16096   7.818   1.610  10.828 -0.0304 -0.1430  0.1386
  120MOL0     C16097   7.927   1.613  10.741  0.2594  0.0099  0.2365
  120MOL0     C16098   8.055   1.654  10.778  0.1295 -0.3191 -0.2210
  120MOL0     C16099   8.156   1.668  10.688 -0.4192 -0.2771 -0.0276
  120MOL0     C16100   8.136   1.652  10.549 -1.4805 -0.5105  1.0104
  120MOL0     O16101   8.224   1.688  10.446  0.6041 -0.0966  0.0105
  120MOL0     C16102   8.339   1.609  10.457 -0.0701 -0.3140  0.1152
  120MOL0     C16103   8.403   1.602  10.313 -0.1393  0.0750 -0.3651
  120MOL0     C16104   8.312   1.550  10.204 -1.0513  0.0334  0.5195
  120MOL0     C16105   8.385   1.526  10.077 -0.4477 -0.4470 -0.1122
  120MOL0     C16106   8.278   1.494   9.972 -0.0739 -0.4916  0.2625
  120MOL0     C16107   8.330   1.434   9.843 -0.0535  0.6041 -0.3823
  120MOL0     C16108   8.236   1.414   9.725 -0.3898 -0.5985  0.1424
  120MOL0     C16109   8.201   1.540   9.653  0.4457 -0.3126  0.0245
  120MOL0    Cl16110   8.074   1.639   9.732  0.4550  0.3639  0.1701
  120MOL0     C16111   8.006   1.619  10.506 -0.2147  0.8874 -0.6003
  120MOL0     C16112   7.901   1.594  10.607  0.3990  0.1717  0.7896
  120MOL0     O16113   7.863   1.396  10.899  0.3560  0.1247 -0.0575
  120MOL0     C16114   7.586   1.622  10.984 -0.8758 -0.2930  1.3313
  120MOL0     C16115   7.459   1.638  11.033  0.3713  0.2016  0.4876
  120MOL0     N16116   6.860   1.451  10.847 -0.3337  0.4412  0.1440
  120MOL0     N16117   6.915   1.353  10.784  1.3225 -0.3688 -0.0152
  120MOL0     C16118   8.196   1.320  10.726 -0.2814  0.5225 -0.5213
  120MOL0     C16119   8.323   1.361  10.724 -0.7797 -0.2726 -0.1936
  120MOL0     C16120   8.803   1.287  10.675  1.9085 -1.4852 -0.4361
  120MOL0     C16121   8.824   1.344  10.804 -0.8964 -1.1763 -0.3831
  120MOL0     C16122   8.949   1.331  10.858 -0.7506  0.4058 -0.5976
  120MOL0     C16123   9.060   1.256  10.802 -0.5314 -0.0139  0.2974
  120MOL0     O16124   9.178   1.228  10.863 -0.1884  0.3586  0.5457
  120MOL0     C16125   9.226   1.292  10.983 -0.2844 -0.1112 -0.1227
  120MOL0     C16126   9.374   1.263  11.005  0.2151 -0.6807  0.5098
  120MOL0     C16127   9.388   1.112  11.008  0.9765  0.0472 -0.5645
  120MOL0     C16128   9.536   1.083  11.016  0.8375 -0.2734  0.8555
  120MOL0     C16129   9.559   0.938  10.998 -0.2828  0.0379  0.1462
  120MOL0     C16130   9.571   0.819  10.988 -0.0758 -0.2323  0.6374
  120MOL0     C16131   9.034   1.204  10.678 -0.3420  0.3286  0.1834
  120MOL0     C16132   8.912   1.217  10.616 -0.4668 -0.2646 -0.6463
  120MOL0     H16133   8.460   1.093  10.550 -1.3537 -0.5132  0.1550
  120MOL0     H16134   8.237   1.050  10.515 -0.5218  0.6185  0.4888
  120MOL0     H16135   7.916   1.212  10.775  5.5494 -1.8209  1.4287
  120MOL0     H16136   7.927   1.338  10.652  0.4621 -0.2905 -1.9856
  120MOL0     H16137   7.822   1.140  10.493 -0.0920 -1.3917 -0.4659
  120MOL0     H16138   7.798   1.062  10.646  1.5466  0.3948  0.1456
  120MOL0     H16139   7.701   1.321  10.702  2.4038 -1.6122  0.8720
  120MOL0     H16140   7.656   1.310  10.541 -3.6399  0.6328  1.2388
  120MOL0     H16141   7.531   1.090  10.596 -1.9917  1.5350 -0.7625
  120MOL0     H16142   7.603   1.102  10.766  1.8508 -0.1087 -0.9679
  120MOL0     H16143   7.488   1.284  10.815  0.2754  3.5614 -1.2327
  120MOL0     H16144   7.442   1.322  10.652  3.0725  1.1144  1.2431
  120MOL0     H16145   7.292   1.115  10.644 -1.5124 -1.1986  2.0263
  120MOL0     H16146   7.365   1.072  10.802  0.0893 -0.4792  0.0044
  120MOL0     H16147   7.144   1.162  10.850 -1.5006  0.9748 -0.6687
  120MOL0     H16148   7.258   1.303  10.867  0.7374  0.5693 -1.4520
  120MOL0     H16149   7.104   1.252  10.605  0.3238 -1.0434 -0.0041
  120MOL0     H16150   7.219   1.378  10.637 -0.0730  0.1895 -1.6088
  120MOL0     H16151   7.128   1.595  10.717 -0.8253  2.2226  0.2020
  120MOL0     H16152   6.996   1.749  10.903  0.6947  0.4360  1.4418
  120MOL0     H16153   6.825   1.713  10.905  0.1071  0.5051  1.9868
  120MOL0     H16154   6.840   1.600  11.118  0.0859 -1.3908  3.5198
  120MOL0     H16155   6.926   1.754  11.133 -3.6921 -0.8225 -0.5449
  120MOL0     H16156   7.042   1.475  11.098 -1.3314 -0.5493  0.3472
  120MOL0     H16157   7.036   1.577  11.249  1.4987 -1.0569  0.2107
  120MOL0     H16158   7.193   1.728  11.180  1.6766 -1.4981  0.9605
  120MOL0     H16159   7.203   1.663  11.011 -0.1893  1.0585  0.0641
  120MOL0     H16160   7.425   1.330  11.177  2.5121 -3.0027  1.2686
  120MOL0     H16161   7.767   1.276  11.098 -0.3844  1.8065 -0.7606
  120MOL0     H16162   7.603   1.195  11.116 -1.8662 -0.6740 -2.7643
  120MOL0     H16163   7.669   1.205  10.962  1.8601 -0.2942 -0.2845
  120MOL0     H16164   8.085   1.682  10.878 -0.2271  1.5174 -0.5777
  120MOL0     H16165   8.251   1.706  10.723 -0.1422  0.0713 -1.0960
  120MOL0     H16166   8.402   1.656  10.533  0.2790  1.6806 -1.3290
  120MOL0     H16167   8.318   1.505  10.482  3.0988 -1.2007 -0.4453
  120MOL0     H16168   8.435   1.701  10.278 -2.3924  0.3198 -1.8907
  120MOL0     H16169   8.494   1.543  10.323 -1.2583 -1.4821  1.1497
  120MOL0     H16170   8.226   1.614  10.181 -0.7545 -0.5399 -2.6932
  120MOL0     H16171   8.275   1.451  10.234  2.1210 -2.1613 -2.0415
  120MOL0     H16172   8.446   1.612  10.048 -2.1259  1.0665  0.6316
  120MOL0     H16173   8.447   1.436  10.083  0.7311  0.3194 -0.4441
  120MOL0     H16174   8.228   1.588   9.948  1.4719  0.3278  0.1271
  120MOL0     H16175   8.198   1.429  10.010 -0.4964 -0.3711 -0.4094
  120MOL0     H16176   8.424   1.485   9.819  2.4137 -3.3071  0.0535
  120MOL0     H16177   8.357   1.335   9.882  0.6031  1.1133  0.4972
  120MOL0     H16178   8.145   1.365   9.762 -0.0361 -1.3125  0.0891
  120MOL0     H16179   8.285   1.339   9.661  0.2231  0.4457 -0.6364
  120MOL0     H16180   8.161   1.513   9.555 -2.7089 -0.4610  1.2409
  120MOL0     H16181   8.293   1.597   9.639  2.4443 -3.6069 -1.6863
  120MOL0     H16182   7.981   1.620  10.401 -0.3882  0.6971 -0.5620
  120MOL0     H16183   7.799   1.569  10.579  1.2370 -1.0881 -1.3066
  120MOL0     H16184   7.635   1.709  10.940  1.7429 -1.3426  1.9632
  120MOL0     H16185   7.409   1.730  11.003  1.2534  0.8490  0.9592
  120MOL0     H16186   8.111   1.376  10.763 -0.9408 -0.6769 -0.1490
  120MOL0     H16187   8.352   1.446  10.784  0.5197  0.0809 -1.2777
  120MOL0     H16188   8.745   1.402  10.851 -2.5000 -1.3594 -2.6886
  120MOL0     H16189   8.969   1.361  10.961 -0.9039  0.6274 -0.6300
  120MOL0     H16190   9.207   1.399  10.991  1.2918  0.0392  2.4192
  120MOL0     H16191   9.165   1.243  11.060 -0.1059 -1.6138 -0.9068
  120MOL0     H16192   9.399   1.297  11.106  0.5911 -0.7369  0.4351
  120MOL0     H16193   9.425   1.316  10.925 -0.3676  1.1664  1.3086
  120MOL0     H16194   9.341   1.065  10.921  0.4404  1.5368 -1.1011
  120MOL0     H16195   9.346   1.063  11.096  2.1906  0.9774  0.5573
  120MOL0     H16196   9.562   1.117  11.117  0.6511  2.2848  0.1169
  120MOL0     H16197   9.580   1.142  10.935  3.0513 -0.7336  1.6706
  120MOL0     H16198   9.584   0.713  10.990 -2.3069 -0.6329 -1.1961
  120MOL0     H16199   9.108   1.143  10.627  0.3029  0.8394  0.4896
  120MOL0     H16200   8.895   1.154  10.529  0.5740 -1.0817 -0.2890
  121MOL0     O16201   1.407   1.001   9.561 -0.2831  0.0533 -0.1953
  121MOL0     C16202   1.309   0.933   9.587  0.5220 -0.0599 -0.0366
  121MOL0     O16203   1.316   0.804   9.634  0.1255 -0.6362  0.3012
  121MOL0     C16204   1.431   0.731   9.628  1.0213  0.0437 -0.2237
  121MOL0     C16205   1.557   0.778   9.672  0.3205  0.4951 -0.6648
  121MOL0     C16206   1.669   0.697   9.653 -0.4562 -0.1164 -0.6254
  121MOL0     C16207   1.650   0.572   9.607 -0.1959  0.8049  0.4899
  121MOL0     O16208   1.745   0.481   9.603 -0.6305 -0.5125  0.0978
  121MOL0     C16209   1.785   0.402   9.709 -0.3925  0.3718  0.2601
  121MOL0     C16210   1.897   0.306   9.664 -0.8028 -0.0709  0.3783
  121MOL0     C16211   2.041   0.365   9.677  0.3271 -0.2582  0.2600
  121MOL0     C16212   2.141   0.265   9.635 -0.1240  0.1619 -0.2178
  121MOL0     C16213   2.281   0.318   9.651  0.3300 -0.2278  1.3460
  121MOL0     C16214   2.299   0.444   9.574  0.0645 -0.0654  0.2788
  121MOL0     C16215   2.447   0.480   9.575 -0.5322  0.3041 -0.5932
  121MOL0     C16216   2.472   0.608   9.493 -0.6335  0.1480 -0.1037
  121MOL0     N16217   2.616   0.649   9.496  0.2299  0.2457 -0.0746
  121MOL0     C16218   2.698   0.722   9.585 -0.4122 -0.0930 -0.0101
  121MOL0     C16219   2.825   0.704   9.541 -0.3128 -0.3660 -0.0899
  121MOL0     C16220   2.961   0.751   9.587 -0.4681 -1.1792  0.2145
  121MOL0     C16221   2.974   0.904   9.552 -0.1066  0.4952 -0.0040
  121MOL0     C16222   3.086   0.981   9.611  0.1959 -0.0844  0.0812
  121MOL0     C16223   3.078   1.131   9.563  0.3191  0.1940 -0.2745
  121MOL0     O16224   2.966   1.187   9.621 -0.3635 -0.2851  0.4202
  121MOL0     C16225   2.937   1.323   9.602 -0.0557 -0.0453 -0.5076
  121MOL0     C16226   3.027   1.414   9.547  0.5244 -0.5987 -0.2531
  121MOL0     C16227   2.997   1.545   9.533 -0.3156 -0.0728 -0.3218
  121MOL0     C16228   3.104   1.634   9.472 -0.8325 -0.5322  0.4172
  121MOL0     C16229   2.870   1.591   9.567 -0.0640  0.0197 -0.2425
  121MOL0     C16230   2.827   1.733   9.549  0.4840 -0.4251  0.5254
  121MOL0     O16231   2.695   1.761   9.579  0.0348  0.0288 -0.3749
  121MOL0     C16232   2.625   1.882   9.572 -0.1475 -0.4009 -0.0163
  121MOL0     C16233   2.491   1.880   9.593 -0.1974 -0.1684 -0.4107
  121MOL0     C16234   2.407   1.992   9.585 -0.3892 -0.9244  0.3470
  121MOL0     C16235   2.455   2.115   9.530  0.0519  0.5528 -0.4509
  121MOL0     O16236   2.382   2.231   9.510 -0.3766  0.9122  0.5098
  121MOL0     C16237   2.244   2.220   9.498 -0.1844  0.0712 -0.2303
  121MOL0     C16238   2.164   2.245   9.632  1.2335 -0.0452 -0.0064
  121MOL0     C16239   2.014   2.221   9.612  0.5589  0.0668  0.2370
  121MOL0     C16240   1.932   2.223   9.740  0.4478  0.1677 -1.0620
  121MOL0     C16241   1.782   2.221   9.717 -0.0864 -0.8474  1.1539
  121MOL0     C16242   1.700   2.183   9.841  0.2548  0.7675  0.7685
  121MOL0     C16243   1.551   2.158   9.796  0.3157 -0.0690  0.3572
  121MOL0     C16244   1.452   2.174   9.914 -0.4592  0.3673  0.4592
  121MOL0    Cl16245   1.280   2.169   9.850 -0.3035 -0.3861 -0.4057
  121MOL0     C16246   2.595   2.119   9.522  0.7770  0.4820 -0.0156
  121MOL0     C16247   2.677   2.007   9.534 -0.1369 -0.4339 -0.2085
  121MOL0     O16248   2.910   1.825   9.521  0.4059  0.0757  0.0894
  121MOL0     C16249   2.774   1.499   9.612 -1.1619  0.5995 -0.3506
  121MOL0     C16250   2.814   1.375   9.638  0.1380  0.3393 -0.7809
  121MOL0     N16251   2.819   0.628   9.419 -0.6756  0.0465 -0.4549
  121MOL0     N16252   2.696   0.597   9.398  0.2601  0.1995 -0.1999
  121MOL0     C16253   1.524   0.527   9.550  0.4166  0.5725  0.2416
  121MOL0     C16254   1.412   0.607   9.563  0.4919 -0.3637  0.5441
  121MOL0     C16255   1.176   0.983   9.569  0.9250 -0.4361  0.8835
  121MOL0     C16256   1.057   0.915   9.612  0.3098 -0.1355 -0.2431
  121MOL0     C16257   0.921   0.964   9.586 -0.1713 -0.6760 -0.0514
  121MOL0     C16258   0.907   1.076   9.518  1.0286  1.2056 -0.2307
  121MOL0     O16259   0.778   1.108   9.468  0.4219  0.4842 -0.2275
  121MOL0     C16260   0.664   1.028   9.508  0.3519  0.4582  0.4101
  121MOL0     C16261   0.534   1.085   9.447  0.1976  0.0519 -0.3611
  121MOL0     C16262   0.415   1.037   9.526  0.1650  1.0076 -0.2317
  121MOL0     C16263   0.279   1.064   9.460  0.1088 -0.0141  0.5664
  121MOL0     C16264   0.248   1.203   9.429 -0.7162 -0.6391  0.1294
  121MOL0     C16265   0.235   1.315   9.380 -0.7110 -0.5188  0.2777
  121MOL0     C16266   1.019   1.137   9.460 -0.9425 -0.1115 -0.5096
  121MOL0     C16267   1.149   1.090   9.482  0.7953 -1.1619 -0.2010
  121MOL0     H16268   1.567   0.875   9.719  0.2889  0.1861 -0.0194
  121MOL0     H16269   1.766   0.736   9.683  0.2278 -1.8591 -0.4536
  121MOL0     H16270   1.823   0.469   9.787  2.0405 -0.0437 -0.4761
  121MOL0     H16271   1.700   0.352   9.756 -1.0229  1.0803 -0.1113
  121MOL0     H16272   1.899   0.224   9.736  3.3592  0.3211  0.9114
  121MOL0     H16273   1.890   0.266   9.562  2.0923  1.5678 -0.5808
  121MOL0     H16274   2.046   0.459   9.622  0.0378  0.8345  2.0219
  121MOL0     H16275   2.056   0.388   9.783 -1.0147  1.3959  0.1339
  121MOL0     H16276   2.128   0.173   9.694  0.1459  0.8813  0.9961
  121MOL0     H16277   2.115   0.249   9.530  0.8949  0.9427 -0.6076
  121MOL0     H16278   2.308   0.339   9.755 -0.8336  2.2644  1.2003
  121MOL0     H16279   2.341   0.239   9.604 -1.7991 -1.0146 -0.1820
  121MOL0     H16280   2.261   0.433   9.472  2.5656 -2.1421 -0.5252
  121MOL0     H16281   2.247   0.527   9.622  0.7258  2.8974 -3.6317
  121MOL0     H16282   2.479   0.495   9.678 -0.6044  0.1000 -0.5410
  121MOL0     H16283   2.501   0.391   9.542  0.3981  1.1171 -1.3456
  121MOL0     H16284   2.414   0.692   9.533  0.1748 -0.0473  1.5989
  121MOL0     H16285   2.455   0.578   9.390  0.0080 -1.2400  0.1661
  121MOL0     H16286   2.669   0.783   9.671 -0.0646 -0.7203  0.5616
  121MOL0     H16287   2.968   0.745   9.696  1.4422 -0.6797  0.1415
  121MOL0     H16288   3.041   0.693   9.542 -0.0897  0.9070 -2.0114
  121MOL0     H16289   2.885   0.958   9.585 -2.1364 -1.4916 -1.9033
  121MOL0     H16290   2.981   0.920   9.444  2.8706  1.0579  0.1732
  121MOL0     H16291   3.179   0.937   9.576 -0.6884 -1.1703 -0.9815
  121MOL0     H16292   3.091   0.967   9.720  1.4855 -0.2523  0.0079
  121MOL0     H16293   3.060   1.139   9.455 -0.0112  0.9205 -0.1742
  121MOL0     H16294   3.167   1.188   9.591  0.5900  0.2348 -1.1909
  121MOL0     H16295   3.125   1.380   9.516  1.1021  1.4063 -0.7792
  121MOL0     H16296   3.079   1.682   9.377  0.9571 -0.0652  0.1333
  121MOL0     H16297   3.115   1.716   9.544 -0.9709 -1.3475  1.3813
  121MOL0     H16298   3.202   1.585   9.468 -0.5644 -0.0759  1.1317
  121MOL0     H16299   2.450   1.784   9.625  0.5767 -1.4162 -2.8688
  121MOL0     H16300   2.300   1.980   9.597 -0.4646 -0.3770  0.2664
  121MOL0     H16301   2.220   2.300   9.427 -0.5431  0.8321  0.7131
  121MOL0     H16302   2.210   2.128   9.449  3.5095 -0.7013 -1.7120
  121MOL0     H16303   2.200   2.170   9.703 -1.8317 -1.7016  0.0050
  121MOL0     H16304   2.173   2.343   9.679  1.2014  1.1925 -2.4388
  121MOL0     H16305   1.998   2.132   9.551 -1.3197  0.5079  0.0180
  121MOL0     H16306   1.980   2.308   9.555 -1.8912  0.4811  2.1537
  121MOL0     H16307   1.961   2.142   9.807 -0.1837  0.5721 -0.2747
  121MOL0     H16308   1.949   2.317   9.794 -1.7765  1.3771 -2.2765
  121MOL0     H16309   1.757   2.139   9.648  0.7777 -1.4345  1.5151
  121MOL0     H16310   1.751   2.317   9.676 -0.4188 -1.5158 -0.2392
  121MOL0     H16311   1.739   2.089   9.881 -0.1001  0.2641 -0.0436
  121MOL0     H16312   1.711   2.258   9.920  2.2342  0.6323  0.6892
  121MOL0     H16313   1.527   2.064   9.746  1.0627  1.1052 -2.4015
  121MOL0     H16314   1.529   2.230   9.717 -2.1180 -1.1508 -0.0373
  121MOL0     H16315   1.460   2.269   9.968 -1.3838  0.0478  1.1980
  121MOL0     H16316   1.464   2.097   9.991 -2.4729 -1.8578 -1.3054
  121MOL0     H16317   2.629   2.214   9.482  1.8141 -0.7828 -2.2878
  121MOL0     H16318   2.780   2.009   9.503 -1.0051 -0.1254 -3.3592
  121MOL0     H16319   2.674   1.518   9.648 -0.9785  1.5350 -0.3288
  121MOL0     H16320   2.736   1.306   9.668  0.2957  0.5814  0.2162
  121MOL0     H16321   1.535   0.428   9.508  1.7123  0.9015 -0.2322
  121MOL0     H16322   1.314   0.567   9.537  1.1426 -0.7025 -1.6069
  121MOL0     H16323   1.070   0.825   9.672  0.5923  1.1479  1.7020
  121MOL0     H16324   0.834   0.907   9.618 -1.0184  1.1695  1.1176
  121MOL0     H16325   0.668   0.922   9.482 -0.5196  0.4045  0.4848
  121MOL0     H16326   0.649   1.032   9.616 -1.4154  0.7025  0.1861
  121MOL0     H16327   0.536   1.044   9.345 -2.1581  0.6486 -0.6996
  121MOL0     H16328   0.534   1.191   9.420 -1.8749 -0.2951 -1.9179
  121MOL0     H16329   0.426   1.070   9.629 -0.3912  1.4652 -0.3173
  121MOL0     H16330   0.427   0.928   9.525  1.5392  1.1119  0.9394
  121MOL0     H16331   0.197   1.020   9.518  1.2831 -0.3048  2.0535
  121MOL0     H16332   0.279   1.011   9.364 -0.1660  0.6285  0.2067
  121MOL0     H16333   0.241   1.410   9.330 -0.5251 -0.5481  0.2427
  121MOL0     H16334   1.002   1.220   9.392 -0.4583  1.2181  0.9354
  121MOL0     H16335   1.222   1.149   9.426  1.8202 -0.0553  2.1447
  122MOL0     O16336   4.922   9.639   3.845 -0.3106 -0.1803 -0.0335
  122MOL0     C16337   4.928   9.659   3.721  0.2430 -0.4972  0.9533
  122MOL0     O16338   4.822   9.641   3.640  0.6253 -0.3388 -0.3321
  122MOL0     C16339   4.737   9.544   3.688  0.0412 -0.1859  0.5486
  122MOL0     C16340   4.612   9.567   3.757 -0.0379 -0.1695 -0.0380
  122MOL0     C16341   4.513   9.464   3.775 -0.3954  0.6857  0.7346
  122MOL0     C16342   4.545   9.329   3.744  0.2002 -0.7198  0.1164
  122MOL0     O16343   4.459   9.223   3.776 -1.0523 -0.7185  0.0375
  122MOL0     C16344   4.330   9.246   3.813 -0.7744 -0.7363  0.2816
  122MOL0     C16345   4.280   9.107   3.845  0.7533 -0.4056 -0.2376
  122MOL0     C16346   4.122   9.111   3.858 -0.9824  0.4885 -0.2249
  122MOL0     C16347   4.091   8.967   3.902  0.4124  0.3527 -0.7449
  122MOL0     C16348   3.948   8.936   3.956  0.3384 -1.1639 -0.3992
  122MOL0     C16349   3.833   8.994   3.862 -0.2103  0.1180 -0.0870
  122MOL0     C16350   3.702   8.920   3.890 -0.1137 -0.3471  0.5456
  122MOL0     C16351   3.637   8.948   4.021 -0.0997 -0.3962  0.3127
  122MOL0     N16352   3.491   8.943   4.002 -0.0376 -0.3331  1.1369
  122MOL0     C16353   3.407   9.047   3.965 -0.6893 -0.2739  0.4870
  122MOL0     C16354   3.287   8.997   3.957 -0.1687 -0.3977  0.0084
  122MOL0     C16355   3.169   9.075   3.902  0.6218  0.6725  0.9168
  122MOL0     C16356   3.034   9.043   3.982  0.5335 -0.4739  1.0353
  122MOL0     C16357   2.905   9.031   3.900 -1.4747  0.8838 -0.1102
  122MOL0     C16358   2.786   9.049   3.994 -0.3854 -0.5030 -1.1450
  122MOL0     O16359   2.661   9.022   3.928  0.0844  0.6254 -0.2371
  122MOL0     C16360   2.590   9.124   3.872 -0.0643 -0.5390 -0.0942
  122MOL0     C16361   2.469   9.098   3.819 -0.5538  0.8492  0.3473
  122MOL0     C16362   2.393   9.200   3.763  0.3522 -0.2192 -0.4956
  122MOL0     C16363   2.249   9.162   3.739 -0.3947 -0.9461  0.0044
  122MOL0     C16364   2.449   9.336   3.732  0.1424  0.9172 -0.9639
  122MOL0     C16365   2.370   9.448   3.666 -0.1062  0.2270  0.4502
  122MOL0     O16366   2.267   9.420   3.583  0.3758  0.0484 -0.1586
  122MOL0     C16367   2.189   9.522   3.536  0.7288 -0.1431  0.4020
  122MOL0     C16368   2.234   9.609   3.440  0.6286  1.0896  0.2654
  122MOL0     C16369   2.148   9.712   3.396 -0.1711 -0.4824 -0.0499
  122MOL0     C16370   2.019   9.727   3.448 -0.5504 -0.2474 -1.0310
  122MOL0     O16371   1.940   9.829   3.402 -0.1388  0.6555 -0.1159
  122MOL0     C16372   1.931   9.840   3.264  0.5316  0.3203 -0.5678
  122MOL0     C16373   1.810   9.937   3.241  0.0094 -0.4018  0.0752
  122MOL0     C16374   1.853  10.081   3.278  0.2610 -0.1399  0.2023
  122MOL0     C16375   1.724  10.172   3.288 -0.0782  0.0257 -0.1674
  122MOL0     C16376   1.763  10.308   3.335 -0.0866  0.0380 -0.0090
  122MOL0     C16377   1.643  10.405   3.361  0.0679 -0.8929 -0.3596
  122MOL0     C16378   1.546  10.356   3.473  0.3698 -1.0130  0.0248
  122MOL0     C16379   1.436  10.470   3.480  0.5092 -0.5223  0.9165
  122MOL0    Cl16380   1.326  10.469   3.337 -0.0301  0.0436  0.5470
  122MOL0     C16381   1.977   9.644   3.554 -1.0984 -0.6460  0.2597
  122MOL0     C16382   2.070   9.551   3.597 -1.0450  0.4931  0.2107
  122MOL0     O16383   2.420   9.560   3.681 -0.0776 -0.3990 -0.0500
  122MOL0     C16384   2.577   9.357   3.791 -0.1499  0.1053 -0.8664
  122MOL0     C16385   2.646   9.252   3.854  0.3815 -0.6567  0.6454
  122MOL0     N16386   3.289   8.864   3.970 -0.2672 -0.0713 -0.0564
  122MOL0     N16387   3.412   8.831   4.001 -0.7573  0.6159  0.2096
  122MOL0     C16388   4.666   9.304   3.679  0.6999 -0.6603  0.2733
  122MOL0     C16389   4.752   9.412   3.646  0.0213 -0.2721 -0.4427
  122MOL0     C16390   5.050   9.706   3.660 -0.6103 -0.4657 -0.4220
  122MOL0     C16391   5.168   9.733   3.730  0.4339 -0.0460  0.7702
  122MOL0     C16392   5.284   9.768   3.670 -0.5208  1.4761 -0.2256
  122MOL0     C16393   5.300   9.777   3.534  0.9699 -0.2824  0.1700
  122MOL0     O16394   5.411   9.810   3.469  0.1514  0.6916 -0.1367
  122MOL0     C16395   5.540   9.772   3.523  0.9881  0.2528 -0.3917
  122MOL0     C16396   5.647   9.814   3.425  0.6191 -0.4444 -0.1216
  122MOL0     C16397   5.796   9.816   3.467  0.3674 -0.5366 -0.0930
  122MOL0     C16398   5.815   9.723   3.582  0.7175 -0.2908  0.6343
  122MOL0     C16399   5.957   9.708   3.617  0.8321  0.5925 -0.1681
  122MOL0     C16400   6.071   9.712   3.656 -0.1005 -0.1442  0.7642
  122MOL0     C16401   5.179   9.755   3.465  0.5980 -0.1664  0.0491
  122MOL0     C16402   5.059   9.714   3.525 -0.3045 -0.2150 -0.5570
  122MOL0     H16403   4.593   9.668   3.790 -2.4551 -1.1518  1.8558
  122MOL0     H16404   4.421   9.495   3.822 -0.8112  0.2587  0.2104
  122MOL0     H16405   4.320   9.299   3.909  2.8096 -1.5631  1.2443
  122MOL0     H16406   4.271   9.290   3.732 -1.3319  1.0111  1.5689
  122MOL0     H16407   4.317   9.036   3.770  0.0872 -0.8577 -0.1543
  122MOL0     H16408   4.328   9.083   3.940  0.8999 -2.6270 -0.8141
  122MOL0     H16409   4.104   9.188   3.933 -0.8223 -0.4995  0.8432
  122MOL0     H16410   4.092   9.145   3.758  2.6928 -0.0141 -1.6845
  122MOL0     H16411   4.125   8.892   3.829  1.6605  0.5490 -0.3774
  122MOL0     H16412   4.156   8.957   3.988  1.1149  0.0668 -1.2989
  122MOL0     H16413   3.938   8.829   3.974 -0.0472 -0.5365  4.3602
  122MOL0     H16414   3.936   8.990   4.050  0.8283 -1.4124 -0.1888
  122MOL0     H16415   3.827   9.102   3.877  0.9090  0.2983 -0.7808
  122MOL0     H16416   3.860   8.977   3.758  1.1288 -2.1320  0.5577
  122MOL0     H16417   3.634   8.954   3.811 -1.0452 -3.0324  0.0981
  122MOL0     H16418   3.715   8.813   3.872 -0.0414 -0.5151  1.5488
  122MOL0     H16419   3.658   9.052   4.047  0.3821 -0.2336 -0.6992
  122MOL0     H16420   3.664   8.874   4.097  0.1174 -1.5180 -0.8222
  122MOL0     H16421   3.423   9.148   3.931 -1.4703  0.1482  1.3492
  122MOL0     H16422   3.189   9.182   3.893  0.4855  0.7118  1.0771
  122MOL0     H16423   3.153   9.028   3.804  0.1548 -1.1127  1.7996
  122MOL0     H16424   3.021   9.126   4.052  0.5545  1.3943 -1.0592
  122MOL0     H16425   3.043   8.948   4.034 -0.6431 -1.9358 -1.2686
  122MOL0     H16426   2.909   8.925   3.871 -1.2395  0.4197  1.5132
  122MOL0     H16427   2.912   9.095   3.812 -0.7350 -0.0294 -0.7328
  122MOL0     H16428   2.764   9.147   4.036  0.6845 -0.8738  0.3747
  122MOL0     H16429   2.799   8.976   4.075  0.3263  0.2012 -0.6064
  122MOL0     H16430   2.418   9.003   3.834 -2.2907  1.4293 -1.4263
  122MOL0     H16431   2.217   9.074   3.795 -4.5917  0.0678 -0.4748
  122MOL0     H16432   2.180   9.243   3.762 -0.1932  0.2027 -2.9844
  122MOL0     H16433   2.235   9.149   3.632 -1.4872  1.0993 -0.1485
  122MOL0     H16434   2.327   9.575   3.395 -1.0599  1.2769 -3.8702
  122MOL0     H16435   2.184   9.779   3.319  0.2222 -0.3885  0.2102
  122MOL0     H16436   2.025   9.862   3.214  1.2729  2.8532  1.6580
  122MOL0     H16437   1.902   9.741   3.228  1.3781  0.5361 -1.8900
  122MOL0     H16438   1.776   9.945   3.138 -0.1310  0.0156  0.1527
  122MOL0     H16439   1.729   9.903   3.306  0.6806 -2.6852 -0.1932
  122MOL0     H16440   1.931  10.136   3.224 -0.7448  2.9585  1.6706
  122MOL0     H16441   1.894  10.072   3.379  0.0930  1.8092  0.4935
  122MOL0     H16442   1.674  10.182   3.190  1.6799  1.2376 -0.9884
  122MOL0     H16443   1.650  10.126   3.355 -0.7679  0.5105 -0.5736
  122MOL0     H16444   1.825  10.347   3.255 -0.1225 -0.6189 -0.3618
  122MOL0     H16445   1.824  10.304   3.426  1.1012  0.7517 -0.7504
  122MOL0     H16446   1.680  10.506   3.379  2.0257 -1.4898 -0.7664
  122MOL0     H16447   1.586  10.424   3.270 -0.8894 -0.9761  0.2053
  122MOL0     H16448   1.589  10.367   3.574 -3.6458  1.9812  1.6623
  122MOL0     H16449   1.513  10.253   3.457 -5.7611  1.0157 -3.8144
  122MOL0     H16450   1.485  10.566   3.497 -0.3620 -0.0363  0.7445
  122MOL0     H16451   1.375  10.458   3.570  1.7827 -1.5679  1.6864
  122MOL0     H16452   1.876   9.650   3.593 -1.4165 -1.6511 -0.3714
  122MOL0     H16453   2.048   9.483   3.680  2.3837 -0.7452  0.2522
  122MOL0     H16454   2.617   9.456   3.774  0.4507 -0.7077 -5.4709
  122MOL0     H16455   2.742   9.292   3.886  0.1548  0.6533 -0.2598
  122MOL0     H16456   4.688   9.207   3.634 -0.1354  0.0019 -1.6942
  122MOL0     H16457   4.842   9.390   3.590 -0.3683 -1.6419 -0.5688
  122MOL0     H16458   5.166   9.724   3.838  0.3439  2.0363  0.9988
  122MOL0     H16459   5.368   9.778   3.738 -3.1645  2.1728  3.2462
  122MOL0     H16460   5.560   9.829   3.614  2.2698 -2.0698  0.9083
  122MOL0     H16461   5.548   9.664   3.545 -0.1810  0.1571 -0.4128
  122MOL0     H16462   5.625   9.916   3.392 -0.3991  0.0608  1.9508
  122MOL0     H16463   5.630   9.743   3.344 -3.8081  1.2612 -0.9785
  122MOL0     H16464   5.829   9.916   3.499 -1.1113 -0.1177  0.1933
  122MOL0     H16465   5.860   9.779   3.387  2.1424 -3.5487  2.5038
  122MOL0     H16466   5.780   9.622   3.559  1.0382 -0.8044  2.2617
  122MOL0     H16467   5.764   9.763   3.671 -2.5229  2.6378 -2.2352
  122MOL0     H16468   6.171   9.728   3.690 -0.3512  1.5964  0.7406
  122MOL0     H16469   5.191   9.759   3.357  2.0564 -3.3693 -0.0079
  122MOL0     H16470   4.970   9.693   3.467 -0.1636 -0.2344 -0.7683
  123MOL0     O16471   1.777   3.672   8.926 -0.2512 -0.5983 -0.2478
  123MOL0     C16472   1.796   3.656   8.801  0.4272  0.2872 -0.0791
  123MOL0     O16473   1.707   3.601   8.718 -0.2812  0.1910  0.0779
  123MOL0     C16474   1.605   3.516   8.756 -0.7340 -0.1508 -0.1843
  123MOL0     C16475   1.487   3.513   8.686 -0.3081  0.7215 -1.2031
  123MOL0     C16476   1.385   3.426   8.722 -0.2950  0.6832  0.7406
  123MOL0     C16477   1.388   3.340   8.831 -0.5165 -0.7810 -0.6007
  123MOL0     O16478   1.302   3.235   8.855 -0.3440  0.9007 -0.2300
  123MOL0     C16479   1.244   3.162   8.742  0.0741 -0.3991 -0.7061
  123MOL0     C16480   1.120   3.220   8.684 -0.7767 -0.2030  0.2873
  123MOL0     C16481   1.014   3.113   8.630 -0.8151  0.6090 -0.1336
  123MOL0     C16482   0.884   3.168   8.573 -0.0067 -0.2313  0.1248
  123MOL0     C16483   0.794   3.040   8.557 -0.7827 -0.3934 -0.2507
  123MOL0     C16484   0.663   3.068   8.478 -0.6949  0.4938 -0.7015
  123MOL0     C16485   0.590   2.942   8.434 -0.7733 -0.0747  0.2073
  123MOL0     C16486   0.450   2.982   8.372 -0.2771 -0.0787  0.3955
  123MOL0     N16487   0.352   2.872   8.377  0.4987 -0.1241  0.3625
  123MOL0     C16488   0.318   2.784   8.275 -0.1126  0.2614  0.6360
  123MOL0     C16489   0.223   2.705   8.326  0.5646 -0.1120  0.3536
  123MOL0     C16490   0.151   2.597   8.251 -0.6735  0.7652 -0.3006
  123MOL0     C16491   0.010   2.573   8.319 -0.3858 -1.1578  0.3178
  123MOL0     C16492  -0.096   2.528   8.212 -0.0070 -0.1913  0.0545
  123MOL0     C16493  -0.228   2.541   8.298 -0.6668 -0.0270  0.0624
  123MOL0     O16494  -0.349   2.518   8.227 -0.2288  0.0587  0.4149
  123MOL0     C16495  -0.473   2.564   8.247 -0.4471  0.8085 -0.4345
  123MOL0     C16496  -0.519   2.606   8.376  0.5609 -0.7867 -0.5578
  123MOL0     C16497  -0.655   2.659   8.380  0.4912  0.3803 -0.6702
  123MOL0     C16498  -0.703   2.715   8.513 -0.9617 -0.5578 -0.3777
  123MOL0     C16499  -0.742   2.650   8.263 -0.1002 -0.2137 -0.5450
  123MOL0     C16500  -0.888   2.684   8.264 -0.4636  0.5764  0.0837
  123MOL0     O16501  -0.929   2.773   8.361 -0.0053  0.3247  0.3702
  123MOL0     C16502  -1.058   2.791   8.383  1.0053 -0.7031  0.7858
  123MOL0     C16503  -1.109   2.918   8.368  0.0607  0.0818  0.3671
  123MOL0     C16504  -1.240   2.948   8.399 -0.0233  0.9204 -0.2260
  123MOL0     C16505  -1.337   2.851   8.423  0.1252  0.4539  0.0927
  123MOL0     O16506  -1.466   2.882   8.442 -0.3424 -0.7161  0.3210
  123MOL0     C16507  -1.536   2.810   8.546  0.4779 -0.0241 -0.5317
  123MOL0     C16508  -1.664   2.890   8.580  0.3731 -1.0685  0.1889
  123MOL0     C16509  -1.774   2.803   8.660 -0.3294 -0.1189 -0.4782
  123MOL0     C16510  -1.892   2.892   8.687  0.1365  0.2582  0.0248
  123MOL0     C16511  -2.001   2.821   8.759 -0.2715  0.0641 -0.3451
  123MOL0     C16512  -2.062   2.720   8.659 -0.6962  0.6396 -0.3752
  123MOL0     C16513  -2.175   2.646   8.736  0.0911 -0.0345  0.4040
  123MOL0     C16514  -2.314   2.722   8.722  0.5335 -0.3517 -0.2152
  123MOL0    Cl16515  -2.450   2.614   8.796 -0.2565 -0.2329  0.2823
  123MOL0     C16516  -1.282   2.726   8.428  0.6751  0.4127  0.2971
  123MOL0     C16517  -1.144   2.688   8.407 -0.6411  0.4165  1.4804
  123MOL0     O16518  -0.967   2.617   8.191 -0.2202  0.6146  0.2848
  123MOL0     C16519  -0.684   2.608   8.142 -0.6380  0.7875  0.1548
  123MOL0     C16520  -0.553   2.553   8.135 -0.0907  0.1634 -0.2297
  123MOL0     N16521   0.206   2.748   8.461 -0.3531 -0.0287 -0.4206
  123MOL0     N16522   0.280   2.846   8.492 -0.4281  0.5239 -0.9790
  123MOL0     C16523   1.507   3.351   8.907  0.2258 -0.0381 -0.1862
  123MOL0     C16524   1.606   3.443   8.875  0.0783  0.1989  0.6634
  123MOL0     C16525   1.936   3.671   8.750 -0.1089  0.5227 -0.4571
  123MOL0     C16526   2.034   3.725   8.836  0.0371 -0.1834 -0.0645
  123MOL0     C16527   2.164   3.722   8.786  0.6793  0.4161  0.4217
  123MOL0     C16528   2.195   3.657   8.668 -0.1691  1.0460  0.3085
  123MOL0     O16529   2.325   3.631   8.614  0.4627 -0.4038 -0.3282
  123MOL0     C16530   2.443   3.682   8.681  0.6354  0.1261  0.4299
  123MOL0     C16531   2.491   3.809   8.626 -0.7760  0.3261 -0.0304
  123MOL0     C16532   2.515   3.799   8.474 -0.2547  0.2260  0.5289
  123MOL0     C16533   2.599   3.912   8.416 -0.3312 -0.7234 -0.0890
  123MOL0     C16534   2.743   3.890   8.431  0.9704 -0.0238  0.5987
  123MOL0     C16535   2.858   3.843   8.416  0.2875 -0.7360 -0.6466
  123MOL0     C16536   2.095   3.625   8.584  0.5124 -0.3556  0.6156
  123MOL0     C16537   1.966   3.616   8.629  0.6050  0.1092  0.8522
  123MOL0     H16538   1.480   3.584   8.604 -0.2957 -0.0389 -1.8759
  123MOL0     H16539   1.295   3.425   8.662  0.3093  3.3395 -0.3558
  123MOL0     H16540   1.317   3.152   8.661  1.1350 -3.4134  0.4672
  123MOL0     H16541   1.217   3.067   8.789 -5.2543  0.4307 -1.4375
  123MOL0     H16542   1.070   3.274   8.765 -2.3265 -3.2790  1.5495
  123MOL0     H16543   1.147   3.285   8.600  0.1292 -0.0349  0.6968
  123MOL0     H16544   1.060   3.047   8.556  1.8622  0.7062  1.2905
  123MOL0     H16545   0.991   3.054   8.719  2.0256  0.6054  0.6872
  123MOL0     H16546   0.836   3.241   8.638  1.2285  1.3842 -0.7132
  123MOL0     H16547   0.897   3.218   8.477 -0.2260  0.3066  0.3742
  123MOL0     H16548   0.845   2.955   8.510  2.9277  0.4854  1.8323
  123MOL0     H16549   0.763   3.006   8.656  1.4417  1.7610  1.3066
  123MOL0     H16550   0.600   3.120   8.550  1.2544 -1.7771  2.9158
  123MOL0     H16551   0.686   3.120   8.384 -0.8084  0.6181 -0.6619
  123MOL0     H16552   0.649   2.887   8.360 -3.5768 -2.1159 -0.6916
  123MOL0     H16553   0.581   2.882   8.525  0.1875 -0.7137 -0.1085
  123MOL0     H16554   0.456   3.018   8.269 -0.8964 -0.6686  0.1449
  123MOL0     H16555   0.410   3.070   8.424  2.0976  1.4047 -0.1469
  123MOL0     H16556   0.349   2.768   8.172 -0.7030  1.1509  0.3129
  123MOL0     H16557   0.144   2.612   8.143  0.3307 -1.4134 -0.7285
  123MOL0     H16558   0.214   2.508   8.254  2.3056  2.7511  0.6360
  123MOL0     H16559  -0.023   2.670   8.356 -1.0183 -0.8748 -0.9534
  123MOL0     H16560   0.018   2.500   8.400 -2.1645 -1.3798  0.3348
  123MOL0     H16561  -0.078   2.426   8.175  0.8232 -0.9574  2.3773
  123MOL0     H16562  -0.093   2.598   8.128 -0.5116 -0.4058 -0.1450
  123MOL0     H16563  -0.240   2.643   8.336 -0.3499  0.6803 -1.6470
  123MOL0     H16564  -0.214   2.480   8.388  0.7570  1.7603  1.1184
  123MOL0     H16565  -0.456   2.630   8.461 -1.7386  0.4453  0.9121
  123MOL0     H16566  -0.620   2.735   8.582 -3.3996  1.3736  2.2149
  123MOL0     H16567  -0.757   2.809   8.500  0.3661  0.1450 -1.0419
  123MOL0     H16568  -0.762   2.639   8.565 -1.7879 -0.1085 -0.6346
  123MOL0     H16569  -1.040   2.995   8.336  1.8256 -1.7645 -0.5174
  123MOL0     H16570  -1.278   3.050   8.393 -2.2609  0.2770  1.7803
  123MOL0     H16571  -1.560   2.715   8.497  0.7243 -0.3974  0.0659
  123MOL0     H16572  -1.481   2.802   8.640 -2.8793 -1.2539  1.5195
  123MOL0     H16573  -1.630   2.978   8.635  0.9653 -2.1741  1.6726
  123MOL0     H16574  -1.710   2.929   8.489  1.4195  3.5947  1.4317
  123MOL0     H16575  -1.721   2.751   8.741 -1.3341 -0.6499 -0.1423
  123MOL0     H16576  -1.807   2.732   8.583 -1.6404  1.5600 -1.5535
  123MOL0     H16577  -1.859   2.982   8.739  1.2349  0.7987 -1.5156
  123MOL0     H16578  -1.921   2.922   8.586 -1.4712 -2.4847 -0.4035
  123MOL0     H16579  -2.071   2.903   8.778 -0.7699  0.2033 -2.4903
  123MOL0     H16580  -1.968   2.773   8.852  0.4026  1.0560 -0.0561
  123MOL0     H16581  -2.099   2.771   8.569 -3.7413  1.4278  1.1928
  123MOL0     H16582  -1.986   2.643   8.646 -1.3592  0.0497 -0.8387
  123MOL0     H16583  -2.156   2.645   8.843 -0.2673 -0.1049  0.4693
  123MOL0     H16584  -2.191   2.544   8.698  0.6390  0.1308 -0.2885
  123MOL0     H16585  -2.343   2.749   8.621  2.1793  0.7130 -0.4283
  123MOL0     H16586  -2.305   2.821   8.768  0.2892 -0.0334 -0.8469
  123MOL0     H16587  -1.340   2.637   8.453 -0.9844  1.1272 -0.9036
  123MOL0     H16588  -1.095   2.595   8.433  1.0947  0.3997 -1.3579
  123MOL0     H16589  -0.736   2.610   8.047  0.3151  1.0103 -0.3683
  123MOL0     H16590  -0.515   2.522   8.038  2.8162  0.9314  0.5913
  123MOL0     H16591   1.524   3.291   8.996 -1.1177 -0.4342 -0.1745
  123MOL0     H16592   1.690   3.447   8.943 -0.2472  1.0756  1.0235
  123MOL0     H16593   2.013   3.754   8.938 -2.3733 -3.0139  0.3698
  123MOL0     H16594   2.243   3.759   8.850  2.0777 -1.1107 -0.3537
  123MOL0     H16595   2.419   3.689   8.787 -1.6257 -1.3732  0.0974
  123MOL0     H16596   2.525   3.611   8.668  0.5033 -0.4032  2.1747
  123MOL0     H16597   2.586   3.839   8.672 -1.2564  0.0927  1.1436
  123MOL0     H16598   2.416   3.885   8.652 -0.6026  0.3490  0.4275
  123MOL0     H16599   2.426   3.814   8.412  1.5993  1.2163 -2.0818
  123MOL0     H16600   2.562   3.704   8.445  0.9485  0.7721  0.6462
  123MOL0     H16601   2.570   4.007   8.463  1.2468 -0.1649 -0.1819
  123MOL0     H16602   2.574   3.937   8.313 -0.0097  1.8798  0.3838
  123MOL0     H16603   2.961   3.813   8.410  1.4344  2.2686  1.4950
  123MOL0     H16604   2.118   3.585   8.486 -0.4963  1.3591 -0.3600
  123MOL0     H16605   1.890   3.580   8.560  0.6216  1.4473  0.0904
  124MOL0     O16606   9.599   8.719   0.963 -0.3412  0.7092  0.2064
  124MOL0     C16607   9.716   8.737   0.922 -0.0493 -0.6355  0.0850
  124MOL0     O16608   9.777   8.686   0.806  0.0294 -1.2320 -0.0575
  124MOL0     C16609   9.704   8.603   0.726 -0.6988  0.0439  0.0689
  124MOL0     C16610   9.587   8.659   0.669  0.3022  0.1327 -0.6416
  124MOL0     C16611   9.506   8.578   0.588 -0.5271 -0.0530 -0.2044
  124MOL0     C16612   9.545   8.445   0.550 -0.8679 -0.3695 -0.5125
  124MOL0     O16613   9.472   8.382   0.453 -0.3194  0.1790  0.4183
  124MOL0     C16614   9.330   8.351   0.494  0.2732 -0.6347  1.5758
  124MOL0     C16615   9.246   8.307   0.374  0.6607  0.0702  0.4848
  124MOL0     C16616   9.102   8.272   0.405  0.7659  0.5128 -0.1238
  124MOL0     C16617   9.005   8.268   0.278 -0.5451  0.4485 -0.9676
  124MOL0     C16618   8.882   8.189   0.315  0.2517 -0.6521 -0.1356
  124MOL0     C16619   8.779   8.212   0.201  0.5294  0.2569  0.2991
  124MOL0     C16620   8.640   8.193   0.256 -0.6387 -0.3831 -0.7964
  124MOL0     C16621   8.533   8.180   0.139  0.6252 -0.3231  0.3412
  124MOL0     N16622   8.397   8.200   0.182  0.1413 -1.0014  0.1746
  124MOL0     C16623   8.298   8.100   0.180  0.3437 -0.6793 -0.0427
  124MOL0     C16624   8.188   8.167   0.211  0.7015  0.3021 -0.3678
  124MOL0     C16625   8.041   8.129   0.209 -0.1968  0.4989 -0.0869
  124MOL0     C16626   7.991   8.003   0.131  0.5399  0.0548 -0.1353
  124MOL0     C16627   7.841   7.988   0.163 -0.4716  0.3014  0.0840
  124MOL0     C16628   7.776   7.877   0.088 -0.4622 -0.1871  0.8157
  124MOL0     O16629   7.842   7.761   0.126 -0.2941  0.2866 -0.4333
  124MOL0     C16630   7.765   7.648   0.096  0.1149  0.1511 -0.9821
  124MOL0     C16631   7.816   7.542   0.019 -0.4087 -0.5962 -0.2473
  124MOL0     C16632   7.742   7.426  -0.000  0.1446  0.3420  1.0769
  124MOL0     C16633   7.801   7.304  -0.056  0.7822  0.2027 -0.4179
  124MOL0     C16634   7.610   7.423   0.060  0.1099  0.0170  0.3324
  124MOL0     C16635   7.520   7.313   0.046 -0.3446 -0.1746 -1.0411
  124MOL0     O16636   7.549   7.187   0.091  0.2518 -0.2025 -0.2407
  124MOL0     C16637   7.456   7.093   0.086  0.3671 -0.0282  1.1741
  124MOL0     C16638   7.444   6.999  -0.023  1.1551 -0.1219  0.9988
  124MOL0     C16639   7.350   6.898  -0.024  0.2318 -0.0006  0.0922
  124MOL0     C16640   7.261   6.883   0.082  0.1196  0.8294 -0.0507
  124MOL0     O16641   7.180   6.770   0.088 -0.0616 -0.5361 -0.2827
  124MOL0     C16642   7.093   6.751  -0.023 -0.0484  0.5340  0.8024
  124MOL0     C16643   6.974   6.670   0.037 -0.6444 -0.4632  0.1805
  124MOL0     C16644   6.864   6.652  -0.078  0.1694 -0.0657 -0.6253
  124MOL0     C16645   6.732   6.591  -0.040  0.3244  0.0976 -0.0623
  124MOL0     C16646   6.641   6.601  -0.162  0.0295  0.3756 -0.1471
  124MOL0     C16647   6.509   6.526  -0.123  0.5559 -0.3228  0.3909
  124MOL0     C16648   6.425   6.527  -0.254 -0.5890 -0.3865  0.4084
  124MOL0     C16649   6.295   6.440  -0.240 -0.2864  0.2020 -0.1471
  124MOL0    Cl16650   6.201   6.450  -0.398 -0.1512 -0.0854  0.2792
  124MOL0     C16651   7.262   6.972   0.189 -0.2001 -0.9166 -1.4431
  124MOL0     C16652   7.357   7.082   0.189  0.5381  0.3085 -0.0816
  124MOL0     O16653   7.421   7.342  -0.021 -0.4681  0.5750 -0.5281
  124MOL0     C16654   7.557   7.527   0.124 -0.6191 -0.4631 -0.1825
  124MOL0     C16655   7.633   7.634   0.147 -0.0850  0.0082 -0.9803
  124MOL0     N16656   8.220   8.305   0.226 -0.1100  0.7712  0.3829
  124MOL0     N16657   8.345   8.321   0.220 -0.9489 -0.6505  0.0545
  124MOL0     C16658   9.675   8.408   0.585  0.3132  0.7998 -1.3216
  124MOL0     C16659   9.748   8.478   0.681 -0.5433 -0.0228 -1.0611
  124MOL0     C16660   9.803   8.817   1.007 -0.1303  0.4732  0.2498
  124MOL0     C16661   9.936   8.826   0.980 -0.7177  0.4781  0.7397
  124MOL0     C16662  10.018   8.898   1.063 -0.4023  0.2132 -0.1129
  124MOL0     C16663   9.985   8.948   1.186  0.0774  0.4597 -0.6793
  124MOL0     O16664  10.081   9.009   1.265 -0.3310 -0.9031 -0.1963
  124MOL0     C16665  10.035   9.078   1.388  0.6901  0.7724 -0.4590
  124MOL0     C16666  10.154   9.150   1.440 -0.0509  0.3757  0.0769
  124MOL0     C16667  10.115   9.226   1.561  0.3515 -0.7649 -0.1433
  124MOL0     C16668  10.207   9.339   1.607  0.2765  0.8968  0.0509
  124MOL0     C16669  10.330   9.289   1.657 -0.6399 -0.1997 -0.7684
  124MOL0     C16670  10.420   9.231   1.721  0.2375 -0.4056  0.6311
  124MOL0     C16671   9.853   8.931   1.222 -0.0589  0.0144  0.1644
  124MOL0     C16672   9.762   8.866   1.137 -0.4406 -0.2773 -0.4183
  124MOL0     H16673   9.554   8.757   0.700  4.3265  1.9571 -1.4598
  124MOL0     H16674   9.419   8.622   0.541 -2.3467 -2.3370  0.8258
  124MOL0     H16675   9.339   8.273   0.570  0.3206  1.4224  3.8119
  124MOL0     H16676   9.281   8.432   0.548 -0.6360 -1.9997  2.8821
  124MOL0     H16677   9.247   8.386   0.299 -1.2687  2.3631  2.6985
  124MOL0     H16678   9.291   8.216   0.334  0.9393  0.3277  0.2093
  124MOL0     H16679   9.101   8.179   0.462 -1.0804  1.0259  0.7733
  124MOL0     H16680   9.064   8.353   0.468 -2.0837  0.1492 -1.1972
  124MOL0     H16681   8.974   8.371   0.256 -2.0504  0.5910  1.4017
  124MOL0     H16682   9.054   8.220   0.193  0.5748 -1.3515  0.6022
  124MOL0     H16683   8.913   8.085   0.331  0.8736 -0.1439  2.2782
  124MOL0     H16684   8.847   8.231   0.410  0.6184  0.9108 -0.6643
  124MOL0     H16685   8.775   8.304   0.143  0.4225  1.2902  1.8884
  124MOL0     H16686   8.799   8.135   0.125  0.1541  0.9394 -0.5090
  124MOL0     H16687   8.637   8.104   0.319 -1.6988  0.5022  0.4413
  124MOL0     H16688   8.614   8.278   0.319 -1.1594 -1.5399  0.6048
  124MOL0     H16689   8.538   8.083   0.089 -1.5408  1.2014 -3.2226
  124MOL0     H16690   8.572   8.243   0.059  0.4881 -1.7645 -0.9032
  124MOL0     H16691   8.304   7.996   0.149 -0.1325 -0.5759 -0.5003
  124MOL0     H16692   8.014   8.102   0.312 -2.4435 -1.1816 -1.0426
  124MOL0     H16693   7.990   8.215   0.166  1.1549  0.4531 -1.9071
  124MOL0     H16694   8.056   7.924   0.170  1.9995  0.4549 -1.6352
  124MOL0     H16695   8.015   8.013   0.025 -0.9800  0.2878 -0.4872
  124MOL0     H16696   7.780   8.077   0.144  0.9203  0.9032 -1.9105
  124MOL0     H16697   7.827   7.959   0.267  0.3191  0.9608  0.3869
  124MOL0     H16698   7.781   7.885  -0.021  0.0620  0.9091  0.9066
  124MOL0     H16699   7.671   7.878   0.117 -1.0887  0.1756 -1.3347
  124MOL0     H16700   7.910   7.546  -0.034 -0.5987 -1.8944 -0.7227
  124MOL0     H16701   7.790   7.227   0.021  1.5941  0.2572 -0.2412
  124MOL0     H16702   7.734   7.287  -0.141 -0.9562 -0.3692  0.9963
  124MOL0     H16703   7.908   7.316  -0.074  1.1917 -1.5972  0.5584
  124MOL0     H16704   7.500   7.001  -0.116  1.2060  0.9918  1.0400
  124MOL0     H16705   7.338   6.829  -0.107  2.3355 -0.3248 -0.0077
  124MOL0     H16706   7.062   6.846  -0.068 -1.3740 -1.5556 -3.2196
  124MOL0     H16707   7.139   6.693  -0.104 -0.0976  1.5323  0.0476
  124MOL0     H16708   7.004   6.571   0.073 -1.9410 -0.6525  0.7962
  124MOL0     H16709   6.937   6.717   0.128  0.2208  1.5664 -0.4519
  124MOL0     H16710   6.901   6.587  -0.158 -3.0680 -0.6956 -1.7628
  124MOL0     H16711   6.850   6.750  -0.125 -0.0177  0.1938 -0.0365
  124MOL0     H16712   6.755   6.486  -0.021  2.6554  0.4982 -0.4360
  124MOL0     H16713   6.694   6.647   0.046  3.5172  1.0227  0.8590
  124MOL0     H16714   6.694   6.547  -0.242  4.1445 -0.2083  2.6518
  124MOL0     H16715   6.638   6.707  -0.187 -1.4491  0.1321 -1.1154
  124MOL0     H16716   6.516   6.421  -0.092 -0.5045 -0.0497  1.6784
  124MOL0     H16717   6.457   6.579  -0.043  1.6466  0.9479  0.2930
  124MOL0     H16718   6.492   6.482  -0.328  0.7837 -1.0162  1.9526
  124MOL0     H16719   6.401   6.630  -0.281 -1.4878 -0.3171  1.4066
  124MOL0     H16720   6.234   6.478  -0.158 -0.2210  1.6058 -0.7266
  124MOL0     H16721   6.325   6.337  -0.218 -2.3661 -0.8470 -1.8634
  124MOL0     H16722   7.187   6.967   0.267 -0.7417  1.5447 -1.7219
  124MOL0     H16723   7.360   7.146   0.277 -0.7919  0.0796  0.1478
  124MOL0     H16724   7.461   7.524   0.174 -0.9110  0.9280 -0.5996
  124MOL0     H16725   7.598   7.714   0.211 -0.6516 -0.0354 -1.2292
  124MOL0     H16726   9.705   8.313   0.541 -3.5989 -0.6450 -1.3077
  124MOL0     H16727   9.837   8.422   0.707 -1.9678 -0.7253  2.9534
  124MOL0     H16728   9.990   8.775   0.901 -2.6543 -0.1491 -0.2317
  124MOL0     H16729  10.126   8.900   1.051  0.3041 -3.6963  3.3248
  124MOL0     H16730   9.953   9.142   1.354 -1.4240 -2.0916 -1.1019
  124MOL0     H16731  10.001   9.001   1.459 -0.3121  0.2754 -1.4559
  124MOL0     H16732  10.200   9.218   1.368  0.9360  0.1470  0.4719
  124MOL0     H16733  10.233   9.084   1.479 -1.7499 -0.2887  2.5758
  124MOL0     H16734  10.103   9.154   1.641  1.6350  1.0279  1.7701
  124MOL0     H16735  10.016   9.269   1.547  0.2031 -1.1129 -0.1612
  124MOL0     H16736  10.157   9.370   1.700  1.4610 -2.7800  2.1213
  124MOL0     H16737  10.225   9.422   1.539  1.1989  0.2093 -0.5761
  124MOL0     H16738  10.489   9.166   1.771  1.2367  0.0337 -0.1410
  124MOL0     H16739   9.820   8.974   1.316  0.1831 -1.8399  1.1303
  124MOL0     H16740   9.658   8.861   1.168  0.4382  1.4079  3.3266
  125MOL0     O16741   3.907   4.369   2.148  0.7523 -1.2638 -0.4094
  125MOL0     C16742   3.896   4.258   2.191  0.1525  0.1648  0.6475
  125MOL0     O16743   3.782   4.210   2.259 -0.5804 -0.8685 -0.2177
  125MOL0     C16744   3.676   4.299   2.274  0.5897  0.1076 -0.4973
  125MOL0     C16745   3.596   4.347   2.169  0.5971 -0.1309 -0.2687
  125MOL0     C16746   3.489   4.435   2.184  0.5160  0.5915 -0.2533
  125MOL0     C16747   3.457   4.477   2.317 -0.0068  0.5628  0.3180
  125MOL0     O16748   3.356   4.574   2.319 -0.3553  0.1602 -0.4920
  125MOL0     C16749   3.343   4.655   2.436  0.6418  0.3838  0.5948
  125MOL0     C16750   3.233   4.754   2.418 -0.5338  0.8481  0.1765
  125MOL0     C16751   3.098   4.694   2.402  1.2235 -0.5464  0.3913
  125MOL0     C16752   3.004   4.792   2.317 -0.3746  0.4455  0.2416
  125MOL0     C16753   2.871   4.728   2.282 -0.0729  0.5661  0.7700
  125MOL0     C16754   2.783   4.825   2.198  0.3651  0.0407 -0.4906
  125MOL0     C16755   2.817   4.834   2.048  0.4046  0.1004 -0.4254
  125MOL0     C16756   2.722   4.946   1.977 -0.3559 -0.2058 -0.6839
  125MOL0     N16757   2.755   4.951   1.834  0.0015 -0.0421  0.6062
  125MOL0     C16758   2.839   5.047   1.776  0.4743 -0.5504 -0.6380
  125MOL0     C16759   2.811   5.045   1.641  0.3711  1.2827 -0.4833
  125MOL0     C16760   2.879   5.126   1.535  0.2084 -0.2379  0.3676
  125MOL0     C16761   3.002   5.053   1.484 -0.5649 -0.3407 -1.0983
  125MOL0     C16762   3.003   5.055   1.329  1.0607  0.9114 -0.1987
  125MOL0     C16763   2.985   5.191   1.273 -0.2049 -0.0443  0.4818
  125MOL0     O16764   3.065   5.285   1.345  0.2636 -0.5612 -0.1304
  125MOL0     C16765   3.080   5.418   1.308 -0.4271  0.3819 -0.0193
  125MOL0     C16766   3.020   5.474   1.191  0.7301  0.8552  0.2203
  125MOL0     C16767   3.030   5.601   1.154  0.6952  0.1001 -0.3112
  125MOL0     C16768   2.951   5.649   1.031  0.6963  0.3705 -0.5353
  125MOL0     C16769   3.101   5.695   1.230 -0.3496  0.6358 -0.0451
  125MOL0     C16770   3.120   5.839   1.196 -0.0766  0.4460  0.1706
  125MOL0     O16771   3.036   5.900   1.118 -0.2587 -0.3222  0.5407
  125MOL0     C16772   3.091   6.007   1.037 -0.2302  0.4651 -0.0250
  125MOL0     C16773   3.220   6.040   0.999  0.4729 -0.5060 -0.3129
  125MOL0     C16774   3.250   6.147   0.916  0.5978 -0.3909  0.0912
  125MOL0     C16775   3.144   6.217   0.855 -0.2912 -0.0324 -0.7375
  125MOL0     O16776   3.159   6.320   0.759  0.1634 -0.1412 -0.6717
  125MOL0     C16777   3.228   6.435   0.812  0.1928 -0.6171 -0.0045
  125MOL0     C16778   3.205   6.557   0.730  0.1020 -0.6841  0.2319
  125MOL0     C16779   3.301   6.670   0.759 -0.2535  0.6348  0.0136
  125MOL0     C16780   3.267   6.783   0.663  0.4515 -0.6628  0.0602
  125MOL0     C16781   3.374   6.895   0.668 -0.2349 -0.1780 -0.6730
  125MOL0     C16782   3.504   6.845   0.594  0.3557 -0.5950 -1.1574
  125MOL0     C16783   3.606   6.955   0.575  0.5657  0.3960  0.3058
  125MOL0     C16784   3.692   6.990   0.698 -0.1188  0.0495 -0.3249
  125MOL0    Cl16785   3.821   7.098   0.648  0.5527  0.0349  0.4404
  125MOL0     C16786   3.012   6.179   0.891 -0.8077 -0.0739  0.6559
  125MOL0     C16787   2.986   6.075   0.977 -0.4187 -0.6277  0.1783
  125MOL0     O16788   3.224   5.883   1.240  1.0328 -0.1023 -0.4536
  125MOL0     C16789   3.169   5.645   1.350  0.4709  0.4461  0.2684
  125MOL0     C16790   3.158   5.503   1.378 -0.2789 -0.9755  0.1155
  125MOL0     N16791   2.722   4.932   1.614 -0.4040 -0.0025 -0.0101
  125MOL0     N16792   2.689   4.889   1.730  0.4831  0.2304  0.0947
  125MOL0     C16793   3.526   4.430   2.426  0.0833 -0.9338 -0.2985
  125MOL0     C16794   3.637   4.347   2.404 -0.0339 -0.0515 -0.1706
  125MOL0     C16795   3.998   4.152   2.174  0.1359 -0.0850  0.2079
  125MOL0     C16796   3.984   4.029   2.247  0.9402  0.2152  0.1348
  125MOL0     C16797   4.077   3.930   2.232 -0.8338  0.2215  0.3868
  125MOL0     C16798   4.187   3.956   2.145  0.5020  0.2086 -0.0546
  125MOL0     O16799   4.271   3.847   2.153 -0.3162 -0.1369  0.6538
  125MOL0     C16800   4.395   3.854   2.081  0.1721  0.4345 -0.1389
  125MOL0     C16801   4.359   3.796   1.944 -0.3747  0.7693 -0.2630
  125MOL0     C16802   4.466   3.806   1.828  0.2545 -0.3081 -0.3122
  125MOL0     C16803   4.612   3.827   1.874  0.9358  0.1088  0.4975
  125MOL0     C16804   4.657   3.724   1.965 -0.4658 -0.4045 -0.2750
  125MOL0     C16805   4.691   3.654   2.056 -0.1492  0.4510 -0.1102
  125MOL0     C16806   4.204   4.071   2.069 -0.4968 -0.0933  0.4717
  125MOL0     C16807   4.112   4.175   2.084  0.5699  0.6138 -0.1212
  125MOL0     H16808   3.616   4.318   2.066  0.6734  2.0732 -0.9261
  125MOL0     H16809   3.443   4.477   2.095  2.3856  2.1776 -0.5414
  125MOL0     H16810   3.323   4.581   2.514  4.3216 -1.8795 -0.3359
  125MOL0     H16811   3.435   4.704   2.471  1.0308 -0.2673  0.5012
  125MOL0     H16812   3.239   4.830   2.496  1.0931  0.0924  0.8255
  125MOL0     H16813   3.249   4.819   2.331 -1.3688 -0.0010 -0.6503
  125MOL0     H16814   3.102   4.594   2.358 -0.4529 -1.1499  1.5057
  125MOL0     H16815   3.048   4.680   2.498  3.0334 -2.0819  1.1579
  125MOL0     H16816   2.985   4.886   2.371 -1.2371 -0.3185  1.3057
  125MOL0     H16817   3.054   4.816   2.222 -0.1899  2.7633  0.8554
  125MOL0     H16818   2.889   4.640   2.220 -3.1919  1.3464 -1.5165
  125MOL0     H16819   2.817   4.690   2.369  0.6966 -0.8061  0.6722
  125MOL0     H16820   2.681   4.792   2.216  1.5849 -2.0497  3.7714
  125MOL0     H16821   2.783   4.924   2.244 -3.1075 -0.1785  0.2181
  125MOL0     H16822   2.922   4.866   2.046 -0.1250  2.1519  1.0645
  125MOL0     H16823   2.799   4.738   2.000  0.0640 -0.6230  1.0984
  125MOL0     H16824   2.723   5.043   2.027 -0.1142 -1.4609  1.9476
  125MOL0     H16825   2.618   4.912   1.970 -0.8154  1.3809 -2.2963
  125MOL0     H16826   2.919   5.110   1.813  0.8793  0.0305 -2.3989
  125MOL0     H16827   2.802   5.141   1.459  0.3543 -3.5302 -0.5620
  125MOL0     H16828   2.919   5.213   1.589  1.0777 -1.4269  1.7174
  125MOL0     H16829   3.002   4.948   1.514  1.9637 -0.8237 -2.4786
  125MOL0     H16830   3.098   5.081   1.528  1.5487 -3.5273 -3.2180
  125MOL0     H16831   2.927   4.986   1.291  0.9221  0.2782  1.1592
  125MOL0     H16832   3.097   5.017   1.288  1.5360  0.6600  1.0707
  125MOL0     H16833   2.882   5.225   1.290 -0.2058 -0.4490  1.4151
  125MOL0     H16834   3.021   5.194   1.170 -0.8550 -0.4852  0.2369
  125MOL0     H16835   2.965   5.412   1.121  1.4662  0.7126 -0.2412
  125MOL0     H16836   3.021   5.693   0.960  2.4058 -1.3287  0.0321
  125MOL0     H16837   2.890   5.569   0.987 -1.4098  1.9152 -0.6133
  125MOL0     H16838   2.881   5.732   1.048  1.1272  0.7583 -0.6283
  125MOL0     H16839   3.308   5.990   1.036  1.7731  0.2100 -2.2492
  125MOL0     H16840   3.352   6.180   0.896  0.4161  0.7580  0.9787
  125MOL0     H16841   3.211   6.465   0.916  2.3605  2.7535 -0.4679
  125MOL0     H16842   3.335   6.414   0.801  0.6402  2.1516 -1.6489
  125MOL0     H16843   3.212   6.519   0.627 -1.2230 -0.5543  0.0699
  125MOL0     H16844   3.105   6.600   0.743  0.7754  1.0057  0.0998
  125MOL0     H16845   3.404   6.642   0.735 -0.4733  0.2956 -0.5487
  125MOL0     H16846   3.297   6.697   0.865  0.5108  2.0375 -0.2794
  125MOL0     H16847   3.248   6.753   0.560 -2.0077 -1.6397  0.7200
  125MOL0     H16848   3.170   6.828   0.683 -0.2109 -3.1285  3.3857
  125MOL0     H16849   3.389   6.932   0.770  1.6223  0.7937 -1.2421
  125MOL0     H16850   3.332   6.978   0.611 -1.6167 -0.9762 -0.8547
  125MOL0     H16851   3.541   6.759   0.651 -3.8079 -2.6900 -1.1778
  125MOL0     H16852   3.478   6.807   0.495  1.2954  1.8271 -2.4012
  125MOL0     H16853   3.560   7.046   0.534  1.5425 -0.5930 -3.3411
  125MOL0     H16854   3.675   6.911   0.503 -1.1831 -0.7749 -0.7317
  125MOL0     H16855   3.735   6.894   0.726  1.9184  0.5322 -1.5557
  125MOL0     H16856   3.629   7.027   0.779  0.2428 -1.1772  0.5511
  125MOL0     H16857   2.929   6.242   0.859 -0.9743 -0.3368  0.5648
  125MOL0     H16858   2.882   6.058   1.003 -0.7217 -1.5389 -1.4660
  125MOL0     H16859   3.235   5.709   1.408 -0.2246  0.1969  1.3761
  125MOL0     H16860   3.199   5.472   1.474 -1.2106  0.5985  1.0758
  125MOL0     H16861   3.511   4.459   2.529 -1.7393 -1.5963 -0.3391
  125MOL0     H16862   3.696   4.314   2.489  0.4476 -0.5228 -0.6818
  125MOL0     H16863   3.899   4.014   2.312  1.9040 -0.7452  1.2032
  125MOL0     H16864   4.062   3.835   2.282 -2.9909  1.1457  1.6378
  125MOL0     H16865   4.443   3.949   2.055 -0.6690 -0.2640 -5.4339
  125MOL0     H16866   4.457   3.780   2.133 -3.2507 -2.0614  0.7488
  125MOL0     H16867   4.271   3.852   1.911  0.1236  1.1766 -0.9558
  125MOL0     H16868   4.325   3.693   1.954 -0.3052  0.8598  0.9744
  125MOL0     H16869   4.427   3.886   1.765 -3.3520 -1.9700 -0.4815
  125MOL0     H16870   4.460   3.714   1.769 -0.6549 -0.7245  0.3980
  125MOL0     H16871   4.617   3.922   1.928 -0.5514  1.5464 -1.7033
  125MOL0     H16872   4.674   3.829   1.784 -2.3475 -1.8799 -2.0556
  125MOL0     H16873   4.726   3.571   2.114 -0.1796  0.8523  0.5005
  125MOL0     H16874   4.286   4.073   1.998 -0.6239 -0.9660  0.2873
  125MOL0     H16875   4.125   4.261   2.019 -2.2767  0.8410 -0.5112
  126MOL0     O16876   7.883   2.994   2.579 -0.5734 -0.1660  0.3029
  126MOL0     C16877   7.949   3.058   2.490 -0.0160  0.1403 -0.0484
  126MOL0     O16878   7.898   3.157   2.403 -0.2156 -0.2770 -0.1522
  126MOL0     C16879   7.765   3.185   2.411 -0.5100 -0.2332  1.0837
  126MOL0     C16880   7.664   3.095   2.387 -0.1365  1.2401 -0.2010
  126MOL0     C16881   7.537   3.128   2.421  0.0624 -0.6836 -0.4080
  126MOL0     C16882   7.502   3.258   2.464  0.5061 -0.2661 -0.5181
  126MOL0     O16883   7.373   3.297   2.496  0.0480  0.3779  0.0018
  126MOL0     C16884   7.280   3.191   2.510  0.6175 -0.2428 -0.0425
  126MOL0     C16885   7.154   3.253   2.588  0.5325 -0.4589 -0.2745
  126MOL0     C16886   7.035   3.320   2.507 -0.1800 -0.1097 -0.4480
  126MOL0     C16887   6.913   3.333   2.592 -0.5141 -0.0716 -0.1769
  126MOL0     C16888   6.805   3.413   2.511 -0.1003  0.2958 -0.4728
  126MOL0     C16889   6.677   3.450   2.593  0.6044  0.5160  0.3418
  126MOL0     C16890   6.563   3.491   2.498  0.4351 -0.2851  0.3731
  126MOL0     C16891   6.439   3.528   2.580 -0.3862  0.1336  0.5205
  126MOL0     N16892   6.314   3.539   2.490  0.1474  0.1707  0.2161
  126MOL0     C16893   6.285   3.659   2.428  0.0117 -0.2823  0.0818
  126MOL0     C16894   6.165   3.644   2.377 -0.8306  0.0929  0.6836
  126MOL0     C16895   6.074   3.751   2.322 -0.4970  0.9267 -0.0302
  126MOL0     C16896   5.971   3.782   2.421 -0.0739  0.7140  0.6918
  126MOL0     C16897   5.889   3.898   2.374 -0.0747 -1.3045  0.7437
  126MOL0     C16898   5.815   3.874   2.242  0.6959  0.2640  0.0212
  126MOL0     O16899   5.713   3.774   2.258  0.2132  0.6043  0.4479
  126MOL0     C16900   5.582   3.818   2.286 -0.1855  0.1874 -0.4951
  126MOL0     C16901   5.480   3.736   2.233 -0.1475  0.2568  0.4238
  126MOL0     C16902   5.346   3.751   2.275  0.1990 -0.6371  0.6902
  126MOL0     C16903   5.244   3.642   2.244  0.6986  0.1571 -0.4405
  126MOL0     C16904   5.308   3.872   2.355  0.3603  0.2465  0.3148
  126MOL0     C16905   5.168   3.904   2.404  0.1273 -0.3540 -0.1790
  126MOL0     O16906   5.068   3.810   2.424  0.0674 -0.0124  0.2684
  126MOL0     C16907   4.948   3.855   2.459 -0.6641  0.7562 -0.0846
  126MOL0     C16908   4.838   3.851   2.367  0.6691 -1.5126 -0.6377
  126MOL0     C16909   4.708   3.885   2.409  0.5884 -0.5230 -0.7156
  126MOL0     C16910   4.686   3.946   2.535 -0.7169  0.1672 -0.0764
  126MOL0     O16911   4.565   3.974   2.585 -0.5225  0.6974 -0.6884
  126MOL0     C16912   4.458   3.992   2.493  0.3397 -0.7553  0.1240
  126MOL0     C16913   4.362   3.872   2.477 -0.2561 -0.7132  0.4722
  126MOL0     C16914   4.285   3.829   2.601 -0.1369  0.3183 -0.2279
  126MOL0     C16915   4.130   3.840   2.576  0.5399  0.1281  0.2094
  126MOL0     C16916   4.056   3.846   2.711  0.0808  0.6232 -0.5609
  126MOL0     C16917   3.900   3.875   2.703 -1.1463  0.2881  0.1530
  126MOL0     C16918   3.861   3.998   2.625  0.2776  0.9323  0.3884
  126MOL0     C16919   3.707   4.017   2.631 -0.1660 -0.3999  0.3219
  126MOL0    Cl16920   3.679   4.089   2.797  0.0249 -0.1314  0.3690
  126MOL0     C16921   4.793   3.952   2.621  1.3339 -0.0236 -0.1312
  126MOL0     C16922   4.921   3.907   2.588  0.2764  0.1371  1.0864
  126MOL0     O16923   5.159   4.018   2.435 -0.1866  0.0770 -0.2171
  126MOL0     C16924   5.416   3.962   2.390  0.0666  0.4749 -0.0892
  126MOL0     C16925   5.545   3.935   2.359 -0.3492 -0.0800  0.3753
  126MOL0     N16926   6.138   3.510   2.386  0.6075  0.1853 -0.1456
  126MOL0     N16927   6.230   3.444   2.444 -0.8124 -0.7704 -1.2532
  126MOL0     C16928   7.600   3.348   2.484  0.3863 -0.4228  0.1445
  126MOL0     C16929   7.732   3.314   2.445  0.4736 -1.2433 -0.0547
  126MOL0     C16930   8.092   3.027   2.490 -0.0862  0.3667  0.2323
  126MOL0     C16931   8.176   3.127   2.429  0.1949  0.4633 -0.7765
  126MOL0     C16932   8.316   3.110   2.428  0.0358  0.7588  0.6206
  126MOL0     C16933   8.371   2.996   2.482 -0.0087 -0.0747 -0.5317
  126MOL0     O16934   8.505   3.003   2.479 -0.5442 -0.2214 -0.2295
  126MOL0     C16935   8.577   2.891   2.530  0.7255 -0.4050 -0.4269
  126MOL0     C16936   8.726   2.921   2.535  0.8756  0.2319 -0.1449
  126MOL0     C16937   8.815   2.795   2.538 -0.1996  0.2867  0.5172
  126MOL0     C16938   8.963   2.820   2.547  0.8396  0.7949  0.3709
  126MOL0     C16939   9.033   2.711   2.614  0.4233 -0.0465  0.0263
  126MOL0     C16940   9.100   2.621   2.668 -0.2456 -0.4477  0.1269
  126MOL0     C16941   8.289   2.893   2.545 -1.0458 -0.3943  0.4500
  126MOL0     C16942   8.153   2.910   2.549  0.1492 -0.7044  0.3769
  126MOL0     H16943   7.682   2.991   2.364 -1.2230  0.9785  0.0740
  126MOL0     H16944   7.459   3.061   2.386 -2.7585  2.5626 -0.8741
  126MOL0     H16945   7.235   3.162   2.414 -0.0131  0.3486  0.0688
  126MOL0     H16946   7.320   3.103   2.561  0.0254 -1.6899 -1.9264
  126MOL0     H16947   7.113   3.171   2.648  0.9428 -0.0026  0.6513
  126MOL0     H16948   7.189   3.333   2.653 -2.4803  1.7557 -1.1820
  126MOL0     H16949   7.067   3.419   2.473 -0.5872  0.6358  1.2232
  126MOL0     H16950   7.003   3.253   2.427 -1.3984 -1.9140  1.4289
  126MOL0     H16951   6.872   3.237   2.626  2.3681 -1.5241 -0.5202
  126MOL0     H16952   6.933   3.382   2.687 -1.8136 -1.8607  1.0828
  126MOL0     H16953   6.850   3.503   2.469 -0.3643 -0.3329 -2.2079
  126MOL0     H16954   6.777   3.355   2.422  0.4799  2.1045 -1.9038
  126MOL0     H16955   6.638   3.368   2.654 -1.4788 -0.0154 -1.5484
  126MOL0     H16956   6.699   3.537   2.655  0.0222 -0.8600  2.5854
  126MOL0     H16957   6.597   3.575   2.437  2.3212 -0.8069  0.6521
  126MOL0     H16958   6.541   3.403   2.437 -2.7806  0.1369  0.7172
  126MOL0     H16959   6.464   3.619   2.636 -0.2499 -1.3771  3.0991
  126MOL0     H16960   6.419   3.447   2.652  0.6657  0.2701  0.9799
  126MOL0     H16961   6.319   3.759   2.449 -0.2192 -0.3590  0.8671
  126MOL0     H16962   6.130   3.838   2.286  0.2549  0.2529 -0.5186
  126MOL0     H16963   6.020   3.710   2.236 -0.4777  0.0900  0.3428
  126MOL0     H16964   6.009   3.801   2.522 -0.4023  0.0221  0.9488
  126MOL0     H16965   5.915   3.688   2.430 -0.0769  0.5104 -1.2019
  126MOL0     H16966   5.961   3.978   2.355 -1.9310  0.2936  0.0537
  126MOL0     H16967   5.820   3.937   2.450 -0.4846  1.3143 -0.8498
  126MOL0     H16968   5.878   3.841   2.159  0.5428 -1.1478  0.4391
  126MOL0     H16969   5.761   3.966   2.217  3.4872  2.1230  0.4272
  126MOL0     H16970   5.509   3.647   2.178 -3.0905  0.2959 -1.3597
  126MOL0     H16971   5.186   3.611   2.331  0.5656  3.6085  0.8655
  126MOL0     H16972   5.169   3.680   2.175 -1.1146 -2.2258  0.0656
  126MOL0     H16973   5.290   3.558   2.190 -1.0948  0.0912 -1.9441
  126MOL0     H16974   4.856   3.805   2.270  0.9695 -0.7577 -0.9454
  126MOL0     H16975   4.632   3.865   2.334  0.9619  0.3110 -1.3296
  126MOL0     H16976   4.413   4.084   2.531  0.7129  0.4734 -2.2123
  126MOL0     H16977   4.497   4.012   2.393 -0.0489 -0.4812  0.0257
  126MOL0     H16978   4.290   3.898   2.398  0.8582 -0.4060 -0.4702
  126MOL0     H16979   4.416   3.785   2.438  0.8023 -0.8512  2.1661
  126MOL0     H16980   4.322   3.897   2.679  0.1197 -1.2386  1.0696
  126MOL0     H16981   4.318   3.731   2.638 -1.9258 -0.3525 -0.3139
  126MOL0     H16982   4.114   3.937   2.528  1.2288 -0.2298 -0.7800
  126MOL0     H16983   4.086   3.771   2.505 -0.8172  0.3479  0.8101
  126MOL0     H16984   4.105   3.908   2.786  1.5548 -1.3578  0.2235
  126MOL0     H16985   4.070   3.744   2.750  1.9417  1.5984  1.5327
  126MOL0     H16986   3.844   3.788   2.667  0.2525 -0.3245 -0.6144
  126MOL0     H16987   3.893   3.893   2.811  2.9561  1.4137  0.3978
  126MOL0     H16988   3.887   3.984   2.520  0.7540  0.3101  0.5834
  126MOL0     H16989   3.911   4.088   2.664 -1.2681  1.9137  0.1980
  126MOL0     H16990   3.655   3.921   2.620  0.8025 -0.8670 -0.3363
  126MOL0     H16991   3.672   4.088   2.556 -0.2453 -0.6450  0.1250
  126MOL0     H16992   4.778   3.968   2.727 -2.5659 -0.7167 -0.4203
  126MOL0     H16993   4.997   3.886   2.662  2.2082  2.2662 -0.1509
  126MOL0     H16994   5.393   4.053   2.443 -1.4594 -0.0677  0.2607
  126MOL0     H16995   5.619   4.012   2.380 -1.7451  1.7783 -1.1916
  126MOL0     H16996   7.574   3.448   2.519  0.0151 -0.0499 -1.1447
  126MOL0     H16997   7.803   3.396   2.457 -1.7138  0.8220 -0.4123
  126MOL0     H16998   8.126   3.215   2.389 -1.0519 -0.4306 -1.2817
  126MOL0     H16999   8.388   3.175   2.379  0.3561 -1.7222 -2.4923
  126MOL0     H17000   8.551   2.858   2.630 -1.8688  2.8946  0.1648
  126MOL0     H17001   8.536   2.811   2.467 -0.8154 -0.4414  0.5905
  126MOL0     H17002   8.746   2.981   2.625 -0.1993 -0.3213  0.4795
  126MOL0     H17003   8.736   2.975   2.441 -0.4477  0.9448  0.0984
  126MOL0     H17004   8.806   2.722   2.457  0.6710 -0.9934  1.5319
  126MOL0     H17005   8.784   2.746   2.631  0.0062  1.5185  1.2549
  126MOL0     H17006   8.973   2.909   2.609  0.2039  0.4248  1.0273
  126MOL0     H17007   9.013   2.841   2.452  2.6475  0.6718  1.2615
  126MOL0     H17008   9.168   2.546   2.703  0.6722  0.3213  0.0245
  126MOL0     H17009   8.325   2.809   2.603  0.3075  0.4056  0.8115
  126MOL0     H17010   8.090   2.827   2.581 -1.1483 -0.1433 -0.6309
  127MOL0     O17011   0.457   8.497   8.137  0.6078  0.3435  0.0147
  127MOL0     C17012   0.548   8.576   8.106  0.6101  0.4081 -0.0011
  127MOL0     O17013   0.545   8.708   8.113 -0.2196  0.0343  1.1290
  127MOL0     C17014   0.417   8.768   8.120  0.2734 -0.8623  0.2585
  127MOL0     C17015   0.366   8.821   8.237 -0.1710  0.6237 -0.8088
  127MOL0     C17016   0.255   8.899   8.242  0.1484 -0.0742  0.2755
  127MOL0     C17017   0.174   8.906   8.132  0.3223 -0.0414 -0.7141
  127MOL0     O17018   0.049   8.966   8.131  0.7695 -0.3227 -0.6755
  127MOL0     C17019  -0.009   8.999   8.262 -0.1670 -0.0682 -0.1102
  127MOL0     C17020  -0.136   9.081   8.252  0.4892 -0.7911 -1.1681
  127MOL0     C17021  -0.246   9.011   8.172  0.0353 -0.9947 -0.7356
  127MOL0     C17022  -0.377   9.101   8.157 -0.9158  0.9007  0.4290
  127MOL0     C17023  -0.459   9.117   8.283 -0.3981 -0.1104  0.3041
  127MOL0     C17024  -0.533   8.990   8.345 -0.1372  1.4541  0.0505
  127MOL0     C17025  -0.632   8.919   8.248 -0.5930  0.5206 -0.7277
  127MOL0     C17026  -0.682   8.785   8.303  0.6418  0.4120 -0.3752
  127MOL0     N17027  -0.792   8.797   8.402  0.3817 -0.5689 -0.2276
  127MOL0     C17028  -0.920   8.831   8.373  1.4894  0.6536  0.3347
  127MOL0     C17029  -0.978   8.850   8.494  0.8508  0.9432 -0.2311
  127MOL0     C17030  -1.121   8.876   8.517 -0.7532 -0.5566  0.9924
  127MOL0     C17031  -1.219   8.777   8.485  0.3199 -0.1082  0.7617
  127MOL0     C17032  -1.366   8.836   8.469  0.6937 -0.2596 -0.0827
  127MOL0     C17033  -1.481   8.738   8.434 -0.4655 -0.2430  0.0371
  127MOL0     O17034  -1.601   8.805   8.410 -1.2909 -0.6552  0.1507
  127MOL0     C17035  -1.692   8.832   8.508  0.5463 -0.0650 -0.1436
  127MOL0     C17036  -1.812   8.894   8.481  0.3179  0.3666  0.5265
  127MOL0     C17037  -1.907   8.924   8.578  0.6297  0.3512  0.3114
  127MOL0     C17038  -2.040   8.973   8.515  0.1466  0.0210 -0.4506
  127MOL0     C17039  -1.875   8.895   8.716 -0.4099  1.0309 -0.1099
  127MOL0     C17040  -1.972   8.917   8.824 -0.0684  0.5109 -0.9498
  127MOL0     O17041  -2.090   8.976   8.794 -0.0479 -0.2701 -0.8021
  127MOL0     C17042  -2.182   9.010   8.885  0.7846 -0.3789  0.0065
  127MOL0     C17043  -2.205   8.942   9.012 -0.2814  0.0372 -0.0631
  127MOL0     C17044  -2.293   8.997   9.100 -0.2150  0.2977  0.1827
  127MOL0     C17045  -2.362   9.111   9.078 -0.3924  0.5241 -0.9406
  127MOL0     O17046  -2.437   9.163   9.186  0.1233 -0.1032  0.3540
  127MOL0     C17047  -2.503   9.287   9.166  0.2606  0.3848 -0.6396
  127MOL0     C17048  -2.605   9.317   9.284  0.0490  0.5058  0.2777
  127MOL0     C17049  -2.702   9.431   9.261  0.4836  0.1847  0.2773
  127MOL0     C17050  -2.828   9.374   9.196 -0.5820 -0.0441  0.4734
  127MOL0     C17051  -2.922   9.487   9.151 -0.0228 -1.0295  0.3805
  127MOL0     C17052  -3.049   9.435   9.099 -0.0140 -0.0329  0.5212
  127MOL0     C17053  -3.139   9.400   9.205 -0.2587  0.5947  0.4184
  127MOL0     C17054  -3.254   9.320   9.166  0.4415  1.0498 -0.6527
  127MOL0    Cl17055  -3.322   9.358   9.008  0.2405 -0.1119 -0.4938
  127MOL0     C17056  -2.342   9.187   8.962 -0.7047  1.1701 -0.3829
  127MOL0     C17057  -2.251   9.129   8.862  0.7521 -0.2830  0.0377
  127MOL0     O17058  -1.929   8.880   8.935  0.4110  1.2344  0.6219
  127MOL0     C17059  -1.745   8.835   8.745 -0.2676 -0.6471 -0.0627
  127MOL0     C17060  -1.657   8.803   8.640  1.0462 -0.4837  0.1445
  127MOL0     N17061  -0.876   8.853   8.589  0.2775  0.1502 -0.4304
  127MOL0     N17062  -0.763   8.828   8.535 -0.0039  0.3126  0.4317
  127MOL0     C17063   0.217   8.847   8.018 -0.6403 -0.7034  0.4609
  127MOL0     C17064   0.336   8.779   8.002 -0.8668 -0.5631 -0.0439
  127MOL0     C17065   0.686   8.516   8.078  0.5288 -0.0387  0.2493
  127MOL0     C17066   0.710   8.371   8.081  0.2481 -0.1844  0.1043
  127MOL0     C17067   0.835   8.316   8.064 -0.6717 -0.7464 -0.4971
  127MOL0     C17068   0.948   8.395   8.043 -0.6667 -0.2134 -0.2429
  127MOL0     O17069   1.080   8.355   8.036  0.1963  0.5049 -0.3285
  127MOL0     C17070   1.105   8.231   7.986  0.2867 -0.3486 -0.4829
  127MOL0     C17071   1.255   8.200   7.953 -0.7663 -0.1294 -0.0496
  127MOL0     C17072   1.310   8.308   7.851  1.0444 -0.2653 -0.0460
  127MOL0     C17073   1.464   8.299   7.828  0.7142 -0.3056  0.1091
  127MOL0     C17074   1.510   8.184   7.754  1.0721  0.0072 -0.0506
  127MOL0     C17075   1.572   8.094   7.705  0.1968 -0.4897 -0.3311
  127MOL0     C17076   0.936   8.532   8.054 -0.0307 -0.5357 -1.0615
  127MOL0     C17077   0.808   8.594   8.063  0.1622  0.0626  0.3294
  127MOL0     H17078   0.433   8.816   8.322 -0.0397  0.7244 -0.9063
  127MOL0     H17079   0.246   8.955   8.334 -0.9807  1.3912 -0.6846
  127MOL0     H17080  -0.038   8.914   8.323 -1.2267  2.3389  2.9657
  127MOL0     H17081   0.056   9.075   8.305 -2.6333  2.8769 -1.2062
  127MOL0     H17082  -0.173   9.096   8.354 -0.0639  2.3772 -1.7102
  127MOL0     H17083  -0.112   9.183   8.218 -2.7743  1.3809  2.1751
  127MOL0     H17084  -0.204   8.988   8.074 -0.8577 -1.8326 -0.9286
  127MOL0     H17085  -0.270   8.914   8.216  2.1730 -3.0156 -3.6464
  127MOL0     H17086  -0.340   9.199   8.126 -0.6418  0.8958  0.7308
  127MOL0     H17087  -0.436   9.051   8.080  1.4691 -0.3721 -0.6818
  127MOL0     H17088  -0.401   9.161   8.365  1.1346  1.1717 -1.3835
  127MOL0     H17089  -0.534   9.194   8.263 -0.9375 -0.4701  0.9153
  127MOL0     H17090  -0.453   8.917   8.360 -1.3831  0.1777  0.6054
  127MOL0     H17091  -0.580   9.026   8.436  2.8765  1.2292  1.8348
  127MOL0     H17092  -0.720   8.973   8.212 -1.0374 -0.4939 -1.2029
  127MOL0     H17093  -0.580   8.912   8.152 -0.0208  2.9203 -0.6622
  127MOL0     H17094  -0.597   8.729   8.343  0.1715 -0.7637 -0.9715
  127MOL0     H17095  -0.734   8.735   8.221 -0.5673 -0.8397  1.0935
  127MOL0     H17096  -0.974   8.834   8.279 -3.4936  3.1410  2.8374
  127MOL0     H17097  -1.141   8.900   8.622 -0.8505  1.5119  0.5395
  127MOL0     H17098  -1.139   8.972   8.467 -0.0790 -0.0574  1.6944
  127MOL0     H17099  -1.223   8.711   8.573 -3.3089 -0.8371  0.2160
  127MOL0     H17100  -1.197   8.712   8.400  0.1326 -0.7855  1.2201
  127MOL0     H17101  -1.374   8.918   8.397 -0.6039  1.6850  2.1128
  127MOL0     H17102  -1.394   8.889   8.561 -0.4689 -1.0055  0.0065
  127MOL0     H17103  -1.481   8.662   8.513 -0.2985  0.7760  1.0502
  127MOL0     H17104  -1.465   8.686   8.339  0.7401 -0.5740  0.4015
  127MOL0     H17105  -1.821   8.903   8.374 -0.5301 -2.8201  0.2153
  127MOL0     H17106  -2.127   8.922   8.558  0.8137 -0.9025 -0.1764
  127MOL0     H17107  -2.054   9.079   8.537  2.1495  0.0413  1.0280
  127MOL0     H17108  -2.034   8.969   8.406 -2.5789  1.2066 -0.7128
  127MOL0     H17109  -2.152   8.854   9.047  0.3048  1.2966  2.4463
  127MOL0     H17110  -2.316   8.940   9.189 -1.4083 -0.8913 -0.8484
  127MOL0     H17111  -2.426   9.365   9.167  0.4902  0.1812  1.3820
  127MOL0     H17112  -2.553   9.290   9.069  0.1793  3.6817 -0.6191
  127MOL0     H17113  -2.672   9.234   9.306 -0.0917  0.4482 -0.3798
  127MOL0     H17114  -2.548   9.344   9.374  1.5598 -0.3580 -0.3852
  127MOL0     H17115  -2.652   9.501   9.194 -1.1679  2.7673  1.5612
  127MOL0     H17116  -2.728   9.494   9.347  0.8203 -0.5117  0.9076
  127MOL0     H17117  -2.791   9.322   9.108  1.0456 -0.3710  1.3191
  127MOL0     H17118  -2.889   9.301   9.250 -1.8482  1.3550  1.0161
  127MOL0     H17119  -2.871   9.551   9.079 -0.3233 -2.3420 -1.0569
  127MOL0     H17120  -2.936   9.555   9.236  1.1831 -1.0906  0.6521
  127MOL0     H17121  -3.086   9.522   9.046 -0.6868 -1.5010 -1.5284
  127MOL0     H17122  -3.030   9.353   9.029 -0.0253 -1.2284  1.8475
  127MOL0     H17123  -3.164   9.493   9.258  1.9888  0.8474  1.1472
  127MOL0     H17124  -3.087   9.349   9.287  2.5667  0.2257 -1.4746
  127MOL0     H17125  -3.331   9.325   9.243  2.2194 -0.1034  1.3323
  127MOL0     H17126  -3.230   9.213   9.162 -0.0396  0.9423 -0.7193
  127MOL0     H17127  -2.389   9.282   8.939 -0.6639  0.4099 -4.2871
  127MOL0     H17128  -2.246   9.183   8.768 -3.4930 -2.4702 -1.6970
  127MOL0     H17129  -1.716   8.799   8.843  3.4488  1.1878 -0.3260
  127MOL0     H17130  -1.568   8.747   8.670  0.8552 -0.2765  1.1266
  127MOL0     H17131   0.161   8.870   7.928  0.3191  1.9494  0.4343
  127MOL0     H17132   0.375   8.725   7.916  3.0827 -1.8376  2.2648
  127MOL0     H17133   0.635   8.297   8.107  0.8723 -0.7080  0.4670
  127MOL0     H17134   0.853   8.209   8.072 -1.2939 -0.7898  0.6585
  127MOL0     H17135   1.067   8.149   8.048  0.6664  0.1383  0.4091
  127MOL0     H17136   1.060   8.226   7.886 -2.9979  2.0617  0.6829
  127MOL0     H17137   1.260   8.095   7.923 -1.4357 -0.3598  0.6284
  127MOL0     H17138   1.298   8.210   8.053 -3.2640  0.9673  1.0055
  127MOL0     H17139   1.286   8.406   7.893 -0.0389 -0.4406 -0.2323
  127MOL0     H17140   1.248   8.314   7.761  0.2529  1.0074  0.5498
  127MOL0     H17141   1.506   8.302   7.929  1.2420  1.2223 -0.1279
  127MOL0     H17142   1.496   8.392   7.779 -1.8084 -0.3467 -1.7874
  127MOL0     H17143   1.625   8.009   7.667  0.0826 -0.5450 -0.3702
  127MOL0     H17144   1.026   8.593   8.053  0.0065 -0.4645  1.4784
  127MOL0     H17145   0.811   8.700   8.039 -1.4384  0.0301 -0.1344
  128MOL0     O17146   1.284   9.241   3.354  0.1051  0.4883  0.1937
  128MOL0     C17147   1.304   9.188   3.251 -0.0381  0.7753  0.2568
  128MOL0     O17148   1.230   9.207   3.139  0.2384 -0.1428  0.3411
  128MOL0     C17149   1.158   9.325   3.138  0.3238  0.4655 -0.1145
  128MOL0     C17150   1.036   9.329   3.201  0.2254  0.1231 -0.3718
  128MOL0     C17151   0.953   9.435   3.189 -0.8641 -0.4253 -0.5975
  128MOL0     C17152   1.004   9.555   3.125  0.3797 -0.1636  0.1039
  128MOL0     O17153   0.920   9.661   3.106  0.9667  0.3790  0.1189
  128MOL0     C17154   0.786   9.653   3.145  0.3544 -0.4247  0.7154
  128MOL0     C17155   0.711   9.777   3.083 -0.8981 -0.7649  0.2674
  128MOL0     C17156   0.581   9.826   3.143  0.8187  0.0375 -0.1325
  128MOL0     C17157   0.474   9.851   3.037  0.2798  0.4428  0.6008
  128MOL0     C17158   0.354   9.937   3.095 -0.7283 -0.3179  1.2837
  128MOL0     C17159   0.240   9.952   2.987 -0.1170 -0.3943  0.9819
  128MOL0     C17160   0.126  10.044   3.028 -0.1171  0.0181  0.0552
  128MOL0     C17161   0.016   9.977   3.113  0.2921 -0.7746 -0.4274
  128MOL0     N17162  -0.074   9.897   3.014  0.2537 -1.0853 -0.0445
  128MOL0     C17163  -0.158   9.973   2.926  0.0792 -0.0309 -0.6403
  128MOL0     C17164  -0.237   9.873   2.881  0.1113 -0.5534  0.3911
  128MOL0     C17165  -0.351   9.912   2.787  0.2606  0.2580 -0.2204
  128MOL0     C17166  -0.483   9.947   2.873  0.4574  0.6672 -0.2321
  128MOL0     C17167  -0.596   9.997   2.784  0.2533  0.9820  1.1899
  128MOL0     C17168  -0.711  10.031   2.879 -0.0370  0.4765 -0.6464
  128MOL0     O17169  -0.822  10.106   2.822 -0.3283  0.8124 -1.1811
  128MOL0     C17170  -0.920  10.028   2.761  0.0059 -1.0470  0.3857
  128MOL0     C17171  -0.918   9.892   2.732  0.3111  0.3636  0.1459
  128MOL0     C17172  -1.017   9.831   2.654  0.5719 -0.0401 -0.1165
  128MOL0     C17173  -1.001   9.686   2.620 -0.2699  0.6276  0.9361
  128MOL0     C17174  -1.137   9.903   2.626 -1.0155 -0.5602 -0.3789
  128MOL0     C17175  -1.270   9.850   2.571  0.5602 -0.0800  0.9155
  128MOL0     O17176  -1.375   9.937   2.532 -0.0665 -1.3336 -0.4020
  128MOL0     C17177  -1.493   9.887   2.480 -0.1325  0.8433  0.4080
  128MOL0     C17178  -1.591   9.989   2.472  0.0014  0.1257 -0.8325
  128MOL0     C17179  -1.725   9.970   2.437  0.3321  0.0156  0.0503
  128MOL0     C17180  -1.765   9.841   2.404 -0.0384 -0.3544  0.2023
  128MOL0     O17181  -1.897   9.832   2.368 -0.9154  0.7180 -0.0444
  128MOL0     C17182  -1.935   9.726   2.281 -0.1841 -0.5906 -0.7294
  128MOL0     C17183  -2.026   9.800   2.179  0.0393  0.4795  0.3954
  128MOL0     C17184  -1.958   9.910   2.104 -0.3966 -0.0988 -0.1836
  128MOL0     C17185  -2.043   9.978   1.993 -0.5314  0.1655 -1.0497
  128MOL0     C17186  -1.962  10.079   1.909  0.0771  0.5548  0.1875
  128MOL0     C17187  -1.928  10.205   1.985  0.0239  0.3197 -0.3246
  128MOL0     C17188  -1.850  10.295   1.881  0.8163 -0.0589 -0.0887
  128MOL0     C17189  -1.801  10.424   1.933 -0.1359  1.1971 -0.0135
  128MOL0    Cl17190  -1.827  10.537   1.797 -0.1115  0.0958  0.0265
  128MOL0     C17191  -1.670   9.742   2.386  0.1632  0.3126 -0.2498
  128MOL0     C17192  -1.537   9.753   2.435 -0.0834  0.1129  0.0948
  128MOL0     O17193  -1.277   9.728   2.571  0.0533  0.0876  0.4931
  128MOL0     C17194  -1.137  10.034   2.670 -0.1031  0.3698 -0.5340
  128MOL0     C17195  -1.034  10.093   2.741  0.3428 -0.1212 -0.1629
  128MOL0     N17196  -0.202   9.751   2.932  0.5555  1.0443  0.1765
  128MOL0     N17197  -0.109   9.765   3.019  0.3468 -0.2410  0.1251
  128MOL0     C17198   1.129   9.551   3.062 -0.2159 -0.4000  0.2795
  128MOL0     C17199   1.207   9.431   3.064  0.3267  0.2109 -0.8053
  128MOL0     C17200   1.413   9.099   3.227 -0.1721 -1.1039  0.1651
  128MOL0     C17201   1.507   9.087   3.328 -1.0831  0.0761 -0.0958
  128MOL0     C17202   1.618   9.000   3.310  0.3483 -0.7459 -0.5032
  128MOL0     C17203   1.637   8.924   3.186 -0.6022  0.2064 -0.3817
  128MOL0     O17204   1.733   8.829   3.162  0.2848  0.5496  0.3260
  128MOL0     C17205   1.827   8.778   3.262 -0.0607 -0.5595  0.4568
  128MOL0     C17206   1.922   8.690   3.190 -0.2049  0.7913  0.3452
  128MOL0     C17207   2.033   8.649   3.295  0.4167  0.4079 -0.0042
  128MOL0     C17208   2.121   8.540   3.238  0.5195  0.1885  0.0098
  128MOL0     C17209   2.208   8.610   3.135  0.9486 -0.1582 -0.2295
  128MOL0     C17210   2.282   8.673   3.058  0.6418 -0.8685  0.7367
  128MOL0     C17211   1.542   8.937   3.092 -0.3845  0.8647 -0.1220
  128MOL0     C17212   1.423   9.013   3.110 -0.6267 -0.2704 -0.8379
  128MOL0     H17213   0.996   9.243   3.253  0.1444  1.3878  1.8140
  128MOL0     H17214   0.869   9.437   3.258 -0.8576  1.3573 -0.5804
  128MOL0     H17215   0.742   9.557   3.116  4.2604 -2.4582  0.7100
  128MOL0     H17216   0.786   9.656   3.255 -3.2171  1.6090  0.7851
  128MOL0     H17217   0.775   9.865   3.092 -1.1504 -0.6235  0.6673
  128MOL0     H17218   0.702   9.764   2.974 -1.6306 -1.2013  0.3728
  128MOL0     H17219   0.555   9.754   3.221  1.7877  1.9029  2.0005
  128MOL0     H17220   0.599   9.919   3.196  2.3040 -0.5490  0.4398
  128MOL0     H17221   0.522   9.901   2.953 -3.0110 -2.2085 -3.2296
  128MOL0     H17222   0.437   9.753   3.005  0.0168  0.1607  1.6984
  128MOL0     H17223   0.339   9.864   3.176 -0.3956  1.4219  2.9873
  128MOL0     H17224   0.389  10.033   3.134 -2.4569  0.6269  0.6049
  128MOL0     H17225   0.280   9.996   2.895  0.1129 -3.7160 -0.6585
  128MOL0     H17226   0.210   9.853   2.951  2.8379 -1.2775  0.6948
  128MOL0     H17227   0.167  10.127   3.086 -0.9532  3.4372 -3.7936
  128MOL0     H17228   0.078  10.096   2.944  0.2694  2.1888  1.0957
  128MOL0     H17229  -0.041  10.053   3.167 -1.3333 -1.0533 -1.6869
  128MOL0     H17230   0.066   9.913   3.187  0.9311  0.8573  0.6110
  128MOL0     H17231  -0.151  10.079   2.904  2.0097  0.0064 -0.0763
  128MOL0     H17232  -0.324  10.004   2.734 -2.3614  0.4129 -1.4146
  128MOL0     H17233  -0.372   9.827   2.721  1.6067  0.6450 -1.1855
  128MOL0     H17234  -0.463  10.016   2.955  2.6232  0.7251 -0.7501
  128MOL0     H17235  -0.520   9.850   2.908  0.5253  0.6182 -0.2963
  128MOL0     H17236  -0.626   9.930   2.703  1.6911  2.4584 -0.6140
  128MOL0     H17237  -0.559  10.090   2.742 -0.9844  0.6092 -0.8914
  128MOL0     H17238  -0.675  10.094   2.960  1.5680 -0.3759 -0.6648
  128MOL0     H17239  -0.747   9.938   2.924 -0.7031  0.4493 -1.2031
  128MOL0     H17240  -0.840   9.824   2.764 -0.3900 -0.8313 -0.6471
  128MOL0     H17241  -1.032   9.683   2.515  0.2589  4.2061  0.5317
  128MOL0     H17242  -0.897   9.651   2.611 -1.6709 -4.6235  1.9575
  128MOL0     H17243  -1.065   9.621   2.679  0.8154 -4.1215 -2.5601
  128MOL0     H17244  -1.559  10.088   2.504  1.1155  0.5057 -2.9466
  128MOL0     H17245  -1.796  10.051   2.434 -0.8305 -0.9826  0.0359
  128MOL0     H17246  -1.851   9.687   2.223  1.2025 -0.1181  0.8934
  128MOL0     H17247  -1.984   9.646   2.337  0.3050 -0.7516 -0.5256
  128MOL0     H17248  -2.052   9.727   2.101  3.5962  1.1775 -1.6419
  128MOL0     H17249  -2.112   9.840   2.234  0.5668 -0.5278  2.0118
  128MOL0     H17250  -1.873   9.870   2.050 -0.6988  0.3064 -0.9806
  128MOL0     H17251  -1.925   9.979   2.183  1.3685 -1.3402  0.2258
  128MOL0     H17252  -2.079   9.904   1.921  0.9534 -0.3574 -1.2828
  128MOL0     H17253  -2.128  10.020   2.047 -2.2793 -2.8852 -1.1889
  128MOL0     H17254  -2.019  10.099   1.818  0.7855  0.2332 -0.3330
  128MOL0     H17255  -1.873  10.029   1.870 -0.6795 -0.2872 -0.5024
  128MOL0     H17256  -2.017  10.258   2.019 -0.0658 -0.2674  0.3951
  128MOL0     H17257  -1.869  10.179   2.073 -2.1610  1.8401  1.7121
  128MOL0     H17258  -1.915  10.315   1.796  0.2617  1.9426  0.7427
  128MOL0     H17259  -1.764  10.233   1.852  2.3245  1.5985  0.6442
  128MOL0     H17260  -1.696  10.426   1.961 -0.1703 -1.5375  0.5851
  128MOL0     H17261  -1.872  10.441   2.015  0.6512  0.1522  0.9086
  128MOL0     H17262  -1.710   9.646   2.355  0.3635  0.0752  0.2165
  128MOL0     H17263  -1.471   9.667   2.422  1.1440  1.2318 -1.2619
  128MOL0     H17264  -1.223  10.096   2.646 -1.1344 -1.3026 -1.3397
  128MOL0     H17265  -1.040  10.197   2.775 -0.6046 -1.1880  3.3651
  128MOL0     H17266   1.171   9.634   3.007  1.7262 -0.4413  1.5912
  128MOL0     H17267   1.305   9.413   3.022  1.2448 -0.9782  1.6200
  128MOL0     H17268   1.505   9.146   3.419  2.6997  0.5496 -0.1736
  128MOL0     H17269   1.700   8.999   3.381  0.3208  3.0969 -0.2220
  128MOL0     H17270   1.878   8.861   3.313 -0.5768  0.0028  0.0798
  128MOL0     H17271   1.782   8.715   3.340  2.4584 -1.9496  0.8962
  128MOL0     H17272   1.964   8.750   3.109  1.8272 -0.5203  0.3474
  128MOL0     H17273   1.867   8.605   3.148 -1.1669 -0.0856  3.1686
  128MOL0     H17274   1.998   8.611   3.391  0.2602 -1.2218 -0.6795
  128MOL0     H17275   2.097   8.733   3.324  0.9091 -0.2055  0.7225
  128MOL0     H17276   2.058   8.464   3.192  4.9747 -4.0477  0.1407
  128MOL0     H17277   2.178   8.488   3.315 -0.9952 -1.8836 -0.1780
  128MOL0     H17278   2.348   8.743   3.012 -2.4176 -0.3473 -3.4336
  128MOL0     H17279   1.565   8.865   3.014  3.0408  2.0549 -0.3726
  128MOL0     H17280   1.345   9.008   3.034 -0.5121 -0.7156 -0.9282
  129MOL0     O17281   7.608   4.163   1.199  0.6648  0.4114 -0.0283
  129MOL0     C17282   7.677   4.153   1.302 -0.8900 -0.0337  0.3275
  129MOL0     O17283   7.697   4.041   1.374  0.2810 -0.6111 -0.3764
  129MOL0     C17284   7.607   3.938   1.355 -0.7088 -0.4522  1.1547
  129MOL0     C17285   7.613   3.844   1.253 -0.2607 -0.5683 -0.3836
  129MOL0     C17286   7.516   3.746   1.242 -0.2513  0.5183  0.2346
  129MOL0     C17287   7.416   3.728   1.343  0.2578  0.5796  0.0213
  129MOL0     O17288   7.314   3.629   1.329 -0.0315  0.4265 -0.3171
  129MOL0     C17289   7.247   3.659   1.209 -0.2091  0.2242  1.0658
  129MOL0     C17290   7.103   3.618   1.230  0.3355  0.7343 -0.0434
  129MOL0     C17291   7.037   3.691   1.352  1.0505 -1.1356  0.3483
  129MOL0     C17292   6.991   3.829   1.306  0.5943  1.1256 -0.0276
  129MOL0     C17293   6.966   3.931   1.418 -0.1485 -0.3469  0.4008
  129MOL0     C17294   6.862   3.894   1.535 -0.3340 -0.8146 -0.9023
  129MOL0     C17295   6.710   3.879   1.496 -0.3167  0.5609 -0.0064
  129MOL0     C17296   6.642   4.012   1.437 -0.0671  0.3643  0.5257
  129MOL0     N17297   6.504   3.987   1.435  0.3906 -0.1006 -0.0011
  129MOL0     C17298   6.415   4.015   1.544 -1.0153 -0.2907  0.1382
  129MOL0     C17299   6.292   4.002   1.489  0.3244  0.5044 -0.2670
  129MOL0     C17300   6.163   4.017   1.571  0.1774  0.0023  0.9284
  129MOL0     C17301   6.033   4.004   1.483  0.1635 -0.6509 -0.6891
  129MOL0     C17302   5.901   4.029   1.558 -0.6015 -0.6151  0.6182
  129MOL0     C17303   5.784   4.026   1.449 -1.3054  0.3308  0.4918
  129MOL0     O17304   5.657   4.046   1.513 -0.3105  0.4730 -0.4362
  129MOL0     C17305   5.545   4.048   1.442  0.8455  0.9069  0.8011
  129MOL0     C17306   5.528   4.039   1.306  0.0567 -0.2801 -0.1619
  129MOL0     C17307   5.408   4.052   1.242 -0.5823 -0.4559  0.6111
  129MOL0     C17308   5.415   4.047   1.091  0.0983 -0.4781  0.4619
  129MOL0     C17309   5.289   4.067   1.316 -0.8938  0.2647  0.4115
  129MOL0     C17310   5.149   4.085   1.255  0.1911  0.0925 -0.5618
  129MOL0     O17311   5.055   4.130   1.339  0.6854  0.0091 -0.2691
  129MOL0     C17312   4.920   4.096   1.306  0.7351 -0.0313 -0.0965
  129MOL0     C17313   4.841   4.157   1.199 -1.0826 -0.5803  0.3089
  129MOL0     C17314   4.714   4.126   1.171 -0.2341  0.7570 -0.5166
  129MOL0     C17315   4.650   4.022   1.243  0.4214  0.1514  0.1645
  129MOL0     O17316   4.517   3.978   1.237  0.1755 -0.2071  0.2257
  129MOL0     C17317   4.426   4.045   1.152  0.5873 -0.1265  0.5563
  129MOL0     C17318   4.274   4.041   1.195 -0.1301 -0.4068  0.0108
  129MOL0     C17319   4.204   3.903   1.203  0.0262 -0.2334 -0.0363
  129MOL0     C17320   4.183   3.838   1.072 -0.5509 -0.1571 -0.6694
  129MOL0     C17321   4.054   3.741   1.084 -0.1488  0.2529  0.0710
  129MOL0     C17322   3.972   3.748   0.950  0.0496  0.7488 -0.1253
  129MOL0     C17323   3.904   3.885   0.941 -0.0891  0.1925 -0.2611
  129MOL0     C17324   3.834   3.895   0.806  0.1546 -0.7601  0.6722
  129MOL0    Cl17325   3.711   3.764   0.778  0.3140 -0.1354 -0.4044
  129MOL0     C17326   4.718   3.961   1.347  0.0714 -0.3919  0.3916
  129MOL0     C17327   4.848   4.000   1.381  0.4065 -0.6712 -0.5609
  129MOL0     O17328   5.129   4.060   1.131  0.0445  0.3313  0.2612
  129MOL0     C17329   5.297   4.073   1.459  0.9343 -0.1379  1.5961
  129MOL0     C17330   5.424   4.055   1.516 -0.5763  0.7701 -0.5337
  129MOL0     N17331   6.314   3.972   1.358  0.3481  0.2221  0.0885
  129MOL0     N17332   6.434   3.960   1.321  0.3195  0.1854  0.0153
  129MOL0     C17333   7.423   3.812   1.454 -0.6032 -0.2296 -0.1016
  129MOL0     C17334   7.513   3.914   1.460 -0.0938 -0.2813  0.0441
  129MOL0     C17335   7.748   4.267   1.340 -0.0125 -0.3644 -0.4213
  129MOL0     C17336   7.727   4.393   1.284  0.0188 -0.0801 -0.3596
  129MOL0     C17337   7.784   4.512   1.322 -0.3439 -0.3463  0.3159
  129MOL0     C17338   7.877   4.515   1.426  0.0763  0.2122  0.1541
  129MOL0     O17339   7.929   4.635   1.448  0.0595 -0.3238  0.0223
  129MOL0     C17340   8.052   4.641   1.528 -0.2659  0.4460  0.6936
  129MOL0     C17341   8.117   4.772   1.486 -0.4129 -0.0858 -0.4069
  129MOL0     C17342   8.246   4.819   1.560  0.6954 -0.4426  0.4255
  129MOL0     C17343   8.342   4.709   1.597 -0.6271 -0.3492  0.1594
  129MOL0     C17344   8.446   4.743   1.691 -0.0275  0.9278 -0.0890
  129MOL0     C17345   8.503   4.783   1.784  0.1728 -0.9499  0.0468
  129MOL0     C17346   7.896   4.392   1.493 -0.5060  0.1953  0.4388
  129MOL0     C17347   7.838   4.269   1.452 -0.3531  0.4282 -0.1121
  129MOL0     H17348   7.692   3.836   1.179 -0.3000 -2.3169 -0.2904
  129MOL0     H17349   7.509   3.670   1.164 -2.2521 -0.9212  1.6909
  129MOL0     H17350   7.251   3.764   1.178  0.7226  0.2088  1.0898
  129MOL0     H17351   7.289   3.600   1.127  0.9217 -2.5404  3.4627
  129MOL0     H17352   7.060   3.654   1.136  2.6177  0.7759 -1.1451
  129MOL0     H17353   7.092   3.509   1.234  2.4806  0.3578 -1.9572
  129MOL0     H17354   6.953   3.639   1.400  0.7574 -1.3968 -0.4334
  129MOL0     H17355   7.105   3.719   1.433 -0.0243  3.8643 -0.1507
  129MOL0     H17356   7.068   3.878   1.245  1.0755 -0.5316 -0.8061
  129MOL0     H17357   6.897   3.823   1.250  0.5405 -0.0688  0.1722
  129MOL0     H17358   7.060   3.951   1.471  0.5580  1.2621 -1.3633
  129MOL0     H17359   6.938   4.030   1.382  1.8940  0.6960  1.5101
  129MOL0     H17360   6.899   3.801   1.578 -3.5734 -1.0632  1.8019
  129MOL0     H17361   6.870   3.972   1.612  2.6647 -3.6352  1.9493
  129MOL0     H17362   6.698   3.801   1.420  0.9836  2.2397 -2.0426
  129MOL0     H17363   6.650   3.846   1.581  3.0811 -0.4152  2.1829
  129MOL0     H17364   6.668   4.045   1.336 -0.2487 -0.1631  0.3028
  129MOL0     H17365   6.661   4.092   1.509 -0.4849  0.1631  0.8629
  129MOL0     H17366   6.445   4.040   1.646  0.8953  1.5944 -0.8176
  129MOL0     H17367   6.159   3.948   1.656 -0.4256 -3.2905 -1.5488
  129MOL0     H17368   6.172   4.120   1.606 -1.2858  0.2622  0.6075
  129MOL0     H17369   6.028   3.905   1.439  1.3979 -1.0524  0.0103
  129MOL0     H17370   6.040   4.081   1.406  1.4055  0.1976  0.2189
  129MOL0     H17371   5.905   4.130   1.600 -0.3328 -0.6784  0.7451
  129MOL0     H17372   5.875   3.958   1.638 -2.9152 -1.1526 -0.5207
  129MOL0     H17373   5.782   3.931   1.393 -1.5870  1.0963 -0.8424
  129MOL0     H17374   5.800   4.112   1.384 -0.4105 -1.8999 -2.5104
  129MOL0     H17375   5.615   4.013   1.247  1.1524  1.6280  0.5179
  129MOL0     H17376   5.520   4.050   1.060  0.0999  0.9871  0.5315
  129MOL0     H17377   5.372   3.962   1.038  2.6425 -1.2650 -0.4730
  129MOL0     H17378   5.355   4.134   1.062 -0.0038 -1.2519 -1.8399
  129MOL0     H17379   4.912   4.227   1.157  0.5838 -2.0733  0.5038
  129MOL0     H17380   4.663   4.178   1.090 -1.4163  0.1613 -0.1779
  129MOL0     H17381   4.446   4.152   1.146 -1.6478  0.3106  0.1313
  129MOL0     H17382   4.447   4.000   1.055  2.1001 -2.3416  1.8228
  129MOL0     H17383   4.268   4.076   1.298 -0.6639 -1.0197  0.1935
  129MOL0     H17384   4.209   4.106   1.136  2.2644  1.7468 -0.4275
  129MOL0     H17385   4.112   3.913   1.262  0.3805  0.9255  0.3602
  129MOL0     H17386   4.260   3.832   1.265  0.0316  1.7629  2.4109
  129MOL0     H17387   4.164   3.922   1.006 -1.4464  1.2700  1.3126
  129MOL0     H17388   4.275   3.782   1.052  1.9510  2.8341  1.5769
  129MOL0     H17389   3.994   3.762   1.173  0.2628  3.1266 -0.2494
  129MOL0     H17390   4.099   3.642   1.094 -1.0448 -0.2409 -0.6253
  129MOL0     H17391   4.035   3.720   0.866 -0.3648  1.3710 -0.6600
  129MOL0     H17392   3.895   3.671   0.953 -0.4397  1.2448  2.4728
  129MOL0     H17393   3.977   3.966   0.950  1.6800 -1.4820  1.0499
  129MOL0     H17394   3.826   3.890   1.018 -0.8747  0.6310 -1.0548
  129MOL0     H17395   3.914   3.881   0.732 -2.0689 -3.8654 -1.4247
  129MOL0     H17396   3.779   3.989   0.794 -3.0152 -2.6600 -1.0857
  129MOL0     H17397   4.663   3.906   1.422  1.1890 -0.3676  1.2507
  129MOL0     H17398   4.896   3.951   1.466  0.0055  1.9212  1.2839
  129MOL0     H17399   5.209   4.076   1.522  0.2220  0.2369  0.6097
  129MOL0     H17400   5.422   4.052   1.625 -1.8502  2.4432 -0.4770
  129MOL0     H17401   7.339   3.797   1.522 -0.4658 -3.2307 -0.4378
  129MOL0     H17402   7.509   3.971   1.552  1.2361 -0.5686  0.3000
  129MOL0     H17403   7.662   4.387   1.198  2.2578 -2.8478 -2.0377
  129MOL0     H17404   7.761   4.611   1.283  0.9554 -0.4404 -0.7413
  129MOL0     H17405   8.032   4.643   1.636  1.1717  1.0538  0.9674
  129MOL0     H17406   8.118   4.556   1.508 -0.3432  0.5725 -0.1045
  129MOL0     H17407   8.035   4.844   1.498  0.0016 -0.0158  3.3425
  129MOL0     H17408   8.146   4.766   1.381  1.0627 -1.1671  0.0400
  129MOL0     H17409   8.207   4.875   1.646 -0.4606 -0.7500  0.1184
  129MOL0     H17410   8.310   4.885   1.500  0.0886 -1.6408 -1.6376
  129MOL0     H17411   8.389   4.669   1.506  0.7656  1.9614 -0.2059
  129MOL0     H17412   8.282   4.629   1.641 -0.2966 -2.6260 -3.1227
  129MOL0     H17413   8.562   4.815   1.868 -1.4835  0.0152  0.8941
  129MOL0     H17414   7.961   4.393   1.579 -0.7878  0.1952  0.6513
  129MOL0     H17415   7.869   4.185   1.513  0.1031  0.3098 -0.5086
  130MOL0     O17416   4.055  10.661   7.220 -0.1243 -0.1575  0.3179
  130MOL0     C17417   4.118  10.763   7.251  0.1157  0.7268 -0.4629
  130MOL0     O17418   4.084  10.900   7.240 -0.3905 -0.0261 -0.5318
  130MOL0     C17419   3.953  10.923   7.199 -0.0967 -0.9595  0.1423
  130MOL0     C17420   3.842  10.871   7.268  0.0772  0.1836  0.0065
  130MOL0     C17421   3.711  10.910   7.235 -0.0802 -0.5924  1.2258
  130MOL0     C17422   3.687  11.007   7.137 -0.7176 -0.0385  0.2263
  130MOL0     O17423   3.564  11.059   7.131  0.1961 -0.0328 -1.0147
  130MOL0     C17424   3.514  11.082   6.997  0.3735  0.4258  0.3791
  130MOL0     C17425   3.377  11.023   6.983  0.9470 -0.6653  0.6330
  130MOL0     C17426   3.277  11.135   7.005 -0.5388  0.1577  0.5661
  130MOL0     C17427   3.140  11.077   6.965 -0.5233  0.4238 -0.1684
  130MOL0     C17428   3.025  11.175   6.973  0.3479 -0.7618  0.1070
  130MOL0     C17429   2.893  11.103   6.997  0.3479 -0.4772  0.0373
  130MOL0     C17430   2.850  11.017   6.873 -0.0461  0.2847 -0.2987
  130MOL0     C17431   2.731  10.929   6.903  0.1846 -0.3571 -0.1848
  130MOL0     N17432   2.622  11.009   6.949  0.3124 -0.1102 -0.6384
  130MOL0     C17433   2.551  11.099   6.881  0.1478 -0.3301 -0.9312
  130MOL0     C17434   2.473  11.169   6.970 -0.4590  0.4363 -0.2359
  130MOL0     C17435   2.399  11.298   6.953  0.2111  0.3270 -0.7292
  130MOL0     C17436   2.496  11.406   6.913 -0.3311 -0.7448  0.6706
  130MOL0     C17437   2.568  11.470   7.026  0.0012 -0.6636 -0.2258
  130MOL0     C17438   2.668  11.568   6.972  0.3092 -0.7363  0.0466
  130MOL0     O17439   2.772  11.490   6.901 -0.2134  0.0222 -0.5919
  130MOL0     C17440   2.886  11.571   6.858 -0.0294 -0.4103 -0.2842
  130MOL0     C17441   2.870  11.668   6.760  0.2972 -0.4661 -0.3470
  130MOL0     C17442   2.981  11.748   6.717 -0.0242  0.1473 -0.1570
  130MOL0     C17443   2.957  11.851   6.609 -0.0589  0.5545 -0.4219
  130MOL0     C17444   3.101  11.736   6.784  0.1608 -0.5052 -0.0068
  130MOL0     C17445   3.222  11.825   6.754 -0.6823  0.7303 -0.9462
  130MOL0     O17446   3.206  11.952   6.704  0.4422 -0.0713  0.3144
  130MOL0     C17447   3.304  12.006   6.636 -1.0078 -0.8216  0.2053
  130MOL0     C17448   3.315  11.997   6.500  0.0135  0.1310 -0.1352
  130MOL0     C17449   3.421  12.040   6.414 -1.0694 -0.4793  0.5763
  130MOL0     C17450   3.527  12.108   6.489  0.9917 -0.0271 -0.5878
  130MOL0     O17451   3.628  12.169   6.435  0.2903  0.6326 -0.1940
  130MOL0     C17452   3.629  12.188   6.299 -0.6616 -0.6354 -0.1756
  130MOL0     C17453   3.751  12.270   6.246  0.0303 -0.7176  0.0328
  130MOL0     C17454   3.708  12.377   6.144 -0.0552  0.6034  0.5963
  130MOL0     C17455   3.824  12.406   6.044  0.2394  0.4071 -0.0723
  130MOL0     C17456   3.957  12.459   6.102 -0.1539  0.7191 -0.3341
  130MOL0     C17457   4.050  12.488   5.990  0.2448 -1.7549 -0.1488
  130MOL0     C17458   3.999  12.591   5.894  0.1745 -0.8025 -0.1182
  130MOL0     C17459   4.108  12.663   5.804  0.3996 -0.2616 -0.0982
  130MOL0    Cl17460   4.195  12.536   5.717  0.4293 -0.0398 -0.1574
  130MOL0     C17461   3.522  12.115   6.629  0.2311 -0.7683 -0.2268
  130MOL0     C17462   3.415  12.068   6.699  0.4378 -0.1771 -0.3940
  130MOL0     O17463   3.334  11.773   6.782  0.1900 -0.3581  0.8106
  130MOL0     C17464   3.116  11.640   6.877  0.0289  1.2286  0.0373
  130MOL0     C17465   3.010  11.558   6.918 -0.0264 -0.5143  0.1180
  130MOL0     N17466   2.485  11.107   7.097  0.0149  0.8505  0.2765
  130MOL0     N17467   2.574  11.008   7.076 -0.0652 -0.5641  0.4947
  130MOL0     C17468   3.799  11.061   7.071  0.3253 -0.2070 -0.1140
  130MOL0     C17469   3.926  11.005   7.090 -0.7599  0.2211  0.3110
  130MOL0     C17470   4.261  10.736   7.291  0.2471  0.6742  0.3284
  130MOL0     C17471   4.308  10.801   7.406  0.4065 -0.5916  0.9960
  130MOL0     C17472   4.439  10.774   7.443 -0.4249 -0.5476  0.3408
  130MOL0     C17473   4.527  10.692   7.373 -0.6770 -0.1503  0.1246
  130MOL0     O17474   4.636  10.656   7.453  0.3588  0.1559  0.1776
  130MOL0     C17475   4.738  10.584   7.385 -0.1006  0.3564 -0.0630
  130MOL0     C17476   4.719  10.439   7.381 -0.8482  0.4488  0.1893
  130MOL0     C17477   4.811  10.354   7.289 -0.7787 -0.5373 -0.0273
  130MOL0     C17478   4.801  10.211   7.330 -0.2979 -0.0267 -0.3010
  130MOL0     C17479   4.674  10.151   7.308 -0.0195 -0.2219 -0.6267
  130MOL0     C17480   4.563  10.106   7.286 -0.2503  0.2458 -0.5617
  130MOL0     C17481   4.480  10.633   7.259  1.4229  1.0884 -0.9868
  130MOL0     C17482   4.345  10.646   7.222 -0.6922  0.8998  0.7104
  130MOL0     H17483   3.859  10.819   7.362 -0.9639 -0.8137 -0.3361
  130MOL0     H17484   3.630  10.862   7.289 -1.6586 -1.0764 -1.3949
  130MOL0     H17485   3.511  11.188   6.971  3.5839  0.3250 -0.8166
  130MOL0     H17486   3.585  11.045   6.923  0.6705  1.1276  0.3158
  130MOL0     H17487   3.363  10.980   6.883 -0.2742 -0.1270  0.5534
  130MOL0     H17488   3.373  10.936   7.050  1.8514 -2.8779 -1.9989
  130MOL0     H17489   3.273  11.171   7.109  0.6229 -1.1592  1.0914
  130MOL0     H17490   3.299  11.226   6.948  3.5761  0.1267  1.7990
  130MOL0     H17491   3.139  11.031   6.866  0.3891  0.0952 -0.0377
  130MOL0     H17492   3.131  10.996   7.038 -1.2660 -0.6595 -1.4125
  130MOL0     H17493   3.043  11.242   7.057  0.2723 -2.8722  1.9103
  130MOL0     H17494   3.029  11.238   6.884 -1.2415 -0.1056  0.4767
  130MOL0     H17495   2.901  11.035   7.082 -2.6101 -0.2420  0.6219
  130MOL0     H17496   2.815  11.176   7.018  1.2831  0.5780 -0.0944
  130MOL0     H17497   2.810  11.086   6.798  0.7938  0.9595 -0.1415
  130MOL0     H17498   2.925  10.948   6.833 -1.6685 -3.1193  1.9902
  130MOL0     H17499   2.754  10.856   6.982 -2.3858 -1.9836 -0.8225
  130MOL0     H17500   2.695  10.879   6.813  0.4025 -1.7004  0.4370
  130MOL0     H17501   2.575  11.134   6.781  2.8687  2.1058  0.3921
  130MOL0     H17502   2.324  11.291   6.874 -3.2713  1.4387  2.2397
  130MOL0     H17503   2.343  11.331   7.041  0.9435  1.7102 -0.7538
  130MOL0     H17504   2.444  11.483   6.856 -0.5673 -2.9520 -2.3210
  130MOL0     H17505   2.567  11.358   6.845  0.3826  1.3380 -0.1223
  130MOL0     H17506   2.620  11.397   7.088  0.6834  0.0252  0.0288
  130MOL0     H17507   2.497  11.525   7.089  1.0184  0.5089 -0.0710
  130MOL0     H17508   2.713  11.627   7.051  1.2080  1.4520 -1.9690
  130MOL0     H17509   2.615  11.631   6.899  1.4188 -2.1487 -2.1104
  130MOL0     H17510   2.771  11.671   6.714  0.1629 -3.4909 -0.4912
  130MOL0     H17511   3.022  11.839   6.522 -0.3500  1.1377 -0.7245
  130MOL0     H17512   2.859  11.860   6.561 -0.4854 -0.3101  0.2612
  130MOL0     H17513   2.964  11.952   6.651  1.4759 -0.0671  0.8985
  130MOL0     H17514   3.236  11.932   6.463 -0.1064 -0.8922  1.7560
  130MOL0     H17515   3.423  12.023   6.307  0.6624 -0.2214  0.5462
  130MOL0     H17516   3.616  12.097   6.240 -1.1208 -1.5415  1.2571
  130MOL0     H17517   3.545  12.243   6.256  1.3376  0.3837 -3.0779
  130MOL0     H17518   3.788  12.326   6.332  0.6026 -0.6258 -0.2665
  130MOL0     H17519   3.828  12.202   6.208 -0.1324 -1.7279  1.4458
  130MOL0     H17520   3.690  12.472   6.195  0.1185  0.4226  1.0006
  130MOL0     H17521   3.624  12.351   6.080  1.0080 -2.9021  0.4146
  130MOL0     H17522   3.862  12.315   5.997 -0.2594 -1.2560  2.4911
  130MOL0     H17523   3.783  12.475   5.969  0.7775 -0.4199 -1.1496
  130MOL0     H17524   4.009  12.384   6.163  1.3475  2.3237  0.4359
  130MOL0     H17525   3.941  12.548   6.163  3.0681  0.2363  1.4422
  130MOL0     H17526   4.134  12.530   6.047 -2.2654  2.9537  0.5547
  130MOL0     H17527   4.082  12.400   5.933  2.4085 -0.0024 -1.8378
  130MOL0     H17528   3.943  12.671   5.942 -2.2045 -1.3640 -1.7694
  130MOL0     H17529   3.931  12.545   5.822 -0.2987 -0.2482 -0.0385
  130MOL0     H17530   4.171  12.716   5.877  0.8557 -2.5109  1.2332
  130MOL0     H17531   4.057  12.736   5.740  0.5637 -1.6722 -1.8792
  130MOL0     H17532   3.603  12.159   6.687  3.0625 -3.5846 -1.7038
  130MOL0     H17533   3.428  12.061   6.806 -0.9636  2.0548 -0.0165
  130MOL0     H17534   3.213  11.617   6.921 -1.7747 -0.2539  3.6749
  130MOL0     H17535   3.025  11.491   7.003 -0.5973  1.4520  1.8554
  130MOL0     H17536   3.782  11.129   6.988  0.5140 -0.4722 -0.3700
  130MOL0     H17537   4.016  11.034   7.037 -1.3077 -0.2971 -0.9338
  130MOL0     H17538   4.240  10.871   7.454 -1.0690  0.1921 -2.0204
  130MOL0     H17539   4.475  10.825   7.532  1.8965 -1.3454 -0.0742
  130MOL0     H17540   4.745  10.616   7.281  0.5354  0.5940  0.0493
  130MOL0     H17541   4.829  10.610   7.441 -0.2083  2.7040 -0.8448
  130MOL0     H17542   4.615  10.424   7.352 -1.2991  1.5754  1.1283
  130MOL0     H17543   4.727  10.401   7.484 -2.4313  1.2800  0.6587
  130MOL0     H17544   4.912  10.390   7.309 -0.3030  0.5402 -3.6301
  130MOL0     H17545   4.806  10.361   7.180  0.8991 -1.9499 -0.2337
  130MOL0     H17546   4.848  10.201   7.429  2.3880 -0.8730 -1.5693
  130MOL0     H17547   4.877  10.157   7.274  0.7675  1.7405 -0.6259
  130MOL0     H17548   4.467  10.070   7.256 -0.9729  2.6455 -1.3241
  130MOL0     H17549   4.536  10.569   7.192 -0.7196 -2.5193  0.3737
  130MOL0     H17550   4.311  10.590   7.135 -1.2494  1.6472  0.4352
  131MOL0     O17551   0.039   4.939   0.240  0.1582 -0.5364 -0.8622
  131MOL0     C17552   0.112   5.034   0.208 -0.3257 -0.2537  0.4172
  131MOL0     O17553   0.077   5.163   0.188  0.1728 -0.8303 -0.1555
  131MOL0     C17554  -0.056   5.209   0.163  0.1977  0.2948  0.3133
  131MOL0     C17555  -0.079   5.346   0.183  0.4983 -0.0741 -0.3483
  131MOL0     C17556  -0.212   5.397   0.165 -0.0100 -0.1785 -0.9146
  131MOL0     C17557  -0.309   5.316   0.120  0.6495 -0.2699 -0.1362
  131MOL0     O17558  -0.434   5.371   0.101 -0.3847 -0.1651 -0.4051
  131MOL0     C17559  -0.508   5.320  -0.006 -0.3200 -0.2958 -0.6629
  131MOL0     C17560  -0.647   5.380  -0.006  0.1200 -0.3533  0.0984
  131MOL0     C17561  -0.744   5.288  -0.072  0.1652  0.6429  0.9143
  131MOL0     C17562  -0.889   5.342  -0.049  0.4436  0.1655 -0.0029
  131MOL0     C17563  -0.991   5.266  -0.136 -0.7866 -0.2224  0.6343
  131MOL0     C17564  -1.133   5.306  -0.084 -0.3816 -0.8198 -0.8374
  131MOL0     C17565  -1.253   5.263  -0.171 -0.5157 -0.4352  0.2914
  131MOL0     C17566  -1.389   5.262  -0.111 -0.1234  0.4315  0.3723
  131MOL0     N17567  -1.487   5.255  -0.219 -0.0103  0.2738 -0.0387
  131MOL0     C17568  -1.533   5.143  -0.276  0.0207  0.2994  0.0030
  131MOL0     C17569  -1.648   5.184  -0.335 -0.4043  0.3599  0.0509
  131MOL0     C17570  -1.756   5.096  -0.398 -0.4508  0.9903 -0.1933
  131MOL0     C17571  -1.878   5.182  -0.426 -0.4353 -0.1945 -0.2641
  131MOL0     C17572  -1.974   5.104  -0.520  0.3036 -0.0005  0.1592
  131MOL0     C17573  -2.115   5.172  -0.510 -0.8230 -0.4386 -0.5316
  131MOL0     O17574  -2.196   5.104  -0.608 -0.0930  0.2193  0.5592
  131MOL0     C17575  -2.328   5.143  -0.604  0.9073  0.5079  0.2497
  131MOL0     C17576  -2.382   5.253  -0.530 -0.3365 -0.1072  0.5350
  131MOL0     C17577  -2.522   5.279  -0.512  0.4452  0.8322 -0.2709
  131MOL0     C17578  -2.563   5.394  -0.428  0.2634 -0.4826 -0.2484
  131MOL0     C17579  -2.609   5.189  -0.573 -0.1797 -0.2218  0.2413
  131MOL0     C17580  -2.755   5.204  -0.555  0.7966  0.1947 -1.0287
  131MOL0     O17581  -2.838   5.154  -0.661 -0.1094  0.4338 -0.3802
  131MOL0     C17582  -2.972   5.131  -0.641  0.1924 -1.0337  0.5120
  131MOL0     C17583  -3.021   5.013  -0.590  0.4837 -0.7349  0.2545
  131MOL0     C17584  -3.161   5.005  -0.579  0.3023 -1.2027  0.1556
  131MOL0     C17585  -3.255   5.105  -0.620  0.5729 -0.5304 -0.6326
  131MOL0     O17586  -3.390   5.078  -0.598 -0.1011  0.6931 -0.1698
  131MOL0     C17587  -3.470   5.130  -0.696  0.5320 -0.0824 -0.2018
  131MOL0     C17588  -3.618   5.108  -0.661  0.0695  0.4776 -0.5521
  131MOL0     C17589  -3.723   5.160  -0.760  0.1473 -0.5667  0.7501
  131MOL0     C17590  -3.867   5.099  -0.724 -0.6734 -0.3061 -0.8813
  131MOL0     C17591  -3.969   5.140  -0.832 -0.2061  0.8552 -0.1774
  131MOL0     C17592  -4.112   5.095  -0.799  0.0228 -0.4602 -0.9996
  131MOL0     C17593  -4.159   4.945  -0.786  0.0488 -0.4288 -0.2133
  131MOL0     C17594  -4.297   4.932  -0.727 -0.8404  0.1714  0.0801
  131MOL0    Cl17595  -4.429   4.978  -0.840 -0.1264 -0.1923 -0.0531
  131MOL0     C17596  -3.202   5.222  -0.662  0.7891  0.5106 -1.0256
  131MOL0     C17597  -3.061   5.234  -0.678  0.2469  0.6272 -0.1503
  131MOL0     O17598  -2.814   5.236  -0.444 -0.2322  0.2939  0.4012
  131MOL0     C17599  -2.565   5.082  -0.658  0.0257 -0.1393 -1.4336
  131MOL0     C17600  -2.423   5.061  -0.664 -0.7882  0.8175 -0.4121
  131MOL0     N17601  -1.665   5.316  -0.319  1.1283 -0.6251  0.4418
  131MOL0     N17602  -1.572   5.358  -0.240  0.5661  0.9386  0.3563
  131MOL0     C17603  -0.280   5.181   0.086 -0.2111 -0.9582 -0.1861
  131MOL0     C17604  -0.156   5.123   0.116 -0.2722  1.3125  0.9646
  131MOL0     C17605   0.249   4.993   0.177 -1.1320  0.0435 -0.0894
  131MOL0     C17606   0.345   5.078   0.113  0.3881 -0.5439 -0.4489
  131MOL0     C17607   0.470   5.029   0.057 -0.0378 -0.7174 -0.3002
  131MOL0     C17608   0.495   4.898   0.079 -0.4376  0.6102 -0.0568
  131MOL0     O17609   0.615   4.845   0.030 -0.4601  0.7200 -0.3894
  131MOL0     C17610   0.651   4.709   0.061 -0.4479 -0.3239 -0.4105
  131MOL0     C17611   0.688   4.685   0.207  0.3566  0.6030 -0.4815
  131MOL0     C17612   0.837   4.696   0.246 -0.3688  0.4892  0.6154
  131MOL0     C17613   0.893   4.824   0.270 -0.2584 -0.5787  0.6112
  131MOL0     C17614   1.039   4.820   0.279 -0.1376  0.2798  0.1262
  131MOL0     C17615   1.158   4.836   0.281  0.1140 -0.4886  1.1967
  131MOL0     C17616   0.402   4.820   0.154 -0.7486  1.0025  0.4990
  131MOL0     C17617   0.284   4.858   0.202  0.5594 -0.2382 -0.1218
  131MOL0     H17618   0.004   5.410   0.210 -0.0357  0.0984  0.9477
  131MOL0     H17619  -0.228   5.501   0.192 -1.9347 -0.7316  0.2977
  131MOL0     H17620  -0.460   5.329  -0.104 -0.3954 -2.4707 -0.9608
  131MOL0     H17621  -0.516   5.211   0.006 -2.4827  0.0267  1.6226
  131MOL0     H17622  -0.681   5.385   0.098 -0.0505 -2.0739  0.1524
  131MOL0     H17623  -0.639   5.484  -0.039  2.6065 -0.4309  0.3066
  131MOL0     H17624  -0.721   5.288  -0.179 -2.2652  0.2653  0.3300
  131MOL0     H17625  -0.741   5.189  -0.025 -0.8381  1.3944  2.6656
  131MOL0     H17626  -0.904   5.315   0.056  3.2647  1.7832  0.9389
  131MOL0     H17627  -0.890   5.451  -0.049 -2.9353  0.2332  1.1085
  131MOL0     H17628  -0.974   5.317  -0.231  3.4019  1.8310  2.2704
  131MOL0     H17629  -0.977   5.158  -0.150  2.3688  0.0849  0.7379
  131MOL0     H17630  -1.143   5.272   0.019 -2.6133  1.7455 -0.0796
  131MOL0     H17631  -1.138   5.413  -0.064  0.9673 -0.4501 -2.2644
  131MOL0     H17632  -1.252   5.323  -0.262  0.7581 -1.4972 -0.4205
  131MOL0     H17633  -1.230   5.162  -0.205 -0.0937 -1.5897  3.5698
  131MOL0     H17634  -1.405   5.353  -0.052  0.1729 -0.0384  1.1826
  131MOL0     H17635  -1.403   5.184  -0.036  0.0371 -1.0082 -1.0518
  131MOL0     H17636  -1.505   5.040  -0.259 -1.6103 -0.2477 -0.4236
  131MOL0     H17637  -1.723   5.042  -0.487 -0.5259  0.8626 -0.1442
  131MOL0     H17638  -1.763   5.008  -0.333  0.6976 -0.4309 -1.8970
  131MOL0     H17639  -1.843   5.266  -0.486  0.4596 -2.8773 -3.8777
  131MOL0     H17640  -1.919   5.211  -0.330 -1.7728  0.2206 -0.9402
  131MOL0     H17641  -1.988   5.001  -0.489 -0.2343 -0.1937 -0.6919
  131MOL0     H17642  -1.946   5.111  -0.626  1.9874 -1.0634  0.4953
  131MOL0     H17643  -2.109   5.275  -0.546 -0.2633 -0.1774  0.2949
  131MOL0     H17644  -2.147   5.158  -0.407  2.4656  0.0964  0.6870
  131MOL0     H17645  -2.317   5.335  -0.501 -0.8146  1.5280 -2.5881
  131MOL0     H17646  -2.665   5.418  -0.457 -0.6775 -2.9312  0.7304
  131MOL0     H17647  -2.560   5.355  -0.325 -2.6519  0.4367  0.2761
  131MOL0     H17648  -2.500   5.482  -0.442 -0.4136 -0.0829 -0.8094
  131MOL0     H17649  -2.962   4.927  -0.560 -0.2918 -2.4762 -2.7755
  131MOL0     H17650  -3.201   4.914  -0.535 -1.9978  0.2107  1.1878
  131MOL0     H17651  -3.457   5.237  -0.710 -1.4974  0.2454  0.1266
  131MOL0     H17652  -3.451   5.078  -0.790  0.9691  0.3006 -0.3306
  131MOL0     H17653  -3.630   5.001  -0.645  2.6961  0.2964  0.9152
  131MOL0     H17654  -3.635   5.153  -0.563 -0.3000 -3.0038  1.1301
  131MOL0     H17655  -3.701   5.134  -0.864  0.1679  0.9640  0.3480
  131MOL0     H17656  -3.727   5.268  -0.773 -1.8179 -0.6908 -0.0793
  131MOL0     H17657  -3.854   4.990  -0.718  1.7706  0.0245  1.4325
  131MOL0     H17658  -3.896   5.144  -0.629 -2.8535  0.3014 -1.7759
  131MOL0     H17659  -3.942   5.092  -0.927 -1.2942  1.1167 -0.6419
  131MOL0     H17660  -3.959   5.248  -0.844  2.5050  0.4650 -2.4936
  131MOL0     H17661  -4.129   5.140  -0.700 -1.4365 -1.1693 -0.8852
  131MOL0     H17662  -4.185   5.146  -0.862 -0.1625  1.9675  0.9963
  131MOL0     H17663  -4.096   4.887  -0.718  1.5506 -0.0859 -1.2684
  131MOL0     H17664  -4.158   4.894  -0.883  0.2637  1.0860 -1.0458
  131MOL0     H17665  -4.303   4.982  -0.630  2.3024 -1.1668  1.0839
  131MOL0     H17666  -4.314   4.825  -0.712 -0.5883 -0.7941 -4.7626
  131MOL0     H17667  -3.269   5.306  -0.676  0.6090  0.6561  0.4880
  131MOL0     H17668  -3.014   5.327  -0.709 -0.5837  1.3115  0.5452
  131MOL0     H17669  -2.641   5.015  -0.696 -1.9263  1.2035 -0.0996
  131MOL0     H17670  -2.390   4.976  -0.722 -1.3354  0.6246 -0.4481
  131MOL0     H17671  -0.348   5.119   0.028  1.2946 -0.9589 -2.0386
  131MOL0     H17672  -0.143   5.019   0.088  1.3756  2.0771 -1.4328
  131MOL0     H17673   0.293   5.172   0.097 -4.2730 -2.1338  3.0360
  131MOL0     H17674   0.539   5.094   0.004  1.2836 -3.0411 -1.5710
  131MOL0     H17675   0.583   4.630   0.028  0.8736 -1.1832 -1.1844
  131MOL0     H17676   0.742   4.691   0.002  0.8334 -2.0904  1.9403
  131MOL0     H17677   0.658   4.583   0.231  2.0396 -0.3760 -2.2581
  131MOL0     H17678   0.630   4.754   0.269 -3.8782 -0.5939 -2.7302
  131MOL0     H17679   0.893   4.651   0.164 -0.6565  3.7686 -1.5751
  131MOL0     H17680   0.846   4.631   0.334 -1.6897 -1.1990 -0.4249
  131MOL0     H17681   0.840   4.865   0.357 -0.0788 -1.0368  0.9432
  131MOL0     H17682   0.867   4.902   0.198 -2.7287 -0.0985  1.9268
  131MOL0     H17683   1.263   4.860   0.274 -0.1937  2.8315  4.4235
  131MOL0     H17684   0.418   4.714   0.172  0.8628  1.2359  0.5996
  131MOL0     H17685   0.225   4.795   0.268 -1.6087  1.0199 -0.7805
  132MOL0     O17686   6.746   1.230   6.906 -0.3090  0.1594 -0.7099
  132MOL0     C17687   6.784   1.220   6.788  0.6296  0.5119 -0.1337
  132MOL0     O17688   6.709   1.167   6.684  0.5251  0.3064  0.4237
  132MOL0     C17689   6.576   1.128   6.702 -0.0292 -0.3461 -0.0333
  132MOL0     C17690   6.529   1.041   6.808 -0.4640  0.5585 -0.6659
  132MOL0     C17691   6.400   0.998   6.813 -0.0709 -0.7141  0.0891
  132MOL0     C17692   6.311   1.032   6.714  0.5401 -0.8016  0.0339
  132MOL0     O17693   6.186   0.976   6.722  0.3225 -0.3365 -0.5804
  132MOL0     C17694   6.159   0.886   6.617 -0.0225  0.0802 -0.3943
  132MOL0     C17695   6.069   0.762   6.655 -1.5075  0.3021 -0.0346
  132MOL0     C17696   5.924   0.801   6.688 -0.2751 -0.8363 -0.0981
  132MOL0     C17697   5.839   0.841   6.568 -0.9967 -0.8747  0.0728
  132MOL0     C17698   5.689   0.846   6.584 -0.7328 -0.0425  0.0607
  132MOL0     C17699   5.645   0.702   6.611 -0.1484 -1.0294 -0.5295
  132MOL0     C17700   5.488   0.689   6.602  0.0910  0.4359  0.3711
  132MOL0     C17701   5.452   0.543   6.616 -0.0297  0.7100 -0.3532
  132MOL0     N17702   5.308   0.547   6.638 -0.5936 -1.1473  0.9578
  132MOL0     C17703   5.213   0.564   6.537  1.0492  0.5975  0.1739
  132MOL0     C17704   5.089   0.589   6.590  0.4144  0.7861 -0.0300
  132MOL0     C17705   4.942   0.593   6.540  0.7867  0.1242  0.0136
  132MOL0     C17706   4.928   0.669   6.407 -0.2281 -0.8654 -0.6759
  132MOL0     C17707   4.982   0.805   6.391  0.5412  1.1397 -0.7447
  132MOL0     C17708   4.953   0.867   6.253 -0.6926 -0.2869  0.2646
  132MOL0     O17709   5.041   0.796   6.164  0.1836 -0.1994  0.2385
  132MOL0     C17710   5.172   0.835   6.156  0.1803 -0.3373 -0.1856
  132MOL0     C17711   5.266   0.745   6.197 -1.1186  0.4501 -0.2853
  132MOL0     C17712   5.399   0.771   6.185 -0.3187  0.0747 -0.0189
  132MOL0     C17713   5.499   0.655   6.212 -0.0686 -0.0703  0.0124
  132MOL0     C17714   5.441   0.902   6.157  0.1169  0.2177  1.3422
  132MOL0     C17715   5.583   0.954   6.136 -0.6064  0.3560  0.5576
  132MOL0     O17716   5.610   1.079   6.167  0.2259 -0.3826  0.1093
  132MOL0     C17717   5.736   1.121   6.153  0.4192  0.1351 -0.3226
  132MOL0     C17718   5.771   1.225   6.071 -0.4738  0.3752  0.4352
  132MOL0     C17719   5.907   1.267   6.057 -0.6319  0.1023 -0.6738
  132MOL0     C17720   6.010   1.212   6.132  0.4057 -0.8892  0.2026
  132MOL0     O17721   6.126   1.282   6.110 -0.1265  0.1167 -0.2156
  132MOL0     C17722   6.249   1.233   6.163 -0.1867 -0.2346 -1.3218
  132MOL0     C17723   6.365   1.333   6.147  0.4883 -0.1653  1.1010
  132MOL0     C17724   6.497   1.262   6.189 -0.0918 -0.0369  0.0825
  132MOL0     C17725   6.605   1.371   6.194  0.2052 -0.0229  0.1412
  132MOL0     C17726   6.744   1.310   6.244 -0.9816 -0.5364  0.2275
  132MOL0     C17727   6.857   1.415   6.229 -0.1651 -0.0534 -0.9470
  132MOL0     C17728   6.997   1.352   6.250  0.3681 -0.7406  0.2790
  132MOL0     C17729   7.116   1.456   6.280 -0.2263  0.0226  0.1685
  132MOL0    Cl17730   7.071   1.565   6.419 -0.7987  0.4267  0.0610
  132MOL0     C17731   5.986   1.099   6.212  0.9492 -0.6688 -0.2606
  132MOL0     C17732   5.844   1.057   6.227 -0.7363  0.0892 -0.9020
  132MOL0     O17733   5.672   0.882   6.080  0.9616  0.4887  0.3819
  132MOL0     C17734   5.344   0.993   6.116 -0.4436  0.6308  0.7988
  132MOL0     C17735   5.211   0.960   6.110 -1.1893  0.4670 -0.2781
  132MOL0     N17736   5.118   0.592   6.722 -0.0793  0.3991 -0.5056
  132MOL0     N17737   5.242   0.572   6.751  0.0915 -0.6612 -0.3290
  132MOL0     C17738   6.354   1.116   6.606  0.2806 -1.3361  0.5710
  132MOL0     C17739   6.486   1.168   6.607 -0.0037 -0.0285  0.9278
  132MOL0     C17740   6.924   1.251   6.763 -0.1685 -0.5848 -0.1955
  132MOL0     C17741   7.014   1.284   6.872  0.2296 -0.1362  0.5169
  132MOL0     C17742   7.147   1.314   6.845  0.3389 -0.5858 -0.1744
  132MOL0     C17743   7.190   1.302   6.710 -0.9597  0.2505 -1.2342
  132MOL0     O17744   7.324   1.317   6.697  0.4848  0.9222  0.5265
  132MOL0     C17745   7.386   1.329   6.571 -0.5297  0.3952  0.3901
  132MOL0     C17746   7.401   1.191   6.504 -0.7032  0.0972  0.3934
  132MOL0     C17747   7.475   1.094   6.594  0.3205  0.3246  1.6468
  132MOL0     C17748   7.617   1.135   6.621  0.2817  0.7728  0.8035
  132MOL0     C17749   7.720   1.088   6.531  0.5681 -0.5830  0.0964
  132MOL0     C17750   7.794   1.040   6.449 -0.1532 -0.3674  0.9993
  132MOL0     C17751   7.102   1.278   6.605  0.4472  0.0938  0.7934
  132MOL0     C17752   6.968   1.250   6.631  1.0316  0.7726  0.8135
  132MOL0     H17753   6.598   1.007   6.885  0.6592 -3.6613 -3.1875
  132MOL0     H17754   6.370   0.928   6.890 -2.4433  0.4342  0.3051
  132MOL0     H17755   6.109   0.933   6.532  0.0255 -0.6775 -0.8566
  132MOL0     H17756   6.256   0.855   6.576  1.6456  2.0497  1.7731
  132MOL0     H17757   6.064   0.693   6.570 -1.7104  0.6133 -0.2802
  132MOL0     H17758   6.120   0.718   6.741 -3.3099  1.1342  1.5133
  132MOL0     H17759   5.883   0.719   6.749  1.8455 -0.4793  1.9639
  132MOL0     H17760   5.925   0.893   6.748 -0.0896  1.1345 -2.9539
  132MOL0     H17761   5.864   0.946   6.548  1.5817 -1.5724 -0.7956
  132MOL0     H17762   5.862   0.783   6.478 -0.6970  0.2665 -0.6175
  132MOL0     H17763   5.675   0.898   6.679  0.3652 -1.9228  1.2936
  132MOL0     H17764   5.637   0.890   6.498 -0.2481  0.4799  0.0259
  132MOL0     H17765   5.692   0.642   6.532  4.7299  2.1374 -0.4602
  132MOL0     H17766   5.678   0.668   6.709 -1.7191  2.1079  1.2078
  132MOL0     H17767   5.439   0.756   6.673 -1.9475 -0.5976  0.0067
  132MOL0     H17768   5.448   0.725   6.507 -1.6080 -0.0470  0.8713
  132MOL0     H17769   5.509   0.512   6.704 -0.3580 -0.5095 -0.5568
  132MOL0     H17770   5.497   0.473   6.545  3.7168  0.2577  2.1639
  132MOL0     H17771   5.224   0.545   6.431 -0.5083 -0.6108  0.1929
  132MOL0     H17772   4.910   0.490   6.519  1.5303 -0.1864  0.3872
  132MOL0     H17773   4.880   0.637   6.619  0.2818 -0.3943 -0.0789
  132MOL0     H17774   4.821   0.685   6.388  0.1785 -0.9301 -3.6035
  132MOL0     H17775   4.957   0.599   6.328  0.1091  0.0083 -1.3409
  132MOL0     H17776   5.087   0.804   6.420  0.1729 -1.7459  0.8669
  132MOL0     H17777   4.928   0.869   6.462 -1.5594 -0.7748 -0.5013
  132MOL0     H17778   4.969   0.975   6.255  0.9858 -0.4928  2.6397
  132MOL0     H17779   4.848   0.848   6.229 -0.3922 -0.1307 -1.2648
  132MOL0     H17780   5.234   0.649   6.236 -1.5552  0.0715 -1.5153
  132MOL0     H17781   5.593   0.697   6.248 -0.3318  1.3115 -0.8086
  132MOL0     H17782   5.456   0.583   6.282  2.1437  0.5615  2.1396
  132MOL0     H17783   5.519   0.596   6.122  0.1159 -1.1259  0.7424
  132MOL0     H17784   5.694   1.274   6.011  0.9970  0.3638 -1.5555
  132MOL0     H17785   5.946   1.350   5.998  2.6178  0.6954  1.9679
  132MOL0     H17786   6.233   1.206   6.268  0.5141  1.0496 -0.8561
  132MOL0     H17787   6.282   1.146   6.105  1.2562 -0.0317 -0.8619
  132MOL0     H17788   6.368   1.357   6.041 -0.0039  0.8520  1.3018
  132MOL0     H17789   6.348   1.424   6.206  0.6138  1.3790 -1.1557
  132MOL0     H17790   6.526   1.185   6.116 -0.8966 -1.6221  1.3742
  132MOL0     H17791   6.489   1.215   6.287 -0.2506 -1.2016 -0.4613
  132MOL0     H17792   6.626   1.409   6.093  1.5408 -1.2530 -0.0896
  132MOL0     H17793   6.576   1.456   6.257  1.6051 -0.5111  1.5095
  132MOL0     H17794   6.767   1.236   6.167  1.1184  1.3074 -1.0347
  132MOL0     H17795   6.732   1.267   6.344 -2.2363 -0.6338  0.0548
  132MOL0     H17796   6.864   1.443   6.124  1.7347 -3.8650 -2.0163
  132MOL0     H17797   6.851   1.506   6.290 -0.5895  0.3237 -1.5457
  132MOL0     H17798   7.011   1.294   6.158  2.2005  1.9723 -1.2891
  132MOL0     H17799   6.986   1.274   6.326  0.4119 -0.8529  0.1701
  132MOL0     H17800   7.132   1.527   6.199 -1.9905  1.3059  0.8891
  132MOL0     H17801   7.208   1.399   6.297  0.1009  0.0856 -1.2681
  132MOL0     H17802   6.066   1.044   6.262  0.6296  0.4795  1.6265
  132MOL0     H17803   5.822   0.972   6.291 -0.5950 -0.1292 -1.1396
  132MOL0     H17804   5.371   1.087   6.068  1.5922 -1.3020 -2.1856
  132MOL0     H17805   5.134   1.034   6.087 -1.5927  0.4276  0.8619
  132MOL0     H17806   6.278   1.148   6.535 -0.8594  0.5334  2.5020
  132MOL0     H17807   6.517   1.237   6.529  1.0291  0.3431  1.6441
  132MOL0     H17808   6.985   1.278   6.977  2.8803 -4.7962  1.2795
  132MOL0     H17809   7.219   1.313   6.926  1.0394  1.6374 -0.7172
  132MOL0     H17810   7.321   1.386   6.504 -0.4588  0.1332  0.0948
  132MOL0     H17811   7.480   1.385   6.570  1.0442 -2.0601  0.0572
  132MOL0     H17812   7.450   1.207   6.407  0.2268 -1.4289  0.5769
  132MOL0     H17813   7.313   1.145   6.459  1.0666 -2.5520 -0.5749
  132MOL0     H17814   7.474   0.994   6.550  0.1607  1.1906 -0.4103
  132MOL0     H17815   7.418   1.087   6.687  0.7966  1.4976  2.0409
  132MOL0     H17816   7.642   1.098   6.721  4.3006  1.1415  0.1201
  132MOL0     H17817   7.619   1.244   6.626  0.5601  0.8777 -0.9556
  132MOL0     H17818   7.868   1.016   6.375 -0.5378  0.9316  0.1603
  132MOL0     H17819   7.134   1.276   6.501 -0.9396 -1.6967  0.3459
  132MOL0     H17820   6.900   1.232   6.548  2.2041 -3.0951  0.5111
  133MOL0     O17821   8.707   1.173   8.607 -0.0259 -0.3617  0.5364
  133MOL0     C17822   8.793   1.188   8.696  0.5939  0.8373  0.9833
  133MOL0     O17823   8.800   1.121   8.819  0.4744 -0.6476 -0.3039
  133MOL0     C17824   8.688   1.038   8.836 -0.0052 -0.1219 -0.1610
  133MOL0     C17825   8.665   0.922   8.765  0.2268 -0.0685 -0.1635
  133MOL0     C17826   8.557   0.840   8.802  0.1712 -1.2242  0.7972
  133MOL0     C17827   8.466   0.876   8.906  0.0640 -0.3863 -0.6574
  133MOL0     O17828   8.379   0.793   8.970 -0.1682 -0.9183 -0.0821
  133MOL0     C17829   8.379   0.648   8.936  0.4699  0.5471  1.1886
  133MOL0     C17830   8.277   0.587   9.031 -0.1845 -0.4459  0.4205
  133MOL0     C17831   8.141   0.605   8.966 -0.5803  0.2198  0.9409
  133MOL0     C17832   8.026   0.555   9.045  0.8268  0.5032 -0.3535
  133MOL0     C17833   7.900   0.569   8.952 -0.6313 -0.5903 -1.1026
  133MOL0     C17834   7.788   0.665   9.001  0.2005 -0.2503  0.1730
  133MOL0     C17835   7.666   0.667   8.903  0.5203  0.5139 -0.2312
  133MOL0     C17836   7.701   0.733   8.765  0.0237  0.7533 -0.4260
  133MOL0     N17837   7.592   0.716   8.669  0.0291 -0.3441 -0.1436
  133MOL0     C17838   7.516   0.828   8.645  0.3567 -0.9274  0.0913
  133MOL0     C17839   7.451   0.796   8.529 -0.0474  0.0319 -0.8057
  133MOL0     C17840   7.363   0.871   8.447  0.5568 -0.0711  0.7993
  133MOL0     C17841   7.223   0.869   8.515 -0.0233 -0.0394  0.7225
  133MOL0     C17842   7.093   0.898   8.432  0.4200  0.1753 -0.0410
  133MOL0     C17843   6.959   0.827   8.472 -0.1527 -0.0991  0.6127
  133MOL0     O17844   6.846   0.873   8.397  0.0953 -0.0063 -0.3637
  133MOL0     C17845   6.721   0.824   8.437 -0.5969  0.1666  0.8125
  133MOL0     C17846   6.702   0.729   8.535  0.3030 -0.3944  0.1351
  133MOL0     C17847   6.572   0.685   8.562  0.5170  0.9776 -0.1800
  133MOL0     C17848   6.560   0.592   8.690  0.0379 -0.4203 -0.3315
  133MOL0     C17849   6.456   0.744   8.500  0.4947 -0.5756  0.1377
  133MOL0     C17850   6.319   0.709   8.523 -0.2592 -0.9082  0.7881
  133MOL0     O17851   6.222   0.801   8.516  0.2065 -0.2152  0.6572
  133MOL0     C17852   6.098   0.748   8.511  0.2381 -0.2664  0.5075
  133MOL0     C17853   6.042   0.698   8.386 -0.2281  1.0668 -0.4872
  133MOL0     C17854   5.915   0.638   8.387  0.0496  0.4346  0.3078
  133MOL0     C17855   5.836   0.637   8.505 -0.0247  1.1439  1.1003
  133MOL0     O17856   5.709   0.573   8.489  0.4080 -0.3970  0.3725
  133MOL0     C17857   5.625   0.576   8.603 -0.4255 -0.0378 -0.3544
  133MOL0     C17858   5.481   0.521   8.565 -0.1305  0.0600  0.2920
  133MOL0     C17859   5.384   0.565   8.673 -0.6785 -0.2659 -0.8173
  133MOL0     C17860   5.239   0.565   8.631  0.3422  0.7723 -0.1042
  133MOL0     C17861   5.176   0.426   8.587  0.7117  0.6288 -0.5147
  133MOL0     C17862   5.026   0.456   8.588 -0.2686 -0.2126 -0.4234
  133MOL0     C17863   4.947   0.331   8.541  0.1917 -0.7937  0.2167
  133MOL0     C17864   4.789   0.340   8.533 -0.5516 -0.4000  0.2893
  133MOL0    Cl17865   4.745   0.444   8.396 -0.3969 -0.1840 -0.4949
  133MOL0     C17866   5.889   0.685   8.625 -0.0230 -0.0174 -0.3537
  133MOL0     C17867   6.013   0.741   8.624 -0.0699 -0.0955  0.5274
  133MOL0     O17868   6.302   0.586   8.539 -0.0872  0.5770  0.2131
  133MOL0     C17869   6.475   0.838   8.399  0.2325 -0.5295  0.0397
  133MOL0     C17870   6.609   0.883   8.366  0.3512 -0.3531 -0.2685
  133MOL0     N17871   7.469   0.659   8.502 -0.1217 -0.1400  1.2458
  133MOL0     N17872   7.558   0.611   8.586 -0.7021  0.0572 -0.2038
  133MOL0     C17873   8.481   1.010   8.965  0.1053  0.5927  0.8824
  133MOL0     C17874   8.588   1.090   8.928 -0.8807  0.2143 -0.1159
  133MOL0     C17875   8.890   1.305   8.672  0.6949  0.0475 -0.7496
  133MOL0     C17876   8.903   1.360   8.543 -0.4287  0.2342  0.7728
  133MOL0     C17877   8.998   1.459   8.523 -0.7443 -0.2169  0.2506
  133MOL0     C17878   9.059   1.526   8.628  0.1756 -0.1572  0.6125
  133MOL0     O17879   9.134   1.639   8.605  0.6254  0.0964 -0.2403
  133MOL0     C17880   9.211   1.696   8.704  0.0032 -1.0522 -0.0549
  133MOL0     C17881   9.152   1.827   8.757 -1.1425  0.2584 -0.0409
  133MOL0     C17882   9.225   1.873   8.874 -0.0738 -0.8111  0.8335
  133MOL0     C17883   9.163   2.006   8.934  0.2564  1.1673  0.7358
  133MOL0     C17884   9.024   1.987   8.987 -0.4613  0.3538 -0.6848
  133MOL0     C17885   8.906   1.979   9.021 -0.4814  0.5140  0.3345
  133MOL0     C17886   9.029   1.477   8.757 -0.1973  0.2739  0.7080
  133MOL0     C17887   8.958   1.358   8.778 -0.7436 -0.3264 -0.1612
  133MOL0     H17888   8.739   0.884   8.695  0.5386 -1.8696  1.0612
  133MOL0     H17889   8.546   0.746   8.750  0.6361  0.0802 -1.8739
  133MOL0     H17890   8.354   0.642   8.830 -0.1281  1.3526  1.2769
  133MOL0     H17891   8.476   0.600   8.950  1.1446  0.7061 -2.1735
  133MOL0     H17892   8.301   0.481   9.037  2.3756 -0.0955 -1.6383
  133MOL0     H17893   8.289   0.632   9.130  1.0248 -0.1267  0.1478
  133MOL0     H17894   8.121   0.712   8.971 -2.3695 -0.0272 -0.0891
  133MOL0     H17895   8.151   0.561   8.866  3.0055 -0.7564  1.5695
  133MOL0     H17896   8.037   0.451   9.076 -0.8630 -0.3592 -2.3423
  133MOL0     H17897   8.015   0.614   9.136 -0.2212  2.7154 -1.8243
  133MOL0     H17898   7.934   0.596   8.852  2.1363 -0.9485 -0.3551
  133MOL0     H17899   7.858   0.469   8.945 -1.8914 -0.2152  0.4174
  133MOL0     H17900   7.754   0.633   9.099  1.6020 -0.4873  0.6019
  133MOL0     H17901   7.823   0.768   9.009 -1.0152  0.2395 -0.4324
  133MOL0     H17902   7.624   0.568   8.883 -1.7146  1.5725 -1.2011
  133MOL0     H17903   7.591   0.736   8.944 -1.7303 -1.7611 -0.2605
  133MOL0     H17904   7.795   0.687   8.733 -0.2648 -1.4353  1.6076
  133MOL0     H17905   7.726   0.838   8.785 -0.1763  0.3340  2.5001
  133MOL0     H17906   7.511   0.917   8.707 -0.3556 -0.3600 -0.7618
  133MOL0     H17907   7.405   0.971   8.437 -0.4794  0.2589 -0.7389
  133MOL0     H17908   7.354   0.818   8.351  0.1030  1.3688  0.0113
  133MOL0     H17909   7.229   0.943   8.595  2.3526 -1.1088  1.6189
  133MOL0     H17910   7.218   0.771   8.563 -0.1006 -1.3688 -1.8240
  133MOL0     H17911   7.119   0.869   8.330 -0.5996 -2.4611  0.3637
  133MOL0     H17912   7.081   1.006   8.438 -0.7758  0.1897 -1.8745
  133MOL0     H17913   6.927   0.851   8.574 -0.0361 -0.1735  0.6657
  133MOL0     H17914   6.965   0.721   8.447 -2.2635 -0.0788 -0.2143
  133MOL0     H17915   6.788   0.684   8.583 -0.6807 -1.0924  1.2902
  133MOL0     H17916   6.491   0.638   8.761  1.8937  3.1622 -0.6244
  133MOL0     H17917   6.529   0.490   8.666  1.4613 -0.0984 -4.3078
  133MOL0     H17918   6.656   0.585   8.743  0.6757  1.2924 -1.1838
  133MOL0     H17919   6.105   0.715   8.300  0.7565  1.1868  0.2364
  133MOL0     H17920   5.877   0.589   8.298 -0.3547  0.6990  0.3301
  133MOL0     H17921   5.661   0.510   8.682  0.4269  1.6364  0.7204
  133MOL0     H17922   5.625   0.675   8.651  1.2538 -1.1786  2.1977
  133MOL0     H17923   5.459   0.570   8.469  0.0513 -1.4700 -0.5603
  133MOL0     H17924   5.483   0.413   8.550 -1.5072 -0.3207  2.4083
  133MOL0     H17925   5.406   0.669   8.699  0.2079  0.2347 -3.2361
  133MOL0     H17926   5.405   0.508   8.763  1.0174 -0.4047 -1.2662
  133MOL0     H17927   5.185   0.600   8.719 -0.1358 -0.0603 -0.0631
  133MOL0     H17928   5.222   0.644   8.557 -3.5439 -1.0799 -1.4145
  133MOL0     H17929   5.190   0.351   8.665  1.1667  1.9042  0.6649
  133MOL0     H17930   5.209   0.392   8.488  2.6770  0.2127  0.2351
  133MOL0     H17931   4.998   0.482   8.690 -0.6981 -1.6331 -0.1607
  133MOL0     H17932   5.012   0.546   8.527 -0.7385 -0.4745 -0.7178
  133MOL0     H17933   4.971   0.245   8.604 -1.1771 -2.2665 -1.1526
  133MOL0     H17934   4.990   0.314   8.442  1.0256  4.3014 -0.5732
  133MOL0     H17935   4.745   0.386   8.622 -0.6531  1.2532 -0.5776
  133MOL0     H17936   4.729   0.250   8.513 -1.3345 -0.1746  1.4980
  133MOL0     H17937   5.833   0.685   8.718  0.4962  0.7538 -0.0306
  133MOL0     H17938   6.051   0.786   8.715  2.3183 -0.1861 -0.3325
  133MOL0     H17939   6.391   0.887   8.350 -0.4992  0.6049  2.2596
  133MOL0     H17940   6.631   0.968   8.302  0.4381  0.5272  0.8825
  133MOL0     H17941   8.424   1.042   9.052 -0.3700  0.9959  0.4223
  133MOL0     H17942   8.602   1.185   8.979  1.2595 -0.4801  0.7221
  133MOL0     H17943   8.841   1.336   8.458 -0.4380  0.1706  0.7973
  133MOL0     H17944   9.022   1.499   8.425  0.2494 -0.6524  0.3038
  133MOL0     H17945   9.242   1.630   8.787  1.1909  0.5021  0.8001
  133MOL0     H17946   9.303   1.720   8.649  0.3867 -2.6523 -0.1671
  133MOL0     H17947   9.046   1.828   8.781 -0.5651  0.6758  2.9394
  133MOL0     H17948   9.161   1.895   8.672 -1.5609  0.2388 -0.1012
  133MOL0     H17949   9.321   1.907   8.835 -1.0884  0.8054 -0.3884
  133MOL0     H17950   9.236   1.787   8.941 -0.3295 -2.0781 -0.6707
  133MOL0     H17951   9.153   2.082   8.855 -0.8359  2.3430  1.9670
  133MOL0     H17952   9.231   2.038   9.013  3.1363 -1.9122 -0.2504
  133MOL0     H17953   8.801   1.978   9.044 -0.5081  1.0985  0.2622
  133MOL0     H17954   9.055   1.536   8.844 -0.9856  0.6380  0.7007
  133MOL0     H17955   8.951   1.326   8.881  2.1495 -0.6764  0.0082
  134MOL0     O17956   2.039   9.156  10.149 -0.0621  0.0967  0.2352
  134MOL0     C17957   2.015   9.186  10.030  0.1437 -0.0147 -0.2762
  134MOL0     O17958   1.884   9.183   9.972 -0.5478 -0.9657 -0.5805
  134MOL0     C17959   1.775   9.182  10.060 -0.5589  0.5477 -0.3575
  134MOL0     C17960   1.660   9.120  10.006 -0.0034  1.3229 -0.4520
  134MOL0     C17961   1.549   9.109  10.084 -0.2466  0.1109 -0.6994
  134MOL0     C17962   1.544   9.163  10.205  0.5496 -0.6216  0.7651
  134MOL0     O17963   1.421   9.167  10.261  0.1823  0.4335 -0.5885
  134MOL0     C17964   1.407   9.210  10.393  0.2067  0.0083 -0.9510
  134MOL0     C17965   1.250   9.204  10.427 -1.1634  0.4352  0.1505
  134MOL0     C17966   1.160   9.297  10.337 -0.5590  0.4310  0.9589
  134MOL0     C17967   1.020   9.297  10.403  0.0900  1.2457 -0.5186
  134MOL0     C17968   0.918   9.396  10.350  0.6500 -0.0431  0.1324
  134MOL0     C17969   0.772   9.357  10.384  0.4344 -0.0286 -0.6362
  134MOL0     C17970   0.749   9.327  10.529 -0.2830 -0.1929 -0.1752
  134MOL0     C17971   0.606   9.367  10.569  0.5034 -1.2102 -0.5131
  134MOL0     N17972   0.507   9.275  10.506 -0.5006  0.7430  0.3459
  134MOL0     C17973   0.443   9.288  10.385  0.5389  1.2693  0.2841
  134MOL0     C17974   0.352   9.179  10.379 -0.1771 -0.1040  0.7135
  134MOL0     C17975   0.269   9.134  10.261 -0.6231 -0.6433 -0.0672
  134MOL0     C17976   0.122   9.161  10.300 -0.0295 -0.5841 -0.5671
  134MOL0     C17977   0.078   9.307  10.303 -0.7995 -0.3769  1.0633
  134MOL0     C17978  -0.076   9.322  10.292 -0.2687  0.8270  0.4224
  134MOL0     O17979  -0.102   9.460  10.254  0.3489  0.6752 -0.0211
  134MOL0     C17980  -0.233   9.510  10.284 -0.2488 -0.3960  0.8393
  134MOL0     C17981  -0.246   9.646  10.274  0.7968 -0.0954 -1.0556
  134MOL0     C17982  -0.362   9.710  10.324 -0.4223 -0.8504  0.0251
  134MOL0     C17983  -0.362   9.859  10.296  0.5153 -0.5709 -0.5707
  134MOL0     C17984  -0.470   9.636  10.378  0.7487  0.1858 -0.3652
  134MOL0     C17985  -0.594   9.692  10.429  0.5457  0.3759  0.7491
  134MOL0     O17986  -0.682   9.596  10.491  0.7211  0.5564  0.0805
  134MOL0     C17987  -0.808   9.636  10.521 -0.8025  1.0956 -0.0293
  134MOL0     C17988  -0.914   9.593  10.441 -0.2283 -0.1671  0.3828
  134MOL0     C17989  -1.042   9.634  10.470  0.3171 -0.7186  0.4404
  134MOL0     C17990  -1.074   9.704  10.589  0.7643  0.3567  0.6836
  134MOL0     O17991  -1.207   9.736  10.624 -0.0353 -0.3079 -0.5938
  134MOL0     C17992  -1.310   9.671  10.547  0.5198 -0.4384 -0.4328
  134MOL0     C17993  -1.439   9.699  10.611  0.0247 -0.0747  0.0233
  134MOL0     C17994  -1.559   9.667  10.523 -0.2051 -0.3806  0.0633
  134MOL0     C17995  -1.695   9.710  10.584 -0.2771 -0.0602  0.3224
  134MOL0     C17996  -1.735   9.623  10.701 -0.0648  0.6822 -0.7572
  134MOL0     C17997  -1.890   9.606  10.718 -0.1833  0.8081 -0.1456
  134MOL0     C17998  -1.967   9.532  10.607  0.4646  0.0716 -1.0516
  134MOL0     C17999  -2.091   9.454  10.662 -1.0300  0.7138 -0.1392
  134MOL0    Cl18000  -2.215   9.568  10.714  0.2024  0.2486 -0.0628
  134MOL0     C18001  -0.968   9.753  10.665  0.2238 -0.2834  0.0355
  134MOL0     C18002  -0.837   9.725  10.625  0.0019  1.3214  0.1483
  134MOL0     O18003  -0.619   9.808  10.391  0.3789 -0.0768  0.3891
  134MOL0     C18004  -0.455   9.498  10.378 -0.6070  1.0418 -0.1998
  134MOL0     C18005  -0.339   9.429  10.330 -0.5257 -1.0801 -0.9601
  134MOL0     N18006   0.375   9.101  10.487 -0.4202 -0.2335  0.8298
  134MOL0     N18007   0.458   9.166  10.564 -0.2108 -0.1067  0.9012
  134MOL0     C18008   1.653   9.229  10.263 -0.0427 -0.5151 -0.4163
  134MOL0     C18009   1.768   9.243  10.188  0.0995 -0.0072  0.0364
  134MOL0     C18010   2.134   9.210   9.943  0.1676 -0.2506 -0.6433
  134MOL0     C18011   2.258   9.148   9.977  0.1724  0.5709 -0.6414
  134MOL0     C18012   2.370   9.181   9.908  0.0630 -0.1177  0.4398
  134MOL0     C18013   2.356   9.263   9.787  0.0691  0.6819  0.0915
  134MOL0     O18014   2.473   9.305   9.726 -0.1419  0.0135 -0.2265
  134MOL0     C18015   2.468   9.385   9.610 -0.4566 -0.4573  0.2463
  134MOL0     C18016   2.602   9.418   9.546 -0.6076 -0.1500 -0.1383
  134MOL0     C18017   2.694   9.485   9.653  0.5750  1.4397  0.3128
  134MOL0     C18018   2.845   9.486   9.628  0.6243 -0.7331  0.0010
  134MOL0     C18019   2.899   9.574   9.525  1.0196  0.2185 -0.6413
  134MOL0     C18020   2.948   9.644   9.437  0.1116 -0.2304  0.0026
  134MOL0     C18021   2.232   9.302   9.749  0.5707 -0.7866 -0.1069
  134MOL0     C18022   2.118   9.282   9.825 -0.6365 -0.2752 -0.3890
  134MOL0     H18023   1.666   9.074   9.907  1.8107 -0.5488  0.4361
  134MOL0     H18024   1.459   9.060  10.047  0.9193 -1.6770 -1.3577
  134MOL0     H18025   1.470   9.156  10.464  0.1861 -0.7510 -1.4998
  134MOL0     H18026   1.433   9.315  10.409 -2.7648  0.5900  0.9510
  134MOL0     H18027   1.228   9.097  10.425 -0.5083  0.2795  0.6083
  134MOL0     H18028   1.234   9.221  10.534  1.1181  0.3795  0.5579
  134MOL0     H18029   1.192   9.399  10.314 -1.7227  0.5628 -0.2237
  134MOL0     H18030   1.146   9.247  10.240 -0.9183 -2.0486  2.1945
  134MOL0     H18031   0.978   9.199  10.379  0.8307  0.5086  1.0080
  134MOL0     H18032   1.027   9.297  10.512  3.4322 -0.2124 -0.6264
  134MOL0     H18033   0.938   9.496  10.389  1.9936  0.5484 -1.8822
  134MOL0     H18034   0.939   9.399  10.242 -0.5047  1.7495 -0.0979
  134MOL0     H18035   0.718   9.449  10.357 -1.3048 -1.2330 -1.4380
  134MOL0     H18036   0.741   9.274  10.321 -0.3140 -0.7857  0.6915
  134MOL0     H18037   0.761   9.222  10.559 -0.7831 -1.0567 -2.6999
  134MOL0     H18038   0.819   9.393  10.580 -1.9135  1.0150  0.5847
  134MOL0     H18039   0.586   9.469  10.537 -0.1935 -0.8512  1.0059
  134MOL0     H18040   0.594   9.365  10.678  1.0768 -1.6060 -0.4467
  134MOL0     H18041   0.438   9.367  10.311 -1.0663  1.9978  1.0970
  134MOL0     H18042   0.285   9.187  10.167  2.2686 -1.4534 -0.1362
  134MOL0     H18043   0.290   9.027  10.249 -0.5774 -0.6349 -0.0627
  134MOL0     H18044   0.117   9.137  10.406 -0.6029 -0.1684 -0.5000
  134MOL0     H18045   0.062   9.098  10.233  0.2166 -1.4926  0.0590
  134MOL0     H18046   0.127   9.351  10.215  0.1738 -0.5948  1.4808
  134MOL0     H18047   0.113   9.362  10.391 -0.8769 -0.0663  0.8992
  134MOL0     H18048  -0.112   9.287  10.389 -0.4646  2.3396  0.9139
  134MOL0     H18049  -0.122   9.256  10.217 -2.2163  2.3374  0.2326
  134MOL0     H18050  -0.158   9.706  10.251  0.4908  0.6874 -0.2619
  134MOL0     H18051  -0.372   9.916  10.389 -1.2600 -0.0542 -1.0317
  134MOL0     H18052  -0.272   9.891  10.244 -0.9206  0.4035 -2.5546
  134MOL0     H18053  -0.447   9.878  10.229 -0.8017 -1.2597  0.8284
  134MOL0     H18054  -0.905   9.534  10.350 -1.8202  0.8837 -0.5043
  134MOL0     H18055  -1.118   9.614  10.395  0.3171  0.5646  0.0732
  134MOL0     H18056  -1.311   9.723  10.451 -0.5717  1.1328  0.3950
  134MOL0     H18057  -1.290   9.565  10.528  0.6355 -0.0999 -2.4495
  134MOL0     H18058  -1.450   9.639  10.701 -1.3838 -0.0861 -0.1353
  134MOL0     H18059  -1.431   9.802  10.649 -0.9293 -1.0433  3.1685
  134MOL0     H18060  -1.546   9.559  10.507  0.9296 -0.5045  1.6417
  134MOL0     H18061  -1.546   9.705  10.421  1.0902 -1.4079 -0.1824
  134MOL0     H18062  -1.692   9.813  10.620 -0.6337  1.0930 -2.5911
  134MOL0     H18063  -1.776   9.700  10.510 -0.9629  2.2756  0.6753
  134MOL0     H18064  -1.688   9.670  10.788 -0.8954  2.9944 -1.4841
  134MOL0     H18065  -1.689   9.524  10.695  1.3874  1.3292 -0.6921
  134MOL0     H18066  -1.904   9.549  10.810 -6.0320  2.2407  0.2052
  134MOL0     H18067  -1.943   9.699  10.743 -2.3020 -0.4605  0.2822
  134MOL0     H18068  -1.894   9.466  10.559 -0.0882  0.0007 -1.8147
  134MOL0     H18069  -1.993   9.609  10.534  0.0791 -1.4737 -2.5835
  134MOL0     H18070  -2.055   9.398  10.748  1.3495  0.5067 -1.1898
  134MOL0     H18071  -2.137   9.383  10.592  0.8257 -0.1022 -0.5819
  134MOL0     H18072  -0.977   9.818  10.752  2.3475 -0.4510  0.4284
  134MOL0     H18073  -0.761   9.776  10.683 -2.2523  2.6739  2.1232
  134MOL0     H18074  -0.528   9.425  10.412  1.1966 -0.6326  0.2735
  134MOL0     H18075  -0.318   9.323  10.334  4.3392 -0.3544 -0.9001
  134MOL0     H18076   1.649   9.280  10.359 -0.3105  0.5209 -0.9632
  134MOL0     H18077   1.849   9.312  10.211 -2.2445  2.4163  1.8045
  134MOL0     H18078   2.260   9.087  10.067 -0.5719 -0.4909 -1.3314
  134MOL0     H18079   2.466   9.142   9.940 -0.0434 -2.7893 -2.1121
  134MOL0     H18080   2.419   9.341   9.523  0.3514 -2.2334  0.6430
  134MOL0     H18081   2.410   9.474   9.638 -1.5117 -0.5875 -1.3917
  134MOL0     H18082   2.592   9.487   9.461 -0.4823  2.2419  1.6781
  134MOL0     H18083   2.641   9.320   9.516  1.2037 -0.0174  1.5412
  134MOL0     H18084   2.679   9.419   9.738 -1.8137 -2.3470 -2.7166
  134MOL0     H18085   2.655   9.585   9.676 -3.7996  0.3514 -1.5516
  134MOL0     H18086   2.876   9.385   9.600  0.3383 -0.9388  0.4154
  134MOL0     H18087   2.894   9.521   9.720 -1.7940  1.4587  0.5766
  134MOL0     H18088   2.989   9.706   9.360 -0.3616  3.1751  2.2490
  134MOL0     H18089   2.221   9.361   9.659  0.0800 -2.4456 -1.1846
  134MOL0     H18090   2.022   9.315   9.787 -0.2485  3.8854  1.6599
  135MOL0     O18091  10.140   6.350  10.892 -0.0149  0.3389  0.0063
  135MOL0     C18092  10.247   6.288  10.911 -0.4613  0.1835  0.6076
  135MOL0     O18093  10.268   6.156  10.897  0.5498  0.5210  0.2815
  135MOL0     C18094  10.168   6.062  10.915 -0.4845  0.6393  0.3123
  135MOL0     C18095  10.054   6.084  10.993  0.2756 -0.3749 -0.8565
  135MOL0     C18096   9.957   5.982  11.009  0.2519  0.4663 -0.5787
  135MOL0     C18097   9.966   5.863  10.929  0.0535  0.3084  1.0787
  135MOL0     O18098   9.879   5.762  10.937 -0.4579 -0.4729 -0.6246
  135MOL0     C18099   9.797   5.751  10.827  0.1097 -0.1506 -0.1534
  135MOL0     C18100   9.670   5.837  10.833 -0.4360 -0.6792  0.1203
  135MOL0     C18101   9.582   5.811  10.957 -0.2270 -0.5863  0.2227
  135MOL0     C18102   9.460   5.900  10.962 -0.2717 -0.0230  0.0510
  135MOL0     C18103   9.388   5.899  11.105 -0.3460 -0.2116  0.1931
  135MOL0     C18104   9.448   5.994  11.197 -0.4724 -0.5220 -0.6109
  135MOL0     C18105   9.395   5.973  11.344 -0.5840 -1.1390  0.3631
  135MOL0     C18106   9.405   6.113  11.423 -0.7783  0.4421  0.0390
  135MOL0     N18107   9.543   6.166  11.438  0.7562 -0.1895 -0.1446
  135MOL0     C18108   9.664   6.101  11.424  0.2722  0.9433  0.4110
  135MOL0     C18109   9.758   6.196  11.393  0.2114  0.5171  0.4709
  135MOL0     C18110   9.904   6.188  11.339 -0.3476  0.4464 -0.3969
  135MOL0     C18111   9.980   6.089  11.420  0.0568  0.4821 -0.5916
  135MOL0     C18112  10.133   6.093  11.409 -0.8335 -0.5540 -0.3139
  135MOL0     C18113  10.215   6.002  11.499  0.1582 -0.1297  0.2948
  135MOL0     O18114  10.342   6.055  11.483 -0.1231 -0.6901 -0.4014
  135MOL0     C18115  10.450   6.009  11.547  0.2353  0.7237  0.1021
  135MOL0     C18116  10.572   6.055  11.498  0.0424  1.1242  0.6352
  135MOL0     C18117  10.687   6.007  11.562  0.0999 -0.4867 -0.6156
  135MOL0     C18118  10.806   6.088  11.505 -0.7562 -0.3070  0.0447
  135MOL0     C18119  10.688   5.924  11.678 -0.0515 -0.2416 -0.0457
  135MOL0     C18120  10.807   5.866  11.745 -0.3648  0.4127  0.6284
  135MOL0     O18121  10.928   5.907  11.708  0.7353 -1.0826  0.1335
  135MOL0     C18122  11.033   5.825  11.744  0.9716  0.1520  0.5551
  135MOL0     C18123  11.114   5.783  11.643  0.4359 -0.4449 -0.4843
  135MOL0     C18124  11.239   5.716  11.660 -0.3943  0.0377 -0.1864
  135MOL0     C18125  11.281   5.692  11.793 -0.1670 -0.1518  0.1763
  135MOL0     O18126  11.413   5.659  11.820 -0.1866 -0.3343 -0.1888
  135MOL0     C18127  11.425   5.584  11.944  0.0720  0.0293  0.0935
  135MOL0     C18128  11.550   5.492  11.929  0.7386  0.2547  0.0792
  135MOL0     C18129  11.532   5.378  11.821  1.2961 -0.2635  0.0708
  135MOL0     C18130  11.649   5.284  11.812  0.6745  0.6570 -0.6171
  135MOL0     C18131  11.787   5.352  11.761  0.8302 -0.3210  0.0386
  135MOL0     C18132  11.878   5.272  11.666  0.1058 -0.4477 -0.4645
  135MOL0     C18133  11.901   5.129  11.706  0.1489 -0.0204  0.2772
  135MOL0     C18134  11.974   5.118  11.837 -0.4827  0.2548 -0.1339
  135MOL0    Cl18135  12.141   5.189  11.843  0.0242  0.2162  0.5156
  135MOL0     C18136  11.200   5.743  11.895  0.2814 -0.3288 -0.2826
  135MOL0     C18137  11.075   5.800  11.865  0.8844 -0.4075 -0.4859
  135MOL0     O18138  10.784   5.786  11.829 -0.5468  0.8237  0.2755
  135MOL0     C18139  10.560   5.886  11.719  1.1085  0.0436  0.9241
  135MOL0     C18140  10.441   5.924  11.655  0.4825  0.0891  0.6471
  135MOL0     N18141   9.692   6.317  11.407 -0.2287 -0.1689 -0.0299
  135MOL0     N18142   9.564   6.300  11.436  0.0806 -0.1874 -0.9735
  135MOL0     C18143  10.089   5.843  10.857 -0.0757  0.5732 -0.5389
  135MOL0     C18144  10.178   5.940  10.844 -0.0666 -0.6356  0.6288
  135MOL0     C18145  10.367   6.375  10.905 -0.1500  0.1506 -0.3485
  135MOL0     C18146  10.497   6.326  10.872  0.9685  0.2804  0.0890
  135MOL0     C18147  10.603   6.412  10.878 -0.3549 -0.0840  0.4008
  135MOL0     C18148  10.585   6.547  10.908 -1.3304 -0.3813 -0.2893
  135MOL0     O18149  10.690   6.644  10.910  0.3623  0.4378 -0.0491
  135MOL0     C18150  10.822   6.592  10.907 -0.8588  0.8547 -0.9984
  135MOL0     C18151  10.918   6.709  10.908  0.4831 -1.0130  0.1847
  135MOL0     C18152  10.914   6.764  11.052  0.3671  0.4174 -0.1943
  135MOL0     C18153  10.987   6.898  11.056  0.4010 -0.1546  0.6656
  135MOL0     C18154  11.128   6.875  11.026 -1.4445 -0.0729 -0.0816
  135MOL0     C18155  11.252   6.864  11.015  0.2179 -0.6257  0.0155
  135MOL0     C18156  10.457   6.598  10.931  0.4648  1.1927 -0.5403
  135MOL0     C18157  10.352   6.511  10.940  0.3235  0.4413  0.4691
  135MOL0     H18158  10.038   6.180  11.043 -0.1342  0.5395 -2.6537
  135MOL0     H18159   9.874   6.004  11.075  1.8626  1.1831  1.3102
  135MOL0     H18160   9.842   5.769  10.729 -1.0126 -0.6817 -0.7923
  135MOL0     H18161   9.778   5.644  10.825  0.1587 -0.1493 -1.2634
  135MOL0     H18162   9.693   5.944  10.828  0.2060 -0.8470 -0.6958
  135MOL0     H18163   9.607   5.814  10.746  0.0525  0.5080 -0.5748
  135MOL0     H18164   9.563   5.703  10.965  2.4026 -1.1036  0.5359
  135MOL0     H18165   9.650   5.818  11.043 -1.0299  0.1995  0.8174
  135MOL0     H18166   9.494   6.003  10.944  1.8031 -0.7528 -0.3990
  135MOL0     H18167   9.392   5.871  10.882 -1.0796 -1.4236  1.2014
  135MOL0     H18168   9.289   5.938  11.084 -1.1018 -2.4696 -0.8387
  135MOL0     H18169   9.384   5.794  11.135 -0.3822 -0.2451  0.0726
  135MOL0     H18170   9.557   5.998  11.200 -0.4496 -1.1555  1.5103
  135MOL0     H18171   9.423   6.096  11.168  0.3229 -0.7187 -2.0870
  135MOL0     H18172   9.289   5.947  11.334 -0.3201 -1.8342 -0.8714
  135MOL0     H18173   9.451   5.897  11.399  1.6898  1.6743  2.2609
  135MOL0     H18174   9.362   6.089  11.521  2.6699 -1.4898  1.2516
  135MOL0     H18175   9.340   6.190  11.379 -0.5298  1.1506  0.8737
  135MOL0     H18176   9.680   5.994  11.428  1.2375  1.0103 -0.8511
  135MOL0     H18177   9.905   6.147  11.237  1.3109  1.3840 -0.7917
  135MOL0     H18178   9.954   6.284  11.327  3.9849 -1.7166 -1.6212
  135MOL0     H18179   9.937   5.991  11.394 -2.1695  0.4847  2.4546
  135MOL0     H18180   9.957   6.103  11.526 -1.2153 -1.0812 -0.6108
  135MOL0     H18181  10.159   6.195  11.439  0.2493 -1.3871  1.8316
  135MOL0     H18182  10.170   6.075  11.307  0.1557 -2.9180  0.3818
  135MOL0     H18183  10.212   5.896  11.473 -0.1842 -1.3741  4.6938
  135MOL0     H18184  10.182   6.007  11.603 -2.7788 -0.5813 -0.5167
  135MOL0     H18185  10.577   6.117  11.409  3.2077  0.6074  0.3258
  135MOL0     H18186  10.850   6.145  11.587 -0.1576 -0.1419 -0.3839
  135MOL0     H18187  10.882   6.024  11.458 -1.0213 -0.8622  0.3550
  135MOL0     H18188  10.778   6.163  11.431  1.8471  0.0839 -0.6437
  135MOL0     H18189  11.075   5.811  11.545 -1.2061 -0.2871  0.1827
  135MOL0     H18190  11.291   5.693  11.568  0.9307  1.7833  0.0591
  135MOL0     H18191  11.428   5.647  12.033  1.0428 -0.9547  0.7903
  135MOL0     H18192  11.339   5.518  11.958 -1.7549  2.3972  0.6560
  135MOL0     H18193  11.635   5.558  11.907  0.1326  1.0509  0.1060
  135MOL0     H18194  11.568   5.450  12.028  1.1604  0.8205  0.2475
  135MOL0     H18195  11.512   5.422  11.723 -2.5113 -2.1175 -0.1742
  135MOL0     H18196  11.437   5.326  11.836  1.0434  0.5796  1.5567
  135MOL0     H18197  11.662   5.243  11.913 -2.7323 -2.6426 -1.2584
  135MOL0     H18198  11.626   5.196  11.750  0.2653  1.3178 -1.4180
  135MOL0     H18199  11.836   5.381  11.854 -1.1044 -3.2629  2.1312
  135MOL0     H18200  11.766   5.445  11.707  1.0778 -1.3682 -1.9659
  135MOL0     H18201  11.840   5.280  11.564  0.2339  1.8448 -0.3824
  135MOL0     H18202  11.975   5.321  11.666 -0.3320  0.4464  0.4811
  135MOL0     H18203  11.960   5.089  11.623  1.6914  1.2801  0.6895
  135MOL0     H18204  11.808   5.073  11.711  0.7513 -0.9299  3.6940
  135MOL0     H18205  11.973   5.015  11.872 -5.2470  0.4456  0.9433
  135MOL0     H18206  11.907   5.171  11.906 -0.6981 -1.0645  0.6978
  135MOL0     H18207  11.220   5.744  12.002 -2.2249  3.9939  0.3627
  135MOL0     H18208  11.022   5.849  11.946  2.9506  0.9113  0.1467
  135MOL0     H18209  10.542   5.815  11.799 -0.0390 -1.3787 -0.5103
  135MOL0     H18210  10.345   5.894  11.696  0.1992  2.1748  1.6863
  135MOL0     H18211  10.095   5.746  10.808  0.0056  0.2448  0.1108
  135MOL0     H18212  10.272   5.930  10.791 -1.4971 -2.2462 -1.8387
  135MOL0     H18213  10.515   6.225  10.837 -0.3128  0.4687 -1.1813
  135MOL0     H18214  10.694   6.367  10.839 -0.6986  1.0710 -1.9019
  135MOL0     H18215  10.831   6.530  10.996  2.2108 -0.5969 -2.1411
  135MOL0     H18216  10.838   6.536  10.814 -2.1294 -1.7146  0.2371
  135MOL0     H18217  10.880   6.781  10.835 -0.1366  0.6986  2.0932
  135MOL0     H18218  11.020   6.689  10.874  0.0465  1.7639 -3.3606
  135MOL0     H18219  10.967   6.695  11.120 -1.0893 -3.7081 -2.8419
  135MOL0     H18220  10.817   6.781  11.099 -0.5713 -1.7639 -1.1979
  135MOL0     H18221  10.969   6.931  11.159 -0.8866 -1.4484  0.8959
  135MOL0     H18222  10.946   6.978  10.994  1.3089 -0.7783 -0.7604
  135MOL0     H18223  11.358   6.853  11.016  0.2158 -0.7561  1.4999
  135MOL0     H18224  10.444   6.698  10.971 -1.1098  0.5259  0.7427
  135MOL0     H18225  10.257   6.541  10.983  0.1305 -0.4567  0.6925
  136MOL0     O18226   3.006   6.401   0.374 -0.3396 -0.2116  0.1573
  136MOL0     C18227   3.077   6.314   0.426 -0.0102  0.8599 -0.4252
  136MOL0     O18228   3.027   6.190   0.465  0.5159 -0.4780 -0.1132
  136MOL0     C18229   2.893   6.163   0.460 -0.3075  0.5046 -1.3506
  136MOL0     C18230   2.800   6.235   0.542 -1.3289  0.5036 -0.3278
  136MOL0     C18231   2.662   6.213   0.547 -0.6604 -0.5110 -0.6527
  136MOL0     C18232   2.615   6.130   0.456  0.2253  1.4754  0.0967
  136MOL0     O18233   2.479   6.102   0.463  0.0292 -0.0645  0.3352
  136MOL0     C18234   2.411   6.060   0.347  0.1505  0.1401 -0.0922
  136MOL0     C18235   2.264   6.083   0.370  0.0261  0.4714 -0.2536
  136MOL0     C18236   2.214   5.988   0.466  0.0504  0.1656 -0.4704
  136MOL0     C18237   2.064   6.005   0.497 -0.2473  0.4823 -0.1186
  136MOL0     C18238   2.011   5.900   0.600 -0.5775 -0.2807 -0.3741
  136MOL0     C18239   1.863   5.937   0.624  0.4246 -0.3466  0.9837
  136MOL0     C18240   1.791   5.817   0.686  0.6981 -0.4215 -0.4983
  136MOL0     C18241   1.674   5.853   0.779  0.6239 -0.7849 -0.1868
  136MOL0     N18242   1.554   5.895   0.712 -0.8091  0.6494 -0.1231
  136MOL0     C18243   1.437   5.827   0.726  0.6479  0.3753  0.0542
  136MOL0     C18244   1.353   5.888   0.630 -1.4629 -0.3880  0.1473
  136MOL0     C18245   1.212   5.858   0.593  0.8644  0.1591 -0.6209
  136MOL0     C18246   1.099   5.904   0.699 -0.0789 -0.2395  0.8400
  136MOL0     C18247   0.972   5.843   0.657 -0.9106  0.0979  0.2926
  136MOL0     C18248   0.857   5.895   0.737 -0.2932  0.0376  0.5042
  136MOL0     O18249   0.812   6.018   0.678  0.2076  0.1207  0.4794
  136MOL0     C18250   0.702   6.083   0.732  0.4376  0.6887  0.8945
  136MOL0     C18251   0.618   6.032   0.836  0.3512 -0.0986  0.5227
  136MOL0     C18252   0.508   6.110   0.871 -0.1595  0.7019  0.3370
  136MOL0     C18253   0.411   6.041   0.968 -0.1143  0.1604  0.3780
  136MOL0     C18254   0.475   6.231   0.804  0.1501 -0.5757 -0.2777
  136MOL0     C18255   0.370   6.327   0.842  0.3103 -0.6086 -0.4481
  136MOL0     O18256   0.358   6.447   0.773  0.1160  0.9095 -0.0775
  136MOL0     C18257   0.235   6.503   0.777 -0.0469 -0.1024 -0.0248
  136MOL0     C18258   0.145   6.497   0.668 -0.8622  0.2660 -0.0202
  136MOL0     C18259   0.028   6.566   0.674  0.5949 -0.1285 -0.0427
  136MOL0     C18260  -0.009   6.637   0.789 -0.6034 -0.0977  0.1339
  136MOL0     O18261  -0.116   6.720   0.812 -0.0287 -0.3466  0.0654
  136MOL0     C18262  -0.211   6.734   0.696 -0.9762 -0.3579 -0.8149
  136MOL0     C18263  -0.319   6.841   0.735 -0.2069 -0.3212 -0.1077
  136MOL0     C18264  -0.428   6.828   0.635 -0.7892  0.0713  0.0442
  136MOL0     C18265  -0.562   6.886   0.691  0.1605 -0.1172  0.5356
  136MOL0     C18266  -0.675   6.824   0.613 -0.0322  0.4287 -0.1567
  136MOL0     C18267  -0.663   6.854   0.461  1.2863 -0.2777  0.6450
  136MOL0     C18268  -0.772   6.793   0.369  0.3595 -0.6766 -0.3854
  136MOL0     C18269  -0.905   6.867   0.402 -0.2252 -0.4428  0.4031
  136MOL0    Cl18270  -1.034   6.809   0.298 -0.1267  0.3610  0.2852
  136MOL0     C18271   0.079   6.647   0.893 -0.3511  0.7808  0.0826
  136MOL0     C18272   0.201   6.580   0.889  0.4498  0.7388  0.5764
  136MOL0     O18273   0.309   6.302   0.947 -0.5919 -0.5593  0.6961
  136MOL0     C18274   0.554   6.269   0.697 -0.2534 -0.2360 -0.2414
  136MOL0     C18275   0.668   6.199   0.664 -0.0361 -0.6735 -0.2094
  136MOL0     N18276   1.418   6.004   0.579 -0.0389  0.3668  0.3846
  136MOL0     N18277   1.544   5.993   0.619  0.4603  0.6400  0.7500
  136MOL0     C18278   2.694   6.070   0.357 -0.5607  0.5849  0.2572
  136MOL0     C18279   2.833   6.081   0.366 -0.4121 -0.0983 -0.1177
  136MOL0     C18280   3.226   6.325   0.432  0.5807 -1.9393 -0.2143
  136MOL0     C18281   3.287   6.442   0.378 -0.3291  0.0106  0.9420
  136MOL0     C18282   3.427   6.466   0.399  0.1804  0.1192 -0.3880
  136MOL0     C18283   3.503   6.379   0.479  0.7503  0.0735 -0.0651
  136MOL0     O18284   3.634   6.394   0.517 -0.7503  1.4580 -0.5112
  136MOL0     C18285   3.708   6.489   0.459  0.1808  0.2806 -0.3031
  136MOL0     C18286   3.851   6.495   0.516 -0.7757  0.3056 -0.8684
  136MOL0     C18287   3.905   6.636   0.532 -0.1502  0.0435 -0.0346
  136MOL0     C18288   3.917   6.712   0.399  0.1693 -0.7555  0.2273
  136MOL0     C18289   4.020   6.667   0.311 -0.1919  0.3000  0.1358
  136MOL0     C18290   4.109   6.634   0.234  0.4559 -0.8242 -0.4796
  136MOL0     C18291   3.439   6.272   0.539  0.7759  0.1103  0.4288
  136MOL0     C18292   3.300   6.248   0.516  0.2611  0.0352  0.2384
  136MOL0     H18293   2.844   6.305   0.613 -2.7281 -1.2947  2.4445
  136MOL0     H18294   2.603   6.264   0.622  0.1170 -2.0554  1.0823
  136MOL0     H18295   2.440   6.114   0.257 -0.7038  3.8641  1.6449
  136MOL0     H18296   2.427   5.953   0.334 -2.6743 -0.1891 -1.7713
  136MOL0     H18297   2.263   6.188   0.401 -1.2525  0.4397 -0.1515
  136MOL0     H18298   2.222   6.072   0.270  0.4929 -1.6960 -0.2603
  136MOL0     H18299   2.244   5.888   0.433  0.2765  0.8863 -2.5545
  136MOL0     H18300   2.271   6.002   0.558  2.7867  2.5559 -2.3521
  136MOL0     H18301   2.052   6.108   0.530  1.1254  0.8089 -0.5616
  136MOL0     H18302   2.011   6.002   0.401  1.8880 -0.8768 -1.3243
  136MOL0     H18303   2.033   5.798   0.567 -0.2087 -0.4141  0.2660
  136MOL0     H18304   2.072   5.909   0.690  0.4362 -1.7658 -0.8666
  136MOL0     H18305   1.854   6.026   0.687  0.6543  0.0117  0.5161
  136MOL0     H18306   1.817   5.955   0.527  3.1886  0.3478 -0.2892
  136MOL0     H18307   1.772   5.735   0.617  1.8728 -1.8107  0.7621
  136MOL0     H18308   1.860   5.766   0.754  0.4552  0.3427  0.3461
  136MOL0     H18309   1.701   5.936   0.844 -0.7248  1.4185 -2.2642
  136MOL0     H18310   1.653   5.766   0.842 -2.9342  0.7218  0.9765
  136MOL0     H18311   1.396   5.763   0.804  0.1353  3.5840  2.6452
  136MOL0     H18312   1.186   5.894   0.493  1.4106  0.5770 -0.6123
  136MOL0     H18313   1.217   5.748   0.590 -0.0766  0.0004  1.5156
  136MOL0     H18314   1.093   6.014   0.693  1.7217 -0.1964 -0.8655
  136MOL0     H18315   1.120   5.870   0.801 -2.0979 -1.0329  1.0366
  136MOL0     H18316   0.973   5.734   0.664 -1.7540  0.1354  1.4087
  136MOL0     H18317   0.952   5.865   0.552 -2.9587 -0.7672  0.4384
  136MOL0     H18318   0.890   5.907   0.841  1.0536 -1.0690  0.2379
  136MOL0     H18319   0.778   5.819   0.740  1.9226 -2.3933  1.4021
  136MOL0     H18320   0.622   5.928   0.868 -0.5051 -0.6563 -1.0544
  136MOL0     H18321   0.418   6.089   1.066 -0.7794  1.3446 -0.1349
  136MOL0     H18322   0.308   6.047   0.933  0.0398  0.6908 -0.0064
  136MOL0     H18323   0.430   5.936   0.992 -1.6664  0.1608  1.7780
  136MOL0     H18324   0.175   6.444   0.578 -0.5347  0.2605  0.0912
  136MOL0     H18325  -0.046   6.562   0.595 -1.2716 -0.2961  1.6247
  136MOL0     H18326  -0.156   6.769   0.609 -0.3815 -0.2947 -0.4159
  136MOL0     H18327  -0.254   6.637   0.673 -0.4719 -0.8740  0.3338
  136MOL0     H18328  -0.355   6.829   0.837  1.3565 -0.0970  0.4991
  136MOL0     H18329  -0.277   6.941   0.719 -1.5992  0.3183  0.1467
  136MOL0     H18330  -0.437   6.725   0.601  2.2118  0.3040 -1.7971
  136MOL0     H18331  -0.396   6.886   0.548 -0.7383  0.8151  0.5503
  136MOL0     H18332  -0.568   6.859   0.796  0.8867  0.8916  0.8539
  136MOL0     H18333  -0.559   6.995   0.680  1.0836 -0.2080 -0.3855
  136MOL0     H18334  -0.768   6.874   0.643 -0.3957  0.0731 -0.6747
  136MOL0     H18335  -0.674   6.716   0.628  3.0001  0.1894 -1.4023
  136MOL0     H18336  -0.672   6.962   0.449 -0.8530 -0.5856 -1.1475
  136MOL0     H18337  -0.565   6.827   0.420  1.6527  2.0640 -0.2106
  136MOL0     H18338  -0.787   6.686   0.383  0.3345 -0.6579 -0.2725
  136MOL0     H18339  -0.747   6.812   0.264  0.1424 -1.5383 -0.5998
  136MOL0     H18340  -0.898   6.973   0.372 -2.6057 -0.6255 -1.0121
  136MOL0     H18341  -0.936   6.863   0.506 -0.5268 -0.2404  0.3228
  136MOL0     H18342   0.047   6.715   0.972  0.0242  3.0659 -1.6456
  136MOL0     H18343   0.263   6.592   0.978 -1.1685  2.1045  1.5685
  136MOL0     H18344   0.532   6.357   0.638 -0.9420 -0.7971 -0.8421
  136MOL0     H18345   0.732   6.232   0.583  3.5620 -0.3126  2.5255
  136MOL0     H18346   2.645   6.002   0.287  0.1039 -0.5281  0.8532
  136MOL0     H18347   2.904   6.027   0.305 -0.1467  1.4697 -1.2637
  136MOL0     H18348   3.218   6.504   0.322 -4.0759 -2.7801  2.0806
  136MOL0     H18349   3.467   6.548   0.340 -0.0309  1.0295  0.7036
  136MOL0     H18350   3.711   6.466   0.352 -0.3753 -2.0981  0.1504
  136MOL0     H18351   3.660   6.587   0.469 -2.3656 -0.9174  0.0972
  136MOL0     H18352   3.916   6.438   0.449  0.1847 -0.0683  0.3616
  136MOL0     H18353   3.862   6.450   0.615  1.9585 -0.2856 -1.3599
  136MOL0     H18354   4.002   6.623   0.580 -1.2775 -2.8865  1.7013
  136MOL0     H18355   3.827   6.689   0.588 -1.5324 -0.9105 -0.9986
  136MOL0     H18356   3.942   6.815   0.426  2.7413 -1.4239  0.6168
  136MOL0     H18357   3.824   6.726   0.342 -0.0667  0.3484  0.8503
  136MOL0     H18358   4.193   6.622   0.169  1.0843  0.1262  0.1423
  136MOL0     H18359   3.494   6.217   0.614  1.3563 -1.2764 -0.9529
  136MOL0     H18360   3.251   6.168   0.570  1.9175 -0.5037  0.9970
  137MOL0     O18361   4.385   2.741   8.534  0.0235  0.4533 -0.3224
  137MOL0     C18362   4.415   2.643   8.609  0.3102  0.6120  0.4547
  137MOL0     O18363   4.334   2.549   8.666  1.0811  0.7496  0.6649
  137MOL0     C18364   4.191   2.568   8.661  0.3159 -0.0579  0.2988
  137MOL0     C18365   4.108   2.526   8.553  0.5301  0.5593 -0.3118
  137MOL0     C18366   3.979   2.559   8.546  0.2894 -0.8527 -0.4301
  137MOL0     C18367   3.929   2.647   8.645  0.2831  0.4684 -0.5076
  137MOL0     O18368   3.798   2.690   8.644  0.3323  0.8131 -0.2650
  137MOL0     C18369   3.710   2.658   8.534 -0.0250 -0.5755 -0.2849
  137MOL0     C18370   3.575   2.739   8.531 -0.0064  0.3504  0.3197
  137MOL0     C18371   3.496   2.735   8.667 -0.8247  0.7068  0.1945
  137MOL0     C18372   3.357   2.782   8.639 -0.3976 -0.4754  0.4089
  137MOL0     C18373   3.266   2.773   8.762 -0.0838  0.1214 -0.1415
  137MOL0     C18374   3.132   2.842   8.743  0.4468 -0.5899 -0.2932
  137MOL0     C18375   3.043   2.793   8.624 -1.2049  0.2513 -0.8663
  137MOL0     C18376   2.902   2.831   8.650  0.2822 -0.2269  0.0656
  137MOL0     N18377   2.826   2.759   8.755 -0.7514  0.6648 -0.5403
  137MOL0     C18378   2.797   2.623   8.760  0.3281  0.0288  0.0718
  137MOL0     C18379   2.734   2.604   8.878  0.2747  0.3685 -0.2766
  137MOL0     C18380   2.673   2.477   8.945  0.1044  0.2699 -0.0417
  137MOL0     C18381   2.799   2.402   8.995 -0.0779 -0.2349  0.7627
  137MOL0     C18382   2.777   2.271   9.051  0.1156  0.1676 -0.6150
  137MOL0     C18383   2.643   2.264   9.119  0.3798 -0.6519 -1.0914
  137MOL0     O18384   2.553   2.226   9.020 -0.5110  0.1168 -0.4964
  137MOL0     C18385   2.416   2.252   9.025  0.3303  0.0530 -0.8700
  137MOL0     C18386   2.334   2.219   8.919 -0.3932  0.0929  0.2925
  137MOL0     C18387   2.195   2.219   8.919 -0.5495 -0.6848 -0.2624
  137MOL0     C18388   2.115   2.173   8.801 -0.2316 -1.1655  0.4534
  137MOL0     C18389   2.123   2.251   9.039  0.5121  0.5802 -0.5829
  137MOL0     C18390   1.977   2.273   9.056  0.2332 -1.1044  0.0407
  137MOL0     O18391   1.945   2.293   9.183  0.0272 -0.0073 -0.4216
  137MOL0     C18392   1.812   2.301   9.220  0.3679  1.5435 -0.7997
  137MOL0     C18393   1.716   2.384   9.162  0.1527  0.1679 -0.0058
  137MOL0     C18394   1.583   2.378   9.202  0.3040  0.6144 -0.3181
  137MOL0     C18395   1.543   2.291   9.303 -1.1981 -0.9325 -0.2914
  137MOL0     O18396   1.418   2.257   9.350  0.0375 -0.6149 -0.7616
  137MOL0     C18397   1.316   2.228   9.256 -0.2587  0.2695 -0.3639
  137MOL0     C18398   1.199   2.164   9.335 -0.3989 -0.0674 -0.0760
  137MOL0     C18399   1.139   2.245   9.445 -0.4129 -0.5513 -0.1369
  137MOL0     C18400   1.092   2.385   9.405 -0.4535 -0.2977 -0.3449
  137MOL0     C18401   1.005   2.453   9.521 -0.2578  0.4625 -0.0769
  137MOL0     C18402   1.081   2.526   9.637  0.0726 -0.7605  0.5814
  137MOL0     C18403   0.986   2.641   9.695 -0.1063  0.9190  0.3814
  137MOL0     C18404   0.856   2.580   9.765  0.8397 -0.8467 -0.1781
  137MOL0    Cl18405   0.735   2.710   9.803 -0.2835  0.2127 -0.1219
  137MOL0     C18406   1.639   2.218   9.369 -0.2729 -0.9854 -0.4170
  137MOL0     C18407   1.773   2.225   9.333  0.1286  0.1163 -0.3248
  137MOL0     O18408   1.904   2.297   8.954  0.4664  0.1013  0.5910
  137MOL0     C18409   2.212   2.271   9.150  0.6962  0.2051  0.0755
  137MOL0     C18410   2.353   2.268   9.151  0.1450 -0.7728  0.2234
  137MOL0     N18411   2.718   2.720   8.946  0.0939  0.1790  0.5375
  137MOL0     N18412   2.777   2.809   8.873 -0.0420 -0.6739 -0.7303
  137MOL0     C18413   4.009   2.688   8.752  0.8681  0.0309  0.2099
  137MOL0     C18414   4.140   2.647   8.761  0.2497  0.0819 -0.5445
  137MOL0     C18415   4.563   2.621   8.629  0.7111 -0.3680 -0.7757
  137MOL0     C18416   4.633   2.499   8.664 -1.1245 -0.2613 -0.5249
  137MOL0     C18417   4.772   2.486   8.675 -0.0770 -0.4151 -0.0010
  137MOL0     C18418   4.851   2.606   8.660  0.1355  0.1478  0.0837
  137MOL0     O18419   4.986   2.597   8.655 -0.8427 -0.1927 -0.4769
  137MOL0     C18420   5.063   2.478   8.675  0.0954 -0.8832  0.6517
  137MOL0     C18421   5.213   2.514   8.677 -0.3788 -0.0342 -0.7093
  137MOL0     C18422   5.309   2.396   8.714 -0.0637  0.3643  0.6536
  137MOL0     C18423   5.448   2.446   8.747  0.6076 -0.1842 -1.0237
  137MOL0     C18424   5.533   2.333   8.760  0.5420  0.3014 -0.8028
  137MOL0     C18425   5.607   2.240   8.784  0.0805  0.1961 -0.1804
  137MOL0     C18426   4.784   2.727   8.623  0.5579  1.0158  0.3513
  137MOL0     C18427   4.645   2.734   8.611 -0.4668  0.2438  0.0900
  137MOL0     H18428   4.157   2.468   8.475  0.8668 -0.1233  0.3884
  137MOL0     H18429   3.918   2.528   8.462 -0.6548 -1.5318  0.4787
  137MOL0     H18430   3.759   2.696   8.444 -0.6566  1.5282  0.2078
  137MOL0     H18431   3.697   2.549   8.533  0.2097 -0.6051 -0.3318
  137MOL0     H18432   3.590   2.841   8.493 -1.0818  0.2720 -0.3332
  137MOL0     H18433   3.518   2.695   8.449  0.3448  1.3134 -0.4690
  137MOL0     H18434   3.505   2.633   8.705  2.3392  0.5931 -0.5645
  137MOL0     H18435   3.547   2.803   8.735 -0.6169  0.1462  0.6102
  137MOL0     H18436   3.350   2.877   8.585 -3.2958 -1.4502 -1.1999
  137MOL0     H18437   3.309   2.708   8.574 -0.5724 -0.1678  0.1860
  137MOL0     H18438   3.257   2.670   8.798  1.0782  0.6435  1.7927
  137MOL0     H18439   3.311   2.811   8.854 -0.8219  1.2247 -0.2294
  137MOL0     H18440   3.073   2.823   8.834 -3.2386 -1.9274 -2.7246
  137MOL0     H18441   3.161   2.946   8.726 -0.0435 -0.1350  1.4501
  137MOL0     H18442   3.078   2.855   8.541  1.8157 -0.3448 -0.1659
  137MOL0     H18443   3.058   2.685   8.617  1.6346  0.5133 -0.1959
  137MOL0     H18444   2.847   2.820   8.556  2.8847 -1.9500 -1.3913
  137MOL0     H18445   2.906   2.938   8.672 -0.1086 -0.3055  0.5244
  137MOL0     H18446   2.826   2.549   8.687  1.6145  1.7844 -1.2943
  137MOL0     H18447   2.602   2.513   9.020 -2.4957  1.2191 -2.7432
  137MOL0     H18448   2.614   2.418   8.874  1.0218 -2.2337  1.1732
  137MOL0     H18449   2.845   2.464   9.073 -0.3669  2.3636 -1.0090
  137MOL0     H18450   2.863   2.388   8.908 -2.1691  0.5546 -1.0041
  137MOL0     H18451   2.857   2.245   9.121  0.4104  3.1239  0.2733
  137MOL0     H18452   2.773   2.199   8.968 -0.8241 -1.1057  0.4900
  137MOL0     H18453   2.612   2.360   9.163 -1.2617 -0.6567 -2.1469
  137MOL0     H18454   2.643   2.194   9.203 -2.0016  1.5890  0.9570
  137MOL0     H18455   2.391   2.206   8.827 -0.6961 -0.8251  0.2276
  137MOL0     H18456   2.182   2.140   8.721  0.2559  1.3628 -0.2591
  137MOL0     H18457   2.051   2.090   8.832  0.1339 -2.1269 -1.2056
  137MOL0     H18458   2.047   2.251   8.765  0.0015 -0.9034  0.5783
  137MOL0     H18459   1.749   2.458   9.090 -2.7156  0.6375 -0.9397
  137MOL0     H18460   1.504   2.439   9.160 -2.7377 -2.7290  0.0449
  137MOL0     H18461   1.279   2.313   9.199 -2.9838 -0.6853 -0.1702
  137MOL0     H18462   1.357   2.160   9.181 -2.5041 -1.1888 -0.3705
  137MOL0     H18463   1.117   2.129   9.272 -1.0456  2.1316 -0.5694
  137MOL0     H18464   1.229   2.072   9.385 -0.1965 -0.3987 -0.7970
  137MOL0     H18465   1.220   2.247   9.518 -1.2086 -0.4827  0.7566
  137MOL0     H18466   1.055   2.203   9.501  0.3272  0.6681  1.9718
  137MOL0     H18467   1.173   2.456   9.383 -1.4088  1.0561  0.3568
  137MOL0     H18468   1.024   2.367   9.322 -1.2768 -3.1809  0.8361
  137MOL0     H18469   0.928   2.384   9.555  0.5555 -1.3262 -1.6666
  137MOL0     H18470   0.950   2.534   9.473  1.7251  1.2847 -1.0905
  137MOL0     H18471   1.101   2.457   9.719  2.3687 -0.0416  0.6946
  137MOL0     H18472   1.172   2.565   9.591 -2.1198 -1.1221 -4.8548
  137MOL0     H18473   0.954   2.712   9.618 -0.5678  0.0828 -0.2164
  137MOL0     H18474   1.047   2.706   9.757 -1.6272  2.2340  0.5693
  137MOL0     H18475   0.896   2.545   9.860 -0.2472  0.7601  0.9209
  137MOL0     H18476   0.801   2.509   9.703 -0.9089  2.2104 -2.4110
  137MOL0     H18477   1.605   2.154   9.450  0.8367 -1.2196 -0.1280
  137MOL0     H18478   1.848   2.173   9.392 -1.4474  1.6784  3.3549
  137MOL0     H18479   2.159   2.285   9.243 -0.8198  1.7782 -0.9590
  137MOL0     H18480   2.406   2.301   9.240  0.7787  3.4283 -1.5052
  137MOL0     H18481   3.961   2.739   8.834 -2.3869 -2.9563  0.3893
  137MOL0     H18482   4.194   2.686   8.846 -2.8776 -0.3566  1.8314
  137MOL0     H18483   4.585   2.404   8.685 -0.1004 -0.6632  0.0506
  137MOL0     H18484   4.820   2.391   8.694  2.6281  0.6945 -0.8352
  137MOL0     H18485   5.024   2.431   8.766  4.0237 -3.5874  1.1929
  137MOL0     H18486   5.051   2.407   8.593  1.2428 -1.6313  1.1063
  137MOL0     H18487   5.237   2.583   8.759  0.4789 -1.1001 -0.0423
  137MOL0     H18488   5.247   2.564   8.585 -0.1209  1.9555  0.3960
  137MOL0     H18489   5.312   2.327   8.628  0.7237 -0.1984  1.1144
  137MOL0     H18490   5.271   2.349   8.805 -0.7180  1.3123  0.8853
  137MOL0     H18491   5.448   2.500   8.842  2.8383  0.5343 -1.3709
  137MOL0     H18492   5.494   2.509   8.670 -3.2695  1.4985 -2.2079
  137MOL0     H18493   5.667   2.159   8.818 -1.4795 -0.2895  1.5900
  137MOL0     H18494   4.833   2.824   8.622  3.2381 -0.0302  4.4580
  137MOL0     H18495   4.603   2.825   8.568 -0.2767 -1.1648 -3.3993
  138MOL0     O18496   8.149   2.537   5.489  0.0635 -0.8548  0.6007
  138MOL0     C18497   8.177   2.641   5.421 -0.3718 -0.3337 -0.6953
  138MOL0     O18498   8.106   2.689   5.315 -0.3598 -0.1480 -0.1681
  138MOL0     C18499   7.984   2.646   5.294  0.9404  0.7172  0.3819
  138MOL0     C18500   7.887   2.652   5.392  0.5370 -0.4283 -0.3864
  138MOL0     C18501   7.746   2.636   5.363 -1.1122  0.0922 -0.3207
  138MOL0     C18502   7.709   2.612   5.231  0.3984 -0.6491  0.2980
  138MOL0     O18503   7.575   2.599   5.194  0.5147  0.6938 -0.4560
  138MOL0     C18504   7.474   2.635   5.287 -0.3450 -0.3802  0.7253
  138MOL0     C18505   7.339   2.657   5.219  0.9889 -0.3724  0.3761
  138MOL0     C18506   7.231   2.694   5.326 -0.4784 -0.0185  0.1716
  138MOL0     C18507   7.089   2.707   5.264 -0.2808 -0.4615  0.4900
  138MOL0     C18508   6.979   2.723   5.361 -0.4029  0.5497  0.0958
  138MOL0     C18509   6.840   2.689   5.294 -1.3853 -0.3089 -0.0558
  138MOL0     C18510   6.718   2.673   5.388 -0.2914 -0.4867  0.0962
  138MOL0     C18511   6.584   2.659   5.314  0.1506  0.0223 -0.0239
  138MOL0     N18512   6.473   2.652   5.413 -0.0653 -0.6718  0.0228
  138MOL0     C18513   6.341   2.680   5.391 -0.4627  0.4114  1.0670
  138MOL0     C18514   6.280   2.656   5.502 -0.9241  0.4248 -0.0025
  138MOL0     C18515   6.127   2.676   5.525  0.2069 -0.6966  0.2252
  138MOL0     C18516   6.055   2.595   5.416  0.4470  0.5529 -0.7677
  138MOL0     C18517   5.908   2.642   5.424 -0.3368  0.5073 -0.2850
  138MOL0     C18518   5.833   2.551   5.332  0.5285  0.3009  0.2497
  138MOL0     O18519   5.717   2.620   5.296  0.5017 -0.4257 -0.3285
  138MOL0     C18520   5.592   2.583   5.344 -0.0725 -0.5400  0.1750
  138MOL0     C18521   5.573   2.593   5.487  0.1327  0.0101 -0.3717
  138MOL0     C18522   5.447   2.570   5.540  0.4976  0.1065 -0.5491
  138MOL0     C18523   5.448   2.541   5.685 -1.2812 -0.5276  0.6552
  138MOL0     C18524   5.339   2.537   5.447 -0.1876  0.1036 -1.0249
  138MOL0     C18525   5.205   2.507   5.502 -0.5304 -0.4475  0.4731
  138MOL0     O18526   5.110   2.474   5.402  0.1590  0.5969  0.0756
  138MOL0     C18527   4.974   2.456   5.440  0.3370 -0.5135 -0.6210
  138MOL0     C18528   4.905   2.377   5.358 -0.7773 -0.4283 -0.3036
  138MOL0     C18529   4.769   2.340   5.386  0.0682 -0.8148  0.5177
  138MOL0     C18530   4.706   2.405   5.492 -0.5336  0.0593  0.4651
  138MOL0     O18531   4.584   2.356   5.535  0.4443  0.0276 -0.0494
  138MOL0     C18532   4.582   2.304   5.669 -0.5066 -0.2133  0.4914
  138MOL0     C18533   4.441   2.294   5.724  0.0141 -0.5801  0.1376
  138MOL0     C18534   4.368   2.201   5.624  0.3805 -0.3139  0.7389
  138MOL0     C18535   4.225   2.162   5.671 -0.0908 -0.2975  1.8475
  138MOL0     C18536   4.130   2.100   5.559  0.0474 -0.2965 -0.1955
  138MOL0     C18537   3.985   2.092   5.613 -0.3215  0.2259 -0.7859
  138MOL0     C18538   3.893   2.043   5.508  1.0395 -0.0148 -0.5419
  138MOL0     C18539   3.751   2.017   5.551  0.4765 -0.1913  0.1118
  138MOL0    Cl18540   3.669   1.915   5.432 -0.0071 -0.0346  0.3184
  138MOL0     C18541   4.774   2.504   5.556  0.4661 -0.6251 -0.2637
  138MOL0     C18542   4.907   2.532   5.533  0.0338  0.3972 -0.5272
  138MOL0     O18543   5.186   2.499   5.622 -0.2423  0.4343  0.2272
  138MOL0     C18544   5.363   2.527   5.310  0.8099  0.0077 -0.7710
  138MOL0     C18545   5.488   2.566   5.255 -0.0039 -0.1059 -0.3593
  138MOL0     N18546   6.375   2.597   5.592  0.4081 -0.3127  0.1254
  138MOL0     N18547   6.490   2.618   5.546 -0.0751  0.0236  0.0149
  138MOL0     C18548   7.806   2.611   5.129  1.1530 -0.1193 -0.5423
  138MOL0     C18549   7.939   2.633   5.161  0.3723  0.5468 -0.2817
  138MOL0     C18550   8.316   2.683   5.446  1.1793 -0.3844 -0.0792
  138MOL0     C18551   8.407   2.625   5.533 -0.7696 -0.3913  0.0952
  138MOL0     C18552   8.532   2.685   5.558 -0.1874 -0.2157  0.2436
  138MOL0     C18553   8.559   2.813   5.507  0.3800 -0.1502  0.2027
  138MOL0     O18554   8.670   2.876   5.535  0.0177 -0.3111 -0.2541
  138MOL0     C18555   8.728   2.864   5.665 -0.1914  0.2974 -0.4551
  138MOL0     C18556   8.839   2.963   5.691 -0.5413  0.3296  0.9729
  138MOL0     C18557   8.799   3.069   5.790  0.9226  0.1292 -0.8626
  138MOL0     C18558   8.917   3.160   5.834 -0.1341 -0.5629  0.0578
  138MOL0     C18559   8.870   3.278   5.904  0.0055  0.5436 -0.3438
  138MOL0     C18560   8.815   3.370   5.960 -0.6256 -0.6276  0.2218
  138MOL0     C18561   8.468   2.870   5.423  0.2807  0.0273 -0.9772
  138MOL0     C18562   8.352   2.805   5.385 -0.4069  0.4118  0.4714
  138MOL0     H18563   7.934   2.680   5.485  1.8331 -1.4857 -0.6864
  138MOL0     H18564   7.680   2.642   5.449  0.2488 -3.0283  1.1101
  138MOL0     H18565   7.460   2.550   5.354 -1.2330 -1.6767 -1.0034
  138MOL0     H18566   7.495   2.728   5.341 -0.8765 -1.1772  2.3706
  138MOL0     H18567   7.343   2.731   5.139 -0.6728 -0.5720  0.0796
  138MOL0     H18568   7.311   2.567   5.163 -1.6879  1.3773 -1.3310
  138MOL0     H18569   7.223   2.613   5.399 -1.7296  0.7154  0.8934
  138MOL0     H18570   7.250   2.782   5.388 -1.4211 -1.7231  3.1494
  138MOL0     H18571   7.082   2.788   5.190  0.4370  0.0476  0.9619
  138MOL0     H18572   7.074   2.611   5.214  1.5609 -1.3295  1.5021
  138MOL0     H18573   7.002   2.659   5.447 -0.9850 -1.5309 -1.2161
  138MOL0     H18574   6.988   2.827   5.391 -1.8610  0.1330  2.1910
  138MOL0     H18575   6.829   2.756   5.208  2.8352  1.3440  0.4157
  138MOL0     H18576   6.855   2.592   5.246 -1.1535  0.8703 -2.5567
  138MOL0     H18577   6.736   2.583   5.448 -0.3472  0.7908  2.1422
  138MOL0     H18578   6.714   2.746   5.470 -1.5408  2.1832 -2.1504
  138MOL0     H18579   6.577   2.570   5.251 -1.6261  0.6149 -0.7318
  138MOL0     H18580   6.569   2.735   5.238  0.7444 -1.9031 -2.1825
  138MOL0     H18581   6.310   2.713   5.292  0.9334 -1.7771 -0.1814
  138MOL0     H18582   6.103   2.635   5.624 -2.0464  0.1172  0.0652
  138MOL0     H18583   6.089   2.779   5.525 -1.3391 -1.2305 -1.1309
  138MOL0     H18584   6.064   2.486   5.416 -2.4916  0.2230 -1.2013
  138MOL0     H18585   6.100   2.620   5.319  0.0140  3.8768 -0.2254
  138MOL0     H18586   5.893   2.747   5.397  1.9516  1.1064  0.5660
  138MOL0     H18587   5.872   2.635   5.527  0.4920  2.0793  0.1450
  138MOL0     H18588   5.810   2.450   5.367  1.4612 -1.0945 -2.7789
  138MOL0     H18589   5.889   2.537   5.239  0.5579 -0.1250  0.3296
  138MOL0     H18590   5.662   2.628   5.538  0.3427 -0.9582 -0.0706
  138MOL0     H18591   5.544   2.577   5.721 -0.3641 -2.5012  0.3510
  138MOL0     H18592   5.373   2.601   5.737 -0.7205 -0.2822  1.1937
  138MOL0     H18593   5.438   2.433   5.700 -3.2919 -0.9523 -2.7188
  138MOL0     H18594   4.957   2.329   5.276 -1.1972  1.0160 -1.4476
  138MOL0     H18595   4.723   2.269   5.318 -1.7342  2.9412 -2.5989
  138MOL0     H18596   4.629   2.205   5.675  1.6048  0.6426 -0.7239
  138MOL0     H18597   4.638   2.365   5.741  3.0019 -1.2751 -1.1287
  138MOL0     H18598   4.437   2.244   5.821  0.3424 -1.7079 -0.4171
  138MOL0     H18599   4.398   2.394   5.735 -1.4639 -1.3929  2.2802
  138MOL0     H18600   4.426   2.109   5.609  1.2534 -0.5180  4.5195
  138MOL0     H18601   4.356   2.253   5.529  0.6972 -1.3579  0.1027
  138MOL0     H18602   4.240   2.097   5.758  1.5709 -3.0190 -0.2944
  138MOL0     H18603   4.175   2.251   5.709 -0.4898  0.0738  0.4983
  138MOL0     H18604   4.172   2.004   5.527  0.7933  0.4636 -1.6104
  138MOL0     H18605   4.114   2.157   5.467  1.1706 -0.8002 -0.7100
  138MOL0     H18606   3.976   2.030   5.703  2.3397  1.2653  0.2917
  138MOL0     H18607   3.959   2.193   5.646  0.0112  0.0222  0.1234
  138MOL0     H18608   3.932   1.947   5.473 -2.5853 -1.7766 -0.2818
  138MOL0     H18609   3.886   2.113   5.425  0.6070 -0.4408 -0.8714
  138MOL0     H18610   3.703   2.113   5.571  3.3257  1.0241  1.6771
  138MOL0     H18611   3.758   1.974   5.651 -1.1101  2.2515  1.3630
  138MOL0     H18612   4.727   2.565   5.632  1.3979  2.5753 -2.0740
  138MOL0     H18613   4.947   2.615   5.591  2.5221 -1.8105  1.1355
  138MOL0     H18614   5.291   2.523   5.228 -0.1967  1.1957  0.0007
  138MOL0     H18615   5.497   2.563   5.147  1.5200  0.9000 -0.2862
  138MOL0     H18616   7.756   2.594   5.034 -2.1966 -1.1168  1.2599
  138MOL0     H18617   8.013   2.630   5.081 -0.2179  3.0051 -1.0172
  138MOL0     H18618   8.387   2.528   5.577  0.9846 -1.2681 -0.9299
  138MOL0     H18619   8.600   2.624   5.618  0.3057 -0.7832 -0.8702
  138MOL0     H18620   8.668   2.862   5.757  0.5988  2.9586  0.1972
  138MOL0     H18621   8.774   2.765   5.658 -1.7719 -0.5025 -0.0934
  138MOL0     H18622   8.876   3.015   5.602 -3.3207  1.7972  0.5566
  138MOL0     H18623   8.925   2.906   5.726  1.2713  0.6897 -2.4136
  138MOL0     H18624   8.760   3.017   5.879 -3.6553 -1.5000 -3.4591
  138MOL0     H18625   8.717   3.130   5.752  0.3305  0.2017  0.4570
  138MOL0     H18626   8.982   3.199   5.755 -0.2960  0.1723  0.2823
  138MOL0     H18627   8.983   3.103   5.899 -3.6997 -2.1542  2.5722
  138MOL0     H18628   8.776   3.462   5.999  2.1731  0.0756  1.6098
  138MOL0     H18629   8.490   2.974   5.400  4.7249  0.2479  2.7486
  138MOL0     H18630   8.287   2.852   5.312 -0.6313 -1.7929 -0.8311
  139MOL0     O18631   9.242   6.866   5.148  0.3361 -0.4472 -0.5795
  139MOL0     C18632   9.250   6.907   5.266  0.6661 -0.2560  0.1408
  139MOL0     O18633   9.148   6.975   5.330  0.0033  0.0175 -0.2781
  139MOL0     C18634   9.037   6.993   5.250 -0.3454 -0.6958  0.1626
  139MOL0     C18635   9.033   7.110   5.167  0.6625 -0.1575  0.0759
  139MOL0     C18636   8.927   7.142   5.081  0.0848  0.2784  0.0765
  139MOL0     C18637   8.810   7.060   5.088 -0.1710 -0.8062 -0.3761
  139MOL0     O18638   8.690   7.086   5.031  0.3082 -0.1511  0.5189
  139MOL0     C18639   8.664   7.206   4.960 -0.6220 -0.0377  0.9269
  139MOL0     C18640   8.519   7.219   4.945  0.3040 -0.6402 -0.9325
  139MOL0     C18641   8.440   7.250   5.083 -0.8863 -0.7119  1.5019
  139MOL0     C18642   8.287   7.261   5.045 -0.6317  0.0528 -0.2173
  139MOL0     C18643   8.197   7.291   5.162  0.2240 -0.1856  0.1388
  139MOL0     C18644   8.055   7.250   5.110 -0.5440 -0.5553 -0.7479
  139MOL0     C18645   7.964   7.252   5.237  0.1967  0.1877 -0.6896
  139MOL0     C18646   7.813   7.258   5.205  0.9963  0.3442 -0.1531
  139MOL0     N18647   7.761   7.393   5.185  0.0019  0.3757  0.5495
  139MOL0     C18648   7.649   7.437   5.250  0.3477  0.3002 -0.6073
  139MOL0     C18649   7.622   7.551   5.187 -0.6315 -0.1776 -0.6243
  139MOL0     C18650   7.513   7.640   5.235 -0.6154  0.3528  0.7498
  139MOL0     C18651   7.551   7.787   5.223 -1.0209 -0.4260  0.7567
  139MOL0     C18652   7.478   7.862   5.335 -1.0368  0.2102 -0.0478
  139MOL0     C18653   7.325   7.839   5.343 -0.7734 -0.0995 -0.6007
  139MOL0     O18654   7.266   7.898   5.225 -0.2232  0.2591  0.0965
  139MOL0     C18655   7.128   7.885   5.221  0.2517  0.0088  0.3237
  139MOL0     C18656   7.077   7.922   5.094  0.6175  0.1867  0.4201
  139MOL0     C18657   6.935   7.929   5.078 -0.2594  0.2022  0.1595
  139MOL0     C18658   6.889   8.005   4.950  0.2490  1.0172  0.4869
  139MOL0     C18659   6.849   7.885   5.181 -1.0838  0.4903  0.0374
  139MOL0     C18660   6.704   7.890   5.164  0.0440  0.8369 -0.0364
  139MOL0     O18661   6.653   7.865   5.037  0.1587 -0.2694 -0.1580
  139MOL0     C18662   6.518   7.876   5.005  0.9759  0.9906 -0.5243
  139MOL0     C18663   6.441   7.764   4.987 -0.3095  0.1371  0.9425
  139MOL0     C18664   6.304   7.773   4.975 -0.2680 -0.3396 -0.2645
  139MOL0     C18665   6.244   7.911   4.958 -0.2140 -0.4434  0.1958
  139MOL0     O18666   6.114   7.943   4.935  0.3558  0.1263  0.6880
  139MOL0     C18667   6.046   7.848   4.861 -0.1214  0.0550  0.3572
  139MOL0     C18668   6.067   7.855   4.713  0.9103  0.4061  0.4993
  139MOL0     C18669   5.983   7.753   4.635  0.1647 -0.2694 -0.2391
  139MOL0     C18670   6.025   7.768   4.494 -0.0597  0.0009  0.2288
  139MOL0     C18671   5.931   7.714   4.380  0.5412  0.3025  0.3131
  139MOL0     C18672   5.938   7.802   4.251  0.1917  1.2362  0.0976
  139MOL0     C18673   5.890   7.720   4.133 -0.2731 -0.1332 -0.3027
  139MOL0     C18674   5.813   7.806   4.036  0.5908  0.1506  0.4889
  139MOL0    Cl18675   5.908   7.917   3.928 -0.0562 -0.1364 -0.2105
  139MOL0     C18676   6.325   8.020   4.957  0.4365  0.8644 -0.2635
  139MOL0     C18677   6.459   8.003   4.989  0.5372  0.4245 -0.1533
  139MOL0     O18678   6.635   7.894   5.266 -0.2801 -0.5208 -0.1558
  139MOL0     C18679   6.896   7.831   5.302 -0.1010 -0.2805  1.0266
  139MOL0     C18680   7.036   7.840   5.316 -0.3138  0.6874  0.4148
  139MOL0     N18681   7.720   7.578   5.092  0.5518 -0.2406 -0.5280
  139MOL0     N18682   7.805   7.481   5.095  0.2820  0.0493  0.6582
  139MOL0     C18683   8.809   6.948   5.176 -0.2366 -0.5190 -0.2502
  139MOL0     C18684   8.922   6.913   5.254  0.8458  0.0222  0.2452
  139MOL0     C18685   9.364   6.871   5.351  0.0904  1.1335 -0.0148
  139MOL0     C18686   9.463   6.775   5.314 -0.7724  0.2272  0.2288
  139MOL0     C18687   9.577   6.745   5.378 -0.7238 -0.4124 -0.1156
  139MOL0     C18688   9.601   6.811   5.502 -0.2295 -0.3411  0.6309
  139MOL0     O18689   9.724   6.794   5.567 -0.4479 -0.1008 -0.1907
  139MOL0     C18690   9.839   6.731   5.503 -0.1723 -0.3004  0.4306
  139MOL0     C18691   9.968   6.753   5.577 -0.0245 -0.0085  0.2401
  139MOL0     C18692   9.973   6.688   5.718 -0.1412 -0.4408  0.1727
  139MOL0     C18693  10.043   6.548   5.707  0.4168 -0.2805 -0.2269
  139MOL0     C18694   9.973   6.440   5.632 -0.8219  0.0146 -0.1480
  139MOL0     C18695   9.935   6.335   5.583  0.2216 -0.7585  0.8472
  139MOL0     C18696   9.503   6.897   5.555  0.0662 -0.4634 -0.1888
  139MOL0     C18697   9.395   6.931   5.475  0.4623  0.0966 -0.5022
  139MOL0     H18698   9.115   7.181   5.168 -2.7886  4.3931  2.3739
  139MOL0     H18699   8.927   7.235   5.025  1.7774  0.9051  1.0146
  139MOL0     H18700   8.703   7.296   5.009 -0.4312 -0.0711  0.8403
  139MOL0     H18701   8.713   7.206   4.862  0.6363  0.3985  1.5299
  139MOL0     H18702   8.491   7.294   4.870 -0.1725  1.0793  0.9022
  139MOL0     H18703   8.475   7.132   4.895  0.3834 -1.4252  0.3120
  139MOL0     H18704   8.454   7.165   5.151  0.3906 -0.8436  1.1180
  139MOL0     H18705   8.461   7.342   5.138  2.4460 -0.2642 -0.2712
  139MOL0     H18706   8.277   7.339   4.970 -1.4943  0.2082  0.0445
  139MOL0     H18707   8.259   7.166   4.999  1.4245 -1.0015  0.5580
  139MOL0     H18708   8.221   7.228   5.249  1.0282 -0.7703 -0.4920
  139MOL0     H18709   8.218   7.394   5.191  1.9538 -0.9546  1.8263
  139MOL0     H18710   8.020   7.321   5.035 -1.5977 -1.2184 -0.8982
  139MOL0     H18711   8.057   7.150   5.067  0.4642  0.1007 -2.3031
  139MOL0     H18712   7.989   7.161   5.292 -1.3025 -0.0720 -0.4178
  139MOL0     H18713   7.996   7.334   5.303  6.5055  0.1712 -3.0561
  139MOL0     H18714   7.750   7.207   5.278 -2.1458 -0.4984 -3.2103
  139MOL0     H18715   7.787   7.199   5.117 -0.8911  3.7435 -2.0763
  139MOL0     H18716   7.594   7.391   5.332 -0.1936  0.9991 -0.5678
  139MOL0     H18717   7.431   7.607   5.171 -0.5736  0.0973  0.8259
  139MOL0     H18718   7.484   7.623   5.339  0.9702 -0.3043  1.1254
  139MOL0     H18719   7.524   7.843   5.133  0.2459 -1.9098 -0.6062
  139MOL0     H18720   7.660   7.797   5.235 -1.0852  1.3601  0.1831
  139MOL0     H18721   7.502   7.968   5.322 -0.9960 -0.0216 -2.2969
  139MOL0     H18722   7.516   7.817   5.427 -0.7245 -3.0509 -1.6493
  139MOL0     H18723   7.284   7.884   5.433 -0.1962 -1.7935  0.5625
  139MOL0     H18724   7.307   7.731   5.350  2.5476 -0.9330 -2.4617
  139MOL0     H18725   7.154   7.962   5.029  1.5621  0.4594  1.6711
  139MOL0     H18726   6.817   7.941   4.898  4.3577 -4.4704  0.6157
  139MOL0     H18727   6.843   8.100   4.978 -0.0688  0.9991  0.0413
  139MOL0     H18728   6.979   8.018   4.889 -0.7495 -1.1831 -1.6097
  139MOL0     H18729   6.512   7.683   5.000  3.0348  3.1901  4.1455
  139MOL0     H18730   6.247   7.681   4.979  0.3815 -0.6962  1.6656
  139MOL0     H18731   6.075   7.748   4.895  0.6760  1.7490  5.3680
  139MOL0     H18732   5.939   7.863   4.880 -0.7793 -0.5709 -2.3850
  139MOL0     H18733   6.035   7.954   4.680  0.0187 -1.0567 -3.7608
  139MOL0     H18734   6.174   7.835   4.698  0.9966 -1.2569  2.8468
  139MOL0     H18735   5.874   7.766   4.639 -0.1704 -2.3491 -1.0689
  139MOL0     H18736   6.007   7.652   4.670  1.8243  0.1855  0.0032
  139MOL0     H18737   6.048   7.874   4.478  1.4151 -0.1432  1.1725
  139MOL0     H18738   6.115   7.709   4.476 -1.0983 -0.6708 -3.5360
  139MOL0     H18739   5.828   7.708   4.416  1.5280  0.4331  3.4407
  139MOL0     H18740   5.960   7.610   4.360  1.2936  0.3668  0.9950
  139MOL0     H18741   5.881   7.894   4.269  0.5032  1.1062  1.9343
  139MOL0     H18742   6.044   7.821   4.235  0.6413  0.1094  1.5734
  139MOL0     H18743   5.836   7.628   4.160 -0.9512  0.4386  0.3392
  139MOL0     H18744   5.980   7.690   4.079  0.5397  0.6214  0.5893
  139MOL0     H18745   5.752   7.876   4.093  1.1336 -1.4422  3.2281
  139MOL0     H18746   5.750   7.738   3.978 -0.5493 -1.6616  3.5981
  139MOL0     H18747   6.272   8.113   4.939 -1.9313  0.2200  2.5997
  139MOL0     H18748   6.512   8.098   4.987 -0.0349  0.7827  0.8632
  139MOL0     H18749   6.829   7.799   5.381 -1.7720 -1.9781 -0.9774
  139MOL0     H18750   7.073   7.798   5.409 -0.7722  1.6572  1.0551
  139MOL0     H18751   8.725   6.880   5.174  0.3039 -1.3486  1.8356
  139MOL0     H18752   8.909   6.822   5.312  0.8812  0.5881  1.1645
  139MOL0     H18753   9.454   6.728   5.216  1.6896 -0.3840  0.2455
  139MOL0     H18754   9.645   6.676   5.331 -2.3182 -1.5514 -0.8560
  139MOL0     H18755   9.815   6.624   5.504  0.5106 -0.4608  1.7436
  139MOL0     H18756   9.849   6.768   5.401  0.4458 -1.6665 -0.0146
  139MOL0     H18757   9.980   6.861   5.591 -0.2937  0.1962 -0.9801
  139MOL0     H18758  10.049   6.702   5.526 -0.9111  0.2333 -1.4761
  139MOL0     H18759   9.873   6.679   5.760 -0.8169 -0.4492 -1.3764
  139MOL0     H18760  10.037   6.750   5.783  0.7283  0.1877 -1.2221
  139MOL0     H18761  10.070   6.518   5.808  3.0151  1.9740 -0.1306
  139MOL0     H18762  10.141   6.566   5.661 -0.1778  2.2937 -0.6221
  139MOL0     H18763   9.924   6.235   5.549  0.2702 -0.3455 -0.4181
  139MOL0     H18764   9.517   6.941   5.653  1.2061 -0.8935 -0.1454
  139MOL0     H18765   9.327   6.999   5.525  0.2934 -1.8803  2.1375
  140MOL0     O18766   6.485   8.580   7.984 -0.2767  0.4769 -0.2279
  140MOL0     C18767   6.508   8.690   7.931 -0.2155  1.0020  0.6349
  140MOL0     O18768   6.409   8.772   7.876  0.2828 -0.4718  0.4179
  140MOL0     C18769   6.285   8.717   7.889  0.2262  0.1087 -0.6963
  140MOL0     C18770   6.241   8.614   7.807 -0.5226  0.3733 -0.0950
  140MOL0     C18771   6.106   8.571   7.812  0.4257 -0.7168 -0.1470
  140MOL0     C18772   6.022   8.630   7.911 -0.4921 -0.2165 -0.3565
  140MOL0     O18773   5.895   8.583   7.933 -0.4122 -0.0037  0.0217
  140MOL0     C18774   5.846   8.475   7.852 -0.1994  0.3213 -0.7272
  140MOL0     C18775   5.700   8.454   7.889 -0.5476  0.0486 -0.0476
  140MOL0     C18776   5.669   8.431   8.041 -0.0068 -0.3419 -0.4422
  140MOL0     C18777   5.518   8.401   8.065 -0.0593  0.5228  0.0187
  140MOL0     C18778   5.484   8.371   8.214  0.9101 -0.2643 -0.5329
  140MOL0     C18779   5.503   8.218   8.251  0.1989 -0.1163  0.2716
  140MOL0     C18780   5.467   8.185   8.394  0.1150  0.4869 -0.4857
  140MOL0     C18781   5.497   8.038   8.437 -0.0376 -0.8525 -0.1288
  140MOL0     N18782   5.627   8.039   8.504  0.5659 -0.3401  0.6684
  140MOL0     C18783   5.744   8.055   8.438 -0.3952  0.1639 -0.2205
  140MOL0     C18784   5.845   8.052   8.521  0.0576 -0.4711  0.6609
  140MOL0     C18785   5.993   8.057   8.480  0.2643 -0.5527 -0.1757
  140MOL0     C18786   6.066   7.916   8.480 -0.0669 -0.9327  0.8645
  140MOL0     C18787   6.064   7.855   8.624 -0.3345 -0.2785 -0.7040
  140MOL0     C18788   6.185   7.883   8.714  0.2201 -0.8154 -0.5889
  140MOL0     O18789   6.184   7.776   8.802 -0.3231 -0.0074 -1.2753
  140MOL0     C18790   6.302   7.759   8.863  0.6132  0.3833 -0.2823
  140MOL0     C18791   6.336   7.630   8.905 -0.4630  0.6738 -0.7911
  140MOL0     C18792   6.457   7.600   8.978  0.0661  0.6094 -0.3470
  140MOL0     C18793   6.497   7.453   8.997 -1.1058  0.3866 -0.3452
  140MOL0     C18794   6.527   7.710   9.022  0.0315  0.5908  0.3040
  140MOL0     C18795   6.647   7.692   9.105  0.2517  0.1575  0.1880
  140MOL0     O18796   6.634   7.608   9.212  0.3489  0.1101  0.1532
  140MOL0     C18797   6.744   7.572   9.283  0.0203  0.7827  0.0318
  140MOL0     C18798   6.757   7.610   9.419  0.4096 -0.1736  0.4500
  140MOL0     C18799   6.882   7.597   9.478 -0.3460  0.1591  0.4928
  140MOL0     C18800   7.000   7.562   9.398 -0.5663 -0.0902  0.3892
  140MOL0     O18801   7.116   7.557   9.463 -0.4159  0.2119 -0.3174
  140MOL0     C18802   7.239   7.586   9.390 -0.3681 -0.8278  0.1394
  140MOL0     C18803   7.356   7.616   9.489  0.2637 -0.0939  0.6447
  140MOL0     C18804   7.329   7.739   9.569  0.6799 -0.3222 -0.7912
  140MOL0     C18805   7.401   7.750   9.701  0.0663  0.3289 -0.3794
  140MOL0     C18806   7.556   7.745   9.688  0.0526  0.2169 -0.3122
  140MOL0     C18807   7.635   7.827   9.790  0.1038  0.6178 -0.3550
  140MOL0     C18808   7.606   7.788   9.939  0.2157 -0.7370  0.5989
  140MOL0     C18809   7.707   7.845  10.035 -0.6784  0.4639 -0.1030
  140MOL0    Cl18810   7.882   7.808  10.003  0.3152  0.2291  0.0897
  140MOL0     C18811   6.983   7.518   9.267  0.3367  0.1088 -0.7006
  140MOL0     C18812   6.855   7.525   9.214 -0.5802  0.3432  0.2586
  140MOL0     O18813   6.737   7.769   9.081  0.0417  0.4440  0.5442
  140MOL0     C18814   6.492   7.840   8.987  0.1571  0.4779  0.2843
  140MOL0     C18815   6.382   7.863   8.907  0.1569  0.4100 -0.0733
  140MOL0     N18816   5.791   8.029   8.647 -0.6459 -0.1171 -0.7661
  140MOL0     N18817   5.662   8.037   8.638 -0.4664 -0.3443  0.3242
  140MOL0     C18818   6.068   8.739   7.984 -0.0619 -0.8927 -0.3650
  140MOL0     C18819   6.203   8.782   7.977  1.4599  0.3498 -0.0485
  140MOL0     C18820   6.646   8.736   7.920  0.1239  0.5408 -0.0860
  140MOL0     C18821   6.690   8.856   7.856  0.0511  0.5369  0.0330
  140MOL0     C18822   6.824   8.883   7.828 -0.7253 -1.0495 -0.1217
  140MOL0     C18823   6.927   8.801   7.867  0.4938  0.2747 -0.3003
  140MOL0     O18824   7.058   8.817   7.822 -0.7308 -0.3523 -0.5559
  140MOL0     C18825   7.160   8.719   7.860 -0.3367 -1.3393 -0.0663
  140MOL0     C18826   7.296   8.765   7.823  0.8016 -1.0745 -0.7708
  140MOL0     C18827   7.362   8.819   7.955  0.0053  0.4146 -0.2796
  140MOL0     C18828   7.498   8.849   7.922  0.4610 -0.2964 -0.2956
  140MOL0     C18829   7.572   8.894   8.041 -0.0904  0.4464 -0.2912
  140MOL0     C18830   7.640   8.930   8.139  0.0608 -0.1927 -0.1980
  140MOL0     C18831   6.892   8.687   7.937  0.7762  0.0332 -0.4910
  140MOL0     C18832   6.758   8.653   7.962  1.2014  0.7517  0.7558
  140MOL0     H18833   6.304   8.569   7.731 -1.4620 -0.7007 -0.2665
  140MOL0     H18834   6.069   8.489   7.752 -3.3515 -1.7965  3.2128
  140MOL0     H18835   5.855   8.493   7.745 -0.5785  1.4533 -0.5807
  140MOL0     H18836   5.900   8.382   7.874  1.4918  1.9110  2.4934
  140MOL0     H18837   5.635   8.537   7.856 -1.1898  0.0528  1.1473
  140MOL0     H18838   5.661   8.357   7.858  1.9545 -1.0761  0.0694
  140MOL0     H18839   5.732   8.345   8.066 -0.6033 -1.2198 -1.8306
  140MOL0     H18840   5.698   8.515   8.105  0.0632 -0.0092 -0.9069
  140MOL0     H18841   5.451   8.479   8.028 -0.2241  0.8057  0.8800
  140MOL0     H18842   5.485   8.316   8.005  1.9012 -0.4360  0.2161
  140MOL0     H18843   5.549   8.424   8.284 -1.8161  0.9200  1.3060
  140MOL0     H18844   5.382   8.409   8.226  1.0080  0.1094 -0.8858
  140MOL0     H18845   5.446   8.153   8.184  1.7581 -1.4208  0.1383
  140MOL0     H18846   5.608   8.191   8.235  0.2065 -0.1640  0.4042
  140MOL0     H18847   5.511   8.260   8.461 -2.4933  0.7786  1.0292
  140MOL0     H18848   5.360   8.199   8.410  0.0956 -0.1189 -0.0596
  140MOL0     H18849   5.492   7.961   8.359 -0.8451  0.0726 -1.0053
  140MOL0     H18850   5.425   8.016   8.516  0.4233 -0.0712  0.5212
  140MOL0     H18851   5.747   8.065   8.330  0.3773 -4.0499 -0.7714
  140MOL0     H18852   5.998   8.103   8.381  0.7895 -0.5310 -0.1397
  140MOL0     H18853   6.056   8.118   8.546  0.2593 -0.6099 -0.1168
  140MOL0     H18854   6.172   7.927   8.454 -0.5758 -1.0792 -1.5797
  140MOL0     H18855   6.022   7.845   8.409  2.3392 -0.7547 -0.9469
  140MOL0     H18856   6.051   7.750   8.596  0.0709  0.1365 -2.5694
  140MOL0     H18857   5.973   7.876   8.680  0.7699 -0.3686  1.2107
  140MOL0     H18858   6.174   7.979   8.766  1.8309 -0.0430 -1.5647
  140MOL0     H18859   6.279   7.884   8.657  1.7630  0.8519  1.7774
  140MOL0     H18860   6.276   7.541   8.884 -1.1501  0.5064  1.6120
  140MOL0     H18861   6.515   7.426   9.102 -0.5044 -3.8794 -1.3594
  140MOL0     H18862   6.416   7.386   8.967  1.4120 -1.7299 -2.8699
  140MOL0     H18863   6.579   7.427   8.930 -1.5448 -0.6439 -0.4970
  140MOL0     H18864   6.674   7.652   9.474  0.2087  0.2071 -0.1404
  140MOL0     H18865   6.905   7.621   9.581  0.0264 -0.0156  0.4523
  140MOL0     H18866   7.279   7.499   9.337 -1.0788 -1.2616  0.2984
  140MOL0     H18867   7.231   7.673   9.323  2.6244  0.9756  1.9028
  140MOL0     H18868   7.384   7.535   9.557 -0.1737 -0.6352  0.1937
  140MOL0     H18869   7.447   7.637   9.431 -0.3587  0.9991  0.0296
  140MOL0     H18870   7.224   7.755   9.592  0.6279  1.0269 -1.8141
  140MOL0     H18871   7.369   7.819   9.505  0.6735 -0.3085 -0.7783
  140MOL0     H18872   7.368   7.842   9.750  0.3494  0.3225 -0.1765
  140MOL0     H18873   7.368   7.669   9.768 -1.1642 -0.0804 -1.4456
  140MOL0     H18874   7.578   7.782   9.587  0.1576  2.9381  0.6358
  140MOL0     H18875   7.584   7.640   9.697  0.0897  0.2571  0.0446
  140MOL0     H18876   7.736   7.806   9.752 -0.2670  0.7520 -1.4657
  140MOL0     H18877   7.614   7.934   9.780  0.8284  0.8415  0.4451
  140MOL0     H18878   7.612   7.679   9.950  1.6948 -0.7211  0.2719
  140MOL0     H18879   7.503   7.821   9.956 -0.1287 -1.0527 -0.7608
  140MOL0     H18880   7.689   7.804  10.135 -1.8924 -2.0856 -1.2763
  140MOL0     H18881   7.700   7.954  10.038 -2.4001  0.4393 -1.5344
  140MOL0     H18882   7.067   7.479   9.211  0.3979 -0.4384 -0.2355
  140MOL0     H18883   6.844   7.515   9.106  2.0572  1.2976 -0.1754
  140MOL0     H18884   6.560   7.918   9.018  0.7525  0.2943 -0.5367
  140MOL0     H18885   6.360   7.964   8.874  1.1985  0.2757 -1.2949
  140MOL0     H18886   6.018   8.799   8.059  1.4771 -0.5627  0.4540
  140MOL0     H18887   6.245   8.865   8.033 -0.7028  1.3441  0.1963
  140MOL0     H18888   6.621   8.914   7.795 -0.7118 -1.2826 -0.8930
  140MOL0     H18889   6.851   8.969   7.768 -0.6234 -1.4858 -0.7076
  140MOL0     H18890   7.150   8.687   7.964  0.1696  0.3315  0.5344
  140MOL0     H18891   7.139   8.636   7.792 -1.2440  1.3368 -3.3262
  140MOL0     H18892   7.280   8.845   7.750 -2.4362  2.4805  3.3100
  140MOL0     H18893   7.352   8.682   7.780 -0.9368 -1.2280 -2.8998
  140MOL0     H18894   7.352   8.734   8.022  1.3957 -1.4498 -2.2757
  140MOL0     H18895   7.309   8.911   7.981  0.7054  2.2747 -4.5230
  140MOL0     H18896   7.497   8.921   7.840  3.8124 -0.0468 -0.2288
  140MOL0     H18897   7.549   8.761   7.881  2.0077  0.4350 -0.0132
  140MOL0     H18898   7.696   8.966   8.222 -1.0840 -0.1210  0.5588
  140MOL0     H18899   6.955   8.613   7.985 -1.4636 -0.9460  1.1163
  140MOL0     H18900   6.734   8.555   8.001 -2.2025  1.3435  0.4733
  141MOL0     O18901  10.836   5.754   2.338 -0.5422  0.0641  0.1348
  141MOL0     C18902  10.930   5.678   2.346 -0.0830  0.8625 -1.2137
  141MOL0     O18903  10.930   5.549   2.304  0.5404  0.2126  0.4825
  141MOL0     C18904  10.811   5.496   2.270  0.6932 -0.0862  0.1885
  141MOL0     C18905  10.705   5.476   2.358  0.2613  0.1505 -0.1738
  141MOL0     C18906  10.589   5.413   2.324 -0.2750 -0.3914  0.8179
  141MOL0     C18907  10.577   5.374   2.196  0.6906 -0.7670  0.0497
  141MOL0     O18908  10.446   5.340   2.163  0.0996 -0.6180 -0.3932
  141MOL0     C18909  10.409   5.278   2.041 -0.2960 -0.2082  0.1696
  141MOL0     C18910  10.273   5.203   2.035 -1.1168 -0.3155 -1.0074
  141MOL0     C18911  10.150   5.273   2.094  0.5693  0.2078  0.4838
  141MOL0     C18912  10.012   5.197   2.079 -0.8238 -0.3377  0.2818
  141MOL0     C18913   9.903   5.307   2.107 -0.7971  0.4189 -0.9227
  141MOL0     C18914   9.768   5.246   2.117  0.0326 -0.3868 -0.6579
  141MOL0     C18915   9.657   5.350   2.093 -0.0642 -0.0348  0.0357
  141MOL0     C18916   9.523   5.276   2.127 -0.5257 -0.6655 -0.0131
  141MOL0     N18917   9.409   5.362   2.087  0.2599  0.1088  0.1214
  141MOL0     C18918   9.365   5.472   2.156 -0.4127 -0.6152  0.4307
  141MOL0     C18919   9.262   5.518   2.084 -0.4827 -0.6844  0.3348
  141MOL0     C18920   9.180   5.637   2.106  0.6050  0.0831 -0.0313
  141MOL0     C18921   9.032   5.598   2.114 -0.2429  0.2354  0.2679
  141MOL0     C18922   9.005   5.518   2.239  0.1849 -0.0559  0.4268
  141MOL0     C18923   8.853   5.489   2.263  1.4156  0.2854  0.2348
  141MOL0     O18924   8.807   5.428   2.144 -0.0929  0.0449  0.1551
  141MOL0     C18925   8.692   5.349   2.135  0.8881 -0.2799 -0.0007
  141MOL0     C18926   8.649   5.308   2.012 -0.3378 -0.5966 -0.0837
  141MOL0     C18927   8.541   5.220   1.994 -0.2012 -0.0225 -0.5973
  141MOL0     C18928   8.540   5.140   1.866 -0.0710 -0.8044  0.6968
  141MOL0     C18929   8.447   5.214   2.104 -0.6361  0.3945  0.5760
  141MOL0     C18930   8.317   5.135   2.100 -1.2984 -0.5062  0.5610
  141MOL0     O18931   8.268   5.098   1.976  0.2040 -1.1490 -0.7535
  141MOL0     C18932   8.151   5.024   1.994 -0.7215  0.3396  1.1351
  141MOL0     C18933   8.156   4.905   1.921  0.2484 -0.2329  0.3980
  141MOL0     C18934   8.033   4.835   1.897 -0.5346  0.6371  0.1417
  141MOL0     C18935   7.907   4.887   1.931 -0.3037  0.4428  0.0364
  141MOL0     O18936   7.784   4.828   1.896  0.3376 -0.1854 -0.0084
  141MOL0     C18937   7.783   4.722   1.804  0.1480 -0.5228 -0.5629
  141MOL0     C18938   7.634   4.693   1.789  0.2722  0.2799  0.1233
  141MOL0     C18939   7.621   4.594   1.678  0.7153 -0.4120  0.4622
  141MOL0     C18940   7.478   4.536   1.655 -0.3664  0.0655  0.4486
  141MOL0     C18941   7.470   4.436   1.541  0.7246 -0.6823  0.2596
  141MOL0     C18942   7.336   4.369   1.533  0.5663 -0.2156 -0.6309
  141MOL0     C18943   7.311   4.299   1.406  0.6525 -1.1448 -0.1039
  141MOL0     C18944   7.197   4.203   1.418  0.3145 -0.7607  0.6838
  141MOL0    Cl18945   7.049   4.271   1.475 -0.1183 -0.1779  0.1448
  141MOL0     C18946   7.904   5.015   1.987  0.0418  0.0597  0.7579
  141MOL0     C18947   8.028   5.083   2.023  0.0810 -0.0596  0.0971
  141MOL0     O18948   8.269   5.108   2.207 -0.9859  0.3449 -0.1770
  141MOL0     C18949   8.489   5.264   2.226 -0.0961  0.0196  0.0305
  141MOL0     C18950   8.612   5.330   2.247 -0.7203  0.2033 -0.3506
  141MOL0     N18951   9.259   5.439   1.964 -0.4967 -0.3681 -0.0556
  141MOL0     N18952   9.345   5.343   1.968 -0.2216  1.2020 -0.2721
  141MOL0     C18953  10.676   5.396   2.097  0.4733  0.0428 -0.6755
  141MOL0     C18954  10.796   5.447   2.141 -0.2849 -0.7977 -0.1936
  141MOL0     C18955  11.054   5.725   2.401  0.6271 -0.4409  0.1322
  141MOL0     C18956  11.075   5.862   2.413 -1.0054  0.1879  0.1202
  141MOL0     C18957  11.200   5.908   2.462 -0.4309 -1.0374  0.1429
  141MOL0     C18958  11.305   5.823   2.488 -0.6168  0.0914  0.9868
  141MOL0     O18959  11.432   5.864   2.536  0.4079  0.3878  0.4228
  141MOL0     C18960  11.455   5.854   2.677 -0.5375  0.0629 -0.2705
  141MOL0     C18961  11.612   5.863   2.703 -0.0488  0.0963  0.2502
  141MOL0     C18962  11.692   5.763   2.611  0.6867  0.0449  0.1953
  141MOL0     C18963  11.836   5.745   2.656 -0.5066  0.6499 -0.6010
  141MOL0     C18964  11.837   5.644   2.766  0.5992 -0.0981 -0.0728
  141MOL0     C18965  11.824   5.551   2.843 -0.5771  0.3647 -0.9983
  141MOL0     C18966  11.280   5.685   2.478 -1.0890  0.5418  0.3389
  141MOL0     C18967  11.162   5.636   2.426 -0.2401  0.0843 -1.8614
  141MOL0     H18968  10.706   5.505   2.462 -1.7660 -0.1388 -0.0513
  141MOL0     H18969  10.505   5.396   2.392 -0.5884 -3.6935 -0.2524
  141MOL0     H18970  10.406   5.353   1.962 -0.9335  2.5528  2.6212
  141MOL0     H18971  10.486   5.206   2.011 -2.6561 -2.2560 -1.2781
  141MOL0     H18972  10.252   5.183   1.929  0.1692  2.5895 -1.9150
  141MOL0     H18973  10.281   5.103   2.078  0.7190  0.0590 -0.3716
  141MOL0     H18974  10.182   5.285   2.198 -0.2256  0.3433  0.7196
  141MOL0     H18975  10.137   5.372   2.051  0.0814  0.8988  2.1410
  141MOL0     H18976   9.990   5.170   1.975  0.6371  2.4878 -0.8751
  141MOL0     H18977  10.010   5.108   2.143 -2.4052 -1.2970 -1.0064
  141MOL0     H18978   9.925   5.362   2.199 -2.5940 -0.5771  0.1583
  141MOL0     H18979   9.912   5.372   2.019  1.6844  1.9458  0.3410
  141MOL0     H18980   9.764   5.165   2.043  0.1245 -0.0981 -0.9817
  141MOL0     H18981   9.758   5.200   2.216 -0.0617 -2.0700 -1.4005
  141MOL0     H18982   9.668   5.436   2.161 -1.4099  0.0243  0.1924
  141MOL0     H18983   9.660   5.386   1.990 -1.6931 -1.4307 -0.5488
  141MOL0     H18984   9.529   5.259   2.235  0.1031  1.1485  0.2839
  141MOL0     H18985   9.507   5.185   2.069 -1.0939 -0.3952 -0.2823
  141MOL0     H18986   9.400   5.509   2.252  0.1535 -1.0073  0.3825
  141MOL0     H18987   9.207   5.685   2.200 -0.8498 -0.6920  0.8213
  141MOL0     H18988   9.205   5.705   2.023  1.9982 -1.5460 -1.0233
  141MOL0     H18989   8.997   5.536   2.032 -2.5313 -0.4219  1.6667
  141MOL0     H18990   8.981   5.694   2.118  0.4343  0.5914  0.8305
  141MOL0     H18991   9.053   5.581   2.314  0.0634 -0.6825  1.0469
  141MOL0     H18992   9.056   5.421   2.229 -1.6370 -1.3712  2.7140
  141MOL0     H18993   8.798   5.576   2.298 -0.2533 -1.0253  1.0308
  141MOL0     H18994   8.850   5.426   2.352 -0.9902 -0.8100 -0.5281
  141MOL0     H18995   8.720   5.317   1.930 -1.8929 -3.8373 -2.0013
  141MOL0     H18996   8.637   5.124   1.819 -0.2334  1.8479 -0.7076
  141MOL0     H18997   8.486   5.049   1.893 -1.8061  0.4353  1.5968
  141MOL0     H18998   8.472   5.190   1.797 -0.0857 -1.1659  0.4486
  141MOL0     H18999   8.251   4.864   1.892 -1.4251 -3.2882 -1.2514
  141MOL0     H19000   8.051   4.740   1.849  1.8212  1.4728 -0.7790
  141MOL0     H19001   7.817   4.758   1.706 -0.3977 -0.8869 -0.8957
  141MOL0     H19002   7.834   4.631   1.836 -1.9212 -1.6081 -0.1831
  141MOL0     H19003   7.589   4.663   1.884  0.9541  0.5301  0.5390
  141MOL0     H19004   7.583   4.785   1.761  0.4499 -0.0539 -1.3476
  141MOL0     H19005   7.693   4.512   1.689  4.0452  1.6758 -3.0277
  141MOL0     H19006   7.654   4.631   1.580  4.5096 -0.0825  1.7199
  141MOL0     H19007   7.437   4.489   1.745 -1.3747 -0.0401 -0.0608
  141MOL0     H19008   7.413   4.617   1.623  1.1068  0.5176 -1.6068
  141MOL0     H19009   7.543   4.357   1.560  1.1008 -0.6613 -1.0385
  141MOL0     H19010   7.492   4.468   1.439 -0.3320 -1.5102 -0.2497
  141MOL0     H19011   7.312   4.310   1.622 -1.8514  2.9969  1.0714
  141MOL0     H19012   7.254   4.440   1.548  1.9767  0.8457  3.0685
  141MOL0     H19013   7.402   4.241   1.391  0.8690 -0.4915 -1.4435
  141MOL0     H19014   7.283   4.373   1.330  1.3351  1.5090  2.0375
  141MOL0     H19015   7.217   4.110   1.473 -1.8196 -1.2176  0.8104
  141MOL0     H19016   7.164   4.164   1.321  1.2419 -1.4573  0.6273
  141MOL0     H19017   7.808   5.059   2.013  0.4086  0.3684  1.6193
  141MOL0     H19018   8.020   5.180   2.071 -0.0516  0.5274 -1.0879
  141MOL0     H19019   8.428   5.258   2.316 -1.6153  0.4077 -0.9301
  141MOL0     H19020   8.640   5.362   2.347 -1.0346  2.1467 -0.8316
  141MOL0     H19021  10.666   5.368   1.993 -0.4942 -1.5285 -0.2073
  141MOL0     H19022  10.874   5.477   2.072  0.3984  0.1605  0.9508
  141MOL0     H19023  11.008   5.935   2.368 -1.0223  0.9964  1.3928
  141MOL0     H19024  11.216   6.014   2.480  2.6352 -1.3689 -0.0543
  141MOL0     H19025  11.397   5.939   2.714 -0.3062 -0.2200  0.7711
  141MOL0     H19026  11.420   5.761   2.721  2.0770 -0.3356  1.2022
  141MOL0     H19027  11.632   5.841   2.809 -0.0332 -0.2697  0.1725
  141MOL0     H19028  11.640   5.967   2.687 -1.7693  0.6598  0.7149
  141MOL0     H19029  11.678   5.771   2.503  0.4433 -1.7666  0.0584
  141MOL0     H19030  11.633   5.672   2.628 -1.9986  1.6256  0.0292
  141MOL0     H19031  11.889   5.837   2.686 -1.9629  0.6506  2.3758
  141MOL0     H19032  11.890   5.697   2.574 -1.1769 -0.5616 -0.3454
  141MOL0     H19033  11.827   5.468   2.909 -3.8650  1.5787  0.8966
  141MOL0     H19034  11.363   5.622   2.510 -0.4365  1.5499  0.6742
  141MOL0     H19035  11.151   5.528   2.422 -2.3422  0.1113  0.5809
  142MOL0     O19036   6.247   3.601   0.952 -1.1787  0.9458  0.4991
  142MOL0     C19037   6.305   3.675   0.866  0.4700 -0.7279  0.1416
  142MOL0     O19038   6.252   3.703   0.746  0.5670 -1.6485 -0.2827
  142MOL0     C19039   6.125   3.670   0.709  0.0198 -0.5716  0.9835
  142MOL0     C19040   6.066   3.734   0.588 -0.7621  0.4055 -1.0205
  142MOL0     C19041   5.940   3.700   0.538  0.3607 -0.4608  0.8853
  142MOL0     C19042   5.868   3.588   0.581 -0.3616 -0.5998  0.0151
  142MOL0     O19043   5.748   3.559   0.529 -0.3320 -0.3515  0.4594
  142MOL0     C19044   5.745   3.424   0.467  0.4907 -0.7349  0.0502
  142MOL0     C19045   5.653   3.403   0.347  0.7504 -0.5541 -0.2148
  142MOL0     C19046   5.511   3.415   0.389 -0.1522 -0.3127 -0.3771
  142MOL0     C19047   5.423   3.373   0.265  0.3731  0.0224  0.3715
  142MOL0     C19048   5.280   3.415   0.279  0.3732 -0.0492 -0.5807
  142MOL0     C19049   5.183   3.359   0.181 -0.0049  0.0547 -0.2207
  142MOL0     C19050   5.065   3.459   0.171  0.5407  0.2722 -0.9370
  142MOL0     C19051   4.942   3.408   0.091 -0.2319 -0.6657 -0.7505
  142MOL0     N19052   4.831   3.497   0.123 -0.3567  0.6347 -0.2786
  142MOL0     C19053   4.829   3.635   0.102 -0.2248  0.0322 -0.9433
  142MOL0     C19054   4.698   3.675   0.120 -0.0991 -0.3796 -0.9129
  142MOL0     C19055   4.647   3.816   0.102 -0.1591  0.2293  0.2095
  142MOL0     C19056   4.580   3.870   0.236  0.2943 -0.0447  0.1033
  142MOL0     C19057   4.506   4.007   0.219 -1.0869 -0.5355  0.4555
  142MOL0     C19058   4.404   4.023   0.332 -0.1204 -0.2270 -0.2474
  142MOL0     O19059   4.350   4.159   0.328  0.0113 -0.2211 -0.0785
  142MOL0     C19060   4.224   4.159   0.265  0.2673 -0.3528 -0.3096
  142MOL0     C19061   4.171   4.287   0.246  0.1304  0.0050  0.3943
  142MOL0     C19062   4.053   4.313   0.187  0.5166 -0.5530  0.0280
  142MOL0     C19063   4.000   4.452   0.169 -0.3427 -0.4138 -0.0287
  142MOL0     C19064   3.965   4.198   0.146  0.2719 -0.6380  0.9008
  142MOL0     C19065   3.822   4.215   0.090  0.0560 -0.2302 -0.6778
  142MOL0     O19066   3.761   4.095   0.065 -0.8245  0.1506 -0.4114
  142MOL0     C19067   3.634   4.081   0.023 -0.1134  0.5442 -0.4462
  142MOL0     C19068   3.531   4.143   0.093 -0.0878 -0.3351  0.2320
  142MOL0     C19069   3.393   4.119   0.069 -0.1190  0.1124  0.0223
  142MOL0     C19070   3.363   4.037  -0.039  0.1322 -0.5301 -0.4860
  142MOL0     O19071   3.237   4.013  -0.061  0.2282  0.0001 -0.5595
  142MOL0     C19072   3.198   3.934  -0.179  0.4196  0.3978 -0.5589
  142MOL0     C19073   3.048   3.932  -0.194  0.0075  1.0119  0.0791
  142MOL0     C19074   2.970   3.852  -0.095 -0.0846 -0.0561 -0.2212
  142MOL0     C19075   2.819   3.876  -0.118  0.2360  0.0584 -0.0572
  142MOL0     C19076   2.739   3.804  -0.009  0.0439 -1.0120  0.1336
  142MOL0     C19077   2.587   3.808  -0.032 -0.5029 -0.0056 -0.8165
  142MOL0     C19078   2.495   3.835   0.096 -0.7227  0.0254  0.2279
  142MOL0     C19079   2.344   3.820   0.049 -1.3963  1.3075  0.3071
  142MOL0    Cl19080   2.222   3.819   0.171 -0.2146  0.0752  0.2382
  142MOL0     C19081   3.464   3.974  -0.111 -1.5216  0.1164 -0.2240
  142MOL0     C19082   3.603   3.995  -0.079 -0.0382  0.0226  0.0115
  142MOL0     O19083   3.780   4.320   0.055  0.3210 -1.0124 -0.2269
  142MOL0     C19084   4.016   4.069   0.166 -0.2120 -0.2102  1.0540
  142MOL0     C19085   4.145   4.047   0.216  0.5072 -0.3589 -0.2274
  142MOL0     N19086   4.621   3.563   0.148 -0.0516 -0.4059  0.5193
  142MOL0     N19087   4.705   3.460   0.154  0.2870  0.0398 -0.1043
  142MOL0     C19088   5.929   3.523   0.690 -0.5072  0.2000 -0.2292
  142MOL0     C19089   6.047   3.564   0.760  0.0795  0.8294  0.2385
  142MOL0     C19090   6.438   3.741   0.897  0.5566  0.6318 -0.8597
  142MOL0     C19091   6.514   3.813   0.802 -0.0165  0.4663  0.4284
  142MOL0     C19092   6.634   3.871   0.833 -0.3079  1.0187  1.1747
  142MOL0     C19093   6.686   3.858   0.970 -0.0410 -0.1577  0.5108
  142MOL0     O19094   6.815   3.899   1.005 -0.0910  0.0800 -0.3379
  142MOL0     C19095   6.884   3.985   0.911 -0.4183  0.9613  0.1563
  142MOL0     C19096   7.025   4.029   0.957  0.1101 -0.2726 -0.1651
  142MOL0     C19097   7.145   3.947   0.926 -0.6110  0.7080 -0.7966
  142MOL0     C19098   7.273   4.039   0.936  0.6488 -0.4485 -0.2608
  142MOL0     C19099   7.395   3.959   0.920 -0.5425 -0.8531 -0.2410
  142MOL0     C19100   7.500   3.902   0.935  0.5933  0.0966 -0.4665
  142MOL0     C19101   6.609   3.791   1.060  0.2934  0.2254  0.0252
  142MOL0     C19102   6.484   3.741   1.033  0.8430  0.3425  0.5136
  142MOL0     H19103   6.134   3.808   0.547  1.2248 -1.2612 -0.8869
  142MOL0     H19104   5.895   3.764   0.462 -0.7779 -0.4299  1.5664
  142MOL0     H19105   5.845   3.401   0.430 -0.1662 -1.9058 -1.1137
  142MOL0     H19106   5.717   3.358   0.550 -1.0182 -0.8670 -0.5250
  142MOL0     H19107   5.673   3.485   0.277 -0.7724 -0.1322 -0.1931
  142MOL0     H19108   5.677   3.310   0.295 -1.5396 -0.8059 -0.9792
  142MOL0     H19109   5.486   3.358   0.479  0.0382 -1.6186 -1.1198
  142MOL0     H19110   5.486   3.518   0.414 -0.6283 -0.2229 -1.1645
  142MOL0     H19111   5.457   3.430   0.178 -0.8032  0.4112  0.1484
  142MOL0     H19112   5.439   3.267   0.241 -1.9655 -0.0551 -1.2270
  142MOL0     H19113   5.240   3.389   0.377 -1.0211  0.2582 -1.0472
  142MOL0     H19114   5.281   3.524   0.269  0.4720  0.1269  1.0501
  142MOL0     H19115   5.240   3.340   0.089  1.3577 -1.0596  0.8118
  142MOL0     H19116   5.141   3.263   0.213 -1.2912  1.0167  1.0743
  142MOL0     H19117   5.027   3.473   0.272  1.3097 -3.1557 -0.0674
  142MOL0     H19118   5.106   3.556   0.140  0.8566 -0.4875 -3.1068
  142MOL0     H19119   4.927   3.305   0.124  1.5338 -0.0191  2.5229
  142MOL0     H19120   4.958   3.402  -0.017  1.4713  1.4705 -0.7103
  142MOL0     H19121   4.915   3.701   0.090  0.7926 -1.1922 -0.5418
  142MOL0     H19122   4.734   3.876   0.078  0.2815 -0.8876 -1.0644
  142MOL0     H19123   4.579   3.828   0.017 -1.8793 -1.6158  1.2349
  142MOL0     H19124   4.649   3.887   0.319 -1.7585 -1.6411  2.2804
  142MOL0     H19125   4.504   3.799   0.269  1.4002 -0.4236  1.9554
  142MOL0     H19126   4.453   4.005   0.124 -1.0034  0.2183  0.3850
  142MOL0     H19127   4.583   4.085   0.226 -0.0749 -1.5030  0.4356
  142MOL0     H19128   4.460   4.006   0.425  0.0278  2.3647  0.2184
  142MOL0     H19129   4.328   3.945   0.330 -1.9221  1.4373 -0.0684
  142MOL0     H19130   4.236   4.366   0.283  1.1968  0.3568 -2.0114
  142MOL0     H19131   3.918   4.469   0.240  0.3206 -0.2973  0.7188
  142MOL0     H19132   4.080   4.517   0.206 -0.9735 -1.1153  2.8804
  142MOL0     H19133   3.965   4.481   0.069 -1.3743  1.2351  0.7586
  142MOL0     H19134   3.563   4.205   0.176  2.2133 -0.8904 -0.1664
  142MOL0     H19135   3.310   4.158   0.127 -0.4966  0.8683 -0.9897
  142MOL0     H19136   3.235   3.993  -0.263  0.0365 -0.5270 -1.3895
  142MOL0     H19137   3.245   3.836  -0.171 -1.5421 -0.4850  1.2686
  142MOL0     H19138   3.011   4.034  -0.199  1.9093  1.7188 -0.4344
  142MOL0     H19139   3.031   3.886  -0.292  1.5749 -1.2062  0.7499
  142MOL0     H19140   3.001   3.879   0.006  2.3462 -0.6124 -0.7403
  142MOL0     H19141   2.984   3.744  -0.103 -2.3816 -0.3473 -0.9815
  142MOL0     H19142   2.791   3.982  -0.127 -1.8046 -0.5075 -0.8256
  142MOL0     H19143   2.790   3.835  -0.215 -0.6832  0.3616  0.0804
  142MOL0     H19144   2.772   3.833   0.091 -2.7483  0.0242  0.8457
  142MOL0     H19145   2.760   3.697  -0.006  1.0707 -0.8599 -0.7908
  142MOL0     H19146   2.568   3.867  -0.122 -0.4499  0.7250 -0.3521
  142MOL0     H19147   2.560   3.707  -0.067 -1.7289  0.6331 -1.7966
  142MOL0     H19148   2.511   3.933   0.142 -0.6421 -1.2536  3.1980
  142MOL0     H19149   2.506   3.761   0.176  3.4160 -2.4287 -2.2793
  142MOL0     H19150   2.343   3.726  -0.007  1.9526  1.5048 -0.2772
  142MOL0     H19151   2.321   3.905  -0.015 -2.1446  0.8129 -0.1087
  142MOL0     H19152   3.439   3.918  -0.201  0.3638  0.9035 -1.2805
  142MOL0     H19153   3.680   3.949  -0.140 -0.3733 -0.3699 -0.1280
  142MOL0     H19154   3.954   3.981   0.153  0.8204 -1.2437  2.8081
  142MOL0     H19155   4.170   3.942   0.229 -0.0054 -0.7473 -2.1038
  142MOL0     H19156   5.861   3.448   0.728 -2.2784  1.7298 -0.2213
  142MOL0     H19157   6.097   3.505   0.835 -0.0728  1.9893  1.2942
  142MOL0     H19158   6.473   3.830   0.702 -2.0444  1.7963  1.4056
  142MOL0     H19159   6.686   3.929   0.758 -1.2436 -1.7428 -1.8544
  142MOL0     H19160   6.889   3.936   0.813 -2.7663 -0.0700  0.4853
  142MOL0     H19161   6.825   4.076   0.900  2.2271  2.7904  0.1615
  142MOL0     H19162   7.016   4.047   1.065 -4.7250  0.1254 -0.4021
  142MOL0     H19163   7.030   4.128   0.911 -2.5813  2.5053  4.6468
  142MOL0     H19164   7.138   3.907   0.824  2.9507 -1.6612 -0.3070
  142MOL0     H19165   7.160   3.859   0.990 -1.4569  1.4697  0.5007
  142MOL0     H19166   7.271   4.081   1.037 -2.0859 -1.9779  0.4224
  142MOL0     H19167   7.269   4.119   0.861  1.2197 -2.0076 -2.0317
  142MOL0     H19168   7.587   3.844   0.957  0.9536  0.4538 -0.9183
  142MOL0     H19169   6.646   3.786   1.163 -0.6681  0.7831  0.4061
  142MOL0     H19170   6.429   3.684   1.107  0.7954  0.2157  0.3795
  143MOL0     O19171   2.731   0.676   0.543  0.0929 -0.0660  0.2294
  143MOL0     C19172   2.759   0.797   0.519 -1.2387 -0.5766  0.4584
  143MOL0     O19173   2.695   0.905   0.583 -0.2519 -0.2646  0.6719
  143MOL0     C19174   2.582   0.871   0.657  0.2174 -0.4700 -0.6429
  143MOL0     C19175   2.463   0.815   0.601 -0.2822  0.1321 -0.4646
  143MOL0     C19176   2.351   0.783   0.684  0.0628 -0.6679 -0.7030
  143MOL0     C19177   2.358   0.812   0.824  0.1099  1.7726 -0.0384
  143MOL0     O19178   2.256   0.778   0.912 -1.0936 -0.2682  0.2974
  143MOL0     C19179   2.130   0.740   0.857 -0.3969 -0.0016 -0.1101
  143MOL0     C19180   2.015   0.764   0.959  0.8160  0.2203 -0.1077
  143MOL0     C19181   2.011   0.904   1.028  0.5187  0.1325 -0.5356
  143MOL0     C19182   1.877   0.918   1.101 -0.4632 -1.0749 -0.3820
  143MOL0     C19183   1.890   0.875   1.246  0.2777  0.3728  1.6118
  143MOL0     C19184   1.754   0.882   1.314 -0.7511 -0.6044 -0.0658
  143MOL0     C19185   1.751   0.859   1.472 -1.2356 -0.0058 -0.5919
  143MOL0     C19186   1.810   0.720   1.522  0.4752 -0.4198  0.2214
  143MOL0     N19187   1.777   0.705   1.659  0.0241  0.7386 -0.7182
  143MOL0     C19188   1.844   0.760   1.764 -0.2843  0.4811 -0.1249
  143MOL0     C19189   1.751   0.762   1.858 -0.1568 -0.5766  0.1000
  143MOL0     C19190   1.743   0.819   1.997 -0.4967 -0.1332  0.1058
  143MOL0     C19191   1.769   0.971   2.013 -0.6337 -0.4955 -0.2386
  143MOL0     C19192   1.664   1.058   1.942  0.3053 -0.7961  0.2577
  143MOL0     C19193   1.706   1.093   1.802 -0.0889 -0.1213  0.2572
  143MOL0     O19194   1.623   1.184   1.728 -0.1296 -0.0656  0.6781
  143MOL0     C19195   1.506   1.147   1.662 -0.0238 -0.1367 -0.4944
  143MOL0     C19196   1.449   1.022   1.670 -0.4185 -0.2542  0.0011
  143MOL0     C19197   1.318   0.994   1.639  0.5611  0.3953  0.6763
  143MOL0     C19198   1.271   0.852   1.677 -0.4279  0.3322  0.5464
  143MOL0     C19199   1.235   1.099   1.583  0.4241 -0.5447 -0.6742
  143MOL0     C19200   1.085   1.082   1.554 -0.7696 -0.2973 -0.5511
  143MOL0     O19201   1.018   1.200   1.543  0.2420  0.1578 -0.5543
  143MOL0     C19202   0.885   1.192   1.513 -0.9796  0.5798 -0.1381
  143MOL0     C19203   0.847   1.201   1.380  0.3319 -0.1409 -0.3436
  143MOL0     C19204   0.712   1.210   1.347  0.4547 -0.8246  0.6269
  143MOL0     C19205   0.610   1.208   1.446  0.0122 -0.0679  0.3241
  143MOL0     O19206   0.483   1.213   1.400 -0.1510  0.2664 -0.0510
  143MOL0     C19207   0.375   1.181   1.484 -0.4024 -0.0360 -0.1821
  143MOL0     C19208   0.248   1.178   1.391 -0.1443 -0.0856  1.4397
  143MOL0     C19209   0.131   1.195   1.477 -0.0935 -0.0864 -0.3094
  143MOL0     C19210   0.005   1.197   1.392 -0.5785 -0.2551 -1.1060
  143MOL0     C19211  -0.121   1.196   1.479 -0.4107 -0.3274 -0.0736
  143MOL0     C19212  -0.238   1.129   1.399 -0.3455  0.7672  0.3541
  143MOL0     C19213  -0.372   1.145   1.466  0.0810  0.8053 -0.4608
  143MOL0     C19214  -0.500   1.121   1.379 -0.4651 -0.3117 -0.5814
  143MOL0    Cl19215  -0.499   1.167   1.211 -0.4462 -0.2035 -0.0173
  143MOL0     C19216   0.649   1.188   1.582 -0.2556  0.1383  0.0993
  143MOL0     C19217   0.791   1.184   1.616  0.7728  0.4360  0.6874
  143MOL0     O19218   1.033   0.975   1.522  0.4838 -0.0543 -0.2214
  143MOL0     C19219   1.291   1.228   1.566 -0.2112 -0.2814  0.1651
  143MOL0     C19220   1.419   1.249   1.617  0.3303  0.4429  0.0455
  143MOL0     N19221   1.632   0.708   1.801 -0.7548  0.1026  0.3921
  143MOL0     N19222   1.654   0.666   1.682  0.5726 -0.7362  0.5045
  143MOL0     C19223   2.472   0.867   0.870  0.4376 -0.8018  0.9102
  143MOL0     C19224   2.584   0.899   0.793 -0.0058  0.0640  0.3665
  143MOL0     C19225   2.837   0.819   0.390  0.4114 -0.6652  0.6689
  143MOL0     C19226   2.807   0.754   0.273 -0.3649  0.6528 -0.0342
  143MOL0     C19227   2.874   0.784   0.149  0.2610  0.0551 -0.2722
  143MOL0     C19228   2.982   0.870   0.155 -0.0154  0.7462 -0.3285
  143MOL0     O19229   3.067   0.903   0.051  0.4675 -0.2962  0.2982
  143MOL0     C19230   3.048   0.843  -0.076 -0.5767  0.9481 -0.5826
  143MOL0     C19231   3.125   0.714  -0.096 -0.6993 -0.3583  0.8283
  143MOL0     C19232   3.280   0.737  -0.091  0.3420 -0.2413  0.3267
  143MOL0     C19233   3.350   0.601  -0.125 -0.2966 -0.3702 -0.6881
  143MOL0     C19234   3.490   0.640  -0.166  0.3209 -0.3731  0.3240
  143MOL0     C19235   3.607   0.689  -0.199 -0.3360  0.8601  0.0607
  143MOL0     C19236   3.016   0.933   0.272  0.0017  0.3070  0.6238
  143MOL0     C19237   2.939   0.910   0.383  0.2320  0.3809 -0.7093
  143MOL0     H19238   2.472   0.788   0.496  0.7908  0.3020 -0.4285
  143MOL0     H19239   2.269   0.736   0.630  1.3696 -1.9995 -1.6288
  143MOL0     H19240   2.096   0.809   0.779  1.0369 -0.4299 -1.1686
  143MOL0     H19241   2.137   0.637   0.821 -0.4175 -0.5561  1.4041
  143MOL0     H19242   1.925   0.750   0.899  2.9341  0.1364 -3.5896
  143MOL0     H19243   2.024   0.682   1.031  0.4294 -0.1146 -0.4369
  143MOL0     H19244   2.096   0.910   1.096 -0.2323  1.6317  0.3219
  143MOL0     H19245   2.028   0.972   0.944 -0.1477 -1.6119 -2.1467
  143MOL0     H19246   1.850   1.023   1.105  0.4680 -0.8254 -0.3770
  143MOL0     H19247   1.795   0.874   1.043 -0.5806 -0.7359 -0.4722
  143MOL0     H19248   1.921   0.770   1.252 -0.5804 -0.2633 -2.2719
  143MOL0     H19249   1.965   0.943   1.287  0.4286  1.4163 -0.2911
  143MOL0     H19250   1.728   0.988   1.309  0.6684 -0.1641  1.0734
  143MOL0     H19251   1.680   0.818   1.266 -1.2444  0.4104 -0.6952
  143MOL0     H19252   1.807   0.933   1.530 -0.3789 -1.9190  1.1696
  143MOL0     H19253   1.646   0.853   1.502 -1.2650 -1.4170 -0.9096
  143MOL0     H19254   1.918   0.710   1.511  0.3086 -1.8189 -0.3946
  143MOL0     H19255   1.757   0.643   1.465 -2.0280 -0.5440  2.4486
  143MOL0     H19256   1.937   0.816   1.769 -0.2039  0.2418  1.5570
  143MOL0     H19257   1.651   0.784   2.046 -0.9992 -1.3501 -1.5769
  143MOL0     H19258   1.820   0.764   2.051 -0.7110  0.0582  0.6125
  143MOL0     H19259   1.865   0.993   1.966 -0.3610 -1.5616 -0.2039
  143MOL0     H19260   1.773   1.004   2.118  0.6584  1.4986 -0.8542
  143MOL0     H19261   1.643   1.152   1.994 -2.2010  0.1491 -2.2121
  143MOL0     H19262   1.568   1.005   1.942  0.4547 -1.0968  1.4979
  143MOL0     H19263   1.728   1.007   1.737  1.6244  0.4217  0.0660
  143MOL0     H19264   1.800   1.147   1.812  0.1398 -0.8627  2.7067
  143MOL0     H19265   1.497   0.931   1.703  1.6307  0.4087 -0.9688
  143MOL0     H19266   1.183   0.815   1.623 -0.5392 -1.7833  2.1042
  143MOL0     H19267   1.355   0.782   1.666 -2.0812 -1.6702  0.0949
  143MOL0     H19268   1.240   0.855   1.782  0.1536  1.6093  0.7025
  143MOL0     H19269   0.922   1.219   1.305  0.5906 -0.9346 -0.2851
  143MOL0     H19270   0.674   1.223   1.246 -0.5747  2.6160  1.2975
  143MOL0     H19271   0.392   1.090   1.543  3.2154  1.9223  2.1484
  143MOL0     H19272   0.361   1.258   1.560 -0.9428  0.4880 -0.8012
  143MOL0     H19273   0.250   1.263   1.323  2.1838 -0.6929  0.6437
  143MOL0     H19274   0.242   1.079   1.343  1.6571 -0.4059  1.7837
  143MOL0     H19275   0.141   1.289   1.533  1.3807  2.3180 -4.2344
  143MOL0     H19276   0.124   1.117   1.553 -4.2387  0.0748 -0.3304
  143MOL0     H19277   0.003   1.288   1.331 -1.2104 -0.1386 -0.9167
  143MOL0     H19278   0.010   1.101   1.341 -1.2805 -0.7842 -0.2113
  143MOL0     H19279  -0.153   1.299   1.498  1.1081  0.2968 -0.6851
  143MOL0     H19280  -0.100   1.148   1.575 -0.0210 -0.7482 -0.3649
  143MOL0     H19281  -0.236   1.172   1.299 -0.4919  1.2953  0.5750
  143MOL0     H19282  -0.211   1.024   1.385  0.0771  0.7083  1.4593
  143MOL0     H19283  -0.387   1.241   1.517  0.6516 -0.3512  2.0481
  143MOL0     H19284  -0.393   1.071   1.543 -2.8903  0.9469 -0.9882
  143MOL0     H19285  -0.590   1.173   1.413 -1.2596 -2.3284  0.5728
  143MOL0     H19286  -0.525   1.016   1.396  4.1936 -1.2399  2.1963
  143MOL0     H19287   0.576   1.185   1.662 -0.4151 -1.1456 -0.0666
  143MOL0     H19288   0.819   1.169   1.720 -0.5230  1.3778  1.2094
  143MOL0     H19289   1.230   1.312   1.533  0.3492  0.3208  0.6508
  143MOL0     H19290   1.451   1.353   1.611  0.3417  0.5280  1.3652
  143MOL0     H19291   2.475   0.882   0.978 -0.5708  0.4075  0.7901
  143MOL0     H19292   2.668   0.945   0.845 -1.5818  2.5469  0.9089
  143MOL0     H19293   2.729   0.678   0.274 -2.3976  2.6061 -0.3425
  143MOL0     H19294   2.847   0.728   0.060  4.2571 -2.3277 -0.1766
  143MOL0     H19295   2.942   0.821  -0.094 -0.6059  0.0676  0.5538
  143MOL0     H19296   3.087   0.912  -0.151  1.0978  0.9161  0.2167
  143MOL0     H19297   3.103   0.666  -0.191 -0.3885  1.4746 -0.2271
  143MOL0     H19298   3.100   0.646  -0.014  0.7680 -0.2602  1.3957
  143MOL0     H19299   3.312   0.768   0.009  1.3739 -1.7981  0.5324
  143MOL0     H19300   3.312   0.815  -0.160  2.3978  0.2344  1.7108
  143MOL0     H19301   3.299   0.542  -0.201  1.1855 -0.4474 -1.6628
  143MOL0     H19302   3.349   0.542  -0.033 -0.4349  0.1105 -0.3709
  143MOL0     H19303   3.701   0.728  -0.231 -0.1359 -0.8581 -1.5908
  143MOL0     H19304   3.098   1.001   0.289 -1.3320  1.2238  4.3941
  143MOL0     H19305   2.969   0.974   0.465 -1.6726  1.3800 -0.7227
  144MOL0     O19306   1.240   5.244   0.677  0.2019 -0.3280  0.2160
  144MOL0     C19307   1.279   5.358   0.664 -0.1355  0.0339 -0.2213
  144MOL0     O19308   1.219   5.476   0.702 -0.5585  0.2144  0.7488
  144MOL0     C19309   1.093   5.474   0.760 -0.4170  0.0063  0.7866
  144MOL0     C19310   1.089   5.547   0.877  0.7207 -0.0168 -0.5835
  144MOL0     C19311   0.962   5.574   0.935 -0.8769 -0.0958  0.0387
  144MOL0     C19312   0.848   5.522   0.879 -0.4071 -1.0132  0.1978
  144MOL0     O19313   0.729   5.556   0.951 -0.0627  0.3006  0.1435
  144MOL0     C19314   0.639   5.446   0.953 -0.6421 -0.0717 -0.7743
  144MOL0     C19315   0.519   5.472   1.051 -0.4228  0.1292 -0.0964
  144MOL0     C19316   0.459   5.609   1.038 -0.7543  0.1211  0.0170
  144MOL0     C19317   0.348   5.604   1.142 -0.0645 -0.4881 -0.1017
  144MOL0     C19318   0.271   5.734   1.160  0.8317  0.6208  0.2638
  144MOL0     C19319   0.147   5.714   1.249 -1.2606  0.2959 -0.0298
  144MOL0     C19320   0.086   5.841   1.291  0.4250  0.8538 -0.1603
  144MOL0     C19321  -0.044   5.810   1.363 -0.5120 -0.8329  0.1196
  144MOL0     N19322  -0.096   5.924   1.439  0.6864 -0.1283  0.8026
  144MOL0     C19323  -0.141   6.045   1.392 -0.5672  0.0373  0.5815
  144MOL0     C19324  -0.215   6.104   1.491  0.8851  0.7115 -0.2964
  144MOL0     C19325  -0.323   6.214   1.477  0.1271 -0.3923  1.6343
  144MOL0     C19326  -0.438   6.160   1.388 -0.0578 -0.2794 -0.4820
  144MOL0     C19327  -0.489   6.017   1.406  0.0338  0.4969  0.2737
  144MOL0     C19328  -0.558   5.999   1.542  0.5375 -0.7228  0.1357
  144MOL0     O19329  -0.670   6.093   1.554 -0.4376  0.3978  0.0551
  144MOL0     C19330  -0.796   6.042   1.527 -0.1114  0.2158  0.0762
  144MOL0     C19331  -0.859   6.082   1.408 -0.0906 -0.9063  0.4021
  144MOL0     C19332  -0.986   6.035   1.375 -0.3917  0.6479  0.2728
  144MOL0     C19333  -1.068   6.090   1.258  1.1005 -0.5647  0.8056
  144MOL0     C19334  -1.054   5.952   1.473 -0.2719  0.4759  0.0046
  144MOL0     C19335  -1.192   5.898   1.464  0.1533 -0.8093 -0.0393
  144MOL0     O19336  -1.201   5.764   1.485 -0.3723 -0.6374 -0.0777
  144MOL0     C19337  -1.322   5.691   1.488 -0.0158  0.6048 -0.2641
  144MOL0     C19338  -1.436   5.744   1.557 -0.4129 -0.5474  0.0192
  144MOL0     C19339  -1.554   5.679   1.552 -0.2720  0.4151  0.9460
  144MOL0     C19340  -1.569   5.559   1.480 -0.5969  0.0408 -0.1219
  144MOL0     O19341  -1.683   5.483   1.477  0.6663 -0.1695  0.4902
  144MOL0     C19342  -1.768   5.492   1.597 -1.5790  0.0724 -0.7238
  144MOL0     C19343  -1.868   5.381   1.575  0.2260  0.1998 -0.7210
  144MOL0     C19344  -1.974   5.433   1.473  0.2843  0.0313  0.2764
  144MOL0     C19345  -2.067   5.312   1.440  0.8921  0.2022 -0.2054
  144MOL0     C19346  -2.191   5.353   1.370  0.6152  0.0562  0.3393
  144MOL0     C19347  -2.272   5.235   1.307 -0.0282  0.2419  0.3609
  144MOL0     C19348  -2.381   5.278   1.220  0.3940  0.2057  0.1338
  144MOL0     C19349  -2.431   5.163   1.137 -0.3048  0.2462 -0.1393
  144MOL0    Cl19350  -2.568   5.216   1.032  0.2574 -0.2983  0.2502
  144MOL0     C19351  -1.456   5.512   1.420 -0.6084 -0.7734  0.9120
  144MOL0     C19352  -1.330   5.578   1.415  0.0917  0.1186  0.1885
  144MOL0     O19353  -1.288   5.969   1.433 -0.0420 -0.0352 -1.0162
  144MOL0     C19354  -0.989   5.907   1.594  0.0597 -0.8687  0.1973
  144MOL0     C19355  -0.856   5.956   1.616  0.2198 -0.3007 -1.1822
  144MOL0     N19356  -0.208   6.023   1.601  0.4125 -0.5315  0.0197
  144MOL0     N19357  -0.141   5.920   1.566  0.1881  0.3014 -0.1742
  144MOL0     C19358   0.858   5.446   0.758 -0.1115 -0.3719  0.3201
  144MOL0     C19359   0.979   5.426   0.701  1.2540  0.2792 -0.9266
  144MOL0     C19360   1.404   5.388   0.588  0.7390 -0.1761 -0.1449
  144MOL0     C19361   1.493   5.285   0.571  0.5324  0.1362 -0.1414
  144MOL0     C19362   1.621   5.314   0.514  0.0386  0.6289 -0.8313
  144MOL0     C19363   1.657   5.435   0.461 -0.2830 -0.0062 -0.2682
  144MOL0     O19364   1.778   5.438   0.400 -0.0708 -0.1244  0.1238
  144MOL0     C19365   1.825   5.565   0.364  0.4571  0.1419  1.1397
  144MOL0     C19366   1.893   5.540   0.230  0.1176  0.1670 -0.0407
  144MOL0     C19367   2.014   5.445   0.240 -0.7446 -0.8640 -0.8576
  144MOL0     C19368   2.143   5.504   0.311  0.2416  0.3583 -0.5946
  144MOL0     C19369   2.205   5.625   0.260 -0.4699  0.2009  0.8027
  144MOL0     C19370   2.245   5.730   0.216 -0.6019 -0.1486  0.2698
  144MOL0     C19371   1.564   5.542   0.469  0.9258  0.2368 -0.1938
  144MOL0     C19372   1.443   5.520   0.545 -0.7371  0.2385  0.3296
  144MOL0     H19373   1.167   5.598   0.933 -1.0318 -0.8404  2.8626
  144MOL0     H19374   0.951   5.636   1.023 -0.2316  0.0061  0.0529
  144MOL0     H19375   0.603   5.429   0.851 -3.1342 -1.9160  0.3121
  144MOL0     H19376   0.696   5.358   0.984  1.0370  0.9194 -0.9607
  144MOL0     H19377   0.447   5.393   1.030 -2.4326  1.9094 -0.2096
  144MOL0     H19378   0.550   5.474   1.156 -2.6607  3.4817  0.6687
  144MOL0     H19379   0.530   5.692   1.034  0.7885 -1.1973 -1.4844
  144MOL0     H19380   0.397   5.618   0.948 -0.0322  3.1467 -0.2754
  144MOL0     H19381   0.267   5.546   1.098  0.6689  0.9620 -3.8248
  144MOL0     H19382   0.368   5.562   1.241  1.3067  1.4587  0.5176
  144MOL0     H19383   0.344   5.803   1.203 -2.7989  3.0494  3.1268
  144MOL0     H19384   0.242   5.760   1.057  0.1618 -0.6169  0.1104
  144MOL0     H19385   0.077   5.657   1.188 -2.1827 -0.1013  1.3639
  144MOL0     H19386   0.169   5.653   1.337  1.0664 -3.1920 -2.7451
  144MOL0     H19387   0.156   5.885   1.363 -0.0060 -0.3769  1.0655
  144MOL0     H19388   0.064   5.906   1.206 -2.2766 -2.0632 -1.9402
  144MOL0     H19389  -0.034   5.716   1.418  0.9596 -1.2615 -0.8115
  144MOL0     H19390  -0.115   5.786   1.283  2.6507 -0.3461 -3.1188
  144MOL0     H19391  -0.147   6.082   1.290 -1.1630  0.6501  0.8277
  144MOL0     H19392  -0.360   6.238   1.577  1.3336 -0.8734  2.2091
  144MOL0     H19393  -0.279   6.303   1.432 -2.0056 -0.4737 -0.9091
  144MOL0     H19394  -0.396   6.152   1.287  0.7297 -2.6585 -0.0330
  144MOL0     H19395  -0.523   6.228   1.392 -0.6245 -0.8137 -2.2678
  144MOL0     H19396  -0.414   5.938   1.390 -2.6286 -2.2357  0.3211
  144MOL0     H19397  -0.555   5.987   1.324  1.0097 -3.3887  0.6664
  144MOL0     H19398  -0.486   6.010   1.624  0.7104  0.5374 -0.1542
  144MOL0     H19399  -0.591   5.895   1.545 -0.3410 -0.4211  1.2282
  144MOL0     H19400  -0.814   6.164   1.353 -0.9549 -1.9840 -2.0239
  144MOL0     H19401  -1.121   6.181   1.286  2.1748  0.8492 -1.4998
  144MOL0     H19402  -1.004   6.105   1.170 -1.3293 -0.1557 -1.0142
  144MOL0     H19403  -1.140   6.016   1.221 -1.2027  1.9652 -0.1220
  144MOL0     H19404  -1.427   5.838   1.611 -1.9407 -0.5813  0.3710
  144MOL0     H19405  -1.645   5.724   1.588 -0.7052 -0.5075  1.0299
  144MOL0     H19406  -1.712   5.473   1.689 -0.3205 -2.4899 -1.9280
  144MOL0     H19407  -1.815   5.591   1.600 -0.0087  0.8433  2.9002
  144MOL0     H19408  -1.826   5.293   1.526 -0.3802 -0.4200 -0.1523
  144MOL0     H19409  -1.922   5.359   1.668 -0.1885  1.7366 -0.5684
  144MOL0     H19410  -1.924   5.468   1.383 -0.7368 -1.3809 -0.8931
  144MOL0     H19411  -2.034   5.517   1.510  0.1490 -0.2819  0.7850
  144MOL0     H19412  -2.025   5.234   1.376  0.6205 -0.2042  0.1054
  144MOL0     H19413  -2.094   5.264   1.535 -2.0216 -0.8093 -1.4333
  144MOL0     H19414  -2.157   5.423   1.293  1.6226  0.6013  1.2590
  144MOL0     H19415  -2.263   5.403   1.436 -2.3625  0.8039 -3.1368
  144MOL0     H19416  -2.211   5.169   1.244 -3.2810 -1.5696 -1.1206
  144MOL0     H19417  -2.316   5.170   1.383  2.4518 -4.4978 -1.8027
  144MOL0     H19418  -2.355   5.356   1.147  0.9666 -0.2570 -0.1615
  144MOL0     H19419  -2.463   5.316   1.282 -0.6361 -1.6185 -0.0434
  144MOL0     H19420  -2.451   5.079   1.205  1.3300  0.4542  0.6433
  144MOL0     H19421  -2.357   5.127   1.064 -0.9545  0.0515 -0.7188
  144MOL0     H19422  -1.460   5.415   1.372  1.0810 -0.5037  0.1516
  144MOL0     H19423  -1.244   5.532   1.367  0.5035  0.7744  0.2927
  144MOL0     H19424  -1.044   5.847   1.666 -1.5406  0.1086 -0.1515
  144MOL0     H19425  -0.801   5.926   1.705 -1.3579 -4.4583 -1.4268
  144MOL0     H19426   0.767   5.407   0.714 -0.2440 -0.8665  1.0247
  144MOL0     H19427   0.992   5.362   0.614 -2.2622 -1.1828 -0.5633
  144MOL0     H19428   1.478   5.187   0.616  2.6968 -0.4368 -0.5405
  144MOL0     H19429   1.685   5.229   0.493  0.5032  0.9806 -0.8604
  144MOL0     H19430   1.762   5.652   0.345  0.4202 -0.2229 -0.6157
  144MOL0     H19431   1.902   5.589   0.438  1.0223  2.2936 -0.0452
  144MOL0     H19432   1.930   5.633   0.186  2.1285 -0.2534  0.6370
  144MOL0     H19433   1.813   5.495   0.172  1.0863 -0.3280 -1.0358
  144MOL0     H19434   2.039   5.409   0.139 -3.7843 -0.6701 -1.7627
  144MOL0     H19435   1.999   5.353   0.298  1.5902 -0.7711  0.0303
  144MOL0     H19436   2.222   5.431   0.328  0.4454  0.1914 -2.0725
  144MOL0     H19437   2.100   5.526   0.409  1.8692  0.7656  0.0479
  144MOL0     H19438   2.284   5.824   0.184  2.9220 -2.0098 -1.5522
  144MOL0     H19439   1.586   5.636   0.420  2.4837  0.4180  0.7795
  144MOL0     H19440   1.374   5.604   0.551 -2.7583 -1.1164 -2.0703
  145MOL0     O19441   5.590   6.511  10.902 -0.0359  0.3851  0.0237
  145MOL0     C19442   5.568   6.628  10.876 -0.0059  0.4750 -0.3782
  145MOL0     O19443   5.439   6.677  10.857  0.0451 -0.7389  0.3709
  145MOL0     C19444   5.331   6.607  10.893  0.8025  1.3779 -0.4164
  145MOL0     C19445   5.231   6.569  10.798  0.0190 -0.6278  0.3890
  145MOL0     C19446   5.117   6.502  10.842  0.2255  0.4631 -0.1278
  145MOL0     C19447   5.112   6.435  10.963 -0.2602 -0.5953  0.2214
  145MOL0     O19448   5.003   6.355  10.996 -0.0753 -0.0884 -0.1629
  145MOL0     C19449   4.871   6.362  10.935  1.0589 -0.1973 -0.9053
  145MOL0     C19450   4.788   6.245  10.965 -0.1784  0.5666 -0.6755
  145MOL0     C19451   4.772   6.214  11.115 -0.6027  0.2759  0.8356
  145MOL0     C19452   4.683   6.094  11.145  0.4572 -0.4718  0.4207
  145MOL0     C19453   4.531   6.097  11.134  0.0079  0.7138  0.2609
  145MOL0     C19454   4.453   5.961  11.172 -0.0029 -0.1895  0.3264
  145MOL0     C19455   4.528   5.838  11.117  0.3176  0.2495 -0.0719
  145MOL0     C19456   4.445   5.716  11.098  0.3593  0.7273 -0.6380
  145MOL0     N19457   4.411   5.667  11.232 -0.0848 -0.5832  0.1427
  145MOL0     C19458   4.308   5.718  11.299  0.0766 -0.6151  0.0295
  145MOL0     C19459   4.312   5.662  11.420 -0.2197 -0.2673  0.1205
  145MOL0     C19460   4.242   5.700  11.557  0.3471 -0.4223  0.3175
  145MOL0     C19461   4.095   5.704  11.535 -0.1443  0.0324  0.7240
  145MOL0     C19462   4.046   5.560  11.524 -0.2021 -0.3026  0.4131
  145MOL0     C19463   3.908   5.547  11.467 -0.5896  0.4911 -0.0806
  145MOL0     O19464   3.881   5.404  11.472 -0.6128  0.4205 -0.7585
  145MOL0     C19465   3.775   5.354  11.541 -0.7279  0.2662 -0.1865
  145MOL0     C19466   3.657   5.426  11.575 -0.4730 -0.8435 -0.2216
  145MOL0     C19467   3.564   5.374  11.669  0.0012  0.3587  0.5380
  145MOL0     C19468   3.478   5.485  11.727  1.3011 -0.2782 -0.2357
  145MOL0     C19469   3.576   5.236  11.713  0.9703  0.0015  0.5218
  145MOL0     C19470   3.483   5.182  11.816  0.6990  0.2585  0.2696
  145MOL0     O19471   3.486   5.039  11.844  0.2497 -0.1003 -0.3229
  145MOL0     C19472   3.461   4.993  11.968 -0.0396 -0.6551  0.9762
  145MOL0     C19473   3.445   5.069  12.083  0.5529 -0.1041 -1.0173
  145MOL0     C19474   3.397   5.011  12.197  0.3279 -0.0124 -0.4317
  145MOL0     C19475   3.396   4.866  12.215 -1.3484 -0.0768  0.3204
  145MOL0     O19476   3.367   4.788  12.322  0.0119  0.1530 -0.3342
  145MOL0     C19477   3.409   4.830  12.448  0.0998  0.0893 -0.2344
  145MOL0     C19478   3.427   4.723  12.552  0.8385 -0.2316  0.0823
  145MOL0     C19479   3.508   4.608  12.490  0.4555  0.7192  1.1237
  145MOL0     C19480   3.526   4.491  12.592 -0.2940 -0.4797  0.0440
  145MOL0     C19481   3.573   4.359  12.521  0.9774 -1.1408 -0.6354
  145MOL0     C19482   3.721   4.354  12.519 -1.0817  0.3917  0.1549
  145MOL0     C19483   3.774   4.216  12.481 -0.0826 -0.3180 -0.2789
  145MOL0     C19484   3.933   4.220  12.491  0.2263  0.6416 -0.4157
  145MOL0    Cl19485   3.983   4.201  12.657 -0.0346  0.0864 -0.0882
  145MOL0     C19486   3.414   4.789  12.097  0.3124 -0.8775  0.3566
  145MOL0     C19487   3.453   4.856  11.981  0.7307  0.4403 -0.2387
  145MOL0     O19488   3.394   5.253  11.859  0.3418  0.1450  0.8978
  145MOL0     C19489   3.683   5.156  11.666  0.3170 -1.2069  0.8203
  145MOL0     C19490   3.785   5.226  11.591  0.7373 -0.1690 -0.3037
  145MOL0     N19491   4.427   5.574  11.416 -0.1511  0.2746  0.1692
  145MOL0     N19492   4.482   5.573  11.300 -0.2121  0.5333 -0.2135
  145MOL0     C19493   5.210   6.473  11.058  0.0071 -0.1761 -0.1658
  145MOL0     C19494   5.321   6.555  11.017  0.3120 -0.4791  0.1125
  145MOL0     C19495   5.678   6.727  10.875  0.4387  0.4149  0.3715
  145MOL0     C19496   5.655   6.858  10.829  0.0477  0.7957 -0.3816
  145MOL0     C19497   5.754   6.956  10.840  0.7558  0.1456  0.3356
  145MOL0     C19498   5.882   6.922  10.894  0.6965 -0.1458  0.3354
  145MOL0     O19499   5.988   7.002  10.914 -0.1927  0.2296  0.0664
  145MOL0     C19500   5.982   7.133  10.859  0.2213  0.5273 -0.0202
  145MOL0     C19501   6.114   7.206  10.874  0.7122 -0.2782 -0.6774
  145MOL0     C19502   6.232   7.133  10.809 -0.2465  0.4883  0.3892
  145MOL0     C19503   6.350   7.222  10.788  0.3287 -0.0737 -0.3530
  145MOL0     C19504   6.327   7.318  10.685 -0.1463  0.3036  0.8624
  145MOL0     C19505   6.332   7.398  10.588 -0.5522  0.3362 -0.6601
  145MOL0     C19506   5.909   6.796  10.927  0.3265  0.3166 -0.3533
  145MOL0     C19507   5.807   6.699  10.923 -0.9898 -0.0347  0.0233
  145MOL0     H19508   5.232   6.610  10.698 -1.5229  1.2107  1.0674
  145MOL0     H19509   5.034   6.496  10.771 -0.3563 -0.9922  0.6422
  145MOL0     H19510   4.811   6.447  10.967  1.6470  0.7679 -2.3043
  145MOL0     H19511   4.876   6.366  10.826 -0.7786  3.2145 -0.9955
  145MOL0     H19512   4.687   6.273  10.933 -1.5130 -0.7951  2.0000
  145MOL0     H19513   4.816   6.160  10.904 -1.4713  0.6505 -1.4376
  145MOL0     H19514   4.870   6.185  11.156  0.4047  0.6886 -1.1763
  145MOL0     H19515   4.731   6.295  11.176 -0.4439 -0.6187  2.1924
  145MOL0     H19516   4.723   6.002  11.102 -0.9436 -1.8894  1.9644
  145MOL0     H19517   4.706   6.077  11.251  0.6481  0.7460  0.5837
  145MOL0     H19518   4.499   6.172  11.208  0.6470  2.5323 -1.2243
  145MOL0     H19519   4.488   6.126  11.038 -2.0557 -1.6285  0.3830
  145MOL0     H19520   4.451   5.943  11.280  0.9766 -0.0976  0.3747
  145MOL0     H19521   4.354   5.959  11.127 -0.0753 -1.1546  0.5056
  145MOL0     H19522   4.559   5.861  11.014 -2.0545 -0.4851 -1.0236
  145MOL0     H19523   4.615   5.805  11.174 -0.5020  0.0339  1.0876
  145MOL0     H19524   4.509   5.640  11.053  0.9512 -0.7158  2.3591
  145MOL0     H19525   4.359   5.726  11.032  0.5679 -0.6361 -1.1386
  145MOL0     H19526   4.239   5.800  11.279 -0.5340 -0.9019  0.9119
  145MOL0     H19527   4.264   5.628  11.636  0.3394  0.2907  0.9794
  145MOL0     H19528   4.272   5.801  11.584  2.2726 -1.0870  0.7978
  145MOL0     H19529   4.065   5.767  11.451 -0.8606  1.7682  2.2252
  145MOL0     H19530   4.045   5.755  11.618 -2.0814  1.1602 -1.0466
  145MOL0     H19531   4.039   5.499  11.615 -0.2027 -2.9514 -1.2761
  145MOL0     H19532   4.114   5.503  11.460 -0.0119 -0.9711  1.1969
  145MOL0     H19533   3.901   5.575  11.362 -0.2619 -0.5261 -0.3839
  145MOL0     H19534   3.849   5.611  11.534  1.0667  3.1752 -1.0329
  145MOL0     H19535   3.640   5.526  11.536  0.9575  0.5543  2.4910
  145MOL0     H19536   3.369   5.478  11.719  1.2916  0.0635 -0.4458
  145MOL0     H19537   3.503   5.489  11.833  1.6035  1.1580 -0.3388
  145MOL0     H19538   3.503   5.581  11.679 -0.1880 -0.2461 -0.9939
  145MOL0     H19539   3.458   5.176  12.075  0.8758 -0.1437 -1.0466
  145MOL0     H19540   3.362   5.075  12.277 -0.8386 -1.9028  0.6407
  145MOL0     H19541   3.506   4.881  12.435  1.1212 -1.9874 -1.1409
  145MOL0     H19542   3.339   4.900  12.495  0.6062  1.6720 -1.7165
  145MOL0     H19543   3.468   4.759  12.647  0.4380 -1.9556  0.9455
  145MOL0     H19544   3.326   4.685  12.568 -0.1910  1.4405 -1.8386
  145MOL0     H19545   3.609   4.635  12.456  1.2406 -2.1281  0.9381
  145MOL0     H19546   3.456   4.572  12.401 -0.9293  0.3105  2.0667
  145MOL0     H19547   3.600   4.528  12.663 -1.3459  0.3186  0.7493
  145MOL0     H19548   3.429   4.479  12.642  0.3162 -1.1686  1.0956
  145MOL0     H19549   3.528   4.355  12.421 -3.0510 -1.2021  0.9734
  145MOL0     H19550   3.546   4.274  12.584  2.9410 -1.4959 -0.2039
  145MOL0     H19551   3.759   4.425  12.445 -1.6447 -1.0032 -1.5441
  145MOL0     H19552   3.766   4.378  12.616  0.2841 -3.6326  0.6947
  145MOL0     H19553   3.735   4.181  12.385  1.6240 -1.4811 -0.5931
  145MOL0     H19554   3.750   4.143  12.559  2.2684  1.4484  2.3031
  145MOL0     H19555   3.981   4.309  12.448 -0.8694  0.8427 -1.2908
  145MOL0     H19556   3.965   4.131  12.437 -0.5973 -2.5096  3.7769
  145MOL0     H19557   3.401   4.681  12.102 -1.7368 -0.6854 -0.1653
  145MOL0     H19558   3.474   4.801  11.890  0.0074 -0.1242 -0.0746
  145MOL0     H19559   3.699   5.054  11.700 -3.8077 -1.9339  1.1911
  145MOL0     H19560   3.869   5.162  11.567 -0.0785 -0.7286 -1.8431
  145MOL0     H19561   5.206   6.429  11.157 -2.1842 -1.6791 -0.8363
  145MOL0     H19562   5.398   6.554  11.093 -1.0110 -3.1833  1.5496
  145MOL0     H19563   5.552   6.880  10.800 -0.2601 -3.0640 -3.0432
  145MOL0     H19564   5.721   7.057  10.818  0.9321  0.1613  0.1451
  145MOL0     H19565   5.950   7.131  10.755 -1.5350  0.2974  0.4924
  145MOL0     H19566   5.913   7.195  10.917  1.1673 -0.1758  1.9822
  145MOL0     H19567   6.134   7.213  10.981 -1.3919  1.0782 -0.3163
  145MOL0     H19568   6.099   7.304  10.827  3.3395  0.9105  0.7620
  145MOL0     H19569   6.209   7.089  10.712 -0.9823 -2.5033  1.8038
  145MOL0     H19570   6.264   7.054  10.876 -1.5322  0.6133  1.1977
  145MOL0     H19571   6.437   7.163  10.759  1.1640 -0.6836  2.9359
  145MOL0     H19572   6.373   7.264  10.887 -0.6465 -1.8337  0.6771
  145MOL0     H19573   6.325   7.460  10.501  3.1779 -0.0854 -1.4103
  145MOL0     H19574   6.010   6.774  10.958  1.1266  2.2562 -1.4138
  145MOL0     H19575   5.842   6.597  10.938 -0.3083  0.5852  3.6771
  146MOL0     O19576   8.146   5.413   1.956 -0.1172  0.0931  0.0465
  146MOL0     C19577   8.230   5.452   1.872 -0.8601 -0.3068 -0.8736
  146MOL0     O19578   8.230   5.422   1.735  0.0325  0.1190 -0.6629
  146MOL0     C19579   8.132   5.338   1.690  0.0786 -0.1388  0.1592
  146MOL0     C19580   7.994   5.341   1.728 -0.0035 -0.4084 -1.0220
  146MOL0     C19581   7.911   5.249   1.663 -0.0916  0.3388  0.0850
  146MOL0     C19582   7.958   5.158   1.573 -0.6373  0.9422  0.5062
  146MOL0     O19583   7.871   5.073   1.500  0.2159  0.5888 -0.1908
  146MOL0     C19584   7.739   5.064   1.544  0.8394 -0.0186 -0.0802
  146MOL0     C19585   7.680   4.956   1.454 -0.0999  0.3218  0.0977
  146MOL0     C19586   7.639   5.001   1.317 -0.4113  0.0074 -0.1835
  146MOL0     C19587   7.581   4.892   1.240  0.6778  0.8175 -0.1025
  146MOL0     C19588   7.547   4.929   1.091  0.6323  0.6530  0.3135
  146MOL0     C19589   7.553   4.799   1.002 -0.5258  0.6395 -0.1744
  146MOL0     C19590   7.431   4.712   1.028 -0.5282  0.8564  1.2829
  146MOL0     C19591   7.415   4.605   0.914 -0.2389 -0.5621  0.1995
  146MOL0     N19592   7.292   4.537   0.924 -0.0205 -0.3460  0.3102
  146MOL0     C19593   7.253   4.471   1.039  0.4485 -0.8196 -0.3220
  146MOL0     C19594   7.122   4.461   1.028  0.5795  0.8814 -0.0902
  146MOL0     C19595   7.030   4.383   1.119  0.4891  0.7942  0.3346
  146MOL0     C19596   6.879   4.384   1.074  0.5464  0.1882 -0.5717
  146MOL0     C19597   6.806   4.286   1.155 -0.4285 -0.7914 -0.1880
  146MOL0     C19598   6.657   4.272   1.120  0.0318  0.4527  0.4653
  146MOL0     O19599   6.647   4.192   0.999  0.0466 -0.1621  0.1152
  146MOL0     C19600   6.529   4.195   0.926 -0.4016 -0.2891 -0.5593
  146MOL0     C19601   6.422   4.117   0.967 -0.6262 -0.3297 -1.0630
  146MOL0     C19602   6.295   4.119   0.915 -0.3568  0.9799  0.2185
  146MOL0     C19603   6.185   4.018   0.949 -0.8003  0.1706  0.0994
  146MOL0     C19604   6.269   4.206   0.811  0.1221 -0.1845  0.7336
  146MOL0     C19605   6.129   4.225   0.771  0.5216  0.1259 -0.8583
  146MOL0     O19606   6.061   4.136   0.695  0.7512 -0.3652  0.1637
  146MOL0     C19607   5.926   4.162   0.686  0.8632  0.0452  0.2952
  146MOL0     C19608   5.851   4.168   0.813  0.4322  0.3767 -0.5710
  146MOL0     C19609   5.710   4.185   0.812  0.2414  0.0903  0.6822
  146MOL0     C19610   5.635   4.180   0.688  0.4197 -0.2995 -0.5438
  146MOL0     O19611   5.498   4.190   0.698  0.5618 -0.1498  0.3014
  146MOL0     C19612   5.423   4.147   0.584  0.1019 -0.8757 -0.7085
  146MOL0     C19613   5.306   4.062   0.644 -0.5783 -0.1864 -0.6304
  146MOL0     C19614   5.251   4.002   0.520 -0.6601 -0.0519 -0.2877
  146MOL0     C19615   5.149   3.898   0.562  1.0313 -0.0587  0.7819
  146MOL0     C19616   5.059   3.858   0.436  1.0732 -0.5141  0.2236
  146MOL0     C19617   4.988   3.724   0.438  0.7581 -0.5120 -0.5888
  146MOL0     C19618   4.891   3.719   0.560 -0.5948  0.5085  0.0336
  146MOL0     C19619   4.777   3.620   0.538  0.6375 -0.1949  0.6043
  146MOL0    Cl19620   4.818   3.484   0.624  0.6521  0.5106  0.3383
  146MOL0     C19621   5.706   4.179   0.570  0.5832  0.5234 -0.2943
  146MOL0     C19622   5.846   4.167   0.567  1.0286 -0.0920 -0.1737
  146MOL0     O19623   6.088   4.342   0.798 -0.1006  0.4571 -0.2693
  146MOL0     C19624   6.371   4.302   0.771 -0.3238 -0.0214  0.2844
  146MOL0     C19625   6.502   4.291   0.825  0.1714  1.1963 -0.0298
  146MOL0     N19626   7.085   4.519   0.908 -1.4364  0.1161 -0.4533
  146MOL0     N19627   7.184   4.559   0.843 -0.1562  0.7780 -0.8644
  146MOL0     C19628   8.096   5.146   1.542 -0.1502  0.2747  0.0950
  146MOL0     C19629   8.179   5.237   1.599 -1.0362  0.7068 -0.5060
  146MOL0     C19630   8.340   5.533   1.939 -0.1645 -0.5094  0.4452
  146MOL0     C19631   8.355   5.551   2.074  0.6163  0.0132  0.9750
  146MOL0     C19632   8.453   5.638   2.127  0.5209 -0.0513  0.1178
  146MOL0     C19633   8.557   5.694   2.047  1.1709 -0.2092 -0.4031
  146MOL0     O19634   8.644   5.777   2.114  0.0781 -0.3637 -0.2697
  146MOL0     C19635   8.735   5.851   2.035  0.6608 -0.3414 -0.6887
  146MOL0     C19636   8.786   5.969   2.139  0.5583  0.3504  1.1315
  146MOL0     C19637   8.889   6.060   2.078  0.7312 -0.6857  1.2391
  146MOL0     C19638   9.016   5.986   2.037  0.9413  0.8749  0.0631
  146MOL0     C19639   9.124   6.088   2.014  0.3293 -0.4220  0.1189
  146MOL0     C19640   9.191   6.186   1.995 -0.2263 -0.1742 -0.7398
  146MOL0     C19641   8.547   5.669   1.910  0.2386 -1.0663  0.6326
  146MOL0     C19642   8.442   5.593   1.856 -0.7265 -0.2589  0.2049
  146MOL0     H19643   7.964   5.414   1.802 -1.8785 -3.6707  1.7242
  146MOL0     H19644   7.811   5.260   1.705  0.5876  1.4093  1.4773
  146MOL0     H19645   7.729   5.037   1.650 -2.8565  1.3206  0.0783
  146MOL0     H19646   7.688   5.160   1.534 -0.8760 -0.3354  3.7360
  146MOL0     H19647   7.754   4.876   1.446  1.3093  1.3553  2.1133
  146MOL0     H19648   7.596   4.910   1.507 -0.6355  1.2759  0.0953
  146MOL0     H19649   7.574   5.085   1.342 -0.6090 -0.1037 -0.3249
  146MOL0     H19650   7.721   5.040   1.255 -0.9556  1.2368 -0.1585
  146MOL0     H19651   7.657   4.814   1.227 -0.7214 -0.7046  0.5514
  146MOL0     H19652   7.501   4.846   1.298  0.9649  1.8769  1.1907
  146MOL0     H19653   7.452   4.984   1.087  0.5478  0.6142  1.4770
  146MOL0     H19654   7.621   5.000   1.052 -1.0304  1.7252 -1.0350
  146MOL0     H19655   7.568   4.831   0.899 -1.4186  0.3280 -0.4122
  146MOL0     H19656   7.640   4.735   1.015 -1.0871 -0.2927 -0.8747
  146MOL0     H19657   7.440   4.666   1.127  2.0768  0.2573  0.8387
  146MOL0     H19658   7.342   4.777   1.020  0.3003  1.9693  0.8561
  146MOL0     H19659   7.486   4.522   0.925 -1.5728 -1.4336  3.1914
  146MOL0     H19660   7.430   4.649   0.815  0.0397  0.2159  0.5743
  146MOL0     H19661   7.309   4.444   1.128 -1.3870  0.8728  1.4255
  146MOL0     H19662   7.059   4.279   1.136 -1.0992  0.2516 -0.0326
  146MOL0     H19663   7.031   4.429   1.218  3.4908  0.1260  0.7076
  146MOL0     H19664   6.870   4.355   0.969  1.0957 -1.7552 -0.1227
  146MOL0     H19665   6.832   4.480   1.096 -0.8214 -0.3154 -1.1975
  146MOL0     H19666   6.807   4.311   1.261  0.7394  0.9468 -0.5676
  146MOL0     H19667   6.866   4.195   1.147 -0.3155 -1.1367  3.2811
  146MOL0     H19668   6.617   4.372   1.100 -0.3768  0.5538  1.6915
  146MOL0     H19669   6.589   4.231   1.196  0.9752  0.2656  1.2180
  146MOL0     H19670   6.453   4.047   1.043  2.2254  0.8735 -1.0009
  146MOL0     H19671   6.091   4.058   0.988  0.4793  0.2881  3.4275
  146MOL0     H19672   6.163   3.957   0.861 -2.3465  0.7050  0.0916
  146MOL0     H19673   6.211   3.945   1.026 -0.3502 -1.0637 -1.1934
  146MOL0     H19674   5.897   4.153   0.910 -2.1664 -1.9698  0.4394
  146MOL0     H19675   5.665   4.204   0.908 -0.1700  0.9979  0.3200
  146MOL0     H19676   5.375   4.232   0.534 -1.4319 -0.4479  1.3501
  146MOL0     H19677   5.473   4.088   0.507 -0.4224 -0.1913 -1.6102
  146MOL0     H19678   5.345   3.990   0.716 -2.2639 -0.3064  0.2245
  146MOL0     H19679   5.233   4.129   0.692  0.5303  0.0966  0.7317
  146MOL0     H19680   5.333   3.951   0.470 -0.5054 -0.0068 -0.0792
  146MOL0     H19681   5.201   4.082   0.464  0.1090  0.5083 -0.1834
  146MOL0     H19682   5.201   3.807   0.592 -0.0847 -0.1907  2.4034
  146MOL0     H19683   5.082   3.926   0.643 -0.0262 -0.7840  0.1882
  146MOL0     H19684   5.135   3.857   0.357 -0.2622  1.0631 -1.1467
  146MOL0     H19685   4.996   3.946   0.422 -0.4417 -1.1683  2.3797
  146MOL0     H19686   4.940   3.713   0.341 -2.6869 -1.6520  1.0508
  146MOL0     H19687   5.051   3.635   0.446  0.2591 -0.9022 -0.9588
  146MOL0     H19688   4.839   3.815   0.567 -1.6362 -0.1132  1.3030
  146MOL0     H19689   4.944   3.694   0.653  0.5150 -1.4103 -1.0525
  146MOL0     H19690   4.761   3.594   0.433  0.6704 -0.0939  0.5740
  146MOL0     H19691   4.681   3.663   0.567 -1.9561 -3.3043 -2.5401
  146MOL0     H19692   5.651   4.201   0.479  1.3694  0.2871 -0.8368
  146MOL0     H19693   5.896   4.165   0.471 -0.0113 -0.8629 -0.7254
  146MOL0     H19694   6.341   4.376   0.697 -0.8283 -2.5428 -2.2115
  146MOL0     H19695   6.589   4.349   0.796  0.1286  0.3710 -1.9481
  146MOL0     H19696   8.128   5.080   1.462  0.9320  1.5915 -0.6095
  146MOL0     H19697   8.279   5.248   1.559 -0.8498 -1.2909 -0.6767
  146MOL0     H19698   8.276   5.499   2.128 -0.0693 -1.3152 -1.1621
  146MOL0     H19699   8.453   5.663   2.232  1.6565 -3.8213  1.1635
  146MOL0     H19700   8.819   5.795   1.993  1.1714 -0.6404  0.6811
  146MOL0     H19701   8.697   5.904   1.948  2.4078  1.0711 -0.6446
  146MOL0     H19702   8.822   5.929   2.234 -0.6346  3.2643  2.9453
  146MOL0     H19703   8.699   6.029   2.168 -0.9860  0.6122 -3.2637
  146MOL0     H19704   8.915   6.152   2.133  1.0800  1.7807 -2.6478
  146MOL0     H19705   8.833   6.102   1.994  1.0324  1.0793  1.8598
  146MOL0     H19706   9.002   5.926   1.947  0.1619  0.5263  0.4108
  146MOL0     H19707   9.037   5.917   2.119 -1.4172 -1.7100 -1.3549
  146MOL0     H19708   9.248   6.276   1.983 -2.0887  0.8546 -2.4184
  146MOL0     H19709   8.615   5.710   1.836  0.5337  2.5746  2.6946
  146MOL0     H19710   8.441   5.583   1.748  1.0059 -0.1125  0.1487
  147MOL0     O19711   9.034   8.876  10.937 -0.8964  0.6521 -0.2801
  147MOL0     C19712   9.061   8.993  10.947 -0.3384 -0.5293 -0.5816
  147MOL0     O19713   8.984   9.097  10.901  0.7006  0.8182  0.0368
  147MOL0     C19714   8.865   9.066  10.827  0.0369  0.0012  0.2871
  147MOL0     C19715   8.883   9.026  10.687 -0.0321 -0.6350 -0.5642
  147MOL0     C19716   8.768   8.998  10.613  0.0099  0.8563  0.0694
  147MOL0     C19717   8.642   8.982  10.677 -0.3937  1.1726  0.7351
  147MOL0     O19718   8.531   8.936  10.608 -0.2306  0.4851  0.5584
  147MOL0     C19719   8.552   8.795  10.581  0.2001 -0.9138  0.6816
  147MOL0     C19720   8.429   8.761  10.491 -0.0963  0.4240  0.7175
  147MOL0     C19721   8.433   8.624  10.434 -0.2549  0.9534  0.4736
  147MOL0     C19722   8.297   8.574  10.379 -0.0108  0.3360 -0.7605
  147MOL0     C19723   8.248   8.673  10.271  0.1462  0.2351  0.1214
  147MOL0     C19724   8.116   8.611  10.208  0.0200  0.0817  0.4467
  147MOL0     C19725   7.995   8.630  10.305 -0.5591 -0.6257 -0.5862
  147MOL0     C19726   7.885   8.534  10.280  0.2921  0.5422 -0.1066
  147MOL0     N19727   7.770   8.572  10.364 -0.3384  0.8883 -0.1123
  147MOL0     C19728   7.666   8.632  10.320  0.3606  0.0608  0.3786
  147MOL0     C19729   7.578   8.622  10.420  0.2980 -0.3699 -0.4119
  147MOL0     C19730   7.430   8.649  10.406  0.2967 -0.9234  0.2814
  147MOL0     C19731   7.334   8.529  10.411 -0.1400 -0.2635 -0.2813
  147MOL0     C19732   7.312   8.486  10.267 -0.9749  1.0091 -0.0644
  147MOL0     C19733   7.250   8.342  10.252 -0.4624 -0.9205 -0.3407
  147MOL0     O19734   7.149   8.322  10.350  0.4273 -0.8428  0.6175
  147MOL0     C19735   7.020   8.319  10.316 -0.2999 -0.7606 -0.2418
  147MOL0     C19736   6.944   8.227  10.387 -0.8503  0.2606 -0.4762
  147MOL0     C19737   6.810   8.202  10.357  0.2026 -0.2996  0.3270
  147MOL0     C19738   6.749   8.092  10.433  0.3428  0.4648  0.1985
  147MOL0     C19739   6.746   8.273  10.251  0.1783  0.2896 -0.0198
  147MOL0     C19740   6.600   8.259  10.226 -0.1262  0.2895  1.7055
  147MOL0     O19741   6.536   8.374  10.199 -0.5604 -1.2606 -0.0199
  147MOL0     C19742   6.408   8.372  10.149  0.1266 -0.6417  0.1570
  147MOL0     C19743   6.308   8.306  10.215  0.6032 -0.0885  0.2340
  147MOL0     C19744   6.179   8.310  10.159  0.2267  0.4439 -0.7232
  147MOL0     C19745   6.148   8.374  10.041 -0.2179 -0.1476  0.7452
  147MOL0     O19746   6.021   8.355   9.993 -0.4166 -0.5371  0.4875
  147MOL0     C19747   6.010   8.368   9.848 -1.1383 -0.3098  0.3902
  147MOL0     C19748   5.869   8.343   9.799  0.0704  0.8564 -0.2365
  147MOL0     C19749   5.815   8.205   9.847  0.1077 -0.6222  0.3258
  147MOL0     C19750   5.661   8.190   9.866 -0.0579  0.6775  0.1218
  147MOL0     C19751   5.628   8.069   9.964  0.8038  0.2239 -0.1726
  147MOL0     C19752   5.687   7.934   9.924 -0.0761 -0.6178  0.1918
  147MOL0     C19753   5.626   7.869   9.797  0.1179 -0.1845 -0.4881
  147MOL0     C19754   5.718   7.755   9.748 -0.4505  0.4452 -1.1836
  147MOL0    Cl19755   5.681   7.626   9.873  0.0137  0.1175 -0.3145
  147MOL0     C19756   6.256   8.439   9.970 -0.7778 -0.0359 -0.3974
  147MOL0     C19757   6.389   8.437  10.025 -0.8590 -0.1209  0.3008
  147MOL0     O19758   6.557   8.148  10.197  0.3069  0.4981  0.9863
  147MOL0     C19759   6.825   8.360  10.178  1.0042  0.4575 -0.7922
  147MOL0     C19760   6.962   8.381  10.208  0.0013  0.1164  0.1976
  147MOL0     N19761   7.639   8.565  10.531  0.1312 -0.4374  0.4829
  147MOL0     N19762   7.753   8.538  10.496 -0.8187 -0.6921  0.6599
  147MOL0     C19763   8.633   8.998  10.812 -0.9471 -0.3692 -0.6071
  147MOL0     C19764   8.743   9.041  10.886 -0.1680  0.5086 -0.5366
  147MOL0     C19765   9.198   9.029  11.002  1.1576 -0.2889  0.3299
  147MOL0     C19766   9.283   8.930  11.046 -0.0543  0.4329 -0.7347
  147MOL0     C19767   9.414   8.956  11.092  0.2175  0.0831 -0.3652
  147MOL0     C19768   9.461   9.090  11.098 -0.3324  0.8377  0.5831
  147MOL0     O19769   9.581   9.131  11.139 -0.0176  0.1860 -0.1418
  147MOL0     C19770   9.683   9.035  11.192 -0.4356 -0.6863 -0.1045
  147MOL0     C19771   9.747   9.118  11.313 -0.3091 -0.8423  0.4934
  147MOL0     C19772   9.857   9.038  11.382  0.7528  0.0321  1.1314
  147MOL0     C19773   9.973   9.004  11.287  0.3058 -0.1829  0.0505
  147MOL0     C19774  10.086   8.960  11.370 -0.0178  0.1430  0.3076
  147MOL0     C19775  10.171   8.897  11.431  0.1228 -0.9275  0.6714
  147MOL0     C19776   9.370   9.190  11.055 -0.5884  0.0624  0.2303
  147MOL0     C19777   9.243   9.159  11.004  0.0971 -0.6578 -1.1992
  147MOL0     H19778   8.980   9.016  10.639 -0.0268 -3.0700 -0.1647
  147MOL0     H19779   8.776   8.984  10.506 -3.3158 -0.3904 -0.1121
  147MOL0     H19780   8.646   8.757  10.541 -0.3671 -2.5003  0.7736
  147MOL0     H19781   8.543   8.736  10.672  5.0640  0.0091  2.0398
  147MOL0     H19782   8.342   8.782  10.555 -1.4040 -0.7412 -0.5900
  147MOL0     H19783   8.422   8.826  10.403  1.0518 -0.3922  0.0090
  147MOL0     H19784   8.518   8.608  10.366 -0.5798 -3.4513  0.8423
  147MOL0     H19785   8.448   8.556  10.518  1.6527  2.2650  1.2616
  147MOL0     H19786   8.305   8.474  10.335 -1.1022  0.3388 -0.9868
  147MOL0     H19787   8.240   8.576  10.472 -0.5712  3.9160 -1.0439
  147MOL0     H19788   8.232   8.768  10.324  0.1253 -0.2538  1.0109
  147MOL0     H19789   8.326   8.680  10.194  1.3173  0.8289  1.3190
  147MOL0     H19790   8.089   8.663  10.116  0.2293  0.1370  0.4177
  147MOL0     H19791   8.142   8.505  10.197  1.9458  0.3431  1.9810
  147MOL0     H19792   8.027   8.626  10.409 -2.8027 -0.5973  0.1697
  147MOL0     H19793   7.969   8.735  10.287 -1.6265 -0.1294  3.0884
  147MOL0     H19794   7.920   8.432  10.300  0.1460  1.0260  3.0349
  147MOL0     H19795   7.856   8.545  10.175  0.4967 -1.4199 -0.4073
  147MOL0     H19796   7.640   8.669  10.222  0.5605  1.2785  0.7722
  147MOL0     H19797   7.406   8.718  10.487  3.3490  1.7387 -0.8959
  147MOL0     H19798   7.411   8.705  10.315  1.3458 -0.7395  0.1732
  147MOL0     H19799   7.238   8.552  10.457 -1.7177 -2.3460 -2.3270
  147MOL0     H19800   7.386   8.454  10.472 -0.4710 -1.9311 -1.9698
  147MOL0     H19801   7.411   8.492  10.220 -1.1623  0.1398 -0.5832
  147MOL0     H19802   7.240   8.555  10.220 -0.4881  1.2794 -0.4260
  147MOL0     H19803   7.329   8.271  10.278  1.9371  1.3049 -1.1040
  147MOL0     H19804   7.227   8.323  10.147  1.3479 -3.3820 -0.4035
  147MOL0     H19805   7.003   8.172  10.459 -1.7365  0.1081  0.1641
  147MOL0     H19806   6.822   8.035  10.492  1.2481  2.1423  0.7820
  147MOL0     H19807   6.673   8.136  10.499  0.2268  3.8498 -1.9503
  147MOL0     H19808   6.714   8.013  10.366  0.5294  0.2234  0.3830
  147MOL0     H19809   6.321   8.258  10.311 -2.1783  1.0795  1.3016
  147MOL0     H19810   6.101   8.251  10.207  0.5701  1.1121  0.7025
  147MOL0     H19811   6.032   8.471   9.818 -3.3747  0.2009  0.3439
  147MOL0     H19812   6.080   8.299   9.801  1.9682 -0.1473  4.2244
  147MOL0     H19813   5.789   8.416   9.815 -3.0247 -1.9175 -1.8440
  147MOL0     H19814   5.878   8.345   9.690  0.1507 -0.3100 -0.2663
  147MOL0     H19815   5.872   8.189   9.939  1.4970 -1.6099 -0.6430
  147MOL0     H19816   5.846   8.125   9.779 -0.1607 -0.4724  0.0292
  147MOL0     H19817   5.617   8.283   9.905  0.4649  1.0469 -0.1679
  147MOL0     H19818   5.615   8.178   9.767  2.7087  3.4202 -1.6647
  147MOL0     H19819   5.519   8.056   9.966  0.4578  2.8352  1.0096
  147MOL0     H19820   5.669   8.092  10.062 -0.0066 -0.8223  0.4434
  147MOL0     H19821   5.794   7.950   9.906 -0.4145  0.4677 -1.0397
  147MOL0     H19822   5.682   7.860  10.004 -2.5566 -1.0781 -0.3172
  147MOL0     H19823   5.612   7.946   9.721 -0.3577 -0.9150 -1.1451
  147MOL0     H19824   5.530   7.831   9.832 -0.0933  2.8666  2.8501
  147MOL0     H19825   5.823   7.784   9.747 -0.9193  2.2562 -2.2969
  147MOL0     H19826   5.696   7.709   9.651  0.2048 -0.3843 -0.9550
  147MOL0     H19827   6.238   8.483   9.873 -0.0224  1.5313  0.1411
  147MOL0     H19828   6.470   8.493   9.980  1.4363 -2.0453  1.8213
  147MOL0     H19829   6.780   8.412  10.094 -2.1291  0.7521  0.9352
  147MOL0     H19830   7.022   8.442  10.142  0.8823  0.1800  1.0337
  147MOL0     H19831   8.544   8.974  10.869 -0.2940  0.7671  0.9482
  147MOL0     H19832   8.743   9.068  10.991  0.3296  0.0560 -0.4156
  147MOL0     H19833   9.249   8.831  11.074 -0.8170  0.7814 -0.4210
  147MOL0     H19834   9.463   8.869  11.136  3.1318  2.4355  1.4201
  147MOL0     H19835   9.649   8.938  11.231 -0.8159  0.0618  1.5350
  147MOL0     H19836   9.759   9.022  11.114 -0.2589  0.0467 -0.0616
  147MOL0     H19837   9.670   9.149  11.384 -1.3095  2.1597 -1.6938
  147MOL0     H19838   9.797   9.204  11.266 -0.1766 -1.0564  0.2414
  147MOL0     H19839   9.811   8.952  11.432 -0.3036 -1.0109 -1.4285
  147MOL0     H19840   9.900   9.113  11.448  2.3337  0.4382 -0.2784
  147MOL0     H19841  10.008   9.094  11.237  2.6089  0.0142  1.8452
  147MOL0     H19842   9.935   8.928  11.218  0.3129 -0.8479  0.7493
  147MOL0     H19843  10.249   8.852  11.489  1.9640 -0.3506 -1.2100
  147MOL0     H19844   9.404   9.291  11.075 -0.9747 -0.2287  2.6601
  147MOL0     H19845   9.174   9.239  10.979  1.5477  1.1951  0.4104
  148MOL0     O19846   0.903   7.400   5.385 -0.5096  0.1701 -0.4581
  148MOL0     C19847   0.938   7.496   5.457 -0.7984 -0.2584  0.8107
  148MOL0     O19848   0.857   7.579   5.525 -0.1195  0.4497  0.2461
  148MOL0     C19849   0.721   7.557   5.497  0.5703 -0.3272 -0.3298
  148MOL0     C19850   0.650   7.486   5.591  0.3372  0.0991 -0.5532
  148MOL0     C19851   0.515   7.469   5.567 -0.6865 -0.2954 -0.0838
  148MOL0     C19852   0.452   7.512   5.450 -0.0901  0.3113 -0.0676
  148MOL0     O19853   0.323   7.471   5.429 -0.0965  0.0817 -0.9992
  148MOL0     C19854   0.315   7.374   5.323 -0.8123 -0.3643 -0.7397
  148MOL0     C19855   0.223   7.411   5.206 -0.2048  0.3121  0.4303
  148MOL0     C19856   0.199   7.303   5.106  0.5844  1.1193  0.1119
  148MOL0     C19857   0.151   7.161   5.150  0.0589  0.2355 -0.5760
  148MOL0     C19858   0.111   7.077   5.028 -0.2157  0.9467  0.4773
  148MOL0     C19859   0.052   6.951   5.087 -0.4705  0.5570  0.1319
  148MOL0     C19860   0.037   6.852   4.968 -0.4848  0.1524 -0.1519
  148MOL0     C19861  -0.044   6.886   4.842 -0.5524 -0.6886 -0.1539
  148MOL0     N19862  -0.185   6.930   4.886 -0.1594 -0.2954  0.0989
  148MOL0     C19863  -0.234   7.055   4.887  0.0226 -0.2134 -0.1922
  148MOL0     C19864  -0.361   7.035   4.929 -0.6161 -0.2630  0.5555
  148MOL0     C19865  -0.460   7.144   4.916  0.2119 -0.0623 -0.1222
  148MOL0     C19866  -0.528   7.176   5.050 -0.3607  0.5795 -0.1925
  148MOL0     C19867  -0.598   7.317   5.041  0.8229  0.4448 -0.1591
  148MOL0     C19868  -0.721   7.310   4.945 -0.0139  0.0642 -0.0376
  148MOL0     O19869  -0.820   7.217   4.994 -0.3103  0.4225  0.2683
  148MOL0     C19870  -0.941   7.229   4.939 -0.2824 -0.2691 -0.3586
  148MOL0     C19871  -1.032   7.330   4.989  0.3701 -0.1824  0.8329
  148MOL0     C19872  -1.155   7.346   4.922 -0.3837 -1.4993  0.6133
  148MOL0     C19873  -1.231   7.465   4.982 -0.4604  0.7060  0.1247
  148MOL0     C19874  -1.190   7.254   4.822 -1.5247 -0.2568  0.3809
  148MOL0     C19875  -1.324   7.250   4.756 -0.2190  0.3253 -0.1876
  148MOL0     O19876  -1.352   7.154   4.667 -0.2957 -0.0370  0.1210
  148MOL0     C19877  -1.470   7.148   4.612 -0.0520 -0.4657 -0.5218
  148MOL0     C19878  -1.586   7.113   4.688  0.2604  0.6457 -0.2318
  148MOL0     C19879  -1.713   7.104   4.635  0.8391  1.4115  0.4293
  148MOL0     C19880  -1.723   7.125   4.495  0.2368  0.6847 -0.3174
  148MOL0     O19881  -1.838   7.107   4.422  0.0369  0.7191 -0.3243
  148MOL0     C19882  -1.954   7.088   4.505  0.2235 -0.4636 -0.2501
  148MOL0     C19883  -2.059   7.059   4.401  0.4605  0.1950  0.4657
  148MOL0     C19884  -2.169   6.981   4.472 -0.4520 -0.7918 -0.7537
  148MOL0     C19885  -2.301   6.963   4.398  0.1024 -0.9392  0.3140
  148MOL0     C19886  -2.290   6.935   4.244 -0.6735  0.2305 -0.6115
  148MOL0     C19887  -2.427   6.905   4.175 -0.3311 -0.2499  0.2067
  148MOL0     C19888  -2.516   7.033   4.153  0.5823  0.8650  0.1537
  148MOL0     C19889  -2.664   7.009   4.110 -0.3191  0.6465 -0.5833
  148MOL0    Cl19890  -2.767   6.949   4.252  0.0894  0.0789  0.7326
  148MOL0     C19891  -1.612   7.151   4.421 -0.2705 -0.0137 -0.0224
  148MOL0     C19892  -1.489   7.165   4.483  0.4370 -0.3751  0.5266
  148MOL0     O19893  -1.415   7.330   4.792  0.4551 -0.0027  0.5856
  148MOL0     C19894  -1.090   7.164   4.774 -0.7272  0.2648  0.1608
  148MOL0     C19895  -0.968   7.142   4.831 -0.5658 -1.2848  0.0047
  148MOL0     N19896  -0.382   6.904   4.966 -0.7315  0.1933 -0.4459
  148MOL0     N19897  -0.272   6.834   4.929 -0.5000 -0.2590 -0.1106
  148MOL0     C19898   0.530   7.581   5.355  0.3821 -0.2231  0.5943
  148MOL0     C19899   0.665   7.607   5.382  0.2586  0.5568  0.5758
  148MOL0     C19900   1.081   7.530   5.484 -0.2810 -0.2284 -0.0947
  148MOL0     C19901   1.111   7.608   5.600 -0.1001  0.3068 -0.2958
  148MOL0     C19902   1.245   7.617   5.630 -0.4208  0.4492  0.2940
  148MOL0     C19903   1.347   7.560   5.556 -0.4724  0.4156  0.6320
  148MOL0     O19904   1.469   7.581   5.612 -0.3255 -0.5678 -0.3195
  148MOL0     C19905   1.582   7.520   5.561  0.2446 -0.0184  1.1306
  148MOL0     C19906   1.621   7.595   5.426 -0.4461 -0.0500  0.0229
  148MOL0     C19907   1.769   7.564   5.392  0.3778  0.1710 -0.2907
  148MOL0     C19908   1.802   7.601   5.250  0.1355  0.5468 -0.1999
  148MOL0     C19909   1.913   7.517   5.203 -0.0707 -0.3004  1.0555
  148MOL0     C19910   2.020   7.474   5.173 -0.1272 -0.4865  0.4798
  148MOL0     C19911   1.315   7.483   5.443  0.4641 -0.5282  0.1225
  148MOL0     C19912   1.180   7.480   5.400  0.3672  0.6725 -0.5417
  148MOL0     H19913   0.705   7.462   5.681 -0.1036  0.6994 -0.1154
  148MOL0     H19914   0.456   7.426   5.647  1.4974  0.4626  2.0934
  148MOL0     H19915   0.413   7.351   5.280 -0.5723  1.4118 -1.2361
  148MOL0     H19916   0.270   7.287   5.371 -2.2615  0.3516 -0.7368
  148MOL0     H19917   0.127   7.457   5.229 -0.1752  2.0233 -2.4454
  148MOL0     H19918   0.260   7.496   5.147 -2.4914  0.1587 -1.3771
  148MOL0     H19919   0.124   7.340   5.036 -2.0514 -1.4586  1.3600
  148MOL0     H19920   0.293   7.279   5.055  0.4537 -0.7736  0.6630
  148MOL0     H19921   0.215   7.105   5.218  0.0322  0.8727 -0.0204
  148MOL0     H19922   0.063   7.170   5.214  0.9693  0.4416  0.6823
  148MOL0     H19923   0.047   7.130   4.957  1.4966  0.9488 -1.1742
  148MOL0     H19924   0.199   7.047   4.971 -0.0890 -0.7626  1.5097
  148MOL0     H19925   0.117   6.905   5.162 -2.6458  0.4175  2.0475
  148MOL0     H19926  -0.043   6.965   5.139 -2.0022 -2.6902 -1.4281
  148MOL0     H19927   0.144   6.840   4.945  0.4235 -0.0110  3.5022
  148MOL0     H19928   0.003   6.755   5.004  2.1634 -0.8814 -0.2003
  148MOL0     H19929  -0.067   6.792   4.791 -3.5132  1.1500 -2.5713
  148MOL0     H19930   0.006   6.955   4.774 -0.2441 -0.1512  0.6065
  148MOL0     H19931  -0.176   7.139   4.851  0.6416 -1.1463 -1.4614
  148MOL0     H19932  -0.404   7.233   4.886 -0.3564 -0.2750 -1.8730
  148MOL0     H19933  -0.525   7.120   4.832  1.9845  0.6666 -1.7887
  148MOL0     H19934  -0.453   7.165   5.128  0.6597 -0.7606 -1.3079
  148MOL0     H19935  -0.599   7.093   5.060  1.5977 -1.3700 -1.5450
  148MOL0     H19936  -0.523   7.394   5.017  2.1373 -0.6217  0.3912
  148MOL0     H19937  -0.633   7.338   5.142  1.1000  2.1587 -0.3753
  148MOL0     H19938  -0.675   7.285   4.849  2.3211 -1.1873  1.2966
  148MOL0     H19939  -0.761   7.411   4.937  3.4170  1.4833 -1.4354
  148MOL0     H19940  -1.000   7.390   5.073 -1.4205 -0.6243  1.8815
  148MOL0     H19941  -1.176   7.513   5.062 -1.3423  2.3430 -0.2098
  148MOL0     H19942  -1.246   7.521   4.889 -0.3975 -0.0911 -0.3753
  148MOL0     H19943  -1.329   7.444   5.026  0.3431 -1.1836  1.1380
  148MOL0     H19944  -1.576   7.102   4.796  0.3828  1.7961 -0.1140
  148MOL0     H19945  -1.795   7.073   4.699  3.0350 -2.0718  1.8037
  148MOL0     H19946  -1.938   7.003   4.573  3.0716  0.5314  0.4520
  148MOL0     H19947  -1.974   7.183   4.556 -0.9829  0.4338 -2.2971
  148MOL0     H19948  -2.099   7.150   4.355 -1.4413 -1.1559 -0.7076
  148MOL0     H19949  -2.018   6.999   4.319 -0.6851  2.7824 -2.2127
  148MOL0     H19950  -2.203   7.025   4.566  2.5295  2.3457 -0.9388
  148MOL0     H19951  -2.132   6.879   4.489  0.6145 -0.1919  0.6757
  148MOL0     H19952  -2.355   6.877   4.437 -0.5205  0.0813  1.7852
  148MOL0     H19953  -2.364   7.051   4.416 -0.2622 -0.9693 -0.7636
  148MOL0     H19954  -2.213   6.858   4.232  0.6022  1.1881  1.0072
  148MOL0     H19955  -2.258   7.023   4.188 -0.7344  1.2577  0.8997
  148MOL0     H19956  -2.409   6.861   4.076 -0.1698  0.1663  0.0479
  148MOL0     H19957  -2.478   6.840   4.246 -0.6264 -0.4322 -0.1656
  148MOL0     H19958  -2.466   7.090   4.073 -2.7253  1.1370 -1.8919
  148MOL0     H19959  -2.523   7.106   4.234 -0.0187 -0.1508  1.0383
  148MOL0     H19960  -2.676   6.941   4.025 -0.1485  1.6451 -1.4280
  148MOL0     H19961  -2.718   7.101   4.089 -3.3964 -0.6999  0.7741
  148MOL0     H19962  -1.618   7.169   4.314 -0.8548 -0.5922 -0.0910
  148MOL0     H19963  -1.414   7.219   4.425 -0.5706  0.3781 -0.1056
  148MOL0     H19964  -1.116   7.102   4.688 -2.6480  0.7091  0.3827
  148MOL0     H19965  -0.902   7.068   4.788  0.7113  0.7247 -1.6905
  148MOL0     H19966   0.479   7.604   5.262 -0.1522 -1.6177  0.5181
  148MOL0     H19967   0.734   7.654   5.313  0.4815 -0.6442 -0.0410
  148MOL0     H19968   1.035   7.650   5.666 -4.3561 -3.4391 -2.2570
  148MOL0     H19969   1.262   7.667   5.725  0.3256 -1.2297  1.0847
  148MOL0     H19970   1.666   7.528   5.631  2.5431  0.1634 -1.4565
  148MOL0     H19971   1.561   7.414   5.547 -0.1403  0.1892  0.0795
  148MOL0     H19972   1.608   7.702   5.442  1.2737  0.2720 -0.5927
  148MOL0     H19973   1.549   7.563   5.351 -1.6065  2.9339 -0.2779
  148MOL0     H19974   1.783   7.457   5.413 -0.6835 -0.3371 -1.9442
  148MOL0     H19975   1.838   7.626   5.450  0.5540  3.8359 -4.0148
  148MOL0     H19976   1.834   7.705   5.242 -0.2392  0.6454 -0.4471
  148MOL0     H19977   1.712   7.592   5.189  0.9926  0.0225 -1.4465
  148MOL0     H19978   2.120   7.439   5.156  0.0859  0.7586 -1.1039
  148MOL0     H19979   1.395   7.437   5.386  1.2984 -0.1815  0.9874
  148MOL0     H19980   1.155   7.429   5.308  1.9652 -1.6775  0.2167
  149MOL0     O19981  10.404   3.074   9.995 -0.3343 -0.0202 -0.2827
  149MOL0     C19982  10.383   3.090   9.877 -0.1013  0.5341  0.3083
  149MOL0     O19983  10.269   3.140   9.824  0.3985 -0.1401  0.1972
  149MOL0     C19984  10.164   3.152   9.916 -0.1111 -0.3485  0.0838
  149MOL0     C19985  10.163   3.234  10.033 -0.0692  0.2135 -0.5101
  149MOL0     C19986  10.049   3.251  10.114  0.1147 -0.2516 -0.0995
  149MOL0     C19987   9.924   3.194  10.067 -0.6154  0.9543  0.3738
  149MOL0     O19988   9.806   3.195  10.143 -0.2198 -0.0340  0.1864
  149MOL0     C19989   9.767   3.310  10.215  0.3456  0.5224 -0.0728
  149MOL0     C19990   9.613   3.289  10.259 -0.7400  0.6893  0.0514
  149MOL0     C19991   9.546   3.407  10.344 -0.2459  0.3746 -0.6987
  149MOL0     C19992   9.390   3.417  10.326 -0.3490  0.2584 -0.5377
  149MOL0     C19993   9.330   3.531  10.412 -0.0578  0.3912 -0.0210
  149MOL0     C19994   9.368   3.679  10.377  0.2522  0.5310 -0.0684
  149MOL0     C19995   9.318   3.722  10.244  0.1422 -0.2325  0.2277
  149MOL0     C19996   9.346   3.871  10.206 -1.0371 -0.0843  0.0616
  149MOL0     N19997   9.232   3.966  10.238 -0.0251  0.0903 -0.3913
  149MOL0     C19998   9.134   3.945  10.330 -0.6450 -0.2704  0.5900
  149MOL0     C19999   9.055   4.061  10.316 -0.4541  0.6490 -0.1020
  149MOL0     C20000   8.940   4.091  10.407  0.4219  0.5837 -0.0995
  149MOL0     C20001   8.822   3.993  10.383  0.1756 -0.1984 -0.2977
  149MOL0     C20002   8.764   4.026  10.245 -0.0366 -0.0163  0.2358
  149MOL0     C20003   8.628   3.944  10.239 -0.3544  0.4818  0.2348
  149MOL0     O20004   8.526   4.026  10.302  0.1177 -0.6370  0.0717
  149MOL0     C20005   8.390   3.989  10.310 -0.9362 -0.3329 -0.0320
  149MOL0     C20006   8.335   3.884  10.245 -0.6505  1.1347  0.4660
  149MOL0     C20007   8.199   3.853  10.259  0.0069 -0.3492 -0.6644
  149MOL0     C20008   8.155   3.727  10.192  0.5342  0.3940 -0.3527
  149MOL0     C20009   8.111   3.929  10.341 -0.3783 -0.5487  0.1243
  149MOL0     C20010   7.967   3.891  10.363  0.4074  0.9314 -0.1916
  149MOL0     O20011   7.900   3.963  10.456  0.4816 -0.1393 -0.3427
  149MOL0     C20012   7.763   3.955  10.461  0.1843  0.0306 -0.1083
  149MOL0     C20013   7.697   3.833  10.468  0.5706 -1.0888  0.4887
  149MOL0     C20014   7.562   3.831  10.490 -0.1386 -0.2094 -0.4830
  149MOL0     C20015   7.484   3.941  10.496  0.1850  0.4977 -0.6868
  149MOL0     O20016   7.351   3.923  10.527  0.6403  0.2084 -0.2295
  149MOL0     C20017   7.273   4.036  10.515  0.0769  0.4990  0.4561
  149MOL0     C20018   7.127   3.993  10.512 -0.2692 -0.1607 -0.3144
  149MOL0     C20019   7.034   4.109  10.463 -0.6173  0.7378 -0.8907
  149MOL0     C20020   6.893   4.053  10.443  0.1825 -0.0394 -0.3006
  149MOL0     C20021   6.786   4.155  10.406 -0.5547 -0.1238 -0.7613
  149MOL0     C20022   6.829   4.270  10.315  0.0659  0.1468 -0.1793
  149MOL0     C20023   6.705   4.345  10.261 -0.7501 -0.2113  0.3050
  149MOL0     C20024   6.751   4.458  10.172 -0.3858 -0.0584  0.4504
  149MOL0    Cl20025   6.861   4.566  10.262  0.0307  0.5284  0.6087
  149MOL0     C20026   7.551   4.067  10.485  0.3974  0.0718 -0.4021
  149MOL0     C20027   7.693   4.071  10.469  0.9363 -0.3085 -0.8318
  149MOL0     O20028   7.915   3.805  10.293 -0.2915  0.3900  0.4030
  149MOL0     C20029   8.172   4.041  10.401 -0.5301  0.0425  0.2752
  149MOL0     C20030   8.311   4.070  10.387 -0.1252  0.4832 -0.0493
  149MOL0     N20031   9.101   4.133  10.212 -0.3733 -0.2794  0.6312
  149MOL0     N20032   9.211   4.085  10.173  0.7108 -0.7414 -0.4748
  149MOL0     C20033   9.925   3.119   9.948 -0.3959  0.5342 -0.5934
  149MOL0     C20034  10.044   3.091   9.881  0.8841 -0.4821  0.1184
  149MOL0     C20035  10.491   3.070   9.783 -0.1622  0.5679  0.3369
  149MOL0     C20036  10.467   3.069   9.641 -0.3940  0.1311  0.2396
  149MOL0     C20037  10.569   3.035   9.557  0.6577 -0.5699  0.4226
  149MOL0     C20038  10.698   3.002   9.603 -0.0980  0.1231  0.4162
  149MOL0     O20039  10.787   2.958   9.511  0.1689 -0.0443  0.5454
  149MOL0     C20040  10.908   2.907   9.563 -0.0096  0.3756  0.1843
  149MOL0     C20041  10.994   2.832   9.462 -0.0910 -0.5333  0.7974
  149MOL0     C20042  11.131   2.799   9.526 -0.5875 -0.3171  0.8852
  149MOL0     C20043  11.221   2.729   9.435  0.0767  0.8209  0.8589
  149MOL0     C20044  11.330   2.674   9.518  0.3754 -0.5100  0.2536
  149MOL0     C20045  11.427   2.653   9.573  0.1033 -0.0846  0.5985
  149MOL0     C20046  10.725   3.020   9.742  0.5288 -0.8389 -0.7073
  149MOL0     C20047  10.623   3.051   9.830  1.0708  0.3296  0.1093
  149MOL0     H20048  10.257   3.278  10.066 -1.5090  1.7643  1.8601
  149MOL0     H20049  10.048   3.306  10.208 -0.7002 -0.8048  0.2309
  149MOL0     H20050   9.837   3.321  10.299  2.6030 -0.0404 -1.7745
  149MOL0     H20051   9.771   3.400  10.152  0.3117  0.2765 -0.4302
  149MOL0     H20052   9.556   3.276  10.167  0.6345 -1.7467 -0.5269
  149MOL0     H20053   9.609   3.201  10.324  0.1603  0.0205 -0.7761
  149MOL0     H20054   9.554   3.384  10.451 -1.7213 -2.2578 -1.0508
  149MOL0     H20055   9.594   3.502  10.318 -0.5040  0.5947 -0.3764
  149MOL0     H20056   9.372   3.426  10.219  1.9234 -1.7915 -1.1831
  149MOL0     H20057   9.361   3.322  10.373 -1.6177  1.2308  0.7326
  149MOL0     H20058   9.221   3.524  10.402  0.0420 -1.2671 -0.2866
  149MOL0     H20059   9.362   3.499  10.511  0.8947 -2.7795 -1.2209
  149MOL0     H20060   9.315   3.746  10.446 -0.5602  0.4314 -0.5716
  149MOL0     H20061   9.476   3.686  10.386  0.7157 -0.0792 -3.6523
  149MOL0     H20062   9.351   3.649  10.170 -1.0225 -2.7679  2.0685
  149MOL0     H20063   9.211   3.703  10.232  0.0005  0.9831 -0.5407
  149MOL0     H20064   9.371   3.872  10.100  0.7306  0.6743  0.4462
  149MOL0     H20065   9.441   3.906  10.247  0.2150  1.1462 -3.5443
  149MOL0     H20066   9.118   3.861  10.397 -3.6171 -1.6030 -1.5634
  149MOL0     H20067   8.973   4.071  10.510 -1.8257 -0.8343  0.4230
  149MOL0     H20068   8.914   4.196  10.391  0.4271  0.2895 -2.2048
  149MOL0     H20069   8.748   4.009  10.462  2.3898 -0.4258  1.9171
  149MOL0     H20070   8.853   3.888  10.385 -1.6727 -0.7680  0.0051
  149MOL0     H20071   8.831   3.988  10.167  0.9633 -0.8306  1.4366
  149MOL0     H20072   8.735   4.130  10.233 -1.3406 -0.4201 -0.3069
  149MOL0     H20073   8.632   3.844  10.284 -0.1004  0.7172  0.7450
  149MOL0     H20074   8.603   3.926  10.134  0.8322 -0.0604  0.0284
  149MOL0     H20075   8.401   3.823  10.185 -1.4091 -0.6383  1.3698
  149MOL0     H20076   8.240   3.670  10.153  0.7583 -1.5581  2.6656
  149MOL0     H20077   8.120   3.661  10.272  0.1000  0.6483 -0.3310
  149MOL0     H20078   8.085   3.733  10.108 -0.9591 -0.7452  0.7597
  149MOL0     H20079   7.753   3.740  10.479  2.1413 -0.0965  1.4592
  149MOL0     H20080   7.499   3.747  10.520 -3.2898  1.7685 -1.1068
  149MOL0     H20081   7.286   4.108  10.596 -2.5350  2.3391 -0.6001
  149MOL0     H20082   7.301   4.074  10.416  2.7742 -1.0691  0.5397
  149MOL0     H20083   7.118   3.908  10.443  1.6994 -0.3463 -0.4055
  149MOL0     H20084   7.094   3.962  10.612 -2.0589 -1.6448 -1.2998
  149MOL0     H20085   7.076   4.148  10.370  0.3053  1.9182 -0.0138
  149MOL0     H20086   7.031   4.186  10.541 -1.5819 -0.3618  0.1885
  149MOL0     H20087   6.904   3.975  10.367  0.9381 -1.1478  0.9049
  149MOL0     H20088   6.849   4.023  10.538 -1.2907  2.2629 -0.1730
  149MOL0     H20089   6.746   4.206  10.494  1.4628  1.2785 -0.5646
  149MOL0     H20090   6.706   4.093  10.366 -2.5372  1.1761  0.9315
  149MOL0     H20091   6.893   4.336  10.374  0.0036 -0.7200  0.9033
  149MOL0     H20092   6.889   4.239  10.229  1.0293 -0.5626  0.7304
  149MOL0     H20093   6.644   4.393  10.338  1.6356  3.0522  0.3547
  149MOL0     H20094   6.650   4.263  10.213  1.0774 -1.6773  0.5804
  149MOL0     H20095   6.662   4.510  10.135 -0.0835 -2.3059 -4.1192
  149MOL0     H20096   6.794   4.416  10.081 -0.4472  3.6170 -1.4180
  149MOL0     H20097   7.493   4.158  10.497  1.2016  1.0166 -2.9540
  149MOL0     H20098   7.741   4.168  10.461 -0.7999  0.7265  0.4306
  149MOL0     H20099   8.104   4.099  10.463 -1.4065  0.4595 -1.0409
  149MOL0     H20100   8.349   4.157  10.439  0.3527  0.3531 -0.1809
  149MOL0     H20101   9.829   3.085   9.909 -2.7966  1.6237  3.6975
  149MOL0     H20102  10.053   3.026   9.794  1.1369 -0.0554 -0.1747
  149MOL0     H20103  10.369   3.097   9.604 -1.8968 -1.7544  2.4581
  149MOL0     H20104  10.538   3.024   9.454 -1.1521  0.6155  0.7943
  149MOL0     H20105  10.969   2.988   9.604 -0.6196  1.6528 -1.3347
  149MOL0     H20106  10.888   2.828   9.636 -1.0486 -1.7949 -2.2926
  149MOL0     H20107  10.998   2.894   9.371 -0.3288  1.7490  2.2517
  149MOL0     H20108  10.950   2.733   9.446 -0.8123 -0.0636 -0.2928
  149MOL0     H20109  11.107   2.735   9.612 -0.9042 -2.1229 -0.4902
  149MOL0     H20110  11.183   2.891   9.554  0.8536 -0.3006 -1.5682
  149MOL0     H20111  11.263   2.790   9.354  1.2338 -0.5004  0.4242
  149MOL0     H20112  11.160   2.656   9.380 -0.4842  1.4835  0.5818
  149MOL0     H20113  11.524   2.634   9.615  0.8437 -2.0597 -1.7281
  149MOL0     H20114  10.818   2.995   9.792  0.4373 -0.1978 -0.2043
  149MOL0     H20115  10.644   3.061   9.935  0.0033  2.3263  0.1921
  150MOL0     O20116   9.799   4.789   0.754  0.3987 -0.3892  1.1255
  150MOL0     C20117   9.809   4.743   0.862  0.3058  0.0212 -1.2645
  150MOL0     O20118   9.699   4.710   0.940 -0.3061  0.4289 -0.4814
  150MOL0     C20119   9.572   4.684   0.892 -0.4284  0.5444 -0.7177
  150MOL0     C20120   9.539   4.642   0.761  0.3594 -0.6788  0.1454
  150MOL0     C20121   9.401   4.616   0.725 -0.6185  0.3251 -1.4515
  150MOL0     C20122   9.301   4.636   0.818  0.3383 -0.5507 -0.6682
  150MOL0     O20123   9.168   4.637   0.789  0.0339  0.1570  0.0598
  150MOL0     C20124   9.120   4.548   0.676 -0.1962  0.2726  0.9596
  150MOL0     C20125   8.967   4.529   0.687 -0.2115  0.5232 -0.4214
  150MOL0     C20126   8.919   4.449   0.564  0.2427 -0.3761  0.2037
  150MOL0     C20127   8.766   4.466   0.570 -0.5482  0.2631  0.0217
  150MOL0     C20128   8.696   4.408   0.446  0.3384 -0.4516 -0.2928
  150MOL0     C20129   8.712   4.251   0.430  0.4720  0.1530 -0.6887
  150MOL0     C20130   8.648   4.202   0.299  0.3352  0.1402 -0.4420
  150MOL0     C20131   8.681   4.057   0.264 -0.3065  0.1533 -0.0938
  150MOL0     N20132   8.656   4.030   0.125 -0.1872 -0.3822 -0.1268
  150MOL0     C20133   8.532   3.997   0.065  0.3190 -0.7461  0.0322
  150MOL0     C20134   8.561   3.975  -0.064 -0.4939 -0.1459  0.3908
  150MOL0     C20135   8.460   3.949  -0.170 -0.3066 -0.8178  0.6389
  150MOL0     C20136   8.362   3.832  -0.148  0.6322  0.0394 -0.0564
  150MOL0     C20137   8.218   3.862  -0.095  0.9702  0.1262 -1.2360
  150MOL0     C20138   8.118   3.759  -0.141  0.1791  0.0370  0.5994
  150MOL0     O20139   8.141   3.629  -0.089  0.8785  0.4914  0.0678
  150MOL0     C20140   8.062   3.522  -0.131  0.2571 -1.0295  0.2915
  150MOL0     C20141   8.060   3.404  -0.057  0.5940 -0.5037  0.4081
  150MOL0     C20142   7.969   3.294  -0.082  0.5806 -0.0884  0.0973
  150MOL0     C20143   7.981   3.176   0.006 -0.2962 -0.6008  0.6998
  150MOL0     C20144   7.898   3.299  -0.200  0.4017 -0.4139 -0.5651
  150MOL0     C20145   7.830   3.178  -0.253 -0.1350 -0.1257  0.8045
  150MOL0     O20146   7.739   3.224  -0.353  0.0904 -0.3677 -0.3830
  150MOL0     C20147   7.650   3.141  -0.404  0.0317  0.4058 -1.1980
  150MOL0     C20148   7.647   3.106  -0.537  0.2847 -0.0695  0.6835
  150MOL0     C20149   7.575   2.986  -0.569 -0.0491 -0.2269 -0.7234
  150MOL0     C20150   7.499   2.920  -0.473 -0.0596  0.4079 -0.2647
  150MOL0     O20151   7.426   2.808  -0.508  0.4528 -0.5189 -0.0035
  150MOL0     C20152   7.292   2.836  -0.545 -0.6978  0.6181  0.3857
  150MOL0     C20153   7.268   2.808  -0.693  0.5904  0.0411 -1.5071
  150MOL0     C20154   7.265   2.666  -0.714 -0.3016 -0.0019 -0.3996
  150MOL0     C20155   7.291   2.628  -0.859 -0.1773 -0.6459 -0.5620
  150MOL0     C20156   7.182   2.654  -0.961 -0.2042 -0.0195  0.6558
  150MOL0     C20157   7.217   2.604  -1.104 -0.1584  0.5533 -0.5011
  150MOL0     C20158   7.105   2.582  -1.208 -0.1419 -0.1161  0.5680
  150MOL0     C20159   7.001   2.477  -1.157  0.6182  0.1015  0.4605
  150MOL0    Cl20160   6.874   2.452  -1.278 -0.2696 -0.0697 -0.1234
  150MOL0     C20161   7.501   2.960  -0.339 -0.1504 -0.1524 -0.2664
  150MOL0     C20162   7.575   3.078  -0.308  0.1419 -0.3624 -0.1744
  150MOL0     O20163   7.858   3.062  -0.223 -0.5509  0.5532 -0.3119
  150MOL0     C20164   7.906   3.417  -0.279 -0.0549  0.3107  0.5299
  150MOL0     C20165   7.982   3.533  -0.238 -0.8853  0.2075  1.1514
  150MOL0     N20166   8.696   3.985  -0.085 -0.8818  0.2359 -0.3303
  150MOL0     N20167   8.753   4.018   0.028  0.6495  0.1572 -0.1477
  150MOL0     C20168   9.340   4.668   0.952  0.4751 -0.5575 -0.7403
  150MOL0     C20169   9.470   4.696   0.984 -0.4574 -0.7795  0.6481
  150MOL0     C20170   9.939   4.711   0.911 -0.3003 -0.3094  0.0176
  150MOL0     C20171  10.062   4.777   0.859 -0.5506  0.4339 -0.8338
  150MOL0     C20172  10.187   4.735   0.898  1.1773 -0.1775 -0.8822
  150MOL0     C20173  10.199   4.645   1.001 -0.3641  0.2124  0.2574
  150MOL0     O20174  10.317   4.588   1.051 -0.2826  0.0558 -0.0719
  150MOL0     C20175  10.446   4.582   0.985 -1.5338 -1.1151  0.7429
  150MOL0     C20176  10.555   4.686   1.033  0.4375  0.1709 -0.0632
  150MOL0     C20177  10.673   4.705   0.941  0.7738 -0.0340  0.3999
  150MOL0     C20178  10.629   4.786   0.817  0.9791  0.0499  0.6821
  150MOL0     C20179  10.748   4.802   0.734 -0.2263  0.1252 -0.2418
  150MOL0     C20180  10.843   4.817   0.665  0.1539 -0.5205  0.3049
  150MOL0     C20181  10.084   4.586   1.056  0.4714  0.1777  0.1946
  150MOL0     C20182   9.954   4.623   1.022 -0.1960  0.6410 -0.0432
  150MOL0     H20183   9.613   4.625   0.683 -0.4759 -2.0380 -0.3831
  150MOL0     H20184   9.373   4.584   0.625 -0.9004 -2.0736 -0.6627
  150MOL0     H20185   9.144   4.602   0.584 -1.3414 -2.4785 -1.0813
  150MOL0     H20186   9.172   4.453   0.686 -2.0548 -1.2014 -2.0540
  150MOL0     H20187   8.948   4.470   0.777  2.3041 -1.7850 -1.2641
  150MOL0     H20188   8.920   4.627   0.694 -1.6874 -0.2745  1.7073
  150MOL0     H20189   8.954   4.498   0.473 -0.2420 -2.1793 -1.0128
  150MOL0     H20190   8.962   4.348   0.558  1.5780  0.2238 -1.0179
  150MOL0     H20191   8.724   4.436   0.667 -0.3951  3.6797  1.2789
  150MOL0     H20192   8.748   4.574   0.565 -0.3806  0.2521 -1.0854
  150MOL0     H20193   8.590   4.431   0.448  0.3775 -0.2625  1.5776
  150MOL0     H20194   8.735   4.457   0.356 -1.6094  0.5942 -0.5985
  150MOL0     H20195   8.813   4.210   0.427  0.7749  0.7944  0.3797
  150MOL0     H20196   8.671   4.204   0.520  0.4555 -2.1804 -1.8414
  150MOL0     H20197   8.539   4.211   0.303  0.1447 -1.5761 -0.8931
  150MOL0     H20198   8.684   4.257   0.211  0.2132 -3.3507 -2.9104
  150MOL0     H20199   8.616   3.999   0.330  0.6943  2.9357  3.6719
  150MOL0     H20200   8.785   4.030   0.285 -1.7755 -3.1414  4.4185
  150MOL0     H20201   8.435   4.008   0.113 -0.4567  0.7991 -1.7703
  150MOL0     H20202   8.397   4.038  -0.184 -2.7030 -2.4030  0.7657
  150MOL0     H20203   8.518   3.927  -0.260 -1.5444 -0.4552 -0.2875
  150MOL0     H20204   8.388   3.748  -0.083  0.6540  0.7056  0.8196
  150MOL0     H20205   8.348   3.782  -0.244  1.0423  0.1530 -0.1796
  150MOL0     H20206   8.194   3.966  -0.121 -0.1284 -0.3867 -2.3273
  150MOL0     H20207   8.223   3.867   0.015  0.3737  1.5174 -1.2428
  150MOL0     H20208   8.113   3.757  -0.250 -3.2139  0.7856  0.6386
  150MOL0     H20209   8.016   3.787  -0.114  0.5750 -1.0563  3.6119
  150MOL0     H20210   8.134   3.395   0.023 -0.1708  0.4645  1.2592
  150MOL0     H20211   7.887   3.121   0.011 -0.2812 -0.8277 -1.0263
  150MOL0     H20212   8.057   3.113  -0.040  2.1518  2.8608 -0.4612
  150MOL0     H20213   8.023   3.196   0.105  1.0636 -0.8898  0.2007
  150MOL0     H20214   7.694   3.145  -0.626 -0.6173  1.0223  0.6571
  150MOL0     H20215   7.579   2.929  -0.662  0.8967 -1.0007 -0.2355
  150MOL0     H20216   7.223   2.776  -0.485  0.0802 -0.5679  0.1196
  150MOL0     H20217   7.271   2.939  -0.515  2.5241  1.2066  0.9659
  150MOL0     H20218   7.166   2.843  -0.713  0.9817  2.1749 -0.1155
  150MOL0     H20219   7.322   2.870  -0.765 -1.1719  1.8533 -1.3762
  150MOL0     H20220   7.168   2.634  -0.674  0.0124  0.5201  0.8309
  150MOL0     H20221   7.345   2.620  -0.656  1.9618  1.5579 -2.0629
  150MOL0     H20222   7.382   2.669  -0.904  0.0342 -2.2027 -1.6212
  150MOL0     H20223   7.315   2.521  -0.858 -0.4994 -0.7186  0.1672
  150MOL0     H20224   7.164   2.761  -0.970 -0.4364 -0.1410 -0.6416
  150MOL0     H20225   7.090   2.606  -0.928 -0.5841  0.6337  0.5549
  150MOL0     H20226   7.285   2.683  -1.137  1.7331 -0.3342  1.0374
  150MOL0     H20227   7.272   2.510  -1.091  3.1045  2.5487  2.1155
  150MOL0     H20228   7.143   2.544  -1.303  0.6871 -1.5770  1.4502
  150MOL0     H20229   7.051   2.673  -1.235 -1.5211 -0.6536  1.4127
  150MOL0     H20230   6.947   2.505  -1.065 -2.7638  0.6980 -1.5446
  150MOL0     H20231   7.052   2.383  -1.136  1.5652  0.2889 -0.8742
  150MOL0     H20232   7.433   2.906  -0.273  0.6673 -0.9246 -0.0268
  150MOL0     H20233   7.575   3.105  -0.203  0.7065 -0.1715 -0.2178
  150MOL0     H20234   7.862   3.422  -0.378 -1.7840 -0.2377  1.2295
  150MOL0     H20235   7.980   3.619  -0.305  0.3094  1.0108  2.1122
  150MOL0     H20236   9.269   4.690   1.031  2.6745 -0.3583  1.2933
  150MOL0     H20237   9.485   4.733   1.084 -2.5733  1.0474  0.3698
  150MOL0     H20238  10.066   4.849   0.778  0.9233 -0.0388 -1.2035
  150MOL0     H20239  10.274   4.773   0.846 -0.2064  2.0302 -1.7243
  150MOL0     H20240  10.490   4.485   1.011 -0.5186 -0.5297  1.2635
  150MOL0     H20241  10.434   4.575   0.877  1.9131  1.8552 -0.0119
  150MOL0     H20242  10.590   4.652   1.131 -1.0970  0.8553  0.7401
  150MOL0     H20243  10.506   4.783   1.036 -1.6509 -0.8695  1.4030
  150MOL0     H20244  10.700   4.606   0.903  2.4761 -0.4161  2.3796
  150MOL0     H20245  10.764   4.740   0.992 -0.3528 -0.0436  2.5388
  150MOL0     H20246  10.583   4.883   0.840 -0.7973 -0.9322  1.4498
  150MOL0     H20247  10.551   4.729   0.765  2.8647  0.0098 -2.3977
  150MOL0     H20248  10.939   4.824   0.618  0.9349 -2.8994  1.4064
  150MOL0     H20249  10.085   4.511   1.134 -3.9023  0.3964  0.7110
  150MOL0     H20250   9.866   4.569   1.054 -0.7103  0.2177 -1.9922
  151MOL0     O20251   5.582   7.056   0.804 -0.3599  0.0043 -0.3495
  151MOL0     C20252   5.645   6.973   0.865 -0.8646  1.1899  1.1156
  151MOL0     O20253   5.589   6.871   0.925 -0.3824  0.2114 -0.0000
  151MOL0     C20254   5.459   6.885   0.951  0.5868 -0.0135 -0.4298
  151MOL0     C20255   5.365   6.853   0.853 -0.2392 -0.8290  0.8913
  151MOL0     C20256   5.227   6.869   0.876 -0.4987  0.3566  0.1643
  151MOL0     C20257   5.174   6.919   0.996 -1.2139 -0.1618  0.0683
  151MOL0     O20258   5.036   6.921   1.023 -0.4481 -0.4772 -0.0821
  151MOL0     C20259   4.982   7.058   1.030 -1.9172 -0.1748 -0.1569
  151MOL0     C20260   4.831   7.049   1.032  0.5456 -0.1111 -0.9394
  151MOL0     C20261   4.783   6.972   0.902  0.0539  0.2926 -0.1026
  151MOL0     C20262   4.630   6.954   0.893 -0.7474  0.5567  0.9497
  151MOL0     C20263   4.561   6.861   0.999 -0.2799 -0.0687 -0.0397
  151MOL0     C20264   4.596   6.715   0.997  0.2397 -0.2755 -0.2047
  151MOL0     C20265   4.487   6.635   1.055  0.6281 -0.4776 -0.4966
  151MOL0     C20266   4.505   6.484   1.047 -0.7202  0.1544  0.0859
  151MOL0     N20267   4.398   6.412   1.113  0.7393  1.0558 -0.5627
  151MOL0     C20268   4.346   6.429   1.238  0.0522 -0.9201 -0.3555
  151MOL0     C20269   4.227   6.355   1.249  0.1541  0.0892  0.3859
  151MOL0     C20270   4.138   6.342   1.365  0.3812 -0.1384 -0.7914
  151MOL0     C20271   4.147   6.200   1.417 -0.1206 -0.1931 -0.3533
  151MOL0     C20272   4.153   6.171   1.570 -0.1709 -0.0573  0.1360
  151MOL0     C20273   4.165   6.019   1.598  0.3272 -0.2759 -0.0456
  151MOL0     O20274   4.173   5.992   1.737 -0.0215  0.2806  0.0182
  151MOL0     C20275   4.058   6.035   1.808 -1.4490  0.3136  0.0478
  151MOL0     C20276   4.074   6.129   1.905  0.1180 -0.3471  0.2041
  151MOL0     C20277   3.966   6.173   1.986 -0.3912 -0.3946 -1.2109
  151MOL0     C20278   4.004   6.277   2.097  0.4566  0.3189 -0.4471
  151MOL0     C20279   3.841   6.109   1.978 -0.3401 -0.3371  0.4147
  151MOL0     C20280   3.726   6.139   2.066  0.0805 -0.5561 -0.9902
  151MOL0     O20281   3.622   6.052   2.057  0.8281  0.0881 -0.0129
  151MOL0     C20282   3.493   6.072   2.105 -0.1097 -0.5591 -0.0511
  151MOL0     C20283   3.434   5.956   2.136 -0.4577  1.2253 -0.6691
  151MOL0     C20284   3.309   5.949   2.195  0.1732  0.1841  0.2887
  151MOL0     C20285   3.237   6.063   2.211  1.2181 -1.0143 -0.3517
  151MOL0     O20286   3.113   6.073   2.270 -0.1136 -0.3483  0.4864
  151MOL0     C20287   3.012   6.008   2.190 -0.1443  0.0162  0.2778
  151MOL0     C20288   2.870   6.066   2.220  1.2120 -0.4141  0.1434
  151MOL0     C20289   2.803   6.033   2.361 -0.1305 -0.8690  0.4298
  151MOL0     C20290   2.789   5.880   2.375 -0.2788  0.8548  0.3882
  151MOL0     C20291   2.719   5.823   2.501 -0.3058  0.5813  0.8823
  151MOL0     C20292   2.577   5.880   2.514  0.0728  0.3805 -0.2686
  151MOL0     C20293   2.473   5.837   2.413 -0.5887  0.1475  0.0523
  151MOL0     C20294   2.330   5.856   2.452  0.4182  0.3330 -0.6722
  151MOL0    Cl20295   2.209   5.784   2.334  0.3084  0.0430  0.1278
  151MOL0     C20296   3.293   6.188   2.174 -0.4273  0.6897 -0.7458
  151MOL0     C20297   3.425   6.188   2.120  0.5090  0.0047 -0.6781
  151MOL0     O20298   3.721   6.239   2.143  0.5313  0.1146  0.1713
  151MOL0     C20299   3.826   6.008   1.877  0.6054 -0.0270 -0.8733
  151MOL0     C20300   3.935   5.970   1.801 -0.3289 -0.1000 -0.2390
  151MOL0     N20301   4.201   6.301   1.120  0.5640  0.0858  0.3162
  151MOL0     N20302   4.306   6.334   1.047  0.0276 -0.1000 -0.1937
  151MOL0     C20303   5.275   6.949   1.093  0.6157  0.1655 -0.8221
  151MOL0     C20304   5.409   6.938   1.066 -0.4476 -0.8366 -0.4262
  151MOL0     C20305   5.789   6.999   0.865 -0.0714 -0.6625  0.2469
  151MOL0     C20306   5.850   7.083   0.770  0.0884 -0.7647 -0.5231
  151MOL0     C20307   5.988   7.116   0.782  0.5542  0.2116 -0.4110
  151MOL0     C20308   6.064   7.091   0.888 -0.5483  0.3936 -0.1187
  151MOL0     O20309   6.189   7.146   0.903 -0.4064 -0.1627  0.1998
  151MOL0     C20310   6.281   7.097   0.997  0.4563 -0.2927 -1.2254
  151MOL0     C20311   6.399   7.184   0.978 -0.2795 -0.3120  0.4806
  151MOL0     C20312   6.498   7.138   1.083 -0.6884  0.4236  0.5905
  151MOL0     C20313   6.643   7.185   1.033  0.3310  0.3088  1.0824
  151MOL0     C20314   6.748   7.163   1.132 -0.0054  0.5385 -0.1720
  151MOL0     C20315   6.828   7.125   1.220 -0.6544  0.6902  0.4790
  151MOL0     C20316   6.002   7.001   0.977  0.5885  0.4850 -0.2919
  151MOL0     C20317   5.878   6.955   0.959  0.4880  0.7479  0.1880
  151MOL0     H20318   5.401   6.820   0.756  2.5536 -1.0794  1.9240
  151MOL0     H20319   5.154   6.841   0.801  0.2890  0.4856 -0.6727
  151MOL0     H20320   5.018   7.113   1.117 -0.5771  1.1514 -1.5035
  151MOL0     H20321   5.024   7.119   0.950 -1.4217 -1.6426 -1.0522
  151MOL0     H20322   4.794   6.999   1.122 -0.3355  5.4169  2.2495
  151MOL0     H20323   4.770   7.139   1.043 -2.6836 -2.2516  0.5361
  151MOL0     H20324   4.807   7.035   0.816 -0.6104 -0.3157 -0.7437
  151MOL0     H20325   4.823   6.870   0.895  0.4071  0.3800  0.5317
  151MOL0     H20326   4.597   7.058   0.891 -0.9419  0.5457 -2.5762
  151MOL0     H20327   4.618   6.901   0.798  1.5232 -0.8363  1.3595
  151MOL0     H20328   4.575   6.915   1.093 -2.1671  0.6245 -0.1284
  151MOL0     H20329   4.454   6.872   0.981 -0.5991 -1.8119  0.5424
  151MOL0     H20330   4.615   6.694   0.891 -0.9198  2.9477 -1.2015
  151MOL0     H20331   4.686   6.692   1.053 -0.4328  2.2377  2.1489
  151MOL0     H20332   4.490   6.652   1.163  1.5300 -0.3140 -0.5366
  151MOL0     H20333   4.389   6.655   1.012  1.3766 -1.1478 -2.6772
  151MOL0     H20334   4.597   6.456   1.099 -1.4172  0.4188  1.5304
  151MOL0     H20335   4.514   6.460   0.941  0.4948 -1.3296  0.4895
  151MOL0     H20336   4.393   6.490   1.314 -1.3803 -0.7488  0.4127
  151MOL0     H20337   4.174   6.415   1.438  1.7905  0.7663 -2.3107
  151MOL0     H20338   4.037   6.365   1.329 -0.9902 -2.3794  1.2997
  151MOL0     H20339   4.240   6.162   1.374  0.7987 -1.3435  2.3802
  151MOL0     H20340   4.073   6.134   1.371  2.2006 -2.1766 -1.4689
  151MOL0     H20341   4.069   6.217   1.624 -0.5302  0.5344 -0.8850
  151MOL0     H20342   4.247   6.214   1.605 -0.7889  0.4001  1.2876
  151MOL0     H20343   4.255   5.984   1.547  0.4361 -1.0411  0.6631
  151MOL0     H20344   4.069   5.989   1.554 -0.2150  2.9566 -1.4125
  151MOL0     H20345   4.176   6.166   1.905  0.7228 -1.2867 -4.6463
  151MOL0     H20346   4.112   6.293   2.094  0.0526  4.3421  1.2449
  151MOL0     H20347   3.952   6.369   2.069 -3.5740 -1.9122 -1.1805
  151MOL0     H20348   3.976   6.228   2.191  1.0970  0.3471 -0.2435
  151MOL0     H20349   3.490   5.863   2.129  1.4672  1.5811  4.7615
  151MOL0     H20350   3.267   5.853   2.224 -0.6962  0.7261  0.8807
  151MOL0     H20351   3.021   6.036   2.084  1.1275  0.6171  0.5284
  151MOL0     H20352   3.009   5.901   2.213 -1.0813  0.2123  1.1100
  151MOL0     H20353   2.887   6.174   2.213 -0.5916 -0.0473  0.9237
  151MOL0     H20354   2.807   6.024   2.142 -1.5815  0.7885  1.6233
  151MOL0     H20355   2.708   6.087   2.369 -0.5994 -1.5601 -0.3402
  151MOL0     H20356   2.874   6.076   2.433 -0.3485 -0.4100  0.3693
  151MOL0     H20357   2.732   5.846   2.288  0.3050 -0.0847  0.3599
  151MOL0     H20358   2.892   5.844   2.381 -0.3243  0.4566 -0.8759
  151MOL0     H20359   2.763   5.845   2.599  1.5754  0.5600  0.0804
  151MOL0     H20360   2.710   5.716   2.480  0.3762  1.2134 -3.8185
  151MOL0     H20361   2.539   5.846   2.611 -0.0436  0.5479 -0.2552
  151MOL0     H20362   2.574   5.989   2.519 -3.0783  0.3344  3.1689
  151MOL0     H20363   2.496   5.736   2.377 -0.8077  0.7709 -2.0125
  151MOL0     H20364   2.501   5.899   2.327 -0.9977  0.5021  0.1741
  151MOL0     H20365   2.310   5.957   2.490  1.7289 -0.3987  2.2696
  151MOL0     H20366   2.312   5.800   2.544 -1.3960 -0.0590 -1.2268
  151MOL0     H20367   3.245   6.285   2.181  2.4082  2.0572  1.8045
  151MOL0     H20368   3.467   6.283   2.086  0.0353  0.1311 -0.9145
  151MOL0     H20369   3.729   5.962   1.861  0.0107  1.4617 -1.7511
  151MOL0     H20370   3.915   5.884   1.737 -2.7631 -0.7068  1.2345
  151MOL0     H20371   5.244   6.983   1.191 -0.8824 -1.1862 -0.7800
  151MOL0     H20372   5.476   6.949   1.151 -1.5231 -0.9360  0.4634
  151MOL0     H20373   5.788   7.125   0.691 -0.0794  1.7221  0.8400
  151MOL0     H20374   6.042   7.187   0.719  0.4447  0.1139 -0.6151
  151MOL0     H20375   6.247   7.104   1.101  1.4363 -0.5485 -0.8776
  151MOL0     H20376   6.308   6.994   0.974 -1.9750 -1.1628 -0.5472
  151MOL0     H20377   6.363   7.286   0.997  2.6846  1.2671 -1.4264
  151MOL0     H20378   6.437   7.174   0.876 -1.5822 -0.3326 -0.0183
  151MOL0     H20379   6.494   7.030   1.097  1.1488  0.3211  0.5674
  151MOL0     H20380   6.471   7.195   1.173  0.6697 -1.1627  2.0837
  151MOL0     H20381   6.635   7.292   1.010  2.5240  0.6032  1.4482
  151MOL0     H20382   6.681   7.140   0.941 -1.9018 -0.0140  0.2469
  151MOL0     H20383   6.891   7.070   1.287 -0.3304 -2.7792 -2.3498
  151MOL0     H20384   6.050   6.961   1.066  1.1040 -0.7301 -1.0945
  151MOL0     H20385   5.833   6.890   1.034  3.1666 -0.5870  0.7781
  152MOL0     O20386   4.899   6.233   8.240  0.4796  0.0698 -0.9267
  152MOL0     C20387   4.911   6.119   8.283  0.4705 -0.3173  0.2711
  152MOL0     O20388   4.815   6.042   8.338 -0.2209 -0.1406 -0.6869
  152MOL0     C20389   4.687   6.068   8.313 -0.3887  0.5013  0.4928
  152MOL0     C20390   4.606   6.061   8.424  0.3404  0.2284 -0.1135
  152MOL0     C20391   4.467   6.078   8.416  0.1761 -0.4739  0.2383
  152MOL0     C20392   4.417   6.108   8.294  0.0550 -0.1271 -0.5596
  152MOL0     O20393   4.284   6.132   8.289 -0.2809  0.3733 -0.1091
  152MOL0     C20394   4.210   6.030   8.215 -0.1761 -0.0356  0.1239
  152MOL0     C20395   4.118   5.954   8.307  0.1015  0.5112  0.2556
  152MOL0     C20396   3.992   5.898   8.243 -0.6420  0.5381 -0.0535
  152MOL0     C20397   3.886   5.999   8.212  0.5866 -0.6592  0.7381
  152MOL0     C20398   3.784   5.933   8.110  0.0234 -0.0276  0.1810
  152MOL0     C20399   3.654   6.024   8.083 -0.6701 -0.1215 -1.1801
  152MOL0     C20400   3.541   5.958   7.998  0.1794 -1.0091  0.5929
  152MOL0     C20401   3.412   6.034   7.970 -0.6339 -0.1932  0.0868
  152MOL0     N20402   3.331   6.071   8.086  0.2539 -0.5990  0.4664
  152MOL0     C20403   3.244   5.985   8.153 -0.0113 -0.6588 -0.2648
  152MOL0     C20404   3.186   6.077   8.243  0.5101  0.5920 -0.0918
  152MOL0     C20405   3.112   6.028   8.365  0.4491  0.3003  0.9402
  152MOL0     C20406   2.973   6.084   8.387 -0.5421 -0.4339 -0.2303
  152MOL0     C20407   2.971   6.228   8.436  0.4572  0.1291 -0.1678
  152MOL0     C20408   2.825   6.252   8.495  0.1310  0.8066 -0.2721
  152MOL0     O20409   2.797   6.398   8.515  0.5352  0.9068 -0.4545
  152MOL0     C20410   2.671   6.448   8.557 -0.2373 -0.4689 -0.9105
  152MOL0     C20411   2.569   6.361   8.580  1.0174  0.2077  0.0688
  152MOL0     C20412   2.443   6.406   8.628 -0.2008 -0.0920 -0.4356
  152MOL0     C20413   2.339   6.303   8.648  0.2561  0.3002 -0.2498
  152MOL0     C20414   2.429   6.546   8.665 -0.0213  0.3850  0.1879
  152MOL0     C20415   2.300   6.607   8.722  0.0342 -0.0755 -0.1880
  152MOL0     O20416   2.181   6.542   8.707 -0.3517  0.4370 -0.1149
  152MOL0     C20417   2.066   6.601   8.747 -0.1076 -0.3737 -0.1748
  152MOL0     C20418   2.038   6.616   8.882  0.9220 -0.5618 -1.1467
  152MOL0     C20419   1.929   6.699   8.927 -0.5031  0.0058  0.0108
  152MOL0     C20420   1.838   6.753   8.834  0.3478  0.7958  0.4127
  152MOL0     O20421   1.735   6.831   8.872  0.1859 -0.3907  0.4716
  152MOL0     C20422   1.718   6.853   9.015  0.0099 -0.7582 -0.1459
  152MOL0     C20423   1.598   6.937   9.040  0.7716 -0.1001  0.1958
  152MOL0     C20424   1.468   6.870   9.003 -0.3385 -0.7284 -0.0737
  152MOL0     C20425   1.345   6.938   9.066 -1.0113 -1.2413 -0.4000
  152MOL0     C20426   1.210   6.902   9.006 -0.7876  0.5908  0.1990
  152MOL0     C20427   1.093   6.955   9.088  0.8986 -0.0040 -0.1170
  152MOL0     C20428   1.050   6.857   9.192  0.4333  0.1350 -0.9520
  152MOL0     C20429   0.920   6.883   9.271  0.7264  0.0050  0.4591
  152MOL0    Cl20430   0.787   6.897   9.165  0.4358 -0.2558 -0.1307
  152MOL0     C20431   1.868   6.729   8.697  0.0583 -1.1362 -0.0160
  152MOL0     C20432   1.984   6.665   8.655  0.2632  0.1706 -0.0006
  152MOL0     O20433   2.310   6.722   8.767 -1.0948 -0.6820  0.3985
  152MOL0     C20434   2.540   6.628   8.650 -1.4000 -0.9009 -0.0804
  152MOL0     C20435   2.655   6.585   8.581  0.8453 -0.0361  0.0187
  152MOL0     N20436   3.228   6.211   8.223  0.1501  0.3416 -0.0988
  152MOL0     N20437   3.323   6.200   8.137  0.3093  0.5101 -0.3159
  152MOL0     C20438   4.499   6.135   8.181 -0.3115  0.7563 -0.9422
  152MOL0     C20439   4.631   6.105   8.190  0.4899  0.3839 -0.0783
  152MOL0     C20440   5.046   6.073   8.285  0.4216  0.0129 -0.0147
  152MOL0     C20441   5.068   5.937   8.284 -0.6367  0.0856  0.3164
  152MOL0     C20442   5.196   5.882   8.285 -1.3744 -0.2507 -0.1597
  152MOL0     C20443   5.304   5.967   8.297 -0.2697 -0.2352 -0.4240
  152MOL0     O20444   5.420   5.897   8.289 -0.0559 -0.4889  0.3631
  152MOL0     C20445   5.542   5.972   8.326  0.6108  0.9371  0.4303
  152MOL0     C20446   5.651   5.874   8.324 -0.3282 -0.4712 -0.4939
  152MOL0     C20447   5.791   5.933   8.347 -0.0771 -1.1310  0.4139
  152MOL0     C20448   5.903   5.847   8.308 -0.1989  0.0486  1.1795
  152MOL0     C20449   5.942   5.763   8.421  0.2209  0.2956 -0.3334
  152MOL0     C20450   5.971   5.693   8.522  0.7448  0.3190  0.6105
  152MOL0     C20451   5.286   6.101   8.300 -0.4099 -0.1698  0.3331
  152MOL0     C20452   5.157   6.155   8.294  0.3088 -0.3043 -1.3188
  152MOL0     H20453   4.650   6.036   8.520  3.0178  1.6202 -0.8457
  152MOL0     H20454   4.399   6.064   8.499 -2.4406  0.1045 -1.6744
  152MOL0     H20455   4.159   6.075   8.129  1.4307  0.5001 -0.5803
  152MOL0     H20456   4.271   5.952   8.169  1.4000  1.1446  0.1298
  152MOL0     H20457   4.176   5.875   8.356 -0.7566  0.5470  1.3591
  152MOL0     H20458   4.095   6.020   8.391  0.5506  1.1102 -0.0847
  152MOL0     H20459   4.021   5.845   8.152 -3.7299  0.0271 -0.8745
  152MOL0     H20460   3.967   5.821   8.317  1.1320  0.5527  0.6157
  152MOL0     H20461   3.826   6.032   8.298 -0.7036 -2.0585  0.4208
  152MOL0     H20462   3.934   6.083   8.162  1.4046 -1.9753 -0.7914
  152MOL0     H20463   3.832   5.908   8.015 -2.0543 -0.7408 -0.7591
  152MOL0     H20464   3.746   5.843   8.159  1.8293 -0.8346  0.1812
  152MOL0     H20465   3.617   6.050   8.182  1.8117  1.2418 -0.5300
  152MOL0     H20466   3.689   6.119   8.043 -0.6020 -0.4731 -1.9720
  152MOL0     H20467   3.573   5.934   7.896 -1.2329 -0.0353 -0.1106
  152MOL0     H20468   3.518   5.865   8.051  0.5856 -0.8811  0.9976
  152MOL0     H20469   3.352   5.978   7.897 -1.5112  1.2284 -0.3176
  152MOL0     H20470   3.445   6.118   7.907  0.8779 -1.5063 -0.9863
  152MOL0     H20471   3.216   5.880   8.143 -0.4455 -0.4964 -0.8364
  152MOL0     H20472   3.106   5.919   8.363  0.0304  0.3168 -1.5909
  152MOL0     H20473   3.177   6.041   8.452 -2.2944  0.2532  3.1308
  152MOL0     H20474   2.915   6.028   8.461 -0.0384  2.0691  2.2578
  152MOL0     H20475   2.907   6.085   8.300 -1.5770  1.1654  0.5260
  152MOL0     H20476   2.995   6.289   8.349  1.0154  1.0051  0.5801
  152MOL0     H20477   3.048   6.242   8.513  1.1902 -3.6715  0.0048
  152MOL0     H20478   2.821   6.205   8.594  1.5287  1.9752  0.3800
  152MOL0     H20479   2.750   6.208   8.428  2.5213 -1.7953 -1.4106
  152MOL0     H20480   2.581   6.255   8.562 -0.4261 -0.0514  0.5032
  152MOL0     H20481   2.252   6.332   8.588  0.5461 -0.4990 -1.0933
  152MOL0     H20482   2.362   6.201   8.616  0.4848  0.6683 -1.3218
  152MOL0     H20483   2.310   6.300   8.753 -0.0040 -3.0455 -0.3308
  152MOL0     H20484   2.104   6.568   8.954  0.5366  0.8230  0.1724
  152MOL0     H20485   1.923   6.707   9.035 -0.3917  1.5923 -0.0761
  152MOL0     H20486   1.719   6.757   9.067 -0.8993 -1.4068 -1.2866
  152MOL0     H20487   1.803   6.914   9.049  0.7589 -1.2028 -1.1585
  152MOL0     H20488   1.605   6.950   9.148 -0.2714  0.0881  0.2589
  152MOL0     H20489   1.597   7.035   8.992 -0.4712 -1.4005 -2.6768
  152MOL0     H20490   1.463   6.765   9.033 -2.9732 -0.5372  0.4247
  152MOL0     H20491   1.466   6.871   8.893  1.6231 -0.8600 -0.1480
  152MOL0     H20492   1.354   6.924   9.174 -2.6091 -2.8092 -0.4148
  152MOL0     H20493   1.358   7.045   9.047 -2.1900 -1.1394 -0.6649
  152MOL0     H20494   1.216   6.793   9.002 -0.6387  0.4392  3.0284
  152MOL0     H20495   1.207   6.931   8.900  0.8387  2.2338  0.5507
  152MOL0     H20496   1.116   7.055   9.126 -0.9747  0.4322 -0.0253
  152MOL0     H20497   1.012   6.967   9.015  0.9572  0.6539 -0.0811
  152MOL0     H20498   1.130   6.858   9.267 -0.3355  0.1769 -0.1210
  152MOL0     H20499   1.039   6.755   9.153  2.0114 -1.6180  2.6646
  152MOL0     H20500   0.933   6.967   9.339  4.3522  0.8569 -1.0643
  152MOL0     H20501   0.902   6.793   9.332  2.0592 -0.4605  0.2017
  152MOL0     H20502   1.802   6.776   8.625  3.0149 -0.8610 -2.7812
  152MOL0     H20503   2.017   6.676   8.552 -1.1412 -1.9010 -0.7399
  152MOL0     H20504   2.535   6.733   8.677 -2.1657 -0.7097 -0.9307
  152MOL0     H20505   2.728   6.659   8.550 -1.9226  1.5289 -3.5462
  152MOL0     H20506   4.447   6.167   8.092 -0.5536  1.4089 -0.5794
  152MOL0     H20507   4.695   6.113   8.102 -0.2495  0.5339 -0.6095
  152MOL0     H20508   4.983   5.871   8.269 -1.0000  0.6924 -0.4383
  152MOL0     H20509   5.221   5.777   8.298 -0.1349  0.3473  3.2566
  152MOL0     H20510   5.568   6.055   8.259  4.6751 -1.2843 -1.0848
  152MOL0     H20511   5.538   6.012   8.427  3.3008  2.3031  0.0774
  152MOL0     H20512   5.644   5.819   8.230 -1.3469 -0.1160 -0.6320
  152MOL0     H20513   5.639   5.803   8.406 -1.7357  0.0189 -0.2551
  152MOL0     H20514   5.796   5.963   8.452  0.6815 -1.7796  0.5700
  152MOL0     H20515   5.797   6.018   8.278  1.8677  0.5095  2.4084
  152MOL0     H20516   5.988   5.913   8.290 -0.5247  0.9381  2.7519
  152MOL0     H20517   5.884   5.791   8.215  0.1174  0.9827  0.5433
  152MOL0     H20518   5.994   5.649   8.616 -0.5921  0.8723  1.2327
  152MOL0     H20519   5.375   6.161   8.297  0.1715 -1.0064  0.4562
  152MOL0     H20520   5.144   6.263   8.297 -3.0510 -0.5863  2.1203
  153MOL0     O20521   5.031   5.618  10.832 -0.3793 -0.3806  0.0527
  153MOL0     C20522   4.999   5.704  10.912  0.7632  1.2765 -0.2848
  153MOL0     O20523   4.879   5.702  10.975  0.1273  0.0670  0.2509
  153MOL0     C20524   4.830   5.573  10.991  0.4568 -0.0280  0.1047
  153MOL0     C20525   4.766   5.508  10.882  0.3477 -0.3834  0.0560
  153MOL0     C20526   4.684   5.400  10.896  0.6700 -0.0459 -0.1767
  153MOL0     C20527   4.657   5.352  11.020  0.3905  0.4256  0.6431
  153MOL0     O20528   4.580   5.238  11.029 -0.2762  0.1695  0.4071
  153MOL0     C20529   4.466   5.253  11.114 -0.5044  0.1464 -0.1002
  153MOL0     C20530   4.359   5.337  11.037 -0.1655 -0.1015  0.1423
  153MOL0     C20531   4.217   5.290  11.083  1.1657 -0.3927 -0.6152
  153MOL0     C20532   4.122   5.407  11.057  0.1985  0.4534 -1.0659
  153MOL0     C20533   3.983   5.372  11.017 -0.3840  0.2341 -0.3722
  153MOL0     C20534   3.898   5.273  11.103 -0.4558 -0.3120 -0.3763
  153MOL0     C20535   3.762   5.278  11.051  0.3345  0.6404 -0.1168
  153MOL0     C20536   3.680   5.158  11.099 -0.2302  0.0393 -0.5038
  153MOL0     N20537   3.550   5.154  11.036 -0.0212 -1.1558  0.1306
  153MOL0     C20538   3.431   5.177  11.100 -0.7100  1.2449  0.3747
  153MOL0     C20539   3.341   5.145  11.008  1.2227 -0.4439  0.3765
  153MOL0     C20540   3.190   5.146  11.026  0.0406 -0.4882  0.1031
  153MOL0     C20541   3.157   5.050  11.138  0.7952  0.2813 -0.4758
  153MOL0     C20542   2.995   5.032  11.159 -0.5486  0.4492 -0.0860
  153MOL0     C20543   2.957   4.894  11.221  0.0279  0.7454  0.8553
  153MOL0     O20544   2.815   4.869  11.208 -0.4191  0.1059  1.0557
  153MOL0     C20545   2.739   4.960  11.286 -0.2278 -1.2679  0.7495
  153MOL0     C20546   2.614   5.009  11.241 -0.0888 -0.1338 -0.2184
  153MOL0     C20547   2.532   5.093  11.324  0.2587 -0.6561 -0.5626
  153MOL0     C20548   2.388   5.102  11.294 -0.7621 -0.4045 -0.6395
  153MOL0     C20549   2.591   5.155  11.446  0.4341  0.5847  0.4701
  153MOL0     C20550   2.521   5.255  11.537  0.2129 -0.2971 -0.0880
  153MOL0     O20551   2.598   5.301  11.651 -0.1757  0.3134  0.0932
  153MOL0     C20552   2.546   5.401  11.736 -0.6649 -0.3022  1.0516
  153MOL0     C20553   2.497   5.519  11.691  0.9046 -0.2770  0.6627
  153MOL0     C20554   2.471   5.625  11.772 -0.0174  0.4100 -0.8695
  153MOL0     C20555   2.501   5.609  11.909  0.4721 -0.1956 -0.6556
  153MOL0     O20556   2.519   5.702  12.004  0.0042 -0.5429 -0.2969
  153MOL0     C20557   2.538   5.834  11.951 -0.3513 -1.0461  0.4337
  153MOL0     C20558   2.659   5.881  12.017  0.0940  0.3987  0.4220
  153MOL0     C20559   2.781   5.812  11.956 -0.6437  1.1372  1.4218
  153MOL0     C20560   2.919   5.871  12.013  0.5066 -0.7903 -0.4967
  153MOL0     C20561   3.040   5.817  11.950 -0.1626 -0.2264 -0.4142
  153MOL0     C20562   3.177   5.864  12.009  0.4387 -0.2562 -0.4019
  153MOL0     C20563   3.282   5.811  11.916 -0.3304 -0.2463 -0.5435
  153MOL0     C20564   3.421   5.794  11.985 -0.5183  0.0080 -0.1330
  153MOL0    Cl20565   3.479   5.955  12.038 -0.1026  0.1068  0.0235
  153MOL0     C20566   2.537   5.485  11.959 -0.0279  0.4767  1.4786
  153MOL0     C20567   2.562   5.375  11.876  0.0785 -0.1145  0.6071
  153MOL0     O20568   2.403   5.285  11.516  0.2231  0.0651  0.3884
  153MOL0     C20569   2.724   5.114  11.478 -0.7501 -0.4314 -0.8743
  153MOL0     C20570   2.784   5.015  11.412 -0.6202  1.0385  0.1987
  153MOL0     N20571   3.390   5.115  10.886 -0.4328 -0.3045  0.9611
  153MOL0     N20572   3.523   5.117  10.906  0.0764 -0.0377 -0.8340
  153MOL0     C20573   4.721   5.408  11.134  0.2415  0.2952  0.5876
  153MOL0     C20574   4.806   5.517  11.121 -0.7229  0.3729 -0.2942
  153MOL0     C20575   5.099   5.822  10.942  0.1194 -0.4373  0.3148
  153MOL0     C20576   5.234   5.822  10.892 -0.1762  0.2419  0.3780
  153MOL0     C20577   5.312   5.940  10.914  0.5455  0.4200  1.0508
  153MOL0     C20578   5.271   6.040  11.003  0.9793 -0.3080 -0.3687
  153MOL0     O20579   5.350   6.144  11.034 -0.2499 -0.1811  0.6368
  153MOL0     C20580   5.495   6.124  11.041  0.8425 -0.2919  0.2557
  153MOL0     C20581   5.541   6.200  11.164 -0.4301 -0.8607  0.2630
  153MOL0     C20582   5.693   6.176  11.174  0.1023 -0.1356  0.1865
  153MOL0     C20583   5.780   6.262  11.082  0.0347  0.2993 -0.7503
  153MOL0     C20584   5.928   6.242  11.110  0.3914  0.8715  0.3108
  153MOL0     C20585   6.037   6.237  11.153  0.1061  0.1029  0.2757
  153MOL0     C20586   5.142   6.037  11.051  0.7196 -0.2995 -0.1517
  153MOL0     C20587   5.053   5.939  11.012 -0.0860  0.5237  0.1985
  153MOL0     H20588   4.768   5.563  10.788 -0.8423 -1.4254 -0.6148
  153MOL0     H20589   4.633   5.371  10.805 -1.4545  0.4269  0.8078
  153MOL0     H20590   4.417   5.155  11.123  1.9412 -0.9948  1.9472
  153MOL0     H20591   4.480   5.286  11.217 -0.0078  1.9333 -0.6968
  153MOL0     H20592   4.374   5.444  11.052 -0.2443 -0.0554 -0.1130
  153MOL0     H20593   4.370   5.319  10.930  0.5077 -0.4423  0.2621
  153MOL0     H20594   4.193   5.197  11.031  2.2675 -0.6771 -0.6309
  153MOL0     H20595   4.227   5.269  11.190  3.1738 -2.1593 -1.0963
  153MOL0     H20596   4.123   5.475  11.142  5.0794 -0.6835  0.0736
  153MOL0     H20597   4.163   5.468  10.976 -0.6527  0.9630 -1.1303
  153MOL0     H20598   3.946   5.474  11.026 -0.0524  0.4068 -0.9238
  153MOL0     H20599   3.983   5.331  10.915  3.1653  1.6103 -1.0878
  153MOL0     H20600   3.946   5.174  11.104  0.8089  0.2591 -1.6988
  153MOL0     H20601   3.892   5.300  11.209 -2.7283  1.2979 -0.8350
  153MOL0     H20602   3.714   5.374  11.069  1.5544  1.7420 -2.3046
  153MOL0     H20603   3.767   5.260  10.943  3.7697 -0.7952  0.1679
  153MOL0     H20604   3.666   5.186  11.204 -2.8534 -2.9640  0.1055
  153MOL0     H20605   3.727   5.061  11.081  0.7172  0.2347  0.8165
  153MOL0     H20606   3.410   5.215  11.199 -0.7840  1.9566  0.0969
  153MOL0     H20607   3.155   5.247  11.050 -0.1893  0.0753 -2.3800
  153MOL0     H20608   3.135   5.119  10.936 -0.8351 -0.2615  0.5568
  153MOL0     H20609   3.201   5.066  11.237 -0.2002 -1.1282  0.2318
  153MOL0     H20610   3.209   4.956  11.115  0.3238  0.3947 -2.1239
  153MOL0     H20611   2.933   5.036  11.069 -1.4973  1.1286  0.5747
  153MOL0     H20612   2.962   5.116  11.222  0.8848  1.6545 -0.8780
  153MOL0     H20613   3.011   4.885  11.316  2.2798  0.2439 -0.3889
  153MOL0     H20614   3.006   4.817  11.161 -2.8304  0.1182 -0.8625
  153MOL0     H20615   2.569   4.961  11.154  1.1976 -0.5934 -0.6433
  153MOL0     H20616   2.330   5.067  11.378 -0.1762  1.4242  0.5982
  153MOL0     H20617   2.371   5.208  11.273 -0.7998  0.0631  1.5188
  153MOL0     H20618   2.366   5.051  11.200 -0.0915 -1.2120 -0.3677
  153MOL0     H20619   2.488   5.532  11.583  2.2801  0.6044  0.6350
  153MOL0     H20620   2.431   5.719  11.736 -1.9982  0.7131  1.8121
  153MOL0     H20621   2.550   5.836  11.843 -0.2954  2.0957  0.4143
  153MOL0     H20622   2.457   5.898  11.987  1.0796  1.7385 -1.0301
  153MOL0     H20623   2.676   5.989  12.011  1.3332  0.4446  3.0216
  153MOL0     H20624   2.652   5.858  12.124 -1.3423 -0.0896  0.2459
  153MOL0     H20625   2.785   5.822  11.847  1.5861 -1.8295  1.1060
  153MOL0     H20626   2.777   5.704  11.972  0.1716  0.5363 -1.7131
  153MOL0     H20627   2.924   5.978  11.990 -0.0748 -0.9486 -1.4262
  153MOL0     H20628   2.917   5.862  12.122 -1.6570  2.3000 -0.1590
  153MOL0     H20629   3.040   5.831  11.841  2.4472  2.7149 -0.1619
  153MOL0     H20630   3.037   5.708  11.964  1.6849 -0.3305 -0.6249
  153MOL0     H20631   3.179   5.973  12.015  1.4568 -0.2581 -0.6022
  153MOL0     H20632   3.201   5.828  12.110  0.1798  1.3450  0.2559
  153MOL0     H20633   3.285   5.877  11.828 -2.5493  1.2208  0.4039
  153MOL0     H20634   3.249   5.713  11.879 -0.5762 -0.5123  0.3600
  153MOL0     H20635   3.495   5.772  11.907 -0.1358  1.5955 -0.2553
  153MOL0     H20636   3.426   5.727  12.071 -1.6494  0.7282  0.5200
  153MOL0     H20637   2.561   5.477  12.065 -0.4316  2.4690  1.7656
  153MOL0     H20638   2.577   5.275  11.913 -0.8676 -0.8930 -1.0026
  153MOL0     H20639   2.771   5.156  11.566 -2.4076  0.2838 -0.2850
  153MOL0     H20640   2.878   4.979  11.454 -0.1019  0.3092 -1.4574
  153MOL0     H20641   4.682   5.368  11.227 -0.0929  1.2112  0.8536
  153MOL0     H20642   4.842   5.561  11.214 -0.8020 -2.3963  1.1589
  153MOL0     H20643   5.266   5.746  10.822 -3.6762 -1.8467  0.8014
  153MOL0     H20644   5.407   5.958  10.864  0.0312  1.1594  0.3290
  153MOL0     H20645   5.507   6.017  11.058 -1.4307 -0.4830  1.0484
  153MOL0     H20646   5.546   6.156  10.950  0.9892 -0.8756  0.1302
  153MOL0     H20647   5.490   6.165  11.254 -1.0123 -0.9430 -0.0947
  153MOL0     H20648   5.536   6.308  11.146  1.9924 -0.6361  0.5649
  153MOL0     H20649   5.710   6.069  11.158 -2.0866 -0.6393  0.8723
  153MOL0     H20650   5.719   6.203  11.277  0.1770  2.4564 -0.4597
  153MOL0     H20651   5.739   6.364  11.092 -0.8880  0.1455 -2.5480
  153MOL0     H20652   5.755   6.241  10.977 -1.6404 -2.6806  0.1496
  153MOL0     H20653   6.136   6.245  11.191  0.4332  0.1561 -0.5713
  153MOL0     H20654   5.102   6.104  11.125  0.3342 -1.0559  0.3364
  153MOL0     H20655   4.953   5.941  11.053  1.1197  1.5999  3.3159
  154MOL0     O20656   1.663  10.739  10.185  0.2968 -0.0295  0.8880
  154MOL0     C20657   1.640  10.705  10.301 -0.2750  0.5334  0.8263
  154MOL0     O20658   1.531  10.635  10.339 -0.2861  0.1096  0.3341
  154MOL0     C20659   1.421  10.633  10.257  1.0432 -0.6583  0.2277
  154MOL0     C20660   1.412  10.565  10.135  0.0063  0.3198 -0.0094
  154MOL0     C20661   1.291  10.554  10.053 -0.4587  0.6234  0.1177
  154MOL0     C20662   1.177  10.618  10.100 -0.3855  0.7931  0.3344
  154MOL0     O20663   1.067  10.630  10.024  0.4109 -0.3876  0.2133
  154MOL0     C20664   0.953  10.551  10.066  0.0275  0.9388 -1.1944
  154MOL0     C20665   0.827  10.602  10.004 -0.8189  0.1814  0.1339
  154MOL0     C20666   0.689  10.557  10.061  0.2144 -0.1186 -0.0493
  154MOL0     C20667   0.573  10.610   9.974 -0.4067 -0.0043 -0.3044
  154MOL0     C20668   0.442  10.547  10.009  0.6931  0.6750  0.6512
  154MOL0     C20669   0.338  10.627   9.929  0.1208 -0.1440  0.2706
  154MOL0     C20670   0.209  10.542   9.916 -0.5784  0.4049 -0.2150
  154MOL0     C20671   0.116  10.577  10.041  0.0252 -0.3190  0.0630
  154MOL0     N20672  -0.024  10.536  10.007 -0.9406 -0.0483 -0.5164
  154MOL0     C20673  -0.066  10.406  10.005  0.1978 -0.0812  0.6472
  154MOL0     C20674  -0.199  10.414   9.995  0.2401 -0.6481 -0.1648
  154MOL0     C20675  -0.296  10.299   9.983  0.5660 -1.1474 -0.3871
  154MOL0     C20676  -0.233  10.165   9.932  1.4944 -0.8420 -0.3591
  154MOL0     C20677  -0.337  10.051   9.958  0.1713  0.6037 -0.9264
  154MOL0     C20678  -0.261   9.915   9.926  0.6985 -0.2939  0.1755
  154MOL0     O20679  -0.361   9.814   9.931  0.7790 -0.8621  0.3203
  154MOL0     C20680  -0.465   9.825   9.839 -0.7134  0.6654 -0.6590
  154MOL0     C20681  -0.471   9.873   9.713  0.5459 -0.5428 -0.5839
  154MOL0     C20682  -0.588   9.888   9.646 -0.0857  0.4084 -0.3371
  154MOL0     C20683  -0.585   9.954   9.515 -0.9813  0.2744  0.6688
  154MOL0     C20684  -0.710   9.824   9.696  0.1250 -0.5017  0.4708
  154MOL0     C20685  -0.845   9.827   9.630  0.5919  0.4207 -0.1845
  154MOL0     O20686  -0.933   9.725   9.666  0.7077  0.5026 -0.2669
  154MOL0     C20687  -1.064   9.732   9.626  0.3386  0.5968 -0.1415
  154MOL0     C20688  -1.153   9.830   9.669  0.8202  0.4602 -0.4934
  154MOL0     C20689  -1.284   9.830   9.622 -0.7199 -0.0443 -0.3855
  154MOL0     C20690  -1.327   9.737   9.530  1.0695  0.3227 -0.6998
  154MOL0     O20691  -1.461   9.748   9.496  0.3975 -0.0034 -0.2097
  154MOL0     C20692  -1.524   9.657   9.406  0.0988  0.1317  0.5916
  154MOL0     C20693  -1.667   9.704   9.389 -0.5343  0.2428 -0.3743
  154MOL0     C20694  -1.743   9.720   9.522 -0.8835  0.1705 -0.3002
  154MOL0     C20695  -1.866   9.803   9.497  0.7115 -0.0021  0.2431
  154MOL0     C20696  -1.991   9.780   9.589 -0.3624 -0.5363  0.6747
  154MOL0     C20697  -2.085   9.900   9.569  0.2501 -0.0672  0.1610
  154MOL0     C20698  -2.057  10.032   9.640  0.5919  0.4502  0.2508
  154MOL0     C20699  -2.097  10.145   9.558  0.0694 -0.0518  0.0269
  154MOL0    Cl20700  -2.050  10.291   9.654  0.3060  0.1864  0.0044
  154MOL0     C20701  -1.240   9.641   9.476 -0.2312 -0.4244 -0.5040
  154MOL0     C20702  -1.111   9.639   9.529 -0.3847  0.3067  0.1601
  154MOL0     O20703  -0.875   9.919   9.545  0.4384 -0.6585  0.3600
  154MOL0     C20704  -0.704   9.762   9.822  0.0344 -0.4441  0.3349
  154MOL0     C20705  -0.586   9.774   9.896  0.6105  1.1275  0.1019
  154MOL0     N20706  -0.233  10.547   9.971 -0.6428 -0.0537 -0.5859
  154MOL0     N20707  -0.121  10.620   9.979 -0.0115  0.2141 -0.6785
  154MOL0     C20708   1.182  10.692  10.209 -1.1103 -0.1909 -0.2418
  154MOL0     C20709   1.302  10.696  10.287 -0.6382 -0.3429  0.2448
  154MOL0     C20710   1.745  10.727  10.398  0.1081  0.9740 -0.0385
  154MOL0     C20711   1.728  10.677  10.529  0.1229 -0.0245 -0.0406
  154MOL0     C20712   1.835  10.687  10.628  0.1163  0.3969 -0.4205
  154MOL0     C20713   1.960  10.762  10.589  0.0271 -0.0097  0.0618
  154MOL0     O20714   2.071  10.793  10.660 -0.0043  0.1909  0.3080
  154MOL0     C20715   2.096  10.705  10.771 -0.9068  0.6840  0.0418
  154MOL0     C20716   2.236  10.721  10.835 -0.4103  0.6470  1.1008
  154MOL0     C20717   2.340  10.688  10.718  1.2833  0.4382  0.3278
  154MOL0     C20718   2.479  10.647  10.764  0.2792  0.8893  0.4383
  154MOL0     C20719   2.522  10.749  10.857 -0.4960  0.2518 -0.0957
  154MOL0     C20720   2.556  10.825  10.947  0.0769  1.3412 -0.0424
  154MOL0     C20721   1.966  10.814  10.459 -0.4842  1.6147 -0.2793
  154MOL0     C20722   1.862  10.802  10.370  0.0201 -0.5415  0.0447
  154MOL0     H20723   1.493  10.508  10.090 -1.0920 -1.4088  0.0914
  154MOL0     H20724   1.307  10.505   9.957 -0.0048 -2.7131  1.7404
  154MOL0     H20725   0.968  10.450  10.029 -3.1113  1.1250 -3.3924
  154MOL0     H20726   0.943  10.548  10.175 -0.7882 -1.4261 -1.2920
  154MOL0     H20727   0.822  10.710  10.013  0.8398  0.2899  0.0628
  154MOL0     H20728   0.834  10.582   9.897 -2.3515 -0.7404  0.1664
  154MOL0     H20729   0.694  10.447  10.062  1.3561 -0.1120 -1.6311
  154MOL0     H20730   0.676  10.586  10.166  2.1448 -0.4705  0.3202
  154MOL0     H20731   0.561  10.716   9.999 -0.4599 -0.6226  2.6482
  154MOL0     H20732   0.613  10.601   9.873  2.0585  0.9984  0.4956
  154MOL0     H20733   0.452  10.442   9.982 -0.5220  0.5140  0.8063
  154MOL0     H20734   0.427  10.551  10.117 -2.7464  3.0503  0.2423
  154MOL0     H20735   0.325  10.718   9.988 -2.8291 -0.2959 -0.0011
  154MOL0     H20736   0.378  10.647   9.829  0.2728  1.9690  0.7094
  154MOL0     H20737   0.166  10.574   9.821 -0.2169 -0.2581 -0.6068
  154MOL0     H20738   0.226  10.434   9.914 -0.4149  0.4420 -1.2368
  154MOL0     H20739   0.117  10.685  10.062  4.2806 -0.4673  1.5453
  154MOL0     H20740   0.145  10.526  10.133 -2.6861 -0.9139  0.6900
  154MOL0     H20741  -0.000  10.320  10.016 -0.9416 -0.8647  1.6267
  154MOL0     H20742  -0.321  10.283  10.089  1.3393 -1.0973 -0.1890
  154MOL0     H20743  -0.387  10.316   9.924  0.6995 -0.9438 -0.5338
  154MOL0     H20744  -0.154  10.138  10.003 -0.9084 -4.6049  1.1942
  154MOL0     H20745  -0.205  10.181   9.827 -1.9147 -3.7010 -1.8950
  154MOL0     H20746  -0.428  10.069   9.900 -0.0824  0.8951 -0.4467
  154MOL0     H20747  -0.369  10.056  10.062 -3.2853  1.6720 -1.9109
  154MOL0     H20748  -0.193   9.883  10.005  0.5798 -0.8129  0.0659
  154MOL0     H20749  -0.197   9.916   9.838 -2.2266  0.8738 -2.1393
  154MOL0     H20750  -0.380   9.921   9.677  0.2133 -0.7636 -1.7716
  154MOL0     H20751  -0.654   9.904   9.447  1.5074  0.0998 -1.9075
  154MOL0     H20752  -0.604  10.062   9.520  1.8261  1.0008 -1.4986
  154MOL0     H20753  -0.486   9.937   9.472 -1.8356 -5.8619  0.2952
  154MOL0     H20754  -1.120   9.906   9.739  1.2413  2.1673 -2.4350
  154MOL0     H20755  -1.340   9.908   9.674  1.4158  0.7052  0.9246
  154MOL0     H20756  -1.480   9.663   9.307  2.6914  0.4048  1.6772
  154MOL0     H20757  -1.518   9.557   9.452 -3.7698  0.1604  1.5233
  154MOL0     H20758  -1.664   9.799   9.335 -1.0808  0.1772 -0.5220
  154MOL0     H20759  -1.711   9.623   9.331  0.4857 -1.7692  1.5128
  154MOL0     H20760  -1.687   9.752   9.610 -0.0548 -1.8847 -0.0166
  154MOL0     H20761  -1.775   9.621   9.556 -0.0498 -0.3308 -0.9191
  154MOL0     H20762  -1.834   9.907   9.489 -2.7519  1.2118  0.4403
  154MOL0     H20763  -1.907   9.780   9.398 -0.7749  2.0812  0.3184
  154MOL0     H20764  -1.966   9.761   9.694  0.8675 -2.4582  0.0934
  154MOL0     H20765  -2.039   9.690   9.550 -1.6744 -0.0940  1.2114
  154MOL0     H20766  -2.106   9.911   9.462  4.3577  1.1678 -0.6948
  154MOL0     H20767  -2.176   9.864   9.617 -0.3619  0.6146 -0.4618
  154MOL0     H20768  -1.952  10.022   9.669  0.9992 -3.3110 -1.9223
  154MOL0     H20769  -2.118  10.031   9.731 -0.1214  0.3366 -0.2197
  154MOL0     H20770  -2.205  10.152   9.544  0.3626  3.8355 -1.4906
  154MOL0     H20771  -2.062  10.150   9.455 -0.8611  3.1421 -0.2181
  154MOL0     H20772  -1.275   9.577   9.396 -0.1297  0.7492 -1.5057
  154MOL0     H20773  -1.052   9.558   9.488  0.6887 -0.5133  3.0846
  154MOL0     H20774  -0.777   9.696   9.869  1.3032 -0.8789  1.7648
  154MOL0     H20775  -0.572   9.731   9.995  2.2178  1.5208  0.0679
  154MOL0     H20776   1.100  10.762  10.222 -0.5085  0.3165  0.8897
  154MOL0     H20777   1.309  10.782  10.354  1.5824  0.1247 -0.5083
  154MOL0     H20778   1.641  10.621  10.561  1.0433 -2.1244 -0.9922
  154MOL0     H20779   1.824  10.644  10.727 -0.1593 -0.0278 -0.6340
  154MOL0     H20780   2.025  10.736  10.848 -0.8217  3.6277 -0.9619
  154MOL0     H20781   2.069  10.602  10.743  0.5101  0.5600 -0.9409
  154MOL0     H20782   2.254  10.652  10.918 -0.1255 -1.0656 -0.3223
  154MOL0     H20783   2.251  10.824  10.869 -1.0453  1.3076 -0.5183
  154MOL0     H20784   2.354  10.774  10.651  5.1603 -0.3863 -0.1640
  154MOL0     H20785   2.303  10.605  10.657  0.4922 -0.4028  1.9173
  154MOL0     H20786   2.536  10.631  10.672  0.9360 -0.8797  1.1304
  154MOL0     H20787   2.471  10.552  10.816  2.3451  0.1642 -0.4923
  154MOL0     H20788   2.572  10.889  11.032  0.3193 -0.4182  1.2792
  154MOL0     H20789   2.057  10.862  10.423  0.8693 -0.6591 -0.0903
  154MOL0     H20790   1.867  10.856  10.277 -1.9530  0.5509  0.5158
  155MOL0     O20791   4.601   8.048   3.016  0.5315 -0.2256 -0.0544
  155MOL0     C20792   4.665   8.094   2.923  0.3502 -0.5123 -0.6218
  155MOL0     O20793   4.609   8.096   2.796  0.0627 -0.4468 -0.5615
  155MOL0     C20794   4.482   8.041   2.771  0.4949  0.0683  0.7560
  155MOL0     C20795   4.364   8.120   2.783 -0.3381  0.4723 -0.4201
  155MOL0     C20796   4.235   8.072   2.758  0.3948 -0.3262 -0.3084
  155MOL0     C20797   4.214   7.933   2.730 -0.1665 -0.4213  0.3652
  155MOL0     O20798   4.097   7.877   2.688 -0.3420 -0.1189 -0.2298
  155MOL0     C20799   3.990   7.896   2.790  0.4695  0.4206  0.8296
  155MOL0     C20800   3.868   7.966   2.735  0.6835 -0.0216  0.3403
  155MOL0     C20801   3.761   7.995   2.833  0.2128  0.1744  0.0621
  155MOL0     C20802   3.761   8.144   2.873 -0.2795  0.5964 -1.3055
  155MOL0     C20803   3.645   8.189   2.962 -0.3335  0.0251 -0.8944
  155MOL0     C20804   3.510   8.190   2.881  0.1796 -0.0585  0.1815
  155MOL0     C20805   3.383   8.186   2.960  0.1376  0.6354 -0.3387
  155MOL0     C20806   3.367   8.312   3.037 -1.2552  0.6413  1.0484
  155MOL0     N20807   3.235   8.316   3.102 -0.4318  0.1342 -0.5175
  155MOL0     C20808   3.202   8.252   3.221 -1.1490  0.0739  0.0189
  155MOL0     C20809   3.068   8.256   3.222 -0.2923  0.4771  0.8372
  155MOL0     C20810   3.000   8.183   3.324  0.6005  0.1708  1.2963
  155MOL0     C20811   2.900   8.269   3.394  0.3381 -0.1248 -0.0135
  155MOL0     C20812   2.822   8.199   3.505 -0.2724 -0.1617  0.3228
  155MOL0     C20813   2.733   8.306   3.573  0.3453 -0.4975  0.4651
  155MOL0     O20814   2.614   8.340   3.496 -0.2213  0.1713 -0.0690
  155MOL0     C20815   2.528   8.436   3.552  0.1979 -0.5390  0.7350
  155MOL0     C20816   2.536   8.480   3.685  0.3426  0.2300  0.2614
  155MOL0     C20817   2.444   8.576   3.737  0.2318 -0.0931  0.6072
  155MOL0     C20818   2.468   8.631   3.874 -0.5673  0.2167 -0.3167
  155MOL0     C20819   2.339   8.626   3.648  0.1853  0.3852  0.4160
  155MOL0     C20820   2.244   8.730   3.685  0.2135 -0.1445  0.0095
  155MOL0     O20821   2.152   8.755   3.590 -0.3526  0.9465  0.0927
  155MOL0     C20822   2.084   8.872   3.605  0.6857 -1.3968  0.9470
  155MOL0     C20823   2.082   8.968   3.498  0.0759  0.3764 -0.3099
  155MOL0     C20824   1.986   9.076   3.504  0.0978  0.4609  0.4211
  155MOL0     C20825   1.926   9.113   3.624 -0.5647  0.7026  0.0303
  155MOL0     O20826   1.845   9.221   3.633 -0.2226  0.0718  0.1271
  155MOL0     C20827   1.839   9.331   3.547 -0.7188  0.0153 -0.3959
  155MOL0     C20828   1.715   9.342   3.458 -0.4303  0.8844 -0.0364
  155MOL0     C20829   1.683   9.481   3.416  0.6557  0.0391 -0.1965
  155MOL0     C20830   1.550   9.487   3.335 -0.7103 -0.1071 -0.1048
  155MOL0     C20831   1.501   9.621   3.278  0.2128 -0.8672  0.2308
  155MOL0     C20832   1.479   9.726   3.385 -0.0059 -0.0720  0.5724
  155MOL0     C20833   1.407   9.857   3.355  0.2428  0.5244  0.9255
  155MOL0     C20834   1.386   9.940   3.481 -0.2376  0.2097 -0.7149
  155MOL0    Cl20835   1.286  10.081   3.454 -0.0213  0.0350 -0.1377
  155MOL0     C20836   1.945   9.027   3.734 -0.4033 -0.7276  0.0268
  155MOL0     C20837   2.012   8.901   3.722  0.1179 -0.2191  0.1449
  155MOL0     O20838   2.252   8.793   3.787  0.4289 -0.3228 -0.2140
  155MOL0     C20839   2.344   8.583   3.512  0.5137 -0.5489  0.5058
  155MOL0     C20840   2.428   8.489   3.468  0.0312 -0.5491 -0.7999
  155MOL0     N20841   3.016   8.320   3.114 -0.4409 -0.4128  0.2841
  155MOL0     N20842   3.115   8.360   3.042  0.3163  0.6763  0.3427
  155MOL0     C20843   4.334   7.854   2.730 -0.2817  0.0008 -0.1931
  155MOL0     C20844   4.461   7.906   2.741  0.5122 -0.0813  0.6298
  155MOL0     C20845   4.793   8.155   2.957 -0.3927  0.2521 -0.4025
  155MOL0     C20846   4.834   8.272   2.890 -0.7904  0.5672 -0.0174
  155MOL0     C20847   4.946   8.347   2.932 -0.3155 -0.0098  0.6311
  155MOL0     C20848   5.034   8.284   3.025 -0.1057 -0.0328 -0.0023
  155MOL0     O20849   5.160   8.336   3.064  0.2136  0.3535  0.1163
  155MOL0     C20850   5.210   8.449   2.990  0.0463 -0.6923 -0.6035
  155MOL0     C20851   5.357   8.481   3.037 -0.1170 -0.7249 -0.1603
  155MOL0     C20852   5.390   8.515   3.181 -0.8699  0.7699  0.0389
  155MOL0     C20853   5.531   8.578   3.178  0.3474  0.6791 -0.0912
  155MOL0     C20854   5.638   8.503   3.239  0.3623  0.6387 -0.9621
  155MOL0     C20855   5.722   8.440   3.299 -0.3186 -0.0585 -0.0490
  155MOL0     C20856   4.992   8.170   3.088 -0.2571 -0.1426  0.4303
  155MOL0     C20857   4.875   8.110   3.060 -0.1872 -0.8774 -0.0876
  155MOL0     H20858   4.366   8.226   2.808 -2.4431  0.5014 -0.1802
  155MOL0     H20859   4.150   8.139   2.766  0.1686 -0.6047 -0.3550
  155MOL0     H20860   3.948   7.806   2.836  0.0251  0.5410  0.6599
  155MOL0     H20861   4.036   7.949   2.874  3.7984  1.3871 -1.3928
  155MOL0     H20862   3.904   8.061   2.696 -4.6272  2.4631  0.6772
  155MOL0     H20863   3.827   7.917   2.646 -0.0848 -1.3168  1.3641
  155MOL0     H20864   3.665   7.971   2.787  0.0110  0.1161  0.5051
  155MOL0     H20865   3.766   7.933   2.923 -2.5100  1.6312  1.3507
  155MOL0     H20866   3.850   8.160   2.935 -0.9051 -1.3506  0.1669
  155MOL0     H20867   3.757   8.199   2.779 -4.4323 -4.3551 -4.5848
  155MOL0     H20868   3.638   8.123   3.050  3.4286  1.8031  0.9517
  155MOL0     H20869   3.652   8.288   3.008 -0.0972 -1.6007  2.9822
  155MOL0     H20870   3.519   8.272   2.809  0.3794  1.9155  2.3323
  155MOL0     H20871   3.501   8.097   2.825 -1.1421  0.0104  0.2331
  155MOL0     H20872   3.298   8.175   2.892  0.7437  1.0644 -1.2060
  155MOL0     H20873   3.378   8.101   3.028 -0.3173  1.2605  0.4232
  155MOL0     H20874   3.372   8.395   2.966  4.3581 -0.9388 -0.8734
  155MOL0     H20875   3.447   8.325   3.110 -1.8936  1.2032  1.6762
  155MOL0     H20876   3.262   8.199   3.293 -2.2447 -0.2109  0.7527
  155MOL0     H20877   2.950   8.097   3.279  2.3169 -0.3367  0.2493
  155MOL0     H20878   3.073   8.134   3.390  2.6016 -1.0497 -1.5794
  155MOL0     H20879   2.825   8.308   3.325  2.3789  2.9106 -0.6971
  155MOL0     H20880   2.944   8.356   3.443 -0.8739  0.4721  0.0453
  155MOL0     H20881   2.887   8.165   3.585  0.9010 -0.2292 -0.6311
  155MOL0     H20882   2.758   8.121   3.462 -2.3273  1.3667  0.4436
  155MOL0     H20883   2.788   8.397   3.599  0.5235 -0.4741  0.0170
  155MOL0     H20884   2.698   8.256   3.664 -0.4601  1.3808  1.2439
  155MOL0     H20885   2.614   8.458   3.757 -0.1788  3.4373  2.0096
  155MOL0     H20886   2.554   8.586   3.924 -1.7724  0.8271  2.5275
  155MOL0     H20887   2.479   8.740   3.866 -0.2782  0.4068  2.0175
  155MOL0     H20888   2.382   8.613   3.939  0.8830  1.8330  2.1920
  155MOL0     H20889   2.142   8.942   3.412 -0.0150  0.9331 -0.5433
  155MOL0     H20890   1.962   9.125   3.411 -2.3232  1.7308  1.5906
  155MOL0     H20891   1.830   9.406   3.626  0.3744  2.9414 -2.8054
  155MOL0     H20892   1.924   9.356   3.483 -1.1510  3.3592  0.1428
  155MOL0     H20893   1.730   9.286   3.365  0.9541  1.7503 -0.3711
  155MOL0     H20894   1.636   9.292   3.513  1.7653 -2.5999  0.2728
  155MOL0     H20895   1.764   9.526   3.358  0.2814 -0.4052 -1.0795
  155MOL0     H20896   1.676   9.540   3.508  0.8029 -1.6086  0.9277
  155MOL0     H20897   1.566   9.415   3.254 -2.6138 -0.7259  0.0090
  155MOL0     H20898   1.468   9.445   3.394  1.5728 -2.4092  1.6601
  155MOL0     H20899   1.411   9.603   3.219 -0.9845  1.9217  1.0094
  155MOL0     H20900   1.571   9.661   3.204 -2.3486 -1.7393 -2.8621
  155MOL0     H20901   1.416   9.678   3.460  0.8664  0.3975  1.6400
  155MOL0     H20902   1.575   9.753   3.431  0.5141 -0.0044 -0.5194
  155MOL0     H20903   1.310   9.838   3.310  0.8268 -1.1495  0.3136
  155MOL0     H20904   1.477   9.906   3.286  0.7911 -1.4874 -0.0293
  155MOL0     H20905   1.489   9.974   3.499  0.1626  0.2983 -2.8998
  155MOL0     H20906   1.343   9.881   3.563  1.7611  0.2811  0.4750
  155MOL0     H20907   1.911   9.047   3.835 -3.0480  2.6248 -1.3375
  155MOL0     H20908   2.015   8.834   3.808  2.2906  2.2430  2.1809
  155MOL0     H20909   2.289   8.629   3.430  1.5946 -2.3589 -1.3159
  155MOL0     H20910   2.422   8.455   3.365 -0.9540  2.0130 -1.6601
  155MOL0     H20911   4.330   7.752   2.693  1.4067  0.9979 -3.5636
  155MOL0     H20912   4.550   7.848   2.719 -0.9347 -1.6600 -1.3747
  155MOL0     H20913   4.774   8.314   2.810 -2.0312  3.0774  2.0698
  155MOL0     H20914   4.971   8.439   2.879 -0.4740 -0.8199 -0.9131
  155MOL0     H20915   5.220   8.432   2.883  2.5777 -2.8087 -0.1251
  155MOL0     H20916   5.152   8.540   3.008 -0.3689 -0.7024 -1.8034
  155MOL0     H20917   5.382   8.567   2.975 -2.4300  0.7767  0.8502
  155MOL0     H20918   5.430   8.404   3.009  0.6054 -0.1049 -0.0208
  155MOL0     H20919   5.388   8.429   3.249  1.6642  2.0152  1.8692
  155MOL0     H20920   5.327   8.597   3.218 -0.0918  2.2841 -1.8255
  155MOL0     H20921   5.529   8.675   3.229  0.9705  1.5456 -1.6642
  155MOL0     H20922   5.555   8.603   3.075 -0.4118  1.4192 -0.0980
  155MOL0     H20923   5.796   8.383   3.353 -1.2826  0.2167  1.6428
  155MOL0     H20924   5.059   8.123   3.159  1.5133 -1.9760 -2.2623
  155MOL0     H20925   4.833   8.025   3.113  0.3757 -0.9070  0.3240
  156MOL0     O20926   7.432   6.564   1.628 -0.6204 -0.1118 -0.2069
  156MOL0     C20927   7.475   6.541   1.742 -0.0492  0.0666  0.4989
  156MOL0     O20928   7.424   6.459   1.829  0.0563 -0.2804 -0.5521
  156MOL0     C20929   7.308   6.384   1.806 -0.5171 -0.5359  0.3079
  156MOL0     C20930   7.206   6.429   1.718 -0.5486 -0.2844  0.4230
  156MOL0     C20931   7.095   6.350   1.702 -0.3137 -0.5438 -1.0725
  156MOL0     C20932   7.081   6.223   1.750  0.7984  0.1187 -0.2701
  156MOL0     O20933   6.964   6.154   1.729  0.0696  0.2763 -0.2793
  156MOL0     C20934   6.962   6.015   1.755  0.7236 -0.4293  0.7424
  156MOL0     C20935   6.822   5.961   1.721  0.8591  0.3818  0.7208
  156MOL0     C20936   6.788   5.941   1.566 -0.3708 -0.5867 -0.0236
  156MOL0     C20937   6.647   5.887   1.546  0.0967  0.0104 -1.3041
  156MOL0     C20938   6.601   5.854   1.403 -0.3670 -0.2522 -0.2327
  156MOL0     C20939   6.638   5.714   1.370 -0.5332 -0.2477 -0.4778
  156MOL0     C20940   6.657   5.685   1.217  0.1084 -0.7742  0.1735
  156MOL0     C20941   6.547   5.745   1.125 -1.0923  0.2406 -0.1868
  156MOL0     N20942   6.416   5.688   1.163 -0.6592  0.2147 -0.5029
  156MOL0     C20943   6.306   5.770   1.169  0.3221 -0.4658  0.0297
  156MOL0     C20944   6.206   5.688   1.204 -0.1502  0.1144 -0.0622
  156MOL0     C20945   6.062   5.740   1.222  0.7143 -0.2405  0.4730
  156MOL0     C20946   6.042   5.790   1.370 -0.8906 -0.4360  0.5112
  156MOL0     C20947   5.904   5.828   1.398 -0.4335 -1.0961 -0.0683
  156MOL0     C20948   5.887   5.907   1.531  0.1876  0.6210 -0.3065
  156MOL0     O20949   5.889   5.808   1.638  0.0137 -0.1175  0.6593
  156MOL0     C20950   5.776   5.732   1.669  0.0891  0.2340 -0.9130
  156MOL0     C20951   5.798   5.622   1.750 -0.7433 -0.6265 -0.8591
  156MOL0     C20952   5.708   5.523   1.784  0.3914 -0.1666  0.2125
  156MOL0     C20953   5.759   5.401   1.863  0.7356 -0.4446 -0.5743
  156MOL0     C20954   5.572   5.545   1.737  0.2557 -0.2607  0.7655
  156MOL0     C20955   5.459   5.449   1.778  0.1654  0.3324  0.1463
  156MOL0     O20956   5.464   5.394   1.902 -0.1493  0.3177  0.2532
  156MOL0     C20957   5.373   5.297   1.935 -0.7652  0.4566 -0.0490
  156MOL0     C20958   5.295   5.313   2.051  0.5186  0.0263 -0.4129
  156MOL0     C20959   5.198   5.221   2.083  0.4822  0.0870  0.0883
  156MOL0     C20960   5.183   5.092   2.007  0.0008 -0.2698 -0.7557
  156MOL0     O20961   5.093   4.994   2.032  0.2523 -0.2892  0.2418
  156MOL0     C20962   5.029   4.995   2.168 -0.5603  0.0015 -0.1556
  156MOL0     C20963   4.920   4.889   2.166  0.4734 -0.3136 -0.2736
  156MOL0     C20964   4.854   4.882   2.298  0.4418  0.1304  0.0052
  156MOL0     C20965   4.768   4.749   2.291 -0.7744 -0.0974 -0.2842
  156MOL0     C20966   4.685   4.751   2.425 -0.4292 -0.7454  0.4550
  156MOL0     C20967   4.566   4.654   2.438 -0.1699  0.1655 -0.6581
  156MOL0     C20968   4.468   4.692   2.553  0.3875 -0.1161  0.8328
  156MOL0     C20969   4.384   4.812   2.511  0.2817  0.1032  0.3132
  156MOL0    Cl20970   4.274   4.795   2.380  0.1620  0.1349  0.0987
  156MOL0     C20971   5.264   5.081   1.891 -0.0670  0.3253  0.9204
  156MOL0     C20972   5.364   5.182   1.856  0.2447 -0.3527  0.5689
  156MOL0     O20973   5.359   5.455   1.704  0.1458 -0.8273  0.5923
  156MOL0     C20974   5.550   5.657   1.645  0.2418 -0.3031 -0.2058
  156MOL0     C20975   5.649   5.751   1.619  0.6325 -0.2136  0.5935
  156MOL0     N20976   6.260   5.558   1.210 -0.2320  0.2720  1.1537
  156MOL0     N20977   6.386   5.557   1.180 -0.7929 -0.0141  0.0328
  156MOL0     C20978   7.183   6.180   1.834  0.3950 -0.0540 -0.5626
  156MOL0     C20979   7.287   6.265   1.870  0.1814 -0.3845 -0.0360
  156MOL0     C20980   7.593   6.608   1.789 -1.0461  0.2911 -0.5644
  156MOL0     C20981   7.687   6.657   1.702  0.6639  0.8699 -0.3517
  156MOL0     C20982   7.805   6.709   1.743 -0.7011 -1.2071 -1.0823
  156MOL0     C20983   7.843   6.713   1.875 -0.3929 -0.2627 -0.3380
  156MOL0     O20984   7.957   6.763   1.929 -0.6180 -0.2570  0.4605
  156MOL0     C20985   8.045   6.837   1.843 -0.1017 -0.0372 -0.5463
  156MOL0     C20986   8.188   6.862   1.900  0.8081  0.1491  0.8617
  156MOL0     C20987   8.224   6.750   1.997  0.0559 -0.6261  0.5124
  156MOL0     C20988   8.378   6.710   2.012 -0.1758 -0.5296  0.5035
  156MOL0     C20989   8.450   6.832   2.023 -0.3544 -0.4550  0.0139
  156MOL0     C20990   8.507   6.936   2.021 -0.5577 -0.3783  0.1855
  156MOL0     C20991   7.754   6.645   1.965  0.3380 -0.7096  0.2583
  156MOL0     C20992   7.624   6.609   1.930  0.6569  0.4082  0.7039
  156MOL0     H20993   7.209   6.525   1.667  0.6438 -0.0151  0.9574
  156MOL0     H20994   7.022   6.381   1.629  0.4124 -0.0715 -1.6162
  156MOL0     H20995   7.029   5.972   1.680  0.0314  0.3052 -0.3133
  156MOL0     H20996   6.993   5.983   1.855  0.7380 -0.8348  0.6105
  156MOL0     H20997   6.808   5.868   1.778  1.7158 -0.5519 -0.5427
  156MOL0     H20998   6.742   6.032   1.746 -1.2635 -1.3148 -0.8658
  156MOL0     H20999   6.805   6.034   1.512 -2.1883 -0.7337 -0.9185
  156MOL0     H21000   6.860   5.866   1.532  2.2292  0.5112  2.6246
  156MOL0     H21001   6.638   5.797   1.606 -0.2201  1.1014  0.3451
  156MOL0     H21002   6.573   5.950   1.597 -2.3168 -3.1682 -0.6031
  156MOL0     H21003   6.494   5.869   1.390 -0.4070  0.3837  0.7571
  156MOL0     H21004   6.660   5.924   1.343  4.1429 -0.5482  3.3330
  156MOL0     H21005   6.733   5.690   1.419 -0.4152 -1.3559 -1.2272
  156MOL0     H21006   6.568   5.650   1.423  1.1079 -0.2222  1.8803
  156MOL0     H21007   6.759   5.713   1.188  0.2163 -0.8523  0.4650
  156MOL0     H21008   6.649   5.577   1.210 -0.8635 -0.9552  2.8203
  156MOL0     H21009   6.572   5.706   1.026 -0.3605  1.1445 -0.3707
  156MOL0     H21010   6.558   5.854   1.128  1.4857  0.0849  3.0952
  156MOL0     H21011   6.302   5.877   1.146  0.6834 -0.5329 -0.3532
  156MOL0     H21012   6.021   5.807   1.145 -3.0526 -1.0495  1.5591
  156MOL0     H21013   5.992   5.657   1.208 -0.7464  0.7569  1.5553
  156MOL0     H21014   6.107   5.876   1.386 -1.4484  0.0434  0.2683
  156MOL0     H21015   6.063   5.703   1.433  0.6556 -2.8643 -3.0147
  156MOL0     H21016   5.839   5.740   1.400  0.1717 -1.5285  0.7020
  156MOL0     H21017   5.882   5.900   1.318 -1.2086  2.6863  3.2281
  156MOL0     H21018   5.798   5.971   1.532 -2.0319 -2.2430 -0.3326
  156MOL0     H21019   5.975   5.972   1.528  0.3026  0.4506 -0.6749
  156MOL0     H21020   5.898   5.608   1.791 -2.0370  1.9098  3.8717
  156MOL0     H21021   5.693   5.394   1.951 -1.6969  1.2581 -2.1224
  156MOL0     H21022   5.759   5.307   1.807 -0.0452 -0.7802 -0.0398
  156MOL0     H21023   5.862   5.407   1.899  0.3928 -1.3923  0.6686
  156MOL0     H21024   5.309   5.404   2.109  1.2286 -0.1073 -0.3662
  156MOL0     H21025   5.142   5.231   2.176 -0.6106 -0.6541 -0.4636
  156MOL0     H21026   5.104   4.972   2.244 -0.1099  0.9991 -0.2794
  156MOL0     H21027   4.988   5.093   2.191  0.3807  0.4999 -0.5322
  156MOL0     H21028   4.838   4.924   2.103 -2.0349  0.0478  2.9640
  156MOL0     H21029   4.964   4.793   2.138  1.6671 -0.1215  0.8183
  156MOL0     H21030   4.786   4.967   2.311  0.3503  0.4690 -2.3680
  156MOL0     H21031   4.923   4.876   2.383  3.0291  3.4265 -1.6658
  156MOL0     H21032   4.705   4.748   2.202  0.2306 -0.5006 -1.0076
  156MOL0     H21033   4.831   4.660   2.298  0.5669  0.9040  0.9552
  156MOL0     H21034   4.644   4.853   2.426  1.7522  0.2257 -1.2280
  156MOL0     H21035   4.757   4.737   2.506 -1.3742  0.1392  1.4894
  156MOL0     H21036   4.513   4.661   2.342 -3.6300 -0.8178  1.0291
  156MOL0     H21037   4.596   4.556   2.474  0.8075  0.4312 -0.7146
  156MOL0     H21038   4.506   4.725   2.651 -0.4680 -1.6311  1.7083
  156MOL0     H21039   4.397   4.610   2.560 -3.4794  2.4824 -2.9745
  156MOL0     H21040   4.448   4.897   2.483 -0.2697  0.4949  0.2190
  156MOL0     H21041   4.322   4.843   2.596 -1.3795  0.9157 -1.1142
  156MOL0     H21042   5.257   4.989   1.833 -0.8424 -0.1677  1.7577
  156MOL0     H21043   5.421   5.165   1.765 -0.9470 -1.8588  0.0638
  156MOL0     H21044   5.451   5.662   1.602 -0.6955 -0.9898  1.7439
  156MOL0     H21045   5.638   5.834   1.551  0.5109 -1.0079 -0.3818
  156MOL0     H21046   7.185   6.079   1.872 -1.3771 -0.7648 -2.2168
  156MOL0     H21047   7.364   6.231   1.940  1.0758  0.0646 -0.7823
  156MOL0     H21048   7.661   6.656   1.596 -2.2748 -0.3913  0.2710
  156MOL0     H21049   7.867   6.760   1.670 -1.2368  2.8176  0.9641
  156MOL0     H21050   8.055   6.796   1.742 -0.3768  0.3314 -0.7265
  156MOL0     H21051   8.003   6.937   1.830  2.5329  1.3229  0.5567
  156MOL0     H21052   8.208   6.961   1.943  1.9689  0.0900  0.4861
  156MOL0     H21053   8.252   6.861   1.811 -0.1181 -1.7522  0.1533
  156MOL0     H21054   8.187   6.655   1.956  1.6285 -1.4404  0.8881
  156MOL0     H21055   8.176   6.773   2.092  1.5077 -0.8146  1.3218
  156MOL0     H21056   8.412   6.665   1.919  0.1006  0.3173  0.1906
  156MOL0     H21057   8.404   6.639   2.092  1.3984 -0.2606  0.2671
  156MOL0     H21058   8.570   7.023   2.020 -1.0765  0.0268  1.3741
  156MOL0     H21059   7.795   6.640   2.065 -1.7611 -0.1219  1.1961
  156MOL0     H21060   7.557   6.565   2.003 -1.6768  2.0569 -0.3393
  157MOL0     O21061   8.967   3.823   5.846  0.5563 -0.8308 -0.5552
  157MOL0     C21062   9.072   3.865   5.806 -0.4434 -0.7532 -0.7012
  157MOL0     O21063   9.090   3.978   5.734 -0.1002  0.1034 -0.0813
  157MOL0     C21064   8.996   4.064   5.691 -0.3450  1.0316  0.7970
  157MOL0     C21065   9.023   4.199   5.676  0.9682  0.0511  0.3346
  157MOL0     C21066   8.923   4.291   5.622  0.0587 -0.0148 -1.2198
  157MOL0     C21067   8.799   4.246   5.584  0.6325 -0.6452  0.6487
  157MOL0     O21068   8.690   4.323   5.541 -0.0299 -0.1091 -0.2613
  157MOL0     C21069   8.701   4.463   5.538 -0.2645  0.6331 -0.5636
  157MOL0     C21070   8.566   4.515   5.477 -0.5429 -0.2453  0.1463
  157MOL0     C21071   8.551   4.670   5.493  0.3366  1.1944 -0.4794
  157MOL0     C21072   8.569   4.737   5.637  0.3828  0.1648  1.2417
  157MOL0     C21073   8.434   4.727   5.714 -0.4476  0.6015  0.2336
  157MOL0     C21074   8.449   4.806   5.835  1.0141 -0.1376 -1.1082
  157MOL0     C21075   8.326   4.799   5.931  0.7292 -0.1393 -0.0212
  157MOL0     C21076   8.316   4.679   6.018 -0.7573  1.3315  0.2553
  157MOL0     N21077   8.216   4.709   6.122  0.6384 -0.5488 -0.1487
  157MOL0     C21078   8.077   4.684   6.118  0.3953 -0.1569 -0.7531
  157MOL0     C21079   8.033   4.733   6.240 -0.1522 -0.4238 -0.4407
  157MOL0     C21080   7.891   4.741   6.300 -1.4082 -0.4671  0.5596
  157MOL0     C21081   7.841   4.600   6.320 -0.4692  0.5151 -0.1650
  157MOL0     C21082   7.695   4.581   6.350  0.2503  0.4438  0.1555
  157MOL0     C21083   7.650   4.654   6.469 -0.4188 -0.5301  0.8070
  157MOL0     O21084   7.532   4.579   6.498  0.4828 -0.4670 -0.0266
  157MOL0     C21085   7.449   4.623   6.603  1.8089 -0.5693  0.9388
  157MOL0     C21086   7.341   4.544   6.631 -0.4316  0.1597 -0.6304
  157MOL0     C21087   7.259   4.573   6.743  0.1612  1.1177  0.0467
  157MOL0     C21088   7.149   4.477   6.775 -0.4560  0.5620 -0.3561
  157MOL0     C21089   7.278   4.690   6.811  0.8176  0.4674 -0.8083
  157MOL0     C21090   7.190   4.743   6.921 -0.0256 -0.6103 -0.3604
  157MOL0     O21091   7.073   4.795   6.880 -0.1805 -0.5691 -0.8063
  157MOL0     C21092   7.041   4.902   6.955  0.3205 -0.0365  0.2473
  157MOL0     C21093   7.095   5.030   6.910 -0.2756  0.2682 -0.4235
  157MOL0     C21094   7.070   5.140   6.997  0.6367 -0.3991  1.1085
  157MOL0     C21095   7.003   5.130   7.116 -0.2053  0.6797 -0.2163
  157MOL0     O21096   6.987   5.229   7.207  0.1943 -0.1776  0.0493
  157MOL0     C21097   6.958   5.362   7.160 -0.0891 -0.4907  0.3603
  157MOL0     C21098   6.896   5.451   7.262  0.7156  0.1582 -0.1371
  157MOL0     C21099   6.761   5.395   7.313  0.2194  0.4834 -0.4102
  157MOL0     C21100   6.685   5.504   7.390  0.2622 -0.2460  0.4257
  157MOL0     C21101   6.542   5.449   7.437 -0.2749 -0.1140  0.2493
  157MOL0     C21102   6.460   5.572   7.464 -0.9482 -0.0398  0.4180
  157MOL0     C21103   6.326   5.549   7.533 -0.5680 -0.3548  1.2370
  157MOL0     C21104   6.259   5.678   7.575  0.2690  0.0920 -0.6537
  157MOL0    Cl21105   6.096   5.641   7.634 -0.2673  0.0622  0.1788
  157MOL0     C21106   6.960   5.002   7.151  0.3817 -0.4049 -0.4998
  157MOL0     C21107   6.967   4.897   7.068 -0.2898  0.4099 -0.5897
  157MOL0     O21108   7.227   4.732   7.037 -0.3579 -0.4254  0.0125
  157MOL0     C21109   7.388   4.768   6.779 -0.1659 -0.6757  0.0573
  157MOL0     C21110   7.466   4.739   6.672  0.0863 -0.2343  0.1870
  157MOL0     N21111   8.141   4.779   6.320 -0.0130 -0.0047 -0.0471
  157MOL0     N21112   8.245   4.772   6.243  0.3481  1.0090  0.4271
  157MOL0     C21113   8.776   4.115   5.621 -0.2489  0.5260 -0.6118
  157MOL0     C21114   8.870   4.020   5.664  0.8355 -0.4538  0.5648
  157MOL0     C21115   9.189   3.797   5.856  0.0536 -0.2107 -0.0770
  157MOL0     C21116   9.319   3.837   5.822  0.0423 -0.1642 -0.1391
  157MOL0     C21117   9.430   3.769   5.863  0.2070 -0.1121  0.4597
  157MOL0     C21118   9.427   3.659   5.959  0.5865 -0.8805 -0.2959
  157MOL0     O21119   9.535   3.586   5.995 -0.4608  0.4084 -0.3707
  157MOL0     C21120   9.664   3.617   5.944 -0.5177 -0.4724 -0.2782
  157MOL0     C21121   9.686   3.545   5.810 -0.5420 -0.0164  0.0975
  157MOL0     C21122   9.816   3.582   5.745  0.4586 -0.5408  0.7532
  157MOL0     C21123   9.843   3.525   5.607  0.8257 -0.2898 -0.7848
  157MOL0     C21124   9.725   3.561   5.524  0.6318 -0.6798 -0.1387
  157MOL0     C21125   9.630   3.592   5.455 -0.9842 -0.0167  0.5786
  157MOL0     C21126   9.289   3.623   5.991 -0.7984 -0.2133  1.0105
  157MOL0     C21127   9.180   3.685   5.936 -0.6759 -0.2576 -0.1239
  157MOL0     H21128   9.124   4.227   5.703  1.2399 -0.0075 -0.5885
  157MOL0     H21129   8.954   4.394   5.605  2.1811 -0.9663 -3.8659
  157MOL0     H21130   8.726   4.494   5.640  0.8137  2.7010 -1.3977
  157MOL0     H21131   8.783   4.496   5.474  0.7195 -0.9319 -0.1592
  157MOL0     H21132   8.564   4.496   5.369  0.7094 -0.6641  0.1732
  157MOL0     H21133   8.486   4.469   5.535  1.4384 -0.5131  2.9211
  157MOL0     H21134   8.618   4.724   5.425  4.0380 -0.6793  1.3554
  157MOL0     H21135   8.451   4.687   5.453  0.3634 -1.0154 -1.6868
  157MOL0     H21136   8.640   4.680   5.697  0.0716 -1.3799  0.2292
  157MOL0     H21137   8.603   4.840   5.625 -1.1838  0.5447 -0.3647
  157MOL0     H21138   8.361   4.776   5.649  3.1848  2.5100 -2.8071
  157MOL0     H21139   8.421   4.623   5.745 -0.7322  0.5047 -0.2089
  157MOL0     H21140   8.541   4.786   5.889  0.9740  0.0152 -0.9801
  157MOL0     H21141   8.446   4.912   5.805 -0.0829  0.2450  0.2468
  157MOL0     H21142   8.326   4.894   5.986 -0.1310  0.4250 -0.9576
  157MOL0     H21143   8.235   4.792   5.871 -0.9998  0.3279  2.3969
  157MOL0     H21144   8.416   4.663   6.060 -0.9714 -0.2031  0.2325
  157MOL0     H21145   8.283   4.593   5.960 -1.6062  2.2252 -0.6206
  157MOL0     H21146   8.016   4.629   6.048 -2.3933 -0.3019  1.6161
  157MOL0     H21147   7.905   4.802   6.390  5.0799  1.9589 -1.5626
  157MOL0     H21148   7.829   4.783   6.221 -1.2491 -2.0952 -0.4618
  157MOL0     H21149   7.893   4.556   6.406 -0.6688 -0.1441 -0.3770
  157MOL0     H21150   7.863   4.545   6.228 -0.9825  0.4407 -0.2475
  157MOL0     H21151   7.688   4.475   6.375  1.5199  0.3119 -0.0205
  157MOL0     H21152   7.629   4.607   6.266 -1.6498  0.8781  1.7105
  157MOL0     H21153   7.631   4.761   6.461  4.5366  0.4227 -3.4575
  157MOL0     H21154   7.731   4.638   6.541  2.1128 -0.2933 -1.7942
  157MOL0     H21155   7.334   4.447   6.582 -0.3396 -1.2577  1.9972
  157MOL0     H21156   7.067   4.535   6.819 -0.6548 -1.7486  2.6686
  157MOL0     H21157   7.127   4.422   6.683  0.1093 -1.2390  0.5326
  157MOL0     H21158   7.179   4.404   6.851 -1.2232  0.5609 -0.0466
  157MOL0     H21159   7.158   5.030   6.821 -0.5715 -0.1191 -0.6373
  157MOL0     H21160   7.103   5.241   6.973  2.7859 -1.4285 -0.5818
  157MOL0     H21161   7.055   5.406   7.138 -0.3322  0.8055  1.7352
  157MOL0     H21162   6.899   5.347   7.069 -0.0665 -0.9715  0.4236
  157MOL0     H21163   6.967   5.470   7.343 -0.7384  0.9215  1.0048
  157MOL0     H21164   6.891   5.551   7.218  3.4195  1.9318  3.1118
  157MOL0     H21165   6.777   5.305   7.374 -1.2375  1.4390  1.5041
  157MOL0     H21166   6.704   5.351   7.231 -3.8800  0.2455  2.2628
  157MOL0     H21167   6.741   5.538   7.477  1.0169  1.6418 -0.7311
  157MOL0     H21168   6.680   5.582   7.313  1.5840 -0.5952 -0.0471
  157MOL0     H21169   6.556   5.388   7.527 -0.1802 -1.1609 -0.4594
  157MOL0     H21170   6.497   5.378   7.367  0.1896 -2.4770  2.1979
  157MOL0     H21171   6.512   5.644   7.527 -0.1839  0.5189 -0.7991
  157MOL0     H21172   6.452   5.616   7.364 -0.5383  1.8021  1.1526
  157MOL0     H21173   6.333   5.478   7.616 -2.4928  1.8657  3.4665
  157MOL0     H21174   6.263   5.496   7.460  0.5890 -0.3925  0.2358
  157MOL0     H21175   6.249   5.751   7.494 -0.3360 -2.1229 -2.7173
  157MOL0     H21176   6.317   5.719   7.658 -1.7547 -1.0387  1.4345
  157MOL0     H21177   6.913   4.988   7.248 -0.6277 -3.4653 -1.3094
  157MOL0     H21178   6.925   4.801   7.094  0.3642  0.6093  1.3554
  157MOL0     H21179   7.400   4.857   6.841  1.0064 -2.0017  1.8265
  157MOL0     H21180   7.534   4.818   6.642 -1.3535  1.5565  1.3642
  157MOL0     H21181   8.684   4.078   5.577 -0.2115  1.7340 -1.7820
  157MOL0     H21182   8.831   3.921   5.685 -0.3891 -0.0953  0.0430
  157MOL0     H21183   9.326   3.925   5.759  0.5709  0.4436  0.7545
  157MOL0     H21184   9.526   3.797   5.821 -0.6434  1.6621 -0.4009
  157MOL0     H21185   9.673   3.722   5.918 -1.2802 -0.2573  0.2822
  157MOL0     H21186   9.743   3.590   6.015  0.2890  1.9343 -0.1998
  157MOL0     H21187   9.600   3.562   5.745  0.3944  0.9062 -0.9393
  157MOL0     H21188   9.692   3.437   5.826 -3.7148 -0.3079 -0.0542
  157MOL0     H21189   9.887   3.551   5.823 -0.0102 -2.1517  0.5901
  157MOL0     H21190   9.824   3.689   5.725  4.1687 -0.8560 -0.3156
  157MOL0     H21191   9.853   3.417   5.625  5.8404  0.1551  0.5158
  157MOL0     H21192   9.938   3.544   5.557 -0.2652  1.7644 -2.2241
  157MOL0     H21193   9.549   3.623   5.392 -0.3517  0.2317 -0.1297
  157MOL0     H21194   9.284   3.540   6.062 -1.1922 -3.9996 -3.0102
  157MOL0     H21195   9.080   3.655   5.966  0.1659 -1.4433  1.7827
  158MOL0     O21196  10.801  10.485   8.011  0.8853 -0.5319 -0.3810
  158MOL0     C21197  10.847  10.440   8.116 -0.2196 -0.7469 -0.7110
  158MOL0     O21198  10.777  10.420   8.231 -0.5586 -0.1776  0.0458
  158MOL0     C21199  10.641  10.442   8.241  0.0245 -0.4442 -0.1033
  158MOL0     C21200  10.569  10.362   8.336  0.1478 -0.7532  0.1797
  158MOL0     C21201  10.434  10.382   8.350 -0.5702 -0.1792 -0.3676
  158MOL0     C21202  10.369  10.473   8.262  0.0609 -0.0169 -0.7280
  158MOL0     O21203  10.231  10.473   8.280  0.3205 -0.1332 -0.3075
  158MOL0     C21204  10.150  10.579   8.228 -0.1967  0.1208  0.9635
  158MOL0     C21205  10.025  10.597   8.309  2.0735 -0.2300 -0.2537
  158MOL0     C21206   9.924  10.702   8.258  0.4762  0.1535 -0.5648
  158MOL0     C21207   9.793  10.721   8.343  0.3638  0.1230  0.0989
  158MOL0     C21208   9.723  10.854   8.293  0.7506 -0.0733 -0.1472
  158MOL0     C21209   9.590  10.861   8.372 -0.4700 -0.4426 -0.0647
  158MOL0     C21210   9.593  10.962   8.484  0.4950 -1.0838 -0.4971
  158MOL0     C21211   9.459  10.960   8.564 -0.9448  0.0791 -0.0722
  158MOL0     N21212   9.347  11.025   8.493  0.0824  0.0225  0.1862
  158MOL0     C21213   9.281  11.141   8.523 -1.0515 -0.3940 -0.2909
  158MOL0     C21214   9.166  11.148   8.456 -0.0005 -0.5242 -0.8510
  158MOL0     C21215   9.067  11.254   8.453  0.4953  0.7148  0.9017
  158MOL0     C21216   9.056  11.319   8.312  0.7852  0.3695 -0.5822
  158MOL0     C21217   8.930  11.413   8.299  0.0877  0.6724 -0.7077
  158MOL0     C21218   8.931  11.523   8.397  0.3012  0.2403  0.2213
  158MOL0     O21219   8.888  11.493   8.531 -0.1623  0.8292  0.2931
  158MOL0     C21220   8.759  11.459   8.557  0.2820  0.9135  0.8641
  158MOL0     C21221   8.736  11.373   8.659  0.4903  0.1427 -0.2834
  158MOL0     C21222   8.606  11.335   8.702  0.6287 -0.2890  0.6093
  158MOL0     C21223   8.601  11.246   8.825 -0.7323 -0.7712  0.0611
  158MOL0     C21224   8.490  11.389   8.628  0.3992 -0.4827  0.0614
  158MOL0     C21225   8.354  11.343   8.654 -0.2729  0.1677 -1.1673
  158MOL0     O21226   8.258  11.389   8.572  0.0091 -0.3362  0.1779
  158MOL0     C21227   8.133  11.353   8.603  0.2193 -0.3564 -0.3492
  158MOL0     C21228   8.049  11.441   8.665 -0.6112 -0.5914 -0.0689
  158MOL0     C21229   7.923  11.401   8.701  0.1814  0.4667  0.3731
  158MOL0     C21230   7.872  11.277   8.666  0.4569 -0.1064 -0.7384
  158MOL0     O21231   7.743  11.236   8.708 -0.0743  0.5566  0.3923
  158MOL0     C21232   7.728  11.095   8.756  0.2010 -0.6887  0.0150
  158MOL0     C21233   7.613  11.037   8.667 -0.7390  0.5477 -0.2336
  158MOL0     C21234   7.488  11.118   8.680 -0.0823 -0.5135  1.1124
  158MOL0     C21235   7.378  11.029   8.607  0.0248 -0.9633  0.4480
  158MOL0     C21236   7.241  11.078   8.647 -0.0947 -0.4439  0.7795
  158MOL0     C21237   7.136  10.977   8.611  0.2732 -0.3700 -0.3110
  158MOL0     C21238   6.993  11.032   8.626  0.0692 -0.7223  0.0716
  158MOL0     C21239   6.952  11.143   8.524  0.5313  0.4694 -0.8223
  158MOL0    Cl21240   6.778  11.201   8.518 -0.5033 -0.4776 -0.5117
  158MOL0     C21241   7.969  11.181   8.599  0.4185 -0.4526  0.1415
  158MOL0     C21242   8.098  11.226   8.562 -0.7033 -0.1560 -0.0166
  158MOL0     O21243   8.336  11.261   8.745 -0.0166  0.0225  0.1879
  158MOL0     C21244   8.515  11.486   8.529  0.0402 -0.4812 -0.8162
  158MOL0     C21245   8.647  11.522   8.499  0.7282 -0.0109  0.1295
  158MOL0     N21246   9.166  11.032   8.377  0.7666  0.5735 -0.3666
  158MOL0     N21247   9.266  10.959   8.410  0.3662  0.9573 -0.4461
  158MOL0     C21248  10.438  10.560   8.182  0.3056  0.2182 -0.5869
  158MOL0     C21249  10.579  10.553   8.178  0.7704  0.6547  0.6504
  158MOL0     C21250  10.998  10.431   8.107  0.9343 -0.8895 -0.6891
  158MOL0     C21251  11.079  10.408   8.225 -0.4098 -0.1116 -0.0010
  158MOL0     C21252  11.217  10.391   8.219  0.4875  0.6079  0.1477
  158MOL0     C21253  11.284  10.393   8.093  0.3193 -0.7367  1.2103
  158MOL0     O21254  11.415  10.367   8.067  0.5380 -0.3826  0.1125
  158MOL0     C21255  11.503  10.350   8.172 -0.4089 -0.2357  0.7940
  158MOL0     C21256  11.486  10.203   8.227  0.2403  0.3151 -0.4964
  158MOL0     C21257  11.476  10.084   8.136  0.9107  0.2233 -0.4908
  158MOL0     C21258  11.572  10.085   8.026 -0.4447  0.2954 -0.6794
  158MOL0     C21259  11.591   9.950   7.963  0.6236 -0.3319 -0.2527
  158MOL0     C21260  11.576   9.842   7.904  0.3481 -0.9790 -0.7681
  158MOL0     C21261  11.213  10.422   7.973 -0.0011 -0.1019  0.0946
  158MOL0     C21262  11.066  10.440   7.980 -0.2427 -0.5531  0.2439
  158MOL0     H21263  10.623  10.277   8.375  0.3261  0.2193  2.1735
  158MOL0     H21264  10.374  10.317   8.412  1.8726 -2.6825 -0.4610
  158MOL0     H21265  10.198  10.677   8.223  0.8346 -0.3708  1.0257
  158MOL0     H21266  10.126  10.560   8.123  0.4525  0.1539  0.8083
  158MOL0     H21267   9.975  10.500   8.322  2.5588 -0.1014  3.8186
  158MOL0     H21268  10.058  10.627   8.408  0.4525 -2.3373  1.0241
  158MOL0     H21269   9.983  10.794   8.266  0.9229 -0.1050 -0.8307
  158MOL0     H21270   9.895  10.691   8.153 -0.5322  0.5273 -0.3360
  158MOL0     H21271   9.722  10.640   8.327  1.0220  0.1052 -3.6128
  158MOL0     H21272   9.807  10.722   8.452 -2.2021 -2.2072  0.5523
  158MOL0     H21273   9.793  10.935   8.316  1.0136 -0.5425  0.7690
  158MOL0     H21274   9.705  10.845   8.186  2.8446 -1.2270 -0.4537
  158MOL0     H21275   9.506  10.892   8.309 -0.9555  0.1205  0.8405
  158MOL0     H21276   9.559  10.758   8.396  0.0036 -0.3144  1.1205
  158MOL0     H21277   9.664  10.928   8.560  0.2832 -0.2012  0.1104
  158MOL0     H21278   9.611  11.064   8.450 -0.1747 -1.4418 -2.0009
  158MOL0     H21279   9.478  11.014   8.657 -1.1891 -2.1281  1.3596
  158MOL0     H21280   9.426  10.861   8.599  1.4717 -0.2114  1.5994
  158MOL0     H21281   9.315  11.207   8.602 -1.5089 -0.2105 -0.2432
  158MOL0     H21282   8.970  11.208   8.472 -1.5698  2.8685 -3.0970
  158MOL0     H21283   9.093  11.326   8.532 -1.2271  1.8215  0.5161
  158MOL0     H21284   9.046  11.241   8.235  2.4193 -1.6340  1.1176
  158MOL0     H21285   9.153  11.364   8.291  0.9887 -0.0652 -0.5853
  158MOL0     H21286   8.838  11.354   8.310  1.4780 -1.7412 -1.1603
  158MOL0     H21287   8.928  11.459   8.200 -2.3182  1.3653 -0.4044
  158MOL0     H21288   8.867  11.601   8.355 -0.7126 -1.3629 -1.3508
  158MOL0     H21289   9.035  11.556   8.407  0.6923 -1.1229  0.8671
  158MOL0     H21290   8.829  11.337   8.702 -0.6360 -1.6031  0.8259
  158MOL0     H21291   8.541  11.155   8.811  1.8184 -2.8687  1.7916
  158MOL0     H21292   8.701  11.203   8.834 -0.7993 -1.7469 -2.8343
  158MOL0     H21293   8.563  11.286   8.919  1.2500 -0.6896  0.8680
  158MOL0     H21294   8.085  11.539   8.691 -0.1285 -0.9367  0.5884
  158MOL0     H21295   7.860  11.473   8.752  0.4745  0.4579  0.7561
  158MOL0     H21296   7.818  11.034   8.749  1.4733  1.1267 -0.1214
  158MOL0     H21297   7.698  11.097   8.861 -1.6817 -0.8150 -0.4778
  158MOL0     H21298   7.643  11.042   8.562  1.5567  2.1588  0.4357
  158MOL0     H21299   7.604  10.934   8.703  3.0987  0.7517  1.7858
  158MOL0     H21300   7.494  11.215   8.630 -2.1438 -1.1505 -0.5447
  158MOL0     H21301   7.461  11.135   8.785  0.0310  0.9283  0.9200
  158MOL0     H21302   7.388  11.037   8.498  2.2573  0.0329  0.6615
  158MOL0     H21303   7.380  10.924   8.635  1.3909 -1.5669 -1.6583
  158MOL0     H21304   7.218  11.172   8.596  1.2108 -1.8744 -2.7452
  158MOL0     H21305   7.237  11.095   8.755  1.1021 -0.1299  0.7871
  158MOL0     H21306   7.154  10.947   8.507  1.4921 -0.8498  0.0155
  158MOL0     H21307   7.148  10.892   8.678  0.7450 -0.6872 -0.7844
  158MOL0     H21308   6.981  11.075   8.726  0.2064  3.3231 -1.4598
  158MOL0     H21309   6.919  10.955   8.606 -0.5577  0.1731 -1.2136
  158MOL0     H21310   6.963  11.089   8.430 -0.1149  0.2857 -0.7985
  158MOL0     H21311   7.011  11.234   8.538 -0.9069  1.5083 -1.1713
  158MOL0     H21312   7.942  11.081   8.566  0.1735  0.0145 -1.1497
  158MOL0     H21313   8.173  11.159   8.521  1.5858  1.3053  1.5449
  158MOL0     H21314   8.443  11.544   8.473 -0.3336 -1.0750 -0.9526
  158MOL0     H21315   8.641  11.590   8.414  1.4037 -1.1596 -0.8586
  158MOL0     H21316  10.392  10.634   8.118 -4.1066 -1.2831  0.4948
  158MOL0     H21317  10.640  10.618   8.115  1.6859 -0.6760  0.1134
  158MOL0     H21318  11.025  10.407   8.319 -0.4997  0.3636 -0.0422
  158MOL0     H21319  11.262  10.370   8.316  2.3947  1.3824 -0.5276
  158MOL0     H21320  11.603  10.371   8.132 -0.6957 -0.5261 -0.1031
  158MOL0     H21321  11.480  10.433   8.238  1.9645  2.3516 -1.3951
  158MOL0     H21322  11.392  10.204   8.285 -0.2031 -2.3304 -1.0314
  158MOL0     H21323  11.560  10.182   8.305 -0.5454 -0.9945 -0.0762
  158MOL0     H21324  11.374  10.073   8.098  0.9470 -1.7482 -0.1611
  158MOL0     H21325  11.503   9.993   8.191  2.1582  0.0171 -1.4052
  158MOL0     H21326  11.671  10.105   8.067 -0.5667 -0.9460  0.2924
  158MOL0     H21327  11.550  10.148   7.939  0.3166  1.1895 -0.2411
  158MOL0     H21328  11.584   9.747   7.855  0.6019 -0.8624 -0.9570
  158MOL0     H21329  11.268  10.423   7.879 -1.5542 -1.6293 -0.8665
  158MOL0     H21330  11.005  10.453   7.891  0.0897  1.0178  0.2052
  159MOL0     O21331  10.198   3.611   9.190 -0.3161 -1.1513 -0.3502
  159MOL0     C21332  10.252   3.665   9.096  0.0593  0.5279  0.9811
  159MOL0     O21333  10.192   3.728   8.990 -0.0219  0.2280 -0.5969
  159MOL0     C21334  10.060   3.711   8.992 -0.5476 -0.1460 -0.9218
  159MOL0     C21335   9.976   3.807   9.060  0.0949  0.0157 -0.0647
  159MOL0     C21336   9.842   3.778   9.071 -0.3250 -0.0266 -0.0085
  159MOL0     C21337   9.794   3.666   9.004  0.1365  1.0045 -0.0648
  159MOL0     O21338   9.663   3.640   9.030  0.3550  0.2924 -0.8134
  159MOL0     C21339   9.596   3.534   8.972  0.2144  0.0851  0.1708
  159MOL0     C21340   9.455   3.551   9.006  0.3547  0.3815  0.4853
  159MOL0     C21341   9.364   3.483   8.907 -1.0433 -0.3844  0.8596
  159MOL0     C21342   9.220   3.480   8.953  0.2972  0.9585 -0.2866
  159MOL0     C21343   9.144   3.380   8.867  0.4198  0.1074  0.5459
  159MOL0     C21344   8.996   3.398   8.893  0.3261 -0.8375 -0.3840
  159MOL0     C21345   8.905   3.294   8.846 -0.2133  0.5169 -0.3242
  159MOL0     C21346   8.875   3.316   8.695 -0.0538  0.6980  0.7772
  159MOL0     N21347   8.761   3.221   8.667 -0.3716 -0.4488  0.0472
  159MOL0     C21348   8.764   3.099   8.604 -0.5794 -0.4421 -0.4901
  159MOL0     C21349   8.636   3.068   8.582 -0.1575 -0.2980  0.0671
  159MOL0     C21350   8.579   2.952   8.506  1.0357 -0.3488 -0.3368
  159MOL0     C21351   8.429   2.943   8.519 -0.1068  0.3150 -0.5247
  159MOL0     C21352   8.379   2.819   8.441  0.3829 -0.0506  0.2286
  159MOL0     C21353   8.237   2.789   8.479 -0.5478 -0.0929 -0.1031
  159MOL0     O21354   8.192   2.681   8.395  0.2505  0.1687  0.3083
  159MOL0     C21355   8.061   2.649   8.379  0.4056  1.0801 -0.3868
  159MOL0     C21356   7.968   2.700   8.464  0.6957  0.5304  0.1176
  159MOL0     C21357   7.829   2.662   8.463 -0.4239  1.2994  1.0027
  159MOL0     C21358   7.737   2.721   8.570 -0.3706 -1.3135 -0.4497
  159MOL0     C21359   7.785   2.572   8.363 -0.0778 -0.2877  0.4314
  159MOL0     C21360   7.647   2.534   8.349 -0.1046  0.6497  0.2090
  159MOL0     O21361   7.585   2.488   8.463  0.1162 -0.7706  0.2224
  159MOL0     C21362   7.450   2.447   8.455 -0.4771 -0.3880  0.2228
  159MOL0     C21363   7.356   2.507   8.545 -0.0930  0.4727  0.4293
  159MOL0     C21364   7.219   2.473   8.541 -0.4749  0.3739 -0.1959
  159MOL0     C21365   7.178   2.388   8.437  0.1126  0.4236 -0.0494
  159MOL0     O21366   7.045   2.352   8.438  0.2629  0.0209 -0.6583
  159MOL0     C21367   7.011   2.232   8.360  0.3258 -0.4046  0.7631
  159MOL0     C21368   6.874   2.184   8.418 -0.2176 -0.1887  0.3264
  159MOL0     C21369   6.806   2.090   8.319  0.6832  0.1135 -0.3958
  159MOL0     C21370   6.663   2.043   8.362 -0.2824  0.3778  0.1946
  159MOL0     C21371   6.609   1.963   8.253 -0.0100 -1.2489 -0.2066
  159MOL0     C21372   6.458   1.938   8.284  0.6811 -0.6077 -0.3077
  159MOL0     C21373   6.450   1.793   8.335  0.1434 -0.2161  0.9973
  159MOL0     C21374   6.313   1.744   8.388  0.2406 -0.4438 -0.7288
  159MOL0    Cl21375   6.308   1.586   8.479 -0.2024 -0.2198 -0.1312
  159MOL0     C21376   7.270   2.324   8.356  0.2461 -0.8114 -0.2343
  159MOL0     C21377   7.402   2.350   8.369 -0.5590 -0.6078 -0.1303
  159MOL0     O21378   7.599   2.541   8.236 -0.1495  0.6267 -0.0460
  159MOL0     C21379   7.877   2.531   8.260 -0.7382  0.8069  0.7654
  159MOL0     C21380   8.015   2.558   8.276 -0.6604 -0.6944 -1.1215
  159MOL0     N21381   8.564   3.181   8.617  0.4991 -0.9069  0.1210
  159MOL0     N21382   8.637   3.264   8.668  0.1261 -0.9073  0.3082
  159MOL0     C21383   9.874   3.574   8.933  0.2241  0.3816  0.4416
  159MOL0     C21384  10.006   3.600   8.927  0.0432 -0.0768  0.1718
  159MOL0     C21385  10.398   3.675   9.099 -0.4340 -0.1920  0.8137
  159MOL0     C21386  10.469   3.671   9.218  0.5925 -0.1522  0.4324
  159MOL0     C21387  10.605   3.695   9.219  0.2946  0.5397  0.2412
  159MOL0     C21388  10.674   3.719   9.098 -1.0252 -0.8057  0.6157
  159MOL0     O21389  10.815   3.736   9.099  0.8574  0.3645 -0.2499
  159MOL0     C21390  10.885   3.611   9.119  0.9201 -0.0842 -0.2236
  159MOL0     C21391  10.989   3.602   9.225  0.3222  1.0749 -0.5636
  159MOL0     C21392  11.122   3.652   9.170 -1.0786  0.9648  0.2197
  159MOL0     C21393  11.226   3.675   9.283 -0.1138 -0.9549 -0.7251
  159MOL0     C21394  11.366   3.684   9.243  1.2605  0.4313 -0.2949
  159MOL0     C21395  11.477   3.680   9.218  0.5837 -0.6696  1.2386
  159MOL0     C21396  10.608   3.722   8.977  0.6282 -0.1212 -0.2725
  159MOL0     C21397  10.469   3.705   8.981  0.3148 -0.5277  0.2177
  159MOL0     H21398  10.015   3.888   9.120  2.7050 -1.5734  0.5571
  159MOL0     H21399   9.784   3.847   9.132  0.3833 -0.5306  1.2574
  159MOL0     H21400   9.605   3.537   8.863 -0.1769 -3.4925 -0.0763
  159MOL0     H21401   9.616   3.432   9.005  0.5679 -0.6915 -2.2428
  159MOL0     H21402   9.427   3.513   9.105 -0.8656  0.8756  0.3427
  159MOL0     H21403   9.431   3.657   8.997 -2.8231 -0.2885  0.0898
  159MOL0     H21404   9.367   3.529   8.808  2.5600 -3.1509 -0.5528
  159MOL0     H21405   9.398   3.380   8.891  0.7857  0.0638  1.5998
  159MOL0     H21406   9.216   3.440   9.055 -1.0605 -2.8005 -1.6507
  159MOL0     H21407   9.175   3.579   8.947 -0.4223  0.6374 -0.2581
  159MOL0     H21408   9.153   3.400   8.760  2.3019  1.5258  0.9109
  159MOL0     H21409   9.176   3.278   8.889 -5.3574 -1.4391  3.9228
  159MOL0     H21410   8.988   3.399   9.002  0.3816  0.1124 -0.3758
  159MOL0     H21411   8.955   3.497   8.870  1.8550 -0.6451 -2.6212
  159MOL0     H21412   8.960   3.200   8.852  2.1176  1.5982 -2.6357
  159MOL0     H21413   8.813   3.299   8.905 -0.8623  1.4601 -1.3847
  159MOL0     H21414   8.956   3.296   8.625 -0.6592 -0.9798  0.5179
  159MOL0     H21415   8.842   3.418   8.674  0.3902  0.6671 -0.0854
  159MOL0     H21416   8.847   3.031   8.586 -1.8998 -1.9857 -0.9985
  159MOL0     H21417   8.606   2.969   8.401 -3.5598 -1.3582 -1.9453
  159MOL0     H21418   8.619   2.854   8.532  0.7333 -0.4469 -0.2404
  159MOL0     H21419   8.370   3.032   8.495 -2.2964 -0.5838  1.2557
  159MOL0     H21420   8.414   2.933   8.627  0.1460  1.0246 -0.4164
  159MOL0     H21421   8.436   2.728   8.462  0.5617 -0.7558 -2.8917
  159MOL0     H21422   8.390   2.835   8.334 -0.4190 -2.9699 -0.3624
  159MOL0     H21423   8.173   2.877   8.466  1.1728  0.8836 -2.5854
  159MOL0     H21424   8.241   2.749   8.581 -0.7568  0.6619  0.2052
  159MOL0     H21425   7.996   2.782   8.529  0.1249  1.7982 -1.1882
  159MOL0     H21426   7.794   2.785   8.638  0.5159 -0.4344 -1.9650
  159MOL0     H21427   7.672   2.791   8.516 -0.7140 -0.9220  0.4564
  159MOL0     H21428   7.687   2.647   8.632  1.8725 -0.9294  2.0117
  159MOL0     H21429   7.389   2.574   8.624  1.5952 -1.3524  1.3608
  159MOL0     H21430   7.137   2.509   8.602 -1.3987 -1.4495 -0.2948
  159MOL0     H21431   7.004   2.266   8.256 -2.5417 -4.2655 -0.5428
  159MOL0     H21432   7.078   2.145   8.357  0.2624 -0.4295 -1.1182
  159MOL0     H21433   6.886   2.141   8.518  0.1519 -1.2948 -0.1718
  159MOL0     H21434   6.811   2.272   8.425  0.7380  0.8849 -2.7104
  159MOL0     H21435   6.857   1.993   8.314 -0.9100 -0.8055  0.4371
  159MOL0     H21436   6.810   2.126   8.216  2.0720 -1.0806 -0.8068
  159MOL0     H21437   6.667   1.988   8.456 -1.3368 -0.8856 -0.4663
  159MOL0     H21438   6.599   2.133   8.364  0.7580  1.1944 -1.3145
  159MOL0     H21439   6.643   1.859   8.247 -2.9074 -2.5947  3.1169
  159MOL0     H21440   6.628   2.024   8.164  2.2315  0.7554  1.5108
  159MOL0     H21441   6.425   1.998   8.369 -1.9621 -0.7827 -1.1010
  159MOL0     H21442   6.393   1.969   8.202 -0.5200 -0.7336  0.5727
  159MOL0     H21443   6.526   1.769   8.410 -0.3092  0.3732  1.6581
  159MOL0     H21444   6.477   1.733   8.248 -1.5448  0.2544  0.1111
  159MOL0     H21445   6.236   1.722   8.314 -0.9722 -1.0810  0.6631
  159MOL0     H21446   6.280   1.816   8.463 -1.8907 -2.0164 -0.0355
  159MOL0     H21447   7.245   2.256   8.275 -0.2831 -0.9867  0.0705
  159MOL0     H21448   7.461   2.300   8.292 -1.8304 -0.2809 -1.3652
  159MOL0     H21449   7.852   2.475   8.171  0.3995  2.0475 -0.3831
  159MOL0     H21450   8.090   2.512   8.212  2.7380 -0.3881  2.2748
  159MOL0     H21451   9.839   3.482   8.887  0.2397  0.5986 -0.0110
  159MOL0     H21452  10.078   3.528   8.887  0.0492 -0.4320  0.8149
  159MOL0     H21453  10.422   3.647   9.312  1.7629 -1.2147  0.7809
  159MOL0     H21454  10.658   3.702   9.314  0.1282 -0.1817  0.3913
  159MOL0     H21455  10.811   3.530   9.126  1.2945 -0.8759 -3.7760
  159MOL0     H21456  10.929   3.592   9.021 -1.8805  3.3998 -2.4205
  159MOL0     H21457  10.985   3.494   9.241 -1.7246  1.1913  0.0641
  159MOL0     H21458  10.951   3.656   9.313 -3.0561 -0.9989 -0.5619
  159MOL0     H21459  11.112   3.746   9.115  1.0290  0.2722 -1.5165
  159MOL0     H21460  11.159   3.575   9.102  0.9925 -2.3614  4.5854
  159MOL0     H21461  11.210   3.593   9.354  1.4173 -1.3588 -0.8248
  159MOL0     H21462  11.201   3.769   9.334 -1.8854 -2.2489  0.9447
  159MOL0     H21463  11.577   3.663   9.185  0.4092  0.5820 -0.0782
  159MOL0     H21464  10.648   3.739   8.877 -0.9583  2.5671 -0.5537
  159MOL0     H21465  10.405   3.707   8.894  1.3381 -1.1520 -0.5717
  160MOL0     O21466   3.398   7.553   9.042 -0.0729  0.1064 -0.2422
  160MOL0     C21467   3.406   7.524   8.924 -0.9912 -0.5055  0.2670
  160MOL0     O21468   3.321   7.549   8.824 -0.0235  0.0220 -0.2108
  160MOL0     C21469   3.197   7.605   8.854  0.4298  0.9915 -0.3718
  160MOL0     C21470   3.087   7.530   8.825 -0.1288  0.3982 -0.2057
  160MOL0     C21471   2.956   7.582   8.860 -0.6564 -0.3848 -0.0373
  160MOL0     C21472   2.950   7.714   8.919  1.0116 -0.4479  0.8661
  160MOL0     O21473   2.833   7.790   8.944 -0.4728  0.5790  0.1301
  160MOL0     C21474   2.716   7.765   8.867  0.1521 -0.5189  0.2726
  160MOL0     C21475   2.600   7.731   8.964 -0.3413  0.2251  0.0938
  160MOL0     C21476   2.493   7.645   8.899 -0.2195 -0.1347 -0.1086
  160MOL0     C21477   2.412   7.731   8.806  0.0989  0.3524 -0.0211
  160MOL0     C21478   2.286   7.663   8.754 -0.1253  0.3354 -0.7126
  160MOL0     C21479   2.221   7.757   8.654  0.4088  0.5221 -0.2497
  160MOL0     C21480   2.156   7.671   8.552  0.0627  0.1392 -0.6118
  160MOL0     C21481   2.065   7.749   8.461 -0.3458 -0.3582  0.4383
  160MOL0     N21482   1.972   7.845   8.527 -0.5061 -0.0910 -0.2464
  160MOL0     C21483   1.895   7.809   8.643 -0.6332  0.3506  0.2454
  160MOL0     C21484   1.815   7.917   8.655 -0.2161 -0.7431 -0.7492
  160MOL0     C21485   1.694   7.927   8.743  0.6766  0.0394  0.2963
  160MOL0     C21486   1.595   7.809   8.725  0.1274  0.0559  0.3326
  160MOL0     C21487   1.517   7.810   8.592  0.0129 -0.6082  0.5135
  160MOL0     C21488   1.424   7.930   8.551 -0.0440  0.3511  0.2311
  160MOL0     O21489   1.326   7.956   8.653 -0.0037  0.1586  0.3965
  160MOL0     C21490   1.225   8.040   8.615  0.4912  0.5005  0.1403
  160MOL0     C21491   1.228   8.127   8.507 -1.0509 -0.6012  0.3253
  160MOL0     C21492   1.124   8.214   8.466 -0.4804 -0.2107 -0.3708
  160MOL0     C21493   1.151   8.306   8.337 -0.2146  0.1696 -0.0042
  160MOL0     C21494   1.006   8.207   8.546 -0.4244 -1.7513  0.6159
  160MOL0     C21495   0.886   8.291   8.524  0.1483  1.1922 -0.7239
  160MOL0     O21496   0.772   8.261   8.595 -0.1170  0.9437 -0.0581
  160MOL0     C21497   0.668   8.357   8.589 -1.1204  0.1078 -0.6495
  160MOL0     C21498   0.608   8.395   8.467  0.2853  0.4415  0.3959
  160MOL0     C21499   0.512   8.502   8.466  0.1807 -0.3781  0.8173
  160MOL0     C21500   0.457   8.549   8.581  0.4336 -0.0299 -0.9069
  160MOL0     O21501   0.359   8.647   8.565  0.2487 -0.0354  0.1038
  160MOL0     C21502   0.317   8.712   8.684  1.0545 -0.4462 -0.0802
  160MOL0     C21503   0.199   8.805   8.644 -0.3744 -0.8692 -0.2059
  160MOL0     C21504   0.074   8.746   8.576  0.0715 -0.0773 -0.4894
  160MOL0     C21505  -0.061   8.828   8.609 -0.5663 -0.0444  0.4523
  160MOL0     C21506  -0.184   8.769   8.534  0.1368 -0.1770  1.1600
  160MOL0     C21507  -0.304   8.789   8.624  0.3605  0.0912  0.6046
  160MOL0     C21508  -0.325   8.933   8.672  1.1513  0.0182  0.4526
  160MOL0     C21509  -0.463   8.934   8.740  0.1939  0.7042 -0.1894
  160MOL0    Cl21510  -0.526   9.095   8.790  0.3816  0.0992 -0.3942
  160MOL0     C21511   0.518   8.514   8.703  0.1374  0.8140  0.6951
  160MOL0     C21512   0.620   8.418   8.703  0.1177 -0.0959 -0.6991
  160MOL0     O21513   0.885   8.360   8.420  0.6572  0.3384 -0.6862
  160MOL0     C21514   1.004   8.123   8.660 -0.1332  0.1211  0.7250
  160MOL0     C21515   1.110   8.040   8.687  0.0455  0.3180 -0.9106
  160MOL0     N21516   1.850   8.018   8.573  0.6669  0.9464 -0.0347
  160MOL0     N21517   1.944   7.977   8.492  0.3933  0.3314 -0.3520
  160MOL0     C21518   3.066   7.776   8.955  0.2058 -0.2850  0.3286
  160MOL0     C21519   3.188   7.729   8.912  0.3084 -1.1564  0.0157
  160MOL0     C21520   3.534   7.453   8.883 -0.3103 -0.5860  0.1317
  160MOL0     C21521   3.568   7.446   8.744 -0.1897 -0.5941  0.2716
  160MOL0     C21522   3.691   7.383   8.701  0.2219 -0.8342  0.2810
  160MOL0     C21523   3.771   7.320   8.799  0.2311  0.1341  0.0916
  160MOL0     O21524   3.876   7.245   8.760 -0.6994  0.6976  0.5367
  160MOL0     C21525   3.943   7.283   8.639  0.6731 -0.7567  0.3669
  160MOL0     C21526   4.069   7.204   8.619  0.6187  0.3901  0.7107
  160MOL0     C21527   4.202   7.269   8.641 -0.8244 -0.4819 -0.2845
  160MOL0     C21528   4.313   7.176   8.687 -0.1623  1.2510 -0.4295
  160MOL0     C21529   4.312   7.061   8.605  0.0283 -0.6277 -0.2754
  160MOL0     C21530   4.322   6.964   8.533 -0.6536  0.3249  0.3234
  160MOL0     C21531   3.725   7.316   8.927 -0.0107 -0.2849 -0.3938
  160MOL0     C21532   3.612   7.376   8.967 -0.1909 -0.0285  0.6801
  160MOL0     H21533   3.103   7.437   8.772  2.7660  0.7735 -0.1354
  160MOL0     H21534   2.870   7.518   8.844 -0.1523 -1.7889  2.2881
  160MOL0     H21535   2.688   7.858   8.816  1.0387 -0.6717 -0.5136
  160MOL0     H21536   2.740   7.688   8.793  1.0749 -0.5603  0.6049
  160MOL0     H21537   2.643   7.675   9.047 -0.6761  0.3368  0.3440
  160MOL0     H21538   2.559   7.823   9.008 -1.8634 -1.4961  2.5100
  160MOL0     H21539   2.549   7.562   8.855 -4.4369 -3.3618 -0.0677
  160MOL0     H21540   2.434   7.607   8.983 -0.1963  0.2480  0.0833
  160MOL0     H21541   2.377   7.814   8.866 -0.9002 -0.5819  0.7215
  160MOL0     H21542   2.470   7.756   8.717 -3.6016 -0.5243 -2.9325
  160MOL0     H21543   2.324   7.572   8.707 -2.2931 -1.1288  0.2265
  160MOL0     H21544   2.207   7.643   8.827 -0.0549  1.9291 -0.1665
  160MOL0     H21545   2.150   7.815   8.713  1.1842  2.4294 -1.1094
  160MOL0     H21546   2.296   7.824   8.612 -2.4672  4.4641  0.4021
  160MOL0     H21547   2.236   7.620   8.499  1.3922 -1.9750  3.0448
  160MOL0     H21548   2.096   7.595   8.603 -0.5993  0.5402 -0.7767
  160MOL0     H21549   2.023   7.676   8.391  4.1573 -1.6975 -1.2123
  160MOL0     H21550   2.130   7.799   8.388 -0.7974 -1.2820 -0.6199
  160MOL0     H21551   1.898   7.717   8.700 -0.1480  0.4834  0.4347
  160MOL0     H21552   1.714   7.937   8.850 -0.9849 -2.0410  0.8716
  160MOL0     H21553   1.645   8.022   8.721 -2.5657 -1.7503 -0.7726
  160MOL0     H21554   1.539   7.799   8.819  1.2664  2.5723  1.3672
  160MOL0     H21555   1.656   7.719   8.733 -0.3315 -0.1155  2.9887
  160MOL0     H21556   1.458   7.719   8.587  0.5816 -1.0527  1.5963
  160MOL0     H21557   1.598   7.803   8.519  0.1588  1.9242  0.3180
  160MOL0     H21558   1.367   7.910   8.460 -1.8060  2.6303  0.7386
  160MOL0     H21559   1.481   8.020   8.524 -2.6026  1.5351 -1.6875
  160MOL0     H21560   1.323   8.139   8.456  0.6476 -2.3670  2.7798
  160MOL0     H21561   1.166   8.410   8.368 -0.4951  0.4348 -0.7462
  160MOL0     H21562   1.227   8.268   8.268 -1.1096  0.0395 -0.9378
  160MOL0     H21563   1.055   8.304   8.284 -0.7868  0.4104  0.9790
  160MOL0     H21564   0.628   8.365   8.365  0.0545  1.6143 -0.0119
  160MOL0     H21565   0.471   8.543   8.374  1.9674  3.0549  1.3895
  160MOL0     H21566   0.276   8.643   8.758  0.7579 -0.5638 -0.3494
  160MOL0     H21567   0.384   8.782   8.734 -0.7955 -0.1513  2.1556
  160MOL0     H21568   0.181   8.858   8.738 -0.4087 -0.5256 -0.4026
  160MOL0     H21569   0.221   8.880   8.568 -2.3932 -1.8365 -1.8316
  160MOL0     H21570   0.065   8.646   8.618  0.2687 -0.3617 -1.1116
  160MOL0     H21571   0.103   8.734   8.472 -3.0627  0.9325 -1.5891
  160MOL0     H21572  -0.072   8.838   8.717 -0.9958  0.2950  0.3765
  160MOL0     H21573  -0.055   8.933   8.577  0.7019 -0.6982 -1.7116
  160MOL0     H21574  -0.169   8.664   8.507  3.5582 -0.5490  3.8556
  160MOL0     H21575  -0.204   8.819   8.439 -2.0584 -0.4259  1.4190
  160MOL0     H21576  -0.391   8.751   8.568 -1.3256  1.6676  2.0116
  160MOL0     H21577  -0.304   8.718   8.707  0.5057 -0.9086 -0.2371
  160MOL0     H21578  -0.335   9.002   8.588  0.8587 -1.8549 -1.1359
  160MOL0     H21579  -0.252   8.966   8.745  0.8084  1.7052  0.0638
  160MOL0     H21580  -0.459   8.871   8.829 -1.7143  2.0641  0.9331
  160MOL0     H21581  -0.531   8.896   8.663  1.9017 -0.1792 -1.3238
  160MOL0     H21582   0.487   8.549   8.801  1.2116 -0.3504  1.4903
  160MOL0     H21583   0.666   8.399   8.800 -0.5701  2.6566  0.2499
  160MOL0     H21584   0.918   8.115   8.725  0.4300  1.4625  1.6562
  160MOL0     H21585   1.110   7.969   8.769  2.0812 -1.9103 -2.6776
  160MOL0     H21586   3.069   7.876   8.998 -0.1755 -1.4377  3.2478
  160MOL0     H21587   3.276   7.785   8.941  0.6977 -0.4835 -2.3092
  160MOL0     H21588   3.500   7.482   8.667  1.6763 -0.2822 -1.3152
  160MOL0     H21589   3.702   7.392   8.594 -0.1381  0.5778  0.3445
  160MOL0     H21590   3.879   7.274   8.550 -0.6072  0.2971  1.1242
  160MOL0     H21591   3.955   7.392   8.646  0.3209 -0.5698 -1.2840
  160MOL0     H21592   4.062   7.182   8.512 -2.5892  3.9850 -0.0708
  160MOL0     H21593   4.070   7.109   8.672  0.1353  0.8889  1.6440
  160MOL0     H21594   4.201   7.346   8.719 -0.9935  0.3396 -1.0811
  160MOL0     H21595   4.233   7.319   8.549  0.9604 -3.3557 -1.3834
  160MOL0     H21596   4.279   7.136   8.783  1.1585 -2.1488 -1.2316
  160MOL0     H21597   4.414   7.217   8.686  1.0247 -1.4770 -0.3240
  160MOL0     H21598   4.326   6.885   8.460 -0.0419 -0.6292  1.3708
  160MOL0     H21599   3.781   7.247   8.988  0.7601  1.4109  0.8975
  160MOL0     H21600   3.574   7.363   9.068 -0.3302  0.9315  0.7643
  161MOL0     O21601   9.317  10.676   0.467 -0.1991  0.1044 -0.6492
  161MOL0     C21602   9.307  10.752   0.568  0.5311  0.1877 -0.1719
  161MOL0     O21603   9.187  10.784   0.617  0.1188  0.0339  0.1508
  161MOL0     C21604   9.066  10.782   0.543 -0.0590  0.0094  0.1761
  161MOL0     C21605   9.074  10.809   0.409 -0.3821 -0.4182 -0.3768
  161MOL0     C21606   8.959  10.842   0.334 -0.0193  0.0893  0.3713
  161MOL0     C21607   8.834  10.833   0.388 -0.0930  0.7404 -0.0084
  161MOL0     O21608   8.714  10.869   0.327 -0.0481  0.3734  0.9003
  161MOL0     C21609   8.715  10.908   0.190 -0.5375 -0.3160  0.1264
  161MOL0     C21610   8.584  10.964   0.151  0.0295 -0.3712  0.1556
  161MOL0     C21611   8.463  10.890   0.219  0.6754  0.4578  0.8567
  161MOL0     C21612   8.340  10.950   0.165  0.8066  0.7904  0.5702
  161MOL0     C21613   8.216  10.871   0.202  0.2438 -0.2168 -0.3759
  161MOL0     C21614   8.089  10.954   0.187 -0.0357  0.2695 -0.2313
  161MOL0     C21615   7.968  10.884   0.246 -0.1997 -0.3316 -0.8951
  161MOL0     C21616   7.842  10.974   0.256  0.1034 -0.6804  0.1986
  161MOL0     N21617   7.723  10.896   0.302 -0.0465 -0.0511  0.4193
  161MOL0     C21618   7.599  10.928   0.258 -0.2610  1.1412  0.2837
  161MOL0     C21619   7.518  10.840   0.313 -0.2772 -0.4366 -0.5701
  161MOL0     C21620   7.374  10.861   0.300 -0.2632  0.3213  0.7661
  161MOL0     C21621   7.296  10.866   0.429 -0.1234  0.0342 -0.2490
  161MOL0     C21622   7.303  11.006   0.483 -0.3315 -0.2471  0.2258
  161MOL0     C21623   7.171  11.045   0.562  0.8688 -0.3006 -0.0141
  161MOL0     O21624   7.062  11.073   0.465  0.5876 -0.6019  0.2176
  161MOL0     C21625   6.943  11.118   0.520 -0.8003 -0.2287 -0.2133
  161MOL0     C21626   6.885  11.077   0.644  0.2282 -0.4393 -0.1084
  161MOL0     C21627   6.761  11.121   0.685 -0.9070 -0.0026  0.6154
  161MOL0     C21628   6.703  11.042   0.805  0.0242  0.5697  0.3636
  161MOL0     C21629   6.699  11.227   0.607  0.4944  0.2304  0.2324
  161MOL0     C21630   6.580  11.298   0.646 -0.6592 -1.0780 -0.0785
  161MOL0     O21631   6.503  11.351   0.549 -0.4425  0.9316  0.6185
  161MOL0     C21632   6.380  11.390   0.577  0.3955  0.7307  0.0725
  161MOL0     C21633   6.344  11.498   0.492 -0.1608 -0.8826 -0.2015
  161MOL0     C21634   6.215  11.543   0.484  0.3046  0.2781 -0.4434
  161MOL0     C21635   6.115  11.483   0.568 -0.4212 -0.4105  0.2716
  161MOL0     O21636   5.987  11.541   0.550 -0.6423  0.5625 -0.6859
  161MOL0     C21637   5.876  11.470   0.620 -0.0885 -0.2105  0.5887
  161MOL0     C21638   5.759  11.564   0.643  0.1085 -0.4553  0.3115
  161MOL0     C21639   5.644  11.504   0.729 -0.1110  0.1523  0.6501
  161MOL0     C21640   5.526  11.605   0.733  0.3320 -0.0522 -1.2059
  161MOL0     C21641   5.433  11.562   0.852 -0.4962  0.5318 -0.9052
  161MOL0     C21642   5.311  11.656   0.851 -0.7498  0.4305 -0.2800
  161MOL0     C21643   5.206  11.625   0.961 -0.8122  0.7294 -0.2812
  161MOL0     C21644   5.094  11.732   0.970 -0.3428 -0.3490  0.3938
  161MOL0    Cl21645   5.147  11.885   1.044  0.4114 -0.2087 -0.0963
  161MOL0     C21646   6.151  11.381   0.662 -0.5924  0.0864  0.5062
  161MOL0     C21647   6.279  11.329   0.656  0.5612 -0.4359 -0.1607
  161MOL0     O21648   6.553  11.296   0.763 -0.0536 -0.5520 -0.2104
  161MOL0     C21649   6.758  11.272   0.484 -0.2958 -0.8215 -0.0387
  161MOL0     C21650   6.882  11.213   0.443 -0.1998 -0.3888 -0.4772
  161MOL0     N21651   7.585  10.750   0.391 -0.0861 -0.7709 -0.4527
  161MOL0     N21652   7.710  10.787   0.380  0.0153 -0.4065  0.0958
  161MOL0     C21653   8.826  10.796   0.523 -0.0637  0.7272  0.5753
  161MOL0     C21654   8.940  10.771   0.600 -0.2752  0.4032 -0.2609
  161MOL0     C21655   9.430  10.802   0.620 -0.8560  0.3755 -0.6932
  161MOL0     C21656   9.429  10.891   0.727 -0.1818 -0.4897 -0.2893
  161MOL0     C21657   9.549  10.943   0.787  0.2910 -0.0829  0.6416
  161MOL0     C21658   9.674  10.900   0.731  0.6742  0.4037  0.8539
  161MOL0     O21659   9.795  10.944   0.769 -0.4955 -0.2691  0.7894
  161MOL0     C21660   9.806  11.012   0.897 -0.7223  0.3541  1.0520
  161MOL0     C21661   9.807  10.915   1.010  0.7058 -0.7505 -0.3333
  161MOL0     C21662   9.934  10.840   1.012 -0.0617 -0.0927  0.0761
  161MOL0     C21663   9.928  10.746   1.123 -0.6369  0.3117  0.1210
  161MOL0     C21664  10.044  10.665   1.132 -1.6649  0.8163  1.0586
  161MOL0     C21665  10.149  10.604   1.145 -0.0086 -0.0365 -0.9665
  161MOL0     C21666   9.675  10.801   0.628 -0.2021  0.9179  0.4945
  161MOL0     C21667   9.554  10.756   0.576 -0.1048 -0.1353  0.3636
  161MOL0     H21668   9.165  10.827   0.353  3.7905 -3.7609  4.4353
  161MOL0     H21669   8.965  10.861   0.227 -1.2255 -1.7995 -0.0851
  161MOL0     H21670   8.797  10.980   0.187 -0.4509 -0.2017  2.9933
  161MOL0     H21671   8.746  10.826   0.124  2.2431  0.5534  0.2454
  161MOL0     H21672   8.584  11.069   0.179  1.1800  0.0804 -1.3984
  161MOL0     H21673   8.581  10.970   0.042  2.0925  1.2452  0.1330
  161MOL0     H21674   8.462  10.781   0.213  1.7945  0.5038 -2.8770
  161MOL0     H21675   8.457  10.918   0.324 -4.1148 -1.1592  1.2763
  161MOL0     H21676   8.327  11.054   0.195 -2.6111  0.4258  0.7242
  161MOL0     H21677   8.341  10.942   0.056 -1.9617 -1.4921  0.5893
  161MOL0     H21678   8.201  10.779   0.145 -0.5831 -0.0252 -0.4787
  161MOL0     H21679   8.236  10.839   0.305  0.6494  1.1876  0.0088
  161MOL0     H21680   8.097  11.047   0.243  0.0296 -1.5164  2.9945
  161MOL0     H21681   8.065  10.993   0.088  1.9456  0.4274 -0.6952
  161MOL0     H21682   7.934  10.795   0.191 -1.4545 -2.5134  3.0099
  161MOL0     H21683   7.984  10.854   0.350 -2.0604  2.4954  0.3240
  161MOL0     H21684   7.816  11.015   0.158  1.2680 -1.7937 -0.6150
  161MOL0     H21685   7.855  11.061   0.321  0.3336 -0.7631  0.2669
  161MOL0     H21686   7.565  11.008   0.193 -0.7298 -1.1293 -2.4559
  161MOL0     H21687   7.364  10.955   0.245  0.0200  1.2666  2.2419
  161MOL0     H21688   7.336  10.781   0.237  1.0219  0.8010 -0.6689
  161MOL0     H21689   7.349  10.805   0.503  1.9605  1.8064 -0.1450
  161MOL0     H21690   7.195  10.827   0.416  0.1717 -0.1433 -2.1918
  161MOL0     H21691   7.333  11.075   0.403  3.9520 -1.1418  0.8219
  161MOL0     H21692   7.387  11.019   0.552  2.1299  2.4242 -2.9381
  161MOL0     H21693   7.187  11.140   0.614 -1.8217  0.9510 -1.2803
  161MOL0     H21694   7.142  10.978   0.643 -2.7925 -0.3201 -1.1722
  161MOL0     H21695   6.946  11.014   0.709  0.8793 -1.9277 -2.0648
  161MOL0     H21696   6.594  11.049   0.797  0.1871  2.0580 -1.1752
  161MOL0     H21697   6.732  10.937   0.800 -2.4320 -0.2266  1.2566
  161MOL0     H21698   6.729  11.083   0.903  1.6924  2.3689 -0.7669
  161MOL0     H21699   6.431  11.528   0.435  1.5016 -1.8789  1.7052
  161MOL0     H21700   6.188  11.615   0.408 -0.1604  0.1986 -0.3597
  161MOL0     H21701   5.846  11.387   0.556  3.7949 -0.3738 -1.3086
  161MOL0     H21702   5.912  11.441   0.719  0.8860  0.4928  0.4569
  161MOL0     H21703   5.799  11.651   0.696  0.3821 -0.4101  0.0424
  161MOL0     H21704   5.721  11.610   0.551  1.4340  0.0039 -0.0467
  161MOL0     H21705   5.674  11.486   0.833  0.6080  0.6048  0.5301
  161MOL0     H21706   5.608  11.411   0.685 -0.1703 -0.1312  1.2904
  161MOL0     H21707   5.563  11.707   0.745 -0.0058  0.6819 -5.0820
  161MOL0     H21708   5.471  11.606   0.639  0.1719  0.4804 -1.1097
  161MOL0     H21709   5.487  11.565   0.947  0.4509  0.2325 -1.4194
  161MOL0     H21710   5.397  11.459   0.844 -1.8623  0.6213  2.3720
  161MOL0     H21711   5.354  11.755   0.868  3.8070 -1.1960 -0.7656
  161MOL0     H21712   5.261  11.643   0.755  0.0186 -3.4060 -0.3183
  161MOL0     H21713   5.257  11.611   1.057 -3.7721 -0.7987  1.2194
  161MOL0     H21714   5.158  11.529   0.937 -2.3897  0.8417  2.0682
  161MOL0     H21715   5.010  11.689   1.025 -2.2443  3.5040  0.8849
  161MOL0     H21716   5.046  11.754   0.874 -1.5688 -0.9980  0.8363
  161MOL0     H21717   6.080  11.337   0.731  0.3086  0.2785  1.5925
  161MOL0     H21718   6.299  11.243   0.718 -3.5273 -0.5200  1.2802
  161MOL0     H21719   6.739  11.367   0.435 -0.0944 -0.3012  0.8725
  161MOL0     H21720   6.939  11.239   0.354 -1.9531 -1.2765 -1.9204
  161MOL0     H21721   8.725  10.793   0.563 -1.2332  2.6485 -1.9244
  161MOL0     H21722   8.929  10.755   0.706  2.5095 -2.1261 -0.2331
  161MOL0     H21723   9.328  10.923   0.751 -0.0966  0.8393 -1.5574
  161MOL0     H21724   9.547  10.992   0.884  1.4484 -1.0236  1.1657
  161MOL0     H21725   9.904  11.061   0.890 -0.1497 -1.0088 -3.0435
  161MOL0     H21726   9.732  11.091   0.912  1.5202  2.5202  1.5413
  161MOL0     H21727   9.722  10.846   1.000 -0.6478  0.9457 -1.0339
  161MOL0     H21728   9.791  10.977   1.098 -0.7278  0.5851 -1.4776
  161MOL0     H21729  10.013  10.915   1.020  1.6466 -1.1830 -4.1882
  161MOL0     H21730   9.952  10.786   0.919 -0.6231  0.1123 -0.1576
  161MOL0     H21731   9.843  10.681   1.100 -0.5762 -0.3209  1.5748
  161MOL0     H21732   9.914  10.783   1.225 -2.4677 -1.2304  0.4973
  161MOL0     H21733  10.242  10.550   1.151 -1.4161 -2.7075 -1.7916
  161MOL0     H21734   9.767  10.777   0.575 -0.7092  1.5203 -0.6845
  161MOL0     H21735   9.561  10.686   0.493 -1.1387 -0.4613  0.5444
  162MOL0     O21736   5.215   8.495   1.980  0.1698 -0.0111 -0.1511
  162MOL0     C21737   5.212   8.588   1.902  0.3372  0.7927  0.9166
  162MOL0     O21738   5.322   8.649   1.842  0.7121 -0.0883 -0.2305
  162MOL0     C21739   5.432   8.574   1.836 -0.6786  0.1993 -0.5179
  162MOL0     C21740   5.556   8.611   1.893  0.6071 -0.5528 -0.5604
  162MOL0     C21741   5.671   8.526   1.888  0.3603  0.3855  0.0631
  162MOL0     C21742   5.669   8.400   1.820  0.4385 -0.1847 -0.4098
  162MOL0     O21743   5.779   8.327   1.819 -0.1197  0.0593  0.2467
  162MOL0     C21744   5.786   8.220   1.731  0.3287 -0.9731  0.9587
  162MOL0     C21745   5.729   8.089   1.792 -0.0094 -0.3494 -0.8987
  162MOL0     C21746   5.809   8.029   1.914  0.1200 -0.4045 -0.2087
  162MOL0     C21747   5.922   7.949   1.856  0.4676 -0.6526 -0.6169
  162MOL0     C21748   5.997   7.853   1.940 -0.0215 -0.2104 -0.6506
  162MOL0     C21749   6.081   7.936   2.046 -0.1227 -0.3766  0.3602
  162MOL0     C21750   6.171   7.845   2.135  0.5874 -1.2614 -0.0380
  162MOL0     C21751   6.073   7.749   2.213 -0.4613 -1.1217 -0.2655
  162MOL0     N21752   5.969   7.824   2.280 -0.1997 -0.1308 -1.0811
  162MOL0     C21753   5.986   7.913   2.387 -0.2796  0.3845 -0.4934
  162MOL0     C21754   5.859   7.960   2.413 -0.3687  0.5884 -0.9137
  162MOL0     C21755   5.816   8.059   2.518 -0.2131  0.5566 -0.9407
  162MOL0     C21756   5.736   7.986   2.631 -0.8796 -0.7384 -0.1925
  162MOL0     C21757   5.613   7.917   2.583  0.3569 -0.4012 -0.7131
  162MOL0     C21758   5.519   8.022   2.517  0.2221  0.1016  0.5221
  162MOL0     O21759   5.393   7.960   2.499 -0.1784 -0.1891  0.1899
  162MOL0     C21760   5.354   7.899   2.386  0.1090  0.3064  0.1196
  162MOL0     C21761   5.436   7.850   2.281  0.0458  0.1318 -0.8056
  162MOL0     C21762   5.392   7.778   2.166  0.0919 -0.1985 -0.2057
  162MOL0     C21763   5.493   7.745   2.059  0.5745 -0.3619 -0.2723
  162MOL0     C21764   5.254   7.753   2.148  0.3572  0.4103 -0.2790
  162MOL0     C21765   5.202   7.684   2.035  1.1815 -0.1230  0.4179
  162MOL0     O21766   5.169   7.552   2.041  0.2910  0.9779  0.1543
  162MOL0     C21767   5.120   7.486   1.935  0.7334  0.5461 -0.7128
  162MOL0     C21768   4.989   7.443   1.929 -0.2115  0.0185  0.3433
  162MOL0     C21769   4.943   7.365   1.818  0.4083 -0.4626 -0.7789
  162MOL0     C21770   5.036   7.325   1.712 -0.0239  0.4127 -0.4640
  162MOL0     O21771   4.989   7.271   1.597  0.3850 -1.1702  0.1671
  162MOL0     C21772   4.863   7.206   1.587  0.3629 -0.6338 -0.4126
  162MOL0     C21773   4.852   7.138   1.459 -0.3518 -0.3956 -0.1499
  162MOL0     C21774   4.744   7.024   1.451  0.1452 -0.6105 -0.1625
  162MOL0     C21775   4.790   6.881   1.481 -0.0743 -0.2084  0.3350
  162MOL0     C21776   4.669   6.790   1.498 -0.5240 -0.5491  0.8992
  162MOL0     C21777   4.726   6.651   1.519 -0.8274 -0.1157 -0.2569
  162MOL0     C21778   4.624   6.545   1.474 -0.8939  0.3788  0.0511
  162MOL0     C21779   4.656   6.413   1.544  0.2125  0.3561  0.4321
  162MOL0    Cl21780   4.514   6.319   1.529 -0.0371 -0.3576 -0.6021
  162MOL0     C21781   5.174   7.361   1.726  0.6250 -0.4852  0.2632
  162MOL0     C21782   5.206   7.450   1.828 -0.1124 -0.0258 -0.4174
  162MOL0     O21783   5.191   7.748   1.936 -0.3842  0.1614 -0.3711
  162MOL0     C21784   5.172   7.800   2.250  0.0580  0.8578  0.0891
  162MOL0     C21785   5.219   7.865   2.360 -0.8148  0.2320 -0.2228
  162MOL0     N21786   5.774   7.900   2.326 -0.0388  0.4680  0.3843
  162MOL0     N21787   5.841   7.819   2.248 -0.4383 -0.5000 -0.6668
  162MOL0     C21788   5.542   8.363   1.761  0.4255 -0.4504  0.4712
  162MOL0     C21789   5.425   8.445   1.772  0.6434 -0.0024  1.3541
  162MOL0     C21790   5.084   8.651   1.865 -0.1438  0.2265 -0.4734
  162MOL0     C21791   4.966   8.608   1.936 -1.2830 -0.4085 -0.2599
  162MOL0     C21792   4.844   8.665   1.896 -0.2845 -0.8251  0.1147
  162MOL0     C21793   4.833   8.756   1.789 -0.0483 -0.4154 -0.4127
  162MOL0     O21794   4.711   8.815   1.772 -0.0852 -0.3713  0.0284
  162MOL0     C21795   4.700   8.941   1.709  0.1910  0.7196  0.1809
  162MOL0     C21796   4.573   8.944   1.626  0.3413 -0.7908  0.2021
  162MOL0     C21797   4.436   8.951   1.706 -0.4482 -0.7193  0.4349
  162MOL0     C21798   4.316   8.977   1.613 -0.0613 -0.3014  0.2279
  162MOL0     C21799   4.193   8.954   1.692  0.1337  0.4397  0.4965
  162MOL0     C21800   4.104   8.923   1.759  0.2419  0.4759  0.0961
  162MOL0     C21801   4.954   8.786   1.720  0.7033  0.4111  0.7577
  162MOL0     C21802   5.077   8.735   1.757  0.2006  0.2045  0.9160
  162MOL0     H21803   5.568   8.712   1.931  1.4565 -1.5582  2.1006
  162MOL0     H21804   5.769   8.565   1.913  0.3944 -0.1641  0.8097
  162MOL0     H21805   5.745   8.229   1.630 -0.2517  0.8901  1.3269
  162MOL0     H21806   5.892   8.207   1.705  0.6803  0.7956  1.3663
  162MOL0     H21807   5.624   8.109   1.817  0.6774  1.3662  0.8201
  162MOL0     H21808   5.710   8.011   1.717 -1.0111 -0.9557 -0.0420
  162MOL0     H21809   5.847   8.107   1.982  0.0929 -1.1645  0.7107
  162MOL0     H21810   5.746   7.960   1.971  0.0546 -0.5542 -0.4610
  162MOL0     H21811   5.886   7.889   1.773 -1.0439  0.9326 -1.1635
  162MOL0     H21812   5.997   8.022   1.823  1.8164 -0.4024  2.6083
  162MOL0     H21813   5.931   7.802   2.011  3.3587 -0.6173  2.5312
  162MOL0     H21814   6.057   7.786   1.879 -0.1891 -1.9252  0.9817
  162MOL0     H21815   6.145   8.017   2.009 -1.4805  0.1383 -0.9617
  162MOL0     H21816   6.017   7.992   2.115  1.9672  0.3990  1.7868
  162MOL0     H21817   6.252   7.787   2.090  0.7962 -2.2773  1.5466
  162MOL0     H21818   6.220   7.908   2.210 -0.3759 -0.3290 -0.1744
  162MOL0     H21819   6.128   7.695   2.290  0.4318  0.5701  0.3363
  162MOL0     H21820   6.026   7.682   2.140  0.1621  1.3438 -3.1334
  162MOL0     H21821   6.076   7.928   2.445 -1.1032  1.2177  0.6206
  162MOL0     H21822   5.905   8.105   2.564 -0.1638 -0.3943 -0.0428
  162MOL0     H21823   5.753   8.136   2.473 -2.6579  0.4708  1.9797
  162MOL0     H21824   5.698   8.057   2.705  1.1867  0.7196 -0.4446
  162MOL0     H21825   5.800   7.917   2.687  0.0940  0.4420  0.2058
  162MOL0     H21826   5.555   7.874   2.666 -1.5092 -2.6893 -3.0210
  162MOL0     H21827   5.641   7.833   2.518  3.3126 -1.5565  1.7689
  162MOL0     H21828   5.551   8.053   2.417 -1.6637 -4.9719 -1.9713
  162MOL0     H21829   5.502   8.105   2.587 -2.9180 -1.2060  1.4624
  162MOL0     H21830   5.540   7.845   2.310  0.0083 -1.1474 -0.8328
  162MOL0     H21831   5.532   7.643   2.068 -0.0043 -0.4296  2.2409
  162MOL0     H21832   5.445   7.754   1.962  1.4804  0.7330 -0.6426
  162MOL0     H21833   5.579   7.812   2.073  1.2202 -1.4719  1.5575
  162MOL0     H21834   4.919   7.471   2.007 -1.4647 -1.7493 -0.0937
  162MOL0     H21835   4.839   7.336   1.812  0.1091 -0.0382  1.5257
  162MOL0     H21836   4.839   7.140   1.671 -0.7669 -0.0029 -0.2189
  162MOL0     H21837   4.784   7.282   1.584 -0.6406 -1.6119  0.4149
  162MOL0     H21838   4.833   7.214   1.383 -0.1448 -0.7125 -0.5255
  162MOL0     H21839   4.952   7.096   1.445 -0.0195 -0.0240  0.9943
  162MOL0     H21840   4.699   7.036   1.351 -3.4950  0.1912  1.4134
  162MOL0     H21841   4.659   7.042   1.517  0.4384  0.2757 -0.0119
  162MOL0     H21842   4.862   6.851   1.405 -1.4071 -1.3952 -0.5035
  162MOL0     H21843   4.850   6.891   1.572  0.9814  0.1331 -0.3837
  162MOL0     H21844   4.619   6.783   1.401 -3.1158  0.5871  2.0620
  162MOL0     H21845   4.598   6.819   1.576 -0.3639 -2.0621  1.6531
  162MOL0     H21846   4.815   6.642   1.457  0.2880 -1.5392  1.4451
  162MOL0     H21847   4.755   6.632   1.623  0.0770  0.7817 -0.3277
  162MOL0     H21848   4.646   6.536   1.367  0.8821  0.6666  0.3657
  162MOL0     H21849   4.518   6.568   1.487 -1.5732 -2.7214  0.7809
  162MOL0     H21850   4.682   6.421   1.650  0.6926  2.2287  0.2169
  162MOL0     H21851   4.735   6.361   1.489  0.8406 -0.1756  1.8024
  162MOL0     H21852   5.248   7.334   1.653  0.4400  2.6110 -1.2394
  162MOL0     H21853   5.312   7.468   1.842 -0.1081  0.4988 -1.0317
  162MOL0     H21854   5.068   7.769   2.249  0.4378 -0.6072  1.7390
  162MOL0     H21855   5.151   7.887   2.442  1.6634 -1.4980  2.4656
  162MOL0     H21856   5.535   8.274   1.700  0.2441 -1.6776  2.1873
  162MOL0     H21857   5.329   8.418   1.729  0.8264  0.6617  0.4932
  162MOL0     H21858   4.972   8.548   2.026 -1.0040 -0.1902 -0.1314
  162MOL0     H21859   4.749   8.630   1.935 -0.0914 -2.6945 -0.9469
  162MOL0     H21860   4.692   9.022   1.782 -0.1031  1.8072 -1.0122
  162MOL0     H21861   4.782   8.962   1.640 -0.1676 -1.7986 -1.1113
  162MOL0     H21862   4.571   8.849   1.572 -0.3618 -0.1525 -0.9498
  162MOL0     H21863   4.589   9.032   1.563 -0.2564  1.9233  3.5796
  162MOL0     H21864   4.447   9.019   1.791  0.2464  1.2770 -1.1828
  162MOL0     H21865   4.419   8.849   1.742 -0.1537 -1.3657 -1.1989
  162MOL0     H21866   4.322   8.906   1.530 -0.3404  0.5095 -0.5029
  162MOL0     H21867   4.321   9.076   1.567  4.8109 -0.0017  0.8975
  162MOL0     H21868   4.015   8.906   1.816  0.9423 -1.4087  0.6749
  162MOL0     H21869   4.971   8.860   1.642  0.9733 -2.0142 -1.6173
  162MOL0     H21870   5.166   8.771   1.705 -1.3985  0.2473 -2.0114
  163MOL0     O21871   0.309  10.649   5.997  0.2404  0.1175 -0.9730
  163MOL0     C21872   0.366  10.626   6.101  0.2515  0.9055 -0.3474
  163MOL0     O21873   0.319  10.556   6.214  0.2455 -0.7411 -0.2238
  163MOL0     C21874   0.229  10.456   6.198  0.7459 -0.4971 -0.2930
  163MOL0     C21875   0.097  10.477   6.242 -0.6993  0.0017  0.2022
  163MOL0     C21876  -0.016  10.397   6.213 -0.1769  0.7887  0.6604
  163MOL0     C21877   0.003  10.289   6.130 -0.0918  0.3474 -0.0833
  163MOL0     O21878  -0.090  10.204   6.077 -0.4200  0.1991  0.0668
  163MOL0     C21879  -0.181  10.246   5.974 -0.5998 -0.9694 -1.4110
  163MOL0     C21880  -0.323  10.200   6.018 -0.1843 -0.6621 -0.1815
  163MOL0     C21881  -0.379  10.264   6.146 -0.0083 -0.6784  0.1613
  163MOL0     C21882  -0.527  10.214   6.158  0.3692  0.8284 -0.0370
  163MOL0     C21883  -0.603  10.277   6.287  0.1483  0.6321  0.0023
  163MOL0     C21884  -0.623  10.427   6.274  1.0250  0.4548 -0.5423
  163MOL0     C21885  -0.740  10.482   6.370 -0.0480 -0.8250 -0.0809
  163MOL0     C21886  -0.719  10.637   6.369 -0.0247  0.3589  0.6732
  163MOL0     N21887  -0.829  10.688   6.460  0.6064 -0.2856  0.2893
  163MOL0     C21888  -0.965  10.694   6.436  0.6933 -0.2862 -0.5401
  163MOL0     C21889  -1.021  10.712   6.564  1.2955  0.3060  0.4563
  163MOL0     C21890  -1.165  10.737   6.591 -0.2507  0.1897 -0.1312
  163MOL0     C21891  -1.182  10.889   6.599 -0.0163 -0.4228 -0.3524
  163MOL0     C21892  -1.141  10.928   6.740 -0.5097 -0.1208 -0.2570
  163MOL0     C21893  -1.202  11.064   6.798  0.2020  1.1785 -0.0654
  163MOL0     O21894  -1.227  11.156   6.705  0.6613  0.1711 -0.4421
  163MOL0     C21895  -1.182  11.289   6.724  0.0581 -0.1720  0.3455
  163MOL0     C21896  -1.162  11.362   6.605 -0.3059  0.0729 -0.7222
  163MOL0     C21897  -1.124  11.503   6.611 -0.4465 -0.4538 -0.0946
  163MOL0     C21898  -1.076  11.576   6.493 -0.2711 -0.4071  0.1411
  163MOL0     C21899  -1.118  11.571   6.735 -0.7588  0.2338 -0.6457
  163MOL0     C21900  -1.103  11.714   6.748  0.2141 -1.1914 -0.7098
  163MOL0     O21901  -1.144  11.791   6.644 -0.3076  0.1346 -0.4584
  163MOL0     C21902  -1.147  11.930   6.663 -0.1217  0.8383  0.4714
  163MOL0     C21903  -1.077  12.010   6.573  0.0869  0.2418  1.6560
  163MOL0     C21904  -1.074  12.145   6.581 -0.7652 -0.8094  0.8017
  163MOL0     C21905  -1.155  12.214   6.674  0.2941  0.3417  0.7505
  163MOL0     O21906  -1.160  12.353   6.683 -0.1442  0.2255  0.4521
  163MOL0     C21907  -1.094  12.430   6.577  0.6778  0.8089 -0.7998
  163MOL0     C21908  -1.118  12.580   6.602  1.1509  0.1580  0.1339
  163MOL0     C21909  -1.265  12.596   6.636 -0.0261  0.4511  0.2484
  163MOL0     C21910  -1.288  12.746   6.607 -0.4798  0.0285  0.0623
  163MOL0     C21911  -1.426  12.775   6.664  0.2255  0.4613  0.3496
  163MOL0     C21912  -1.473  12.921   6.637 -0.5074  0.2331  0.4514
  163MOL0     C21913  -1.506  12.935   6.492 -0.0591  0.7469  0.4508
  163MOL0     C21914  -1.551  13.078   6.468  0.2502  0.1337  1.0621
  163MOL0    Cl21915  -1.725  13.096   6.533  0.3891 -0.0989  0.3833
  163MOL0     C21916  -1.235  12.140   6.753 -0.0324  0.8175 -0.2849
  163MOL0     C21917  -1.217  12.002   6.758 -0.0586  0.1865 -0.3200
  163MOL0     O21918  -1.067  11.756   6.860 -0.1333 -0.6184 -0.2629
  163MOL0     C21919  -1.124  11.487   6.851  0.3866  0.3760 -0.0494
  163MOL0     C21920  -1.165  11.350   6.843  0.2754 -0.0430 -0.3880
  163MOL0     N21921  -0.915  10.713   6.652  0.8616 -0.7338 -0.6316
  163MOL0     N21922  -0.802  10.699   6.594  0.0333  0.5257 -0.0210
  163MOL0     C21923   0.133  10.275   6.073 -0.1099  0.0489 -0.3329
  163MOL0     C21924   0.245  10.349   6.115  0.2119 -0.5703 -0.6502
  163MOL0     C21925   0.474  10.720   6.118  0.3249 -0.9161  0.1525
  163MOL0     C21926   0.542  10.745   6.236 -0.6864  0.2407  0.1179
  163MOL0     C21927   0.643  10.838   6.243 -1.0027 -0.0882  0.0227
  163MOL0     C21928   0.682  10.912   6.133 -0.7284 -0.8368 -0.3610
  163MOL0     O21929   0.781  11.006   6.147  0.0368 -0.0939  0.0532
  163MOL0     C21930   0.823  11.084   6.028 -0.1328  0.0044 -0.5334
  163MOL0     C21931   0.957  11.160   6.061  0.2366  0.6226  0.5687
  163MOL0     C21932   1.081  11.070   6.075  0.6287  0.4140  0.4163
  163MOL0     C21933   1.213  11.136   6.103  0.3584  0.3083 -0.5075
  163MOL0     C21934   1.201  11.199   6.241  0.2846  0.1124  0.6673
  163MOL0     C21935   1.200  11.251   6.350  0.1721  0.9885  0.3469
  163MOL0     C21936   0.617  10.891   6.013  0.0582  1.0717 -0.0175
  163MOL0     C21937   0.518  10.790   6.008 -0.1704 -0.1901  0.0215
  163MOL0     H21938   0.087  10.564   6.306 -0.3286  0.8982 -0.9133
  163MOL0     H21939  -0.113  10.424   6.255 -0.6463  0.9849 -0.5064
  163MOL0     H21940  -0.188  10.355   5.969 -2.1834 -1.0215 -0.8313
  163MOL0     H21941  -0.146  10.210   5.876  1.0064  0.0032 -1.2333
  163MOL0     H21942  -0.387  10.227   5.933  0.5737 -1.2294 -0.9537
  163MOL0     H21943  -0.324  10.092   6.034 -0.9619 -0.4430  1.3662
  163MOL0     H21944  -0.315  10.241   6.232 -0.7789  0.2911  1.0105
  163MOL0     H21945  -0.381  10.371   6.128  0.0674 -0.5548  0.8524
  163MOL0     H21946  -0.578  10.242   6.065  1.9361  1.9962 -0.5891
  163MOL0     H21947  -0.529  10.105   6.166  1.6244  0.8903  1.4818
  163MOL0     H21948  -0.708  10.244   6.289 -0.4563  2.1168 -2.4693
  163MOL0     H21949  -0.551  10.262   6.382  1.8872  0.6575 -0.9100
  163MOL0     H21950  -0.535  10.482   6.311  0.5727  0.4864  0.5313
  163MOL0     H21951  -0.645  10.448   6.169 -0.8031  0.9956 -0.0857
  163MOL0     H21952  -0.837  10.458   6.326 -0.7160  0.3637  0.6767
  163MOL0     H21953  -0.716  10.455   6.474  0.4983 -0.9311 -0.2317
  163MOL0     H21954  -0.746  10.649   6.263 -3.0695 -3.6131  0.7666
  163MOL0     H21955  -0.627  10.683   6.406 -2.0203  3.7928  1.8576
  163MOL0     H21956  -1.016  10.688   6.340  0.2118 -0.2381 -0.2886
  163MOL0     H21957  -1.232  10.701   6.512 -0.2648 -1.7635  0.7030
  163MOL0     H21958  -1.200  10.684   6.680  0.1591  1.3433  0.7431
  163MOL0     H21959  -1.286  10.919   6.585  0.1421  0.6009  0.5541
  163MOL0     H21960  -1.113  10.934   6.527  0.2365  1.1626  0.8319
  163MOL0     H21961  -1.034  10.942   6.726 -0.0163 -1.4521  1.8196
  163MOL0     H21962  -1.150  10.852   6.818 -0.3810  0.7931  0.6840
  163MOL0     H21963  -1.138  11.099   6.879 -0.3916 -2.5237  2.2332
  163MOL0     H21964  -1.297  11.044   6.848  1.2432 -0.8095  1.2553
  163MOL0     H21965  -1.166  11.305   6.512 -0.0412  1.7660 -1.8202
  163MOL0     H21966  -1.041  11.510   6.413  1.1950  0.1768  0.2690
  163MOL0     H21967  -1.153  11.641   6.451 -0.2248 -0.9362 -0.7840
  163MOL0     H21968  -1.000  11.647   6.527 -1.3746  1.2889 -0.8088
  163MOL0     H21969  -1.020  11.952   6.501 -1.9250  0.6749 -0.4024
  163MOL0     H21970  -1.022  12.188   6.496 -1.3866 -3.8713 -1.3175
  163MOL0     H21971  -0.986  12.415   6.580  0.7567  1.4296 -0.3455
  163MOL0     H21972  -1.134  12.411   6.477 -0.2210  2.5174 -0.8009
  163MOL0     H21973  -1.057  12.606   6.689 -0.6824 -1.7507  2.1057
  163MOL0     H21974  -1.087  12.640   6.516 -0.2778 -3.2604 -2.9956
  163MOL0     H21975  -1.287  12.574   6.741 -3.8884 -2.0395 -0.8769
  163MOL0     H21976  -1.339  12.540   6.578  0.7076 -1.3563  0.9882
  163MOL0     H21977  -1.219  12.819   6.650 -0.1855  2.5557 -4.0527
  163MOL0     H21978  -1.277  12.770   6.501  1.8272 -0.0393  0.2535
  163MOL0     H21979  -1.429  12.756   6.771 -1.1858  1.7485  0.5703
  163MOL0     H21980  -1.504  12.710   6.624  0.4375  2.4368 -3.8165
  163MOL0     H21981  -1.563  12.940   6.695  0.4525 -0.3963  2.2223
  163MOL0     H21982  -1.390  12.985   6.670  0.8514 -0.6075 -1.1374
  163MOL0     H21983  -1.592  12.872   6.467 -1.9105  2.6823  1.5942
  163MOL0     H21984  -1.412  12.913   6.441 -1.5115  0.0056 -2.0957
  163MOL0     H21985  -1.553  13.097   6.360 -2.7480 -1.6817  0.6892
  163MOL0     H21986  -1.476  13.143   6.513 -0.3506  0.5118  1.5473
  163MOL0     H21987  -1.293  12.171   6.839 -1.8976 -2.9206  0.0007
  163MOL0     H21988  -1.275  11.951   6.835 -0.2460 -0.2129 -0.7216
  163MOL0     H21989  -1.103  11.535   6.945  1.8814  0.7169 -0.5291
  163MOL0     H21990  -1.168  11.298   6.938  3.9110  0.2990  0.0575
  163MOL0     H21991   0.160  10.201   5.999  2.1124  1.9513 -1.5875
  163MOL0     H21992   0.349  10.336   6.086  0.3288  2.3234 -1.8032
  163MOL0     H21993   0.520  10.677   6.318 -0.4208 -0.9334 -0.7529
  163MOL0     H21994   0.693  10.863   6.336 -3.5746 -1.0230  1.7765
  163MOL0     H21995   0.855  11.014   5.950  0.5207 -1.7473  1.2306
  163MOL0     H21996   0.751  11.162   6.002  0.0914  0.9696  1.5209
  163MOL0     H21997   0.938  11.202   6.161  0.7564 -0.9858  1.3699
  163MOL0     H21998   0.987  11.234   5.986  3.0909 -0.8144  0.1892
  163MOL0     H21999   1.110  11.012   5.986  0.5632 -1.3328  1.4799
  163MOL0     H22000   1.062  11.004   6.160  3.5864 -1.0779  0.0510
  163MOL0     H22001   1.251  11.208   6.030 -0.2389  1.8987  0.6935
  163MOL0     H22002   1.290  11.058   6.107  0.4042  0.3715 -0.1618
  163MOL0     H22003   1.201  11.305   6.443  0.7087  0.7487  0.4854
  163MOL0     H22004   0.634  10.942   5.919 -1.9986  1.8541 -0.0078
  163MOL0     H22005   0.472  10.770   5.911  0.8085 -0.7289 -0.3449
  164MOL0     O22006   9.099   7.510   9.179 -0.2273  0.1128  0.4435
  164MOL0     C22007   9.176   7.448   9.252 -0.3304  0.2311 -0.3143
  164MOL0     O22008   9.133   7.343   9.336 -0.5982  0.4447  0.4995
  164MOL0     C22009   8.996   7.326   9.355  0.2536 -0.1953  0.0307
  164MOL0     C22010   8.901   7.322   9.247 -0.2080  0.2914 -1.0178
  164MOL0     C22011   8.765   7.299   9.269  0.4151  0.7808 -0.5219
  164MOL0     C22012   8.717   7.268   9.397 -0.8692  0.1396 -0.2786
  164MOL0     O22013   8.588   7.240   9.438  0.3009 -0.5797  0.1740
  164MOL0     C22014   8.487   7.196   9.351 -1.1788 -0.5756  0.4980
  164MOL0     C22015   8.347   7.168   9.414 -0.6951 -0.5543  0.8825
  164MOL0     C22016   8.242   7.112   9.318  0.3852 -0.3365 -0.1363
  164MOL0     C22017   8.106   7.124   9.389  0.2528  0.5574  0.3203
  164MOL0     C22018   7.989   7.073   9.298 -0.3718  0.4151 -0.6226
  164MOL0     C22019   7.987   7.090   9.146 -0.4819 -0.1454  0.4989
  164MOL0     C22020   7.851   7.084   9.091  0.3365  0.0690 -0.1638
  164MOL0     C22021   7.761   6.967   9.134 -0.1634  0.1074  0.0486
  164MOL0     N22022   7.637   6.960   9.066  0.5302 -0.3965 -0.0304
  164MOL0     C22023   7.561   7.047   8.998  0.5721 -0.3922 -0.6137
  164MOL0     C22024   7.456   6.977   8.954 -0.4132 -0.4954  0.2197
  164MOL0     C22025   7.337   7.033   8.882 -0.1584 -0.9314 -0.1388
  164MOL0     C22026   7.307   6.965   8.747  0.2941 -0.0750 -0.7580
  164MOL0     C22027   7.200   7.030   8.673 -0.0675  0.5610  0.3457
  164MOL0     C22028   7.157   6.936   8.566 -0.0820  0.2824 -0.3484
  164MOL0     O22029   7.028   6.963   8.521  0.1645  0.0607  0.4392
  164MOL0     C22030   6.993   6.893   8.408  0.0728 -0.8194  0.2951
  164MOL0     C22031   7.072   6.811   8.331  0.3113 -0.3271 -0.5514
  164MOL0     C22032   7.027   6.758   8.209 -0.6329 -0.3382  0.0541
  164MOL0     C22033   7.106   6.651   8.142 -0.2270  0.5528  0.0149
  164MOL0     C22034   6.894   6.786   8.167  0.2961  0.2670 -0.7363
  164MOL0     C22035   6.833   6.729   8.048  0.5950 -0.0137  0.0652
  164MOL0     O22036   6.691   6.726   8.050 -0.9271  0.2146 -0.6811
  164MOL0     C22037   6.615   6.650   7.958 -0.0336  0.1826  0.9645
  164MOL0     C22038   6.488   6.713   7.939  0.2622 -0.0032  0.1642
  164MOL0     C22039   6.404   6.648   7.853  0.5042  0.9906  0.0304
  164MOL0     C22040   6.417   6.519   7.817  0.2446  1.0463  0.0081
  164MOL0     O22041   6.310   6.456   7.764 -0.2207  0.1050 -0.1249
  164MOL0     C22042   6.185   6.467   7.826 -0.0229 -0.2035 -1.1230
  164MOL0     C22043   6.091   6.361   7.773  0.8854  0.3273  0.4721
  164MOL0     C22044   5.946   6.389   7.823 -0.3076  0.1509  0.5198
  164MOL0     C22045   5.874   6.505   7.747  0.0094  0.5214  0.7423
  164MOL0     C22046   5.721   6.512   7.780 -0.6088 -0.2287 -0.6223
  164MOL0     C22047   5.667   6.627   7.694 -0.9118 -0.7011  0.0657
  164MOL0     C22048   5.523   6.657   7.736  0.0540  0.3916  0.0414
  164MOL0     C22049   5.442   6.526   7.726 -0.3099  0.1847  0.5115
  164MOL0    Cl22050   5.281   6.541   7.656 -0.2585 -0.1774 -0.1608
  164MOL0     C22051   6.531   6.454   7.842  0.5222 -0.2787 -0.4216
  164MOL0     C22052   6.635   6.521   7.919  0.0927  0.7982  0.4768
  164MOL0     O22053   6.901   6.667   7.965 -0.2578 -0.2394 -0.1896
  164MOL0     C22054   6.820   6.879   8.245 -0.1488  0.0704 -0.0690
  164MOL0     C22055   6.873   6.933   8.359 -0.1875  0.1964  0.1719
  164MOL0     N22056   7.468   6.844   8.992  0.5904 -0.3099  0.6325
  164MOL0     N22057   7.574   6.841   9.071 -0.0394 -0.3787 -0.2352
  164MOL0     C22058   8.811   7.274   9.501  0.8319 -0.0723  0.7577
  164MOL0     C22059   8.950   7.295   9.479  0.6145 -0.2175 -0.1495
  164MOL0     C22060   9.324   7.476   9.246  0.5258  0.3669 -0.6649
  164MOL0     C22061   9.409   7.387   9.309 -0.7835 -0.6681  0.0547
  164MOL0     C22062   9.549   7.400   9.291  0.0418 -0.6041 -0.3884
  164MOL0     C22063   9.597   7.499   9.209 -0.6497  0.3016 -0.6848
  164MOL0     O22064   9.738   7.505   9.193  0.0107  0.0527  0.0391
  164MOL0     C22065   9.789   7.630   9.156 -0.1253  0.1215 -0.3581
  164MOL0     C22066   9.791   7.656   9.008  0.5681 -0.0503 -0.1718
  164MOL0     C22067   9.850   7.539   8.926  0.6949  0.3772  0.9016
  164MOL0     C22068   9.982   7.492   8.967  0.1903 -0.3980  0.2315
  164MOL0     C22069  10.095   7.586   8.954  0.0233 -0.3896  0.7251
  164MOL0     C22070  10.193   7.651   8.951 -0.5398  0.3224 -0.5584
  164MOL0     C22071   9.507   7.598   9.161 -0.1753  0.0116 -0.3035
  164MOL0     C22072   9.369   7.589   9.182  0.2539  0.2196 -0.1222
  164MOL0     H22073   8.944   7.356   9.153  1.4083  2.4460  0.3971
  164MOL0     H22074   8.696   7.307   9.185  0.1599 -0.3109 -0.4268
  164MOL0     H22075   8.478   7.276   9.278 -2.0810  0.2857  1.5165
  164MOL0     H22076   8.527   7.106   9.303  1.3711 -1.0302  3.1626
  164MOL0     H22077   8.360   7.105   9.503  2.4344 -1.5955 -0.2017
  164MOL0     H22078   8.310   7.262   9.457  0.5140 -0.2136  1.2249
  164MOL0     H22079   8.235   7.165   9.223 -0.7365  0.6171  0.4560
  164MOL0     H22080   8.271   7.010   9.293  2.4678  0.3554 -0.8187
  164MOL0     H22081   8.105   7.071   9.485  1.8514 -0.5489 -0.2231
  164MOL0     H22082   8.088   7.231   9.400  3.5259  1.5090 -1.8945
  164MOL0     H22083   7.983   6.964   9.308  1.2813  0.2992 -0.7217
  164MOL0     H22084   7.900   7.113   9.349  0.9781 -0.2353  2.4852
  164MOL0     H22085   8.030   7.187   9.121  0.5615 -0.2116  1.9347
  164MOL0     H22086   8.040   7.003   9.104 -1.7339 -1.0601  0.7653
  164MOL0     H22087   7.800   7.175   9.122  1.9602  0.3638  1.8061
  164MOL0     H22088   7.862   7.075   8.982  3.2297  1.9207 -0.1164
  164MOL0     H22089   7.736   6.963   9.240 -2.9697  1.6452 -0.4422
  164MOL0     H22090   7.804   6.869   9.113 -0.1084  0.2429 -0.4881
  164MOL0     H22091   7.558   7.155   9.001  1.0745 -0.3923  1.8424
  164MOL0     H22092   7.246   7.020   8.941  0.6400  1.1012  1.6883
  164MOL0     H22093   7.349   7.139   8.859  0.9649 -0.4742  2.2509
  164MOL0     H22094   7.273   6.867   8.783 -2.4353  0.7485 -0.8590
  164MOL0     H22095   7.395   6.959   8.683  0.3320 -2.4699 -0.5686
  164MOL0     H22096   7.222   7.129   8.633 -1.6568  1.3859  1.3698
  164MOL0     H22097   7.112   7.047   8.737 -1.6102 -0.4400 -1.3989
  164MOL0     H22098   7.166   6.835   8.607  0.7382 -0.1792 -1.6303
  164MOL0     H22099   7.223   6.944   8.479 -0.2924  1.1963 -0.4361
  164MOL0     H22100   7.167   6.779   8.373 -2.3865 -4.3291  3.3047
  164MOL0     H22101   7.054   6.555   8.141 -0.0163  0.4295 -1.3499
  164MOL0     H22102   7.128   6.679   8.039  3.1209  1.0451  0.7487
  164MOL0     H22103   7.206   6.630   8.181  0.2856  1.5092 -0.7304
  164MOL0     H22104   6.469   6.814   7.974 -1.5899 -0.8812  1.9726
  164MOL0     H22105   6.311   6.691   7.817 -1.0781 -2.4612 -0.3969
  164MOL0     H22106   6.204   6.458   7.933 -0.3385 -3.6332 -1.2607
  164MOL0     H22107   6.137   6.564   7.807  0.1159 -0.4104 -2.7243
  164MOL0     H22108   6.104   6.362   7.664  0.0863 -0.0664  0.3647
  164MOL0     H22109   6.119   6.263   7.813 -0.2278 -0.8201 -1.3767
  164MOL0     H22110   5.949   6.407   7.931  2.0595 -1.7118  0.8435
  164MOL0     H22111   5.882   6.302   7.808 -2.5709  2.1722 -3.3607
  164MOL0     H22112   5.935   6.593   7.768  1.2245  0.3554 -1.7410
  164MOL0     H22113   5.871   6.486   7.639 -0.7850  1.7908  0.5284
  164MOL0     H22114   5.704   6.524   7.888 -2.9778  0.0558 -0.9789
  164MOL0     H22115   5.681   6.415   7.748  3.9341 -2.7517  0.5318
  164MOL0     H22116   5.719   6.723   7.700 -1.1711 -0.4994 -0.7606
  164MOL0     H22117   5.680   6.596   7.590  0.1106  0.7231 -0.2625
  164MOL0     H22118   5.488   6.736   7.668 -0.4505 -2.1889 -2.9082
  164MOL0     H22119   5.528   6.696   7.838  1.3716 -0.9891  0.5410
  164MOL0     H22120   5.427   6.473   7.821 -2.0432  0.1423  0.2369
  164MOL0     H22121   5.493   6.466   7.651 -1.4894 -0.9795  0.6138
  164MOL0     H22122   6.530   6.352   7.806 -0.0489 -0.2942 -0.3736
  164MOL0     H22123   6.728   6.469   7.938 -0.0681 -0.6311 -2.1893
  164MOL0     H22124   6.719   6.902   8.212 -0.3564 -0.4164  0.2181
  164MOL0     H22125   6.818   7.004   8.420  1.3301  1.1435  0.4944
  164MOL0     H22126   8.789   7.254   9.605  2.9032  0.2909  1.3196
  164MOL0     H22127   9.026   7.277   9.555  0.0026 -0.9252  0.3172
  164MOL0     H22128   9.379   7.293   9.353  2.2016 -0.8635  1.9299
  164MOL0     H22129   9.621   7.327   9.328  0.5406  0.5502  1.0029
  164MOL0     H22130   9.733   7.711   9.203  0.6121 -0.5928  1.8444
  164MOL0     H22131   9.891   7.633   9.195  0.0622 -2.6728 -0.4319
  164MOL0     H22132   9.834   7.755   8.992 -0.8337  0.9442  1.7304
  164MOL0     H22133   9.689   7.664   8.967 -0.2961  0.9759  2.0156
  164MOL0     H22134   9.850   7.562   8.819  1.0085  0.2156  0.8663
  164MOL0     H22135   9.785   7.451   8.927  2.0155 -0.7064 -0.9397
  164MOL0     H22136  10.014   7.402   8.913  2.0275  0.1828  0.2885
  164MOL0     H22137   9.986   7.460   9.072 -1.2183 -1.3155  0.0329
  164MOL0     H22138  10.277   7.719   8.950 -0.0559 -0.2358  0.5833
  164MOL0     H22139   9.532   7.690   9.110 -0.9299  2.1545  2.8941
  164MOL0     H22140   9.306   7.657   9.126  1.1596  0.6205 -0.6746
  165MOL0     O22141   2.954   5.613   7.090 -0.7609  0.2906  0.8704
  165MOL0     C22142   2.950   5.552   6.985 -0.8068  0.3117  0.1150
  165MOL0     O22143   2.839   5.495   6.938  0.3645 -0.2146  0.4896
  165MOL0     C22144   2.736   5.476   7.035  0.0548 -0.1056  1.3814
  165MOL0     C22145   2.752   5.430   7.160 -0.2141 -0.0378 -0.6610
  165MOL0     C22146   2.647   5.418   7.247  0.4665  0.0918  0.0246
  165MOL0     C22147   2.514   5.427   7.197  0.4716 -0.0788  0.4643
  165MOL0     O22148   2.395   5.408   7.266 -0.1619  0.0699 -0.2229
  165MOL0     C22149   2.409   5.354   7.399  0.4612 -0.1313 -0.6654
  165MOL0     C22150   2.277   5.308   7.452 -1.1546 -0.2841 -0.2883
  165MOL0     C22151   2.183   5.432   7.471 -0.7171  0.1708  0.0426
  165MOL0     C22152   2.196   5.483   7.612  0.8300  0.9953  0.1611
  165MOL0     C22153   2.128   5.619   7.643  0.5399  0.5998  0.3395
  165MOL0     C22154   1.975   5.621   7.587 -0.0640  0.2664  0.2600
  165MOL0     C22155   1.884   5.538   7.677  0.3778  0.3641 -0.8144
  165MOL0     C22156   1.762   5.476   7.604 -0.4463 -0.0781  0.1279
  165MOL0     N22157   1.645   5.564   7.590  0.4857 -0.3608  0.7551
  165MOL0     C22158   1.589   5.593   7.467  0.1020 -0.1681 -0.5318
  165MOL0     C22159   1.492   5.687   7.496  0.2310 -0.3504  0.1511
  165MOL0     C22160   1.400   5.759   7.395  0.3986  0.4584 -0.5049
  165MOL0     C22161   1.257   5.753   7.434 -0.1229 -0.4969  0.7405
  165MOL0     C22162   1.203   5.613   7.474 -0.0359 -0.2637  0.5709
  165MOL0     C22163   1.055   5.617   7.517  0.2324  0.6050  0.2881
  165MOL0     O22164   1.039   5.687   7.640  0.2078  0.1720  0.2663
  165MOL0     C22165   0.907   5.697   7.680 -0.1429  0.2361  0.1761
  165MOL0     C22166   0.890   5.734   7.812  0.0452  0.3957 -0.3579
  165MOL0     C22167   0.770   5.782   7.867  0.8300  0.0912  0.0445
  165MOL0     C22168   0.764   5.827   8.011  0.2277 -0.0167  0.9943
  165MOL0     C22169   0.652   5.785   7.777  0.4851  0.6348  0.5946
  165MOL0     C22170   0.513   5.833   7.809 -0.3389  0.2059 -0.4688
  165MOL0     O22171   0.405   5.781   7.748 -0.0187 -0.2137  0.8214
  165MOL0     C22172   0.278   5.827   7.784  0.1721  0.6851 -0.4851
  165MOL0     C22173   0.209   5.914   7.700  0.2735  0.3231  0.7674
  165MOL0     C22174   0.085   5.954   7.727  0.4901  0.2373  0.1560
  165MOL0     C22175   0.027   5.919   7.847 -0.8218 -1.3025  0.0385
  165MOL0     O22176  -0.098   5.966   7.877  1.3165  0.3832 -0.3514
  165MOL0     C22177  -0.144   6.092   7.829 -0.4894  0.3446 -0.0839
  165MOL0     C22178  -0.277   6.140   7.878  0.4826  0.6738 -0.1597
  165MOL0     C22179  -0.262   6.198   8.019 -0.8675 -0.1798  0.1321
  165MOL0     C22180  -0.405   6.226   8.080  0.1075  0.4116  0.3035
  165MOL0     C22181  -0.381   6.311   8.205 -0.1194 -0.8908  0.2144
  165MOL0     C22182  -0.503   6.394   8.233 -0.3149 -0.1182  0.1775
  165MOL0     C22183  -0.515   6.523   8.165 -0.1920  0.4412 -0.1802
  165MOL0     C22184  -0.651   6.595   8.194 -0.3427 -0.0306  0.4928
  165MOL0    Cl22185  -0.634   6.764   8.177  0.7763  0.0105  0.0432
  165MOL0     C22186   0.097   5.845   7.946 -0.0480 -0.0447 -0.2403
  165MOL0     C22187   0.227   5.803   7.911  0.0139 -0.2468  0.0278
  165MOL0     O22188   0.511   5.924   7.892 -0.2312  0.8010  0.1350
  165MOL0     C22189   0.670   5.736   7.646  0.0998  0.8480  0.3299
  165MOL0     C22190   0.789   5.680   7.602 -1.1846  0.1968  0.0793
  165MOL0     N22191   1.501   5.712   7.633  0.5624 -0.8537  0.3884
  165MOL0     N22192   1.584   5.634   7.688 -0.3144 -0.3763  0.0269
  165MOL0     C22193   2.492   5.454   7.062  0.7667  0.1129 -0.0630
  165MOL0     C22194   2.607   5.490   6.982  0.7125 -0.1556 -0.2005
  165MOL0     C22195   3.072   5.540   6.910  0.3716 -0.2066  0.5117
  165MOL0     C22196   3.096   5.439   6.809 -1.2534 -0.1703  0.5901
  165MOL0     C22197   3.219   5.438   6.736 -0.6410 -0.1593 -0.4402
  165MOL0     C22198   3.322   5.536   6.741 -0.3077  0.2863 -0.7723
  165MOL0     O22199   3.427   5.527   6.655  0.1230 -0.1281  0.9753
  165MOL0     C22200   3.534   5.624   6.664  0.2822 -0.1204  0.1989
  165MOL0     C22201   3.648   5.574   6.566  0.8449 -0.2256 -0.5185
  165MOL0     C22202   3.733   5.457   6.615 -0.1454  0.2082  0.0694
  165MOL0     C22203   3.852   5.432   6.517  1.0087 -0.3378  0.1192
  165MOL0     C22204   3.933   5.316   6.550  0.1073 -0.3679 -0.1767
  165MOL0     C22205   4.016   5.224   6.572  1.1855 -0.2283 -0.6253
  165MOL0     C22206   3.303   5.631   6.847  0.7711 -0.1966  0.9290
  165MOL0     C22207   3.186   5.630   6.931  0.2650 -0.3189  0.3158
  165MOL0     H22208   2.848   5.422   7.211  0.7289 -2.2627 -2.5792
  165MOL0     H22209   2.669   5.415   7.353  1.2158  3.8513  0.1092
  165MOL0     H22210   2.473   5.265   7.396 -0.2752 -0.7137 -4.3535
  165MOL0     H22211   2.449   5.435   7.460 -0.4765 -0.7859  0.8731
  165MOL0     H22212   2.238   5.235   7.381  2.4380 -1.8693 -0.8827
  165MOL0     H22213   2.291   5.255   7.546 -1.8695  0.9644  0.5529
  165MOL0     H22214   2.219   5.512   7.405 -0.1572 -1.2098 -1.3820
  165MOL0     H22215   2.080   5.398   7.455 -0.6942  0.7886 -1.5741
  165MOL0     H22216   2.149   5.406   7.673  0.1608  1.2819  0.0196
  165MOL0     H22217   2.301   5.490   7.641  0.3555  0.1420  2.2026
  165MOL0     H22218   2.134   5.648   7.748 -1.6300  0.5058  0.5362
  165MOL0     H22219   2.182   5.691   7.581 -0.4809  1.5670  0.5542
  165MOL0     H22220   1.942   5.725   7.579  0.0807  0.3714  0.9081
  165MOL0     H22221   1.971   5.572   7.490  0.9877 -2.6972  1.6050
  165MOL0     H22222   1.943   5.457   7.721  0.3936  0.3837 -0.7990
  165MOL0     H22223   1.849   5.606   7.756  1.7617  0.3172 -0.1193
  165MOL0     H22224   1.733   5.385   7.657  2.4585 -1.6692 -0.8119
  165MOL0     H22225   1.789   5.439   7.505  0.6297  0.3211  0.2577
  165MOL0     H22226   1.618   5.562   7.367  1.1440  0.3739 -0.4159
  165MOL0     H22227   1.427   5.865   7.398  0.6844  0.3752  1.6969
  165MOL0     H22228   1.415   5.719   7.295 -0.3023  0.2077 -0.5117
  165MOL0     H22229   1.187   5.786   7.357 -1.7940 -2.6874  1.2021
  165MOL0     H22230   1.241   5.822   7.517  1.7871 -0.1475  0.8573
  165MOL0     H22231   1.256   5.571   7.560  1.1560 -2.1567 -0.9812
  165MOL0     H22232   1.223   5.557   7.382  4.6321 -1.6518  2.1303
  165MOL0     H22233   1.032   5.509   7.518  4.2923 -0.5430 -3.0174
  165MOL0     H22234   0.995   5.661   7.436 -1.1514 -2.3203 -0.4293
  165MOL0     H22235   0.975   5.732   7.879 -2.3478 -0.4989  2.8946
  165MOL0     H22236   0.859   5.808   8.062 -0.5422 -1.6830  1.9106
  165MOL0     H22237   0.740   5.933   8.024  2.9482  0.6424  1.0986
  165MOL0     H22238   0.687   5.767   8.062  0.1530 -1.4645 -0.7184
  165MOL0     H22239   0.246   5.933   7.600 -1.5786 -0.4373 -0.1044
  165MOL0     H22240   0.030   6.011   7.653  1.9942  2.0944  0.4004
  165MOL0     H22241  -0.070   6.169   7.852  0.6732 -0.3700 -1.3256
  165MOL0     H22242  -0.147   6.091   7.720  2.8288  2.9068 -0.3498
  165MOL0     H22243  -0.321   6.218   7.815 -1.9410  0.1857  0.8115
  165MOL0     H22244  -0.347   6.056   7.876  0.4404  0.6888  0.5730
  165MOL0     H22245  -0.199   6.287   8.013  0.2365 -0.9455  0.2070
  165MOL0     H22246  -0.210   6.121   8.075 -3.9595 -1.9452  0.8261
  165MOL0     H22247  -0.469   6.282   8.011  0.1160  0.0977  0.0438
  165MOL0     H22248  -0.468   6.141   8.107 -3.8619  1.2836 -4.7979
  165MOL0     H22249  -0.302   6.384   8.191  1.7192 -2.4297  1.9448
  165MOL0     H22250  -0.358   6.254   8.296  1.4347  2.6409  2.2342
  165MOL0     H22251  -0.599   6.342   8.224 -0.5945  0.3755  0.2510
  165MOL0     H22252  -0.502   6.421   8.340  1.0800  2.9553 -0.4949
  165MOL0     H22253  -0.504   6.508   8.057 -1.2420  2.2678 -0.5884
  165MOL0     H22254  -0.432   6.590   8.189 -0.7662  0.9844  0.3212
  165MOL0     H22255  -0.674   6.567   8.297 -2.9978 -0.3445 -0.1128
  165MOL0     H22256  -0.723   6.548   8.126 -0.7997 -1.7719  2.0770
  165MOL0     H22257   0.043   5.825   8.038 -1.6127  0.7288 -0.9443
  165MOL0     H22258   0.290   5.743   7.976  1.0207  2.1895  1.4660
  165MOL0     H22259   0.597   5.736   7.566  3.0372  0.2331 -2.5860
  165MOL0     H22260   0.780   5.640   7.502  1.9121 -1.0984  0.2173
  165MOL0     H22261   2.391   5.450   7.023  0.3089 -2.6985  1.1307
  165MOL0     H22262   2.599   5.520   6.878  0.9422 -0.4637 -0.3069
  165MOL0     H22263   3.019   5.364   6.793 -1.9253  0.3619  1.2701
  165MOL0     H22264   3.234   5.348   6.677 -1.1961 -2.2695  2.4372
  165MOL0     H22265   3.512   5.721   6.618  2.8277  0.3433 -0.2018
  165MOL0     H22266   3.577   5.653   6.759  1.7051  2.1792 -1.0580
  165MOL0     H22267   3.696   5.672   6.556 -1.2029  1.1394  1.7337
  165MOL0     H22268   3.597   5.554   6.471 -1.4752  0.4513  0.4935
  165MOL0     H22269   3.673   5.366   6.608  0.2148 -0.2263  2.0372
  165MOL0     H22270   3.763   5.478   6.719 -0.8812  0.9223  0.1514
  165MOL0     H22271   3.928   5.511   6.508  2.0658 -1.3290  0.0900
  165MOL0     H22272   3.806   5.421   6.418  1.4042  1.2063 -0.2673
  165MOL0     H22273   4.090   5.151   6.599  0.9124 -0.0063  0.8428
  165MOL0     H22274   3.378   5.710   6.852 -1.3182  1.9087  0.7612
  165MOL0     H22275   3.184   5.704   7.010  1.1058  0.0993 -0.0390
  166MOL0     O22276   4.633   6.707   4.221  0.0988 -0.3980 -0.3209
  166MOL0     C22277   4.646   6.686   4.102  0.0798  0.0039 -0.6431
  166MOL0     O22278   4.548   6.658   4.012  0.2560  0.0883 -0.1280
  166MOL0     C22279   4.417   6.628   4.035  1.0587  0.3694  0.4707
  166MOL0     C22280   4.373   6.587   4.162 -0.2265  0.5254 -0.1858
  166MOL0     C22281   4.250   6.531   4.186  0.3726 -0.3792 -0.2258
  166MOL0     C22282   4.152   6.534   4.082  0.6952  0.2467 -0.0099
  166MOL0     O22283   4.013   6.501   4.099 -0.5221  0.2155 -0.3666
  166MOL0     C22284   3.963   6.476   4.231  1.2072 -0.0223 -0.1849
  166MOL0     C22285   3.803   6.477   4.212 -0.5756 -0.5345  0.3880
  166MOL0     C22286   3.736   6.449   4.348 -0.3608  0.5863  0.0814
  166MOL0     C22287   3.587   6.432   4.323  0.6902 -0.0439 -0.9211
  166MOL0     C22288   3.517   6.426   4.461  0.4362  0.6866  0.6930
  166MOL0     C22289   3.368   6.394   4.435 -0.6192  0.1667 -0.3612
  166MOL0     C22290   3.294   6.423   4.562 -0.4949 -0.6584  0.0524
  166MOL0     C22291   3.146   6.383   4.546  0.4230  0.0754  0.0684
  166MOL0     N22292   3.071   6.404   4.674 -0.9694 -0.6150 -0.2504
  166MOL0     C22293   3.056   6.532   4.724  0.2285  0.4323  0.5896
  166MOL0     C22294   2.978   6.513   4.832 -0.0012 -1.2694  0.0232
  166MOL0     C22295   2.954   6.618   4.940  0.1918  0.5337  0.1218
  166MOL0     C22296   2.805   6.643   4.952 -1.0362  0.0404 -0.5947
  166MOL0     C22297   2.767   6.738   4.847 -0.6401 -0.1474  0.6174
  166MOL0     C22298   2.617   6.773   4.875  0.0545 -0.5734  0.3088
  166MOL0     O22299   2.555   6.822   4.751  0.4285 -0.2164 -0.3648
  166MOL0     C22300   2.419   6.843   4.741 -0.0200  0.6927  0.4461
  166MOL0     C22301   2.343   6.856   4.856 -0.2631 -1.1557  0.6802
  166MOL0     C22302   2.204   6.864   4.838  0.8385 -0.5124 -0.2464
  166MOL0     C22303   2.128   6.893   4.972  0.6742  0.6137  0.1210
  166MOL0     C22304   2.141   6.878   4.708  0.6351 -0.3020  1.0619
  166MOL0     C22305   1.996   6.907   4.677 -0.4684 -0.6111  0.9564
  166MOL0     O22306   1.911   6.899   4.783  0.0604 -0.6027  0.2530
  166MOL0     C22307   1.773   6.915   4.762  0.0648 -0.0901  0.1649
  166MOL0     C22308   1.700   6.830   4.840 -0.1640  0.4631  0.7896
  166MOL0     C22309   1.564   6.824   4.833  0.8289  0.5210 -0.6587
  166MOL0     C22310   1.490   6.918   4.760  0.1408  0.1852  0.8232
  166MOL0     O22311   1.355   6.926   4.757 -0.1240  0.8940 -0.6183
  166MOL0     C22312   1.298   7.013   4.865 -0.3819 -0.1449  0.3866
  166MOL0     C22313   1.201   7.114   4.797  0.1134  0.2175 -0.9695
  166MOL0     C22314   1.074   7.056   4.737  0.0832 -0.1644 -0.6851
  166MOL0     C22315   0.979   7.016   4.853 -0.7361  0.4345  0.1549
  166MOL0     C22316   0.862   6.938   4.798  0.4916 -0.4694  0.5073
  166MOL0     C22317   0.724   6.972   4.868 -0.1202 -0.2506 -0.0356
  166MOL0     C22318   0.616   6.917   4.783  0.3736 -0.8092  1.0334
  166MOL0     C22319   0.487   6.954   4.854  0.5976  0.1477  0.3793
  166MOL0    Cl22320   0.336   6.923   4.754  0.1510  0.5182 -0.3476
  166MOL0     C22321   1.565   7.011   4.686  0.3356 -0.1540  0.3845
  166MOL0     C22322   1.705   7.005   4.675 -0.9398  0.1199 -0.1766
  166MOL0     O22323   1.971   6.950   4.564  0.3229  0.1235  0.3216
  166MOL0     C22324   2.230   6.880   4.600  0.3218  0.5938 -0.6722
  166MOL0     C22325   2.363   6.854   4.616  0.0204 -0.6508 -0.3740
  166MOL0     N22326   2.958   6.379   4.849 -0.3699  0.7839  0.1117
  166MOL0     N22327   3.011   6.309   4.756  0.7674 -0.1580  0.1052
  166MOL0     C22328   4.182   6.567   3.951 -0.5399  0.4038 -0.2440
  166MOL0     C22329   4.320   6.617   3.926  0.3688  0.9793 -0.4187
  166MOL0     C22330   4.782   6.667   4.062  0.2953  0.1970  0.3189
  166MOL0     C22331   4.828   6.719   3.940 -0.1104  0.7470 -0.4420
  166MOL0     C22332   4.959   6.683   3.898 -0.1134 -0.1079 -0.0926
  166MOL0     C22333   5.048   6.613   3.985  0.7539  0.1327 -0.9964
  166MOL0     O22334   5.174   6.608   3.937 -0.2387  0.7142 -0.6112
  166MOL0     C22335   5.268   6.544   4.021 -0.3320  0.1993 -0.2763
  166MOL0     C22336   5.407   6.551   3.957  0.0544 -0.5083  0.6473
  166MOL0     C22337   5.502   6.462   4.044 -0.3780  1.2885 -0.1445
  166MOL0     C22338   5.643   6.454   3.998  0.4976 -0.2555  0.2164
  166MOL0     C22339   5.715   6.341   4.072 -0.9065  0.6561 -0.6874
  166MOL0     C22340   5.752   6.239   4.139  0.5619  0.0561  0.5097
  166MOL0     C22341   5.006   6.576   4.114  0.2910  0.1678 -0.6661
  166MOL0     C22342   4.868   6.601   4.149 -0.6057  0.3226  0.1053
  166MOL0     H22343   4.433   6.596   4.252  0.2594 -0.7528 -0.3639
  166MOL0     H22344   4.218   6.501   4.286  0.1834 -0.0906 -0.1955
  166MOL0     H22345   3.991   6.377   4.268 -1.6023 -1.2899 -1.1611
  166MOL0     H22346   3.994   6.557   4.297  0.4681  3.4057 -3.6398
  166MOL0     H22347   3.772   6.579   4.185 -2.4182 -1.0354  0.5426
  166MOL0     H22348   3.782   6.400   4.138  0.2995 -0.3859 -0.0290
  166MOL0     H22349   3.777   6.352   4.378  0.8484 -0.1103 -3.3638
  166MOL0     H22350   3.731   6.525   4.426 -0.8270 -1.5610  2.2613
  166MOL0     H22351   3.541   6.517   4.272  0.2958  2.4112  3.1218
  166MOL0     H22352   3.566   6.353   4.250 -0.8264 -2.3829  1.8297
  166MOL0     H22353   3.550   6.347   4.528 -2.9269 -0.6728  0.9444
  166MOL0     H22354   3.521   6.526   4.505  0.4867  0.1982  1.8235
  166MOL0     H22355   3.323   6.450   4.352 -0.2848 -0.4667 -0.9821
  166MOL0     H22356   3.351   6.290   4.404 -0.6700 -0.4903  1.7684
  166MOL0     H22357   3.336   6.372   4.648  0.9726  1.1115  0.4568
  166MOL0     H22358   3.296   6.528   4.593  1.2224 -0.9588  1.0730
  166MOL0     H22359   3.132   6.278   4.520 -3.1952  0.5055 -0.2288
  166MOL0     H22360   3.098   6.446   4.470 -0.4406  1.5322  1.7550
  166MOL0     H22361   3.108   6.619   4.685  3.4363 -1.7709 -0.5249
  166MOL0     H22362   2.989   6.601   5.042 -0.5890 -3.1215 -0.0835
  166MOL0     H22363   3.005   6.712   4.913  0.5623 -0.3260 -2.5061
  166MOL0     H22364   2.787   6.687   5.051  0.0143 -1.4425  0.2948
  166MOL0     H22365   2.749   6.549   4.947  1.2604 -1.4192 -0.1748
  166MOL0     H22366   2.789   6.692   4.751  0.9978 -0.9568  1.3520
  166MOL0     H22367   2.814   6.837   4.851 -1.6074  0.5431 -2.3557
  166MOL0     H22368   2.609   6.845   4.957  0.3471 -0.8014  0.5452
  166MOL0     H22369   2.563   6.680   4.897 -2.4428  0.4719 -1.0232
  166MOL0     H22370   2.399   6.862   4.949 -0.6895 -0.4364  0.8952
  166MOL0     H22371   2.096   6.997   4.981 -0.1698  0.4103 -0.4678
  166MOL0     H22372   2.039   6.830   4.980  0.2719  1.1636  0.0113
  166MOL0     H22373   2.197   6.865   5.053  0.8748  0.5478 -0.0716
  166MOL0     H22374   1.746   6.752   4.900 -1.5148  0.7208  2.2198
  166MOL0     H22375   1.519   6.748   4.897  0.4165 -0.3462 -1.9294
  166MOL0     H22376   1.243   6.952   4.938 -2.0134  1.2131  0.3471
  166MOL0     H22377   1.380   7.058   4.922  0.9229 -0.2500 -1.3481
  166MOL0     H22378   1.175   7.187   4.873 -2.2281 -1.0685 -0.4210
  166MOL0     H22379   1.247   7.164   4.711 -1.2254  2.4887 -0.4361
  166MOL0     H22380   1.075   6.961   4.684 -1.7678  0.0482 -1.1876
  166MOL0     H22381   1.023   7.129   4.674 -2.7648 -1.3311  0.1063
  166MOL0     H22382   1.035   6.955   4.925  2.7096  4.4145  1.2389
  166MOL0     H22383   0.953   7.113   4.895  0.0506  0.8027 -0.1916
  166MOL0     H22384   0.873   6.829   4.800 -1.2513 -0.7765 -1.5804
  166MOL0     H22385   0.848   6.965   4.693 -0.7511  0.3320  0.8527
  166MOL0     H22386   0.729   6.920   4.964  0.2734  1.4477  0.8969
  166MOL0     H22387   0.714   7.080   4.880 -0.9947 -0.3263 -0.0205
  166MOL0     H22388   0.620   6.809   4.769  2.6455 -0.6782  0.2516
  166MOL0     H22389   0.621   6.963   4.684  0.7880 -0.6567  1.1237
  166MOL0     H22390   0.483   7.058   4.886 -1.5591  0.0429  0.6283
  166MOL0     H22391   0.468   6.891   4.942  1.7265  1.6043  1.7195
  166MOL0     H22392   1.510   7.085   4.629 -2.1382 -0.5800  2.0262
  166MOL0     H22393   1.761   7.067   4.606 -0.5290  1.4681  1.3071
  166MOL0     H22394   2.189   6.888   4.500 -6.2720 -1.7644  1.2873
  166MOL0     H22395   2.428   6.837   4.530  1.1911 -1.5200  0.6605
  166MOL0     H22396   4.107   6.562   3.873 -1.7625  1.5395  0.8060
  166MOL0     H22397   4.347   6.636   3.823  0.6733 -1.4660 -0.8338
  166MOL0     H22398   4.766   6.790   3.886  1.7377  2.5262 -0.3377
  166MOL0     H22399   4.995   6.691   3.796 -3.3520 -0.8620 -1.4125
  166MOL0     H22400   5.263   6.596   4.117 -1.2618 -1.5082  0.6444
  166MOL0     H22401   5.242   6.439   4.039 -3.7965  0.9874 -0.0421
  166MOL0     H22402   5.447   6.653   3.950  1.6443 -1.1550 -0.2670
  166MOL0     H22403   5.417   6.515   3.854  0.5169  1.0620  0.1108
  166MOL0     H22404   5.458   6.363   4.057 -0.6104  1.7156  3.5591
  166MOL0     H22405   5.500   6.501   4.146 -1.5182 -0.2825  0.4658
  166MOL0     H22406   5.688   6.553   4.007  0.2228 -0.0220 -0.8909
  166MOL0     H22407   5.636   6.425   3.893  3.1632 -0.1518 -0.0486
  166MOL0     H22408   5.789   6.149   4.184 -3.3405 -2.0770 -0.0584
  166MOL0     H22409   5.072   6.537   4.191 -0.4082 -1.5551 -0.9108
  166MOL0     H22410   4.839   6.569   4.249  0.9056  1.8032  1.0663
  167MOL0     O22411   9.255   0.398   2.835 -0.3516 -0.1446 -1.0976
  167MOL0     C22412   9.329   0.381   2.733 -0.2592 -0.6747  0.2769
  167MOL0     O22413   9.286   0.396   2.603  0.7411 -0.5691 -0.0379
  167MOL0     C22414   9.165   0.444   2.563  0.0556 -0.0824 -0.0690
  167MOL0     C22415   9.093   0.536   2.633  1.2011 -0.3822 -0.0332
  167MOL0     C22416   8.966   0.575   2.595 -0.8693  0.9021 -0.4511
  167MOL0     C22417   8.902   0.518   2.479  0.0251 -0.0403 -0.2012
  167MOL0     O22418   8.770   0.555   2.458  0.0652  0.5159 -0.7172
  167MOL0     C22419   8.681   0.450   2.404  0.3826 -0.0279  0.3288
  167MOL0     C22420   8.613   0.496   2.274 -0.0176 -0.1174  0.0498
  167MOL0     C22421   8.503   0.591   2.309  0.8947 -0.1403 -0.2755
  167MOL0     C22422   8.449   0.668   2.189 -0.7236 -0.0489 -0.6562
  167MOL0     C22423   8.333   0.757   2.224 -0.2463 -0.8038 -0.5891
  167MOL0     C22424   8.243   0.777   2.101 -0.2034  0.5058 -0.5336
  167MOL0     C22425   8.117   0.857   2.141 -0.0325 -0.0546  1.1364
  167MOL0     C22426   8.052   0.911   2.017  0.5868  0.6007  0.2936
  167MOL0     N22427   7.909   0.941   2.030 -1.0349 -0.7297  0.2641
  167MOL0     C22428   7.800   0.860   2.032  0.0256 -0.2414  0.0894
  167MOL0     C22429   7.689   0.943   2.054 -0.6904 -0.6039 -0.3841
  167MOL0     C22430   7.548   0.913   2.068  0.1956 -0.2311  0.4316
  167MOL0     C22431   7.503   0.901   2.211  0.5640 -0.0302 -0.1219
  167MOL0     C22432   7.504   1.023   2.305 -0.4175  0.8951  0.7813
  167MOL0     C22433   7.461   0.992   2.447  0.6670  0.4644 -0.3795
  167MOL0     O22434   7.419   1.109   2.515 -0.3865  0.2784  0.7319
  167MOL0     C22435   7.290   1.145   2.491  0.7101  0.1550  0.3209
  167MOL0     C22436   7.193   1.071   2.554  0.2935 -0.1683 -0.1514
  167MOL0     C22437   7.060   1.088   2.532  0.0545 -0.0877 -0.1587
  167MOL0     C22438   6.952   0.997   2.591  0.1730 -0.8129  0.5643
  167MOL0     C22439   7.022   1.198   2.450  0.0824 -0.3542 -0.5230
  167MOL0     C22440   6.886   1.235   2.421 -0.3126  0.2009  0.7569
  167MOL0     O22441   6.847   1.348   2.469  0.0794  0.0918  0.2943
  167MOL0     C22442   6.719   1.393   2.439  0.7696 -0.0984  0.8847
  167MOL0     C22443   6.705   1.532   2.436 -0.6472 -0.0391  0.2729
  167MOL0     C22444   6.579   1.595   2.410 -0.2574  0.8497 -0.1352
  167MOL0     C22445   6.460   1.510   2.419  0.6710  0.1349  0.0024
  167MOL0     O22446   6.326   1.552   2.394 -0.0661 -0.3468  0.5805
  167MOL0     C22447   6.294   1.690   2.374  0.5713  0.1403 -0.2706
  167MOL0     C22448   6.144   1.713   2.387 -0.2803 -0.1310  0.7580
  167MOL0     C22449   6.092   1.834   2.312  0.2388  0.9234 -0.1208
  167MOL0     C22450   5.944   1.831   2.308 -0.0273 -0.3566 -0.1250
  167MOL0     C22451   5.897   1.969   2.259  0.1858  0.1705 -0.5117
  167MOL0     C22452   5.745   1.983   2.237 -0.1865 -0.1223  0.0882
  167MOL0     C22453   5.646   1.946   2.357  0.0698 -1.1146 -0.5565
  167MOL0     C22454   5.538   2.055   2.399  0.0644  0.1488  0.3856
  167MOL0    Cl22455   5.409   1.960   2.480 -0.5130  0.0471  0.1549
  167MOL0     C22456   6.475   1.379   2.446  0.0353  1.0623 -0.2791
  167MOL0     C22457   6.601   1.321   2.451  0.1855 -0.5093  0.1404
  167MOL0     O22458   6.821   1.163   2.357 -0.1634  0.0566  0.8262
  167MOL0     C22459   7.121   1.286   2.395  0.1091 -0.1343  0.6363
  167MOL0     C22460   7.252   1.253   2.409  0.2047 -0.4439  0.6214
  167MOL0     N22461   7.735   1.074   2.055 -0.2604  0.2343 -0.0635
  167MOL0     N22462   7.864   1.069   2.034 -0.7919 -0.2225  0.5482
  167MOL0     C22463   8.979   0.434   2.397  0.1030  0.2383 -0.2726
  167MOL0     C22464   9.104   0.395   2.435 -0.9573 -0.2185  1.0884
  167MOL0     C22465   9.471   0.327   2.750  0.0555 -0.3003 -0.4253
  167MOL0     C22466   9.533   0.333   2.874 -0.1729  0.5237  0.2038
  167MOL0     C22467   9.668   0.300   2.893 -0.0505 -0.0097  0.7699
  167MOL0     C22468   9.745   0.264   2.782  0.4016  1.1272  0.9633
  167MOL0     O22469   9.877   0.231   2.776  0.0446  0.7146 -0.5438
  167MOL0     C22470   9.947   0.226   2.903  0.8892  0.1185 -0.0786
  167MOL0     C22471  10.089   0.167   2.897  0.6707  0.2597  0.9859
  167MOL0     C22472  10.152   0.181   3.032  0.8895 -1.0555 -0.1015
  167MOL0     C22473  10.302   0.132   3.028  0.7083  0.1471 -0.0082
  167MOL0     C22474  10.393   0.184   2.920  0.5178  0.0548 -0.2709
  167MOL0     C22475  10.465   0.243   2.845  0.3140 -0.3381  0.1043
  167MOL0     C22476   9.688   0.259   2.654 -0.5792 -0.0292  0.2628
  167MOL0     C22477   9.550   0.282   2.639  1.1580 -0.2275 -0.1814
  167MOL0     H22478   9.132   0.563   2.731 -1.9692  0.9121  0.9820
  167MOL0     H22479   8.917   0.641   2.664 -0.8192  0.3194  0.1530
  167MOL0     H22480   8.745   0.362   2.391  3.2973  1.8099  1.3804
  167MOL0     H22481   8.609   0.435   2.484  1.4274 -2.9788  0.8318
  167MOL0     H22482   8.683   0.546   2.205  1.4563 -1.0028  0.8445
  167MOL0     H22483   8.578   0.407   2.221  0.8515 -1.3714  1.4749
  167MOL0     H22484   8.426   0.521   2.344  0.4223  1.1551  1.3719
  167MOL0     H22485   8.546   0.658   2.383 -3.1255  2.9445 -0.3824
  167MOL0     H22486   8.530   0.734   2.158  0.4743 -0.3040  1.6728
  167MOL0     H22487   8.421   0.601   2.108 -2.2171 -0.6859  0.3253
  167MOL0     H22488   8.285   0.719   2.315  0.7162  0.1858  0.3706
  167MOL0     H22489   8.381   0.850   2.257 -0.0190 -1.4137  0.9000
  167MOL0     H22490   8.311   0.829   2.033  0.2991  0.8898  0.2540
  167MOL0     H22491   8.205   0.682   2.063 -0.9047  0.4866  0.1863
  167MOL0     H22492   8.051   0.784   2.189 -0.9906  0.7415  1.0623
  167MOL0     H22493   8.144   0.936   2.211  2.8178 -1.9922  2.4116
  167MOL0     H22494   8.064   0.834   1.940  0.6155 -0.3560  1.2235
  167MOL0     H22495   8.111   0.996   1.982  0.5913  1.0725  1.4202
  167MOL0     H22496   7.793   0.752   2.033  3.1482 -0.5540  1.6683
  167MOL0     H22497   7.492   0.992   2.018  1.9595  0.0515 -1.2041
  167MOL0     H22498   7.529   0.824   2.007  2.0935 -0.0162 -0.5427
  167MOL0     H22499   7.567   0.833   2.268  1.0519 -0.8703 -1.6136
  167MOL0     H22500   7.409   0.844   2.207  0.5845 -0.3777  2.5072
  167MOL0     H22501   7.436   1.093   2.255 -0.8948  0.2264  0.4823
  167MOL0     H22502   7.607   1.057   2.307 -0.5205  1.2779 -0.0816
  167MOL0     H22503   7.542   0.941   2.501  0.8841 -0.4141 -1.5043
  167MOL0     H22504   7.379   0.920   2.447  1.1890 -0.2063  1.7584
  167MOL0     H22505   7.220   0.994   2.626  1.5233  2.2872  2.1576
  167MOL0     H22506   6.891   0.950   2.514  0.3308  1.0774 -0.7997
  167MOL0     H22507   7.010   0.916   2.635  1.3031 -0.2282  0.1993
  167MOL0     H22508   6.883   1.042   2.664 -0.6623  1.2705 -1.3668
  167MOL0     H22509   6.789   1.599   2.447 -1.9466  1.5078  1.3077
  167MOL0     H22510   6.569   1.697   2.376 -0.2192  0.8786 -0.0587
  167MOL0     H22511   6.342   1.750   2.452  0.1295 -1.8740  1.6391
  167MOL0     H22512   6.336   1.712   2.275 -0.4285  0.0132 -0.7373
  167MOL0     H22513   6.094   1.625   2.344 -1.9418  2.1077 -2.2276
  167MOL0     H22514   6.114   1.712   2.493  0.8593 -0.5359  1.0969
  167MOL0     H22515   6.134   1.835   2.211 -1.9676 -1.0681 -1.1626
  167MOL0     H22516   6.114   1.925   2.369 -0.2010  0.9282  0.0389
  167MOL0     H22517   5.918   1.753   2.236 -2.2400  0.6285 -0.4736
  167MOL0     H22518   5.901   1.809   2.407  0.5965 -1.5475 -0.0987
  167MOL0     H22519   5.948   1.984   2.163  0.1625 -0.3420 -0.6040
  167MOL0     H22520   5.933   2.050   2.323  0.6242 -1.1637  0.9996
  167MOL0     H22521   5.720   2.088   2.219 -1.7076 -0.3411  0.7758
  167MOL0     H22522   5.723   1.925   2.147  0.9967  1.8314 -1.5384
  167MOL0     H22523   5.699   1.921   2.449  1.1107  0.9855 -0.5126
  167MOL0     H22524   5.591   1.856   2.328 -1.9343  0.0559 -0.5514
  167MOL0     H22525   5.499   2.111   2.313  1.3338  0.0318 -0.2908
  167MOL0     H22526   5.586   2.121   2.472 -2.2469  1.5562  0.7274
  167MOL0     H22527   6.385   1.318   2.453 -1.0713  2.6986  0.1982
  167MOL0     H22528   6.614   1.213   2.455  2.2497 -0.5680 -3.4340
  167MOL0     H22529   7.094   1.365   2.326 -1.7693 -3.1257 -2.3889
  167MOL0     H22530   7.332   1.316   2.372  0.1976 -1.9059 -2.1787
  167MOL0     H22531   8.946   0.385   2.305  0.4896 -1.6487  0.5464
  167MOL0     H22532   9.159   0.333   2.365 -0.2874  1.4217  0.0983
  167MOL0     H22533   9.473   0.354   2.962  0.2989 -2.6200  1.3962
  167MOL0     H22534   9.712   0.323   2.989  4.0269  0.8270 -1.1012
  167MOL0     H22535   9.955   0.328   2.941  1.0324  1.3002 -3.0034
  167MOL0     H22536   9.887   0.167   2.972 -0.3758 -0.8884 -1.9474
  167MOL0     H22537  10.131   0.232   2.820 -1.5486  0.1385 -0.4166
  167MOL0     H22538  10.084   0.060   2.872 -2.4741  0.5271  0.0695
  167MOL0     H22539  10.094   0.128   3.108  1.7389 -0.2414  1.1571
  167MOL0     H22540  10.151   0.283   3.071 -0.4871 -1.9623  2.5202
  167MOL0     H22541  10.309   0.024   3.011 -1.4117  0.2645 -2.3121
  167MOL0     H22542  10.344   0.159   3.125  1.7308 -1.4479  0.0162
  167MOL0     H22543  10.522   0.285   2.764 -3.9615  2.0305 -2.0350
  167MOL0     H22544   9.752   0.224   2.573  0.7656 -2.1404  2.1254
  167MOL0     H22545   9.496   0.258   2.548  1.1381  0.5282 -0.3770
  168MOL0     O22546   7.060   2.696   8.943 -0.2202 -0.1720 -0.0618
  168MOL0     C22547   7.111   2.587   8.901 -0.9179 -0.3451  0.6304
  168MOL0     O22548   7.055   2.476   8.849  0.3371 -0.4309  0.1807
  168MOL0     C22549   6.919   2.463   8.842  0.0893 -0.3794  0.1853
  168MOL0     C22550   6.834   2.499   8.949  0.2175  0.4918  0.3284
  168MOL0     C22551   6.699   2.462   8.944  0.0013 -0.4255 -0.4996
  168MOL0     C22552   6.647   2.405   8.831  0.5763  0.3798 -0.9770
  168MOL0     O22553   6.514   2.364   8.848 -0.1277  0.0462  0.2516
  168MOL0     C22554   6.443   2.326   8.734 -0.5795  0.4735  0.0091
  168MOL0     C22555   6.300   2.280   8.777  1.1931  0.3716 -0.8030
  168MOL0     C22556   6.223   2.407   8.802 -0.1764 -0.4713  0.2701
  168MOL0     C22557   6.081   2.376   8.851  0.6098 -1.0257 -0.8526
  168MOL0     C22558   5.981   2.373   8.735 -0.1873 -0.3591 -0.3192
  168MOL0     C22559   5.946   2.506   8.681 -0.1202 -0.1439  0.1983
  168MOL0     C22560   5.817   2.503   8.594 -0.8343  0.6022 -0.5390
  168MOL0     C22561   5.779   2.627   8.518  1.0149  0.3240 -0.2241
  168MOL0     N22562   5.665   2.602   8.427  0.2380  0.4309 -0.2935
  168MOL0     C22563   5.673   2.519   8.313  0.5333 -1.2252 -0.2037
  168MOL0     C22564   5.550   2.527   8.259  0.4311  0.2827 -0.3729
  168MOL0     C22565   5.501   2.449   8.145  0.0431 -0.5293 -0.2692
  168MOL0     C22566   5.368   2.378   8.175  0.5075  0.0276 -0.7274
  168MOL0     C22567   5.381   2.274   8.292 -0.3486  0.0941  0.5329
  168MOL0     C22568   5.257   2.196   8.323 -1.0346  0.2121 -0.5523
  168MOL0     O22569   5.211   2.134   8.208  0.1721 -0.0841 -0.2094
  168MOL0     C22570   5.095   2.057   8.225  0.8134 -0.0433 -0.4628
  168MOL0     C22571   5.094   1.932   8.164 -0.1072 -0.3985 -0.4260
  168MOL0     C22572   4.984   1.848   8.174 -0.1728  0.1310 -0.7358
  168MOL0     C22573   4.993   1.724   8.092  0.6649  0.3595  0.1520
  168MOL0     C22574   4.874   1.887   8.246  0.7871 -0.0099  0.4817
  168MOL0     C22575   4.740   1.807   8.240 -0.2850  0.3676 -0.7409
  168MOL0     O22576   4.715   1.705   8.152 -0.1494 -0.0227 -0.2129
  168MOL0     C22577   4.588   1.658   8.135  1.3122  0.0973  0.3068
  168MOL0     C22578   4.469   1.726   8.164  0.3329 -0.2537  1.3928
  168MOL0     C22579   4.347   1.670   8.136 -0.3214  0.0312  0.0139
  168MOL0     C22580   4.333   1.536   8.095  0.1908  1.3061 -0.5705
  168MOL0     O22581   4.225   1.463   8.072  0.2363 -0.5273 -0.1882
  168MOL0     C22582   4.104   1.535   8.094  0.6305 -0.8724 -0.1803
  168MOL0     C22583   3.983   1.438   8.093 -1.0822  0.0854  0.1667
  168MOL0     C22584   3.991   1.313   8.182 -0.0241 -0.1670 -0.5780
  168MOL0     C22585   3.848   1.282   8.235  0.1068  0.7277 -0.5182
  168MOL0     C22586   3.837   1.160   8.326  0.5663  0.2011  0.6106
  168MOL0     C22587   3.883   1.186   8.464  0.1105 -0.1142 -0.1393
  168MOL0     C22588   3.851   1.069   8.561  0.3828  0.0737  1.0178
  168MOL0     C22589   3.977   1.035   8.637 -0.3113  0.5180  0.2574
  168MOL0    Cl22590   4.048   1.172   8.739  0.4292  0.0529  0.5065
  168MOL0     C22591   4.445   1.467   8.071  0.1706 -0.0220 -0.2041
  168MOL0     C22592   4.574   1.526   8.090  0.2045  0.4832  0.1401
  168MOL0     O22593   4.669   1.842   8.334  0.1684  0.4895 -0.5477
  168MOL0     C22594   4.877   2.013   8.328  0.1802  0.8164  0.5911
  168MOL0     C22595   4.985   2.093   8.309  0.2152 -0.4499 -0.4072
  168MOL0     N22596   5.467   2.614   8.336 -0.0136 -0.3453 -0.2842
  168MOL0     N22597   5.540   2.653   8.434  0.5643  0.4125  0.4172
  168MOL0     C22598   6.727   2.392   8.715  0.5705  0.3057 -0.0147
  168MOL0     C22599   6.861   2.424   8.723 -0.0198  0.3765 -0.5257
  168MOL0     C22600   7.257   2.586   8.894  0.2617  0.3052  0.2345
  168MOL0     C22601   7.332   2.710   8.892 -0.2201 -1.0039  0.1012
  168MOL0     C22602   7.468   2.702   8.892 -0.3963  0.2438  0.6653
  168MOL0     C22603   7.543   2.590   8.910 -0.0174  0.7390 -0.0872
  168MOL0     O22604   7.678   2.593   8.921  0.3261 -0.1740 -0.1169
  168MOL0     C22605   7.761   2.482   8.893 -0.6612  0.0898  0.2134
  168MOL0     C22606   7.891   2.537   8.853  0.5226  0.0381  0.2062
  168MOL0     C22607   7.967   2.619   8.957 -0.2926 -0.7096 -0.1251
  168MOL0     C22608   8.100   2.667   8.900 -0.2972  0.5058 -0.2379
  168MOL0     C22609   8.094   2.801   8.841  0.3750 -0.4562 -0.2449
  168MOL0     C22610   8.080   2.915   8.798 -0.1105 -0.4453  0.4176
  168MOL0     C22611   7.474   2.467   8.894  0.3754 -0.6123 -0.5839
  168MOL0     C22612   7.333   2.463   8.886 -0.4838  0.0927  0.6375
  168MOL0     H22613   6.874   2.538   9.042  0.8559 -1.8116  1.0947
  168MOL0     H22614   6.641   2.465   9.036  0.8139 -2.2211  0.1167
  168MOL0     H22615   6.434   2.415   8.671 -2.1498  0.3714  0.0588
  168MOL0     H22616   6.505   2.254   8.678  3.2195  2.9673  0.6113
  168MOL0     H22617   6.256   2.217   8.699  0.2068 -0.7460  0.6121
  168MOL0     H22618   6.294   2.220   8.868 -0.3990  2.3833  0.5059
  168MOL0     H22619   6.268   2.485   8.864 -1.7532  1.4301 -0.8371
  168MOL0     H22620   6.222   2.462   8.707  0.7685  1.9924  1.5880
  168MOL0     H22621   6.075   2.289   8.916  1.9571 -1.1446 -0.8606
  168MOL0     H22622   6.059   2.462   8.915  3.0291  0.0478 -1.3637
  168MOL0     H22623   6.019   2.306   8.657  0.8476 -0.7981  0.5329
  168MOL0     H22624   5.889   2.327   8.771  1.3316 -1.9975  1.7100
  168MOL0     H22625   5.930   2.584   8.756 -0.7444 -0.1753  0.1053
  168MOL0     H22626   6.037   2.528   8.624 -0.4156  1.1082  0.1937
  168MOL0     H22627   5.831   2.419   8.525  2.7872  0.6475 -0.0815
  168MOL0     H22628   5.737   2.476   8.663  1.6167 -3.1731  1.1485
  168MOL0     H22629   5.865   2.657   8.458  1.6075 -0.4204  0.2247
  168MOL0     H22630   5.750   2.710   8.583 -1.6116  0.7262 -1.7311
  168MOL0     H22631   5.747   2.446   8.284  1.0053 -1.4117  1.3483
  168MOL0     H22632   5.482   2.514   8.059  0.4770 -0.1180 -0.0545
  168MOL0     H22633   5.577   2.376   8.116  0.8959  0.8610 -1.7022
  168MOL0     H22634   5.327   2.324   8.089 -0.1266 -1.2482  0.3418
  168MOL0     H22635   5.291   2.446   8.211  0.8448 -0.4329  0.9545
  168MOL0     H22636   5.421   2.319   8.384 -2.7094 -2.5507  3.0901
  168MOL0     H22637   5.446   2.192   8.260  0.0338  0.9837 -1.0761
  168MOL0     H22638   5.188   2.272   8.359 -0.2378  0.2245  1.0464
  168MOL0     H22639   5.278   2.124   8.403 -1.4733  1.5471  0.8127
  168MOL0     H22640   5.175   1.908   8.096 -0.4781  1.1212 -1.4336
  168MOL0     H22641   5.100   1.705   8.075  0.9236  0.6054  1.3902
  168MOL0     H22642   4.950   1.633   8.135  0.4175  0.0196 -0.7999
  168MOL0     H22643   4.937   1.744   8.000 -0.2783  0.7528  0.8011
  168MOL0     H22644   4.471   1.824   8.211  2.5944  1.2990 -1.5952
  168MOL0     H22645   4.255   1.720   8.165 -2.5706 -1.9070 -3.1697
  168MOL0     H22646   4.100   1.583   8.192  1.8966 -2.0433  0.4956
  168MOL0     H22647   4.086   1.602   8.010 -0.7839  2.7803  2.7726
  168MOL0     H22648   3.888   1.493   8.104 -0.7738  1.0394 -1.6221
  168MOL0     H22649   3.982   1.409   7.988  2.8340  1.9283 -0.5586
  168MOL0     H22650   4.045   1.337   8.274 -2.2141  0.7668  0.5665
  168MOL0     H22651   4.042   1.237   8.123 -1.7508 -0.4847 -1.7308
  168MOL0     H22652   3.800   1.364   8.289 -1.3374 -0.4870  0.1158
  168MOL0     H22653   3.784   1.263   8.148 -1.8176  0.8790  0.8090
  168MOL0     H22654   3.896   1.083   8.275  2.6030  0.3652  2.5611
  168MOL0     H22655   3.735   1.122   8.337  0.3939  0.8614  1.3149
  168MOL0     H22656   3.989   1.212   8.456 -0.5791  2.2835 -3.6826
  168MOL0     H22657   3.837   1.272   8.514 -0.4567 -1.1899  1.2709
  168MOL0     H22658   3.817   0.983   8.503  3.9527 -0.3286 -0.7153
  168MOL0     H22659   3.778   1.118   8.627  2.4741  2.0362  1.9974
  168MOL0     H22660   4.062   1.003   8.577 -0.7332  1.5027 -0.9116
  168MOL0     H22661   3.965   0.947   8.701  2.4112 -0.2554 -0.1987
  168MOL0     H22662   4.436   1.364   8.039  0.4962 -0.7848  1.9840
  168MOL0     H22663   4.666   1.472   8.070 -0.2033 -0.6283  1.1567
  168MOL0     H22664   4.792   2.048   8.386 -0.4155 -0.4420  0.5217
  168MOL0     H22665   4.989   2.186   8.365 -0.6779 -0.5065 -0.2330
  168MOL0     H22666   6.681   2.368   8.620 -0.8180 -0.3042  0.7818
  168MOL0     H22667   6.932   2.415   8.642 -1.8642 -0.0344 -2.1596
  168MOL0     H22668   7.289   2.808   8.907 -2.3498 -2.0404  1.3451
  168MOL0     H22669   7.507   2.803   8.890 -0.8521  0.6453  4.4668
  168MOL0     H22670   7.770   2.397   8.960 -1.7056 -0.6094 -0.5001
  168MOL0     H22671   7.732   2.432   8.800 -0.8037  2.2831 -0.9890
  168MOL0     H22672   7.867   2.595   8.764  0.6296 -0.5582 -0.2178
  168MOL0     H22673   7.958   2.458   8.819  2.2237  1.6699 -0.3965
  168MOL0     H22674   7.992   2.569   9.051 -1.4795 -2.9297 -0.9213
  168MOL0     H22675   7.901   2.706   8.963  0.6820  0.0958 -0.7182
  168MOL0     H22676   8.152   2.596   8.836  2.7039  0.1901  2.3233
  168MOL0     H22677   8.164   2.697   8.983 -0.8563  2.9933 -0.6045
  168MOL0     H22678   8.073   3.014   8.759 -0.4775 -0.4164  0.5496
  168MOL0     H22679   7.529   2.377   8.869  0.2556 -0.9224  0.2414
  168MOL0     H22680   7.282   2.368   8.873  0.4628 -0.1497 -1.8669
  169MOL0     O22681   5.399   8.409   2.438  0.7921 -0.4266  0.6130
  169MOL0     C22682   5.321   8.363   2.522 -0.0416 -0.2860  0.9190
  169MOL0     O22683   5.345   8.348   2.658  0.0811  0.8818 -0.6971
  169MOL0     C22684   5.451   8.416   2.703 -0.0561 -0.4610 -0.3079
  169MOL0     C22685   5.568   8.345   2.738  0.0465  0.1668  0.7209
  169MOL0     C22686   5.682   8.413   2.781 -0.7636  0.0556  0.3293
  169MOL0     C22687   5.687   8.554   2.795 -0.1491 -0.6291  0.9076
  169MOL0     O22688   5.797   8.633   2.842 -0.5068  0.3967 -0.1777
  169MOL0     C22689   5.923   8.560   2.856 -0.0174 -0.4365  0.0125
  169MOL0     C22690   5.937   8.500   2.994 -0.3056 -0.2208 -0.2452
  169MOL0     C22691   5.987   8.593   3.106 -0.1874  0.5303  1.5729
  169MOL0     C22692   6.112   8.674   3.083  0.3593 -0.2444 -0.1744
  169MOL0     C22693   6.158   8.731   3.211  0.1348 -0.5082 -0.0596
  169MOL0     C22694   6.274   8.824   3.184  0.0858 -0.4656 -0.0130
  169MOL0     C22695   6.340   8.849   3.322 -0.4234 -0.4081 -0.3702
  169MOL0     C22696   6.474   8.914   3.311  0.0309  0.5165  0.1025
  169MOL0     N22697   6.451   9.058   3.273  0.5606 -0.2087 -0.1350
  169MOL0     C22698   6.450   9.160   3.365 -1.6304 -0.4600  0.7508
  169MOL0     C22699   6.431   9.270   3.287  0.4228  0.7847 -0.4655
  169MOL0     C22700   6.426   9.413   3.353 -0.1158  0.5582  0.2157
  169MOL0     C22701   6.288   9.458   3.403  0.1943 -0.3077 -0.1485
  169MOL0     C22702   6.189   9.488   3.286 -0.5342 -0.0438 -0.2568
  169MOL0     C22703   6.045   9.477   3.326 -0.4535 -0.2123 -0.0122
  169MOL0     O22704   5.967   9.532   3.211  1.1540  0.2205 -0.4647
  169MOL0     C22705   5.834   9.486   3.219 -1.1251 -0.1865  0.3612
  169MOL0     C22706   5.761   9.542   3.122  0.6316 -1.4825  0.3111
  169MOL0     C22707   5.624   9.515   3.111 -0.7561  0.0952  0.3592
  169MOL0     C22708   5.544   9.571   2.995 -0.1760 -0.0719 -0.8206
  169MOL0     C22709   5.561   9.428   3.201  0.2123  0.8096  0.4277
  169MOL0     C22710   5.418   9.379   3.181  0.0179 -0.1320 -1.0886
  169MOL0     O22711   5.325   9.463   3.126 -0.6104  0.3152 -0.7709
  169MOL0     C22712   5.198   9.435   3.108 -0.2193  0.0738  0.4376
  169MOL0     C22713   5.129   9.381   3.219  0.6599 -0.3541 -0.0448
  169MOL0     C22714   4.984   9.369   3.203  0.3937  0.4555  0.4124
  169MOL0     C22715   4.924   9.385   3.071 -0.4205  0.8313 -0.6939
  169MOL0     O22716   4.789   9.348   3.051  0.0130 -0.1985  0.4482
  169MOL0     C22717   4.753   9.289   2.926  0.0476  0.6287  0.9635
  169MOL0     C22718   4.603   9.276   2.912  0.3591  0.9175 -0.5865
  169MOL0     C22719   4.537   9.181   3.018  0.4478  0.0808 -0.6143
  169MOL0     C22720   4.390   9.152   2.981 -0.8116 -0.0865  0.2330
  169MOL0     C22721   4.347   9.015   3.029  0.4443  0.4448 -0.1727
  169MOL0     C22722   4.202   8.982   2.972  0.7393  0.1898 -0.0168
  169MOL0     C22723   4.139   8.847   3.030  0.0982 -0.8567 -0.1180
  169MOL0     C22724   3.985   8.849   3.009 -0.4324  0.0093  0.0808
  169MOL0    Cl22725   3.937   8.900   2.856 -0.0871  0.1156  0.2648
  169MOL0     C22726   5.001   9.446   2.969 -0.5216  0.2501 -0.1835
  169MOL0     C22727   5.133   9.477   2.994  0.1898  0.9799 -0.8854
  169MOL0     O22728   5.400   9.259   3.206 -0.1027  0.0466 -0.7909
  169MOL0     C22729   5.638   9.375   3.311 -0.5565 -1.0993  0.5055
  169MOL0     C22730   5.775   9.408   3.327  0.5242  0.7088  0.2661
  169MOL0     N22731   6.409   9.238   3.152 -0.6484  0.1387 -0.0790
  169MOL0     N22732   6.425   9.108   3.145  0.0403 -0.1542 -0.0277
  169MOL0     C22733   5.574   8.621   2.766  0.4278 -1.3008 -0.3659
  169MOL0     C22734   5.457   8.554   2.722 -0.3027  0.0678 -0.2741
  169MOL0     C22735   5.173   8.340   2.493 -0.2077  0.0040 -0.1924
  169MOL0     C22736   5.116   8.400   2.383  0.4537 -0.1388  0.9188
  169MOL0     C22737   4.976   8.387   2.366 -0.4424  0.4840 -0.9339
  169MOL0     C22738   4.897   8.309   2.454 -0.3184 -0.2579  0.0571
  169MOL0     O22739   4.769   8.294   2.406 -0.1064 -0.4499  0.2497
  169MOL0     C22740   4.690   8.194   2.471  0.3916  0.1175 -0.3144
  169MOL0     C22741   4.563   8.189   2.395 -0.1454  0.2023  0.3070
  169MOL0     C22742   4.456   8.293   2.421 -0.8521 -0.5425 -0.2431
  169MOL0     C22743   4.335   8.285   2.324 -0.8099  0.7383  1.1761
  169MOL0     C22744   4.243   8.170   2.354  0.0211  0.0987 -0.3494
  169MOL0     C22745   4.167   8.075   2.371 -0.3455 -1.0210  0.0861
  169MOL0     C22746   4.947   8.258   2.573 -0.0536  0.0934  0.5158
  169MOL0     C22747   5.089   8.280   2.590  0.3332 -0.3931 -0.2589
  169MOL0     H22748   5.568   8.238   2.727 -1.3327  0.2914 -0.8995
  169MOL0     H22749   5.778   8.364   2.794  0.9719  3.4713  1.7645
  169MOL0     H22750   5.933   8.481   2.780 -0.3307 -0.9860  0.5324
  169MOL0     H22751   5.999   8.638   2.849 -1.3096  0.9708  0.9150
  169MOL0     H22752   5.841   8.458   3.026 -0.2828 -0.4901 -0.5269
  169MOL0     H22753   6.005   8.414   2.989  1.6537  1.3428 -3.3111
  169MOL0     H22754   5.905   8.658   3.139 -2.3309 -1.5877  0.6908
  169MOL0     H22755   5.987   8.537   3.200  2.4173  2.3555  2.7808
  169MOL0     H22756   6.186   8.606   3.041 -1.6098 -0.4233 -3.7074
  169MOL0     H22757   6.104   8.757   3.012  1.2821  0.7674  0.8338
  169MOL0     H22758   6.077   8.778   3.269  0.5246  1.1777 -0.8466
  169MOL0     H22759   6.200   8.648   3.269  2.5181  1.0236  0.5596
  169MOL0     H22760   6.349   8.784   3.115 -0.4651  0.5635 -1.2456
  169MOL0     H22761   6.239   8.921   3.147  0.3286  0.9654  3.1886
  169MOL0     H22762   6.276   8.908   3.389 -1.1627  3.1920 -3.8787
  169MOL0     H22763   6.368   8.747   3.348  0.2252 -0.6126 -1.7809
  169MOL0     H22764   6.537   8.868   3.234  0.8686 -0.2309  1.2068
  169MOL0     H22765   6.531   8.905   3.404 -1.5734  1.0219  1.1747
  169MOL0     H22766   6.456   9.169   3.472 -0.2656 -1.5553  0.7993
  169MOL0     H22767   6.508   9.431   3.422  1.4826  1.1598 -1.7315
  169MOL0     H22768   6.455   9.493   3.285 -1.9205  0.2438 -1.0004
  169MOL0     H22769   6.296   9.546   3.468 -1.1576 -1.0624  1.1060
  169MOL0     H22770   6.251   9.378   3.467 -1.8770 -2.0569 -3.2507
  169MOL0     H22771   6.209   9.423   3.201 -0.6604 -1.9587  1.0899
  169MOL0     H22772   6.198   9.589   3.244  0.0839 -0.6244 -1.5659
  169MOL0     H22773   6.024   9.544   3.409 -0.9210 -1.4558  0.9035
  169MOL0     H22774   6.012   9.376   3.352 -1.4993 -0.2478 -1.3509
  169MOL0     H22775   5.812   9.598   3.043  0.8704 -0.9312  0.8465
  169MOL0     H22776   5.471   9.645   3.030 -1.7128 -1.9885  0.1919
  169MOL0     H22777   5.601   9.620   2.915  2.0884 -0.0170  0.7554
  169MOL0     H22778   5.509   9.484   2.938  2.3394 -1.9390  0.2832
  169MOL0     H22779   5.179   9.350   3.311  1.8029 -0.3586 -0.6446
  169MOL0     H22780   4.918   9.322   3.275 -0.8273 -0.5703 -1.2896
  169MOL0     H22781   4.799   9.349   2.847  0.8419  2.6014  2.8062
  169MOL0     H22782   4.799   9.190   2.919  2.2706  1.7059 -2.1365
  169MOL0     H22783   4.547   9.370   2.910  0.4470  0.9780 -0.2865
  169MOL0     H22784   4.598   9.234   2.812  0.8885 -0.5986 -0.0028
  169MOL0     H22785   4.539   9.208   3.124 -3.9718 -1.7195  0.1228
  169MOL0     H22786   4.584   9.083   3.010 -1.2418 -0.8824  0.6499
  169MOL0     H22787   4.331   9.234   3.023  1.0076  1.5429 -0.2680
  169MOL0     H22788   4.380   9.160   2.873  3.2507  1.6674 -0.1950
  169MOL0     H22789   4.353   8.997   3.137 -0.7331 -0.6145 -0.2653
  169MOL0     H22790   4.417   8.939   2.994 -1.9890 -2.4419  0.8389
  169MOL0     H22791   4.136   9.065   2.999  2.5889  1.2175  1.5593
  169MOL0     H22792   4.214   8.967   2.864 -0.6765  0.8498 -0.2868
  169MOL0     H22793   4.169   8.835   3.134  0.5635 -0.5137 -0.2088
  169MOL0     H22794   4.188   8.762   2.981  1.8769 -0.1655  0.3530
  169MOL0     H22795   3.940   8.915   3.084  0.2498  0.5488  0.0206
  169MOL0     H22796   3.958   8.744   3.029 -1.7119  0.5187  1.1672
  169MOL0     H22797   4.959   9.487   2.878  0.9413  1.0553 -0.5182
  169MOL0     H22798   5.192   9.527   2.917  1.9529  1.3964  0.6707
  169MOL0     H22799   5.581   9.318   3.385 -1.7487  1.5233  1.7386
  169MOL0     H22800   5.827   9.359   3.409 -1.0199 -2.3373 -0.4346
  169MOL0     H22801   5.584   8.729   2.765  0.6837 -1.3188 -0.0740
  169MOL0     H22802   5.372   8.618   2.698 -1.0725 -1.3905 -1.6762
  169MOL0     H22803   5.169   8.436   2.296  1.8832 -1.2187  1.2984
  169MOL0     H22804   4.940   8.430   2.273  0.1939  0.5335 -1.1607
  169MOL0     H22805   4.739   8.097   2.467  0.8777  0.3669 -0.4729
  169MOL0     H22806   4.666   8.215   2.576 -0.5281 -1.9291 -0.0612
  169MOL0     H22807   4.518   8.094   2.425  1.4539 -1.5480 -2.4084
  169MOL0     H22808   4.587   8.181   2.289  0.5877 -0.4599  0.5135
  169MOL0     H22809   4.507   8.390   2.417  1.8144 -1.7065  2.1045
  169MOL0     H22810   4.421   8.296   2.525 -0.1610  3.1014  0.0359
  169MOL0     H22811   4.367   8.270   2.220 -1.7707  2.6384  0.5486
  169MOL0     H22812   4.284   8.381   2.334  0.6870  1.4711  2.0863
  169MOL0     H22813   4.095   7.997   2.360 -1.1194 -0.5031  1.3368
  169MOL0     H22814   4.882   8.204   2.641 -0.5031 -0.5282 -0.3918
  169MOL0     H22815   5.117   8.225   2.679 -0.5272  0.7157  0.7390
  170MOL0     O22816  10.537   6.107   4.121 -0.0966  0.4888  0.5183
  170MOL0     C22817  10.598   6.103   4.015  0.2584  0.1688 -0.4812
  170MOL0     O22818  10.548   6.071   3.896 -0.3369 -0.4009 -0.1476
  170MOL0     C22819  10.412   6.047   3.881  0.3276  0.9202 -0.1074
  170MOL0     C22820  10.314   6.137   3.908 -0.1420 -0.5417 -0.5292
  170MOL0     C22821  10.180   6.123   3.883  0.7501  0.7411 -0.6809
  170MOL0     C22822  10.131   6.003   3.825 -0.2796  1.1522  0.7999
  170MOL0     O22823  10.002   5.971   3.790  0.0269  0.2265 -0.0391
  170MOL0     C22824   9.891   6.059   3.826  0.5358  0.3600 -0.5769
  170MOL0     C22825   9.766   5.989   3.770  0.7776  0.6663  0.1231
  170MOL0     C22826   9.751   5.844   3.832 -0.4087 -0.6285  0.5564
  170MOL0     C22827   9.623   5.798   3.764 -0.0620 -0.1183 -0.1188
  170MOL0     C22828   9.572   5.677   3.846  0.4965  0.2849  0.5966
  170MOL0     C22829   9.450   5.616   3.777 -0.3745  0.1002 -0.2387
  170MOL0     C22830   9.425   5.468   3.808  0.5189 -0.7986 -0.0282
  170MOL0     C22831   9.541   5.388   3.740  0.1656 -0.7379 -0.7198
  170MOL0     N22832   9.517   5.252   3.762  0.3908  0.1007 -0.6766
  170MOL0     C22833   9.423   5.179   3.698  0.0017 -0.1518 -0.4868
  170MOL0     C22834   9.432   5.052   3.741 -0.6185 -0.0468 -0.5616
  170MOL0     C22835   9.342   4.938   3.705 -0.0683  0.1423 -0.1182
  170MOL0     C22836   9.204   4.966   3.757  0.1739  0.2892 -0.1722
  170MOL0     C22837   9.130   4.830   3.763  0.2902  0.0087  0.4882
  170MOL0     C22838   9.023   4.841   3.864  0.9380  1.0501 -0.0059
  170MOL0     O22839   8.919   4.917   3.804 -0.8865 -0.2077  0.5722
  170MOL0     C22840   8.797   4.915   3.855  0.6920 -0.0735 -0.6910
  170MOL0     C22841   8.779   4.896   3.994 -0.4049  0.3747 -0.9645
  170MOL0     C22842   8.653   4.890   4.051  1.0917  0.3669 -0.0673
  170MOL0     C22843   8.650   4.852   4.197  0.1524  0.3266  0.4876
  170MOL0     C22844   8.535   4.914   3.966 -0.8381  1.3994  0.3064
  170MOL0     C22845   8.399   4.907   4.008 -0.1558 -0.4293  0.4041
  170MOL0     O22846   8.306   4.915   3.911  0.3991  1.1146  0.1048
  170MOL0     C22847   8.176   4.926   3.956 -0.7661  0.0532  0.5803
  170MOL0     C22848   8.121   5.054   3.981 -0.6040 -0.2493 -0.6201
  170MOL0     C22849   7.990   5.068   4.012 -0.0005 -0.4616 -1.0708
  170MOL0     C22850   7.907   4.953   4.009 -0.2326  0.2921  0.4812
  170MOL0     O22851   7.773   4.978   4.038  0.2815 -0.0665  0.5035
  170MOL0     C22852   7.675   4.899   3.975  0.2153  0.6736 -0.9245
  170MOL0     C22853   7.645   4.940   3.834  0.6259  0.1256  0.3774
  170MOL0     C22854   7.530   4.859   3.772  0.3493  0.9150  0.1093
  170MOL0     C22855   7.490   4.898   3.630  0.9458  0.1517  0.9306
  170MOL0     C22856   7.365   4.819   3.581  0.3434  0.8725  0.2823
  170MOL0     C22857   7.397   4.675   3.534 -0.9872  0.1221 -0.3138
  170MOL0     C22858   7.274   4.607   3.484  0.1862  0.6594 -0.3939
  170MOL0     C22859   7.310   4.506   3.382 -0.4310 -0.1395  0.3837
  170MOL0    Cl22860   7.154   4.451   3.302 -0.3870 -0.0611  0.0720
  170MOL0     C22861   7.962   4.822   3.987  0.2654  0.0820  0.7439
  170MOL0     C22862   8.100   4.813   3.963  0.6592  0.5831  0.0305
  170MOL0     O22863   8.378   4.877   4.127  0.2876  0.1682 -0.8653
  170MOL0     C22864   8.559   4.952   3.836 -0.2094 -0.1385  0.1744
  170MOL0     C22865   8.685   4.950   3.779  0.1032  0.2425 -0.0236
  170MOL0     N22866   9.546   5.051   3.818  0.1048 -0.3389 -1.0225
  170MOL0     N22867   9.601   5.168   3.827  0.3621 -0.1097 -0.7109
  170MOL0     C22868  10.230   5.897   3.802  0.0638 -0.9906 -0.8111
  170MOL0     C22869  10.368   5.920   3.830  0.7402 -0.2444  1.2797
  170MOL0     C22870  10.742   6.146   4.018 -0.1894  1.0165 -0.0162
  170MOL0     C22871  10.822   6.126   3.907 -0.0791  1.0003  0.4003
  170MOL0     C22872  10.958   6.171   3.909 -0.2967 -0.9337  0.2978
  170MOL0     C22873  11.000   6.244   4.021  0.4430 -0.1178  0.3764
  170MOL0     O22874  11.121   6.291   4.043  0.5668 -0.5190 -0.4580
  170MOL0     C22875  11.238   6.209   4.027 -0.0921 -0.5638  1.3157
  170MOL0     C22876  11.302   6.196   4.161  0.0217  0.4450 -0.0198
  170MOL0     C22877  11.447   6.139   4.153 -0.1408 -0.1902 -0.4762
  170MOL0     C22878  11.520   6.129   4.287  0.2673  0.2446 -0.3324
  170MOL0     C22879  11.542   6.267   4.340  0.4300 -0.1447  0.1459
  170MOL0     C22880  11.565   6.380   4.375  0.7781  0.0106  0.2360
  170MOL0     C22881  10.907   6.283   4.116  0.3880 -0.3581 -0.2542
  170MOL0     C22882  10.776   6.233   4.117  0.8383 -0.5880 -0.1747
  170MOL0     H22883  10.347   6.234   3.946 -3.0249  0.1243  0.5457
  170MOL0     H22884  10.093   6.182   3.909 -0.1180 -0.7174 -0.1783
  170MOL0     H22885   9.875   6.071   3.933 -0.8315  3.5444 -1.0340
  170MOL0     H22886   9.898   6.163   3.793 -0.1988  1.1523  1.5852
  170MOL0     H22887   9.680   6.050   3.797  0.0751 -0.8307  1.4472
  170MOL0     H22888   9.754   5.980   3.661  0.0170 -2.4603  0.3685
  170MOL0     H22889   9.838   5.781   3.814 -0.8807 -1.9816  2.6885
  170MOL0     H22890   9.735   5.848   3.940  0.6725 -0.7091  0.7294
  170MOL0     H22891   9.549   5.878   3.771  2.0338  2.3192 -3.2041
  170MOL0     H22892   9.646   5.773   3.660  0.8805  0.1940  0.0056
  170MOL0     H22893   9.660   5.612   3.858  0.7149  0.8157  2.0100
  170MOL0     H22894   9.545   5.714   3.945 -3.9921 -0.1165 -0.2931
  170MOL0     H22895   9.357   5.670   3.794 -1.2404 -1.4104 -0.0367
  170MOL0     H22896   9.467   5.630   3.670  1.6388 -2.2371 -0.3210
  170MOL0     H22897   9.423   5.450   3.916 -1.3592  0.2898  0.1581
  170MOL0     H22898   9.330   5.435   3.766  0.8337 -2.3082  0.3909
  170MOL0     H22899   9.638   5.416   3.782  0.3498 -1.5344 -0.5981
  170MOL0     H22900   9.543   5.399   3.631 -1.0711  0.1896 -0.6803
  170MOL0     H22901   9.354   5.215   3.623 -1.5896 -2.9432 -0.5049
  170MOL0     H22902   9.348   4.925   3.597  1.3675  1.5793 -0.2630
  170MOL0     H22903   9.394   4.857   3.758  0.3932 -0.0227 -0.8144
  170MOL0     H22904   9.157   5.042   3.694  0.3448  0.4219 -0.1403
  170MOL0     H22905   9.215   4.993   3.862 -0.1599  0.9320 -0.2993
  170MOL0     H22906   9.201   4.757   3.802  0.3223  0.0181  0.4470
  170MOL0     H22907   9.081   4.797   3.671 -1.9838  1.7656  0.9756
  170MOL0     H22908   9.047   4.895   3.956 -1.3472  2.4176 -0.1286
  170MOL0     H22909   8.987   4.741   3.888  0.0279  1.2639 -0.4257
  170MOL0     H22910   8.864   4.875   4.059 -1.9359 -3.4141  0.0901
  170MOL0     H22911   8.754   4.856   4.232  0.5362 -1.0577 -0.4252
  170MOL0     H22912   8.593   4.916   4.265 -1.4036 -0.4249 -0.0816
  170MOL0     H22913   8.620   4.749   4.220  1.6227 -0.0471  0.8843
  170MOL0     H22914   8.178   5.146   3.988 -3.0690  1.2760  0.7138
  170MOL0     H22915   7.945   5.160   4.048  2.0230 -0.2531  1.1873
  170MOL0     H22916   7.695   4.792   3.983  2.5950  1.1688  0.8613
  170MOL0     H22917   7.586   4.904   4.039  0.3343 -1.7163 -0.4885
  170MOL0     H22918   7.618   5.046   3.829  2.0057  0.4656 -0.4016
  170MOL0     H22919   7.729   4.917   3.768 -0.7055 -0.3995 -1.2047
  170MOL0     H22920   7.443   4.873   3.837 -1.4773  0.4235 -2.1108
  170MOL0     H22921   7.554   4.752   3.775  1.5540  1.1061 -1.6556
  170MOL0     H22922   7.462   5.004   3.630 -0.1305 -0.1134  1.4490
  170MOL0     H22923   7.569   4.873   3.558  0.4000 -0.6078  0.5871
  170MOL0     H22924   7.317   4.875   3.501 -1.2579  0.8224  1.1670
  170MOL0     H22925   7.290   4.808   3.660  0.5851  1.1728  0.5550
  170MOL0     H22926   7.479   4.676   3.462 -1.4156  1.6804 -0.8129
  170MOL0     H22927   7.436   4.617   3.618  0.3394 -0.2019 -1.1375
  170MOL0     H22928   7.208   4.681   3.438 -0.0427 -0.3949 -1.8513
  170MOL0     H22929   7.215   4.557   3.561 -0.6337  1.5904 -0.4024
  170MOL0     H22930   7.368   4.425   3.427  1.1389  0.7292 -0.0085
  170MOL0     H22931   7.362   4.567   3.307 -0.6134  1.0608  1.2151
  170MOL0     H22932   7.893   4.739   3.980 -1.5800  1.5241  1.1722
  170MOL0     H22933   8.154   4.722   3.940  2.9285  2.3083 -2.1010
  170MOL0     H22934   8.478   4.984   3.771  1.1686  0.5517 -1.2749
  170MOL0     H22935   8.715   4.996   3.686  1.5925 -1.8770 -0.6452
  170MOL0     H22936  10.211   5.796   3.768  0.8513 -1.0800 -0.9927
  170MOL0     H22937  10.439   5.839   3.818  1.3546  0.4910 -0.4280
  170MOL0     H22938  10.808   6.064   3.819  2.7169  2.5828 -1.3467
  170MOL0     H22939  11.020   6.160   3.822  0.9206  1.2885  0.8023
  170MOL0     H22940  11.228   6.108   3.987  0.2217  0.3957 -1.3530
  170MOL0     H22941  11.313   6.253   3.960 -0.6587  1.0150  1.6815
  170MOL0     H22942  11.240   6.136   4.228  0.8616 -1.1605 -0.6355
  170MOL0     H22943  11.311   6.295   4.206  3.0173 -0.0887  0.7465
  170MOL0     H22944  11.508   6.201   4.086  0.2082 -0.9340 -0.8562
  170MOL0     H22945  11.448   6.048   4.092 -1.2497 -1.1843  0.9204
  170MOL0     H22946  11.620   6.087   4.269 -0.9140 -3.6454  1.1817
  170MOL0     H22947  11.470   6.062   4.357  2.5793 -0.5055  0.6878
  170MOL0     H22948  11.588   6.476   4.417 -0.1145  0.7454 -0.8963
  170MOL0     H22949  10.944   6.348   4.195  0.1459  0.4991 -0.8463
  170MOL0     H22950  10.708   6.253   4.200  0.2160  0.1854 -0.8564
  171MOL0     O22951   2.668   8.933  10.157 -0.3964  0.7180 -0.4892
  171MOL0     C22952   2.654   8.825  10.217 -0.1701 -0.4520  0.1154
  171MOL0     O22953   2.745   8.731  10.232  0.0777  0.1289  0.0113
  171MOL0     C22954   2.874   8.744  10.191 -1.0869 -0.2332  0.3348
  171MOL0     C22955   2.949   8.624  10.204 -0.6267 -0.6824 -0.8143
  171MOL0     C22956   3.083   8.616  10.176 -0.1624  0.5383 -0.0918
  171MOL0     C22957   3.155   8.734  10.132 -0.5668 -0.1437  0.3932
  171MOL0     O22958   3.286   8.727  10.102 -0.1013 -0.3834  0.5531
  171MOL0     C22959   3.367   8.742  10.221 -0.0201  0.2023  0.4266
  171MOL0     C22960   3.475   8.854  10.201  0.6107  0.3690 -0.3508
  171MOL0     C22961   3.558   8.847  10.073  0.1687 -0.7568  0.4215
  171MOL0     C22962   3.680   8.758  10.091  0.1945  0.1969 -0.4377
  171MOL0     C22963   3.794   8.765   9.989  0.1140 -1.2384 -0.1099
  171MOL0     C22964   3.896   8.650  10.012  0.0432 -0.6438  0.2674
  171MOL0     C22965   4.028   8.679   9.936 -0.1456 -0.1410 -0.1991
  171MOL0     C22966   4.024   8.703   9.786  0.8073 -0.1554  0.3154
  171MOL0     N22967   4.001   8.576   9.714  0.6421 -0.7573  0.2531
  171MOL0     C22968   3.908   8.566   9.612  0.4239  0.3183  0.5796
  171MOL0     C22969   3.920   8.435   9.572  0.2902 -0.5212 -0.1637
  171MOL0     C22970   3.839   8.375   9.468  0.0092  0.4635  0.3244
  171MOL0     C22971   3.697   8.360   9.520  0.0294 -0.1832 -0.6017
  171MOL0     C22972   3.595   8.322   9.403 -0.5969  0.6623  0.5416
  171MOL0     C22973   3.450   8.329   9.437 -0.4346 -1.0493 -0.1739
  171MOL0     O22974   3.360   8.350   9.324  1.0570 -0.0729  0.3869
  171MOL0     C22975   3.229   8.350   9.345  0.2524  0.5408 -0.2415
  171MOL0     C22976   3.153   8.357   9.231 -0.1984  0.7226 -0.5619
  171MOL0     C22977   3.015   8.348   9.233 -0.8561  0.3273  0.1736
  171MOL0     C22978   2.942   8.354   9.100  0.0616 -0.0065 -0.2348
  171MOL0     C22979   2.954   8.327   9.366 -0.8032  0.5341  0.9456
  171MOL0     C22980   2.806   8.319   9.377  0.8660 -0.1003 -0.6074
  171MOL0     O22981   2.760   8.327   9.515  0.3561 -0.6240  0.3944
  171MOL0     C22982   2.622   8.321   9.533 -0.3414  0.1526 -0.4555
  171MOL0     C22983   2.545   8.433   9.514  0.2494 -0.0838  0.6188
  171MOL0     C22984   2.412   8.437   9.552 -0.3564 -0.1392 -0.3424
  171MOL0     C22985   2.352   8.327   9.615 -0.1275 -0.2432 -0.0605
  171MOL0     O22986   2.218   8.322   9.657 -0.2245 -0.0722 -0.1023
  171MOL0     C22987   2.153   8.447   9.682  0.6468  1.0949  0.1437
  171MOL0     C22988   2.018   8.425   9.763 -0.1966 -1.0216  0.2036
  171MOL0     C22989   1.897   8.438   9.665 -0.4413 -0.6035 -0.5921
  171MOL0     C22990   1.762   8.401   9.720 -0.2895  0.8769 -0.4149
  171MOL0     C22991   1.662   8.423   9.610  0.1582  0.4175  0.0745
  171MOL0     C22992   1.533   8.360   9.649 -0.1698 -0.1400 -0.1365
  171MOL0     C22993   1.428   8.393   9.543  0.0669  0.7826 -0.0085
  171MOL0     C22994   1.317   8.289   9.549 -0.2010 -0.2792  0.5822
  171MOL0    Cl22995   1.215   8.328   9.415  0.1965  0.0248 -0.3189
  171MOL0     C22996   2.433   8.210   9.631 -0.2755  0.1599 -0.1710
  171MOL0     C22997   2.567   8.204   9.591 -0.6632 -0.1403 -1.2516
  171MOL0     O22998   2.739   8.279   9.279 -0.6658 -0.8616 -1.0857
  171MOL0     C22999   3.032   8.324   9.478 -0.4071 -0.2895  0.1618
  171MOL0     C23000   3.164   8.332   9.468 -0.7749  0.3595  0.2311
  171MOL0     N23001   4.022   8.375   9.643 -0.2374 -0.0933  0.3307
  171MOL0     N23002   4.073   8.459   9.723 -0.2918  0.6440  0.1475
  171MOL0     C23003   3.089   8.862  10.130  0.2864  0.2362  0.5739
  171MOL0     C23004   2.951   8.859  10.159 -0.1495  0.0621 -0.4134
  171MOL0     C23005   2.530   8.794  10.282  0.1530  0.1445  0.4578
  171MOL0     C23006   2.439   8.894  10.299  0.6282  0.5686  0.6514
  171MOL0     C23007   2.308   8.868  10.352 -0.1714 -0.3972  0.0748
  171MOL0     C23008   2.272   8.745  10.395  0.0661  0.2427  0.1162
  171MOL0     O23009   2.153   8.720  10.452  0.4277 -0.0940  0.0933
  171MOL0     C23010   2.118   8.588  10.490  0.0554 -0.3536 -0.2007
  171MOL0     C23011   1.973   8.575  10.516 -0.9983  0.2829 -0.1739
  171MOL0     C23012   1.948   8.543  10.664 -0.4439 -0.2192 -0.8099
  171MOL0     C23013   1.797   8.512  10.687  0.0255  0.8576 -0.2261
  171MOL0     C23014   1.774   8.407  10.791 -0.1158 -0.3363 -0.2307
  171MOL0     C23015   1.746   8.316  10.860 -0.1143 -0.5558  0.2159
  171MOL0     C23016   2.366   8.648  10.378  1.1420  1.5192  0.3640
  171MOL0     C23017   2.493   8.665  10.324  0.7151  0.5917  1.4885
  171MOL0     H23018   2.889   8.536  10.225 -0.0525 -1.0199 -0.5650
  171MOL0     H23019   3.121   8.515  10.168 -2.0268 -0.6543  3.7582
  171MOL0     H23020   3.304   8.751  10.310  0.6061 -0.5069  0.9542
  171MOL0     H23021   3.416   8.645  10.238  0.5698  0.5078  0.4848
  171MOL0     H23022   3.415   8.945  10.189 -0.2708  0.0467  1.2750
  171MOL0     H23023   3.524   8.859  10.299 -2.0949 -0.2054  1.1548
  171MOL0     H23024   3.508   8.815   9.982 -0.6021 -0.7025  0.8178
  171MOL0     H23025   3.595   8.949  10.058 -1.0021 -0.5792 -1.6222
  171MOL0     H23026   3.735   8.758  10.186  0.2954 -2.8635 -0.3991
  171MOL0     H23027   3.641   8.655  10.088 -1.0344  0.5131  2.2218
  171MOL0     H23028   3.748   8.767   9.890  0.3047 -3.6545 -0.3003
  171MOL0     H23029   3.842   8.862  10.006  1.5186 -2.1691  1.6045
  171MOL0     H23030   3.915   8.646  10.120 -2.9158 -0.5262  0.8993
  171MOL0     H23031   3.860   8.556   9.970  2.3853 -0.7306 -1.7630
  171MOL0     H23032   4.073   8.772   9.973 -0.1680 -0.4556  0.6405
  171MOL0     H23033   4.100   8.602   9.965  0.3586  0.2549 -0.3674
  171MOL0     H23034   4.109   8.761   9.751  0.7139  0.8968  1.7318
  171MOL0     H23035   3.937   8.766   9.769  2.1975  1.7048 -0.1477
  171MOL0     H23036   3.843   8.646   9.579  2.5558  1.3160 -1.5251
  171MOL0     H23037   3.832   8.444   9.383  0.9793  0.3584  0.1427
  171MOL0     H23038   3.877   8.275   9.447 -3.5715 -1.3572  1.6342
  171MOL0     H23039   3.673   8.460   9.559 -0.3374 -0.0690 -1.1164
  171MOL0     H23040   3.685   8.300   9.611 -2.5918 -0.1932 -0.8772
  171MOL0     H23041   3.602   8.218   9.371 -2.1525  0.3565  1.0839
  171MOL0     H23042   3.626   8.387   9.321  0.9838 -1.6375 -0.7909
  171MOL0     H23043   3.443   8.405   9.516  0.1609  0.1599 -1.2478
  171MOL0     H23044   3.428   8.235   9.487  0.1571 -1.6907 -1.0882
  171MOL0     H23045   3.207   8.373   9.138  0.5212  0.9180 -0.1173
  171MOL0     H23046   2.852   8.415   9.111 -1.7792 -2.4928 -0.7228
  171MOL0     H23047   3.008   8.407   9.031  1.5666 -0.0193  1.1282
  171MOL0     H23048   2.920   8.257   9.056  0.9831 -0.6034  0.5740
  171MOL0     H23049   2.595   8.525   9.485 -0.2631  0.0273  0.0690
  171MOL0     H23050   2.351   8.519   9.517 -1.5979 -1.6744 -1.9484
  171MOL0     H23051   2.213   8.516   9.741 -2.4218  2.8640  1.4203
  171MOL0     H23052   2.133   8.487   9.582  4.7457  1.6189 -0.6110
  171MOL0     H23053   2.021   8.336   9.826  0.8245  0.1357  1.8558
  171MOL0     H23054   2.025   8.513   9.828 -1.4853  0.8763 -2.0546
  171MOL0     H23055   1.920   8.385   9.571 -1.4496 -0.1984 -1.0867
  171MOL0     H23056   1.888   8.543   9.637 -1.9503 -0.2671  0.9790
  171MOL0     H23057   1.767   8.298   9.756 -1.7207 -0.2480 -3.1487
  171MOL0     H23058   1.739   8.464   9.806 -1.5915  1.1569 -0.9419
  171MOL0     H23059   1.696   8.366   9.523 -0.2448  0.3029 -0.0082
  171MOL0     H23060   1.649   8.527   9.580 -1.1234  0.0637 -0.6472
  171MOL0     H23061   1.529   8.251   9.658 -0.6872 -0.3550 -2.4210
  171MOL0     H23062   1.498   8.401   9.745 -0.3027 -2.3870  0.8473
  171MOL0     H23063   1.475   8.372   9.447 -2.5136 -0.0244 -1.1943
  171MOL0     H23064   1.395   8.497   9.551 -0.4833  0.7899 -1.8412
  171MOL0     H23065   1.262   8.285   9.643 -1.4605 -0.6331 -0.1408
  171MOL0     H23066   1.357   8.190   9.528 -0.4202  0.1571 -2.4283
  171MOL0     H23067   2.390   8.131   9.692  2.6027  0.0540  1.9327
  171MOL0     H23068   2.632   8.121   9.616 -1.3524 -0.3314 -0.0065
  171MOL0     H23069   2.989   8.313   9.577  2.9453 -0.6486  1.7159
  171MOL0     H23070   3.203   8.323   9.569 -1.8657  1.5288  0.7792
  171MOL0     H23071   3.143   8.949  10.092 -2.2174  1.2352 -0.9894
  171MOL0     H23072   2.892   8.950  10.171  1.4313  0.8960  1.6201
  171MOL0     H23073   2.470   8.989  10.258  1.0987 -0.0581 -0.4902
  171MOL0     H23074   2.229   8.939  10.374  1.5498  1.8310 -0.6412
  171MOL0     H23075   2.140   8.520  10.407  0.8564  2.5185 -2.5657
  171MOL0     H23076   2.174   8.551  10.576 -0.2303  0.8625  0.5432
  171MOL0     H23077   1.928   8.505  10.445  0.6168  0.0316 -1.0035
  171MOL0     H23078   1.932   8.667  10.474  1.1810  0.0236 -3.1881
  171MOL0     H23079   1.967   8.639  10.713  0.5986 -1.0263  0.4354
  171MOL0     H23080   2.024   8.469  10.692  2.0136  1.6184 -2.2135
  171MOL0     H23081   1.752   8.488  10.590  1.0095  0.7610 -0.6739
  171MOL0     H23082   1.740   8.605  10.696  0.6479  1.3328 -0.9925
  171MOL0     H23083   1.732   8.229  10.921 -3.0345  1.1028  2.2089
  171MOL0     H23084   2.345   8.542  10.395 -2.9949  1.8854 -1.2451
  171MOL0     H23085   2.561   8.583  10.303  1.7835  1.8753 -0.3691
  172MOL0     O23086   0.588   4.681   8.154 -0.3633 -0.0184 -0.1611
  172MOL0     C23087   0.616   4.647   8.267 -0.4061  0.0061  0.4200
  172MOL0     O23088   0.536   4.574   8.355 -0.6896 -0.3322  0.0671
  172MOL0     C23089   0.403   4.572   8.340 -0.4392 -0.1680  0.1721
  172MOL0     C23090   0.335   4.472   8.402  0.6818  0.0850 -0.6501
  172MOL0     C23091   0.191   4.453   8.395  0.9178 -0.5417  0.8190
  172MOL0     C23092   0.119   4.555   8.329  0.1231  0.1869  0.1424
  172MOL0     O23093  -0.019   4.544   8.314 -0.2963 -0.2038  0.0844
  172MOL0     C23094  -0.074   4.579   8.186 -0.1423  0.4016  0.3397
  172MOL0     C23095  -0.214   4.540   8.195  1.3778  0.0820 -1.0399
  172MOL0     C23096  -0.290   4.562   8.066  0.1638  0.9898 -0.4468
  172MOL0     C23097  -0.424   4.492   8.075 -0.7965 -0.5793  0.0926
  172MOL0     C23098  -0.498   4.518   7.939 -0.3306  0.2048 -0.1773
  172MOL0     C23099  -0.645   4.475   7.943  0.3350 -0.3779  0.7237
  172MOL0     C23100  -0.714   4.519   7.810 -0.6357 -0.7302 -0.3459
  172MOL0     C23101  -0.670   4.439   7.696 -0.3155  0.0996  0.2656
  172MOL0     N23102  -0.714   4.494   7.569 -0.2590 -0.2459 -0.3040
  172MOL0     C23103  -0.845   4.505   7.532 -0.0291  0.3751 -0.7024
  172MOL0     C23104  -0.844   4.533   7.397  0.6184  0.7494 -0.8290
  172MOL0     C23105  -0.965   4.569   7.317 -0.0338 -0.4052 -0.5959
  172MOL0     C23106  -1.094   4.588   7.399 -0.1091  0.2739  0.3467
  172MOL0     C23107  -1.216   4.656   7.319  0.2602 -0.5409  0.0660
  172MOL0     C23108  -1.342   4.643   7.404 -0.2281  0.1477  0.4610
  172MOL0     O23109  -1.441   4.710   7.330 -0.2286 -1.1237 -0.2260
  172MOL0     C23110  -1.565   4.685   7.386 -0.8143  0.8367  0.0564
  172MOL0     C23111  -1.645   4.781   7.433 -0.0693 -0.0737  0.2088
  172MOL0     C23112  -1.783   4.760   7.465 -0.1858  0.9592  0.1433
  172MOL0     C23113  -1.870   4.880   7.502 -0.4808 -0.0228 -0.3077
  172MOL0     C23114  -1.835   4.625   7.463 -0.2335  0.4048 -0.2978
  172MOL0     C23115  -1.983   4.598   7.462 -0.3552  0.2201 -0.4956
  172MOL0     O23116  -2.039   4.565   7.574 -0.7788 -0.1964 -0.2096
  172MOL0     C23117  -2.173   4.590   7.605 -0.4640 -0.6436  0.3284
  172MOL0     C23118  -2.248   4.693   7.540  0.1857 -0.5793 -0.4792
  172MOL0     C23119  -2.381   4.717   7.572 -0.1520  0.1041  0.7378
  172MOL0     C23120  -2.444   4.636   7.662  0.2660  0.7003 -0.3475
  172MOL0     O23121  -2.578   4.662   7.668  0.3986  0.4832 -0.6202
  172MOL0     C23122  -2.658   4.563   7.743  0.5953 -0.3996 -0.1770
  172MOL0     C23123  -2.811   4.614   7.728 -0.1661  0.1374 -0.6132
  172MOL0     C23124  -2.912   4.496   7.740 -0.1375 -0.6686 -0.5585
  172MOL0     C23125  -3.041   4.540   7.792 -0.1166  0.3413 -0.2622
  172MOL0     C23126  -3.147   4.431   7.780  0.1825 -0.2257  0.9545
  172MOL0     C23127  -3.281   4.481   7.838 -0.3837  0.4470  0.1668
  172MOL0     C23128  -3.388   4.440   7.744  0.2491  0.3648 -0.5661
  172MOL0     C23129  -3.535   4.449   7.800 -0.2425 -0.5246  0.0586
  172MOL0    Cl23130  -3.552   4.378   7.964 -0.3927 -0.3357  0.1601
  172MOL0     C23131  -2.372   4.527   7.731 -0.2022 -0.2045 -0.3059
  172MOL0     C23132  -2.234   4.515   7.704  0.0492  0.0531 -0.2418
  172MOL0     O23133  -2.046   4.609   7.355  0.2143 -0.0561  0.0993
  172MOL0     C23134  -1.750   4.527   7.421 -0.3118 -0.3909 -0.4686
  172MOL0     C23135  -1.611   4.550   7.386  0.1839 -0.2811  0.8544
  172MOL0     N23136  -0.712   4.547   7.353 -0.4405 -0.2651 -0.0140
  172MOL0     N23137  -0.641   4.524   7.460 -0.0907 -0.4269 -0.4647
  172MOL0     C23138   0.187   4.667   8.277 -0.2087 -0.6863  0.0781
  172MOL0     C23139   0.329   4.673   8.278 -0.4056  0.5950 -0.1023
  172MOL0     C23140   0.753   4.688   8.316 -0.1701 -0.8949 -0.2044
  172MOL0     C23141   0.789   4.667   8.453  0.3056  0.3958 -0.5920
  172MOL0     C23142   0.916   4.694   8.507  1.0702  0.0399  0.0754
  172MOL0     C23143   1.012   4.756   8.423 -0.3307 -0.6189 -0.2073
  172MOL0     O23144   1.114   4.804   8.503 -0.4010  0.1271  0.2742
  172MOL0     C23145   1.218   4.858   8.421  0.1011 -0.5571 -0.6113
  172MOL0     C23146   1.325   4.903   8.533  0.3718  0.2838  0.0891
  172MOL0     C23147   1.414   4.793   8.590 -0.0895  0.7453 -0.1335
  172MOL0     C23148   1.525   4.842   8.693  0.0450  0.1149 -0.6019
  172MOL0     C23149   1.660   4.852   8.626 -0.9163 -0.3271 -0.7686
  172MOL0     C23150   1.782   4.844   8.599  0.1346 -0.1907  0.2165
  172MOL0     C23151   0.981   4.784   8.289  0.6870  0.6252 -0.2958
  172MOL0     C23152   0.853   4.749   8.230 -0.3638  0.4133  0.2645
  172MOL0     H23153   0.390   4.402   8.464 -1.2063  1.3702  2.7096
  172MOL0     H23154   0.141   4.366   8.435 -1.6393 -0.4047 -1.7451
  172MOL0     H23155  -0.057   4.684   8.162  0.6269 -0.1608 -1.7685
  172MOL0     H23156  -0.026   4.521   8.106 -1.3968  0.3083 -0.3732
  172MOL0     H23157  -0.216   4.437   8.232  2.1771  0.8863  1.4330
  172MOL0     H23158  -0.266   4.585   8.280  1.3857 -1.4786 -0.1769
  172MOL0     H23159  -0.316   4.666   8.043 -0.8083  1.0462  0.8108
  172MOL0     H23160  -0.240   4.504   7.988 -1.7547 -1.5215  0.0972
  172MOL0     H23161  -0.409   4.388   8.105  2.9074 -0.6201 -1.3883
  172MOL0     H23162  -0.472   4.542   8.160 -0.3041 -3.0338  1.9433
  172MOL0     H23163  -0.489   4.624   7.913  1.1912  0.2084  0.2986
  172MOL0     H23164  -0.453   4.459   7.859 -1.2990  0.3962 -0.8925
  172MOL0     H23165  -0.659   4.367   7.950 -1.6754 -0.3379 -1.5493
  172MOL0     H23166  -0.696   4.531   8.023 -1.9402 -0.8790 -0.2842
  172MOL0     H23167  -0.822   4.504   7.826 -0.1601 -2.4407  1.6153
  172MOL0     H23168  -0.695   4.626   7.801 -0.6973 -0.6063  0.8486
  172MOL0     H23169  -0.723   4.342   7.695  0.4066 -0.3173  1.3540
  172MOL0     H23170  -0.561   4.439   7.689 -0.4047  1.8446 -2.7052
  172MOL0     H23171  -0.932   4.496   7.597  0.1500  2.7696 -0.0073
  172MOL0     H23172  -0.948   4.665   7.268 -0.0337 -1.4206 -2.7056
  172MOL0     H23173  -0.983   4.492   7.242 -1.7484  1.5904 -2.3981
  172MOL0     H23174  -1.067   4.646   7.487  0.4324 -1.3668  1.3010
  172MOL0     H23175  -1.131   4.487   7.421  0.1705 -0.0830 -0.7635
  172MOL0     H23176  -1.239   4.613   7.221  0.5387  3.2047 -1.8001
  172MOL0     H23177  -1.180   4.759   7.308  0.9915 -0.6476  1.2470
  172MOL0     H23178  -1.313   4.700   7.493  0.7964 -1.0584  0.9190
  172MOL0     H23179  -1.351   4.537   7.429 -1.6004  0.4362  1.3268
  172MOL0     H23180  -1.605   4.881   7.443  2.3653 -0.3643 -4.2480
  172MOL0     H23181  -1.914   4.859   7.600  0.8954 -3.1955 -0.2510
  172MOL0     H23182  -1.814   4.974   7.493 -1.5922  0.5725 -1.1960
  172MOL0     H23183  -1.948   4.900   7.428 -0.2398  0.9434 -0.3189
  172MOL0     H23184  -2.198   4.765   7.476  3.5491 -2.2482  0.0228
  172MOL0     H23185  -2.445   4.795   7.532 -0.3249  0.3555  1.4888
  172MOL0     H23186  -2.654   4.472   7.682 -0.4647 -0.3865 -0.2961
  172MOL0     H23187  -2.625   4.557   7.847 -1.8063 -3.4801  0.5890
  172MOL0     H23188  -2.832   4.689   7.805  2.8042  2.2905 -1.7118
  172MOL0     H23189  -2.820   4.671   7.635  0.7557  0.7944 -0.3161
  172MOL0     H23190  -2.875   4.416   7.805 -4.5053 -2.3877  0.1349
  172MOL0     H23191  -2.915   4.465   7.635  4.0788  1.8338 -1.7006
  172MOL0     H23192  -3.037   4.574   7.896 -0.6050  2.0454 -0.7614
  172MOL0     H23193  -3.076   4.615   7.721 -2.8431 -2.9277 -2.7457
  172MOL0     H23194  -3.134   4.334   7.831 -2.1413 -1.0733  0.0781
  172MOL0     H23195  -3.169   4.411   7.675  0.0885  0.8252  0.7704
  172MOL0     H23196  -3.294   4.440   7.938  1.0479  3.2074  1.5968
  172MOL0     H23197  -3.270   4.590   7.844 -0.9965  0.4334  2.2677
  172MOL0     H23198  -3.368   4.339   7.709  0.3195 -0.3772  1.5011
  172MOL0     H23199  -3.400   4.510   7.660 -0.0836  1.4823  0.3928
  172MOL0     H23200  -3.610   4.414   7.729 -4.6179  2.3095  2.7940
  172MOL0     H23201  -3.562   4.554   7.814  0.3086 -0.6366  2.4213
  172MOL0     H23202  -2.414   4.469   7.813  0.8806  0.4974  0.7707
  172MOL0     H23203  -2.178   4.442   7.760 -0.7814  0.4227  1.1008
  172MOL0     H23204  -1.774   4.422   7.408  0.9345 -0.7121 -0.3098
  172MOL0     H23205  -1.556   4.474   7.332 -1.1357 -0.3513 -0.4699
  172MOL0     H23206   0.132   4.744   8.224 -0.9051 -2.0936 -1.3463
  172MOL0     H23207   0.364   4.752   8.212  1.2754  0.4500  0.5542
  172MOL0     H23208   0.712   4.637   8.523 -0.1701  0.0851 -1.2412
  172MOL0     H23209   0.931   4.696   8.614 -0.5806  0.2981  0.3250
  172MOL0     H23210   1.259   4.783   8.354  0.1839  1.4565 -2.9189
  172MOL0     H23211   1.193   4.946   8.361  1.3620  0.7012  0.6320
  172MOL0     H23212   1.273   4.958   8.612  0.0737  0.8139 -0.4695
  172MOL0     H23213   1.395   4.968   8.480  2.3018 -1.2532  0.6493
  172MOL0     H23214   1.447   4.738   8.501 -0.0422  0.7771 -0.1365
  172MOL0     H23215   1.349   4.726   8.646 -0.0505  0.6142 -0.2454
  172MOL0     H23216   1.530   4.774   8.778 -0.9773 -1.3486 -1.6569
  172MOL0     H23217   1.504   4.941   8.732  0.4315 -0.3596  0.8813
  172MOL0     H23218   1.886   4.845   8.570 -0.5079 -1.6189 -2.6088
  172MOL0     H23219   1.047   4.834   8.219 -1.2468  1.8570 -1.3101
  172MOL0     H23220   0.831   4.752   8.124 -0.8046  2.0775  0.3819
  173MOL0     O23221   2.158   8.824   0.472 -0.0131 -0.4263 -0.3118
  173MOL0     C23222   2.204   8.710   0.459  0.0528 -0.4518  0.0765
  173MOL0     O23223   2.162   8.608   0.547 -0.4108 -0.6093  0.5016
  173MOL0     C23224   2.062   8.623   0.638 -0.2159  0.7436  0.6572
  173MOL0     C23225   2.076   8.556   0.757  0.2236  1.0537  0.0133
  173MOL0     C23226   1.975   8.561   0.853  0.2248  0.6213  0.8011
  173MOL0     C23227   1.853   8.618   0.831 -0.2186  0.4948  0.4279
  173MOL0     O23228   1.765   8.632   0.927  0.3602 -0.2832 -0.6316
  173MOL0     C23229   1.684   8.515   0.947  0.7083 -0.6020 -0.9744
  173MOL0     C23230   1.750   8.411   1.030 -0.4893 -0.1795  0.2604
  173MOL0     C23231   1.643   8.322   1.095 -0.6428 -0.7584  0.3980
  173MOL0     C23232   1.579   8.216   1.003 -0.3600  0.3611 -0.0882
  173MOL0     C23233   1.492   8.124   1.084  0.1774 -0.0542 -0.4918
  173MOL0     C23234   1.345   8.175   1.085  0.2245 -0.1456  0.5079
  173MOL0     C23235   1.283   8.144   1.230  0.0794 -0.5130  0.5764
  173MOL0     C23236   1.252   7.996   1.249 -0.4047  0.5203 -0.7637
  173MOL0     N23237   1.147   7.981   1.354 -0.2902 -0.1216  0.2994
  173MOL0     C23238   1.176   7.984   1.489 -0.4204 -0.4338 -0.6138
  173MOL0     C23239   1.061   7.942   1.552  0.1297  0.1832 -1.3475
  173MOL0     C23240   1.050   7.937   1.705 -0.5592 -0.6733  0.6044
  173MOL0     C23241   0.931   8.040   1.741  0.4328  0.4585  0.1697
  173MOL0     C23242   0.942   8.050   1.891  0.0710  0.1112  0.1100
  173MOL0     C23243   0.839   8.138   1.956 -0.0571 -0.3747 -0.8144
  173MOL0     O23244   0.704   8.089   1.947 -0.2086 -0.0416 -0.4649
  173MOL0     C23245   0.596   8.164   1.981 -0.1952 -0.7673  0.0777
  173MOL0     C23246   0.607   8.301   2.013  0.2393 -0.4081 -0.3599
  173MOL0     C23247   0.498   8.383   2.050  0.4832  0.1321  0.7256
  173MOL0     C23248   0.507   8.531   2.083  0.4373  0.1220 -0.2037
  173MOL0     C23249   0.372   8.318   2.047 -0.2325 -0.4074 -0.3527
  173MOL0     C23250   0.246   8.383   2.087  0.0104 -0.7731  0.5267
  173MOL0     O23251   0.209   8.494   2.014  0.1290 -0.0854 -0.1703
  173MOL0     C23252   0.100   8.565   2.047  0.5655 -0.0725 -0.1441
  173MOL0     C23253   0.113   8.692   2.092  0.1926  0.0644  0.3389
  173MOL0     C23254   0.008   8.782   2.111 -0.5218 -0.3204  0.0041
  173MOL0     C23255  -0.121   8.735   2.094  0.0634 -0.6894 -0.0256
  173MOL0     O23256  -0.225   8.822   2.136 -0.4872 -0.0338  0.0446
  173MOL0     C23257  -0.355   8.793   2.077  0.5410 -0.8634  0.5342
  173MOL0     C23258  -0.455   8.903   2.124 -0.1298  0.1934 -0.0539
  173MOL0     C23259  -0.405   9.041   2.077 -0.2331  0.3786 -0.5280
  173MOL0     C23260  -0.519   9.151   2.116 -0.3057  0.5053  0.5783
  173MOL0     C23261  -0.481   9.293   2.136 -0.6561 -0.3309 -0.0928
  173MOL0     C23262  -0.420   9.375   2.016 -0.4971  0.2683  0.0455
  173MOL0     C23263  -0.312   9.473   2.064  0.2115 -0.8135 -0.0186
  173MOL0     C23264  -0.231   9.543   1.946  0.0030 -0.6388  0.2102
  173MOL0    Cl23265  -0.327   9.616   1.818  0.2717  0.2088 -0.1184
  173MOL0     C23266  -0.139   8.604   2.052  0.2863  0.7346 -0.6255
  173MOL0     C23267  -0.031   8.518   2.025  0.4414  0.4283  0.4823
  173MOL0     O23268   0.181   8.326   2.170  0.1838  0.8071 -0.4054
  173MOL0     C23269   0.356   8.180   2.010 -0.6263  0.3068  0.1877
  173MOL0     C23270   0.468   8.106   1.964  0.2608 -0.5094 -0.6283
  173MOL0     N23271   0.966   7.918   1.462  0.1340 -0.8722  0.0002
  173MOL0     N23272   1.023   7.925   1.347 -0.1168 -0.0417  0.6303
  173MOL0     C23273   1.841   8.684   0.710 -0.3449 -0.1902  0.0005
  173MOL0     C23274   1.936   8.681   0.608  0.0138  0.4529 -0.0609
  173MOL0     C23275   2.290   8.683   0.340  0.0379  0.1563 -0.4222
  173MOL0     C23276   2.355   8.561   0.319  0.0953 -0.1161 -0.0096
  173MOL0     C23277   2.438   8.539   0.214  0.0907  0.2165 -0.2383
  173MOL0     C23278   2.472   8.642   0.118 -0.0843 -0.1772 -0.1942
  173MOL0     O23279   2.575   8.624   0.023 -0.0530  0.8768 -0.5120
  173MOL0     C23280   2.553   8.687  -0.105  0.2526  0.5674 -0.8551
  173MOL0     C23281   2.440   8.621  -0.178 -0.1568 -0.1668 -0.7154
  173MOL0     C23282   2.497   8.480  -0.219  0.6554 -0.3162 -0.8153
  173MOL0     C23283   2.392   8.420  -0.320 -0.5559 -0.5390 -1.3337
  173MOL0     C23284   2.428   8.462  -0.450 -1.0112  0.5425  0.5127
  173MOL0     C23285   2.474   8.483  -0.566  0.3483 -0.3138  0.2025
  173MOL0     C23286   2.407   8.759   0.138 -1.1032 -0.1593 -0.1478
  173MOL0     C23287   2.319   8.775   0.244 -0.7925  0.4045  0.3517
  173MOL0     H23288   2.172   8.515   0.783 -0.1077  1.7725  2.6774
  173MOL0     H23289   1.969   8.520   0.953 -4.0879  0.4985  0.6954
  173MOL0     H23290   1.592   8.550   0.995  1.1347 -0.1746 -0.4509
  173MOL0     H23291   1.643   8.467   0.858  0.1766 -1.4371 -0.3052
  173MOL0     H23292   1.818   8.351   0.968 -0.5240  0.0476  0.0008
  173MOL0     H23293   1.805   8.463   1.109  1.2928 -1.0255 -0.3730
  173MOL0     H23294   1.698   8.273   1.176  0.6951 -1.3814 -0.8411
  173MOL0     H23295   1.562   8.381   1.139  0.2017  0.2825  0.5831
  173MOL0     H23296   1.539   8.265   0.914  2.5300  0.3571 -1.4838
  173MOL0     H23297   1.658   8.153   0.962  0.3679  0.2754  1.3862
  173MOL0     H23298   1.494   8.023   1.041  0.6462 -1.2144  2.0486
  173MOL0     H23299   1.529   8.121   1.187  2.4158  2.5694 -1.1215
  173MOL0     H23300   1.332   8.282   1.066 -2.0757 -0.8417 -2.5250
  173MOL0     H23301   1.287   8.131   1.004 -2.9180  4.8526 -0.3779
  173MOL0     H23302   1.358   8.178   1.301  2.2609  2.8363 -2.9354
  173MOL0     H23303   1.204   8.214   1.260  1.5121  1.6431 -0.4112
  173MOL0     H23304   1.340   7.942   1.287 -2.9364 -2.9055  0.7518
  173MOL0     H23305   1.220   7.958   1.152  0.0132  0.9724 -1.0798
  173MOL0     H23306   1.269   8.014   1.538 -0.9230  0.6423 -0.2917
  173MOL0     H23307   1.026   7.837   1.742 -0.8025 -0.3616  1.3080
  173MOL0     H23308   1.136   7.984   1.754 -2.3360  2.0246  1.3589
  173MOL0     H23309   0.835   8.004   1.701  2.1475 -1.6223 -2.4825
  173MOL0     H23310   0.948   8.139   1.698  4.3065 -0.2376 -0.2250
  173MOL0     H23311   1.039   8.096   1.913 -0.9805  2.3319  0.3370
  173MOL0     H23312   0.933   7.955   1.945 -0.7656  0.1865  0.1212
  173MOL0     H23313   0.837   8.236   1.908  0.6489  0.1566  0.2087
  173MOL0     H23314   0.862   8.137   2.063  0.8054 -0.7164 -0.9925
  173MOL0     H23315   0.702   8.352   2.006  0.4012 -0.7362 -0.5789
  173MOL0     H23316   0.609   8.569   2.086  0.9677 -1.2492 -0.1519
  173MOL0     H23317   0.452   8.598   2.017  0.3190  1.5513  1.2881
  173MOL0     H23318   0.461   8.560   2.179  2.9749 -1.5202  1.6373
  173MOL0     H23319   0.214   8.724   2.118 -0.0691  1.0128  0.2030
  173MOL0     H23320   0.031   8.876   2.159 -0.9521 -1.4066  2.5238
  173MOL0     H23321  -0.353   8.795   1.967 -1.5061 -3.0940  0.3669
  173MOL0     H23322  -0.403   8.698   2.101 -0.0589 -0.6354  0.2549
  173MOL0     H23323  -0.550   8.871   2.081 -1.1700 -0.8487  2.7875
  173MOL0     H23324  -0.464   8.901   2.233  3.4528 -0.7318  0.3634
  173MOL0     H23325  -0.386   9.053   1.970 -1.5096  0.5611 -0.7475
  173MOL0     H23326  -0.314   9.069   2.131 -1.5259  2.9373  0.4998
  173MOL0     H23327  -0.591   9.151   2.033  0.4681 -0.8942 -0.1317
  173MOL0     H23328  -0.575   9.113   2.202  1.0773 -1.2491  0.7474
  173MOL0     H23329  -0.423   9.306   2.227 -0.0226  2.3867 -0.7731
  173MOL0     H23330  -0.574   9.347   2.156 -0.6428 -1.2012  2.7596
  173MOL0     H23331  -0.372   9.315   1.938 -1.7226  1.2929 -1.5803
  173MOL0     H23332  -0.493   9.437   1.962 -3.2950 -2.2984  0.6226
  173MOL0     H23333  -0.231   9.431   2.124  1.3635  2.5198  1.0051
  173MOL0     H23334  -0.355   9.555   2.122 -0.1743  0.2421 -1.7179
  173MOL0     H23335  -0.161   9.463   1.920 -0.3208 -1.2223  1.0884
  173MOL0     H23336  -0.169   9.624   1.985  0.0727  1.1588 -3.2630
  173MOL0     H23337  -0.239   8.563   2.039 -0.2818  0.0680  4.2258
  173MOL0     H23338  -0.055   8.425   1.974  2.7313 -0.2219  0.4440
  173MOL0     H23339   0.257   8.138   2.009  0.6381 -3.3945  3.6926
  173MOL0     H23340   0.452   8.001   1.942  0.0847 -1.0676  1.8614
  173MOL0     H23341   1.757   8.752   0.695  0.9115  1.1791 -1.1209
  173MOL0     H23342   1.925   8.734   0.514 -0.7005  0.1213 -0.1752
  173MOL0     H23343   2.344   8.475   0.385 -1.1047 -0.4892 -0.6598
  173MOL0     H23344   2.494   8.446   0.209 -0.2084 -0.0509  0.9069
  173MOL0     H23345   2.539   8.795  -0.097 -0.1573  0.8417 -4.1342
  173MOL0     H23346   2.646   8.682  -0.162  0.5843  2.1198 -0.4774
  173MOL0     H23347   2.425   8.676  -0.271  0.5552  2.5036  0.6407
  173MOL0     H23348   2.344   8.619  -0.125  1.3537  3.9520  2.6906
  173MOL0     H23349   2.499   8.423  -0.126 -2.0235 -0.4081 -0.7453
  173MOL0     H23350   2.597   8.482  -0.264 -0.0334 -1.9026 -2.5757
  173MOL0     H23351   2.292   8.461  -0.309 -0.7242 -0.7341 -2.1025
  173MOL0     H23352   2.396   8.311  -0.313  0.3156 -0.4221  0.8333
  173MOL0     H23353   2.519   8.494  -0.662 -1.6860 -0.4487 -0.8179
  173MOL0     H23354   2.424   8.846   0.077  0.6796  0.9967  1.8538
  173MOL0     H23355   2.260   8.865   0.249 -3.3174 -1.1760  1.2328
  174MOL0     O23356   1.623   5.864   1.808 -0.0030 -0.3815 -0.1129
  174MOL0     C23357   1.638   5.771   1.730 -0.0387 -0.6470 -0.5924
  174MOL0     O23358   1.556   5.670   1.709 -0.2156  0.8045  0.3189
  174MOL0     C23359   1.428   5.685   1.738 -0.8334  0.5332 -0.5674
  174MOL0     C23360   1.387   5.684   1.867 -0.3751  0.2019 -0.7209
  174MOL0     C23361   1.248   5.680   1.894  0.5084 -0.3666  0.5953
  174MOL0     C23362   1.152   5.689   1.790  1.0813  0.0070  1.1593
  174MOL0     O23363   1.019   5.687   1.835 -0.3761  0.2367  0.4304
  174MOL0     C23364   0.927   5.620   1.747 -1.1312  0.8302  0.4811
  174MOL0     C23365   0.814   5.564   1.829 -0.1795  0.1744  0.3702
  174MOL0     C23366   0.704   5.662   1.851  0.2008  0.2558  0.3809
  174MOL0     C23367   0.587   5.600   1.929 -0.6410  0.6261  0.0530
  174MOL0     C23368   0.507   5.501   1.845  0.3421 -0.7531 -0.8404
  174MOL0     C23369   0.390   5.460   1.929  0.2301 -1.1485 -0.7517
  174MOL0     C23370   0.289   5.360   1.874  0.1428  0.7886  1.0375
  174MOL0     C23371   0.300   5.223   1.941  0.1405  0.3888 -0.0174
  174MOL0     N23372   0.210   5.126   1.870  0.0431 -0.8068  0.2361
  174MOL0     C23373   0.204   5.098   1.736  0.1185  0.1879  0.1855
  174MOL0     C23374   0.100   5.007   1.725 -0.1235  0.0575  0.9915
  174MOL0     C23375   0.059   4.935   1.600  0.4210 -0.6053 -0.0968
  174MOL0     C23376  -0.067   4.996   1.542 -0.4821  0.2742 -0.6937
  174MOL0     C23377  -0.069   4.973   1.387  0.3233 -0.2465  0.2996
  174MOL0     C23378  -0.031   4.824   1.342  0.5835  0.5191  0.1012
  174MOL0     O23379  -0.086   4.730   1.433  0.7412  0.3236  0.0272
  174MOL0     C23380  -0.219   4.727   1.452 -0.4251  0.8182  0.2918
  174MOL0     C23381  -0.267   4.727   1.583  0.0032 -0.6029 -1.1392
  174MOL0     C23382  -0.410   4.736   1.609  0.1362  0.2118 -0.1744
  174MOL0     C23383  -0.449   4.761   1.753  0.1159 -0.6187 -1.3778
  174MOL0     C23384  -0.498   4.717   1.499  0.9170 -0.0692  0.0976
  174MOL0     C23385  -0.643   4.697   1.509 -1.0356 -0.0990 -0.2426
  174MOL0     O23386  -0.721   4.644   1.405  0.0008  0.1848  0.9368
  174MOL0     C23387  -0.856   4.640   1.425  0.1141  0.6194  0.4755
  174MOL0     C23388  -0.935   4.745   1.384 -0.3292 -0.2347  0.0080
  174MOL0     C23389  -1.074   4.733   1.402 -0.0992 -0.2033  0.0247
  174MOL0     C23390  -1.134   4.627   1.478 -0.0177 -0.8401 -0.8312
  174MOL0     O23391  -1.270   4.606   1.486  0.4362  0.6137 -0.3561
  174MOL0     C23392  -1.360   4.690   1.410  0.5251 -0.0392  0.5007
  174MOL0     C23393  -1.499   4.644   1.459 -0.2256 -0.8018  0.5274
  174MOL0     C23394  -1.608   4.677   1.354  0.7500  0.1808 -0.5332
  174MOL0     C23395  -1.757   4.659   1.404  0.0962 -0.4373 -0.1870
  174MOL0     C23396  -1.794   4.516   1.409  0.4823 -0.1379  0.6464
  174MOL0     C23397  -1.947   4.498   1.416 -0.1459 -0.1599 -0.5541
  174MOL0     C23398  -1.975   4.355   1.385 -0.9239 -0.0207  0.4348
  174MOL0     C23399  -2.120   4.316   1.387 -0.2137 -0.1043  0.8422
  174MOL0    Cl23400  -2.117   4.139   1.392  0.2548  0.0773  0.1062
  174MOL0     C23401  -1.053   4.523   1.517 -0.1833 -0.7588  1.5858
  174MOL0     C23402  -0.914   4.528   1.482  0.2536 -0.4966  0.1069
  174MOL0     O23403  -0.690   4.720   1.614  0.6089 -0.4250 -0.0758
  174MOL0     C23404  -0.437   4.700   1.370  0.3190  0.6482 -0.5645
  174MOL0     C23405  -0.301   4.712   1.349 -2.0032  0.0850  0.3816
  174MOL0     N23406   0.055   4.978   1.850 -0.1731  0.8923  0.3208
  174MOL0     N23407   0.122   5.050   1.931 -0.4053 -0.2214 -0.1139
  174MOL0     C23408   1.200   5.690   1.659  0.1999  0.2847 -0.3931
  174MOL0     C23409   1.342   5.687   1.635  0.1645  0.3254  0.5498
  174MOL0     C23410   1.768   5.767   1.643  0.4272  0.0630 -0.5217
  174MOL0     C23411   1.820   5.643   1.609  0.8154  0.3106  0.9551
  174MOL0     C23412   1.951   5.632   1.547  0.6177  0.2822  0.4064
  174MOL0     C23413   2.018   5.750   1.510 -0.3834  0.3884  0.4842
  174MOL0     O23414   2.144   5.742   1.444  0.6833 -1.1607 -0.0649
  174MOL0     C23415   2.204   5.872   1.430 -0.5675 -0.5116  0.0870
  174MOL0     C23416   2.346   5.843   1.390 -0.0534 -0.1541 -0.3697
  174MOL0     C23417   2.358   5.867   1.238  0.3793 -0.2034 -0.9713
  174MOL0     C23418   2.440   5.758   1.167 -0.0451 -0.2659 -0.4654
  174MOL0     C23419   2.572   5.721   1.226  0.4269 -0.7923  0.0644
  174MOL0     C23420   2.673   5.670   1.278 -0.5647  0.9079 -0.2921
  174MOL0     C23421   1.960   5.872   1.542  0.8972 -0.4499 -0.5000
  174MOL0     C23422   1.834   5.881   1.611 -0.2398  0.4443 -0.1593
  174MOL0     H23423   1.464   5.680   1.943 -0.8809 -0.4205 -0.2321
  174MOL0     H23424   1.212   5.663   1.994 -1.6800 -4.2334 -0.6458
  174MOL0     H23425   0.899   5.692   1.670 -0.7939 -0.4859 -0.9111
  174MOL0     H23426   0.969   5.538   1.688 -2.7752  0.7531 -0.6478
  174MOL0     H23427   0.779   5.473   1.779 -3.5418  0.7020  1.4837
  174MOL0     H23428   0.851   5.526   1.924 -0.3877 -0.5975  0.1551
  174MOL0     H23429   0.743   5.749   1.904  0.0628 -0.0536  0.9973
  174MOL0     H23430   0.677   5.702   1.752 -0.6376 -1.9838 -0.3645
  174MOL0     H23431   0.630   5.542   2.012  0.9775 -2.0599 -2.4873
  174MOL0     H23432   0.519   5.679   1.962 -1.3027  0.3994 -0.7413
  174MOL0     H23433   0.471   5.542   1.750 -3.1125 -1.4640  0.0048
  174MOL0     H23434   0.569   5.412   1.833 -0.3942 -1.1354 -1.9534
  174MOL0     H23435   0.414   5.420   2.028 -2.9930 -2.6735 -0.4845
  174MOL0     H23436   0.340   5.554   1.956  1.1297 -1.0504  0.6905
  174MOL0     H23437   0.187   5.394   1.894 -0.9679 -1.4885 -0.2927
  174MOL0     H23438   0.290   5.344   1.766  0.2891 -1.7796  1.3605
  174MOL0     H23439   0.281   5.229   2.048  0.0774  0.2791 -0.0230
  174MOL0     H23440   0.404   5.193   1.922  0.4300  0.4630  1.3999
  174MOL0     H23441   0.254   5.138   1.648 -1.9834  0.2330 -1.0624
  174MOL0     H23442   0.143   4.950   1.532  1.4037  2.1799  1.5877
  174MOL0     H23443   0.045   4.829   1.627  1.4658 -1.1498 -1.5796
  174MOL0     H23444  -0.084   5.104   1.556  2.1886  0.7226 -0.3567
  174MOL0     H23445  -0.143   4.942   1.599  1.5590 -0.4961  1.4395
  174MOL0     H23446  -0.005   5.045   1.334 -0.9836  1.7679  1.3089
  174MOL0     H23447  -0.170   5.001   1.356  0.4289  0.1490  0.3002
  174MOL0     H23448   0.078   4.819   1.337  0.4957 -0.4819 -1.8877
  174MOL0     H23449  -0.080   4.807   1.246 -3.4132  0.9950  1.8714
  174MOL0     H23450  -0.204   4.749   1.669 -0.8178 -0.3258 -0.6001
  174MOL0     H23451  -0.495   4.860   1.763  0.3693 -0.7271  1.5856
  174MOL0     H23452  -0.526   4.692   1.790  0.7421  0.1751  1.6433
  174MOL0     H23453  -0.368   4.755   1.825  0.0454  0.1515 -1.2286
  174MOL0     H23454  -0.884   4.816   1.320 -0.0531 -2.4504 -2.4294
  174MOL0     H23455  -1.135   4.812   1.359 -2.2849 -1.5089  0.5656
  174MOL0     H23456  -1.348   4.798   1.425 -0.7365  0.6472 -2.6868
  174MOL0     H23457  -1.345   4.673   1.303  0.2696  1.1498  0.2563
  174MOL0     H23458  -1.504   4.537   1.480  0.0829 -1.4329 -2.2435
  174MOL0     H23459  -1.527   4.704   1.546  1.6750  0.6643  0.1795
  174MOL0     H23460  -1.599   4.616   1.263 -0.9176 -0.0784 -0.5668
  174MOL0     H23461  -1.596   4.781   1.323 -1.6610 -0.3225 -3.6755
  174MOL0     H23462  -1.772   4.719   1.495 -0.9137 -2.2083  0.8526
  174MOL0     H23463  -1.817   4.714   1.330  2.3035  0.4580 -1.4233
  174MOL0     H23464  -1.753   4.482   1.505  3.1178  0.9050 -0.0220
  174MOL0     H23465  -1.748   4.467   1.323 -1.2742 -2.1024  0.7672
  174MOL0     H23466  -1.977   4.540   1.512  1.5380  3.0441 -1.2870
  174MOL0     H23467  -1.988   4.556   1.333  1.0006 -1.7477 -2.3295
  174MOL0     H23468  -1.925   4.289   1.456 -2.0653  1.4405  2.6947
  174MOL0     H23469  -1.940   4.333   1.284  0.3662  1.3217  0.5642
  174MOL0     H23470  -2.174   4.356   1.301  0.9395  1.8143  0.9518
  174MOL0     H23471  -2.155   4.364   1.479  2.3364 -0.4714  2.0859
  174MOL0     H23472  -1.095   4.432   1.559  0.3077 -1.8736 -0.2377
  174MOL0     H23473  -0.853   4.445   1.517  1.5650  1.2421  2.2466
  174MOL0     H23474  -0.501   4.674   1.286 -0.4035 -2.9158  0.9049
  174MOL0     H23475  -0.257   4.694   1.252 -1.6673  0.0328  0.5429
  174MOL0     H23476   1.140   5.693   1.569 -1.0066  2.3372  0.4143
  174MOL0     H23477   1.372   5.670   1.532  2.3574  1.9065  0.8729
  174MOL0     H23478   1.757   5.560   1.641 -3.1715  2.8930  0.5147
  174MOL0     H23479   1.996   5.535   1.534  0.1818 -0.1266  1.7700
  174MOL0     H23480   2.151   5.937   1.360 -0.5326 -0.3713  0.1922
  174MOL0     H23481   2.206   5.918   1.529  0.3790 -2.3753  1.0011
  174MOL0     H23482   2.364   5.736   1.406  0.8786  0.0610  0.0932
  174MOL0     H23483   2.413   5.908   1.447 -1.0404 -1.3746  2.3513
  174MOL0     H23484   2.409   5.963   1.223  0.9046 -0.4184 -0.5688
  174MOL0     H23485   2.255   5.869   1.202 -0.9017 -1.4777  2.2830
  174MOL0     H23486   2.449   5.791   1.063 -1.3936  0.1473 -0.4570
  174MOL0     H23487   2.379   5.667   1.167  1.1364 -1.1430 -2.2679
  174MOL0     H23488   2.753   5.638   1.342  2.1936  0.7019 -3.5603
  174MOL0     H23489   1.996   5.973   1.524 -1.0581 -0.2893 -4.7350
  174MOL0     H23490   1.790   5.973   1.647  0.8382  0.7323  0.4702
  175MOL0     O23491   5.529   7.160  10.545  0.2712  0.1166 -0.0706
  175MOL0     C23492   5.538   7.197  10.662 -0.1096  0.3025 -0.2295
  175MOL0     O23493   5.448   7.174  10.766  0.8667  0.6481  0.3976
  175MOL0     C23494   5.324   7.114  10.751  0.1608  0.7453  0.2097
  175MOL0     C23495   5.238   7.164  10.657  0.8689  0.4878  0.0151
  175MOL0     C23496   5.115   7.109  10.638 -0.9590  0.3735  0.7630
  175MOL0     C23497   5.076   7.002  10.720 -0.0475  0.0672  0.3214
  175MOL0     O23498   4.947   6.942  10.688 -0.3218 -0.2609  0.5344
  175MOL0     C23499   4.861   6.898  10.790  0.4773 -0.5646 -0.4223
  175MOL0     C23500   4.722   6.870  10.731  0.1300  0.3765  0.0426
  175MOL0     C23501   4.605   6.887  10.835  0.3989  0.1869 -0.1830
  175MOL0     C23502   4.476   6.898  10.754 -0.5294 -0.2012 -0.3777
  175MOL0     C23503   4.362   6.858  10.848  0.3774 -0.3172  0.2237
  175MOL0     C23504   4.238   6.867  10.761  0.2753  0.5161  0.3385
  175MOL0     C23505   4.104   6.847  10.836 -0.9527  0.5155  0.2697
  175MOL0     C23506   3.995   6.816  10.725  0.5599  0.1643  0.1706
  175MOL0     N23507   3.882   6.727  10.770 -0.3951 -0.6520  0.1710
  175MOL0     C23508   3.755   6.766  10.790  0.0950 -0.3810 -0.3493
  175MOL0     C23509   3.676   6.654  10.800 -0.6627  0.1908 -0.4477
  175MOL0     C23510   3.524   6.644  10.832  0.6791 -0.4362 -0.0090
  175MOL0     C23511   3.514   6.637  10.981  0.2758 -0.6198 -0.1293
  175MOL0     C23512   3.380   6.671  11.035  0.3619 -0.2223  0.1753
  175MOL0     C23513   3.281   6.566  10.998  0.0660  0.2812 -0.0317
  175MOL0     O23514   3.148   6.607  11.032  0.1177 -0.4761  0.5816
  175MOL0     C23515   3.032   6.537  10.993 -0.5904  0.1645 -0.4048
  175MOL0     C23516   3.032   6.414  10.925 -0.4549 -0.0232 -0.3462
  175MOL0     C23517   2.909   6.350  10.886 -0.1298  0.4242 -0.0585
  175MOL0     C23518   2.923   6.207  10.841 -0.0785 -0.9948 -0.1217
  175MOL0     C23519   2.787   6.427  10.894 -0.2308  0.1771  0.6275
  175MOL0     C23520   2.653   6.382  10.852 -0.4856 -0.4410  0.7285
  175MOL0     O23521   2.558   6.470  10.837 -0.0624  0.2758 -0.1659
  175MOL0     C23522   2.436   6.422  10.791 -0.2080  0.7328 -0.0447
  175MOL0     C23523   2.325   6.390  10.871 -0.8417  1.0420  0.1777
  175MOL0     C23524   2.206   6.334  10.818 -0.3902  0.0649 -0.4956
  175MOL0     C23525   2.182   6.327  10.684 -0.3556 -0.1472 -0.6620
  175MOL0     O23526   2.058   6.292  10.650  0.7640 -0.0896 -0.1130
  175MOL0     C23527   2.036   6.237  10.524  0.5592 -0.1414 -0.4938
  175MOL0     C23528   2.098   6.091  10.512  0.4586  0.2207 -0.1168
  175MOL0     C23529   2.008   5.990  10.581  0.4320 -0.1308 -0.2568
  175MOL0     C23530   2.073   5.849  10.600 -0.5009  0.3128  0.6170
  175MOL0     C23531   2.054   5.760  10.476  0.4192 -0.3036  0.1076
  175MOL0     C23532   2.127   5.614  10.477  0.2516 -0.8176  0.2722
  175MOL0     C23533   2.272   5.624  10.407 -0.4639  0.4098  0.6883
  175MOL0     C23534   2.351   5.492  10.426 -0.4430 -0.0581  0.2644
  175MOL0    Cl23535   2.499   5.496  10.326  0.3260 -0.0305 -0.3846
  175MOL0     C23536   2.285   6.365  10.597 -0.3506 -0.7819  0.7574
  175MOL0     C23537   2.413   6.405  10.654  0.2524  0.7829 -0.4714
  175MOL0     O23538   2.628   6.258  10.841  0.4624 -1.2560  0.1643
  175MOL0     C23539   2.795   6.550  10.961 -0.2689  0.5813  0.0083
  175MOL0     C23540   2.916   6.601  11.018 -0.2760 -0.5208 -0.2835
  175MOL0     N23541   3.769   6.549  10.789 -0.6114  0.0932  0.1428
  175MOL0     N23542   3.888   6.596  10.765 -0.1324 -0.5765 -0.3620
  175MOL0     C23543   5.158   6.952  10.818 -0.9498 -0.3198 -0.4188
  175MOL0     C23544   5.283   7.011  10.837  0.7420  0.6254 -0.0188
  175MOL0     C23545   5.649   7.295  10.700 -0.0194 -0.2829  0.1189
  175MOL0     C23546   5.666   7.342  10.828 -0.9238 -0.1378  0.2190
  175MOL0     C23547   5.769   7.434  10.863  0.0784  0.0710 -0.5931
  175MOL0     C23548   5.855   7.482  10.772  0.0871  0.4311  1.0164
  175MOL0     O23549   5.961   7.551  10.819  0.3293 -0.3131  0.1314
  175MOL0     C23550   6.044   7.623  10.727  0.9460 -0.5890 -0.4087
  175MOL0     C23551   6.135   7.717  10.805 -0.8457 -0.6708 -0.5620
  175MOL0     C23552   6.189   7.828  10.720  0.3024 -0.0715  0.3195
  175MOL0     C23553   6.259   7.771  10.595 -0.4014  0.4208  0.2870
  175MOL0     C23554   6.310   7.890  10.521  0.4750  0.4922  0.5188
  175MOL0     C23555   6.351   7.997  10.481  0.0544  0.2715  0.5956
  175MOL0     C23556   5.841   7.439  10.639  0.4238 -0.7098 -0.0221
  175MOL0     C23557   5.742   7.339  10.611 -0.5733  0.7706 -0.3859
  175MOL0     H23558   5.262   7.243  10.586  1.3680 -0.3929 -0.8267
  175MOL0     H23559   5.056   7.138  10.552 -2.7506 -1.1916  1.3909
  175MOL0     H23560   4.900   6.810  10.842  0.2668 -1.3456 -1.5376
  175MOL0     H23561   4.846   6.978  10.863 -0.0103 -1.8319  0.8990
  175MOL0     H23562   4.695   6.950  10.662 -1.0610  0.5071  0.6398
  175MOL0     H23563   4.720   6.774  10.679 -0.4552  1.0193 -1.1576
  175MOL0     H23564   4.606   6.810  10.912  2.5336  2.5415  2.3371
  175MOL0     H23565   4.613   6.980  10.892  1.4028  0.4365 -0.7111
  175MOL0     H23566   4.456   7.003  10.730 -3.7883 -0.9069 -1.3401
  175MOL0     H23567   4.484   6.832  10.667 -2.0406  2.4748 -2.7337
  175MOL0     H23568   4.377   6.759  10.893 -0.4741  1.1817  4.2685
  175MOL0     H23569   4.361   6.929  10.932  0.9563 -0.2324  0.1631
  175MOL0     H23570   4.226   6.958  10.702 -0.9153 -1.1109 -2.1121
  175MOL0     H23571   4.244   6.793  10.680  0.7256 -1.2959  1.9501
  175MOL0     H23572   4.112   6.757  10.898  0.1908 -0.1279 -0.7715
  175MOL0     H23573   4.080   6.940  10.888 -3.6592 -0.8838  1.7142
  175MOL0     H23574   4.031   6.766  10.635 -1.0996 -0.6917 -0.0651
  175MOL0     H23575   3.955   6.911  10.689  2.3094 -0.7259 -4.8164
  175MOL0     H23576   3.710   6.864  10.778  0.7749 -0.1576 -1.2986
  175MOL0     H23577   3.464   6.731  10.803 -2.9121 -2.4810  0.7421
  175MOL0     H23578   3.480   6.556  10.784 -1.1111  1.7425 -2.6885
  175MOL0     H23579   3.586   6.708  11.022 -0.9884  0.5617  0.1061
  175MOL0     H23580   3.537   6.533  11.007  0.6501 -0.9833 -1.8135
  175MOL0     H23581   3.345   6.765  10.991 -1.2107 -1.4350 -1.2776
  175MOL0     H23582   3.376   6.686  11.143 -0.0905 -0.9110  0.2563
  175MOL0     H23583   3.309   6.475  11.053  0.3705  0.9534  0.9551
  175MOL0     H23584   3.288   6.550  10.890  0.6342  0.4364 -0.0203
  175MOL0     H23585   3.132   6.376  10.913 -0.7708 -1.2390  0.6978
  175MOL0     H23586   3.022   6.160  10.839  0.1948 -0.4395 -2.5415
  175MOL0     H23587   2.857   6.141  10.898 -1.8149  2.1451  1.7902
  175MOL0     H23588   2.887   6.204  10.738 -1.5187  0.3132  0.3102
  175MOL0     H23589   2.327   6.406  10.979  0.6382  3.1857 -0.1041
  175MOL0     H23590   2.126   6.326  10.892 -0.6735  2.7160 -0.4152
  175MOL0     H23591   1.929   6.219  10.515  0.6395 -2.7038  2.1136
  175MOL0     H23592   2.072   6.295  10.439  1.3598  0.1562  0.0378
  175MOL0     H23593   2.115   6.054  10.411 -0.7138 -2.3643  0.5484
  175MOL0     H23594   2.191   6.084  10.569 -1.1046  2.3883  2.9931
  175MOL0     H23595   1.906   5.994  10.542 -0.4104  2.2367  1.9075
  175MOL0     H23596   2.004   6.011  10.688  0.2401 -0.9961 -0.0851
  175MOL0     H23597   2.178   5.863  10.627  0.0278 -2.3291  0.2352
  175MOL0     H23598   2.037   5.791  10.685  1.7287 -1.0970  0.7055
  175MOL0     H23599   2.101   5.810  10.391 -1.1302  0.8047 -0.1325
  175MOL0     H23600   1.948   5.743  10.454  0.7413  1.2330 -3.2590
  175MOL0     H23601   2.119   5.593  10.584 -2.9260  1.8614  0.7274
  175MOL0     H23602   2.056   5.550  10.424 -0.6725  1.9562 -2.1440
  175MOL0     H23603   2.335   5.702  10.450  2.6240 -0.9281 -1.0351
  175MOL0     H23604   2.262   5.645  10.300 -1.9753  0.2673  0.7839
  175MOL0     H23605   2.292   5.415  10.374 -0.4297 -0.3135  0.6260
  175MOL0     H23606   2.355   5.462  10.531  0.3846 -0.5283  0.1093
  175MOL0     H23607   2.261   6.361  10.491 -2.8691  2.4834  1.0283
  175MOL0     H23608   2.489   6.426  10.580 -0.2359 -1.8706 -1.8538
  175MOL0     H23609   2.703   6.607  10.971  0.6288  2.0742  0.0736
  175MOL0     H23610   2.904   6.693  11.074  0.2627 -0.2938 -0.5325
  175MOL0     H23611   5.110   6.882  10.885 -4.7900  0.3345 -2.2216
  175MOL0     H23612   5.352   6.976  10.913  0.2149 -0.8709 -0.1964
  175MOL0     H23613   5.601   7.308  10.908 -1.8992 -0.1129 -0.5451
  175MOL0     H23614   5.786   7.456  10.968  0.1203 -0.0793 -0.5690
  175MOL0     H23615   6.107   7.557  10.666  2.2560  0.0991  0.1594
  175MOL0     H23616   5.975   7.668  10.655  0.0495 -2.7590 -0.9885
  175MOL0     H23617   6.215   7.664  10.858  0.0484  0.4464 -0.7591
  175MOL0     H23618   6.068   7.762  10.879 -0.7866  0.2940 -1.0766
  175MOL0     H23619   6.249   7.897  10.779  1.3665  1.7201 -2.6277
  175MOL0     H23620   6.090   7.866  10.693 -0.6571 -3.3388 -1.2223
  175MOL0     H23621   6.195   7.712  10.528  2.6987 -1.4646 -1.2409
  175MOL0     H23622   6.341   7.711  10.635  0.8174  3.2232  2.3604
  175MOL0     H23623   6.399   8.086  10.445  1.1149 -0.8957 -1.0869
  175MOL0     H23624   5.910   7.472  10.561  0.8043 -0.9587  0.2031
  175MOL0     H23625   5.723   7.303  10.511 -3.6825 -2.5713  1.1848
  176MOL0     O23626   1.772   0.571   3.396  0.3718 -0.2533  0.2341
  176MOL0     C23627   1.840   0.654   3.451  0.3833 -0.2498  0.4032
  176MOL0     O23628   1.820   0.718   3.571  0.4762  0.0290  0.5864
  176MOL0     C23629   1.697   0.705   3.619  0.0900  0.4484 -0.1704
  176MOL0     C23630   1.648   0.589   3.679  0.4472  0.7246  0.8136
  176MOL0     C23631   1.518   0.570   3.721 -0.2925 -0.1224  0.3184
  176MOL0     C23632   1.435   0.677   3.730 -0.1322 -0.4667 -0.5033
  176MOL0     O23633   1.303   0.665   3.774  0.0680  0.5776 -0.0737
  176MOL0     C23634   1.224   0.778   3.813  0.4121  0.6795  1.2126
  176MOL0     C23635   1.104   0.727   3.892 -0.4558  0.2317 -0.7836
  176MOL0     C23636   1.070   0.849   3.983  0.0416  0.3820 -0.2331
  176MOL0     C23637   0.926   0.844   4.000  0.2412 -0.7339 -0.5362
  176MOL0     C23638   0.870   0.950   4.105 -0.1243 -0.9099 -0.6170
  176MOL0     C23639   0.726   0.931   4.140  0.1413  0.7284 -0.7762
  176MOL0     C23640   0.707   0.808   4.245  0.6878 -0.8402 -0.0006
  176MOL0     C23641   0.553   0.801   4.266 -0.2140 -0.5038  0.3192
  176MOL0     N23642   0.520   0.681   4.337  0.3915  0.2468  1.0309
  176MOL0     C23643   0.536   0.557   4.286  0.0303  0.5570 -0.1561
  176MOL0     C23644   0.467   0.475   4.373  0.2836  0.4484  0.8133
  176MOL0     C23645   0.439   0.330   4.368 -0.0813 -0.1224  0.5656
  176MOL0     C23646   0.296   0.306   4.320 -0.1095 -1.0991 -0.5740
  176MOL0     C23647   0.206   0.290   4.452 -0.8816  0.1494  1.0972
  176MOL0     C23648   0.057   0.278   4.418 -0.3006 -0.0569  0.0612
  176MOL0     O23649   0.023   0.139   4.394 -0.3131  0.2366  0.1922
  176MOL0     C23650  -0.065   0.081   4.481  0.1930  1.0002 -0.0713
  176MOL0     C23651  -0.069   0.096   4.618 -0.2106  0.2010  0.0895
  176MOL0     C23652  -0.152   0.031   4.707 -0.1037  0.0661  0.6186
  176MOL0     C23653  -0.117   0.035   4.855  0.5652 -0.1767 -0.5940
  176MOL0     C23654  -0.240  -0.061   4.649  0.2501 -0.9455  0.6242
  176MOL0     C23655  -0.336  -0.135   4.742 -0.4792  0.4622 -0.3628
  176MOL0     O23656  -0.342  -0.264   4.730  0.0145  0.6148 -0.5168
  176MOL0     C23657  -0.450  -0.339   4.782 -0.3370 -0.2167  0.1530
  176MOL0     C23658  -0.428  -0.471   4.826 -0.6309  0.6513 -0.6740
  176MOL0     C23659  -0.537  -0.549   4.866 -0.1821  0.3144 -0.5073
  176MOL0     C23660  -0.668  -0.505   4.853  0.3265  0.1405 -0.2302
  176MOL0     O23661  -0.780  -0.580   4.885  0.4208  0.4528  0.8811
  176MOL0     C23662  -0.796  -0.643   5.013 -0.0301  0.1461  0.4600
  176MOL0     C23663  -0.883  -0.547   5.102 -0.0791  0.2082 -0.3676
  176MOL0     C23664  -0.961  -0.618   5.215  0.8702  1.1409 -1.2115
  176MOL0     C23665  -1.050  -0.523   5.289 -0.8336  0.3262  0.8067
  176MOL0     C23666  -1.108  -0.587   5.419  0.5725 -0.6904  0.4694
  176MOL0     C23667  -1.205  -0.478   5.473 -0.2483  0.0954 -0.6816
  176MOL0     C23668  -1.269  -0.522   5.605  0.1070  0.5165  0.4766
  176MOL0     C23669  -1.354  -0.412   5.665  0.2565 -0.1534  0.5107
  176MOL0    Cl23670  -1.486  -0.456   5.779 -0.5162 -0.0621 -0.4243
  176MOL0     C23671  -0.686  -0.365   4.820  0.2710  0.3781 -0.3401
  176MOL0     C23672  -0.582  -0.283   4.787 -0.2972 -0.4908  0.4079
  176MOL0     O23673  -0.399  -0.072   4.827  0.6247  0.2957  0.5877
  176MOL0     C23674  -0.233  -0.091   4.515  0.3769  0.6202 -0.4634
  176MOL0     C23675  -0.153  -0.018   4.432 -0.5166  0.1319 -0.3884
  176MOL0     N23676   0.414   0.552   4.472  0.4189  0.2065 -1.0018
  176MOL0     N23677   0.438   0.678   4.447 -0.2623 -0.1667 -0.0363
  176MOL0     C23678   1.472   0.800   3.678 -0.8492  0.2024 -0.8576
  176MOL0     C23679   1.604   0.814   3.622  0.0093  0.2301 -0.3095
  176MOL0     C23680   1.976   0.683   3.379 -0.6527  0.4084 -0.4487
  176MOL0     C23681   2.030   0.605   3.281  0.1952  0.0983  0.9773
  176MOL0     C23682   2.152   0.627   3.230 -0.2050 -0.3904  1.6759
  176MOL0     C23683   2.226   0.738   3.278  0.0515  0.3622 -0.4313
  176MOL0     O23684   2.349   0.777   3.229 -0.1176  0.1811  0.0197
  176MOL0     C23685   2.388   0.734   3.095 -0.1722  0.5527 -0.7921
  176MOL0     C23686   2.527   0.684   3.085  0.1071  0.0224  0.5831
  176MOL0     C23687   2.543   0.541   3.149  0.5744  0.6759  0.3611
  176MOL0     C23688   2.689   0.492   3.157  0.1105  0.2686 -1.2129
  176MOL0     C23689   2.777   0.535   3.047  0.3331  0.7281 -0.2763
  176MOL0     C23690   2.845   0.561   2.947  0.6444 -0.1033 -0.5307
  176MOL0     C23691   2.186   0.816   3.381  0.4719  0.4293  0.1022
  176MOL0     C23692   2.063   0.774   3.436 -0.1966 -0.0808 -0.1450
  176MOL0     H23693   1.706   0.497   3.680  0.2056  0.4984 -1.2631
  176MOL0     H23694   1.485   0.474   3.758  1.3759 -0.7661  0.2215
  176MOL0     H23695   1.287   0.836   3.881  0.9100  1.1261  0.3854
  176MOL0     H23696   1.185   0.837   3.730 -0.1059  1.2870  1.8750
  176MOL0     H23697   1.025   0.693   3.825 -2.2872  2.9096 -0.1597
  176MOL0     H23698   1.128   0.643   3.958 -1.5656  0.8064  0.4183
  176MOL0     H23699   1.122   0.839   4.079  1.4606  1.1892 -0.8976
  176MOL0     H23700   1.108   0.945   3.946  1.9761 -0.4092 -0.3652
  176MOL0     H23701   0.871   0.851   3.905 -0.4623  0.6081 -0.0664
  176MOL0     H23702   0.905   0.745   4.041  0.1464 -0.4143  0.2088
  176MOL0     H23703   0.929   0.947   4.197  1.4827  2.6531 -1.3719
  176MOL0     H23704   0.876   1.051   4.062 -3.3715  0.4796  1.8032
  176MOL0     H23705   0.689   1.022   4.190  0.3140  1.4817 -1.9796
  176MOL0     H23706   0.676   0.924   4.043 -0.6539 -2.8596 -0.2210
  176MOL0     H23707   0.742   0.712   4.205 -0.6879 -1.8458  1.0696
  176MOL0     H23708   0.759   0.831   4.338  1.2186  1.6594 -0.8351
  176MOL0     H23709   0.499   0.794   4.171 -0.1884 -0.5992  0.3119
  176MOL0     H23710   0.514   0.877   4.333 -0.8889 -0.7057  0.1702
  176MOL0     H23711   0.583   0.519   4.196  1.0037 -1.3747  1.0869
  176MOL0     H23712   0.508   0.301   4.289  0.2418 -0.8406  1.0981
  176MOL0     H23713   0.457   0.281   4.464 -0.8481  0.7517  1.1780
  176MOL0     H23714   0.294   0.216   4.258  0.0580 -2.2340  0.9899
  176MOL0     H23715   0.267   0.386   4.251  2.2541  1.9451  1.6637
  176MOL0     H23716   0.218   0.377   4.516 -2.9092  0.1886  1.4622
  176MOL0     H23717   0.248   0.200   4.498  1.3623 -0.1653 -1.2975
  176MOL0     H23718   0.047   0.334   4.324 -0.8387 -1.0723 -0.4942
  176MOL0     H23719  -0.000   0.335   4.492 -0.6675 -0.3913  0.0339
  176MOL0     H23720   0.012   0.157   4.655  2.2794 -2.0920 -1.2207
  176MOL0     H23721  -0.032   0.101   4.873  1.8908 -1.4454 -1.9166
  176MOL0     H23722  -0.202   0.059   4.919  0.3934 -1.3028 -0.3761
  176MOL0     H23723  -0.080  -0.062   4.890  3.2860  1.6567  2.1368
  176MOL0     H23724  -0.329  -0.516   4.826  0.0962  2.2065  0.4387
  176MOL0     H23725  -0.527  -0.654   4.893  0.0524  0.6222  0.6557
  176MOL0     H23726  -0.858  -0.727   4.981  0.2218  0.6029 -1.3612
  176MOL0     H23727  -0.704  -0.683   5.058  0.9265 -0.2761 -1.7185
  176MOL0     H23728  -0.823  -0.467   5.148  1.6966 -2.0448  1.5169
  176MOL0     H23729  -0.956  -0.503   5.034  2.1025  1.7923 -1.8126
  176MOL0     H23730  -0.886  -0.655   5.285  0.0432 -0.6584 -1.2214
  176MOL0     H23731  -1.014  -0.707   5.180 -0.8367  0.7929  1.8618
  176MOL0     H23732  -0.986  -0.435   5.302 -1.5103  1.1365 -1.0698
  176MOL0     H23733  -1.128  -0.481   5.225 -0.8979 -0.9045  0.0356
  176MOL0     H23734  -1.022  -0.602   5.485  1.0025  0.3050  0.1684
  176MOL0     H23735  -1.166  -0.678   5.400  0.4934 -0.9162  1.6805
  176MOL0     H23736  -1.149  -0.386   5.494  1.2601 -0.6455 -1.2956
  176MOL0     H23737  -1.277  -0.461   5.393  0.1323  2.4161 -0.6093
  176MOL0     H23738  -1.193  -0.553   5.677  0.4657 -0.6428 -0.3538
  176MOL0     H23739  -1.336  -0.608   5.590 -0.4676  1.0595 -0.1264
  176MOL0     H23740  -1.406  -0.356   5.586 -0.3762 -0.6303  0.5827
  176MOL0     H23741  -1.293  -0.343   5.723 -0.4024 -1.1072  2.3999
  176MOL0     H23742  -0.782  -0.313   4.817 -0.1273 -0.4096 -1.9904
  176MOL0     H23743  -0.598  -0.185   4.743  4.3472 -1.1015 -3.5615
  176MOL0     H23744  -0.302  -0.170   4.486  0.7978 -0.4981  1.3907
  176MOL0     H23745  -0.154  -0.041   4.326 -2.1311 -1.1223 -0.1460
  176MOL0     H23746   1.415   0.892   3.675  1.4463  1.7246 -0.8116
  176MOL0     H23747   1.618   0.902   3.561  1.0377 -1.5912 -2.9153
  176MOL0     H23748   1.969   0.517   3.259 -0.4741  0.8447 -0.2681
  176MOL0     H23749   2.176   0.550   3.157 -0.4605  1.3622 -0.3567
  176MOL0     H23750   2.321   0.655   3.062 -1.5572  0.3875  2.1280
  176MOL0     H23751   2.375   0.818   3.025 -4.7567 -1.7325 -3.1303
  176MOL0     H23752   2.588   0.759   3.137  3.4793 -3.6156  2.4618
  176MOL0     H23753   2.560   0.678   2.981  0.6420 -3.3198  0.8328
  176MOL0     H23754   2.489   0.461   3.096  3.9322 -0.7682 -1.1449
  176MOL0     H23755   2.506   0.546   3.252  2.3401  1.1405  1.0062
  176MOL0     H23756   2.701   0.383   3.151  1.4455  0.2738  0.6211
  176MOL0     H23757   2.729   0.520   3.255  0.0363  1.9664 -1.6318
  176MOL0     H23758   2.899   0.582   2.856 -1.4568 -1.2820 -2.1311
  176MOL0     H23759   2.245   0.900   3.416  0.3989 -0.1115  1.6161
  176MOL0     H23760   2.022   0.848   3.504 -2.1299 -1.5907  0.4322
  177MOL0     O23761  11.236   2.468   5.269 -0.0941 -0.4819  0.4878
  177MOL0     C23762  11.275   2.536   5.170 -0.8523 -0.1608 -0.2527
  177MOL0     O23763  11.213   2.542   5.047 -0.1434  0.2993 -0.3481
  177MOL0     C23764  11.091   2.476   5.030  0.2042 -0.4250  0.6965
  177MOL0     C23765  11.059   2.350   5.075 -0.0295 -0.8215 -0.0039
  177MOL0     C23766  10.946   2.288   5.037 -0.1956  0.0269 -0.5214
  177MOL0     C23767  10.857   2.347   4.948  0.9696  0.7675  0.0407
  177MOL0     O23768  10.742   2.277   4.913  0.0626  0.1577 -0.2651
  177MOL0     C23769  10.632   2.350   4.863 -0.7859 -0.0597  0.4135
  177MOL0     C23770  10.523   2.260   4.851  0.1669 -0.3130  0.0031
  177MOL0     C23771  10.475   2.225   4.993  0.3801  0.4988  0.4683
  177MOL0     C23772  10.367   2.115   4.992 -0.1179 -0.3814 -0.3200
  177MOL0     C23773  10.346   2.056   5.135  0.2376 -0.0223 -0.6044
  177MOL0     C23774  10.227   1.958   5.143 -0.1603 -0.4828  0.8148
  177MOL0     C23775  10.225   1.897   5.287  1.3689 -0.8363  0.2188
  177MOL0     C23776  10.112   1.800   5.313 -0.3192  0.4016  0.3581
  177MOL0     N23777   9.976   1.855   5.291 -0.3873 -0.1406 -0.0328
  177MOL0     C23778   9.895   1.838   5.179  0.0626  0.0530 -0.3419
  177MOL0     C23779   9.782   1.899   5.212  1.0969  0.2191  0.3662
  177MOL0     C23780   9.662   1.923   5.118  0.3133 -0.4925 -0.3812
  177MOL0     C23781   9.545   1.837   5.157  1.0070  0.4749 -0.6241
  177MOL0     C23782   9.509   1.842   5.304 -0.0150 -0.3352 -0.0380
  177MOL0     C23783   9.367   1.808   5.333  0.5908 -0.2922 -1.1723
  177MOL0     O23784   9.289   1.918   5.284 -0.1903 -0.4140 -0.0187
  177MOL0     C23785   9.144   1.905   5.284  0.0373 -0.3787  0.1252
  177MOL0     C23786   9.078   1.784   5.316  0.1889 -1.0581  0.4902
  177MOL0     C23787   8.938   1.775   5.313  0.3510  0.3667  1.1018
  177MOL0     C23788   8.885   1.633   5.348  0.0991  1.2848  0.2214
  177MOL0     C23789   8.859   1.890   5.284  0.1472 -0.3871  0.5880
  177MOL0     C23790   8.712   1.879   5.280 -0.6368  0.2418 -0.4714
  177MOL0     O23791   8.650   1.792   5.366 -0.2484  0.5466 -0.6414
  177MOL0     C23792   8.517   1.767   5.357  0.3615  0.3583  0.6046
  177MOL0     C23793   8.462   1.633   5.336 -0.1516 -0.3041  0.7442
  177MOL0     C23794   8.326   1.614   5.321  0.3078 -0.3525  0.5728
  177MOL0     C23795   8.241   1.718   5.317  0.3485  0.3294  0.3364
  177MOL0     O23796   8.110   1.692   5.277 -0.0003 -0.3306  0.5716
  177MOL0     C23797   8.004   1.793   5.270 -0.1506 -0.5392  0.2650
  177MOL0     C23798   7.958   1.829   5.412 -0.1740 -0.1350  0.6737
  177MOL0     C23799   7.824   1.913   5.404 -0.1513  0.3415  0.3752
  177MOL0     C23800   7.699   1.839   5.362 -0.3686 -0.4025 -0.0126
  177MOL0     C23801   7.651   1.734   5.456 -0.2811  0.5431  0.2302
  177MOL0     C23802   7.548   1.787   5.555 -0.0878 -0.0410 -0.5571
  177MOL0     C23803   7.410   1.716   5.568 -1.2352 -0.1080  0.3354
  177MOL0     C23804   7.303   1.804   5.618 -0.2282  0.7048  0.1140
  177MOL0    Cl23805   7.153   1.716   5.589 -0.1625 -0.1786  0.4188
  177MOL0     C23806   8.282   1.847   5.338  0.6493 -0.8264 -0.5371
  177MOL0     C23807   8.418   1.873   5.359 -0.1932  0.0543  0.2672
  177MOL0     O23808   8.653   1.954   5.209 -0.2334  0.4848 -0.0781
  177MOL0     C23809   8.919   2.008   5.276 -0.5106 -0.3226 -0.1461
  177MOL0     C23810   9.059   2.019   5.264  0.3191 -0.2212  0.9868
  177MOL0     N23811   9.794   1.941   5.342 -0.5435 -0.5384  0.2972
  177MOL0     N23812   9.918   1.925   5.389  0.1229  0.1661 -0.8413
  177MOL0     C23813  10.885   2.469   4.901 -0.4157 -0.3122 -0.9724
  177MOL0     C23814  11.002   2.537   4.941  0.0541  0.5710  0.8303
  177MOL0     C23815  11.412   2.594   5.186  0.3336 -0.4495  0.6812
  177MOL0     C23816  11.492   2.559   5.294  0.0398 -0.6875  0.1196
  177MOL0     C23817  11.627   2.599   5.310  0.2957 -0.2310 -0.4808
  177MOL0     C23818  11.684   2.675   5.214  0.4101 -1.0998  0.2135
  177MOL0     O23819  11.804   2.746   5.215 -0.2738 -0.1163  0.4916
  177MOL0     C23820  11.888   2.716   5.334 -0.5236 -0.0989 -0.0723
  177MOL0     C23821  12.018   2.795   5.306  0.1973  0.6579  0.0879
  177MOL0     C23822  12.100   2.730   5.196 -0.1877 -0.1199 -0.8508
  177MOL0     C23823  12.205   2.636   5.250 -0.4272 -0.1415 -1.1161
  177MOL0     C23824  12.292   2.598   5.139 -0.4875 -0.6283  0.1625
  177MOL0     C23825  12.355   2.541   5.049 -0.9963  0.1839 -0.2446
  177MOL0     C23826  11.604   2.707   5.104  0.3267 -0.3663  0.0379
  177MOL0     C23827  11.472   2.677   5.088 -0.1225 -0.4226  0.6351
  177MOL0     H23828  11.137   2.301   5.132  1.3928  0.9708 -0.3390
  177MOL0     H23829  10.927   2.187   5.071 -0.8725  0.2664 -0.1625
  177MOL0     H23830  10.607   2.428   4.936  0.6035 -2.2411  3.4246
  177MOL0     H23831  10.660   2.390   4.765 -2.7744  0.3218 -0.0414
  177MOL0     H23832  10.443   2.302   4.789  0.7954 -0.5439 -0.9873
  177MOL0     H23833  10.546   2.167   4.798  1.1647 -0.6672  1.0264
  177MOL0     H23834  10.565   2.191   5.046  1.5611  2.1841 -0.3644
  177MOL0     H23835  10.437   2.318   5.035 -0.9124  0.6557 -0.9827
  177MOL0     H23836  10.280   2.166   4.951 -0.8019  0.0347  1.5630
  177MOL0     H23837  10.396   2.037   4.921  1.1384  0.2513 -0.5415
  177MOL0     H23838  10.439   2.002   5.157 -0.1354 -0.4267 -0.0101
  177MOL0     H23839  10.326   2.142   5.200 -0.9766  0.3658 -1.4556
  177MOL0     H23840  10.133   2.003   5.109  1.4510  2.1467 -0.3914
  177MOL0     H23841  10.244   1.882   5.066  0.7439 -1.2515  1.7461
  177MOL0     H23842  10.320   1.844   5.296  1.8693 -0.0649 -0.3228
  177MOL0     H23843  10.217   1.974   5.364 -3.7830  0.0159 -0.8059
  177MOL0     H23844  10.120   1.769   5.417  0.4465 -0.9648 -0.0840
  177MOL0     H23845  10.135   1.705   5.264 -0.2739  0.7895 -0.3989
  177MOL0     H23846   9.916   1.825   5.073 -0.0065  2.1333 -0.6614
  177MOL0     H23847   9.641   2.030   5.121  1.5356 -0.2547  0.1218
  177MOL0     H23848   9.688   1.902   5.014 -1.6674  2.6937 -1.6801
  177MOL0     H23849   9.564   1.737   5.117  1.1798  0.1682  0.2126
  177MOL0     H23850   9.450   1.867   5.110 -0.6498 -2.9469  0.2080
  177MOL0     H23851   9.543   1.940   5.339  2.5540 -0.9592 -0.6094
  177MOL0     H23852   9.568   1.776   5.368 -1.1279 -0.1069  1.2912
  177MOL0     H23853   9.361   1.795   5.441  3.0436  1.4517 -0.7543
  177MOL0     H23854   9.330   1.718   5.283 -3.2022  1.4015 -1.7901
  177MOL0     H23855   9.138   1.696   5.336  0.9108 -0.8900 -0.7577
  177MOL0     H23856   8.849   1.623   5.451  1.8486 -2.5671  0.6171
  177MOL0     H23857   8.805   1.619   5.276  1.4150 -1.3160 -0.8671
  177MOL0     H23858   8.946   1.545   5.328  0.4309  1.1759  1.6078
  177MOL0     H23859   8.529   1.549   5.332  0.3774  0.0767 -3.7823
  177MOL0     H23860   8.288   1.513   5.310  0.2630 -0.3198  0.4161
  177MOL0     H23861   8.043   1.885   5.226  1.6229 -0.8563  1.0470
  177MOL0     H23862   7.925   1.748   5.209 -0.2670 -2.2684  1.6081
  177MOL0     H23863   7.946   1.738   5.471  2.1321 -0.8254  0.1537
  177MOL0     H23864   8.040   1.888   5.454 -0.5603 -0.3383  1.7459
  177MOL0     H23865   7.842   1.999   5.338 -0.0821  1.4455  1.7896
  177MOL0     H23866   7.809   1.968   5.497 -0.7244  2.5389 -0.9325
  177MOL0     H23867   7.623   1.917   5.354 -1.9828 -1.4160  3.4557
  177MOL0     H23868   7.712   1.803   5.260  0.9025  1.8250 -0.6965
  177MOL0     H23869   7.738   1.682   5.495  0.6388  0.9724 -1.1529
  177MOL0     H23870   7.592   1.658   5.404 -3.2195  2.1854  0.9025
  177MOL0     H23871   7.587   1.792   5.657 -1.0170  3.9909 -0.2215
  177MOL0     H23872   7.525   1.891   5.531 -1.1544 -0.7904 -3.1218
  177MOL0     H23873   7.420   1.633   5.639  0.7258 -1.4631 -1.3734
  177MOL0     H23874   7.392   1.673   5.469 -2.0935 -0.7154  0.7352
  177MOL0     H23875   7.306   1.900   5.565 -1.0644  1.2990  1.0985
  177MOL0     H23876   7.320   1.824   5.724  1.8378 -3.8117  0.8784
  177MOL0     H23877   8.219   1.934   5.330 -3.2396 -3.3755 -0.5223
  177MOL0     H23878   8.444   1.976   5.379  0.3672 -0.5834  3.3249
  177MOL0     H23879   8.858   2.098   5.268  0.7742  0.4835 -1.3804
  177MOL0     H23880   9.110   2.103   5.218  2.8191 -3.0546 -1.9313
  177MOL0     H23881  10.833   2.534   4.831  1.9506  2.2583 -0.5356
  177MOL0     H23882  11.038   2.632   4.902  0.7511  1.0152  2.4759
  177MOL0     H23883  11.471   2.492   5.377 -0.9320 -0.2768  0.2189
  177MOL0     H23884  11.684   2.555   5.392  0.6865  1.4539  0.1868
  177MOL0     H23885  11.826   2.743   5.420  0.8270  2.1248  0.2853
  177MOL0     H23886  11.920   2.612   5.346 -1.3463 -0.4530 -0.7674
  177MOL0     H23887  12.078   2.793   5.397  0.0692  2.7027  0.2596
  177MOL0     H23888  11.997   2.897   5.272 -1.1636  0.1601 -0.6416
  177MOL0     H23889  12.159   2.814   5.159  1.3383 -0.2211  1.1806
  177MOL0     H23890  12.029   2.689   5.124 -2.1263  2.2176 -0.3694
  177MOL0     H23891  12.160   2.546   5.293  0.9375 -1.6167 -2.6259
  177MOL0     H23892  12.287   2.670   5.314 -1.5443  0.0724  0.2470
  177MOL0     H23893  12.415   2.483   4.983 -2.0900 -1.2857  0.0018
  177MOL0     H23894  11.646   2.781   5.036  0.7939 -0.9268 -0.2909
  177MOL0     H23895  11.422   2.714   4.999  0.0902  0.3724  0.8319
  178MOL0     O23896   6.871   3.984   2.219 -0.2945  0.2333 -0.7359
  178MOL0     C23897   6.934   3.893   2.162 -0.1149 -0.6505  0.6171
  178MOL0     O23898   6.878   3.808   2.075 -0.4592  0.1976  0.1257
  178MOL0     C23899   6.746   3.801   2.061 -0.5633  0.1878  0.2397
  178MOL0     C23900   6.687   3.818   1.932  1.0544  0.6970 -0.2803
  178MOL0     C23901   6.546   3.814   1.918  0.0758  0.1717  0.1493
  178MOL0     C23902   6.462   3.783   2.020 -0.1510  0.2428 -1.1043
  178MOL0     O23903   6.321   3.764   2.022 -0.4920  0.4118  0.3445
  178MOL0     C23904   6.259   3.777   1.894 -0.3716  0.3835  0.0174
  178MOL0     C23905   6.106   3.732   1.897 -0.0574  0.8281 -0.1647
  178MOL0     C23906   6.067   3.675   1.756  0.3365 -0.6254  1.0384
  178MOL0     C23907   5.936   3.590   1.749  0.3719 -0.1150 -0.2481
  178MOL0     C23908   5.819   3.688   1.755  0.6044 -0.3284 -0.6679
  178MOL0     C23909   5.687   3.611   1.761 -0.1531  1.4002 -0.1372
  178MOL0     C23910   5.568   3.700   1.792  0.2882 -0.8775  1.1778
  178MOL0     C23911   5.436   3.605   1.796 -0.5643 -0.1943  0.2072
  178MOL0     N23912   5.415   3.539   1.668 -0.1239 -0.8348 -0.4692
  178MOL0     C23913   5.378   3.607   1.550  0.0785  0.5783  0.7835
  178MOL0     C23914   5.373   3.504   1.459  0.1481 -0.8255  0.2502
  178MOL0     C23915   5.362   3.508   1.306  0.4817  0.2684 -0.7154
  178MOL0     C23916   5.227   3.544   1.247  0.8834 -0.0838 -0.4827
  178MOL0     C23917   5.189   3.688   1.268  0.2371 -0.3137  0.3901
  178MOL0     C23918   5.099   3.749   1.161  0.1002 -0.2846  0.9543
  178MOL0     O23919   4.978   3.675   1.149 -0.2767  0.3108  0.7352
  178MOL0     C23920   4.877   3.715   1.056 -0.0114 -0.3032  0.2920
  178MOL0     C23921   4.890   3.831   0.982  0.7729 -0.2837 -0.1314
  178MOL0     C23922   4.791   3.877   0.891  0.3193  0.1854  0.1466
  178MOL0     C23923   4.818   4.003   0.801 -0.2839  0.2022 -0.1778
  178MOL0     C23924   4.678   3.792   0.873  0.6152 -0.2255 -0.3893
  178MOL0     C23925   4.572   3.812   0.771 -0.2438  0.6598  0.4670
  178MOL0     O23926   4.462   3.732   0.787 -0.9945 -0.2444  0.2597
  178MOL0     C23927   4.376   3.747   0.682 -0.2430 -0.1346 -0.4211
  178MOL0     C23928   4.287   3.858   0.674 -0.6789 -0.2862  0.3291
  178MOL0     C23929   4.201   3.867   0.568  0.1689 -0.1246  0.0887
  178MOL0     C23930   4.192   3.768   0.476  0.2613  0.6501  0.0730
  178MOL0     O23931   4.099   3.782   0.382  0.6914  0.3031 -0.5809
  178MOL0     C23932   4.047   3.657   0.338  0.5097  0.9959  0.5154
  178MOL0     C23933   3.918   3.689   0.265  0.6123 -0.6412  0.6142
  178MOL0     C23934   3.805   3.727   0.360 -0.3370 -0.1061  0.1763
  178MOL0     C23935   3.668   3.723   0.296 -0.4768  0.4459 -0.1925
  178MOL0     C23936   3.574   3.788   0.391 -0.6264 -0.0334 -0.5550
  178MOL0     C23937   3.421   3.761   0.380  0.0671 -0.3059 -0.1811
  178MOL0     C23938   3.368   3.826   0.256  0.2218  0.7654  0.0158
  178MOL0     C23939   3.220   3.807   0.260  0.4982 -0.0976  0.7218
  178MOL0    Cl23940   3.160   3.650   0.261 -0.4931 -0.0071  0.6389
  178MOL0     C23941   4.280   3.658   0.480  0.3551 -0.6649  0.4635
  178MOL0     C23942   4.366   3.648   0.592  0.2869  0.0680  0.0581
  178MOL0     O23943   4.586   3.896   0.681  0.6864  0.5027  0.3477
  178MOL0     C23944   4.665   3.674   0.951 -0.2420 -0.1592  0.2918
  178MOL0     C23945   4.762   3.639   1.047 -0.3251  0.5192 -0.1945
  178MOL0     N23946   5.399   3.385   1.531  0.0580 -0.3256 -0.2872
  178MOL0     N23947   5.430   3.409   1.652  0.2236 -0.2627  1.0203
  178MOL0     C23948   6.516   3.772   2.145 -1.0766 -0.8527  0.5404
  178MOL0     C23949   6.657   3.781   2.167 -0.4127  0.4268 -0.0650
  178MOL0     C23950   7.074   3.895   2.189  0.4871 -0.3176  0.2689
  178MOL0     C23951   7.130   4.004   2.252 -1.0197  0.6175  0.3171
  178MOL0     C23952   7.273   4.009   2.276 -0.0397  0.0388 -0.4574
  178MOL0     C23953   7.348   3.895   2.245  0.0944  0.0699  0.5010
  178MOL0     O23954   7.486   3.908   2.252  0.1661  0.4107 -0.5120
  178MOL0     C23955   7.575   3.804   2.206 -0.0538 -0.3486 -0.7108
  178MOL0     C23956   7.717   3.848   2.211 -0.8569  0.3466  0.2076
  178MOL0     C23957   7.742   3.972   2.118  0.0790  0.2064 -0.8755
  178MOL0     C23958   7.894   4.001   2.113 -0.6535 -0.0104 -0.4941
  178MOL0     C23959   7.968   3.960   2.225 -0.6727  0.9699 -0.3492
  178MOL0     C23960   8.030   3.918   2.324 -0.4817  0.1714  0.6210
  178MOL0     C23961   7.292   3.781   2.197  0.5567  0.6943 -0.2998
  178MOL0     C23962   7.151   3.782   2.162 -0.7295  0.1470 -0.7131
  178MOL0     H23963   6.761   3.855   1.862  3.3956 -0.4742  1.4293
  178MOL0     H23964   6.510   3.819   1.816  0.5274  3.3635  0.0430
  178MOL0     H23965   6.254   3.883   1.870  0.4420  0.2091 -0.9498
  178MOL0     H23966   6.314   3.712   1.825 -0.4970  0.9765 -0.6486
  178MOL0     H23967   6.074   3.654   1.966 -3.2939 -1.1291 -3.5649
  178MOL0     H23968   6.042   3.818   1.918 -2.0409 -0.5433 -0.3578
  178MOL0     H23969   6.055   3.760   1.688 -1.0153 -2.5268 -1.2469
  178MOL0     H23970   6.157   3.623   1.724 -0.1426 -0.3723 -0.8190
  178MOL0     H23971   5.926   3.548   1.649 -0.9419 -0.8517  0.1662
  178MOL0     H23972   5.932   3.511   1.826 -0.9025  1.3512  1.2663
  178MOL0     H23973   5.822   3.756   1.841 -1.2857  0.2579 -1.0181
  178MOL0     H23974   5.818   3.760   1.672  2.6147  0.3133 -0.1816
  178MOL0     H23975   5.673   3.553   1.669  1.1373 -1.0663  1.1391
  178MOL0     H23976   5.691   3.534   1.839 -0.6183 -1.1029 -2.4358
  178MOL0     H23977   5.579   3.744   1.891  0.7216 -0.2926  0.8755
  178MOL0     H23978   5.559   3.777   1.715  1.6966 -2.1520 -0.3389
  178MOL0     H23979   5.343   3.657   1.821  0.8476  1.9619  1.2691
  178MOL0     H23980   5.448   3.534   1.877 -6.6425 -1.6659  0.2677
  178MOL0     H23981   5.360   3.713   1.535 -1.7615  0.3218  0.8737
  178MOL0     H23982   5.440   3.574   1.265  0.6328  1.1875  0.9626
  178MOL0     H23983   5.386   3.408   1.269 -1.2623 -0.9619  1.2627
  178MOL0     H23984   5.145   3.482   1.285  0.1443  1.3004  0.2495
  178MOL0     H23985   5.222   3.525   1.139 -1.2253  2.3780 -0.9209
  178MOL0     H23986   5.281   3.747   1.266  0.5914 -0.8201 -2.0258
  178MOL0     H23987   5.145   3.704   1.367  0.0276  2.0744 -0.0200
  178MOL0     H23988   5.147   3.770   1.064 -0.1736 -0.1260  0.8521
  178MOL0     H23989   5.068   3.849   1.193  0.6484  0.6945 -1.3249
  178MOL0     H23990   4.972   3.896   1.011  0.1162  0.3491  0.3390
  178MOL0     H23991   4.910   4.056   0.828  0.3791 -1.0863  0.1452
  178MOL0     H23992   4.836   3.980   0.696  0.1739 -2.0598  0.3516
  178MOL0     H23993   4.735   4.074   0.806 -1.4517 -0.9508 -1.9185
  178MOL0     H23994   4.286   3.940   0.745 -1.0417  1.6051 -1.7704
  178MOL0     H23995   4.130   3.946   0.545 -1.1192 -1.7510 -1.8259
  178MOL0     H23996   4.115   3.611   0.266 -1.8298 -0.2048 -1.0655
  178MOL0     H23997   4.026   3.590   0.421  0.9755  0.1249 -0.0613
  178MOL0     H23998   3.925   3.779   0.203  1.0186 -0.1520  1.3693
  178MOL0     H23999   3.886   3.603   0.205 -0.5126  0.5497 -0.5482
  178MOL0     H24000   3.816   3.831   0.393  0.7078 -0.5991  1.4798
  178MOL0     H24001   3.815   3.656   0.442 -2.1529  1.6194  2.0017
  178MOL0     H24002   3.666   3.787   0.208  0.3528 -0.1377 -0.6516
  178MOL0     H24003   3.636   3.620   0.276 -0.0870 -0.0046  1.3032
  178MOL0     H24004   3.597   3.895   0.394 -0.1263 -0.1447  0.9821
  178MOL0     H24005   3.597   3.772   0.497 -0.7065  0.4626 -0.4596
  178MOL0     H24006   3.390   3.656   0.375  0.9947 -0.5647 -0.8610
  178MOL0     H24007   3.368   3.809   0.463  1.9056  2.5227 -0.4939
  178MOL0     H24008   3.416   3.781   0.170 -1.6941  1.0803 -1.2931
  178MOL0     H24009   3.395   3.931   0.272  2.2577  0.1733  0.7847
  178MOL0     H24010   3.184   3.863   0.174  0.1153  1.3954  1.8073
  178MOL0     H24011   3.189   3.852   0.355 -1.5802 -2.8588  1.4808
  178MOL0     H24012   4.277   3.577   0.408 -0.3797  0.5363 -0.8932
  178MOL0     H24013   4.423   3.558   0.613  1.0938  0.1345 -1.6439
  178MOL0     H24014   4.573   3.618   0.943 -1.2645  1.6025 -0.9317
  178MOL0     H24015   4.742   3.555   1.113 -0.2873 -1.4753 -2.5973
  178MOL0     H24016   6.443   3.750   2.223 -1.2038 -2.3603  0.0380
  178MOL0     H24017   6.681   3.784   2.273 -2.3003  1.3959  0.3823
  178MOL0     H24018   7.061   4.083   2.281 -2.9516 -1.6747  2.4606
  178MOL0     H24019   7.314   4.094   2.330 -2.4192  0.2779  1.1483
  178MOL0     H24020   7.563   3.714   2.267 -1.8017 -0.4379 -1.1244
  178MOL0     H24021   7.563   3.775   2.102  1.0678  0.4583 -1.0825
  178MOL0     H24022   7.782   3.763   2.186  0.2472  0.6596  1.9020
  178MOL0     H24023   7.738   3.878   2.314 -0.8776  1.2976 -0.0630
  178MOL0     H24024   7.681   4.050   2.164  0.3474 -0.0725 -0.0140
  178MOL0     H24025   7.701   3.950   2.020 -1.3564 -1.1042 -0.0256
  178MOL0     H24026   7.902   4.110   2.110 -3.8909  0.4103  1.4951
  178MOL0     H24027   7.937   3.945   2.030 -3.3045  1.0684 -2.7919
  178MOL0     H24028   8.091   3.882   2.404  2.1353  0.5180 -1.0932
  178MOL0     H24029   7.350   3.693   2.172 -1.9449 -0.7673 -1.3579
  178MOL0     H24030   7.100   3.697   2.118  0.6771 -1.5358  0.7524
  179MOL0     O24031   7.527   9.578   5.904  0.2202 -0.0103 -0.4618
  179MOL0     C24032   7.447   9.593   5.813 -0.1612  0.1747  0.4398
  179MOL0     O24033   7.468   9.657   5.692 -0.5803 -0.5229 -0.1164
  179MOL0     C24034   7.594   9.710   5.669  0.0468 -0.2587  0.4235
  179MOL0     C24035   7.706   9.617   5.670  0.3794 -0.4211  0.5075
  179MOL0     C24036   7.830   9.661   5.641 -0.8145 -0.7941  0.5274
  179MOL0     C24037   7.857   9.795   5.609  0.1097 -0.7816 -1.5526
  179MOL0     O24038   7.977   9.857   5.581  0.3669 -0.7406 -0.0405
  179MOL0     C24039   8.089   9.773   5.602  0.5426 -0.9403  0.6578
  179MOL0     C24040   8.210   9.853   5.554 -0.9476  0.4681  0.7354
  179MOL0     C24041   8.233   9.986   5.633 -0.2956  0.4290 -0.2028
  179MOL0     C24042   8.373  10.054   5.631  0.8579 -0.6345 -0.5049
  179MOL0     C24043   8.368  10.196   5.708 -0.5277  1.5597 -0.6203
  179MOL0     C24044   8.365  10.180   5.860  0.9113  0.1662 -0.4890
  179MOL0     C24045   8.272  10.289   5.916 -0.7563  0.3986 -0.0099
  179MOL0     C24046   8.124  10.262   5.891  0.8785  0.5854 -0.3080
  179MOL0     N24047   8.073  10.147   5.967  0.4580  0.2328 -0.5074
  179MOL0     C24048   8.022  10.034   5.912 -0.5102 -0.2747  0.6917
  179MOL0     C24049   7.996   9.958   6.019  0.3888  0.4958  1.1166
  179MOL0     C24050   7.959   9.810   6.001 -0.0154  0.0066  0.2616
  179MOL0     C24051   7.807   9.777   6.022  0.5390  0.4030 -0.3365
  179MOL0     C24052   7.767   9.809   6.173  0.5598 -0.2201  0.4517
  179MOL0     C24053   7.631   9.772   6.194  0.1391  0.1575 -0.3043
  179MOL0     O24054   7.581   9.807   6.324  0.1149  0.0230  0.1820
  179MOL0     C24055   7.448   9.761   6.348  0.0892  0.0552  0.1647
  179MOL0     C24056   7.439   9.647   6.425 -0.0912 -0.3517 -0.0343
  179MOL0     C24057   7.313   9.597   6.446 -0.2364 -0.2417 -0.0659
  179MOL0     C24058   7.303   9.480   6.536 -0.3759  0.2943  0.5522
  179MOL0     C24059   7.199   9.655   6.383  0.3936 -0.3133  0.0775
  179MOL0     C24060   7.063   9.606   6.396  0.4507  0.2516 -0.3523
  179MOL0     O24061   6.970   9.698   6.359 -0.0789 -0.5623  0.3116
  179MOL0     C24062   6.835   9.679   6.342  0.4629  0.5333 -0.4067
  179MOL0     C24063   6.765   9.792   6.300  0.2038  0.2431  0.0189
  179MOL0     C24064   6.627   9.790   6.286 -0.0798 -0.5504  0.1523
  179MOL0     C24065   6.555   9.669   6.302 -0.0991 -1.3297 -0.3638
  179MOL0     O24066   6.420   9.657   6.305 -0.2530 -0.0341 -0.3738
  179MOL0     C24067   6.345   9.761   6.239 -0.1408 -0.6321 -0.5488
  179MOL0     C24068   6.201   9.721   6.217 -0.8721  0.6052  0.0330
  179MOL0     C24069   6.111   9.684   6.338 -0.1866 -0.4439 -0.2345
  179MOL0     C24070   6.135   9.549   6.399 -0.2076 -0.0207 -0.0686
  179MOL0     C24071   6.002   9.510   6.465  0.1854  0.8439  0.8719
  179MOL0     C24072   5.906   9.452   6.356  0.8575 -0.0001 -1.0448
  179MOL0     C24073   5.771   9.414   6.420  0.1639 -0.4850  0.2227
  179MOL0     C24074   5.690   9.531   6.474  0.3701 -0.7233  0.3278
  179MOL0    Cl24075   5.524   9.474   6.505  0.0737 -0.1644 -0.6448
  179MOL0     C24076   6.629   9.559   6.342  0.6367 -0.3948 -0.2595
  179MOL0     C24077   6.765   9.562   6.362  0.3581 -0.1357 -0.2436
  179MOL0     O24078   7.044   9.484   6.421  0.0181 -0.3082  0.4536
  179MOL0     C24079   7.217   9.767   6.310 -0.4464 -0.2436  0.4110
  179MOL0     C24080   7.335   9.819   6.295 -0.3861 -0.5051 -0.2428
  179MOL0     N24081   8.037  10.022   6.137  0.6252  0.9092 -0.5980
  179MOL0     N24082   8.066  10.142   6.107  0.8473 -0.3554  1.0529
  179MOL0     C24083   7.746   9.888   5.608  0.8492 -0.3435  0.6342
  179MOL0     C24084   7.613   9.840   5.632  0.8201 -0.0319 -0.1584
  179MOL0     C24085   7.306   9.554   5.831  0.4084 -0.1827  0.2513
  179MOL0     C24086   7.241   9.583   5.954  0.6457 -0.3455  0.9706
  179MOL0     C24087   7.102   9.549   5.976  0.2059  0.0415  0.2607
  179MOL0     C24088   7.032   9.485   5.871  0.4331  0.6122 -0.1776
  179MOL0     O24089   6.900   9.446   5.873 -0.0224  0.2014 -0.0453
  179MOL0     C24090   6.823   9.469   5.993 -0.3960  0.6418  0.1402
  179MOL0     C24091   6.671   9.446   5.982  0.4521 -0.6324  1.1307
  179MOL0     C24092   6.593   9.534   5.875  0.9852 -0.2709 -0.0054
  179MOL0     C24093   6.438   9.531   5.896 -0.5401  0.1686  0.2075
  179MOL0     C24094   6.372   9.642   5.824 -0.1818 -0.0107 -0.3858
  179MOL0     C24095   6.301   9.724   5.774 -0.7769  0.0573  0.7653
  179MOL0     C24096   7.097   9.452   5.757  0.0849  0.1629 -0.1760
  179MOL0     C24097   7.230   9.484   5.732 -0.2071  0.3229 -0.3498
  179MOL0     H24098   7.676   9.515   5.688  3.1280 -1.4006  0.0027
  179MOL0     H24099   7.914   9.593   5.640  0.6485  0.9300  1.4879
  179MOL0     H24100   8.097   9.743   5.707 -3.0048 -1.9164  0.7590
  179MOL0     H24101   8.082   9.681   5.543  1.1978 -0.9308  0.5538
  179MOL0     H24102   8.298   9.790   5.564 -0.0854  1.6970  1.2742
  179MOL0     H24103   8.199   9.871   5.447  1.9545 -1.6455 -0.0279
  179MOL0     H24104   8.160  10.060   5.599  1.2357  1.7145 -0.8079
  179MOL0     H24105   8.222   9.970   5.741 -0.4657 -0.5988 -0.3637
  179MOL0     H24106   8.438   9.992   5.694  0.0138  1.8114  3.1114
  179MOL0     H24107   8.412  10.062   5.529  0.8959  0.6064 -0.4099
  179MOL0     H24108   8.459  10.252   5.687  1.4414 -0.8272  1.0629
  179MOL0     H24109   8.282  10.251   5.668 -2.1065  0.5698  1.2111
  179MOL0     H24110   8.332  10.080   5.892 -1.2196  1.2178  0.8707
  179MOL0     H24111   8.467  10.186   5.899  1.0542 -5.0066  0.5980
  179MOL0     H24112   8.281  10.294   6.024 -4.0412  0.5496  0.3664
  179MOL0     H24113   8.297  10.385   5.870  0.7384 -1.5009 -3.5441
  179MOL0     H24114   8.090  10.245   5.788 -0.4211 -0.3553  0.2492
  179MOL0     H24115   8.069  10.350   5.925 -0.6320  0.7270 -2.8605
  179MOL0     H24116   7.994  10.015   5.809 -1.8010  3.2707  0.2541
  179MOL0     H24117   7.988   9.773   5.903  0.0966 -0.6600  0.5388
  179MOL0     H24118   8.022   9.750   6.068  1.0068  0.6331 -0.1222
  179MOL0     H24119   7.782   9.672   6.004 -1.1265  0.3374  1.9429
  179MOL0     H24120   7.746   9.838   5.954  0.8648  1.3775  0.2252
  179MOL0     H24121   7.780   9.911   6.208 -4.1774  0.0614  2.2497
  179MOL0     H24122   7.825   9.745   6.240  0.6353 -0.0297  0.5691
  179MOL0     H24123   7.621   9.664   6.177  0.0390  0.1894 -0.4464
  179MOL0     H24124   7.570   9.834   6.128  1.3400  0.1322 -1.4901
  179MOL0     H24125   7.525   9.601   6.471  1.2876  1.1551 -0.9880
  179MOL0     H24126   7.401   9.465   6.582  1.4098  1.6509 -2.4752
  179MOL0     H24127   7.221   9.473   6.609 -0.2832 -2.4978  0.4894
  179MOL0     H24128   7.281   9.397   6.469 -0.2342 -1.0657  2.1201
  179MOL0     H24129   6.819   9.883   6.278  0.5281  0.1326  0.3431
  179MOL0     H24130   6.573   9.881   6.260  1.9977  1.2617  1.8450
  179MOL0     H24131   6.337   9.849   6.304 -1.4506 -1.2860  0.2045
  179MOL0     H24132   6.397   9.788   6.146  0.0404  0.6335 -0.1007
  179MOL0     H24133   6.151   9.795   6.154 -2.0907  0.2535  0.5546
  179MOL0     H24134   6.211   9.624   6.168  1.7344  0.4943  0.6450
  179MOL0     H24135   6.010   9.699   6.298  0.2485  3.7473 -0.2087
  179MOL0     H24136   6.117   9.762   6.415  0.3023 -2.4486  1.8526
  179MOL0     H24137   6.168   9.471   6.330  0.8038 -0.7495  1.2024
  179MOL0     H24138   6.209   9.549   6.479 -0.1747 -3.6503  0.0809
  179MOL0     H24139   5.952   9.598   6.506  0.4300  2.1414 -1.3970
  179MOL0     H24140   6.023   9.436   6.543  1.3477  0.6923  0.4310
  179MOL0     H24141   5.887   9.520   6.272 -0.0931  1.7038  0.4769
  179MOL0     H24142   5.949   9.359   6.318  4.5369  1.0234  0.1298
  179MOL0     H24143   5.784   9.347   6.506  0.6239  0.6921  1.0892
  179MOL0     H24144   5.708   9.371   6.342 -0.8590  2.8938 -0.9540
  179MOL0     H24145   5.691   9.621   6.412  0.3674 -0.7336  0.3127
  179MOL0     H24146   5.722   9.560   6.575 -3.1461 -0.2888  1.4692
  179MOL0     H24147   6.576   9.466   6.357  0.4670 -0.2267  0.1855
  179MOL0     H24148   6.810   9.469   6.393  0.3588  0.2835  1.0827
  179MOL0     H24149   7.143   9.814   6.246 -2.9558 -0.5848  2.8734
  179MOL0     H24150   7.355   9.913   6.245 -1.0491  0.5503  1.3801
  179MOL0     H24151   7.769   9.991   5.582  0.0673 -0.2015  0.4835
  179MOL0     H24152   7.530   9.907   5.610  0.8644 -0.6974 -2.6483
  179MOL0     H24153   7.292   9.643   6.029  0.7950  1.5189 -0.5190
  179MOL0     H24154   7.039   9.583   6.058 -1.9598  1.1195 -1.7283
  179MOL0     H24155   6.865   9.410   6.075 -2.5595 -1.6773 -0.2957
  179MOL0     H24156   6.835   9.571   6.029 -1.9087  0.7548  0.3694
  179MOL0     H24157   6.630   9.486   6.075  0.1090  1.4691  0.1406
  179MOL0     H24158   6.648   9.340   5.969  0.6624 -0.5539 -0.0135
  179MOL0     H24159   6.624   9.500   5.776  3.6641 -0.1784  0.7415
  179MOL0     H24160   6.624   9.638   5.891  1.6789 -0.4995  0.1323
  179MOL0     H24161   6.418   9.539   6.004 -1.0462  1.8845  0.0250
  179MOL0     H24162   6.404   9.435   5.858  0.7622 -0.7732  1.2792
  179MOL0     H24163   6.244   9.799   5.724 -1.6318 -0.2150  1.3154
  179MOL0     H24164   7.059   9.386   5.680 -2.9856  2.2923 -0.6715
  179MOL0     H24165   7.278   9.464   5.637  2.4920  0.3979  0.9198
  180MOL0     O24166   3.506   8.106   3.285  0.1205  0.5063  0.2726
  180MOL0     C24167   3.565   8.002   3.325  0.6073 -0.3478  0.2697
  180MOL0     O24168   3.510   7.891   3.387 -0.2599  0.1809  0.3278
  180MOL0     C24169   3.375   7.893   3.405 -1.2067 -0.0221 -0.3217
  180MOL0     C24170   3.288   7.888   3.294  0.5358 -0.1388 -0.5992
  180MOL0     C24171   3.157   7.861   3.314 -0.0732  0.2995 -0.2094
  180MOL0     C24172   3.103   7.848   3.448  0.2087  0.4881 -0.5069
  180MOL0     O24173   2.972   7.823   3.487 -0.7802 -0.2505  0.7388
  180MOL0     C24174   2.877   7.796   3.381 -0.0843  1.4732 -0.2200
  180MOL0     C24175   2.765   7.714   3.450  0.2602  1.0021  0.0788
  180MOL0     C24176   2.641   7.703   3.361 -0.1736  0.2275 -0.3064
  180MOL0     C24177   2.541   7.605   3.410  0.5966 -0.4417 -0.8321
  180MOL0     C24178   2.405   7.648   3.359  0.3855  0.6220  0.8176
  180MOL0     C24179   2.294   7.553   3.404 -0.7101  0.3032 -0.4868
  180MOL0     C24180   2.161   7.591   3.351  0.5109  0.6922  0.5995
  180MOL0     C24181   2.146   7.597   3.203  0.3800  0.6612 -0.0985
  180MOL0     N24182   2.010   7.643   3.170 -0.7941  0.1974 -0.3507
  180MOL0     C24183   1.902   7.578   3.115  0.4631 -0.1347 -0.2654
  180MOL0     C24184   1.799   7.668   3.112 -0.1676  0.4710  0.4086
  180MOL0     C24185   1.663   7.640   3.060  0.1803 -0.7617 -0.0184
  180MOL0     C24186   1.563   7.602   3.174 -0.2130 -0.3365  0.1673
  180MOL0     C24187   1.419   7.592   3.107  0.3827 -0.8197 -0.0888
  180MOL0     C24188   1.308   7.541   3.203  0.4734 -0.7735  0.7642
  180MOL0     O24189   1.191   7.520   3.131  0.4944 -0.7620  0.3841
  180MOL0     C24190   1.073   7.474   3.189  0.5522  0.3886 -0.4425
  180MOL0     C24191   1.056   7.452   3.332 -0.1587  0.6792  0.4406
  180MOL0     C24192   0.948   7.389   3.384  0.5266 -0.2284 -0.3885
  180MOL0     C24193   0.947   7.365   3.534 -0.1889 -0.1996  0.8209
  180MOL0     C24194   0.840   7.354   3.289 -0.6752 -0.4029  0.5001
  180MOL0     C24195   0.715   7.275   3.325 -0.1827 -0.2539 -0.0114
  180MOL0     O24196   0.656   7.196   3.222  0.2612  1.0074  0.0318
  180MOL0     C24197   0.534   7.144   3.255  0.5014 -0.0126  0.3372
  180MOL0     C24198   0.526   7.014   3.299  0.3263 -0.0548  0.2252
  180MOL0     C24199   0.403   6.955   3.322  0.3129 -1.2003  0.0395
  180MOL0     C24200   0.283   7.027   3.311 -0.1272 -0.8056  0.5367
  180MOL0     O24201   0.163   6.970   3.325 -0.4399 -0.0553  0.4546
  180MOL0     C24202   0.123   6.919   3.193 -0.7919  0.4888  0.1977
  180MOL0     C24203  -0.031   6.892   3.205  0.9746 -0.8057  0.4219
  180MOL0     C24204  -0.073   6.831   3.070  0.0422  0.5783  0.0367
  180MOL0     C24205  -0.224   6.824   3.064  0.7570 -0.5878 -0.3086
  180MOL0     C24206  -0.280   6.721   2.952 -0.0642 -0.6949 -0.1270
  180MOL0     C24207  -0.430   6.716   2.937 -0.0767 -0.5175  0.2593
  180MOL0     C24208  -0.479   6.846   2.871  0.3701 -0.8257  0.5985
  180MOL0     C24209  -0.630   6.851   2.839  0.5758  0.9999  1.0958
  180MOL0    Cl24210  -0.739   6.830   2.984  0.3765 -0.2029  0.3365
  180MOL0     C24211   0.299   7.160   3.265 -0.3288 -0.4975  0.0954
  180MOL0     C24212   0.422   7.217   3.240  0.9373 -0.1042  0.7192
  180MOL0     O24213   0.669   7.281   3.436 -0.2295 -0.4749 -0.5617
  180MOL0     C24214   0.863   7.371   3.148  0.3527 -0.1373  0.3534
  180MOL0     C24215   0.978   7.434   3.100  0.2903  0.3412  0.3146
  180MOL0     N24216   1.850   7.788   3.157  0.5227  0.3336 -0.2789
  180MOL0     N24217   1.974   7.771   3.193  0.4320  0.1801  0.0307
  180MOL0     C24218   3.193   7.864   3.561 -0.6326  0.3474 -0.4868
  180MOL0     C24219   3.328   7.865   3.540 -0.4266  0.1815  0.2279
  180MOL0     C24220   3.708   8.007   3.328  0.2933 -0.9594 -0.1349
  180MOL0     C24221   3.776   8.122   3.284 -0.7115 -0.3545 -0.0509
  180MOL0     C24222   3.919   8.137   3.285  0.4265  0.6412 -0.1253
  180MOL0     C24223   3.990   8.038   3.359  0.5281  0.3516  0.4489
  180MOL0     O24224   4.123   8.045   3.396 -0.3149 -0.0906 -0.2162
  180MOL0     C24225   4.225   8.123   3.316 -0.1341  0.2661  0.6709
  180MOL0     C24226   4.366   8.105   3.365  0.0055 -1.3293 -0.0995
  180MOL0     C24227   4.409   7.961   3.372 -0.0172 -0.1691 -0.4039
  180MOL0     C24228   4.558   7.935   3.349  0.7376 -0.7111  0.1641
  180MOL0     C24229   4.653   8.025   3.421  0.7059  0.3112 -0.2510
  180MOL0     C24230   4.736   8.070   3.483  0.4213 -0.4194 -0.6651
  180MOL0     C24231   3.918   7.927   3.409  0.0408 -0.7721 -0.2096
  180MOL0     C24232   3.785   7.908   3.386  1.2218  0.7364  0.1665
  180MOL0     H24233   3.319   7.910   3.192 -1.2749  2.3942 -0.7170
  180MOL0     H24234   3.083   7.851   3.235  0.7700 -1.6442 -0.8342
  180MOL0     H24235   2.844   7.884   3.325 -2.0326  0.7523 -0.3111
  180MOL0     H24236   2.916   7.726   3.307 -2.1400 -0.1281  0.0915
  180MOL0     H24237   2.801   7.616   3.483  0.3455  1.0975  0.2705
  180MOL0     H24238   2.737   7.766   3.542  2.6623  0.2143  1.3704
  180MOL0     H24239   2.605   7.805   3.347 -0.0054  0.2410 -0.6468
  180MOL0     H24240   2.679   7.658   3.268  2.8735  0.9038  0.5056
  180MOL0     H24241   2.552   7.499   3.386  0.5868 -1.2461  2.2425
  180MOL0     H24242   2.539   7.604   3.519  1.2325  0.6006 -0.8015
  180MOL0     H24243   2.373   7.740   3.407 -3.2673 -0.7852  1.3896
  180MOL0     H24244   2.409   7.651   3.249  0.0841  1.0586  0.8186
  180MOL0     H24245   2.312   7.453   3.362 -1.8685  0.3493 -1.1224
  180MOL0     H24246   2.294   7.549   3.513 -0.0375  0.6114 -0.4711
  180MOL0     H24247   2.088   7.525   3.398 -0.7551 -2.4331 -4.8807
  180MOL0     H24248   2.143   7.691   3.391 -1.6065  0.6317 -0.0668
  180MOL0     H24249   2.158   7.498   3.158 -2.2324 -0.1743  0.8593
  180MOL0     H24250   2.221   7.665   3.163 -0.0168  0.1086 -1.8950
  180MOL0     H24251   1.894   7.475   3.083 -1.4286  0.5236 -2.1279
  180MOL0     H24252   1.626   7.729   3.009 -0.8544  0.1753  2.2772
  180MOL0     H24253   1.666   7.555   2.990 -0.8866 -1.6267  0.9418
  180MOL0     H24254   1.565   7.684   3.246  1.4145 -0.5838  0.4398
  180MOL0     H24255   1.599   7.509   3.219 -0.6468  1.2457  4.2080
  180MOL0     H24256   1.427   7.520   3.025 -3.9134 -2.2725  0.4888
  180MOL0     H24257   1.399   7.693   3.069 -1.0033 -0.7794  0.6902
  180MOL0     H24258   1.296   7.614   3.284  0.2231 -0.7816  0.7372
  180MOL0     H24259   1.348   7.451   3.251  0.8528 -1.0956 -0.1498
  180MOL0     H24260   1.136   7.488   3.396  0.3662  1.9751 -0.8959
  180MOL0     H24261   0.870   7.426   3.582 -0.5778 -0.9809  1.2148
  180MOL0     H24262   0.938   7.257   3.550  1.8451 -0.8466 -1.7196
  180MOL0     H24263   1.039   7.398   3.583  0.3858 -1.6353  0.7411
  180MOL0     H24264   0.617   6.956   3.304  0.6706  0.2767 -1.7126
  180MOL0     H24265   0.382   6.852   3.349 -1.6349 -1.2117 -1.3949
  180MOL0     H24266   0.142   6.982   3.106 -0.9960  1.0077  0.5260
  180MOL0     H24267   0.168   6.823   3.164 -0.8343  0.7714 -0.8462
  180MOL0     H24268  -0.045   6.819   3.284  3.3612 -2.3925 -0.4939
  180MOL0     H24269  -0.079   6.990   3.211 -0.8364 -1.6284 -0.0784
  180MOL0     H24270  -0.022   6.734   3.072  0.2676  0.7023  0.6800
  180MOL0     H24271  -0.031   6.888   2.987 -0.2889 -0.9220 -1.1918
  180MOL0     H24272  -0.269   6.791   3.159  2.0571  1.0567  0.9417
  180MOL0     H24273  -0.269   6.922   3.050 -1.6502 -1.1057  2.6549
  180MOL0     H24274  -0.237   6.624   2.977  1.2296 -0.7578 -2.2907
  180MOL0     H24275  -0.236   6.740   2.853 -1.6453 -0.8526 -0.8864
  180MOL0     H24276  -0.451   6.635   2.867  0.2682  0.3815 -0.9091
  180MOL0     H24277  -0.482   6.700   3.032 -1.1092 -1.4669 -0.4464
  180MOL0     H24278  -0.416   6.861   2.783  0.5861  2.8438  1.2272
  180MOL0     H24279  -0.458   6.931   2.936  1.8953 -1.5491  1.1122
  180MOL0     H24280  -0.665   6.775   2.768  0.5679 -1.4419  3.5257
  180MOL0     H24281  -0.642   6.947   2.789  1.0043 -0.2111 -1.5336
  180MOL0     H24282   0.215   7.228   3.256 -0.1077 -0.2292  0.0785
  180MOL0     H24283   0.429   7.324   3.221  2.4382  0.0959  2.1717
  180MOL0     H24284   0.791   7.335   3.075 -1.0761  0.8021  1.2538
  180MOL0     H24285   0.990   7.459   2.995 -1.1281  0.5642  0.1841
  180MOL0     H24286   3.157   7.863   3.664  3.0358  1.9052  0.9816
  180MOL0     H24287   3.389   7.872   3.629 -1.2203 -0.2931  0.8228
  180MOL0     H24288   3.721   8.205   3.241 -0.8384  0.2600  1.2638
  180MOL0     H24289   3.981   8.217   3.248  0.1401  1.2251  0.6151
  180MOL0     H24290   4.222   8.073   3.218  0.7820 -0.7099  1.1075
  180MOL0     H24291   4.193   8.227   3.314 -0.3960  0.1796  0.0141
  180MOL0     H24292   4.383   8.158   3.459  0.2959  1.1975 -1.4663
  180MOL0     H24293   4.424   8.170   3.298  0.0316  0.0361  1.1917
  180MOL0     H24294   4.356   7.911   3.290 -1.5760  1.1140 -0.2411
  180MOL0     H24295   4.375   7.915   3.465  4.1136 -0.4821  1.1513
  180MOL0     H24296   4.577   7.939   3.241  1.8190  0.6798  0.3712
  180MOL0     H24297   4.574   7.831   3.378  0.2986 -0.8032  0.0726
  180MOL0     H24298   4.812   8.117   3.542  0.0273  0.0385 -0.5124
  180MOL0     H24299   3.980   7.854   3.460  3.0662  1.2201 -0.7642
  180MOL0     H24300   3.741   7.817   3.427 -2.4401  2.9978  1.7256
  181MOL0     O24301  10.457  10.620   6.006 -0.5415 -0.1531  1.2516
  181MOL0     C24302  10.521  10.531   5.959 -0.9325  0.0081 -1.1647
  181MOL0     O24303  10.474  10.401   5.928  0.0618  0.7842  0.1392
  181MOL0     C24304  10.340  10.386   5.931  0.7908  0.2964  0.6266
  181MOL0     C24305  10.281  10.438   5.820 -0.6862 -0.2541 -0.1727
  181MOL0     C24306  10.144  10.458   5.823 -0.0248  0.4329  0.2920
  181MOL0     C24307  10.067  10.408   5.930 -0.5839 -0.3013  0.2701
  181MOL0     O24308   9.933  10.426   5.927  1.2240 -0.0345 -0.1197
  181MOL0     C24309   9.876  10.540   5.871 -0.2568 -0.2945  0.0068
  181MOL0     C24310   9.726  10.543   5.881  0.1613  0.3577  0.1674
  181MOL0     C24311   9.649  10.429   5.807 -0.3060 -0.1449  0.1382
  181MOL0     C24312   9.498  10.467   5.776 -0.5890  0.2555 -0.9315
  181MOL0     C24313   9.441  10.350   5.685 -0.1704 -1.1840  0.3860
  181MOL0     C24314   9.291  10.395   5.653  0.9017  0.1798  0.2253
  181MOL0     C24315   9.225  10.294   5.556 -0.5501  0.6531 -0.0453
  181MOL0     C24316   9.223  10.151   5.614  0.6191 -0.2846 -0.8307
  181MOL0     N24317   9.108  10.073   5.547  0.6404 -0.2531 -0.4855
  181MOL0     C24318   8.983  10.057   5.600  0.3580  0.0733 -0.2591
  181MOL0     C24319   8.917   9.991   5.498  0.3036  0.3669 -0.3154
  181MOL0     C24320   8.775   9.942   5.495  0.0952 -0.2645  0.0755
  181MOL0     C24321   8.760   9.800   5.534 -0.3513 -0.4885  0.1677
  181MOL0     C24322   8.617   9.771   5.580  0.1671  0.1919  0.1988
  181MOL0     C24323   8.581   9.624   5.645 -1.1151  0.9229  0.2908
  181MOL0     O24324   8.471   9.631   5.730 -0.4833 -0.6265 -0.0305
  181MOL0     C24325   8.356   9.559   5.708 -0.3493 -0.8750  0.2691
  181MOL0     C24326   8.306   9.488   5.594  0.0457 -0.1444 -0.0129
  181MOL0     C24327   8.188   9.413   5.583 -0.3100  0.2082  0.6371
  181MOL0     C24328   8.150   9.354   5.448  0.2653 -0.0251 -0.1445
  181MOL0     C24329   8.109   9.411   5.698  0.6901  0.0870  0.2629
  181MOL0     C24330   7.982   9.323   5.700 -0.0842  0.3860  0.7817
  181MOL0     O24331   7.936   9.277   5.821 -0.3120 -0.2055 -0.2247
  181MOL0     C24332   7.818   9.208   5.813 -0.4904 -0.1727 -0.2397
  181MOL0     C24333   7.717   9.256   5.888 -0.5700  0.6060 -1.0454
  181MOL0     C24334   7.584   9.203   5.887 -0.5481 -0.3479 -0.2522
  181MOL0     C24335   7.559   9.087   5.812 -0.5554  0.2903  1.0641
  181MOL0     O24336   7.434   9.022   5.806  0.1769  0.1985  0.3000
  181MOL0     C24337   7.316   9.093   5.828  0.5022 -0.5287 -0.4834
  181MOL0     C24338   7.195   9.006   5.785 -0.9560  0.0238  1.1458
  181MOL0     C24339   7.061   9.082   5.802 -0.3345 -0.0449  1.0145
  181MOL0     C24340   6.952   8.992   5.753  0.0632  0.3480  0.3942
  181MOL0     C24341   6.816   9.060   5.774  0.0848 -0.5193  0.3125
  181MOL0     C24342   6.702   8.968   5.718  0.6235  0.3958  0.2763
  181MOL0     C24343   6.570   9.040   5.726 -0.2209  0.2384 -0.1357
  181MOL0     C24344   6.515   9.032   5.871 -0.2186  1.5494  0.4461
  181MOL0    Cl24345   6.500   8.857   5.919 -0.2184  0.4660  0.5872
  181MOL0     C24346   7.666   9.030   5.741  0.9314  0.0595  0.5787
  181MOL0     C24347   7.790   9.095   5.736  0.1463 -0.1713  1.1315
  181MOL0     O24348   7.920   9.325   5.593  0.0002 -0.2561 -0.0118
  181MOL0     C24349   8.144   9.487   5.810 -1.2478 -0.7889 -0.7753
  181MOL0     C24350   8.271   9.560   5.818  0.7525  0.3789  0.1910
  181MOL0     N24351   9.002   9.976   5.389  0.5429 -0.4203  0.4797
  181MOL0     N24352   9.119  10.022   5.423 -0.1760  0.4108 -0.7540
  181MOL0     C24353  10.131  10.335   6.032  0.9719  0.3884 -0.0738
  181MOL0     C24354  10.268  10.334   6.033  0.2068  1.0249 -0.9518
  181MOL0     C24355  10.658  10.570   5.935 -0.2015  0.3390  0.4662
  181MOL0     C24356  10.708  10.698   5.966  0.8225  1.5516 -0.0988
  181MOL0     C24357  10.837  10.734   5.945 -0.6184  0.4074 -0.0708
  181MOL0     C24358  10.918  10.647   5.879 -0.2193 -0.5319  0.5764
  181MOL0     O24359  11.046  10.678   5.840  0.0655  0.2252  0.8840
  181MOL0     C24360  11.110  10.802   5.863 -0.4018  0.2200 -0.2262
  181MOL0     C24361  11.248  10.807   5.796  0.0042 -0.0463 -0.6865
  181MOL0     C24362  11.329  10.915   5.859 -0.2899  0.3240 -0.2458
  181MOL0     C24363  11.441  10.940   5.761 -0.2632  0.0362 -0.1297
  181MOL0     C24364  11.541  11.022   5.834  0.7411 -0.2625  0.3393
  181MOL0     C24365  11.608  11.099   5.893 -0.0925 -0.5951  0.3176
  181MOL0     C24366  10.872  10.520   5.840  0.2152  0.8621 -0.8204
  181MOL0     C24367  10.742  10.478   5.877 -0.6231  0.2889 -0.1094
  181MOL0     H24368  10.346  10.476   5.743  1.3402 -0.7033  1.2395
  181MOL0     H24369  10.091  10.503   5.739  0.6967  0.4674 -0.1549
  181MOL0     H24370   9.905  10.632   5.922  0.4070  0.2181 -1.2523
  181MOL0     H24371   9.890  10.556   5.763 -2.5494 -0.4331 -0.3580
  181MOL0     H24372   9.705  10.540   5.989 -3.4010 -0.2390 -0.4037
  181MOL0     H24373   9.689  10.642   5.854 -2.1859 -0.7163 -0.8611
  181MOL0     H24374   9.700  10.401   5.714 -1.4771  2.4569 -1.4038
  181MOL0     H24375   9.645  10.343   5.875  0.8296 -0.0846  0.3016
  181MOL0     H24376   9.441  10.481   5.868  0.5383  2.3505 -0.5158
  181MOL0     H24377   9.494  10.562   5.722 -3.0119  0.8019  0.0316
  181MOL0     H24378   9.498  10.343   5.592  0.8476 -2.8096  1.0900
  181MOL0     H24379   9.454  10.255   5.738  0.5821 -0.5853  1.3022
  181MOL0     H24380   9.229  10.404   5.742 -1.5628  1.9239 -1.5339
  181MOL0     H24381   9.292  10.492   5.602  2.9299 -0.7584 -1.6980
  181MOL0     H24382   9.126  10.333   5.532  0.7388  2.8417 -2.2883
  181MOL0     H24383   9.285  10.286   5.465 -1.4200 -1.4675 -0.4857
  181MOL0     H24384   9.198  10.158   5.720  0.2168 -0.8786 -0.8827
  181MOL0     H24385   9.320  10.105   5.594  1.6322  1.4378 -0.1581
  181MOL0     H24386   8.953  10.104   5.694  2.7476 -0.2095  0.7052
  181MOL0     H24387   8.725  10.010   5.565  2.5381  2.1150 -0.3138
  181MOL0     H24388   8.728   9.965   5.400 -1.3680 -2.1322  0.2911
  181MOL0     H24389   8.822   9.760   5.614  1.5305 -0.4063 -1.1932
  181MOL0     H24390   8.792   9.744   5.446  1.0372 -1.7338  1.4238
  181MOL0     H24391   8.554   9.782   5.490  1.2632  0.3416 -0.5675
  181MOL0     H24392   8.594   9.846   5.656 -3.0398 -0.5755  0.1473
  181MOL0     H24393   8.667   9.597   5.707 -0.9197 -0.9775 -0.7186
  181MOL0     H24394   8.576   9.548   5.567 -0.3153  0.0944  1.0253
  181MOL0     H24395   8.366   9.486   5.504 -0.0088 -1.6265 -0.0403
  181MOL0     H24396   8.234   9.364   5.379 -0.7669  1.3817 -1.2531
  181MOL0     H24397   8.113   9.252   5.458  1.5125 -0.4029  1.0249
  181MOL0     H24398   8.075   9.420   5.405 -0.5833 -1.5181 -1.0261
  181MOL0     H24399   7.733   9.348   5.943 -1.0631 -0.1979  0.4876
  181MOL0     H24400   7.503   9.247   5.945  1.2194  1.7640  0.7695
  181MOL0     H24401   7.296   9.115   5.933 -0.2913 -2.0439 -0.2787
  181MOL0     H24402   7.324   9.193   5.785 -0.4187  1.9694  4.4684
  181MOL0     H24403   7.206   8.977   5.680  3.3280  3.2816  0.4287
  181MOL0     H24404   7.203   8.922   5.855 -1.7619 -0.2788  0.8911
  181MOL0     H24405   7.063   9.173   5.742  1.4871 -2.9708 -4.0646
  181MOL0     H24406   7.057   9.116   5.906 -0.8387 -0.8184  1.2632
  181MOL0     H24407   6.965   8.969   5.647  3.4728  1.3181  0.4821
  181MOL0     H24408   6.947   8.894   5.802 -3.4078 -1.2520 -2.6386
  181MOL0     H24409   6.812   9.159   5.728 -1.5795 -0.4283  0.6097
  181MOL0     H24410   6.798   9.080   5.880  0.2508  2.0138 -0.0785
  181MOL0     H24411   6.719   8.947   5.612 -0.8870 -2.3021  0.4741
  181MOL0     H24412   6.701   8.868   5.762 -0.4038 -0.0182 -0.6516
  181MOL0     H24413   6.494   8.985   5.671 -1.6579 -1.0998  2.9521
  181MOL0     H24414   6.585   9.137   5.678  0.1425  0.3028  0.1009
  181MOL0     H24415   6.411   9.065   5.874 -1.2874 -1.4751  2.3988
  181MOL0     H24416   6.580   9.084   5.942 -0.3302  2.1289  0.1272
  181MOL0     H24417   7.653   8.945   5.674 -2.0494 -0.4236  1.5931
  181MOL0     H24418   7.867   9.047   5.676 -4.1796 -3.4249 -2.6101
  181MOL0     H24419   8.084   9.475   5.899  0.0221 -0.0664  0.2233
  181MOL0     H24420   8.299   9.605   5.913 -0.2486  1.5299 -0.0487
  181MOL0     H24421  10.072  10.286   6.109 -0.6955  2.5820  0.1539
  181MOL0     H24422  10.319  10.291   6.118 -1.7660 -0.7419 -0.5642
  181MOL0     H24423  10.636  10.767   6.011 -2.1317 -1.3037 -0.0356
  181MOL0     H24424  10.889  10.819   5.989  1.5023 -1.5644  1.4418
  181MOL0     H24425  11.060  10.892   5.827  0.1103  1.0889  1.1685
  181MOL0     H24426  11.120  10.803   5.972 -2.5086 -0.4891  0.0119
  181MOL0     H24427  11.241  10.824   5.689  0.9866  0.3380 -0.6971
  181MOL0     H24428  11.298  10.711   5.809  2.1235  1.3066  2.5040
  181MOL0     H24429  11.357  10.871   5.955  1.3532 -0.2073 -0.9374
  181MOL0     H24430  11.282  11.014   5.866 -1.3541 -0.2239  0.5527
  181MOL0     H24431  11.405  10.989   5.670 -0.4708 -0.2098 -0.1807
  181MOL0     H24432  11.486  10.844   5.734  0.2521 -0.3209  1.8937
  181MOL0     H24433  11.677  11.160   5.947 -1.9771  2.2482 -0.2928
  181MOL0     H24434  10.934  10.450   5.785  0.7200  1.8381 -1.5145
  181MOL0     H24435  10.701  10.378   5.868 -1.3601  0.6298 -0.6324
  182MOL0     O24436   5.791   8.738  11.131  0.0314 -0.6853  0.1010
  182MOL0     C24437   5.885   8.777  11.058  0.0331  0.7900  0.2077
  182MOL0     O24438   5.870   8.875  10.966 -0.1383  0.1438 -0.5182
  182MOL0     C24439   5.749   8.946  10.974  0.8611 -0.1898 -0.0707
  182MOL0     C24440   5.627   8.916  10.915  0.3732 -0.6858  0.7513
  182MOL0     C24441   5.511   9.003  10.922 -0.0137  0.5344 -0.6078
  182MOL0     C24442   5.523   9.103  11.018  0.0024 -0.6774 -0.2380
  182MOL0     O24443   5.414   9.179  11.039  0.3806  0.3120 -0.5723
  182MOL0     C24444   5.424   9.321  11.051  0.1008  0.5001 -0.5496
  182MOL0     C24445   5.289   9.389  11.039 -0.1132  0.0068 -0.1231
  182MOL0     C24446   5.205   9.372  11.175 -0.4331  0.1101  1.0869
  182MOL0     C24447   5.073   9.434  11.146 -0.3250 -0.2799  0.6028
  182MOL0     C24448   4.984   9.465  11.265  0.0006 -0.2344  0.7268
  182MOL0     C24449   4.860   9.540  11.219  0.1164  0.6901 -0.4036
  182MOL0     C24450   4.753   9.439  11.172 -0.7103 -1.0156 -0.0871
  182MOL0     C24451   4.658   9.411  11.295  0.6457  0.7106  0.4891
  182MOL0     N24452   4.521   9.359  11.258 -0.5580  0.2323  0.1626
  182MOL0     C24453   4.492   9.265  11.161  0.4402  0.0955  0.5386
  182MOL0     C24454   4.358   9.265  11.155  0.4683  0.2188  0.1628
  182MOL0     C24455   4.285   9.185  11.057 -0.2044  1.4030  0.2957
  182MOL0     C24456   4.193   9.064  11.112  0.3565  0.1135 -0.0071
  182MOL0     C24457   4.057   9.060  11.047 -0.2445 -0.3743  0.1106
  182MOL0     C24458   3.975   8.951  11.119 -0.5259 -0.4734  0.2004
  182MOL0     O24459   3.851   8.939  11.058  0.9613  0.2318  0.6432
  182MOL0     C24460   3.769   8.865  11.141  0.0116 -0.6061  0.8928
  182MOL0     C24461   3.648   8.925  11.178  0.7453 -0.8636  0.1936
  182MOL0     C24462   3.556   8.853  11.257  0.5892  0.7142 -0.3519
  182MOL0     C24463   3.419   8.927  11.273 -0.2907  0.2261  0.1439
  182MOL0     C24464   3.575   8.722  11.303  0.0321  0.2683  0.3197
  182MOL0     C24465   3.478   8.635  11.372  0.2365 -0.3576 -0.3674
  182MOL0     O24466   3.468   8.503  11.352  0.3671 -0.0455 -0.2619
  182MOL0     C24467   3.402   8.431  11.451  0.4750  0.1009  0.5111
  182MOL0     C24468   3.264   8.430  11.477  0.8570  0.3138  0.2580
  182MOL0     C24469   3.218   8.366  11.591 -0.2758  0.0117 -0.1090
  182MOL0     C24470   3.298   8.281  11.669 -0.5735  0.0949 -0.0058
  182MOL0     O24471   3.261   8.215  11.789  1.1134 -0.4646 -0.4582
  182MOL0     C24472   3.119   8.219  11.833  0.2611 -0.8278 -0.0731
  182MOL0     C24473   3.129   8.155  11.970 -0.5924 -0.3085  0.5338
  182MOL0     C24474   3.010   8.184  12.054  0.3914 -0.1128  0.3352
  182MOL0     C24475   2.976   8.068  12.152  0.2254  0.2797  0.5830
  182MOL0     C24476   2.875   8.124  12.258  0.2342 -1.1366 -0.7515
  182MOL0     C24477   2.829   8.011  12.355  0.2287 -0.3593  0.2754
  182MOL0     C24478   2.723   8.068  12.450  0.0757 -0.0645 -0.1957
  182MOL0     C24479   2.694   7.964  12.555 -0.0280  0.2846  0.8415
  182MOL0    Cl24480   2.838   7.944  12.662 -0.0091  0.1089 -0.0442
  182MOL0     C24481   3.435   8.271  11.644  0.9751  0.1745  0.4230
  182MOL0     C24482   3.487   8.341  11.528  0.2419 -0.3037 -0.7340
  182MOL0     O24483   3.427   8.689  11.473 -0.5193 -0.3606 -0.3297
  182MOL0     C24484   3.693   8.660  11.259  0.2785 -1.0946 -0.5031
  182MOL0     C24485   3.787   8.726  11.183 -0.6320  0.0187  0.4765
  182MOL0     N24486   4.309   9.355  11.237 -0.3295 -0.0356 -1.0508
  182MOL0     N24487   4.408   9.412  11.303  0.6062 -0.1294 -0.7181
  182MOL0     C24488   5.645   9.129  11.087 -0.4396 -0.5705  0.3548
  182MOL0     C24489   5.760   9.050  11.067  0.0709 -0.9928 -0.7806
  182MOL0     C24490   6.003   8.695  11.067  0.1302  0.2721 -0.1175
  182MOL0     C24491   6.021   8.591  11.159 -0.2323  0.0495 -0.2849
  182MOL0     C24492   6.145   8.523  11.165 -0.0699 -0.1795  0.3492
  182MOL0     C24493   6.256   8.558  11.079 -0.3654  0.4266 -0.1471
  182MOL0     O24494   6.383   8.508  11.111 -0.5582  0.5145 -0.1622
  182MOL0     C24495   6.486   8.603  11.094  0.2005  0.1761  0.1441
  182MOL0     C24496   6.480   8.731  11.181  0.3358 -0.6660 -0.0551
  182MOL0     C24497   6.445   8.708  11.330  0.0146  0.0611  0.6103
  182MOL0     C24498   6.479   8.835  11.412  0.4290  0.0650 -0.7539
  182MOL0     C24499   6.496   8.795  11.552  0.4064  0.1682  0.1852
  182MOL0     C24500   6.528   8.747  11.659  0.3156  0.5678 -0.6552
  182MOL0     C24501   6.231   8.659  10.982 -0.6152 -0.3223 -0.4869
  182MOL0     C24502   6.103   8.723  10.972 -1.0144  0.6358  0.7741
  182MOL0     H24503   5.614   8.834  10.846 -3.7282 -0.1883  0.7090
  182MOL0     H24504   5.418   8.985  10.869 -0.1603 -0.2608 -0.1009
  182MOL0     H24505   5.477   9.353  11.141 -0.9062  2.2199 -0.5290
  182MOL0     H24506   5.480   9.362  10.966 -0.1540  3.1628  0.4617
  182MOL0     H24507   5.324   9.491  11.022  4.0841 -0.9806  1.2684
  182MOL0     H24508   5.245   9.352  10.946  1.4614 -0.2783 -0.7971
  182MOL0     H24509   5.189   9.267  11.202 -0.3556  0.4233  2.4471
  182MOL0     H24510   5.262   9.420  11.256 -1.6588 -1.8189  3.2195
  182MOL0     H24511   5.094   9.530  11.098 -0.6121  0.5191  2.0236
  182MOL0     H24512   5.018   9.373  11.073 -1.4872  1.5118 -0.0944
  182MOL0     H24513   4.969   9.382  11.335 -1.1644 -0.2369  0.4936
  182MOL0     H24514   5.032   9.533  11.335  0.1550  0.6312 -0.2104
  182MOL0     H24515   4.831   9.598  11.308 -0.0816  0.5152 -0.3538
  182MOL0     H24516   4.897   9.601  11.136  1.9581  1.3186  0.8263
  182MOL0     H24517   4.697   9.487  11.092 -1.4670 -0.5838  0.6800
  182MOL0     H24518   4.796   9.344  11.140  3.2270  0.0701  1.3984
  182MOL0     H24519   4.646   9.497  11.361 -1.7282 -0.1374  1.2515
  182MOL0     H24520   4.694   9.334  11.364 -1.6609 -0.1190  0.8304
  182MOL0     H24521   4.560   9.205  11.100  2.7538  2.9685  0.0795
  182MOL0     H24522   4.221   9.245  10.991 -3.0508  3.2463  4.2914
  182MOL0     H24523   4.363   9.130  11.004 -0.4241 -1.1511  2.4109
  182MOL0     H24524   4.184   9.079  11.220  1.0110  1.3472 -0.1085
  182MOL0     H24525   4.247   8.971  11.094  0.0540  0.2575 -1.8639
  182MOL0     H24526   4.075   9.047  10.940  1.0299 -0.3419  0.3007
  182MOL0     H24527   4.006   9.154  11.066  0.1769  0.3036 -1.8284
  182MOL0     H24528   3.954   8.991  11.218 -0.0591 -0.4317  0.2848
  182MOL0     H24529   4.029   8.856  11.132  0.0902 -0.1240  0.2327
  182MOL0     H24530   3.628   9.027  11.146 -2.8726 -0.7986  2.1423
  182MOL0     H24531   3.451   9.030  11.294 -0.9150  0.2351  1.1177
  182MOL0     H24532   3.344   8.911  11.195  0.6395 -2.6345 -0.2846
  182MOL0     H24533   3.369   8.897  11.366  2.3966 -0.2636  1.5350
  182MOL0     H24534   3.209   8.492  11.406  0.3634  1.7833  1.8585
  182MOL0     H24535   3.115   8.387  11.618  0.3891  1.8750  1.1638
  182MOL0     H24536   3.078   8.320  11.844 -1.5743 -1.4675 -0.7604
  182MOL0     H24537   3.060   8.151  11.771 -1.2498 -0.0754  0.4963
  182MOL0     H24538   3.159   8.050  11.963 -0.3209 -0.1061 -4.3259
  182MOL0     H24539   3.209   8.209  12.022  2.0991 -2.3506 -1.2121
  182MOL0     H24540   2.927   8.200  11.985  1.8558 -0.5799 -1.6289
  182MOL0     H24541   3.034   8.272  12.115  0.0954 -0.8922  1.6157
  182MOL0     H24542   2.936   7.984  12.095  0.3159  0.0191  0.8998
  182MOL0     H24543   3.065   8.025  12.200  0.9950  0.2659 -0.7967
  182MOL0     H24544   2.782   8.163  12.215  1.5197  2.6104 -0.4536
  182MOL0     H24545   2.917   8.207  12.315 -1.5522 -0.2482 -0.6765
  182MOL0     H24546   2.794   7.933  12.287 -1.0756  0.6198 -0.2253
  182MOL0     H24547   2.919   7.974  12.404  0.9875 -2.1791 -2.2791
  182MOL0     H24548   2.632   8.094  12.396  0.1540  0.9738  0.1589
  182MOL0     H24549   2.767   8.155  12.500 -0.2798 -1.3457  2.5321
  182MOL0     H24550   2.685   7.864  12.512  2.9310 -0.6341  2.1357
  182MOL0     H24551   2.611   7.989  12.622 -0.5947  2.5640 -0.5777
  182MOL0     H24552   3.500   8.219  11.713  0.7683  1.4905  1.6631
  182MOL0     H24553   3.591   8.331  11.500  0.0966 -1.0547 -1.0503
  182MOL0     H24554   3.694   8.557  11.293 -0.5694  0.1319  3.7926
  182MOL0     H24555   3.865   8.659  11.147 -4.5393 -3.6859 -2.1334
  182MOL0     H24556   5.651   9.206  11.164  2.8381 -0.6117  0.2783
  182MOL0     H24557   5.850   9.070  11.124  0.6361 -1.5639 -1.4745
  182MOL0     H24558   5.949   8.568  11.237 -0.5397  0.4276 -0.4583
  182MOL0     H24559   6.173   8.445  11.234  2.5871 -0.2584 -0.6781
  182MOL0     H24560   6.581   8.556  11.120  0.9136  2.4138  1.9025
  182MOL0     H24561   6.494   8.634  10.989  1.1572  1.8697  0.6778
  182MOL0     H24562   6.404   8.798  11.141  0.6188  0.3604  1.0616
  182MOL0     H24563   6.576   8.783  11.168 -1.0246  1.6328 -1.6023
  182MOL0     H24564   6.496   8.616  11.362 -0.4729 -0.5010 -0.1823
  182MOL0     H24565   6.337   8.699  11.349 -0.1038  0.6081  0.2107
  182MOL0     H24566   6.395   8.904  11.420 -0.9941 -1.3499 -2.5851
  182MOL0     H24567   6.569   8.885  11.375  0.9096  0.2594  0.6295
  182MOL0     H24568   6.557   8.701  11.751 -0.7886 -0.4516 -0.7910
  182MOL0     H24569   6.313   8.696  10.921 -2.0249  0.0498 -2.2427
  182MOL0     H24570   6.092   8.802  10.898 -0.4803 -1.2161 -1.3901
  183MOL0     O24571   8.373   0.339   4.925  0.2139 -0.2249  0.2901
  183MOL0     C24572   8.419   0.253   4.996 -0.8958 -0.0256  0.6849
  183MOL0     O24573   8.356   0.132   5.031  0.6651  0.2195 -0.2705
  183MOL0     C24574   8.238   0.083   4.978  0.0454  0.2849  1.0576
  183MOL0     C24575   8.202  -0.037   5.041  0.3541 -0.3923  0.5446
  183MOL0     C24576   8.087  -0.103   4.998 -0.0115  1.0416 -0.7762
  183MOL0     C24577   8.021  -0.062   4.885  0.3251 -0.5644  0.1446
  183MOL0     O24578   7.925  -0.148   4.831 -0.2789  0.1296 -0.6578
  183MOL0     C24579   7.804  -0.090   4.794  0.3148 -0.4582 -0.7837
  183MOL0     C24580   7.718  -0.201   4.845  0.0191  0.0620  0.1354
  183MOL0     C24581   7.571  -0.175   4.822  0.6496 -0.5271 -0.0521
  183MOL0     C24582   7.543  -0.176   4.670 -0.2527  0.3120  1.1485
  183MOL0     C24583   7.400  -0.199   4.637  0.1935 -0.7274  0.1317
  183MOL0     C24584   7.311  -0.078   4.659 -0.3307 -0.6618 -0.8135
  183MOL0     C24585   7.174  -0.101   4.589 -0.9182 -0.2788 -0.2724
  183MOL0     C24586   7.164  -0.012   4.471 -0.5334 -0.3576  0.5482
  183MOL0     N24587   7.088   0.111   4.499  0.1890  1.1349  0.0084
  183MOL0     C24588   6.957   0.122   4.470  0.4438 -0.4131  0.4948
  183MOL0     C24589   6.922   0.250   4.514 -0.1744 -0.1252 -0.0711
  183MOL0     C24590   6.784   0.310   4.526 -0.9161 -0.4147  0.4292
  183MOL0     C24591   6.703   0.264   4.644 -0.0262  0.0648 -0.4484
  183MOL0     C24592   6.705   0.109   4.658 -0.6640 -0.5119  0.0084
  183MOL0     C24593   6.661   0.068   4.795 -1.2143  0.0133 -0.8704
  183MOL0     O24594   6.706  -0.063   4.826  0.6682  0.0088  0.2534
  183MOL0     C24595   6.826  -0.084   4.887 -0.1430 -0.3511  0.5129
  183MOL0     C24596   6.838  -0.212   4.953 -0.2720 -1.1221 -0.4588
  183MOL0     C24597   6.958  -0.227   5.031 -0.0262 -0.6400 -1.0390
  183MOL0     C24598   6.951  -0.353   5.118 -0.1234  0.2686  0.1182
  183MOL0     C24599   7.058  -0.132   5.037  0.4946 -0.5314  0.1594
  183MOL0     C24600   7.177  -0.156   5.112 -0.8880  0.1036 -0.8174
  183MOL0     O24601   7.281  -0.064   5.092 -0.4082 -0.2186 -0.8220
  183MOL0     C24602   7.406  -0.061   5.153 -1.0724 -0.6141  1.0938
  183MOL0     C24603   7.495   0.043   5.121  0.9583  0.1497 -0.3206
  183MOL0     C24604   7.615   0.072   5.185  0.3100 -0.6921  1.3936
  183MOL0     C24605   7.661  -0.019   5.275 -0.4814  0.0201  0.2656
  183MOL0     O24606   7.788  -0.015   5.335  0.0236 -0.0421 -0.6434
  183MOL0     C24607   7.870   0.099   5.323  0.3536  0.3555 -0.0337
  183MOL0     C24608   7.998   0.056   5.376 -0.2087  0.4859  0.1277
  183MOL0     C24609   8.067   0.178   5.430 -1.0468  0.5359 -0.3895
  183MOL0     C24610   8.222   0.147   5.444  0.0907 -0.5671  0.4532
  183MOL0     C24611   8.298   0.284   5.442  0.3035  0.2516 -0.2729
  183MOL0     C24612   8.442   0.268   5.501  0.5509  0.0184 -0.0462
  183MOL0     C24613   8.428   0.264   5.657  0.3297 -0.6353 -0.0518
  183MOL0     C24614   8.567   0.237   5.714  0.0974  0.2196 -0.1053
  183MOL0    Cl24615   8.568   0.181   5.881 -0.1435 -0.4475  0.1538
  183MOL0     C24616   7.581  -0.126   5.312 -0.7348 -0.5747 -0.1696
  183MOL0     C24617   7.455  -0.144   5.252  0.4879  0.3791 -1.1423
  183MOL0     O24618   7.177  -0.244   5.198 -0.3099  0.3390  0.3944
  183MOL0     C24619   7.051  -0.026   4.938  0.1681  0.2725 -0.1514
  183MOL0     C24620   6.931  -0.000   4.880 -0.3509 -0.8061 -0.4532
  183MOL0     N24621   7.034   0.301   4.577 -0.7925  0.1878  0.5166
  183MOL0     N24622   7.138   0.218   4.571  0.6391 -0.3196  0.7638
  183MOL0     C24623   8.053   0.066   4.826 -0.2206  0.4176 -0.3721
  183MOL0     C24624   8.160   0.141   4.879 -0.1751  0.0443  0.3437
  183MOL0     C24625   8.558   0.286   5.044 -0.4554  0.5379 -0.7372
  183MOL0     C24626   8.629   0.186   5.115 -0.4581 -0.2630 -0.2520
  183MOL0     C24627   8.766   0.202   5.143  0.0730  0.6923  0.1911
  183MOL0     C24628   8.824   0.325   5.132 -0.7668 -0.3276  0.3654
  183MOL0     O24629   8.958   0.329   5.157  0.0004  0.3243 -0.3143
  183MOL0     C24630   9.018   0.461   5.187  0.1773 -0.4723 -0.1769
  183MOL0     C24631   9.109   0.449   5.302 -0.6320 -0.1960 -0.2754
  183MOL0     C24632   9.138   0.594   5.356 -0.3229 -0.3117 -0.0427
  183MOL0     C24633   9.213   0.603   5.492  0.5638 -0.1321  0.1938
  183MOL0     C24634   9.362   0.581   5.474  0.4632 -0.0719  0.0295
  183MOL0     C24635   9.488   0.576   5.462 -0.0334  0.0872  0.1828
  183MOL0     C24636   8.757   0.429   5.075  0.3610  0.2770 -0.1457
  183MOL0     C24637   8.624   0.412   5.021 -0.0108  0.5917 -0.6884
  183MOL0     H24638   8.257  -0.062   5.132 -1.0189  1.7386  2.0494
  183MOL0     H24639   8.051  -0.192   5.048 -0.3467  0.7464 -1.5266
  183MOL0     H24640   7.777   0.001   4.848 -0.5622 -1.2311  0.1005
  183MOL0     H24641   7.801  -0.072   4.686  0.6873  4.2491 -0.2008
  183MOL0     H24642   7.758  -0.287   4.792  0.5684  1.4749 -1.8408
  183MOL0     H24643   7.735  -0.222   4.951 -0.9434 -3.7930 -0.3234
  183MOL0     H24644   7.503  -0.242   4.874  0.7230 -0.4328  0.1682
  183MOL0     H24645   7.549  -0.075   4.860 -0.0774 -0.5593 -0.3794
  183MOL0     H24646   7.581  -0.087   4.620  1.2394 -0.4040  0.9834
  183MOL0     H24647   7.597  -0.262   4.630 -1.6005 -0.2499  0.4533
  183MOL0     H24648   7.408  -0.229   4.532  0.8719 -0.0536 -0.0131
  183MOL0     H24649   7.363  -0.285   4.694 -1.2089  0.1939  0.6709
  183MOL0     H24650   7.293  -0.070   4.767  1.6166  3.6391 -0.5882
  183MOL0     H24651   7.364   0.014   4.633  0.4434 -1.8256 -3.7402
  183MOL0     H24652   7.161  -0.206   4.560 -3.3458 -0.4701  1.2934
  183MOL0     H24653   7.095  -0.081   4.661 -1.9026 -1.0547 -1.0991
  183MOL0     H24654   7.125  -0.066   4.384 -0.6428  2.5197 -1.3531
  183MOL0     H24655   7.268   0.012   4.450 -0.9437  2.5203  1.2770
  183MOL0     H24656   6.895   0.049   4.418 -0.6863  0.6646  0.2886
  183MOL0     H24657   6.795   0.419   4.529 -0.3359 -0.2589 -3.0140
  183MOL0     H24658   6.733   0.283   4.433  0.6256 -2.5950  0.1294
  183MOL0     H24659   6.603   0.305   4.630  1.0273  2.5291 -1.2128
  183MOL0     H24660   6.743   0.302   4.738  1.9218 -1.4913 -0.5846
  183MOL0     H24661   6.804   0.065   4.643 -0.0951  1.0717 -1.1781
  183MOL0     H24662   6.636   0.076   4.579 -2.6059  1.9053  0.5785
  183MOL0     H24663   6.552   0.063   4.797 -1.2241 -0.8243 -2.4871
  183MOL0     H24664   6.699   0.136   4.872 -3.9164 -0.6911  1.2493
  183MOL0     H24665   6.758  -0.284   4.943  1.3519 -3.0970  0.1967
  183MOL0     H24666   7.016  -0.435   5.086 -2.8269 -2.7943  1.7501
  183MOL0     H24667   6.973  -0.335   5.224  2.5695  2.6576 -0.7233
  183MOL0     H24668   6.852  -0.398   5.106  0.2451 -0.6773  0.4800
  183MOL0     H24669   7.469   0.110   5.040  0.4727 -0.7854 -0.9540
  183MOL0     H24670   7.674   0.156   5.147  1.7909 -3.1658 -2.4417
  183MOL0     H24671   7.877   0.146   5.225  0.3044 -0.6627 -0.5315
  183MOL0     H24672   7.840   0.179   5.392 -1.8275 -0.1277 -0.3498
  183MOL0     H24673   7.984  -0.018   5.456  0.6339 -0.0775 -0.2262
  183MOL0     H24674   8.061   0.009   5.299 -0.8439 -0.3025  0.0683
  183MOL0     H24675   8.035   0.192   5.534  2.0867 -2.6900  1.2301
  183MOL0     H24676   8.062   0.268   5.368 -0.5584 -1.9314 -4.3811
  183MOL0     H24677   8.238   0.091   5.536 -0.4894  1.7417  2.0324
  183MOL0     H24678   8.261   0.089   5.359  0.0686  1.2337 -0.8309
  183MOL0     H24679   8.250   0.358   5.507 -2.7576  0.7944 -2.8983
  183MOL0     H24680   8.322   0.318   5.341 -0.4636  0.9257 -0.2418
  183MOL0     H24681   8.489   0.175   5.468  1.8228  0.6807 -0.1519
  183MOL0     H24682   8.511   0.348   5.475  2.0103 -1.6387 -1.5915
  183MOL0     H24683   8.375   0.176   5.693 -1.8748  1.3238  1.8394
  183MOL0     H24684   8.378   0.352   5.699  1.4539  0.8025 -1.5606
  183MOL0     H24685   8.612   0.337   5.718 -2.6219  1.5027  1.3345
  183MOL0     H24686   8.612   0.158   5.653 -1.4038 -0.9345  0.2347
  183MOL0     H24687   7.627  -0.198   5.379 -0.9039  0.0310  0.6014
  183MOL0     H24688   7.405  -0.230   5.296  1.8120  0.8229  1.4509
  183MOL0     H24689   7.128   0.046   4.911  0.8510 -0.4439 -0.1393
  183MOL0     H24690   6.914   0.096   4.833  1.8447  0.3554  0.9191
  183MOL0     H24691   7.993   0.104   4.744 -0.7661 -1.7129 -1.0368
  183MOL0     H24692   8.172   0.241   4.839 -2.2800  0.7158  1.2158
  183MOL0     H24693   8.579   0.090   5.129  1.2713 -1.3211 -0.9911
  183MOL0     H24694   8.820   0.114   5.177 -1.5474 -0.7748 -0.8718
  183MOL0     H24695   9.068   0.501   5.098  1.6871 -1.4757  0.1967
  183MOL0     H24696   8.940   0.533   5.213 -0.5130  0.3366 -3.8315
  183MOL0     H24697   9.197   0.397   5.263 -0.2063  1.7419 -2.0893
  183MOL0     H24698   9.058   0.392   5.380 -0.6605  1.4717  0.9870
  183MOL0     H24699   9.050   0.657   5.373  0.1351 -0.1474  2.0305
  183MOL0     H24700   9.202   0.640   5.280 -1.3151 -1.1526 -1.4360
  183MOL0     H24701   9.181   0.514   5.548  1.6292 -0.2152  0.7008
  183MOL0     H24702   9.193   0.697   5.544 -1.8615 -0.0124 -0.8699
  183MOL0     H24703   9.593   0.589   5.451 -0.3986  1.4658 -2.4428
  183MOL0     H24704   8.801   0.525   5.050  0.1089 -0.0059 -1.8505
  183MOL0     H24705   8.577   0.491   4.963 -0.4540  0.0748 -1.0375
  184MOL0     O24706   5.098  10.397   8.034  0.5310  0.0508 -0.0678
  184MOL0     C24707   5.098  10.269   8.022 -0.1003  0.6452  0.3946
  184MOL0     O24708   5.024  10.196   7.936 -0.8930 -0.0222 -0.2927
  184MOL0     C24709   4.918  10.246   7.865  0.2979 -0.3524 -0.4116
  184MOL0     C24710   4.814  10.148   7.852  0.3447 -0.4392  0.1733
  184MOL0     C24711   4.701  10.180   7.789 -0.0790 -0.3433 -0.4046
  184MOL0     C24712   4.679  10.311   7.733 -0.1483 -0.4424  0.0856
  184MOL0     O24713   4.565  10.357   7.679 -0.6873 -0.2914  0.3748
  184MOL0     C24714   4.461  10.272   7.635 -1.1806 -0.5424  0.1432
  184MOL0     C24715   4.347  10.366   7.596  0.1556 -0.1983 -0.6255
  184MOL0     C24716   4.217  10.299   7.593  0.1593  1.1671 -0.3640
  184MOL0     C24717   4.132  10.394   7.513  0.3561 -0.0688  0.2756
  184MOL0     C24718   3.981  10.360   7.515  0.2362  0.4556 -0.5563
  184MOL0     C24719   3.901  10.459   7.426  0.9730  0.5132  0.0997
  184MOL0     C24720   3.746  10.441   7.427  0.1178 -0.0661  0.2818
  184MOL0     C24721   3.685  10.547   7.339 -0.7609  0.3868  0.1334
  184MOL0     N24722   3.546  10.497   7.312 -0.1991 -0.4964  0.5674
  184MOL0     C24723   3.424  10.519   7.379 -1.0246  0.1196 -0.3219
  184MOL0     C24724   3.329  10.448   7.317 -0.2674  0.2000  0.2516
  184MOL0     C24725   3.192  10.436   7.386 -0.2744 -0.1956 -1.1528
  184MOL0     C24726   3.081  10.385   7.290  0.3455 -0.3746  0.0444
  184MOL0     C24727   2.944  10.361   7.361  0.5299  0.0959  0.1365
  184MOL0     C24728   2.943  10.259   7.474  0.2388 -0.2312 -0.5604
  184MOL0     O24729   2.840  10.159   7.459 -0.2869 -0.0161 -0.3292
  184MOL0     C24730   2.713  10.202   7.493  0.4747  0.5816  1.3155
  184MOL0     C24731   2.682  10.317   7.575 -0.1928  0.8854  0.4013
  184MOL0     C24732   2.548  10.362   7.596 -0.6151  0.8990  0.4497
  184MOL0     C24733   2.529  10.479   7.688  0.3169  0.1025 -0.3516
  184MOL0     C24734   2.437  10.287   7.534  0.2766 -0.8998  0.1785
  184MOL0     C24735   2.301  10.317   7.567 -0.3992 -0.4923 -0.6885
  184MOL0     O24736   2.271  10.451   7.568 -0.1781  0.0415  0.0907
  184MOL0     C24737   2.149  10.478   7.623  0.8845  0.4943  0.6707
  184MOL0     C24738   2.139  10.498   7.767  0.0522  1.0449  0.4992
  184MOL0     C24739   2.015  10.520   7.825  0.6342 -0.0469 -0.2227
  184MOL0     C24740   1.904  10.520   7.739 -0.5697  0.2273 -0.6456
  184MOL0     O24741   1.777  10.549   7.788 -0.0983  0.4530 -0.6286
  184MOL0     C24742   1.756  10.498   7.925  0.1013 -1.2041 -1.1748
  184MOL0     C24743   1.606  10.476   7.951  0.0946  0.1246 -0.0969
  184MOL0     C24744   1.524  10.599   7.934 -0.1558  0.4252 -1.1715
  184MOL0     C24745   1.377  10.565   7.953  0.8997  0.1866  0.2328
  184MOL0     C24746   1.300  10.697   7.987  0.5717 -0.1000  0.6554
  184MOL0     C24747   1.153  10.683   7.963 -0.3269 -0.9412  0.5593
  184MOL0     C24748   1.073  10.790   8.033 -0.1377 -0.2804  0.0492
  184MOL0     C24749   0.924  10.774   7.983  0.3856 -0.9632 -0.1597
  184MOL0    Cl24750   0.864  10.616   8.017  0.6402 -0.0808 -0.2697
  184MOL0     C24751   1.911  10.485   7.602  0.3601  0.9317  0.7351
  184MOL0     C24752   2.032  10.475   7.541  0.0873 -0.2462 -0.2538
  184MOL0     O24753   2.223  10.230   7.601  0.0768  0.1015  0.1681
  184MOL0     C24754   2.467  10.169   7.472 -0.0374  0.9877  1.0914
  184MOL0     C24755   2.603  10.133   7.438 -0.1696  0.1798  0.6530
  184MOL0     N24756   3.388  10.381   7.217  0.2749 -0.1076  0.8184
  184MOL0     N24757   3.509  10.423   7.206  0.1550 -0.5400  0.0311
  184MOL0     C24758   4.786  10.404   7.748 -0.2900  0.1317  0.2655
  184MOL0     C24759   4.898  10.378   7.821 -0.9478 -0.2153 -0.2104
  184MOL0     C24760   5.162  10.192   8.142 -0.8425 -0.2635  0.2181
  184MOL0     C24761   5.254  10.262   8.224 -0.1703  0.6923  0.2365
  184MOL0     C24762   5.316  10.201   8.340  0.4673  0.6500 -0.4281
  184MOL0     C24763   5.286  10.061   8.350 -0.9523 -0.1169 -1.3153
  184MOL0     O24764   5.356   9.982   8.447  0.1203 -0.1782  0.5221
  184MOL0     C24765   5.337  10.009   8.583 -0.3607  0.2745 -0.0822
  184MOL0     C24766   5.398  10.133   8.635 -0.0438  0.6041 -0.5993
  184MOL0     C24767   5.411  10.132   8.783  0.5033 -0.2328  0.0922
  184MOL0     C24768   5.546  10.083   8.824 -0.3327  0.3416 -0.3932
  184MOL0     C24769   5.567  10.083   8.973 -0.1734  0.0512  0.3278
  184MOL0     C24770   5.592  10.089   9.089 -0.2132  0.2626 -0.1384
  184MOL0     C24771   5.199   9.988   8.268 -0.5216 -0.5133 -0.1769
  184MOL0     C24772   5.125  10.055   8.170 -0.4452 -0.8373 -0.4012
  184MOL0     H24773   4.814  10.045   7.886 -1.3857 -0.0969  1.3229
  184MOL0     H24774   4.618  10.110   7.781 -1.5925  1.2673  0.2418
  184MOL0     H24775   4.484  10.208   7.549 -3.5247 -1.1179 -0.1250
  184MOL0     H24776   4.425  10.210   7.718 -0.2713  2.1031  2.6617
  184MOL0     H24777   4.331  10.444   7.670  4.4042 -1.3629  1.9161
  184MOL0     H24778   4.372  10.397   7.495  0.3598 -1.3140 -0.9302
  184MOL0     H24779   4.216  10.212   7.527 -1.6648  0.6670  0.2615
  184MOL0     H24780   4.184  10.278   7.695 -1.6250  2.6051 -0.6039
  184MOL0     H24781   4.129  10.500   7.538 -1.7336 -0.2504  1.0226
  184MOL0     H24782   4.158  10.387   7.407  1.1265 -0.2196  0.4683
  184MOL0     H24783   3.966  10.259   7.474 -3.0539 -0.8200  3.1768
  184MOL0     H24784   3.934  10.359   7.613 -1.3948  0.0743 -1.2982
  184MOL0     H24785   3.933  10.559   7.455  5.8570 -0.2398 -1.7123
  184MOL0     H24786   3.929  10.446   7.321 -1.9484 -0.7661 -0.6284
  184MOL0     H24787   3.720  10.338   7.404  1.7727 -0.4047 -0.2281
  184MOL0     H24788   3.707  10.453   7.528  1.6609  0.0920  0.8891
  184MOL0     H24789   3.728  10.550   7.239  0.5967  0.4238  0.6955
  184MOL0     H24790   3.693  10.647   7.383 -2.6638  1.3758 -1.5882
  184MOL0     H24791   3.410  10.578   7.469 -3.3031  0.7662 -1.0258
  184MOL0     H24792   3.195  10.364   7.469  1.8273  0.6069 -0.4815
  184MOL0     H24793   3.164  10.538   7.415 -3.7400 -1.2436 -0.2844
  184MOL0     H24794   3.116  10.298   7.233  2.0937  0.7672 -0.7053
  184MOL0     H24795   3.060  10.468   7.221  1.0721 -1.8073 -2.0206
  184MOL0     H24796   2.864  10.321   7.298  0.4656  0.5413 -0.0693
  184MOL0     H24797   2.903  10.458   7.390  0.5368  0.1122  0.0927
  184MOL0     H24798   2.937  10.309   7.571 -2.7464  0.1919 -0.8638
  184MOL0     H24799   3.041  10.213   7.467  0.6455  0.2920  1.1887
  184MOL0     H24800   2.760  10.378   7.621  0.2962  1.4221 -1.0755
  184MOL0     H24801   2.442  10.457   7.750 -0.3151  0.7858 -0.9676
  184MOL0     H24802   2.615  10.505   7.750  0.0337  1.4545 -0.4828
  184MOL0     H24803   2.507  10.574   7.638  0.9888  0.4016 -0.0900
  184MOL0     H24804   2.233  10.490   7.821  0.4545  1.6827 -0.0894
  184MOL0     H24805   2.014  10.525   7.934  1.7503 -1.3251 -0.1250
  184MOL0     H24806   1.802  10.400   7.944  0.6033 -0.9140 -0.8696
  184MOL0     H24807   1.797  10.566   8.000  0.1596  0.7111 -2.8440
  184MOL0     H24808   1.561  10.392   7.897  2.8229  0.5086 -3.3004
  184MOL0     H24809   1.591  10.437   8.052  2.3466  1.3620  0.7642
  184MOL0     H24810   1.535  10.636   7.832  3.3236  0.2015 -1.0008
  184MOL0     H24811   1.564  10.670   8.007 -1.5657 -0.0951  0.1527
  184MOL0     H24812   1.343  10.518   7.861  2.0743  1.8442 -1.1100
  184MOL0     H24813   1.379  10.496   8.037  1.1799  1.5834  1.4249
  184MOL0     H24814   1.343  10.780   7.930 -0.2740 -0.7327 -0.9959
  184MOL0     H24815   1.322  10.718   8.092 -1.3405 -0.1430  1.1006
  184MOL0     H24816   1.143  10.695   7.855  1.3158  1.2206  0.5648
  184MOL0     H24817   1.118  10.583   7.988 -3.3904  0.0005  0.4043
  184MOL0     H24818   1.116  10.881   7.991  3.8189 -3.2636 -3.2701
  184MOL0     H24819   1.081  10.783   8.142 -1.4942  2.8781  0.4734
  184MOL0     H24820   0.909  10.787   7.876 -1.1038  2.8257  0.3636
  184MOL0     H24821   0.864  10.854   8.027  0.9523 -0.5712 -0.0970
  184MOL0     H24822   1.823  10.483   7.539 -0.2363  0.4322  1.5592
  184MOL0     H24823   2.037  10.467   7.433  0.7967  3.1022 -0.5712
  184MOL0     H24824   2.393  10.104   7.425  2.0477 -1.8001  1.3682
  184MOL0     H24825   2.627  10.042   7.384 -3.5841  0.1893 -1.0984
  184MOL0     H24826   4.765  10.500   7.703  1.1969  0.1863 -0.3580
  184MOL0     H24827   4.979  10.449   7.831  0.2071 -1.7430  2.0387
  184MOL0     H24828   5.279  10.364   8.197  1.0231  0.6502  1.1015
  184MOL0     H24829   5.394  10.246   8.399  0.8719 -0.9041  0.2609
  184MOL0     H24830   5.231   9.997   8.604 -0.1003 -1.5719  0.3099
  184MOL0     H24831   5.394   9.927   8.628  3.5797  1.6156 -2.0939
  184MOL0     H24832   5.339  10.222   8.611 -1.2429  0.0557  0.1819
  184MOL0     H24833   5.498  10.119   8.593  1.4385 -4.2438  3.4773
  184MOL0     H24834   5.325  10.079   8.826 -1.4063  2.5855 -0.0074
  184MOL0     H24835   5.406  10.232   8.826 -1.5759 -0.9715  1.7140
  184MOL0     H24836   5.618  10.154   8.783  1.1962 -0.9463 -0.0164
  184MOL0     H24837   5.556   9.989   8.770 -1.1849 -1.1485  1.8962
  184MOL0     H24838   5.615  10.083   9.193 -4.0743  2.1133  0.9728
  184MOL0     H24839   5.196   9.884   8.298  0.1615 -0.3412  0.4948
  184MOL0     H24840   5.053   9.996   8.114  0.3768 -2.6884  0.3949
  185MOL0     O24841  10.161   2.093  10.559  0.8199  0.1556  0.0019
  185MOL0     C24842  10.143   1.968  10.572  0.1653  0.6399 -0.3174
  185MOL0     O24843  10.028   1.905  10.614 -0.4512 -0.2679 -0.2692
  185MOL0     C24844   9.920   1.972  10.668 -0.2395  0.2262 -0.7266
  185MOL0     C24845   9.823   2.029  10.574  0.8543 -0.7013 -0.0285
  185MOL0     C24846   9.712   2.095  10.626  0.2116 -0.2215  0.0459
  185MOL0     C24847   9.680   2.096  10.763 -0.1884  0.2776 -0.3562
  185MOL0     O24848   9.573   2.168  10.798  0.2584 -0.0160  0.0331
  185MOL0     C24849   9.480   2.107  10.883  0.4403 -0.0764 -0.8598
  185MOL0     C24850   9.356   2.198  10.890 -1.0580 -0.3870 -0.4285
  185MOL0     C24851   9.251   2.132  10.980 -0.5518  0.2767  0.2799
  185MOL0     C24852   9.307   2.102  11.128 -0.3282 -0.3192 -0.2653
  185MOL0     C24853   9.201   2.057  11.225  0.2026  0.6101  0.4199
  185MOL0     C24854   9.262   2.023  11.366  0.4521  0.3595 -0.6977
  185MOL0     C24855   9.191   1.892  11.430  0.3338 -1.3340 -1.0767
  185MOL0     C24856   9.157   1.924  11.573 -0.0288  0.3011 -0.5072
  185MOL0     N24857   9.272   1.937  11.663 -0.0302 -0.2605 -0.3741
  185MOL0     C24858   9.350   1.833  11.707 -0.8131  0.0781  0.0676
  185MOL0     C24859   9.432   1.886  11.802  0.0895  0.1316  0.5851
  185MOL0     C24860   9.522   1.803  11.888  0.9449 -0.2404 -0.2096
  185MOL0     C24861   9.459   1.695  11.967  0.5296 -0.0444  0.1810
  185MOL0     C24862   9.350   1.738  12.068 -0.0719  0.0885  0.3162
  185MOL0     C24863   9.209   1.715  12.028  0.1878 -0.3542 -0.8705
  185MOL0     O24864   9.147   1.811  11.933 -0.1298 -0.7993  1.1378
  185MOL0     C24865   9.010   1.838  11.941 -0.9623  0.4099  0.2077
  185MOL0     C24866   8.926   1.761  12.017 -0.1524  1.3186  0.2825
  185MOL0     C24867   8.787   1.790  12.040 -0.4980 -0.3629  0.2495
  185MOL0     C24868   8.710   1.688  12.114  0.4674 -0.0762  0.3577
  185MOL0     C24869   8.734   1.910  11.978 -0.4733  0.3941 -0.1733
  185MOL0     C24870   8.603   1.965  12.008  0.4410  0.4744  0.3983
  185MOL0     O24871   8.558   2.051  11.907 -0.6137 -0.5431  0.0422
  185MOL0     C24872   8.422   2.089  11.921 -0.6529  0.3262 -0.3949
  185MOL0     C24873   8.317   2.000  11.884  0.8814  0.1022 -0.2096
  185MOL0     C24874   8.191   2.042  11.898 -0.7350  0.6196  0.3537
  185MOL0     C24875   8.157   2.162  11.956  0.4254 -0.8989  0.3104
  185MOL0     O24876   8.021   2.185  11.975  0.5171  0.7048  0.0370
  185MOL0     C24877   7.970   2.284  12.070 -0.2917  0.4398  0.3787
  185MOL0     C24878   7.836   2.217  12.122  1.3667 -0.5956 -0.4139
  185MOL0     C24879   7.721   2.274  12.031  0.2159  0.7500 -0.0229
  185MOL0     C24880   7.572   2.220  12.066 -0.2869 -0.0506 -0.9018
  185MOL0     C24881   7.472   2.291  11.975 -0.3287 -0.5961  0.4662
  185MOL0     C24882   7.326   2.242  12.006 -0.4293 -0.9133 -0.6911
  185MOL0     C24883   7.236   2.322  11.912 -0.0943 -0.5382 -0.4318
  185MOL0     C24884   7.096   2.248  11.909  0.1369  0.5885 -0.3318
  185MOL0    Cl24885   7.082   2.079  11.852  0.3911  0.3322  0.2579
  185MOL0     C24886   8.258   2.248  12.002  0.1776  0.7574 -0.7016
  185MOL0     C24887   8.393   2.211  11.985 -0.2097  0.0959  0.1067
  185MOL0     O24888   8.543   1.932  12.111  0.2875  0.0557  0.4658
  185MOL0     C24889   8.820   1.983  11.887  0.5437  0.3685 -0.7779
  185MOL0     C24890   8.952   1.946  11.876  0.0910 -0.0040 -0.0526
  185MOL0     N24891   9.408   2.023  11.813  0.3791  0.3238  0.4604
  185MOL0     N24892   9.316   2.053  11.724  0.2965  0.2660  0.9144
  185MOL0     C24893   9.775   2.027  10.851 -0.2601  0.2802 -0.2110
  185MOL0     C24894   9.888   1.959  10.802 -0.6096  0.4899 -0.9450
  185MOL0     C24895  10.249   1.877  10.518 -0.3797  1.1567 -0.2255
  185MOL0     C24896  10.382   1.926  10.496  0.2564 -0.9977  0.3976
  185MOL0     C24897  10.490   1.854  10.453 -0.2450 -0.0006  0.3144
  185MOL0     C24898  10.464   1.712  10.436  0.4098 -0.3910 -0.3205
  185MOL0     O24899  10.568   1.637  10.389  0.1442  0.0183  0.4831
  185MOL0     C24900  10.707   1.672  10.404 -0.0935 -0.4652  0.5342
  185MOL0     C24901  10.799   1.551  10.373  0.3305  0.5706 -0.8581
  185MOL0     C24902  10.940   1.592  10.347  0.6510 -0.3418 -1.0118
  185MOL0     C24903  11.040   1.482  10.321  0.1959  0.6702  0.1381
  185MOL0     C24904  11.107   1.441  10.450  1.0926 -0.4617  0.9974
  185MOL0     C24905  11.151   1.405  10.556 -0.5906  0.0743 -0.1108
  185MOL0     C24906  10.341   1.653  10.469  0.5269 -0.5910 -0.4077
  185MOL0     C24907  10.233   1.735  10.506  0.4147 -0.3228 -1.1919
  185MOL0     H24908   9.849   2.032  10.469 -0.2896  3.2236 -0.3311
  185MOL0     H24909   9.645   2.143  10.555  1.0437 -3.3231 -3.1150
  185MOL0     H24910   9.446   2.009  10.846  1.6956 -2.4619  3.6755
  185MOL0     H24911   9.522   2.085  10.981 -1.0767 -0.5523 -0.2823
  185MOL0     H24912   9.388   2.288  10.942 -0.3282 -0.5593 -0.5691
  185MOL0     H24913   9.321   2.226  10.790  1.7439 -0.3993 -1.5077
  185MOL0     H24914   9.159   2.191  10.978 -0.9777 -0.3804 -2.0621
  185MOL0     H24915   9.220   2.038  10.935  0.2603 -1.0138  2.3023
  185MOL0     H24916   9.383   2.024  11.128 -0.3672 -0.8222  5.7679
  185MOL0     H24917   9.361   2.191  11.161  1.7556 -1.8780  0.7756
  185MOL0     H24918   9.134   2.143  11.238  1.2099  1.1852  2.1505
  185MOL0     H24919   9.143   1.978  11.177  3.6374 -0.0661 -3.1775
  185MOL0     H24920   9.370   2.008  11.366  0.5711  1.1479 -0.4665
  185MOL0     H24921   9.246   2.115  11.424  1.0548  0.0261  0.0245
  185MOL0     H24922   9.100   1.858  11.379 -0.9907 -0.2124  0.4236
  185MOL0     H24923   9.266   1.813  11.442  0.5684 -0.7617  2.7798
  185MOL0     H24924   9.088   1.848  11.609  1.7620 -0.9523  0.4473
  185MOL0     H24925   9.097   2.015  11.575 -1.7220 -0.7543 -0.9403
  185MOL0     H24926   9.351   1.732  11.666  0.4781  1.7886 -4.7480
  185MOL0     H24927   9.600   1.761  11.825 -1.0203 -2.2371 -1.4521
  185MOL0     H24928   9.563   1.866  11.968 -0.7116 -2.8986  2.9771
  185MOL0     H24929   9.536   1.637  12.018 -1.0603 -1.1173  1.4475
  185MOL0     H24930   9.419   1.619  11.898  2.2799 -1.4267  0.6313
  185MOL0     H24931   9.358   1.847  12.075 -0.8306  0.3789 -2.4253
  185MOL0     H24932   9.370   1.690  12.164 -1.2896 -1.5727 -0.2205
  185MOL0     H24933   9.156   1.732  12.122  1.0399 -0.7630 -0.3120
  185MOL0     H24934   9.192   1.611  11.999  1.2732 -0.6728 -0.3629
  185MOL0     H24935   8.961   1.667  12.058 -1.4958 -0.2520 -1.9718
  185MOL0     H24936   8.771   1.610  12.159  2.5198  1.3092  0.0667
  185MOL0     H24937   8.647   1.735  12.190 -1.1503 -0.6736 -0.5533
  185MOL0     H24938   8.644   1.645  12.037  1.2953  4.0043 -3.0255
  185MOL0     H24939   8.343   1.903  11.843 -0.2274  0.9103 -3.0739
  185MOL0     H24940   8.111   1.987  11.850  0.5554  0.2443 -1.4449
  185MOL0     H24941   8.047   2.300  12.146  2.4274  0.1676 -2.1397
  185MOL0     H24942   7.954   2.378  12.016 -0.5022 -0.1821 -0.6590
  185MOL0     H24943   7.841   2.108  12.132 -0.6856 -0.6920 -0.0200
  185MOL0     H24944   7.827   2.248  12.227  1.7762 -4.2144  0.8445
  185MOL0     H24945   7.742   2.235  11.931 -0.8768  0.1592 -0.0460
  185MOL0     H24946   7.720   2.383  12.021  1.8078  0.8620  0.8820
  185MOL0     H24947   7.564   2.111  12.075 -4.2493  0.1456 -0.3590
  185MOL0     H24948   7.564   2.250  12.171  0.5404  1.0362 -1.1321
  185MOL0     H24949   7.501   2.263  11.873  1.1762  0.6560  0.5084
  185MOL0     H24950   7.481   2.399  11.984  0.3902 -0.5107 -1.0248
  185MOL0     H24951   7.334   2.138  11.975 -1.9541 -0.4959 -2.6614
  185MOL0     H24952   7.300   2.258  12.111 -1.1594 -1.8199 -0.7305
  185MOL0     H24953   7.279   2.322  11.811  0.0443 -0.8353 -0.3734
  185MOL0     H24954   7.238   2.426  11.944 -1.5654  0.9271 -4.5342
  185MOL0     H24955   7.038   2.308  11.838  3.3604  0.8646 -2.9786
  185MOL0     H24956   7.041   2.258  12.003  0.6598 -2.1154  0.3491
  185MOL0     H24957   8.237   2.340  12.055  1.9475  0.3936  0.7513
  185MOL0     H24958   8.479   2.268  12.019  0.4110 -1.2310  0.8005
  185MOL0     H24959   8.784   2.078  11.849  0.8106  1.3342  1.2662
  185MOL0     H24960   9.021   2.001  11.812  1.5683 -1.6899  0.0097
  185MOL0     H24961   9.755   2.020  10.958  0.4835  0.8324 -0.0244
  185MOL0     H24962   9.947   1.898  10.869 -2.0368  2.1841  2.0793
  185MOL0     H24963  10.400   2.030  10.521 -3.0885 -0.4136  0.8985
  185MOL0     H24964  10.586   1.903  10.454 -0.2345 -0.0187  0.1765
  185MOL0     H24965  10.724   1.765  10.350  1.1122 -1.2041 -0.4202
  185MOL0     H24966  10.729   1.693  10.510  1.8653 -0.8210  0.2521
  185MOL0     H24967  10.757   1.490  10.293 -1.0595 -0.6142  0.7074
  185MOL0     H24968  10.801   1.487  10.462 -0.3238 -0.8135 -1.8127
  185MOL0     H24969  10.977   1.668  10.416 -1.5785  0.0513 -0.1608
  185MOL0     H24970  10.930   1.647  10.252 -0.9017  0.1164 -0.6147
  185MOL0     H24971  11.111   1.521  10.247 -1.1954  0.8083 -1.1677
  185MOL0     H24972  10.997   1.386  10.289  0.4380 -0.8906  3.9794
  185MOL0     H24973  11.202   1.369  10.643 -0.9396 -2.0706 -0.7434
  185MOL0     H24974  10.318   1.547  10.461 -1.7185 -0.1803  0.0985
  185MOL0     H24975  10.135   1.694  10.529 -0.2146  2.4645  2.0288
  186MOL0     O24976   7.533   3.776   1.813 -0.2144 -0.0716  0.1167
  186MOL0     C24977   7.559   3.688   1.730 -0.2379  0.3747 -0.1669
  186MOL0     O24978   7.464   3.603   1.672 -0.1860  0.0761  0.0613
  186MOL0     C24979   7.325   3.608   1.687 -0.1648 -0.4282 -0.1833
  186MOL0     C24980   7.250   3.703   1.759 -0.7111 -0.1510 -0.2314
  186MOL0     C24981   7.114   3.685   1.779  0.2093  0.2121 -0.2575
  186MOL0     C24982   7.044   3.579   1.706  1.1151  0.5719 -0.7542
  186MOL0     O24983   6.907   3.573   1.732 -0.0807  1.4556 -0.3895
  186MOL0     C24984   6.839   3.448   1.716 -0.1272  0.5783 -0.3889
  186MOL0     C24985   6.792   3.417   1.571 -0.5199 -0.4517  0.0958
  186MOL0     C24986   6.660   3.480   1.531 -0.0455 -0.0182  0.3918
  186MOL0     C24987   6.628   3.447   1.376  0.4947 -0.0979 -1.0157
  186MOL0     C24988   6.495   3.508   1.338  0.0416  0.0361  0.4955
  186MOL0     C24989   6.372   3.437   1.398 -0.6143 -0.2173  0.2090
  186MOL0     C24990   6.241   3.449   1.321 -0.2058  1.3791  0.9762
  186MOL0     C24991   6.176   3.585   1.356 -0.0027  0.1078  0.4189
  186MOL0     N24992   6.040   3.617   1.308 -0.4050 -0.2291  0.3873
  186MOL0     C24993   6.012   3.708   1.203  0.2093  0.5016  0.1533
  186MOL0     C24994   5.880   3.732   1.209  0.3384 -0.2223 -0.1935
  186MOL0     C24995   5.809   3.808   1.101 -0.8128 -0.1467 -0.2141
  186MOL0     C24996   5.745   3.712   1.004  0.4707  0.2270 -0.4597
  186MOL0     C24997   5.650   3.773   0.897  0.0868  0.2713  0.1659
  186MOL0     C24998   5.588   3.659   0.811  0.2433  0.8420 -0.2522
  186MOL0     O24999   5.485   3.595   0.886  0.2621  0.3344 -0.3817
  186MOL0     C25000   5.422   3.494   0.816  0.3405 -0.1683  0.1062
  186MOL0     C25001   5.482   3.377   0.778 -1.2271  0.4737 -0.7322
  186MOL0     C25002   5.418   3.276   0.694  0.0388 -0.8554 -0.2239
  186MOL0     C25003   5.508   3.158   0.662 -0.3033  0.5790  1.1124
  186MOL0     C25004   5.282   3.285   0.676 -1.2063 -0.6092 -0.2698
  186MOL0     C25005   5.201   3.194   0.592  0.6801  0.4078 -0.0630
  186MOL0     O25006   5.265   3.081   0.542  0.9555  0.4307  0.1113
  186MOL0     C25007   5.213   3.002   0.439  0.3275 -0.3310 -1.0126
  186MOL0     C25008   5.267   2.983   0.319 -1.1611 -0.8761  0.4238
  186MOL0     C25009   5.212   2.884   0.233 -0.2406 -0.7067  0.0278
  186MOL0     C25010   5.095   2.811   0.267 -0.1164 -0.4040 -0.2612
  186MOL0     O25011   5.051   2.718   0.171 -0.3424  0.5454  0.6315
  186MOL0     C25012   4.941   2.637   0.207  0.5228  0.1760 -0.1572
  186MOL0     C25013   4.891   2.554   0.085  0.5534  0.6738 -0.0803
  186MOL0     C25014   4.746   2.504   0.105 -0.3219 -0.4096 -0.3563
  186MOL0     C25015   4.647   2.615   0.057  0.0776 -0.3321  0.4969
  186MOL0     C25016   4.500   2.573   0.044 -0.3631 -0.2572 -0.1002
  186MOL0     C25017   4.409   2.603   0.163  0.6346 -0.5323  0.1956
  186MOL0     C25018   4.261   2.563   0.128 -1.3520 -0.2014 -0.1035
  186MOL0     C25019   4.178   2.564   0.250  0.6349 -0.8602 -0.0955
  186MOL0    Cl25020   4.186   2.706   0.349 -0.1647  0.4191 -0.0569
  186MOL0     C25021   5.027   2.837   0.393 -0.4002  0.2121  0.1097
  186MOL0     C25022   5.092   2.934   0.473  0.4185  0.4646  0.1974
  186MOL0     O25023   5.086   3.230   0.572 -0.8024 -0.1337  0.0180
  186MOL0     C25024   5.223   3.413   0.708 -0.1826 -0.6181 -0.7271
  186MOL0     C25025   5.289   3.512   0.780  0.0730  0.4700 -0.2844
  186MOL0     N25026   5.824   3.648   1.310  0.1456 -0.2090  0.4413
  186MOL0     N25027   5.920   3.588   1.372  0.2327  1.2387 -0.3028
  186MOL0     C25028   7.122   3.495   1.623 -0.0506 -0.3325 -0.3189
  186MOL0     C25029   7.257   3.504   1.623 -0.1065 -0.1509  0.1705
  186MOL0     C25030   7.695   3.677   1.691 -0.0525 -0.0522 -1.2288
  186MOL0     C25031   7.798   3.765   1.744  0.7829  0.2097  1.1903
  186MOL0     C25032   7.937   3.752   1.705  0.6801  0.0718 -0.4448
  186MOL0     C25033   7.963   3.660   1.596  0.2196 -0.1699 -0.7160
  186MOL0     O25034   8.090   3.643   1.541  0.2823 -0.0719  0.5255
  186MOL0     C25035   8.198   3.637   1.635  0.2085 -0.1885  0.4086
  186MOL0     C25036   8.332   3.619   1.558  0.5747  0.2289 -0.1035
  186MOL0     C25037   8.458   3.602   1.653 -0.0069 -0.6440  0.4443
  186MOL0     C25038   8.483   3.747   1.692  0.8343 -0.6787  0.1903
  186MOL0     C25039   8.578   3.745   1.809  0.2703  0.0490  0.2246
  186MOL0     C25040   8.656   3.737   1.899 -0.6103  0.3872 -0.7391
  186MOL0     C25041   7.859   3.596   1.536 -0.4282  0.2508 -1.3265
  186MOL0     C25042   7.736   3.592   1.579  0.3515 -0.1070 -0.8442
  186MOL0     H25043   7.294   3.784   1.817 -0.8902  0.6077 -1.1267
  186MOL0     H25044   7.048   3.755   1.829 -0.0450 -0.7879  0.8453
  186MOL0     H25045   6.899   3.365   1.754  0.3986  1.8212  1.6311
  186MOL0     H25046   6.754   3.446   1.784  0.4598 -0.4449  0.3271
  186MOL0     H25047   6.864   3.471   1.509 -1.2419  1.7378  1.0628
  186MOL0     H25048   6.791   3.310   1.552 -0.8327 -0.4524  0.1201
  186MOL0     H25049   6.584   3.446   1.601  0.7649 -2.4846  0.1707
  186MOL0     H25050   6.672   3.588   1.542  0.2407 -0.2369  2.5171
  186MOL0     H25051   6.710   3.483   1.313  0.5501  0.9075 -0.3827
  186MOL0     H25052   6.624   3.337   1.376  0.9360 -0.1486  1.1687
  186MOL0     H25053   6.504   3.614   1.365  0.8981  0.1841 -0.3040
  186MOL0     H25054   6.484   3.501   1.230  1.7945  1.0399  0.2233
  186MOL0     H25055   6.396   3.330   1.404  1.7978  0.3258  1.4800
  186MOL0     H25056   6.356   3.471   1.501 -1.6552 -0.6248  0.1978
  186MOL0     H25057   6.266   3.450   1.214 -1.3988  2.2858  0.6752
  186MOL0     H25058   6.164   3.376   1.348  2.2244 -1.6965  0.2656
  186MOL0     H25059   6.249   3.664   1.337 -1.7560  2.1140  1.5730
  186MOL0     H25060   6.167   3.588   1.465 -2.9685 -1.2618  0.3053
  186MOL0     H25061   6.091   3.738   1.136  1.1660 -1.8724  0.1150
  186MOL0     H25062   5.731   3.872   1.143  0.0270 -1.3978  3.6402
  186MOL0     H25063   5.886   3.869   1.053 -0.0891 -1.3282 -0.5974
  186MOL0     H25064   5.680   3.650   1.066 -1.2146  2.4994  0.1778
  186MOL0     H25065   5.828   3.658   0.957  1.8588  0.3510  1.7395
  186MOL0     H25066   5.709   3.839   0.832  0.1457 -1.5225 -1.6805
  186MOL0     H25067   5.569   3.830   0.944 -2.8508 -2.5634 -1.1519
  186MOL0     H25068   5.666   3.588   0.785 -0.7979  0.1982 -1.7048
  186MOL0     H25069   5.538   3.703   0.725 -1.6286 -0.5736  0.0573
  186MOL0     H25070   5.583   3.350   0.808 -1.1928 -0.4152 -1.6139
  186MOL0     H25071   5.469   3.062   0.698  1.4738 -0.5581  0.1360
  186MOL0     H25072   5.524   3.154   0.554 -1.1826 -1.5524  1.0144
  186MOL0     H25073   5.607   3.164   0.707  0.3972 -0.5629 -0.1935
  186MOL0     H25074   5.354   3.040   0.288 -1.5366 -0.3824  0.2589
  186MOL0     H25075   5.259   2.877   0.135 -1.0640 -0.4739 -0.3883
  186MOL0     H25076   4.967   2.558   0.278  1.4763  0.4386 -0.1926
  186MOL0     H25077   4.861   2.701   0.246 -0.9868 -1.3315 -0.6696
  186MOL0     H25078   4.898   2.612  -0.008 -0.6814  1.1128  0.0810
  186MOL0     H25079   4.960   2.471   0.068  1.1354  1.4781 -1.8674
  186MOL0     H25080   4.733   2.475   0.209  1.5249  0.6622  0.2187
  186MOL0     H25081   4.732   2.418   0.037  1.0692 -0.6704 -0.3338
  186MOL0     H25082   4.654   2.705   0.120 -0.7183 -0.4444  0.7648
  186MOL0     H25083   4.681   2.647  -0.041  1.2601  0.3515  1.1063
  186MOL0     H25084   4.494   2.466   0.021  1.8647 -1.0565  2.4813
  186MOL0     H25085   4.468   2.641  -0.035  1.9649  3.0667  1.5509
  186MOL0     H25086   4.434   2.543   0.251 -0.9243 -4.5374 -1.8372
  186MOL0     H25087   4.415   2.710   0.184 -1.7281 -0.1724 -0.6182
  186MOL0     H25088   4.265   2.463   0.084  2.9767  0.7388 -2.3991
  186MOL0     H25089   4.237   2.636   0.050  0.7284 -0.1222 -0.7184
  186MOL0     H25090   4.207   2.484   0.318  0.4188 -2.6445 -2.0272
  186MOL0     H25091   4.077   2.556   0.207  0.3990  0.7650  0.0622
  186MOL0     H25092   4.938   2.779   0.413 -0.5181 -0.4933 -2.1759
  186MOL0     H25093   5.047   2.953   0.570  1.1920  3.0046  0.1272
  186MOL0     H25094   5.120   3.435   0.686 -1.0023 -3.4969 -0.1568
  186MOL0     H25095   5.250   3.611   0.800  1.2782  1.0418 -0.6999
  186MOL0     H25096   7.082   3.409   1.570  2.1424 -0.9251 -1.0836
  186MOL0     H25097   7.308   3.441   1.551 -1.7010  0.3362 -1.4720
  186MOL0     H25098   7.783   3.830   1.830 -1.2426 -0.0742  1.0990
  186MOL0     H25099   8.018   3.819   1.730 -0.0371  0.3652  1.2010
  186MOL0     H25100   8.200   3.734   1.686 -0.0090 -0.2631  0.5583
  186MOL0     H25101   8.181   3.553   1.703 -1.5212  1.9011  2.7407
  186MOL0     H25102   8.351   3.700   1.486  1.2835  0.1485 -0.0114
  186MOL0     H25103   8.314   3.531   1.495  3.3871 -1.0201  0.6815
  186MOL0     H25104   8.539   3.559   1.594 -1.7681 -0.8326 -2.0290
  186MOL0     H25105   8.432   3.543   1.741 -2.7054 -0.8870 -0.4261
  186MOL0     H25106   8.402   3.809   1.731  0.6196 -1.2079  0.5983
  186MOL0     H25107   8.526   3.798   1.606  3.5337  0.0099  1.8232
  186MOL0     H25108   8.722   3.732   1.983 -0.6622  0.7701 -0.6706
  186MOL0     H25109   7.878   3.543   1.444 -0.6652 -1.2269 -0.5540
  186MOL0     H25110   7.660   3.538   1.523  1.2087 -1.7309 -0.5139
  187MOL0     O25111   0.722   3.191  10.058 -0.1450  0.0030 -0.0657
  187MOL0     C25112   0.840   3.237  10.057 -0.2384 -0.0552  0.4394
  187MOL0     O25113   0.878   3.336  10.136 -0.8547 -0.3726 -0.1840
  187MOL0     C25114   0.790   3.395  10.222  0.0628 -0.4991 -0.5826
  187MOL0     C25115   0.768   3.345  10.353 -1.1529  0.4334  0.6765
  187MOL0     C25116   0.674   3.402  10.437 -0.2226 -0.1649 -0.5074
  187MOL0     C25117   0.602   3.517  10.392 -0.4699 -0.5138  0.5994
  187MOL0     O25118   0.509   3.594  10.462  0.0598  0.5838  0.5373
  187MOL0     C25119   0.498   3.572  10.604 -0.8871  0.4745 -0.3816
  187MOL0     C25120   0.408   3.672  10.673 -0.1936  0.5790 -0.2680
  187MOL0     C25121   0.478   3.800  10.695 -0.0758  0.3615 -1.2849
  187MOL0     C25122   0.558   3.791  10.830  0.1477 -0.0627  0.5135
  187MOL0     C25123   0.634   3.920  10.849  0.2578 -0.2167 -1.2030
  187MOL0     C25124   0.722   3.940  10.981  0.0093  0.2159  1.4039
  187MOL0     C25125   0.644   3.976  11.112 -0.8524  0.1341  0.3759
  187MOL0     C25126   0.569   3.848  11.158  0.5890 -0.1697 -0.5734
  187MOL0     N25127   0.552   3.829  11.302 -0.7867  0.1661 -0.5188
  187MOL0     C25128   0.507   3.921  11.390  0.7360 -0.2473 -0.5284
  187MOL0     C25129   0.522   3.869  11.512 -0.0366 -0.1594  0.3961
  187MOL0     C25130   0.510   3.951  11.638 -0.1966  0.5438 -0.6653
  187MOL0     C25131   0.367   3.956  11.680  1.2891 -0.3779  0.1063
  187MOL0     C25132   0.353   4.005  11.828  0.0204  0.4585 -0.0071
  187MOL0     C25133   0.215   4.015  11.878  0.0285 -0.4435  0.4208
  187MOL0     O25134   0.202   4.107  11.993 -0.8140 -0.4008 -0.5624
  187MOL0     C25135   0.096   4.106  12.072 -0.1039 -0.4131  0.3591
  187MOL0     C25136  -0.031   4.044  12.043  0.3814 -0.2378  0.4053
  187MOL0     C25137  -0.146   4.061  12.135 -0.3230 -0.1684 -0.8194
  187MOL0     C25138  -0.277   4.002  12.099 -0.3739 -0.2593 -0.0802
  187MOL0     C25139  -0.130   4.136  12.251 -0.7832 -0.9409 -0.4644
  187MOL0     C25140  -0.243   4.160  12.344  0.1109  0.5174 -0.3994
  187MOL0     O25141  -0.325   4.263  12.326 -0.5735  0.2342  0.5077
  187MOL0     C25142  -0.458   4.263  12.377 -0.2220  0.7209 -0.5588
  187MOL0     C25143  -0.558   4.166  12.361  0.3615 -0.7133  0.4685
  187MOL0     C25144  -0.686   4.176  12.411  0.2625 -1.0602  0.0023
  187MOL0     C25145  -0.726   4.285  12.483 -0.2620  1.3664  0.0989
  187MOL0     O25146  -0.853   4.322  12.525 -0.2686  0.0573 -0.4985
  187MOL0     C25147  -0.971   4.250  12.482 -0.2559 -0.4328 -0.3057
  187MOL0     C25148  -1.084   4.305  12.573  0.0567  0.3881 -0.0064
  187MOL0     C25149  -1.220   4.244  12.535  0.0433  0.1223  0.3384
  187MOL0     C25150  -1.328   4.255  12.643  0.0685  0.0361  0.3041
  187MOL0     C25151  -1.471   4.217  12.598  0.2009  0.2878  0.0821
  187MOL0     C25152  -1.486   4.070  12.571 -0.5261 -0.0892 -0.8017
  187MOL0     C25153  -1.625   4.026  12.529 -0.1620  0.2867  0.0577
  187MOL0     C25154  -1.714   3.977  12.644 -0.9337 -0.2005  0.9907
  187MOL0    Cl25155  -1.865   3.948  12.587 -0.3462  0.1633  0.1822
  187MOL0     C25156  -0.626   4.375  12.507  0.9924 -0.0583  0.1384
  187MOL0     C25157  -0.500   4.374  12.452 -0.6247  0.8716 -0.3713
  187MOL0     O25158  -0.268   4.069  12.423  0.0347  0.5180  0.2927
  187MOL0     C25159  -0.008   4.196  12.280  0.3807 -0.2347 -0.8515
  187MOL0     C25160   0.107   4.176  12.198  0.3521  1.0389 -0.5906
  187MOL0     N25161   0.585   3.743  11.501  0.4747 -0.4847  0.1555
  187MOL0     N25162   0.608   3.726  11.372 -0.5113 -0.2925 -0.4144
  187MOL0     C25163   0.628   3.572  10.265 -0.4622  0.5079 -1.0813
  187MOL0     C25164   0.718   3.506  10.181 -0.3770  0.2982 -0.1237
  187MOL0     C25165   0.927   3.183   9.956 -0.4947 -0.6907  0.1645
  187MOL0     C25166   0.888   3.090   9.852  0.7238  1.2824 -0.8597
  187MOL0     C25167   0.971   3.058   9.743 -0.1033 -1.0844  0.1654
  187MOL0     C25168   1.099   3.119   9.733 -0.0246  0.2704  0.7102
  187MOL0     O25169   1.191   3.098   9.634  0.4221 -1.2524  0.0571
  187MOL0     C25170   1.164   3.013   9.520 -0.9592  0.0632 -0.1907
  187MOL0     C25171   1.068   3.080   9.418 -0.1403 -0.0034 -0.1631
  187MOL0     C25172   1.142   3.190   9.344 -0.4577  1.0573 -0.2140
  187MOL0     C25173   1.033   3.277   9.269  0.1959 -0.1398 -0.6788
  187MOL0     C25174   0.989   3.208   9.146 -0.3797 -0.2425  0.0882
  187MOL0     C25175   0.957   3.152   9.039  0.2595  0.3270  0.0522
  187MOL0     C25176   1.151   3.189   9.842 -0.0681 -0.3159  0.1736
  187MOL0     C25177   1.065   3.221   9.950  0.3076  0.0633 -0.1750
  187MOL0     H25178   0.833   3.267  10.390 -2.4828 -0.1697  1.8087
  187MOL0     H25179   0.656   3.367  10.538  1.4603  0.1597 -0.0778
  187MOL0     H25180   0.447   3.479  10.632 -0.9978  0.9945  1.2323
  187MOL0     H25181   0.597   3.576  10.650 -0.6116 -0.4513 -0.8696
  187MOL0     H25182   0.323   3.684  10.606  2.1152  2.6957 -3.1100
  187MOL0     H25183   0.374   3.627  10.766  2.6771 -0.1595  0.5345
  187MOL0     H25184   0.526   3.841  10.606 -0.0899  1.2936 -0.8828
  187MOL0     H25185   0.403   3.877  10.716 -0.2507  0.0294 -0.6672
  187MOL0     H25186   0.481   3.787  10.907 -1.8607 -0.0793 -1.3742
  187MOL0     H25187   0.625   3.704  10.837 -2.6567 -2.4117  0.3371
  187MOL0     H25188   0.691   3.929  10.756 -1.4221 -1.6097 -2.4436
  187MOL0     H25189   0.566   4.005  10.833  0.5552  0.6509  1.5776
  187MOL0     H25190   0.779   3.850  11.008  1.0029  1.3015  3.1069
  187MOL0     H25191   0.789   4.026  10.968 -0.8822  0.4565 -3.2994
  187MOL0     H25192   0.719   3.994  11.189 -2.5451 -4.9058  3.6960
  187MOL0     H25193   0.577   4.059  11.088 -0.3984 -0.0974 -1.9685
  187MOL0     H25194   0.611   3.760  11.110  0.3000  0.5169 -2.1427
  187MOL0     H25195   0.470   3.865  11.114  1.2063  0.6072 -1.7026
  187MOL0     H25196   0.495   4.027  11.371  1.7975 -0.4256 -2.3880
  187MOL0     H25197   0.575   3.910  11.716 -2.9286 -2.6514  0.1846
  187MOL0     H25198   0.540   4.054  11.618 -1.0191  1.4520  2.2190
  187MOL0     H25199   0.318   3.860  11.659 -1.2271  0.6380  0.9036
  187MOL0     H25200   0.311   4.022  11.613 -2.3860  0.2223  3.3888
  187MOL0     H25201   0.393   4.106  11.842  4.5620 -1.0277 -0.3206
  187MOL0     H25202   0.410   3.957  11.908 -1.0019  2.4585  2.0325
  187MOL0     H25203   0.195   3.912  11.910  0.0310 -0.6507 -0.2394
  187MOL0     H25204   0.152   4.047  11.795 -0.4074 -0.4366  0.7476
  187MOL0     H25205  -0.042   3.998  11.946 -0.0208  0.1478  0.2644
  187MOL0     H25206  -0.354   4.076  12.077 -1.0906 -1.3601 -1.3733
  187MOL0     H25207  -0.273   3.932  12.015 -0.4143  1.8759 -1.9530
  187MOL0     H25208  -0.312   3.961  12.194  1.3816 -1.5308  0.0672
  187MOL0     H25209  -0.544   4.079  12.298 -3.6529 -1.1656 -0.0266
  187MOL0     H25210  -0.749   4.089  12.397  1.3495 -2.1548  1.6911
  187MOL0     H25211  -0.994   4.270  12.377  2.4137  0.9363 -0.7247
  187MOL0     H25212  -0.973   4.143  12.503 -0.1547 -0.1111  1.5177
  187MOL0     H25213  -1.067   4.287  12.679 -1.6504  0.9719  0.4105
  187MOL0     H25214  -1.093   4.413  12.560  1.4390  0.3538 -1.5853
  187MOL0     H25215  -1.219   4.137  12.513 -2.8673 -0.0419  0.5882
  187MOL0     H25216  -1.246   4.289  12.439 -0.6596 -1.0153 -0.0311
  187MOL0     H25217  -1.307   4.196  12.733 -2.0807  0.3892  1.0909
  187MOL0     H25218  -1.333   4.359  12.675 -0.6151  0.1711 -0.2090
  187MOL0     H25219  -1.498   4.274  12.509  0.2342 -1.8977 -1.4128
  187MOL0     H25220  -1.549   4.252  12.666 -1.7023 -0.4200 -1.6328
  187MOL0     H25221  -1.419   4.041  12.490 -2.6314 -0.3719 -2.5375
  187MOL0     H25222  -1.453   4.022  12.664 -2.0679  0.6694  0.1644
  187MOL0     H25223  -1.615   3.946  12.455  0.1162  1.3304 -1.0608
  187MOL0     H25224  -1.667   4.116  12.485  1.7083  1.1474 -0.0628
  187MOL0     H25225  -1.710   4.052  12.724 -0.1672  2.4565 -1.3874
  187MOL0     H25226  -1.679   3.884  12.689 -2.4154  0.1788  3.0844
  187MOL0     H25227  -0.646   4.458  12.575  1.9603 -1.6253  2.4729
  187MOL0     H25228  -0.425   4.451  12.467  1.3034  0.0340 -4.2701
  187MOL0     H25229  -0.002   4.260  12.366 -0.6968 -0.5950 -0.4854
  187MOL0     H25230   0.202   4.224  12.217  0.5177  0.3204  0.4652
  187MOL0     H25231   0.573   3.662  10.237 -0.7040  1.1343  1.1505
  187MOL0     H25232   0.726   3.548  10.082 -1.5383  0.5693 -0.1141
  187MOL0     H25233   0.788   3.049   9.841  0.1375  1.0065  3.5017
  187MOL0     H25234   0.959   2.989   9.660  1.6200  0.9958 -1.9292
  187MOL0     H25235   1.257   2.989   9.468 -2.2441 -1.9979 -1.6921
  187MOL0     H25236   1.134   2.915   9.558 -1.0555 -0.4206 -1.4351
  187MOL0     H25237   0.980   3.120   9.470  0.1026  3.9187 -2.3796
  187MOL0     H25238   1.037   3.005   9.344  1.7534  2.2101 -3.4539
  187MOL0     H25239   1.217   3.138   9.283 -1.6547 -3.5103  1.7215
  187MOL0     H25240   1.199   3.254   9.412  0.2748  1.7875 -1.4900
  187MOL0     H25241   1.080   3.373   9.244 -0.7574  0.9442  1.3695
  187MOL0     H25242   0.946   3.303   9.330 -1.6251  1.8883 -3.8519
  187MOL0     H25243   0.916   3.101   8.953  1.3459 -0.1284 -0.2153
  187MOL0     H25244   1.250   3.231   9.833 -0.6691  1.7472  2.0480
  187MOL0     H25245   1.114   3.283  10.026  2.9771 -2.1654  0.0601
  188MOL0     O25246   9.786  10.269   3.428  0.3067  0.2436  0.0206
  188MOL0     C25247   9.824  10.173   3.364 -0.0579 -0.4774  0.3990
  188MOL0     O25248   9.794  10.157   3.229  0.1823  0.4945 -0.0783
  188MOL0     C25249   9.706  10.241   3.185  0.2455  0.0649 -0.0508
  188MOL0     C25250   9.572  10.209   3.212 -1.1101 -0.3617 -0.1073
  188MOL0     C25251   9.468  10.293   3.167 -0.1485 -0.5303 -0.8581
  188MOL0     C25252   9.495  10.414   3.101 -0.1157  0.1652  0.4317
  188MOL0     O25253   9.387  10.488   3.064  0.0740  0.5780  0.5853
  188MOL0     C25254   9.410  10.622   3.021  0.9160 -0.1831  0.4274
  188MOL0     C25255   9.280  10.694   2.977 -0.1105 -0.0550  0.4513
  188MOL0     C25256   9.256  10.842   3.004  0.3209 -0.4426 -0.4414
  188MOL0     C25257   9.124  10.889   2.939 -0.1650 -0.0382 -0.9784
  188MOL0     C25258   9.103  11.040   2.957 -0.0726 -0.6400 -0.2264
  188MOL0     C25259   8.979  11.082   2.874  0.3244  0.1162 -0.2806
  188MOL0     C25260   8.834  11.036   2.927  0.2319 -0.6739  0.3055
  188MOL0     C25261   8.729  11.124   2.859  0.4416 -0.7496  0.0381
  188MOL0     N25262   8.600  11.079   2.892  0.6431  0.4706  0.0313
  188MOL0     C25263   8.488  11.094   2.814 -0.1292 -0.1212  0.4785
  188MOL0     C25264   8.387  11.078   2.895  0.4789  0.2066  0.5336
  188MOL0     C25265   8.240  11.082   2.847 -0.1914  0.3949  0.1343
  188MOL0     C25266   8.193  11.230   2.827  0.2094 -0.1760 -0.5467
  188MOL0     C25267   8.039  11.239   2.798  0.4152 -0.7206 -1.3713
  188MOL0     C25268   7.992  11.172   2.675  0.5513 -0.4109 -0.0146
  188MOL0     O25269   7.851  11.219   2.659  0.2935  0.5185  0.1309
  188MOL0     C25270   7.784  11.176   2.549  0.7596 -0.0553  0.2874
  188MOL0     C25271   7.840  11.103   2.440 -0.8446 -0.1904 -0.7507
  188MOL0     C25272   7.768  11.057   2.331  0.3008 -0.2133  0.5423
  188MOL0     C25273   7.834  10.968   2.221 -0.2080  0.3231  0.8428
  188MOL0     C25274   7.633  11.099   2.319 -0.1036 -0.2987 -0.0593
  188MOL0     C25275   7.541  11.054   2.210 -0.2402 -0.0008 -0.0451
  188MOL0     O25276   7.407  11.043   2.249  0.3537 -0.0287 -0.0112
  188MOL0     C25277   7.314  11.017   2.152 -0.2685 -0.1786 -0.2437
  188MOL0     C25278   7.249  11.113   2.073 -0.0899  0.0275  0.1580
  188MOL0     C25279   7.143  11.080   1.984  0.3499  0.1405  0.3793
  188MOL0     C25280   7.094  10.942   1.978 -0.4128 -0.7100  0.2049
  188MOL0     O25281   7.010  10.893   1.887  0.3917  0.3131 -0.5587
  188MOL0     C25282   6.913  10.970   1.828 -0.5804 -0.8856 -0.5946
  188MOL0     C25283   6.950  11.034   1.697 -1.1959  0.2498  0.3107
  188MOL0     C25284   6.964  10.924   1.584  0.0668  0.2307 -0.5178
  188MOL0     C25285   7.008  10.969   1.447 -0.1102 -0.2713  0.4516
  188MOL0     C25286   7.042  10.848   1.359 -0.1323 -0.5883 -0.6391
  188MOL0     C25287   7.119  10.906   1.243 -0.0943 -0.2102  0.1386
  188MOL0     C25288   7.143  10.805   1.130  0.6130 -0.2438 -0.0233
  188MOL0     C25289   7.208  10.865   1.019  0.6233  0.7146  0.1697
  188MOL0    Cl25290   7.099  10.961   0.916 -0.4065 -0.2963  0.1503
  188MOL0     C25291   7.155  10.849   2.063 -0.2987  0.8026 -1.2018
  188MOL0     C25292   7.257  10.889   2.153 -0.7582 -0.0708 -0.0710
  188MOL0     O25293   7.582  11.044   2.094 -0.8114 -0.6783  0.0823
  188MOL0     C25294   7.583  11.168   2.436  0.8830 -0.7378  0.2657
  188MOL0     C25295   7.650  11.196   2.550 -0.9374  0.0328  0.0633
  188MOL0     N25296   8.429  11.040   3.025 -0.7428 -0.3578 -0.1353
  188MOL0     N25297   8.556  11.041   3.016 -0.0311  0.2780  0.1551
  188MOL0     C25298   9.624  10.452   3.091 -0.9204 -0.0007 -0.2240
  188MOL0     C25299   9.737  10.366   3.131 -0.3217  0.0643 -0.9742
  188MOL0     C25300   9.921  10.080   3.419  0.2485 -0.7366 -0.3033
  188MOL0     C25301   9.989  10.110   3.537 -0.5362 -0.6242 -0.3285
  188MOL0     C25302  10.082  10.029   3.593 -0.1528  0.9349 -0.4264
  188MOL0     C25303  10.111   9.910   3.532 -0.6607 -0.6041  0.4531
  188MOL0     O25304  10.215   9.842   3.588  0.0875  0.3792 -0.1147
  188MOL0     C25305  10.277   9.729   3.515  0.0757  0.2995  0.2665
  188MOL0     C25306  10.355   9.775   3.389  0.3050  0.1872 -0.5011
  188MOL0     C25307  10.381   9.674   3.272  1.1385  0.0989  0.3309
  188MOL0     C25308  10.436   9.731   3.147 -0.7835 -0.0264 -0.0151
  188MOL0     C25309  10.571   9.795   3.173  0.4996 -1.4920 -0.7712
  188MOL0     C25310  10.683   9.843   3.165 -0.3182  0.0281 -0.0750
  188MOL0     C25311  10.043   9.875   3.414  0.4534 -0.2881  0.1021
  188MOL0     C25312   9.946   9.957   3.358  0.6824  0.2460  0.8642
  188MOL0     H25313   9.534  10.122   3.264 -4.0967  0.9308  0.1180
  188MOL0     H25314   9.364  10.274   3.189 -0.3998  2.0487  0.5975
  188MOL0     H25315   9.462  10.674   3.102  2.0525 -0.2070 -0.2651
  188MOL0     H25316   9.479  10.608   2.937  1.0743 -1.3235  0.7324
  188MOL0     H25317   9.275  10.678   2.869 -0.4191 -2.1628  0.7357
  188MOL0     H25318   9.201  10.630   3.017  0.3850 -0.9215  0.0741
  188MOL0     H25319   9.236  10.857   3.111  0.0945  0.2963 -0.5841
  188MOL0     H25320   9.345  10.894   2.967  1.4753  0.1644  2.7786
  188MOL0     H25321   9.126  10.868   2.831 -1.1024 -1.3957 -0.7543
  188MOL0     H25322   9.042  10.829   2.979 -0.0765 -0.8529 -1.9614
  188MOL0     H25323   9.090  11.055   3.064  1.0165  0.2776 -0.1912
  188MOL0     H25324   9.192  11.101   2.937 -0.6602 -0.0568 -1.1397
  188MOL0     H25325   8.986  11.191   2.878  5.2827 -0.0130  1.5790
  188MOL0     H25326   8.993  11.055   2.769 -0.2840 -1.2387 -0.0344
  188MOL0     H25327   8.819  10.931   2.902  0.2575 -0.4247 -0.7984
  188MOL0     H25328   8.825  11.046   3.036  0.9332  2.1998  0.1886
  188MOL0     H25329   8.745  11.107   2.753  1.8733 -0.8768  0.2468
  188MOL0     H25330   8.733  11.232   2.877 -0.5525 -0.4206 -1.5318
  188MOL0     H25331   8.488  11.110   2.707 -2.6743  2.5051  0.7491
  188MOL0     H25332   8.232  11.024   2.754 -0.9151  1.9021 -0.7961
  188MOL0     H25333   8.178  11.038   2.925 -2.4088  2.2248 -0.5013
  188MOL0     H25334   8.239  11.272   2.737  0.6078 -0.8166 -0.6497
  188MOL0     H25335   8.220  11.290   2.915 -2.4257  1.1366 -0.5451
  188MOL0     H25336   8.002  11.342   2.793 -2.8309 -1.4155  2.5093
  188MOL0     H25337   7.996  11.192   2.887  2.7564 -0.3392  0.0411
  188MOL0     H25338   8.009  11.064   2.672 -0.5962 -0.5968 -1.9269
  188MOL0     H25339   8.054  11.209   2.593  1.7817 -0.2916  0.9387
  188MOL0     H25340   7.944  11.073   2.444 -1.0138 -0.6529  0.8058
  188MOL0     H25341   7.941  10.946   2.227 -0.2602 -1.9604 -3.2295
  188MOL0     H25342   7.784  10.871   2.219  0.5502 -0.0816  0.9274
  188MOL0     H25343   7.831  11.027   2.129 -2.4227 -0.9035  0.0619
  188MOL0     H25344   7.297  11.210   2.077  1.2923 -0.6344  4.2062
  188MOL0     H25345   7.105  11.152   1.913  0.3582 -0.7098 -0.5107
  188MOL0     H25346   6.827  10.903   1.819 -0.3780 -2.6132  5.5809
  188MOL0     H25347   6.882  11.056   1.887 -4.8403 -1.8485 -1.1319
  188MOL0     H25348   6.873  11.109   1.677 -1.2496  0.3523  0.8724
  188MOL0     H25349   7.042  11.088   1.719 -1.5173  0.3267  1.5949
  188MOL0     H25350   6.870  10.868   1.582  0.6509 -0.8657  0.7340
  188MOL0     H25351   7.046  10.859   1.617  0.0825  0.8991  0.8638
  188MOL0     H25352   6.928  11.025   1.397  0.6211  1.3346  0.9959
  188MOL0     H25353   7.090  11.041   1.461 -0.8593  0.3569  1.8168
  188MOL0     H25354   6.955  10.799   1.315  0.0053  0.5155 -2.2179
  188MOL0     H25355   7.105  10.774   1.409 -0.6562  0.5644  1.9047
  188MOL0     H25356   7.062  10.995   1.216 -1.8353 -1.2759  0.1447
  188MOL0     H25357   7.211  10.954   1.277 -0.9858  0.4434  1.7731
  188MOL0     H25358   7.051  10.750   1.104  1.9812 -1.5273 -2.5502
  188MOL0     H25359   7.203  10.718   1.157  1.4950  0.4338  0.2414
  188MOL0     H25360   7.261  10.791   0.959  1.1469  2.0083 -1.0154
  188MOL0     H25361   7.290  10.932   1.046  2.0319 -0.1794 -1.6873
  188MOL0     H25362   7.112  10.750   2.065 -1.5879  1.3340  1.1099
  188MOL0     H25363   7.281  10.813   2.226 -0.1578 -0.4225 -0.6177
  188MOL0     H25364   7.477  11.190   2.432  0.6002 -2.1833 -2.1524
  188MOL0     H25365   7.601  11.245   2.633 -0.7759  2.8616 -1.3486
  188MOL0     H25366   9.647  10.549   3.050  1.5234  1.2372  3.5699
  188MOL0     H25367   9.839  10.398   3.111 -1.2124  2.4006 -2.1131
  188MOL0     H25368   9.980  10.203   3.592  0.0231 -1.3746  1.0918
  188MOL0     H25369  10.134  10.068   3.680 -1.4861  1.2974  0.2343
  188MOL0     H25370  10.343   9.671   3.579 -0.4428 -2.2296 -1.3177
  188MOL0     H25371  10.197   9.662   3.481 -0.7116  1.4008 -0.0868
  188MOL0     H25372  10.452   9.815   3.422  0.0582  2.7204 -2.5049
  188MOL0     H25373  10.308   9.868   3.355  2.0547  1.2199 -0.2262
  188MOL0     H25374  10.288   9.620   3.250  1.6632  0.1651 -2.3103
  188MOL0     H25375  10.445   9.592   3.306 -0.2511 -0.1534  2.5466
  188MOL0     H25376  10.368   9.808   3.108 -0.0343 -0.3927 -2.1942
  188MOL0     H25377  10.447   9.656   3.069 -2.3173  0.9463 -1.2392
  188MOL0     H25378  10.784   9.877   3.171 -0.8823  1.6418  1.0019
  188MOL0     H25379  10.053   9.777   3.368  1.6481  0.1920 -0.6996
  188MOL0     H25380   9.901   9.916   3.268  1.1060  2.2308 -0.3022
  189MOL0     O25381   6.043   2.016   0.220 -0.2969  0.4181 -0.7692
  189MOL0     C25382   6.050   2.113   0.296 -0.2571  0.1536 -0.0632
  189MOL0     O25383   5.950   2.202   0.321  0.4255 -0.3057 -0.2768
  189MOL0     C25384   5.827   2.192   0.259  0.0107 -0.6487  0.0186
  189MOL0     C25385   5.727   2.224   0.349  0.0809  0.3027 -0.1990
  189MOL0     C25386   5.596   2.243   0.304  0.4845 -0.0085 -0.6835
  189MOL0     C25387   5.566   2.224   0.165 -0.1327 -0.3423 -0.4608
  189MOL0     O25388   5.445   2.260   0.116  0.0292 -0.2652  0.7943
  189MOL0     C25389   5.376   2.369   0.185 -0.5743 -0.0359 -1.2930
  189MOL0     C25390   5.273   2.435   0.092  0.0395  0.1967 -1.0615
  189MOL0     C25391   5.331   2.499  -0.028  0.5970 -1.0125 -0.0676
  189MOL0     C25392   5.228   2.531  -0.136 -0.1243 -0.1247  0.7087
  189MOL0     C25393   5.267   2.639  -0.242 -0.5222 -0.7885  0.1676
  189MOL0     C25394   5.278   2.777  -0.179  0.1891 -0.1430  0.4096
  189MOL0     C25395   5.146   2.841  -0.175 -0.0755  0.9351  0.0898
  189MOL0     C25396   5.152   2.987  -0.145  0.1022 -0.0633 -0.1851
  189MOL0     N25397   5.028   3.055  -0.127  0.0392  0.0838  1.0188
  189MOL0     C25398   4.941   3.035  -0.018 -0.6425 -0.9711 -0.5376
  189MOL0     C25399   4.826   3.105  -0.052  0.8049 -0.4020 -0.0808
  189MOL0     C25400   4.694   3.105   0.024  0.7370 -0.0544 -0.3357
  189MOL0     C25401   4.585   3.009  -0.042  0.0017  0.1599  0.0616
  189MOL0     C25402   4.477   2.984   0.059  0.1296  0.1294  0.2498
  189MOL0     C25403   4.409   3.104   0.111 -0.7792 -0.1446  0.6610
  189MOL0     O25404   4.320   3.177   0.018  0.1338  0.2568  0.0908
  189MOL0     C25405   4.186   3.150   0.023  0.6476  1.3959 -0.5687
  189MOL0     C25406   4.126   3.030   0.088  0.0173 -0.5416 -0.5981
  189MOL0     C25407   3.977   3.022   0.102 -0.0136  0.6239  0.1701
  189MOL0     C25408   3.934   2.895   0.172  0.2879 -0.6978  0.3815
  189MOL0     C25409   3.895   3.119   0.045  0.1301  0.1051  0.9967
  189MOL0     C25410   3.750   3.122   0.044  0.9930  0.6919 -0.5381
  189MOL0     O25411   3.693   3.207  -0.048  0.6648 -0.2521 -0.1746
  189MOL0     C25412   3.559   3.215  -0.041  0.7603 -0.1167  0.2991
  189MOL0     C25413   3.482   3.158  -0.143 -0.6145  0.1747 -0.6731
  189MOL0     C25414   3.338   3.166  -0.138 -0.1179  0.3301  0.6650
  189MOL0     C25415   3.277   3.238  -0.043  0.4687 -0.4388 -0.3038
  189MOL0     O25416   3.139   3.236  -0.054  0.8276  0.3799 -0.1808
  189MOL0     C25417   3.052   3.322   0.023  0.2410  0.7489  1.1473
  189MOL0     C25418   2.922   3.333  -0.047 -0.6862 -0.8007 -0.8196
  189MOL0     C25419   2.824   3.340   0.070  0.1905 -0.5945 -0.4720
  189MOL0     C25420   2.683   3.369   0.007 -0.9646  0.3032  0.8710
  189MOL0     C25421   2.558   3.401   0.110 -0.4086 -0.1331 -0.0312
  189MOL0     C25422   2.428   3.399   0.032  0.7939  0.3058 -0.0857
  189MOL0     C25423   2.292   3.419   0.101  0.4655  0.0813 -0.1630
  189MOL0     C25424   2.248   3.306   0.201 -0.1950 -0.0948  0.1865
  189MOL0    Cl25425   2.075   3.328   0.257 -0.2089  0.5305 -0.1064
  189MOL0     C25426   3.351   3.300   0.056 -0.4431  0.4725 -0.3271
  189MOL0     C25427   3.492   3.286   0.061 -0.7841  0.2010  0.4036
  189MOL0     O25428   3.693   3.052   0.124  0.2016  0.0469 -0.0924
  189MOL0     C25429   3.958   3.223  -0.024  0.0870  0.6331 -0.1425
  189MOL0     C25430   4.096   3.234  -0.030  0.0604  0.0066  0.2204
  189MOL0     N25431   4.849   3.169  -0.171 -0.2912  0.2526 -0.2770
  189MOL0     N25432   4.959   3.129  -0.219  0.0903  0.1065 -0.1765
  189MOL0     C25433   5.668   2.173   0.072  0.5952  0.0346 -0.0314
  189MOL0     C25434   5.797   2.166   0.124  0.4308 -0.1281  0.5854
  189MOL0     C25435   6.181   2.151   0.373 -0.4601  0.5849  0.2077
  189MOL0     C25436   6.206   2.287   0.408  0.0257  0.0260 -0.7536
  189MOL0     C25437   6.323   2.324   0.471 -0.4619  0.6331  0.2531
  189MOL0     C25438   6.415   2.218   0.500 -0.7587 -0.3504 -0.7013
  189MOL0     O25439   6.531   2.258   0.564  0.4985 -0.0678  0.1788
  189MOL0     C25440   6.629   2.156   0.594 -0.2411  0.0118  0.1988
  189MOL0     C25441   6.742   2.190   0.687 -0.2937 -0.5567 -0.0540
  189MOL0     C25442   6.694   2.231   0.820  0.1362 -1.1066  0.1107
  189MOL0     C25443   6.770   2.189   0.946  0.1323  0.0881  0.0157
  189MOL0     C25444   6.910   2.229   0.948 -0.2407  0.3515  0.3600
  189MOL0     C25445   7.033   2.257   0.951 -0.1330  0.5379  0.1204
  189MOL0     C25446   6.387   2.086   0.463  0.0265  0.2951  0.5015
  189MOL0     C25447   6.276   2.050   0.394  0.6063 -0.5639 -0.9240
  189MOL0     H25448   5.758   2.246   0.451  2.1269  0.9769 -0.9108
  189MOL0     H25449   5.523   2.282   0.373  1.1104 -4.6543  3.1235
  189MOL0     H25450   5.326   2.331   0.275 -1.1269  3.4773  0.0379
  189MOL0     H25451   5.444   2.444   0.225  0.1111  0.5276 -3.3915
  189MOL0     H25452   5.200   2.360   0.061  0.2338 -0.1669 -0.6546
  189MOL0     H25453   5.211   2.505   0.149  0.1369 -1.1961  0.8816
  189MOL0     H25454   5.380   2.588   0.012  2.0933 -2.6322  1.9338
  189MOL0     H25455   5.405   2.427  -0.065  1.7728 -0.7739  1.7380
  189MOL0     H25456   5.201   2.444  -0.196 -0.1523  1.1825 -1.2733
  189MOL0     H25457   5.138   2.566  -0.085 -1.7775 -0.7859 -1.6250
  189MOL0     H25458   5.366   2.623  -0.285 -0.5110 -0.5256  0.0935
  189MOL0     H25459   5.201   2.642  -0.329 -2.4790  0.8555  1.6272
  189MOL0     H25460   5.323   2.771  -0.080 -0.4713 -0.1624  0.7153
  189MOL0     H25461   5.337   2.840  -0.247 -2.2319 -0.6483 -2.3609
  189MOL0     H25462   5.098   2.825  -0.272  2.8406 -2.9342 -1.0003
  189MOL0     H25463   5.080   2.786  -0.108 -0.1594  1.3919  0.3874
  189MOL0     H25464   5.219   3.032  -0.219  0.0473  0.6902  0.2186
  189MOL0     H25465   5.202   3.002  -0.049  0.0012  1.8706 -0.4000
  189MOL0     H25466   4.958   2.970   0.066 -0.7958 -2.0478 -1.3213
  189MOL0     H25467   4.709   3.070   0.126  1.5895  0.1332 -0.3843
  189MOL0     H25468   4.652   3.206   0.016  0.2485 -0.3074 -1.1032
  189MOL0     H25469   4.637   2.917  -0.073 -2.3221 -0.3876 -2.6352
  189MOL0     H25470   4.542   3.042  -0.137 -1.8784 -1.6153  0.2161
  189MOL0     H25471   4.524   2.939   0.147 -0.6216 -1.7775 -0.2844
  189MOL0     H25472   4.406   2.915   0.012  0.3287  1.3204 -1.9346
  189MOL0     H25473   4.484   3.178   0.139 -1.0974  0.8451 -0.9961
  189MOL0     H25474   4.355   3.077   0.202 -2.6939 -1.3569 -0.7582
  189MOL0     H25475   4.198   2.952   0.112  1.5731  0.8594 -0.5374
  189MOL0     H25476   4.012   2.820   0.179 -1.2332 -2.3336  0.4957
  189MOL0     H25477   3.902   2.919   0.274 -1.3974 -0.7906 -0.0978
  189MOL0     H25478   3.850   2.842   0.126  0.2539  0.5176 -1.0631
  189MOL0     H25479   3.532   3.105  -0.223 -4.5711 -0.0913 -3.2456
  189MOL0     H25480   3.274   3.120  -0.213  1.4290  0.9960 -1.1320
  189MOL0     H25481   3.039   3.274   0.121  0.0422 -2.0125 -0.1571
  189MOL0     H25482   3.089   3.425   0.027  1.0464  0.7539 -2.7004
  189MOL0     H25483   2.920   3.421  -0.113 -1.1883 -0.4121 -0.2900
  189MOL0     H25484   2.911   3.242  -0.106  2.5181 -3.5038  2.3125
  189MOL0     H25485   2.846   3.422   0.140  3.8046 -1.2708 -0.6311
  189MOL0     H25486   2.813   3.242   0.117  0.7664 -0.1467  0.6357
  189MOL0     H25487   2.695   3.461  -0.052  0.1325 -0.5997 -0.3687
  189MOL0     H25488   2.668   3.295  -0.072  1.6255 -1.2378  1.7007
  189MOL0     H25489   2.575   3.494   0.166 -0.8149 -0.0524 -0.0361
  189MOL0     H25490   2.548   3.319   0.181 -0.3020 -0.6356 -0.5942
  189MOL0     H25491   2.431   3.476  -0.047 -0.5248 -2.1664 -2.7505
  189MOL0     H25492   2.420   3.312  -0.034  0.5407 -0.1629  0.5545
  189MOL0     H25493   2.220   3.412   0.019 -2.1454 -4.4143  2.1500
  189MOL0     H25494   2.286   3.512   0.157  2.0812 -0.4394  0.9664
  189MOL0     H25495   2.323   3.307   0.280  0.7827 -0.9576 -0.7076
  189MOL0     H25496   2.266   3.212   0.148  2.2156 -0.2965  1.2345
  189MOL0     H25497   3.312   3.350   0.144 -1.3533  2.1022 -1.5859
  189MOL0     H25498   3.554   3.324   0.142 -1.8514 -1.2978  2.0065
  189MOL0     H25499   3.901   3.291  -0.088  0.9877  1.1470 -0.4108
  189MOL0     H25500   4.144   3.309  -0.093  1.7412 -1.6945 -0.6087
  189MOL0     H25501   5.646   2.155  -0.033  1.9743  2.1980 -0.7453
  189MOL0     H25502   5.875   2.132   0.057  2.1282 -1.5350  3.1337
  189MOL0     H25503   6.136   2.366   0.382 -3.0042 -0.3516  4.6331
  189MOL0     H25504   6.341   2.429   0.492 -1.7311  1.1740 -1.1905
  189MOL0     H25505   6.579   2.067   0.632  2.8987 -2.6253 -1.3918
  189MOL0     H25506   6.674   2.112   0.504 -0.7068 -0.6972  0.3101
  189MOL0     H25507   6.812   2.257   0.637  1.7244 -2.5182  0.0182
  189MOL0     H25508   6.803   2.099   0.693 -0.5263 -0.8286 -1.4960
  189MOL0     H25509   6.592   2.195   0.836  0.1758 -0.8917  0.9284
  189MOL0     H25510   6.689   2.340   0.818  2.0701 -1.0082 -1.1849
  189MOL0     H25511   6.760   2.080   0.952 -1.9807  0.2471  0.1647
  189MOL0     H25512   6.725   2.232   1.036 -0.2884  0.6813 -0.4695
  189MOL0     H25513   7.136   2.288   0.943  0.4611 -1.4205 -0.3095
  189MOL0     H25514   6.449   1.997   0.468 -0.6176 -0.1271  1.1832
  189MOL0     H25515   6.262   1.944   0.375  4.2029 -0.8780 -2.5887
  190MOL0     O25516   8.095   2.128   5.221  1.0547 -0.3307  0.8565
  190MOL0     C25517   8.109   2.253   5.210 -0.3288  0.2506  1.1779
  190MOL0     O25518   8.011   2.346   5.242  0.5833 -0.5959  0.3859
  190MOL0     C25519   7.902   2.310   5.320 -0.2442 -1.2937  1.0441
  190MOL0     C25520   7.898   2.333   5.459 -0.1729 -0.4750 -0.6542
  190MOL0     C25521   7.780   2.312   5.533 -0.9093 -0.0963 -0.0653
  190MOL0     C25522   7.668   2.254   5.460 -0.7883 -0.7913 -0.7334
  190MOL0     O25523   7.543   2.241   5.517  0.3673 -0.5264 -0.0466
  190MOL0     C25524   7.525   2.223   5.661  0.0051 -0.5086 -0.0434
  190MOL0     C25525   7.383   2.204   5.707  0.8080 -0.1298  0.8916
  190MOL0     C25526   7.284   2.316   5.684  0.4157  0.2544 -0.6113
  190MOL0     C25527   7.151   2.266   5.724  0.7091  0.7823  0.3152
  190MOL0     C25528   7.046   2.376   5.689 -0.9477 -0.6472 -0.2307
  190MOL0     C25529   6.917   2.353   5.777 -0.1388 -1.2282  0.1969
  190MOL0     C25530   6.816   2.466   5.749  0.2018  0.7590 -0.1379
  190MOL0     C25531   6.692   2.463   5.835 -0.0286 -0.6410 -0.5746
  190MOL0     N25532   6.608   2.343   5.816  0.1382 -0.4856  0.3551
  190MOL0     C25533   6.554   2.302   5.697  0.4436  0.5726 -0.1227
  190MOL0     C25534   6.517   2.179   5.711  0.9459  0.3551 -0.6003
  190MOL0     C25535   6.457   2.097   5.598  1.3779  0.5795  1.0571
  190MOL0     C25536   6.320   2.147   5.548 -0.2407 -0.1614 -0.0415
  190MOL0     C25537   6.220   2.150   5.656 -0.0775 -0.0951 -0.4115
  190MOL0     C25538   6.084   2.181   5.601  0.1056 -0.5429 -0.0482
  190MOL0     O25539   6.044   2.085   5.502  0.2276 -0.3380 -0.1263
  190MOL0     C25540   5.912   2.110   5.456 -0.3016  0.0061  0.1120
  190MOL0     C25541   5.811   2.080   5.539  0.7113  0.1165  0.5527
  190MOL0     C25542   5.681   2.106   5.500 -0.3935  0.1437  0.8072
  190MOL0     C25543   5.575   2.069   5.596  0.5034  0.3445  0.3825
  190MOL0     C25544   5.650   2.150   5.365  0.0589  0.0125 -1.1730
  190MOL0     C25545   5.515   2.160   5.309  0.2489  0.0275  0.1706
  190MOL0     O25546   5.498   2.175   5.177 -0.0222  0.5738  0.1854
  190MOL0     C25547   5.365   2.182   5.125 -0.3974  0.3479 -0.1268
  190MOL0     C25548   5.271   2.076   5.131  0.2799  0.2767  0.1427
  190MOL0     C25549   5.144   2.100   5.082 -0.6234 -0.5695  0.4846
  190MOL0     C25550   5.107   2.224   5.046 -0.0126 -0.6807  0.2350
  190MOL0     O25551   4.974   2.251   5.011  0.0956 -0.0355 -0.3089
  190MOL0     C25552   4.930   2.372   4.952  0.1660  0.1057 -0.1526
  190MOL0     C25553   4.802   2.351   4.866 -0.1231  0.3656  0.5262
  190MOL0     C25554   4.694   2.266   4.932 -0.2801  0.0573  0.1362
  190MOL0     C25555   4.576   2.350   4.987  0.2943  0.2728  0.2178
  190MOL0     C25556   4.482   2.258   5.071  0.2806 -0.5491 -1.1137
  190MOL0     C25557   4.366   2.346   5.113 -0.2377 -0.3274  0.0107
  190MOL0     C25558   4.253   2.268   5.177  0.1992 -0.0947  0.0703
  190MOL0     C25559   4.120   2.337   5.143  0.2812  0.6912  0.1622
  190MOL0    Cl25560   3.982   2.235   5.174 -0.0750  0.2184 -0.0709
  190MOL0     C25561   5.195   2.325   5.044 -0.5795 -0.5743  0.0134
  190MOL0     C25562   5.324   2.304   5.076  0.2365 -0.7256  0.0986
  190MOL0     O25563   5.426   2.172   5.395 -0.2781 -0.3647 -0.3294
  190MOL0     C25564   5.759   2.188   5.288 -0.2471 -0.3282 -0.3636
  190MOL0     C25565   5.893   2.173   5.333  0.1129  0.3095 -0.1232
  190MOL0     N25566   6.546   2.133   5.836 -0.7739 -0.4386  0.0267
  190MOL0     N25567   6.611   2.235   5.892 -0.2661 -0.7685 -0.1519
  190MOL0     C25568   7.684   2.228   5.325  0.1177 -0.2772 -0.3755
  190MOL0     C25569   7.795   2.261   5.252  0.3664 -0.5001  0.0468
  190MOL0     C25570   8.237   2.305   5.143  0.6568 -0.2159 -0.3466
  190MOL0     C25571   8.238   2.429   5.075  0.4817 -0.1959 -0.0138
  190MOL0     C25572   8.348   2.474   5.004 -0.2785 -0.1612  0.0349
  190MOL0     C25573   8.459   2.393   5.002 -0.0168 -0.7199  0.7504
  190MOL0     O25574   8.570   2.411   4.928  0.1164 -0.0839 -0.1887
  190MOL0     C25575   8.590   2.535   4.868  0.1283 -0.3950 -0.2127
  190MOL0     C25576   8.740   2.537   4.817 -0.0956 -0.1988  0.3678
  190MOL0     C25577   8.853   2.528   4.926 -0.9663  1.1256 -1.2122
  190MOL0     C25578   9.010   2.538   4.873 -0.1361  0.6874 -0.0705
  190MOL0     C25579   9.092   2.558   4.998  0.1437  0.6587  0.2493
  190MOL0     C25580   9.168   2.570   5.088 -1.0575 -0.7542  0.4161
  190MOL0     C25581   8.462   2.268   5.078 -0.7953 -0.2751  1.3686
  190MOL0     C25582   8.348   2.222   5.146  0.3743  0.5849  0.2750
  190MOL0     H25583   7.986   2.371   5.509  1.5492 -1.3451 -2.8891
  190MOL0     H25584   7.765   2.336   5.638 -0.9913  2.3420 -0.5802
  190MOL0     H25585   7.569   2.128   5.694 -1.6137 -0.9534  0.9606
  190MOL0     H25586   7.550   2.307   5.726 -1.0554 -0.0913 -0.1633
  190MOL0     H25587   7.351   2.110   5.660  2.6193 -1.5168  2.3076
  190MOL0     H25588   7.378   2.190   5.815  1.0229  1.4475  1.1185
  190MOL0     H25589   7.317   2.409   5.729  1.3735  0.3490 -1.4780
  190MOL0     H25590   7.282   2.338   5.577  1.2982 -3.2954 -1.4923
  190MOL0     H25591   7.126   2.169   5.679  0.0948  1.0036  0.1800
  190MOL0     H25592   7.160   2.244   5.831 -0.1537 -2.1114 -0.1224
  190MOL0     H25593   7.097   2.469   5.714  2.9287 -2.2263 -1.5435
  190MOL0     H25594   7.027   2.374   5.581  1.6682  0.0513 -0.7745
  190MOL0     H25595   6.875   2.253   5.760 -1.8639 -1.3799  4.3189
  190MOL0     H25596   6.938   2.345   5.884  0.9733 -2.7807 -0.0868
  190MOL0     H25597   6.873   2.555   5.776 -1.3221  1.7063  0.0610
  190MOL0     H25598   6.791   2.475   5.643  1.1321  3.4488 -0.2147
  190MOL0     H25599   6.635   2.555   5.822  0.4263 -0.0896  1.1211
  190MOL0     H25600   6.721   2.455   5.940 -2.4719 -0.7040  0.1602
  190MOL0     H25601   6.540   2.366   5.611 -1.4054 -0.9661 -1.0359
  190MOL0     H25602   6.527   2.084   5.514 -1.8859  0.4667 -1.8787
  190MOL0     H25603   6.442   1.996   5.638 -1.2861  1.2907  2.0478
  190MOL0     H25604   6.290   2.087   5.461  0.7303 -2.8610  1.3898
  190MOL0     H25605   6.324   2.252   5.515  0.1135 -0.7551 -1.9971
  190MOL0     H25606   6.261   2.221   5.728  0.1455 -0.8790  0.2578
  190MOL0     H25607   6.207   2.055   5.710 -3.1056 -0.3331 -1.3931
  190MOL0     H25608   6.095   2.279   5.554  1.2133  0.2300  1.7087
  190MOL0     H25609   6.015   2.191   5.685  2.0203  2.0589  1.3572
  190MOL0     H25610   5.837   2.017   5.623 -2.0625 -1.8452  0.0645
  190MOL0     H25611   5.507   1.991   5.559  3.0522 -3.4456  3.0184
  190MOL0     H25612   5.617   2.030   5.689 -0.0433  2.7959  1.7412
  190MOL0     H25613   5.514   2.158   5.616 -1.6540 -0.7012 -1.1149
  190MOL0     H25614   5.308   1.982   5.171  0.4617  0.9960  1.7560
  190MOL0     H25615   5.077   2.015   5.072  0.7563 -1.6931  0.5813
  190MOL0     H25616   4.907   2.439   5.035 -0.5222  0.1865 -0.3977
  190MOL0     H25617   5.003   2.420   4.887  1.2438 -2.9883 -1.4332
  190MOL0     H25618   4.759   2.449   4.844 -1.2326  0.3266  2.3254
  190MOL0     H25619   4.845   2.305   4.777  0.9469  0.5888  0.9092
  190MOL0     H25620   4.744   2.197   5.000  1.2666 -0.6871 -1.6492
  190MOL0     H25621   4.653   2.199   4.856  0.3309  3.3744 -3.4871
  190MOL0     H25622   4.614   2.433   5.047 -3.1478 -1.7084  5.8278
  190MOL0     H25623   4.518   2.391   4.903  1.2531  1.2772  0.0134
  190MOL0     H25624   4.531   2.219   5.161 -0.0031 -0.2745 -0.8354
  190MOL0     H25625   4.449   2.169   5.017 -0.5077 -1.3918  0.6463
  190MOL0     H25626   4.408   2.411   5.190 -1.7819 -3.1522  3.5423
  190MOL0     H25627   4.324   2.406   5.031 -1.2954 -2.6943 -1.2725
  190MOL0     H25628   4.273   2.247   5.282  0.8330 -2.1825 -0.4198
  190MOL0     H25629   4.246   2.179   5.114  1.2475  0.1797 -0.4559
  190MOL0     H25630   4.115   2.359   5.036 -1.1067  0.8735  0.2456
  190MOL0     H25631   4.124   2.426   5.206  2.5114  0.8935 -0.1649
  190MOL0     H25632   5.171   2.421   5.001 -1.0510  0.3094  2.1481
  190MOL0     H25633   5.399   2.383   5.075 -2.0507  1.5928  1.3160
  190MOL0     H25634   5.756   2.228   5.187 -0.6205 -1.3285 -0.7560
  190MOL0     H25635   5.977   2.210   5.276  0.8273 -3.1187 -1.5625
  190MOL0     H25636   7.597   2.184   5.276 -0.7561  0.6228  0.3386
  190MOL0     H25637   7.809   2.246   5.145  1.9248 -0.9650  0.2870
  190MOL0     H25638   8.150   2.492   5.076 -0.2773 -1.1643 -1.4737
  190MOL0     H25639   8.339   2.568   4.950  2.3600  0.6371  0.8019
  190MOL0     H25640   8.515   2.563   4.794 -0.3144  1.5252  0.9033
  190MOL0     H25641   8.582   2.610   4.946  0.9924 -2.2384  1.7586
  190MOL0     H25642   8.762   2.628   4.760 -1.8634  0.5290  0.7822
  190MOL0     H25643   8.749   2.453   4.747  0.3845 -0.3582  0.6182
  190MOL0     H25644   8.841   2.433   4.979  0.7532  0.9463 -1.0862
  190MOL0     H25645   8.830   2.608   4.997 -1.8792 -0.0630 -0.1103
  190MOL0     H25646   9.030   2.613   4.796  1.1130  0.8364  0.3726
  190MOL0     H25647   9.039   2.441   4.831 -1.3648 -1.1076  2.8732
  190MOL0     H25648   9.240   2.570   5.167  0.4847 -1.0669 -0.9441
  190MOL0     H25649   8.551   2.206   5.071 -2.0596 -2.2609  2.0997
  190MOL0     H25650   8.367   2.125   5.190 -0.9477  0.5874  0.8943
  191MOL0     O25651   0.140  10.072   7.326  0.0441 -0.3703  0.6367
  191MOL0     C25652   0.181  10.081   7.441 -0.2691 -0.5403 -0.5201
  191MOL0     O25653   0.111  10.149   7.538 -0.4364  0.8644  0.2205
  191MOL0     C25654  -0.019  10.175   7.537 -0.0884  0.3016 -0.4983
  191MOL0     C25655  -0.113  10.102   7.469  0.8329 -0.8388  0.3772
  191MOL0     C25656  -0.250  10.123   7.488  0.1733  0.0051 -0.8440
  191MOL0     C25657  -0.290  10.228   7.581  0.6731  0.3413  0.4615
  191MOL0     O25658  -0.414  10.260   7.618  1.1402 -0.5296 -0.1901
  191MOL0     C25659  -0.497  10.152   7.670  0.1566  0.7165 -0.2943
  191MOL0     C25660  -0.574  10.212   7.781  0.5917  0.5534 -0.3091
  191MOL0     C25661  -0.678  10.114   7.848 -0.5195  0.0310  0.7553
  191MOL0     C25662  -0.735  10.177   7.975  0.5111 -0.1697 -0.1599
  191MOL0     C25663  -0.835  10.291   7.949  0.1565  0.7768 -0.0285
  191MOL0     C25664  -0.946  10.256   7.859 -0.0332  0.0884  1.2637
  191MOL0     C25665  -1.055  10.368   7.876  0.0627 -0.0149  0.4208
  191MOL0     C25666  -1.182  10.352   7.774 -0.1392  0.2518 -0.2346
  191MOL0     N25667  -1.247  10.217   7.774  1.1681 -0.6318 -0.0385
  191MOL0     C25668  -1.353  10.195   7.865 -0.1311  1.4620  0.5640
  191MOL0     C25669  -1.372  10.060   7.854 -0.4294 -0.5928  0.4833
  191MOL0     C25670  -1.454   9.972   7.931 -0.3795  0.4519 -0.5628
  191MOL0     C25671  -1.598   9.963   7.861  0.2651 -0.4896  0.3777
  191MOL0     C25672  -1.695   9.845   7.914 -0.1014  0.0324 -0.9644
  191MOL0     C25673  -1.719   9.852   8.065 -0.4080 -0.4605 -0.1464
  191MOL0     O25674  -1.815   9.755   8.105 -0.5897 -0.7400  0.9108
  191MOL0     C25675  -1.947   9.795   8.126 -0.0994  0.7125 -0.4660
  191MOL0     C25676  -2.030   9.704   8.213 -0.8034 -0.2809 -0.1602
  191MOL0     C25677  -2.165   9.733   8.228 -0.3810  0.0405  0.3251
  191MOL0     C25678  -2.243   9.627   8.304 -0.0200  0.2909  0.3665
  191MOL0     C25679  -2.230   9.853   8.175  0.1639  0.7732  0.0474
  191MOL0     C25680  -2.376   9.892   8.190 -0.5466 -0.0643  0.7504
  191MOL0     O25681  -2.421   9.977   8.092  0.2564  0.4716  0.5137
  191MOL0     C25682  -2.558  10.003   8.086 -0.9347  0.1666 -0.8933
  191MOL0     C25683  -2.602  10.121   8.032  0.1956 -0.0715 -0.2659
  191MOL0     C25684  -2.736  10.144   7.989  0.6108  0.1708 -0.3515
  191MOL0     C25685  -2.833  10.053   8.035 -0.3500  0.4170 -0.1221
  191MOL0     O25686  -2.956  10.097   8.006 -0.3589 -0.2121 -0.2406
  191MOL0     C25687  -3.056  10.005   7.985  0.6880  0.4924  0.9067
  191MOL0     C25688  -3.184  10.091   7.966 -0.1636  0.0178 -0.0518
  191MOL0     C25689  -3.304  10.004   7.918 -0.0500 -0.0918 -0.8137
  191MOL0     C25690  -3.433  10.077   7.937  0.4246 -1.6759  1.0112
  191MOL0     C25691  -3.557  10.003   7.887  0.1172  0.1137 -0.1453
  191MOL0     C25692  -3.685  10.082   7.919 -0.1170 -0.6741  0.3473
  191MOL0     C25693  -3.810  10.010   7.854 -0.2274 -0.8193 -0.0498
  191MOL0     C25694  -3.935  10.102   7.866 -1.0623  0.1069 -0.1386
  191MOL0    Cl25695  -4.071  10.019   7.789  0.1851 -0.2525  0.1522
  191MOL0     C25696  -2.794   9.937   8.097 -0.2600  0.5169 -0.8326
  191MOL0     C25697  -2.661   9.913   8.113  0.0789  0.4901 -0.5025
  191MOL0     O25698  -2.428   9.868   8.295  0.1066  0.3024 -0.6284
  191MOL0     C25699  -2.145   9.939   8.100 -0.7566 -0.9640 -0.2999
  191MOL0     C25700  -2.010   9.909   8.073 -0.6834 -0.5475 -0.8949
  191MOL0     N25701  -1.294  10.008   7.749  0.1137 -0.5608  0.1975
  191MOL0     N25702  -1.219  10.104   7.707  0.3386 -0.2647  0.1525
  191MOL0     C25703  -0.189  10.294   7.651 -0.0335  0.1657 -0.1201
  191MOL0     C25704  -0.063  10.269   7.623 -0.7269 -0.7536 -0.4096
  191MOL0     C25705   0.308  10.008   7.478  0.7349 -0.4279 -0.5626
  191MOL0     C25706   0.352  10.009   7.611  0.0386 -0.0732  0.1880
  191MOL0     C25707   0.470   9.943   7.644  0.4151  0.4589  0.2398
  191MOL0     C25708   0.553   9.876   7.555 -0.2773 -0.6281 -0.1135
  191MOL0     O25709   0.666   9.798   7.582  0.0098  0.0578 -0.9543
  191MOL0     C25710   0.691   9.753   7.719 -0.5973 -0.0367 -0.2855
  191MOL0     C25711   0.596   9.647   7.764 -0.0680 -0.7075 -0.1786
  191MOL0     C25712   0.625   9.506   7.697 -0.0077 -0.0798 -0.1802
  191MOL0     C25713   0.511   9.414   7.754 -0.2761 -0.9860  0.1994
  191MOL0     C25714   0.460   9.324   7.649 -0.8941  0.0804 -0.8756
  191MOL0     C25715   0.418   9.249   7.558  0.4358 -0.3415  0.0424
  191MOL0     C25716   0.513   9.883   7.418  0.2934  0.4720  0.2800
  191MOL0     C25717   0.392   9.947   7.381 -0.6270  0.0034 -0.2573
  191MOL0     H25718  -0.089  10.023   7.399  0.2589 -1.5036  0.9060
  191MOL0     H25719  -0.326  10.063   7.439 -1.6723  0.4713  1.2376
  191MOL0     H25720  -0.561  10.101   7.597  0.7483 -0.7498  0.1657
  191MOL0     H25721  -0.442  10.065   7.707 -3.4907 -2.1033 -0.9260
  191MOL0     H25722  -0.516  10.230   7.872 -1.5581  4.0937  0.5367
  191MOL0     H25723  -0.639  10.294   7.751 -0.2167 -0.2500 -0.8117
  191MOL0     H25724  -0.761  10.085   7.782  0.0589 -1.3427  0.6000
  191MOL0     H25725  -0.630  10.019   7.871  0.6078  0.1578 -0.9007
  191MOL0     H25726  -0.802  10.102   8.017  1.8058 -2.5383 -2.0626
  191MOL0     H25727  -0.653  10.203   8.043  0.7946 -1.6369  0.1093
  191MOL0     H25728  -0.877  10.320   8.046  3.7003  0.7650  1.6702
  191MOL0     H25729  -0.781  10.377   7.910  1.4502  0.0257  0.0463
  191MOL0     H25730  -0.920  10.268   7.754 -1.0273  1.9085  1.1843
  191MOL0     H25731  -0.989  10.156   7.873 -0.0146 -0.4751 -1.9536
  191MOL0     H25732  -1.099  10.377   7.975  1.3789  0.3347  1.0026
  191MOL0     H25733  -1.008  10.466   7.861  1.2686 -0.7064 -0.5632
  191MOL0     H25734  -1.145  10.362   7.672 -0.9030 -0.4910 -0.5920
  191MOL0     H25735  -1.255  10.433   7.774  0.7319  1.1742 -3.5357
  191MOL0     H25736  -1.397  10.264   7.937  0.7437  0.4654  2.1256
  191MOL0     H25737  -1.406   9.874   7.924 -3.5141 -1.2385 -0.0103
  191MOL0     H25738  -1.457  10.003   8.036  2.6264 -0.4612 -0.1187
  191MOL0     H25739  -1.574   9.960   7.755 -0.2184 -1.0315  0.2810
  191MOL0     H25740  -1.655  10.054   7.878 -0.5205 -0.8114 -0.4858
  191MOL0     H25741  -1.651   9.751   7.880 -0.5099 -0.0186 -1.3588
  191MOL0     H25742  -1.794   9.851   7.869  0.6774  0.1519 -2.7449
  191MOL0     H25743  -1.744   9.956   8.088  0.6014  0.0381 -1.2229
  191MOL0     H25744  -1.625   9.824   8.114 -0.9891  0.7249  1.7713
  191MOL0     H25745  -1.992   9.610   8.252  0.7740  0.6573  0.6579
  191MOL0     H25746  -2.263   9.659   8.406 -0.7291 -0.5452  0.5016
  191MOL0     H25747  -2.339   9.603   8.258  0.2059 -0.2453  0.1612
  191MOL0     H25748  -2.189   9.532   8.315  2.4333  1.7187  1.5840
  191MOL0     H25749  -2.534  10.201   8.002 -1.7212  1.5643 -0.4265
  191MOL0     H25750  -2.754  10.241   7.944  0.8603 -1.4030 -4.3003
  191MOL0     H25751  -3.034   9.944   7.897 -2.7189 -2.4168  1.8607
  191MOL0     H25752  -3.065   9.925   8.058  0.2877 -1.5334 -1.2410
  191MOL0     H25753  -3.201  10.151   8.056 -0.7372 -2.6321  1.7291
  191MOL0     H25754  -3.157  10.162   7.887  0.1246  1.7272  1.5252
  191MOL0     H25755  -3.303   9.914   7.981 -2.6243  0.6900  0.4948
  191MOL0     H25756  -3.294   9.981   7.812 -0.0934 -0.2719 -0.7797
  191MOL0     H25757  -3.450  10.098   8.043  0.0161 -0.5651  0.7418
  191MOL0     H25758  -3.420  10.174   7.887  1.5745 -2.3617 -0.0587
  191MOL0     H25759  -3.556   9.909   7.943  1.1171  0.2376  0.0708
  191MOL0     H25760  -3.547   9.975   7.782  4.1354 -0.2058  0.1584
  191MOL0     H25761  -3.700  10.085   8.027 -4.0172 -0.3119 -0.0620
  191MOL0     H25762  -3.676  10.186   7.888 -2.4325 -0.8048 -0.9449
  191MOL0     H25763  -3.825   9.911   7.899 -2.0692 -0.9139 -0.7892
  191MOL0     H25764  -3.782   9.991   7.749  0.7380 -0.8234  0.1951
  191MOL0     H25765  -3.916  10.199   7.818  2.7337 -1.1973 -1.6771
  191MOL0     H25766  -3.962  10.127   7.968 -3.5945 -0.8729 -0.5047
  191MOL0     H25767  -2.868   9.862   8.122  1.1542 -0.7552 -0.3627
  191MOL0     H25768  -2.639   9.817   8.160  0.1971  0.2573 -1.0325
  191MOL0     H25769  -2.185  10.034   8.064 -2.3339 -2.1725 -1.8567
  191MOL0     H25770  -1.951   9.981   8.016  0.3790  0.4484  1.3430
  191MOL0     H25771  -0.221  10.371   7.720  3.0263 -1.4160  3.4083
  191MOL0     H25772   0.007  10.336   7.672  1.7082 -3.1121 -0.4321
  191MOL0     H25773   0.288  10.068   7.675 -1.6814 -1.2362 -0.3791
  191MOL0     H25774   0.505   9.953   7.746  0.1957  2.4650  0.1643
  191MOL0     H25775   0.796   9.722   7.723 -1.4408 -3.4018 -1.1300
  191MOL0     H25776   0.681   9.839   7.785 -3.0495  0.6274 -1.4161
  191MOL0     H25777   0.496   9.677   7.730 -0.7365 -1.7515  0.7510
  191MOL0     H25778   0.592   9.642   7.873  0.4370  3.3235  0.1665
  191MOL0     H25779   0.722   9.470   7.730  0.1604  0.3668 -0.1809
  191MOL0     H25780   0.626   9.512   7.588 -0.6025  0.2196 -0.1746
  191MOL0     H25781   0.429   9.478   7.788  0.8733  0.9198 -0.4515
  191MOL0     H25782   0.551   9.373   7.847  2.1094  0.9077  0.1112
  191MOL0     H25783   0.380   9.186   7.480  0.6073 -1.6422  0.9784
  191MOL0     H25784   0.580   9.841   7.343 -0.7781  1.8197 -1.5327
  191MOL0     H25785   0.359   9.943   7.278 -0.9330 -2.4707 -0.1338
  192MOL0     O25786   1.890   3.304   3.596  0.1021  0.6626  0.1928
  192MOL0     C25787   1.934   3.297   3.478 -0.1173 -0.5722 -0.0411
  192MOL0     O25788   1.861   3.275   3.368 -0.0350 -0.1103  0.5215
  192MOL0     C25789   1.720   3.259   3.378 -0.1777 -0.1699 -1.2425
  192MOL0     C25790   1.647   3.184   3.481  0.1998 -0.0955 -0.0335
  192MOL0     C25791   1.508   3.186   3.500 -0.6598  0.5624  0.2386
  192MOL0     C25792   1.432   3.249   3.399 -0.3412  0.1562 -0.0207
  192MOL0     O25793   1.295   3.259   3.418 -0.4818  0.0881  0.8746
  192MOL0     C25794   1.241   3.388   3.394  1.1414 -0.2773 -0.4505
  192MOL0     C25795   1.088   3.366   3.383 -0.8897 -0.2289  0.5880
  192MOL0     C25796   1.008   3.497   3.353  0.2373 -0.2132 -0.1735
  192MOL0     C25797   1.051   3.625   3.431 -0.4794  0.0955 -0.1608
  192MOL0     C25798   0.978   3.754   3.393  0.0627  0.0743 -0.2018
  192MOL0     C25799   0.831   3.730   3.404  0.2138  0.0697 -0.1267
  192MOL0     C25800   0.747   3.855   3.378  0.7496 -0.6916 -0.1946
  192MOL0     C25801   0.598   3.815   3.373  0.7492 -0.9394 -0.7247
  192MOL0     N25802   0.546   3.792   3.240 -0.3595  0.2404  0.3607
  192MOL0     C25803   0.578   3.684   3.158 -0.6705 -0.9609  0.2394
  192MOL0     C25804   0.539   3.728   3.032 -0.5052  0.1632 -0.7428
  192MOL0     C25805   0.548   3.650   2.905  0.7736  0.8131 -0.2221
  192MOL0     C25806   0.413   3.580   2.881 -0.1558 -0.5614 -0.3296
  192MOL0     C25807   0.394   3.522   2.744 -0.5990 -0.5966  0.1893
  192MOL0     C25808   0.260   3.458   2.706 -0.1352  0.3201  0.4134
  192MOL0     O25809   0.241   3.327   2.761  0.5740  0.2741  0.2741
  192MOL0     C25810   0.125   3.254   2.734 -1.0840  0.0937  0.0708
  192MOL0     C25811   0.095   3.154   2.826  0.7884 -0.0847 -0.4934
  192MOL0     C25812  -0.011   3.063   2.810  0.1666 -0.8781  0.5521
  192MOL0     C25813  -0.042   2.969   2.919  0.5186  0.0570 -0.0832
  192MOL0     C25814  -0.092   3.076   2.688  0.1721  0.2036 -0.1221
  192MOL0     C25815  -0.215   2.993   2.645 -0.1069 -0.3462 -0.3367
  192MOL0     O25816  -0.258   2.906   2.734  0.1283  0.4966  0.1805
  192MOL0     C25817  -0.368   2.830   2.705 -0.4242 -0.2099 -0.3247
  192MOL0     C25818  -0.491   2.896   2.710  0.2539  0.6725 -0.1276
  192MOL0     C25819  -0.606   2.828   2.683  0.1360  0.7395 -0.1305
  192MOL0     C25820  -0.607   2.688   2.667 -1.1715 -0.3606  0.2630
  192MOL0     O25821  -0.723   2.614   2.651  0.5583 -0.0030 -0.3969
  192MOL0     C25822  -0.849   2.660   2.721 -0.0414 -0.6239 -0.0220
  192MOL0     C25823  -0.967   2.570   2.676 -0.2499  0.0999  0.3967
  192MOL0     C25824  -1.093   2.619   2.748  0.9030  0.2469 -0.0586
  192MOL0     C25825  -1.224   2.563   2.690 -0.0759  0.1954  0.3835
  192MOL0     C25826  -1.359   2.602   2.756 -0.0912 -0.6856  0.7055
  192MOL0     C25827  -1.475   2.550   2.674 -0.6899  0.3686  0.0701
  192MOL0     C25828  -1.605   2.578   2.751  0.8753 -0.6848 -0.4394
  192MOL0     C25829  -1.735   2.527   2.681 -0.1514 -0.3303 -0.5546
  192MOL0    Cl25830  -1.763   2.361   2.743 -0.1613  0.3261  0.1790
  192MOL0     C25831  -0.487   2.620   2.673 -0.7502  0.2784 -0.4032
  192MOL0     C25832  -0.365   2.691   2.683 -0.3590  0.1054 -0.4107
  192MOL0     O25833  -0.269   3.005   2.533  0.4603  0.4524  0.0696
  192MOL0     C25834  -0.058   3.179   2.597  0.7915 -0.6677  0.5832
  192MOL0     C25835   0.050   3.272   2.622  0.3423  0.2511  0.6347
  192MOL0     N25836   0.478   3.850   3.042 -0.6492 -0.1150  0.4018
  192MOL0     N25837   0.482   3.886   3.165 -0.6092  0.3121 -0.9244
  192MOL0     C25838   1.495   3.316   3.293 -0.2406  0.4196  0.1953
  192MOL0     C25839   1.638   3.327   3.283  0.0197 -0.3747  0.4230
  192MOL0     C25840   2.081   3.327   3.477  0.8747  0.4722 -0.1648
  192MOL0     C25841   2.148   3.300   3.359 -0.2922 -0.9560  1.5209
  192MOL0     C25842   2.290   3.325   3.347  0.2998 -0.0079  0.2514
  192MOL0     C25843   2.362   3.376   3.454 -0.7900 -0.0610 -0.3555
  192MOL0     O25844   2.493   3.390   3.441 -0.4699 -0.1758 -0.2688
  192MOL0     C25845   2.575   3.375   3.562  0.6164  0.1198 -0.3493
  192MOL0     C25846   2.626   3.516   3.607  0.1520 -0.2333  0.4972
  192MOL0     C25847   2.718   3.581   3.506  0.0741 -0.4989  0.5654
  192MOL0     C25848   2.635   3.696   3.442 -0.5845  0.6180  0.4044
  192MOL0     C25849   2.703   3.781   3.347  0.4099 -0.1858  0.6844
  192MOL0     C25850   2.756   3.857   3.263 -0.5881 -0.5029 -0.2168
  192MOL0     C25851   2.293   3.393   3.569 -0.3148  0.6002  0.2398
  192MOL0     C25852   2.152   3.368   3.586  0.8747 -0.0746  0.5122
  192MOL0     H25853   1.707   3.143   3.561  0.9157 -0.5766 -0.8010
  192MOL0     H25854   1.464   3.131   3.583  0.4222 -2.6493 -1.1477
  192MOL0     H25855   1.249   3.454   3.481  0.8111  1.0559 -1.3955
  192MOL0     H25856   1.274   3.438   3.302  0.2361  1.3656  0.0715
  192MOL0     H25857   1.063   3.303   3.297 -1.9384  1.1563 -0.1671
  192MOL0     H25858   1.050   3.320   3.475  3.4873  2.3290  4.0775
  192MOL0     H25859   1.009   3.514   3.245  0.2108  0.1843 -0.1127
  192MOL0     H25860   0.906   3.475   3.386  0.0413  1.2294  0.2533
  192MOL0     H25861   1.033   3.606   3.537 -0.8108 -0.8403 -0.3799
  192MOL0     H25862   1.157   3.650   3.422 -0.8730  2.0979  0.1910
  192MOL0     H25863   0.998   3.827   3.472 -0.8491 -1.4323  1.4837
  192MOL0     H25864   1.016   3.795   3.298  0.0183  1.8467  0.4998
  192MOL0     H25865   0.812   3.660   3.322  1.4235  0.2152 -0.5488
  192MOL0     H25866   0.797   3.672   3.490 -2.3349 -0.5035 -1.4073
  192MOL0     H25867   0.758   3.923   3.463 -1.7295  0.5065 -0.7506
  192MOL0     H25868   0.794   3.892   3.287  2.1778 -3.3016 -0.6287
  192MOL0     H25869   0.538   3.900   3.408  2.8556 -0.0831  1.0710
  192MOL0     H25870   0.572   3.730   3.437  2.6301 -1.1215 -0.1572
  192MOL0     H25871   0.619   3.586   3.182 -0.8478 -1.1294 -0.1248
  192MOL0     H25872   0.570   3.724   2.826 -0.1523  1.2735 -0.0572
  192MOL0     H25873   0.626   3.573   2.916  0.3767  0.6227  1.5169
  192MOL0     H25874   0.326   3.644   2.896 -0.8763 -1.7435  0.8094
  192MOL0     H25875   0.409   3.504   2.960  1.6463  0.6545  1.0020
  192MOL0     H25876   0.463   3.437   2.737 -2.9969 -2.4718 -3.4159
  192MOL0     H25877   0.424   3.596   2.670 -3.0308 -0.7848 -1.0722
  192MOL0     H25878   0.263   3.441   2.597  3.2702 -0.7803  0.5459
  192MOL0     H25879   0.178   3.526   2.731 -2.6013 -2.2397 -0.1410
  192MOL0     H25880   0.156   3.149   2.915  1.6464  0.0088 -1.0623
  192MOL0     H25881  -0.035   2.864   2.892 -0.4506 -0.1113  0.2777
  192MOL0     H25882   0.020   2.989   3.007  2.3691 -2.3529 -0.7521
  192MOL0     H25883  -0.146   2.982   2.950  0.7444 -0.2268  0.8172
  192MOL0     H25884  -0.503   3.003   2.727 -2.4261  0.2789  0.8240
  192MOL0     H25885  -0.699   2.884   2.683  0.8020  1.8986  1.1410
  192MOL0     H25886  -0.847   2.642   2.829  1.2532 -1.4968 -0.1630
  192MOL0     H25887  -0.876   2.763   2.697  2.3159  0.0421 -0.1241
  192MOL0     H25888  -0.979   2.554   2.569  0.7325 -1.2553  0.4653
  192MOL0     H25889  -0.946   2.475   2.726  0.0602 -0.7695 -1.3312
  192MOL0     H25890  -1.104   2.728   2.741  1.2315  0.4504  2.0301
  192MOL0     H25891  -1.089   2.594   2.854  0.1183  0.4135  0.0182
  192MOL0     H25892  -1.230   2.587   2.584  0.8730 -0.4458  0.1717
  192MOL0     H25893  -1.223   2.454   2.699 -0.4885  0.1132 -0.4609
  192MOL0     H25894  -1.369   2.711   2.749 -0.3060 -0.5639  2.4964
  192MOL0     H25895  -1.366   2.569   2.860  4.6526  1.5592  2.0171
  192MOL0     H25896  -1.468   2.591   2.574  1.4914 -1.1815 -0.4818
  192MOL0     H25897  -1.464   2.441   2.664  1.6688  0.3679  1.7603
  192MOL0     H25898  -1.615   2.686   2.767 -1.6030 -0.6948 -1.4615
  192MOL0     H25899  -1.593   2.527   2.847 -1.1897 -0.0462  0.2201
  192MOL0     H25900  -1.728   2.539   2.573  0.9839  0.1171 -0.4442
  192MOL0     H25901  -1.826   2.581   2.709 -0.9962 -2.4944  1.3197
  192MOL0     H25902  -0.478   2.513   2.661  3.0603  0.3890  0.3213
  192MOL0     H25903  -0.271   2.639   2.698  0.4642  1.2993 -1.3396
  192MOL0     H25904  -0.111   3.184   2.502  2.5426 -0.9564 -0.4408
  192MOL0     H25905   0.075   3.356   2.558  3.3094 -0.7992  0.2892
  192MOL0     H25906   1.443   3.386   3.229 -0.4800  1.4575  1.5106
  192MOL0     H25907   1.676   3.396   3.208 -1.4255 -1.3762 -1.3293
  192MOL0     H25908   2.101   3.270   3.266  1.9638 -0.7457  0.2407
  192MOL0     H25909   2.349   3.306   3.258  1.8975  1.1923  0.9937
  192MOL0     H25910   2.521   3.337   3.650  0.9816  0.4656  0.0279
  192MOL0     H25911   2.649   3.296   3.547  0.5684 -0.2952  1.3535
  192MOL0     H25912   2.676   3.507   3.704 -1.3040 -2.9279  1.1063
  192MOL0     H25913   2.536   3.577   3.613  0.0175 -0.2957 -0.5730
  192MOL0     H25914   2.750   3.508   3.431  0.1289 -0.8608  0.9364
  192MOL0     H25915   2.809   3.613   3.557  0.8031  0.2272 -1.1266
  192MOL0     H25916   2.591   3.761   3.518  0.0603  1.0707  0.3996
  192MOL0     H25917   2.558   3.635   3.393  0.5659 -0.7756  0.2654
  192MOL0     H25918   2.817   3.917   3.199  0.4618 -3.1980 -1.8752
  192MOL0     H25919   2.348   3.449   3.644 -3.3276  1.0857  2.2427
  192MOL0     H25920   2.105   3.370   3.684  1.2975 -2.9480  0.8827
  193MOL0     O25921   9.181   3.815   4.999  0.3304  0.2464  0.0298
  193MOL0     C25922   9.264   3.893   4.979 -1.1752 -0.4730  0.5008
  193MOL0     O25923   9.244   4.018   4.925 -0.0370 -0.4314 -0.0721
  193MOL0     C25924   9.129   4.091   4.946 -1.1625 -0.1676  0.4145
  193MOL0     C25925   9.085   4.102   5.082  0.0529 -0.1930  0.9688
  193MOL0     C25926   8.973   4.184   5.104 -0.0181  0.3608 -0.1257
  193MOL0     C25927   8.900   4.251   5.008  0.3673 -0.3795  0.4166
  193MOL0     O25928   8.789   4.317   5.051 -0.4252  0.3605 -0.1759
  193MOL0     C25929   8.693   4.376   4.978  0.6175 -0.1111 -0.3639
  193MOL0     C25930   8.611   4.452   5.092 -1.5204  0.0575  0.1897
  193MOL0     C25931   8.535   4.563   5.018  0.5736 -0.2917  0.6091
  193MOL0     C25932   8.442   4.633   5.126 -0.1052 -1.1941  0.6151
  193MOL0     C25933   8.334   4.539   5.177  0.3294 -0.4283 -0.6607
  193MOL0     C25934   8.213   4.622   5.235  0.8357 -0.1547 -0.4922
  193MOL0     C25935   8.088   4.542   5.268  0.2875  0.4878 -0.4604
  193MOL0     C25936   7.962   4.631   5.283  0.3096 -0.3709 -0.8395
  193MOL0     N25937   7.844   4.552   5.323  0.4226  0.3866 -0.3858
  193MOL0     C25938   7.771   4.461   5.242 -0.2678  0.7273 -0.5212
  193MOL0     C25939   7.672   4.415   5.324 -0.4035 -0.1443  0.0074
  193MOL0     C25940   7.558   4.324   5.296 -0.3507 -0.4589 -0.4811
  193MOL0     C25941   7.426   4.334   5.375 -0.0526 -0.1323  0.0205
  193MOL0     C25942   7.395   4.207   5.458 -0.8551 -0.1365  0.3343
  193MOL0     C25943   7.274   4.241   5.547  0.3046  0.3662  0.2097
  193MOL0     O25944   7.154   4.305   5.485 -0.0613  0.1477  0.5022
  193MOL0     C25945   7.065   4.226   5.418  0.2797  0.1236  0.7878
  193MOL0     C25946   7.083   4.091   5.381  0.6574  0.1884  0.0480
  193MOL0     C25947   7.001   4.018   5.291  0.6978 -0.7645  0.2789
  193MOL0     C25948   7.050   3.881   5.242 -0.0608 -0.3064 -0.6600
  193MOL0     C25949   6.875   4.072   5.255  0.1574  0.5381  0.1880
  193MOL0     C25950   6.770   4.009   5.176 -0.6614  0.0335  0.0738
  193MOL0     O25951   6.651   4.079   5.165 -0.8560  0.7894 -0.1461
  193MOL0     C25952   6.547   4.021   5.100  0.0742  0.3666 -0.1891
  193MOL0     C25953   6.498   3.897   5.140 -0.2248  0.3728  0.5414
  193MOL0     C25954   6.388   3.845   5.063  0.4530 -0.0053 -0.3424
  193MOL0     C25955   6.331   3.920   4.957  0.3178 -0.3766  1.2899
  193MOL0     O25956   6.239   3.863   4.871 -0.1493  0.3151  0.4943
  193MOL0     C25957   6.101   3.859   4.911 -0.5074  0.2553 -1.0649
  193MOL0     C25958   6.048   4.000   4.939 -0.1975  0.2547 -0.5370
  193MOL0     C25959   5.897   4.004   4.965  0.6949 -0.4004  0.1666
  193MOL0     C25960   5.846   4.145   4.934 -1.0502  0.0384 -0.4122
  193MOL0     C25961   5.693   4.161   4.977  0.1075  0.0893  0.3332
  193MOL0     C25962   5.605   4.064   4.893 -0.3139 -0.2322  0.3637
  193MOL0     C25963   5.453   4.070   4.901 -0.2267  0.3793 -1.2895
  193MOL0     C25964   5.390   4.168   4.802 -0.4801 -0.0234  0.0181
  193MOL0    Cl25965   5.238   4.215   4.868 -0.0911  0.1358 -0.0367
  193MOL0     C25966   6.378   4.047   4.932 -0.3100  0.4024  0.6584
  193MOL0     C25967   6.490   4.096   5.000 -0.2658 -0.1004  0.3109
  193MOL0     O25968   6.785   3.893   5.133  0.3011  0.1246 -0.0206
  193MOL0     C25969   6.852   4.206   5.299  0.4736  0.0844  0.3355
  193MOL0     C25970   6.950   4.284   5.370  0.3623  0.1616 -0.7034
  193MOL0     N25971   7.692   4.468   5.452 -0.7488  0.6610 -0.1104
  193MOL0     N25972   7.795   4.547   5.452  0.2600 -1.2070 -0.0377
  193MOL0     C25973   8.941   4.237   4.874  0.0409  0.6125  0.0928
  193MOL0     C25974   9.058   4.152   4.841  0.1147 -0.8622 -0.6272
  193MOL0     C25975   9.402   3.868   5.035 -0.0268 -0.5412  0.6037
  193MOL0     C25976   9.447   3.739   5.073  0.5953 -0.5809 -0.3632
  193MOL0     C25977   9.572   3.715   5.120 -0.2293  0.7477  0.3553
  193MOL0     C25978   9.662   3.818   5.122 -0.0542 -0.2098 -0.0517
  193MOL0     O25979   9.791   3.807   5.155 -0.2855  0.6227  0.0281
  193MOL0     C25980   9.846   3.673   5.169  0.6627 -0.0216  0.5090
  193MOL0     C25981   9.870   3.601   5.030  0.4146  0.7118 -0.5164
  193MOL0     C25982  10.008   3.525   5.025  0.5760  0.0005 -0.6003
  193MOL0     C25983  10.128   3.622   5.020  0.1491 -0.7054 -0.1788
  193MOL0     C25984  10.256   3.570   4.981 -1.3522 -1.2521 -0.4128
  193MOL0     C25985  10.367   3.540   4.936  0.6216  1.1027 -0.7623
  193MOL0     C25986   9.623   3.949   5.093 -0.1076 -0.0462 -0.1403
  193MOL0     C25987   9.493   3.976   5.053 -0.6139  0.3998  0.4280
  193MOL0     H25988   9.149   4.057   5.157  0.6783 -3.9688 -1.5535
  193MOL0     H25989   8.939   4.196   5.206 -1.0665 -0.7617 -0.3219
  193MOL0     H25990   8.746   4.449   4.917  1.9129 -0.0734  0.7697
  193MOL0     H25991   8.626   4.308   4.924 -0.6420  2.2103 -1.9118
  193MOL0     H25992   8.539   4.387   5.144 -2.4884  2.4723  2.1145
  193MOL0     H25993   8.673   4.493   5.173 -0.1812 -1.1570 -0.1827
  193MOL0     H25994   8.609   4.635   4.980 -0.4825  0.2766 -0.4312
  193MOL0     H25995   8.481   4.509   4.940  0.2482 -2.4623  2.2290
  193MOL0     H25996   8.508   4.662   5.208  1.0261 -3.0233  0.3895
  193MOL0     H25997   8.389   4.713   5.073 -2.7475 -3.3681 -0.2735
  193MOL0     H25998   8.306   4.482   5.088  1.8472 -1.3150 -0.5967
  193MOL0     H25999   8.367   4.476   5.260 -2.0087  3.6371  3.8454
  193MOL0     H26000   8.245   4.671   5.328 -0.6747 -0.1646  0.0679
  193MOL0     H26001   8.175   4.704   5.173 -5.5141  0.0509  2.8158
  193MOL0     H26002   8.087   4.468   5.188  2.6409 -1.5805  1.2637
  193MOL0     H26003   8.104   4.473   5.351  2.8851  0.9310 -0.5238
  193MOL0     H26004   7.937   4.692   5.195 -2.5220  0.7716  0.6004
  193MOL0     H26005   7.967   4.703   5.365 -0.4580  0.6952 -1.6883
  193MOL0     H26006   7.775   4.448   5.135 -0.4853  1.3194 -0.6026
  193MOL0     H26007   7.536   4.344   5.190 -0.6991  1.7788 -0.0348
  193MOL0     H26008   7.594   4.221   5.292  1.2827 -0.0867  2.4162
  193MOL0     H26009   7.351   4.338   5.296  0.7760 -0.7887 -0.8152
  193MOL0     H26010   7.415   4.422   5.439 -2.1550 -1.0353  1.0164
  193MOL0     H26011   7.488   4.192   5.513 -0.1221 -2.1323 -1.3075
  193MOL0     H26012   7.383   4.122   5.390  0.2685  0.3273 -0.4715
  193MOL0     H26013   7.306   4.324   5.611 -0.5119  1.1313 -0.3488
  193MOL0     H26014   7.244   4.162   5.616  1.2198  0.6769  0.9864
  193MOL0     H26015   7.168   4.041   5.426  0.4330  0.8215  1.2114
  193MOL0     H26016   7.156   3.867   5.265  0.4808  1.0217 -2.1034
  193MOL0     H26017   6.987   3.803   5.286 -0.0569  0.8917  1.6006
  193MOL0     H26018   7.040   3.885   5.133  1.0421  3.2925 -0.7575
  193MOL0     H26019   6.551   3.849   5.222 -0.6465  0.8672  1.1152
  193MOL0     H26020   6.350   3.745   5.081  2.0706 -0.2938  1.8543
  193MOL0     H26021   6.051   3.821   4.821  0.7647 -1.7366 -0.9796
  193MOL0     H26022   6.078   3.801   5.001  3.6944  0.3828  0.3006
  193MOL0     H26023   6.101   4.037   5.028  1.7596 -0.6398 -1.2532
  193MOL0     H26024   6.070   4.067   4.856  1.5305  1.2916  0.6774
  193MOL0     H26025   5.880   3.973   5.068 -2.3859  0.4287 -0.0089
  193MOL0     H26026   5.851   3.934   4.895 -0.4680 -0.0563  0.5625
  193MOL0     H26027   5.911   4.212   4.991 -1.8531  1.0475 -0.6582
  193MOL0     H26028   5.858   4.179   4.830  0.5095  0.4829 -0.1149
  193MOL0     H26029   5.663   4.262   4.951  4.0518  0.9807 -1.6299
  193MOL0     H26030   5.680   4.135   5.083 -1.1725 -1.9343 -0.2647
  193MOL0     H26031   5.635   4.099   4.794 -0.8567  4.1852  1.5483
  193MOL0     H26032   5.637   3.960   4.905  1.7972 -0.2105 -3.3046
  193MOL0     H26033   5.432   4.110   5.001  3.9551 -1.4747  0.5613
  193MOL0     H26034   5.408   3.972   4.884  0.5283 -0.5158  1.2950
  193MOL0     H26035   5.388   4.127   4.700 -0.4889 -1.4726  0.5819
  193MOL0     H26036   5.444   4.263   4.798 -3.3255  1.8150  1.5872
  193MOL0     H26037   6.334   4.097   4.846 -0.4043 -0.8658 -0.0528
  193MOL0     H26038   6.541   4.188   4.973 -0.3224  0.0294  0.6474
  193MOL0     H26039   6.768   4.260   5.256  1.3308  2.8715  1.8983
  193MOL0     H26040   6.927   4.390   5.379 -1.6392 -0.0160 -2.8407
  193MOL0     H26041   8.884   4.284   4.795  0.9532 -0.2272 -1.1114
  193MOL0     H26042   9.086   4.137   4.737 -1.6349 -2.2541 -0.9316
  193MOL0     H26043   9.370   3.664   5.080  1.5173 -1.5414 -0.2200
  193MOL0     H26044   9.593   3.613   5.152  1.2688  0.9289  0.0473
  193MOL0     H26045   9.935   3.675   5.232  1.2588  0.0157 -0.3202
  193MOL0     H26046   9.776   3.608   5.223  1.2555  0.3314  1.7367
  193MOL0     H26047   9.848   3.673   4.950 -3.1392 -0.0558 -0.4022
  193MOL0     H26048   9.793   3.524   5.017  0.0103  0.6459  1.8603
  193MOL0     H26049  10.021   3.458   4.940 -1.6366  1.0548 -1.8558
  193MOL0     H26050  10.017   3.465   5.116 -1.2335  1.4496  0.6373
  193MOL0     H26051  10.151   3.660   5.120  2.5595  0.2583 -1.0218
  193MOL0     H26052  10.093   3.706   4.958 -0.1914  0.1996  1.1773
  193MOL0     H26053  10.454   3.498   4.891 -0.5863 -1.7150 -0.6660
  193MOL0     H26054   9.699   4.025   5.102  1.5233 -1.7838  1.6631
  193MOL0     H26055   9.468   4.078   5.025 -2.3308  0.1581  0.9630
  194MOL0     O26056   9.048   3.527   0.736 -0.3290  0.1649 -0.3772
  194MOL0     C26057   9.044   3.449   0.828  0.6809  0.7955  0.2237
  194MOL0     O26058   8.935   3.422   0.912  0.6792 -0.1596 -0.2205
  194MOL0     C26059   8.820   3.500   0.910 -0.0751  0.3940 -0.2338
  194MOL0     C26060   8.815   3.641   0.883  0.7655  0.0764  0.2266
  194MOL0     C26061   8.691   3.710   0.869 -0.3417  0.6139  0.1280
  194MOL0     C26062   8.572   3.645   0.885 -0.7669  0.1730  0.2070
  194MOL0     O26063   8.458   3.697   0.831  0.2895 -0.2682  0.4701
  194MOL0     C26064   8.333   3.649   0.871 -0.2869 -0.7730  0.0438
  194MOL0     C26065   8.226   3.695   0.773 -0.7968  0.1395  0.6269
  194MOL0     C26066   8.081   3.691   0.834  0.5605 -0.4870  0.1846
  194MOL0     C26067   7.989   3.741   0.722  0.4949 -0.5468  0.1032
  194MOL0     C26068   7.845   3.710   0.752 -0.4234 -1.1314  0.0901
  194MOL0     C26069   7.746   3.763   0.646  0.1678  0.1019 -0.1703
  194MOL0     C26070   7.769   3.704   0.505 -0.3089  0.5235 -0.7853
  194MOL0     C26071   7.661   3.782   0.409  0.7131  0.1940 -0.1890
  194MOL0     N26072   7.517   3.748   0.441 -0.3491 -0.2842 -0.1370
  194MOL0     C26073   7.446   3.632   0.453 -0.4183  0.0737  0.0756
  194MOL0     C26074   7.317   3.662   0.490  0.6148  0.0785  0.6505
  194MOL0     C26075   7.207   3.559   0.507 -0.5893 -0.2755 -0.3761
  194MOL0     C26076   7.112   3.625   0.607  0.4532  0.2801  0.3486
  194MOL0     C26077   6.993   3.531   0.642 -0.2782 -0.2792  0.6341
  194MOL0     C26078   6.908   3.606   0.747 -0.6612 -0.0275  0.4647
  194MOL0     O26079   6.803   3.510   0.775  0.4058 -0.2374  0.0755
  194MOL0     C26080   6.687   3.505   0.700  0.0142 -1.0677 -0.3051
  194MOL0     C26081   6.605   3.395   0.723 -0.1402  0.2420  0.0507
  194MOL0     C26082   6.492   3.372   0.641 -0.1257 -0.4769  0.4856
  194MOL0     C26083   6.399   3.259   0.687 -0.0297  0.5767  0.2978
  194MOL0     C26084   6.463   3.465   0.540 -0.1044  0.3499 -0.5004
  194MOL0     C26085   6.336   3.461   0.451 -0.2688 -0.4677 -0.4755
  194MOL0     O26086   6.307   3.585   0.387  0.0036  0.4646  0.0304
  194MOL0     C26087   6.228   3.567   0.272  0.0382  0.0765  0.8026
  194MOL0     C26088   6.093   3.528   0.273 -0.3929 -0.2584  0.3831
  194MOL0     C26089   6.024   3.519   0.154  0.1836 -0.3253  0.1394
  194MOL0     C26090   6.077   3.564   0.027  0.4537 -0.5069 -0.2125
  194MOL0     O26091   5.992   3.554  -0.079  0.3183 -0.4194 -0.7691
  194MOL0     C26092   6.047   3.559  -0.211 -0.5457 -0.4697  0.1051
  194MOL0     C26093   5.939   3.520  -0.302  0.1484 -0.2915 -0.6256
  194MOL0     C26094   5.857   3.640  -0.354 -0.3071  0.8827  0.3664
  194MOL0     C26095   5.751   3.586  -0.445 -0.8758  0.9517  0.0788
  194MOL0     C26096   5.670   3.701  -0.515  0.1131  0.4664 -0.4529
  194MOL0     C26097   5.567   3.762  -0.417  0.8738 -0.5151  0.5362
  194MOL0     C26098   5.506   3.895  -0.459  0.3935 -0.3566 -0.3013
  194MOL0     C26099   5.362   3.909  -0.385 -0.8610  0.2240 -0.1922
  194MOL0    Cl26100   5.228   3.822  -0.484 -0.0186 -0.3477  0.1060
  194MOL0     C26101   6.215   3.593   0.028  0.8125  1.3441  0.3300
  194MOL0     C26102   6.284   3.605   0.148 -0.3963  0.8142  0.3045
  194MOL0     O26103   6.267   3.358   0.450  0.6747 -0.0206 -0.1801
  194MOL0     C26104   6.552   3.573   0.514 -0.2617  0.1660 -1.2616
  194MOL0     C26105   6.659   3.589   0.594  0.7851  0.2508  0.4832
  194MOL0     N26106   7.311   3.800   0.464  0.3516 -0.0659 -1.0603
  194MOL0     N26107   7.427   3.850   0.461  0.1052  0.6602 -0.6552
  194MOL0     C26108   8.583   3.504   0.912  0.5509 -0.0755  0.1698
  194MOL0     C26109   8.703   3.440   0.930 -0.3256  0.5633 -0.0776
  194MOL0     C26110   9.174   3.385   0.860 -0.2217 -0.7313  0.0888
  194MOL0     C26111   9.284   3.392   0.776  0.0561 -0.3105  0.3608
  194MOL0     C26112   9.402   3.323   0.811 -0.1185 -0.2941  0.4848
  194MOL0     C26113   9.410   3.235   0.920 -0.2330 -0.0738  0.5497
  194MOL0     O26114   9.535   3.177   0.930  0.3469 -0.1321 -0.5697
  194MOL0     C26115   9.557   3.073   1.018 -0.1054  0.1354  0.3809
  194MOL0     C26116   9.702   3.031   1.004  0.9009  0.0003 -0.1235
  194MOL0     C26117   9.729   2.903   1.086 -0.6121 -0.1527 -0.5329
  194MOL0     C26118   9.872   2.863   1.084 -0.2867  0.8008 -0.6923
  194MOL0     C26119   9.945   2.967   1.164 -0.1824  0.1439 -0.6238
  194MOL0     C26120  10.013   3.051   1.220 -0.2122  0.3482  0.0735
  194MOL0     C26121   9.293   3.217   0.994 -0.0645 -0.1974  0.0886
  194MOL0     C26122   9.170   3.285   0.958 -0.9958  0.3109  0.5713
  194MOL0     H26123   8.905   3.694   0.857 -0.3443  2.3607  0.7202
  194MOL0     H26124   8.693   3.806   0.819 -0.7310  0.4984 -0.1184
  194MOL0     H26125   8.319   3.541   0.877  2.6432 -1.3866 -2.1420
  194MOL0     H26126   8.307   3.700   0.965  2.6521  1.7499 -0.3461
  194MOL0     H26127   8.247   3.795   0.735  0.9952  0.2371  1.7255
  194MOL0     H26128   8.227   3.628   0.687  1.6379  0.8269  0.0310
  194MOL0     H26129   8.061   3.587   0.861 -2.2092  0.1829  1.0732
  194MOL0     H26130   8.056   3.758   0.917  1.7568  0.5423 -0.2551
  194MOL0     H26131   8.011   3.842   0.687  2.7957 -0.7941  0.6682
  194MOL0     H26132   8.020   3.684   0.634  1.3347 -0.1944  0.1659
  194MOL0     H26133   7.833   3.602   0.771 -2.8618 -0.6255  2.0094
  194MOL0     H26134   7.827   3.767   0.844  0.9022 -3.4791  1.9493
  194MOL0     H26135   7.646   3.728   0.670 -1.0341 -0.6372 -5.1647
  194MOL0     H26136   7.760   3.870   0.630  1.0821 -0.0772 -0.6743
  194MOL0     H26137   7.870   3.730   0.472 -0.0379  0.5674  0.0601
  194MOL0     H26138   7.755   3.595   0.508  0.9753  0.3538 -0.2787
  194MOL0     H26139   7.678   3.750   0.306  4.1974 -1.3081  0.7213
  194MOL0     H26140   7.679   3.890   0.415 -1.2445  0.7213 -2.2216
  194MOL0     H26141   7.497   3.536   0.459 -0.4940  0.0508  0.4141
  194MOL0     H26142   7.157   3.528   0.414  1.3281 -1.1440 -1.1680
  194MOL0     H26143   7.257   3.471   0.549  1.5993 -0.1569 -2.5166
  194MOL0     H26144   7.063   3.706   0.551 -0.0295 -0.5345 -0.4375
  194MOL0     H26145   7.162   3.668   0.694  0.0377  0.2905  0.5841
  194MOL0     H26146   7.029   3.436   0.684 -0.8750 -0.6420  0.3374
  194MOL0     H26147   6.934   3.500   0.556  1.8052 -0.7069 -0.7337
  194MOL0     H26148   6.876   3.700   0.700 -0.5962 -0.5354 -0.6114
  194MOL0     H26149   6.968   3.633   0.834  0.3809  0.4816 -0.3976
  194MOL0     H26150   6.613   3.333   0.811 -0.8589 -4.0392 -2.6011
  194MOL0     H26151   6.340   3.220   0.604 -0.1892  1.4688 -0.0238
  194MOL0     H26152   6.455   3.185   0.744  0.4386  0.0959 -0.7615
  194MOL0     H26153   6.334   3.298   0.766 -1.3794 -0.6986 -0.1345
  194MOL0     H26154   6.047   3.504   0.369 -4.2426 -0.6863 -1.4075
  194MOL0     H26155   5.918   3.497   0.158 -0.2644  1.7814  1.5096
  194MOL0     H26156   6.079   3.661  -0.236 -1.4140  0.2989  1.9335
  194MOL0     H26157   6.133   3.492  -0.216 -0.9829 -1.2211  1.9617
  194MOL0     H26158   5.996   3.472  -0.382  2.2276 -2.4337  1.9593
  194MOL0     H26159   5.859   3.457  -0.260 -2.6904  3.1193 -0.4883
  194MOL0     H26160   5.929   3.702  -0.409  1.4021 -0.2774  1.1973
  194MOL0     H26161   5.811   3.696  -0.273  0.4053  0.9949  0.7053
  194MOL0     H26162   5.795   3.524  -0.523 -0.3646  2.6331 -1.0105
  194MOL0     H26163   5.674   3.529  -0.391 -1.0337  0.2825 -0.8390
  194MOL0     H26164   5.615   3.652  -0.596  0.0533 -0.6036  0.2258
  194MOL0     H26165   5.746   3.771  -0.551  1.8187 -1.7739 -1.4391
  194MOL0     H26166   5.485   3.689  -0.415  2.1687 -2.0951 -0.7044
  194MOL0     H26167   5.605   3.772  -0.315  2.3835  1.5678 -0.1662
  194MOL0     H26168   5.504   3.919  -0.565  3.1631  1.7873  0.0066
  194MOL0     H26169   5.565   3.970  -0.406  2.9694 -3.2685  1.3132
  194MOL0     H26170   5.333   4.014  -0.381 -0.3688  0.5126 -2.6198
  194MOL0     H26171   5.384   3.859  -0.290  0.9740 -2.8920 -2.0493
  194MOL0     H26172   6.267   3.623  -0.063 -2.2591 -0.1053 -2.1240
  194MOL0     H26173   6.387   3.634   0.160  0.9299 -1.5183 -3.6506
  194MOL0     H26174   6.539   3.637   0.428  0.0265  2.0251  0.0137
  194MOL0     H26175   6.721   3.671   0.560 -1.1678  1.0259 -1.4394
  194MOL0     H26176   8.492   3.446   0.924 -1.3978  2.8825  0.7781
  194MOL0     H26177   8.690   3.337   0.960 -0.7590  0.1676 -1.5249
  194MOL0     H26178   9.280   3.459   0.690  1.6520  1.4148  1.5372
  194MOL0     H26179   9.488   3.325   0.746 -0.3220  0.9600  0.2360
  194MOL0     H26180   9.541   3.105   1.122 -1.7428 -1.2468  0.5843
  194MOL0     H26181   9.482   2.994   1.006 -2.6977  2.2283  1.6868
  194MOL0     H26182   9.760   3.110   1.052  0.9080  0.1093 -0.3128
  194MOL0     H26183   9.721   3.017   0.897  1.0521  1.2002 -0.2660
  194MOL0     H26184   9.663   2.833   1.034 -1.1622 -0.7702  0.9594
  194MOL0     H26185   9.686   2.902   1.186 -2.6535 -6.0027 -1.1028
  194MOL0     H26186   9.915   2.860   0.984  0.8881  2.4719 -0.2816
  194MOL0     H26187   9.882   2.767   1.136 -3.0640  0.1511 -1.1520
  194MOL0     H26188  10.076   3.123   1.270  0.9792 -1.5213  1.3980
  194MOL0     H26189   9.290   3.142   1.073 -0.5978  1.2348  1.4958
  194MOL0     H26190   9.080   3.272   1.017 -3.6600  0.0741 -3.2083
  195MOL0     O26191  10.383   0.509   5.261  0.5777 -0.6202 -0.2389
  195MOL0     C26192  10.408   0.401   5.214 -0.4368 -0.1707  0.0851
  195MOL0     O26193  10.322   0.316   5.155 -0.0748 -0.1935 -0.0849
  195MOL0     C26194  10.187   0.356   5.134 -0.0554  0.6569  0.2298
  195MOL0     C26195  10.106   0.402   5.240  0.2047 -0.2281 -0.5201
  195MOL0     C26196   9.973   0.436   5.208  0.5265  0.0087 -0.0926
  195MOL0     C26197   9.928   0.437   5.080  1.0711  0.1431  0.9632
  195MOL0     O26198   9.805   0.478   5.059  0.0280 -0.2841  0.1503
  195MOL0     C26199   9.755   0.489   4.924  0.0171 -0.1357 -0.2321
  195MOL0     C26200   9.623   0.568   4.917 -0.6094  0.1715 -0.5302
  195MOL0     C26201   9.556   0.562   4.781 -0.6116  0.3619 -0.0973
  195MOL0     C26202   9.434   0.652   4.791 -0.5010 -0.0998  0.5016
  195MOL0     C26203   9.329   0.621   4.683 -0.2291  0.1393 -0.5600
  195MOL0     C26204   9.197   0.674   4.727 -0.7247  0.3740  0.3386
  195MOL0     C26205   9.086   0.674   4.627  0.2238  0.5770  0.0148
  195MOL0     C26206   8.957   0.697   4.702  1.3009  0.1187 -0.2921
  195MOL0     N26207   8.838   0.685   4.616 -1.1855  0.5189  0.4085
  195MOL0     C26208   8.789   0.761   4.505  0.5145  0.6453  0.2574
  195MOL0     C26209   8.668   0.707   4.483 -0.4665  0.2477  0.5386
  195MOL0     C26210   8.588   0.757   4.365 -0.3027  0.3583 -0.3601
  195MOL0     C26211   8.449   0.790   4.412  0.4708 -0.9563 -0.1521
  195MOL0     C26212   8.361   0.850   4.300  0.2313  0.0614  0.1022
  195MOL0     C26213   8.218   0.876   4.348  0.5211  0.5356 -0.5615
  195MOL0     O26214   8.227   0.974   4.444 -0.4392 -0.3230 -0.0588
  195MOL0     C26215   8.107   1.033   4.479  1.3571  0.0789 -0.4138
  195MOL0     C26216   8.105   1.171   4.505 -0.2062 -0.5395 -0.8111
  195MOL0     C26217   7.990   1.247   4.537  0.2982 -0.6364  0.3013
  195MOL0     C26218   8.014   1.395   4.556  0.5499 -0.4020 -0.4419
  195MOL0     C26219   7.873   1.172   4.553  1.1946 -0.1489  0.2096
  195MOL0     C26220   7.748   1.234   4.603 -0.0219  0.3082 -0.3544
  195MOL0     O26221   7.700   1.343   4.539 -0.1713  0.1653  0.2320
  195MOL0     C26222   7.571   1.389   4.574 -0.5030 -0.0189  0.2533
  195MOL0     C26223   7.560   1.504   4.648 -0.1784  0.3118  0.0580
  195MOL0     C26224   7.430   1.543   4.692  0.5140  0.5706 -0.3049
  195MOL0     C26225   7.312   1.461   4.657  0.4844  0.6722  0.1340
  195MOL0     O26226   7.189   1.510   4.704  0.3236 -0.1757  0.9141
  195MOL0     C26227   7.072   1.491   4.620 -0.0614  0.5418 -0.1641
  195MOL0     C26228   6.983   1.604   4.631  1.0778 -0.6819 -0.6721
  195MOL0     C26229   6.862   1.578   4.538 -1.0853 -0.5139  0.0428
  195MOL0     C26230   6.769   1.697   4.561  0.4663 -0.7830  0.6615
  195MOL0     C26231   6.630   1.664   4.499 -0.5672 -0.4996  0.7744
  195MOL0     C26232   6.548   1.781   4.478 -1.1776  0.4966  0.7946
  195MOL0     C26233   6.407   1.744   4.432  0.1319 -0.2403 -0.4000
  195MOL0     C26234   6.320   1.871   4.420 -0.8389 -0.6152  0.6871
  195MOL0    Cl26235   6.180   1.819   4.327 -0.0045  0.0560  0.5701
  195MOL0     C26236   7.325   1.353   4.577  0.1016  0.7625  0.6573
  195MOL0     C26237   7.452   1.312   4.536 -0.6578 -0.4022 -0.4254
  195MOL0     O26238   7.698   1.187   4.707 -0.1059 -0.0809 -0.2788
  195MOL0     C26239   7.875   1.034   4.539 -0.3703  1.1532 -0.0461
  195MOL0     C26240   7.987   0.964   4.494  0.6472 -0.4414 -0.2547
  195MOL0     N26241   8.636   0.607   4.579  0.0538 -0.3522 -0.2997
  195MOL0     N26242   8.744   0.595   4.656  0.4883  0.4435 -0.1385
  195MOL0     C26243  10.013   0.398   4.972  0.4958 -0.5938 -0.1235
  195MOL0     C26244  10.139   0.351   5.005 -0.2522 -0.2902  0.5245
  195MOL0     C26245  10.549   0.355   5.230  0.4198  0.4463 -0.2171
  195MOL0     C26246  10.609   0.266   5.136  0.3393 -0.0341  0.1808
  195MOL0     C26247  10.740   0.219   5.160 -0.2703  1.0445  0.2485
  195MOL0     C26248  10.817   0.259   5.269  0.2354  0.7346  0.5483
  195MOL0     O26249  10.951   0.207   5.275 -0.5165  0.5289  1.4636
  195MOL0     C26250  11.038   0.239   5.385  0.5558 -0.2479 -0.1317
  195MOL0     C26251  11.180   0.193   5.359  0.4621  0.1961 -0.6958
  195MOL0     C26252  11.233   0.230   5.216  0.3087 -0.7657 -0.3208
  195MOL0     C26253  11.221   0.377   5.177  0.4349 -0.2077  0.5589
  195MOL0     C26254  11.259   0.462   5.287 -0.0243  0.2867 -0.0791
  195MOL0     C26255  11.283   0.531   5.378 -0.2420 -0.0209 -1.2778
  195MOL0     C26256  10.770   0.359   5.352 -0.3156 -0.6291  0.4571
  195MOL0     C26257  10.635   0.409   5.333 -0.3026  0.2909 -0.3086
  195MOL0     H26258  10.137   0.406   5.344  0.2996  0.1928 -0.5653
  195MOL0     H26259   9.911   0.482   5.285 -0.7560 -1.3006 -0.3027
  195MOL0     H26260   9.824   0.548   4.863  2.4897  2.6509  4.6610
  195MOL0     H26261   9.747   0.387   4.885 -0.0931 -0.5942  0.9470
  195MOL0     H26262   9.561   0.517   4.991  1.4408 -1.8695 -0.1124
  195MOL0     H26263   9.639   0.673   4.946 -0.2407 -0.2311  0.8009
  195MOL0     H26264   9.606   0.610   4.697  0.2525  2.8892  1.7223
  195MOL0     H26265   9.504   0.467   4.772 -1.0216  0.3732  1.6637
  195MOL0     H26266   9.394   0.651   4.892  2.2476 -2.1109  1.7039
  195MOL0     H26267   9.470   0.754   4.773 -0.4713  0.6556  4.1174
  195MOL0     H26268   9.354   0.664   4.585 -3.5279 -0.1719 -1.6755
  195MOL0     H26269   9.319   0.513   4.672  1.6510 -0.1801  0.3718
  195MOL0     H26270   9.167   0.640   4.827 -2.4158 -1.1679 -0.6366
  195MOL0     H26271   9.219   0.780   4.742 -0.5505  0.2796  0.7730
  195MOL0     H26272   9.093   0.758   4.557  0.0955 -0.6749 -1.5614
  195MOL0     H26273   9.085   0.578   4.576  2.9162 -1.0368  2.6782
  195MOL0     H26274   8.952   0.793   4.754 -2.7625 -0.4768  0.7928
  195MOL0     H26275   8.951   0.614   4.774  0.1706 -1.0450 -1.6491
  195MOL0     H26276   8.848   0.834   4.450 -1.8161  1.4323 -1.3550
  195MOL0     H26277   8.638   0.845   4.321  1.6740 -0.9546 -0.8733
  195MOL0     H26278   8.602   0.689   4.281  2.3529 -0.0234  0.3080
  195MOL0     H26279   8.457   0.853   4.501  0.0421  0.8376 -1.3400
  195MOL0     H26280   8.401   0.695   4.440 -0.0702 -0.0315  2.3029
  195MOL0     H26281   8.371   0.781   4.215  0.4411 -0.3104  0.4249
  195MOL0     H26282   8.397   0.950   4.275  1.5570 -0.6003 -0.7544
  195MOL0     H26283   8.187   0.783   4.397 -0.5834  0.0990 -2.0052
  195MOL0     H26284   8.148   0.886   4.264 -0.5398 -2.5258 -0.1866
  195MOL0     H26285   8.207   1.208   4.507  0.8424 -3.2298  1.0786
  195MOL0     H26286   8.076   1.414   4.644 -0.6562  0.7807  0.1919
  195MOL0     H26287   8.056   1.426   4.460 -0.8445 -2.4642 -1.8107
  195MOL0     H26288   7.924   1.453   4.580 -0.0100 -0.7830 -1.5210
  195MOL0     H26289   7.643   1.570   4.671  0.7983 -0.8188 -0.1214
  195MOL0     H26290   7.416   1.635   4.748 -1.0603  1.4288 -2.0318
  195MOL0     H26291   7.104   1.487   4.515  0.8434  1.3498  0.0727
  195MOL0     H26292   7.019   1.397   4.639 -1.0732  0.9888 -0.7002
  195MOL0     H26293   6.939   1.620   4.730  2.8484 -0.2029  0.0666
  195MOL0     H26294   7.047   1.689   4.608  3.6759 -2.4507 -0.4092
  195MOL0     H26295   6.804   1.488   4.560 -2.4416  0.1797 -0.6085
  195MOL0     H26296   6.888   1.571   4.432  2.5025 -2.4557  0.8769
  195MOL0     H26297   6.751   1.718   4.667 -0.7589  0.2025  0.2803
  195MOL0     H26298   6.809   1.789   4.518 -0.7913  0.0658  1.2500
  195MOL0     H26299   6.573   1.597   4.563 -3.6196 -0.9328 -2.0905
  195MOL0     H26300   6.653   1.608   4.408  2.3867 -0.8622  1.6390
  195MOL0     H26301   6.541   1.849   4.564 -1.1946 -2.4817  3.3132
  195MOL0     H26302   6.597   1.836   4.397 -2.2801  0.8428  0.3497
  195MOL0     H26303   6.362   1.679   4.508  2.2672 -2.4806 -0.9146
  195MOL0     H26304   6.391   1.689   4.339 -0.5382  2.5669 -2.0457
  195MOL0     H26305   6.372   1.946   4.360  1.2698 -1.4671  1.3455
  195MOL0     H26306   6.298   1.920   4.516 -1.5781  0.5835 -0.0611
  195MOL0     H26307   7.243   1.287   4.551 -1.4718  2.0395  2.1283
  195MOL0     H26308   7.469   1.222   4.477  0.4408  0.1541 -0.9768
  195MOL0     H26309   7.789   0.968   4.542 -0.1758  0.7864 -1.5541
  195MOL0     H26310   7.976   0.858   4.474  0.7457 -0.3042 -1.0869
  195MOL0     H26311   9.987   0.394   4.867 -1.2396  1.6211  0.1353
  195MOL0     H26312  10.210   0.312   4.933  0.5611  1.2216  0.4697
  195MOL0     H26313  10.560   0.235   5.044 -0.9786  0.1408  0.8082
  195MOL0     H26314  10.786   0.152   5.088 -0.7132 -0.7622  1.5589
  195MOL0     H26315  11.044   0.348   5.393  0.4342  0.0228 -2.7350
  195MOL0     H26316  10.991   0.200   5.476 -0.4296 -1.8754 -1.2832
  195MOL0     H26317  11.180   0.083   5.365 -0.3128  0.2277  0.1740
  195MOL0     H26318  11.229   0.252   5.437  0.3679  2.1031 -2.0102
  195MOL0     H26319  11.167   0.175   5.149 -0.1692 -1.0568  0.3826
  195MOL0     H26320  11.339   0.202   5.215 -0.2926 -3.5530  1.8006
  195MOL0     H26321  11.115   0.390   5.152 -0.5600 -2.3575  3.1357
  195MOL0     H26322  11.285   0.383   5.088  1.3967 -1.6592  1.1139
  195MOL0     H26323  11.299   0.588   5.468  0.5433  1.3365 -2.2340
  195MOL0     H26324  10.830   0.402   5.432  1.7572  0.3517 -1.4945
  195MOL0     H26325  10.590   0.481   5.400  1.4163 -0.2662  1.5337
  196MOL0     O26326   0.526   1.068   3.266  0.6218 -1.1134 -0.0057
  196MOL0     C26327   0.563   1.049   3.150  1.5124  0.2235  0.5260
  196MOL0     O26328   0.518   0.954   3.054 -0.4314 -0.5344 -0.3404
  196MOL0     C26329   0.388   0.911   3.072 -0.0529 -0.3751 -0.1320
  196MOL0     C26330   0.367   0.772   3.058  0.3238 -0.2860  0.0658
  196MOL0     C26331   0.239   0.717   3.079  0.7010 -0.9971  0.1716
  196MOL0     C26332   0.136   0.804   3.113  0.7037 -0.3092  0.2471
  196MOL0     O26333   0.016   0.739   3.111 -0.7578  0.5018 -0.4097
  196MOL0     C26334  -0.064   0.771   3.219 -0.6827 -1.4261  0.1559
  196MOL0     C26335  -0.157   0.658   3.266 -0.2899  0.3002  0.2967
  196MOL0     C26336  -0.244   0.597   3.156 -0.4380  0.3650  0.3514
  196MOL0     C26337  -0.382   0.554   3.210  0.2506 -0.2985  0.3775
  196MOL0     C26338  -0.471   0.520   3.085 -0.2585  0.1403 -0.3331
  196MOL0     C26339  -0.515   0.639   3.009 -0.0200  0.4843  0.1526
  196MOL0     C26340  -0.611   0.589   2.903  0.0903  1.2567 -0.8448
  196MOL0     C26341  -0.684   0.702   2.833  0.3143 -0.1336  0.3601
  196MOL0     N26342  -0.803   0.659   2.762  0.2056 -0.7215  0.6484
  196MOL0     C26343  -0.924   0.620   2.818  0.8612  0.0431 -0.9085
  196MOL0     C26344  -1.013   0.587   2.721 -0.6118  0.1072 -0.0705
  196MOL0     C26345  -1.156   0.524   2.736 -0.7566 -0.1036 -0.3748
  196MOL0     C26346  -1.260   0.636   2.757 -0.0322  0.2470  0.5841
  196MOL0     C26347  -1.403   0.579   2.741  0.4548  0.5959 -0.6177
  196MOL0     C26348  -1.519   0.662   2.801  0.4807  0.2719  0.7077
  196MOL0     O26349  -1.548   0.763   2.705 -0.5976 -0.3523 -0.1575
  196MOL0     C26350  -1.670   0.771   2.643 -0.4614  0.9326 -0.4302
  196MOL0     C26351  -1.732   0.898   2.632  0.4712  0.3020 -0.5602
  196MOL0     C26352  -1.846   0.917   2.555  0.5305 -0.2552  0.3108
  196MOL0     C26353  -1.909   1.053   2.569 -0.1238 -0.7326  0.2178
  196MOL0     C26354  -1.900   0.808   2.485  0.3391 -0.2971  0.8933
  196MOL0     C26355  -2.016   0.809   2.398 -0.0126 -0.2948  0.0255
  196MOL0     O26356  -2.021   0.707   2.303 -1.2586 -0.0224 -0.0419
  196MOL0     C26357  -2.132   0.702   2.219  0.5471 -0.1806 -0.4735
  196MOL0     C26358  -2.102   0.695   2.085  0.2963  0.1679 -0.1967
  196MOL0     C26359  -2.212   0.683   1.989 -0.4257 -0.0426 -0.5650
  196MOL0     C26360  -2.339   0.701   2.030  0.5802 -0.2697  0.2767
  196MOL0     O26361  -2.456   0.698   1.946 -0.2854 -0.2004 -0.1791
  196MOL0     C26362  -2.420   0.737   1.809  0.8294  0.1551 -0.5233
  196MOL0     C26363  -2.550   0.799   1.767 -0.3074 -0.5208 -0.3782
  196MOL0     C26364  -2.678   0.709   1.779 -0.0561  0.8553 -0.2392
  196MOL0     C26365  -2.778   0.769   1.693  0.6409 -0.8703 -0.4588
  196MOL0     C26366  -2.912   0.687   1.687  0.2084 -0.0042  0.1117
  196MOL0     C26367  -3.024   0.756   1.606 -0.6557  0.4678 -0.0964
  196MOL0     C26368  -3.157   0.710   1.665 -0.9512 -0.9622 -0.5024
  196MOL0     C26369  -3.281   0.733   1.580 -0.2851  0.2540 -0.4219
  196MOL0    Cl26370  -3.289   0.909   1.555 -0.2150 -0.1134 -0.1785
  196MOL0     C26371  -2.364   0.716   2.170 -0.1343 -0.1028  0.8147
  196MOL0     C26372  -2.263   0.711   2.258 -0.7591 -0.5491  0.4134
  196MOL0     O26373  -2.087   0.913   2.392 -0.3886 -0.1361  0.2316
  196MOL0     C26374  -1.841   0.679   2.495  0.2035  1.0727 -0.3362
  196MOL0     C26375  -1.722   0.660   2.565  0.1572 -0.1357 -0.2213
  196MOL0     N26376  -0.943   0.625   2.599 -0.0614  0.0678 -0.2862
  196MOL0     N26377  -0.825   0.671   2.626 -0.0426 -0.5439 -0.5544
  196MOL0     C26378   0.159   0.936   3.138 -0.4032 -0.6405 -0.8070
  196MOL0     C26379   0.285   0.990   3.129 -0.5304 -0.1554  1.0764
  196MOL0     C26380   0.702   1.099   3.119  0.7000  0.1192  0.8062
  196MOL0     C26381   0.799   1.104   3.217 -0.1414 -0.4928 -1.2112
  196MOL0     C26382   0.929   1.118   3.185  0.7188 -0.1194 -0.7705
  196MOL0     C26383   0.966   1.140   3.052  1.2728 -0.4006 -0.3839
  196MOL0     O26384   1.088   1.151   3.008  0.3045 -0.0492  0.3215
  196MOL0     C26385   1.196   1.125   3.094  0.3859 -0.8185 -0.2685
  196MOL0     C26386   1.329   1.134   3.020 -0.5524 -0.0745  0.1032
  196MOL0     C26387   1.396   1.270   3.005  0.1314  0.2447 -0.3557
  196MOL0     C26388   1.536   1.265   2.946  0.0883 -0.6034 -0.4428
  196MOL0     C26389   1.532   1.234   2.802 -0.3443  0.4890  0.4325
  196MOL0     C26390   1.518   1.198   2.690 -1.1028 -0.1003 -0.1465
  196MOL0     C26391   0.867   1.169   2.960  0.3834 -0.5197 -0.1667
  196MOL0     C26392   0.733   1.136   2.991 -0.3580 -0.3936  0.1890
  196MOL0     H26393   0.447   0.706   3.027 -0.0972 -1.3628  1.2118
  196MOL0     H26394   0.229   0.609   3.074  1.1852 -1.0044 -0.9009
  196MOL0     H26395  -0.001   0.798   3.304 -3.8851 -1.0694  2.6324
  196MOL0     H26396  -0.122   0.859   3.189 -0.4845 -1.2972  0.1465
  196MOL0     H26397  -0.101   0.576   3.314 -0.3918  0.1426  0.1483
  196MOL0     H26398  -0.218   0.694   3.349 -0.0597 -0.4974  0.8272
  196MOL0     H26399  -0.252   0.663   3.069  1.6770  0.6527  0.3188
  196MOL0     H26400  -0.198   0.504   3.121  0.7995  0.9491  0.3541
  196MOL0     H26401  -0.369   0.475   3.284 -1.2059 -0.3143  0.6510
  196MOL0     H26402  -0.420   0.647   3.254  0.8256 -0.2477  0.7787
  196MOL0     H26403  -0.428   0.440   3.023 -1.3794 -1.3893  0.7957
  196MOL0     H26404  -0.564   0.486   3.132 -0.1112 -1.1850 -0.9338
  196MOL0     H26405  -0.569   0.707   3.076 -1.6270  1.4900 -2.0241
  196MOL0     H26406  -0.428   0.693   2.969  2.4754 -1.1798  2.9556
  196MOL0     H26407  -0.549   0.524   2.840 -0.1072 -0.8640  1.0127
  196MOL0     H26408  -0.689   0.522   2.940  2.1216 -1.0721 -0.5683
  196MOL0     H26409  -0.614   0.758   2.771 -0.0175  0.7929  0.8069
  196MOL0     H26410  -0.714   0.779   2.905 -0.8969 -0.9404  0.7471
  196MOL0     H26411  -0.936   0.597   2.923 -2.7539 -0.1246 -1.2295
  196MOL0     H26412  -1.181   0.463   2.649  0.9582 -2.4529  0.6459
  196MOL0     H26413  -1.158   0.455   2.821 -0.6403  0.2378 -0.0931
  196MOL0     H26414  -1.257   0.713   2.678 -4.8624  0.6032  0.4584
  196MOL0     H26415  -1.246   0.675   2.858  0.8552 -1.1846  1.0381
  196MOL0     H26416  -1.394   0.489   2.803  0.8983  1.3214  0.4121
  196MOL0     H26417  -1.434   0.555   2.639 -3.9654  1.5915  0.2878
  196MOL0     H26418  -1.488   0.711   2.894  0.0821  3.0414 -0.5300
  196MOL0     H26419  -1.611   0.607   2.820 -0.5213  1.7868  0.4036
  196MOL0     H26420  -1.687   0.980   2.687 -1.3798  1.7352 -1.0594
  196MOL0     H26421  -1.836   1.133   2.587 -0.0778 -1.0752  1.6949
  196MOL0     H26422  -1.965   1.082   2.479  0.0471  1.4764  0.7639
  196MOL0     H26423  -1.979   1.046   2.653  1.2776 -1.7128  1.3413
  196MOL0     H26424  -1.999   0.689   2.053  0.5150 -0.1543  0.5474
  196MOL0     H26425  -2.183   0.662   1.887  2.2797  2.1126 -0.3378
  196MOL0     H26426  -2.342   0.812   1.793 -1.2187  2.3442 -0.6767
  196MOL0     H26427  -2.403   0.645   1.752  0.3494 -1.4141  1.7590
  196MOL0     H26428  -2.560   0.890   1.827 -0.3558  0.6080 -2.0155
  196MOL0     H26429  -2.544   0.822   1.660 -0.0345  0.1752 -0.2229
  196MOL0     H26430  -2.709   0.712   1.884 -1.3591 -0.5979 -0.5536
  196MOL0     H26431  -2.674   0.609   1.736 -3.0312 -0.1579  1.5395
  196MOL0     H26432  -2.796   0.867   1.740  0.4110 -0.0407 -2.2031
  196MOL0     H26433  -2.743   0.787   1.591 -3.0925 -0.6778 -1.8611
  196MOL0     H26434  -2.947   0.688   1.791  1.7061  1.0586  0.6447
  196MOL0     H26435  -2.894   0.584   1.655 -1.9508 -1.1193  2.1611
  196MOL0     H26436  -3.012   0.865   1.606  0.6214  0.3445 -0.4407
  196MOL0     H26437  -3.021   0.721   1.502 -1.5022  1.5231 -0.5048
  196MOL0     H26438  -3.156   0.758   1.764 -0.4472 -1.0127 -0.4781
  196MOL0     H26439  -3.150   0.602   1.681 -1.9228 -1.4071 -2.7203
  196MOL0     H26440  -3.369   0.700   1.635 -1.8638  0.3122 -2.7435
  196MOL0     H26441  -3.267   0.676   1.487 -0.7835 -0.6783  0.0594
  196MOL0     H26442  -2.466   0.744   2.194 -0.1821  0.2809  0.1833
  196MOL0     H26443  -2.289   0.726   2.363 -1.5493 -1.0734  0.2970
  196MOL0     H26444  -1.887   0.589   2.454 -0.8397 -0.1232  3.0813
  196MOL0     H26445  -1.676   0.562   2.573  1.9218  0.7700  5.1494
  196MOL0     H26446   0.075   1.001   3.160  0.4565  1.1638 -2.4698
  196MOL0     H26447   0.300   1.095   3.149  1.6240  0.0214 -1.0134
  196MOL0     H26448   0.777   1.070   3.318  1.1706 -0.6616 -0.9638
  196MOL0     H26449   1.011   1.109   3.256  0.6020 -0.8585 -0.7213
  196MOL0     H26450   1.191   1.200   3.174  0.3833 -0.6104 -0.4607
  196MOL0     H26451   1.181   1.024   3.132 -3.6402 -0.0969  0.5513
  196MOL0     H26452   1.321   1.095   2.918  0.6975 -0.3249  0.0812
  196MOL0     H26453   1.400   1.071   3.076 -2.4594  0.7043  3.7245
  196MOL0     H26454   1.404   1.321   3.102 -0.5279  0.2156 -0.2863
  196MOL0     H26455   1.335   1.333   2.940  0.0829  0.0385 -0.5092
  196MOL0     H26456   1.598   1.191   2.999  0.0790  0.8495  1.7119
  196MOL0     H26457   1.597   1.355   2.943 -0.6248 -0.1291 -2.1915
  196MOL0     H26458   1.512   1.170   2.587 -0.8497 -0.6713 -0.0113
  196MOL0     H26459   0.883   1.215   2.863  1.1674  1.8944  1.0525
  196MOL0     H26460   0.648   1.148   2.924 -0.8605 -0.4252  0.8043
  197MOL0     O26461   6.116   1.939   6.505 -0.1741 -0.1514  0.1795
  197MOL0     C26462   6.127   1.929   6.626 -0.5074 -0.1778 -0.4204
  197MOL0     O26463   6.032   1.870   6.713  0.3572  0.2273  0.1591
  197MOL0     C26464   5.920   1.831   6.650 -0.1382  0.0325 -0.5638
  197MOL0     C26465   5.877   1.707   6.687  0.3628 -0.5690  0.2909
  197MOL0     C26466   5.757   1.651   6.642  0.8594 -0.1755  1.2448
  197MOL0     C26467   5.679   1.729   6.552 -0.2794 -0.1709 -0.9881
  197MOL0     O26468   5.557   1.686   6.502  0.8119 -0.3932 -0.2104
  197MOL0     C26469   5.495   1.556   6.522  0.4803 -0.2656  0.2640
  197MOL0     C26470   5.369   1.582   6.595  1.0438  0.4990  0.7974
  197MOL0     C26471   5.248   1.501   6.547 -0.5893 -0.0869 -0.1328
  197MOL0     C26472   5.131   1.507   6.645 -0.5255 -0.3747 -0.1479
  197MOL0     C26473   5.025   1.398   6.611  0.8053 -0.8753 -0.1548
  197MOL0     C26474   4.914   1.399   6.714  0.0286  0.4779 -0.0546
  197MOL0     C26475   4.810   1.297   6.674 -0.0426  0.4162 -0.4779
  197MOL0     C26476   4.698   1.280   6.766 -0.0828 -0.3915 -0.9073
  197MOL0     N26477   4.577   1.226   6.705 -0.0612  0.0525  0.5892
  197MOL0     C26478   4.473   1.295   6.644  0.2195  0.8248  0.1887
  197MOL0     C26479   4.376   1.206   6.610 -0.2902  0.2296 -0.1277
  197MOL0     C26480   4.261   1.230   6.523 -0.0831 -0.1988  0.6876
  197MOL0     C26481   4.145   1.157   6.597 -0.5484 -1.0459 -0.4781
  197MOL0     C26482   4.012   1.194   6.527  0.1814  0.1715  1.1344
  197MOL0     C26483   3.895   1.139   6.608 -0.0885  0.1070 -1.0496
  197MOL0     O26484   3.771   1.163   6.543  0.8178  0.0533  0.9217
  197MOL0     C26485   3.650   1.147   6.601  0.4282 -0.3016 -0.2353
  197MOL0     C26486   3.633   1.119   6.735  0.1272 -0.9638 -0.0248
  197MOL0     C26487   3.510   1.085   6.789  0.7016  0.6760 -1.1866
  197MOL0     C26488   3.513   1.027   6.937  0.7315 -0.5975 -0.0935
  197MOL0     C26489   3.393   1.115   6.713  1.2176 -0.0339 -0.4268
  197MOL0     C26490   3.256   1.102   6.770  1.0143  0.2065 -0.0153
  197MOL0     O26491   3.154   1.073   6.683 -0.1875 -0.5474  0.1705
  197MOL0     C26492   3.032   1.056   6.732  0.4671 -0.5377 -0.7474
  197MOL0     C26493   2.932   1.155   6.741 -0.0539 -0.2837  0.3734
  197MOL0     C26494   2.815   1.144   6.814  0.2455  0.1238 -0.0010
  197MOL0     C26495   2.777   1.017   6.854  0.3616  0.5104  0.2659
  197MOL0     O26496   2.643   1.001   6.885  0.0371  0.7547 -0.1871
  197MOL0     C26497   2.591   0.871   6.916 -0.1129  0.1930 -0.1294
  197MOL0     C26498   2.437   0.880   6.897  0.1095  0.2581  0.5292
  197MOL0     C26499   2.368   0.752   6.943  0.5848 -0.1796  1.2218
  197MOL0     C26500   2.426   0.624   6.876 -0.2720 -0.6181  0.8152
  197MOL0     C26501   2.358   0.498   6.923 -0.1117  0.4018  0.6270
  197MOL0     C26502   2.205   0.486   6.892 -0.0733 -0.4755  0.0365
  197MOL0     C26503   2.149   0.367   6.966 -0.2878 -0.9622  0.4177
  197MOL0     C26504   2.001   0.330   6.943  0.2979  0.0808  0.8658
  197MOL0    Cl26505   1.945   0.256   7.099 -0.3554  0.1612 -0.5140
  197MOL0     C26506   2.875   0.915   6.847  0.3116  0.0092 -0.7755
  197MOL0     C26507   3.000   0.933   6.793 -0.4259 -0.1585 -0.3225
  197MOL0     O26508   3.238   1.098   6.891  0.6274 -0.6671  0.1910
  197MOL0     C26509   3.409   1.149   6.581 -0.0603  0.0048  0.5937
  197MOL0     C26510   3.534   1.160   6.526 -0.8091 -0.4459 -0.6741
  197MOL0     N26511   4.417   1.078   6.655  0.2726 -0.3840  0.1344
  197MOL0     N26512   4.535   1.092   6.713  0.4027 -0.4911  0.3542
  197MOL0     C26513   5.725   1.853   6.509  0.0998 -0.1306  0.0333
  197MOL0     C26514   5.853   1.893   6.555  0.3772 -0.6861  1.3738
  197MOL0     C26515   6.255   1.976   6.691 -0.6189  0.6352 -1.2751
  197MOL0     C26516   6.273   1.959   6.832 -0.1419  0.9875  0.0933
  197MOL0     C26517   6.393   1.987   6.895 -0.2956 -1.0208 -0.6891
  197MOL0     C26518   6.496   2.038   6.820 -0.0813 -0.0601  0.2359
  197MOL0     O26519   6.613   2.074   6.890  0.1439  0.5357 -0.8289
  197MOL0     C26520   6.720   2.144   6.823  0.7342 -0.1184 -0.0527
  197MOL0     C26521   6.831   2.165   6.917 -0.2578  0.8314 -0.1379
  197MOL0     C26522   6.970   2.155   6.867 -0.1127 -0.0960  0.4443
  197MOL0     C26523   7.065   2.184   6.978 -1.2690 -0.2008 -0.2611
  197MOL0     C26524   7.181   2.248   6.923 -0.8494  0.6190  0.0708
  197MOL0     C26525   7.276   2.305   6.888 -0.1359  0.2837  0.2791
  197MOL0     C26526   6.485   2.052   6.680 -0.0165  0.7162  0.3180
  197MOL0     C26527   6.363   2.020   6.615  0.3186  0.0833  0.6255
  197MOL0     H26528   5.931   1.670   6.774  2.1952  0.9071 -0.1355
  197MOL0     H26529   5.722   1.558   6.686  2.4284 -0.3750  2.1469
  197MOL0     H26530   5.494   1.506   6.425 -0.6654  1.7982 -0.8482
  197MOL0     H26531   5.560   1.497   6.588  0.9755  0.1637  0.1629
  197MOL0     H26532   5.385   1.548   6.698 -5.1574 -2.8398  1.1760
  197MOL0     H26533   5.343   1.688   6.593  0.3511  0.3523  1.4807
  197MOL0     H26534   5.223   1.535   6.447  0.6620 -2.4646 -1.3337
  197MOL0     H26535   5.274   1.395   6.542 -1.1186 -0.2144 -0.2338
  197MOL0     H26536   5.176   1.510   6.745 -0.3377  1.0822 -0.2585
  197MOL0     H26537   5.089   1.603   6.616  1.3217 -0.0492 -2.0064
  197MOL0     H26538   4.983   1.423   6.513  0.8669 -3.0736 -0.7758
  197MOL0     H26539   5.063   1.296   6.612  0.1815 -1.1168 -0.7359
  197MOL0     H26540   4.951   1.369   6.812 -2.1684  1.6786  1.2196
  197MOL0     H26541   4.872   1.500   6.721 -1.5263 -0.0899 -0.6549
  197MOL0     H26542   4.783   1.328   6.572 -2.0307 -0.0751 -0.1414
  197MOL0     H26543   4.854   1.199   6.653  1.8933  0.5471  2.3885
  197MOL0     H26544   4.665   1.377   6.806 -3.4215 -2.4642  2.0185
  197MOL0     H26545   4.730   1.231   6.859  1.4791  1.9463 -0.1380
  197MOL0     H26546   4.476   1.403   6.637 -1.2082  1.0802  2.5506
  197MOL0     H26547   4.236   1.336   6.516 -1.3556 -0.5889 -1.7446
  197MOL0     H26548   4.270   1.185   6.424 -2.9414  0.3435  0.0754
  197MOL0     H26549   4.133   1.187   6.701  2.2892 -1.0843 -0.0641
  197MOL0     H26550   4.157   1.049   6.587 -1.7567 -0.9689 -4.2835
  197MOL0     H26551   4.011   1.154   6.425  2.5112  0.5574  0.9078
  197MOL0     H26552   3.999   1.303   6.524  3.0471  0.5663  0.8104
  197MOL0     H26553   3.899   1.185   6.707 -1.8596 -0.7139 -0.5639
  197MOL0     H26554   3.923   1.034   6.616 -1.0617 -0.0678  0.5594
  197MOL0     H26555   3.721   1.099   6.794  0.3896  1.2213  0.3782
  197MOL0     H26556   3.440   0.950   6.962  1.3719 -0.8281  1.1586
  197MOL0     H26557   3.614   0.985   6.944  1.2947 -0.2121 -3.8036
  197MOL0     H26558   3.507   1.114   7.002  0.7150  0.5335 -1.5602
  197MOL0     H26559   2.967   1.249   6.700 -1.2726  0.1445  0.2867
  197MOL0     H26560   2.744   1.222   6.840 -0.0649  0.3829 -1.5260
  197MOL0     H26561   2.637   0.796   6.850 -0.3394 -0.2360  0.1967
  197MOL0     H26562   2.609   0.851   7.022  1.0984  1.4503 -0.0665
  197MOL0     H26563   2.398   0.970   6.946  1.0859  0.0688  1.7061
  197MOL0     H26564   2.424   0.883   6.788  3.9752 -0.4606 -0.1251
  197MOL0     H26565   2.268   0.744   6.898 -0.1024 -3.5558  3.0183
  197MOL0     H26566   2.365   0.736   7.051 -1.4371 -2.8944  0.8625
  197MOL0     H26567   2.412   0.640   6.769 -0.3910 -0.5077  0.8462
  197MOL0     H26568   2.530   0.606   6.907  0.5823  1.3731 -0.6755
  197MOL0     H26569   2.372   0.490   7.031 -0.4441  2.5529  0.8715
  197MOL0     H26570   2.407   0.412   6.877 -0.1821  1.1314 -0.9044
  197MOL0     H26571   2.150   0.574   6.926 -1.3708 -1.3857  0.3992
  197MOL0     H26572   2.189   0.472   6.785  0.1982  3.1848 -0.5901
  197MOL0     H26573   2.155   0.393   7.072 -0.3822 -0.9823  0.4285
  197MOL0     H26574   2.207   0.275   6.957 -1.7687 -1.9599  0.6450
  197MOL0     H26575   1.996   0.263   6.856  0.6668 -0.9936  1.6490
  197MOL0     H26576   1.944   0.418   6.913 -2.3343 -1.4898  0.9471
  197MOL0     H26577   2.841   0.817   6.877  0.7095  0.0368 -0.2208
  197MOL0     H26578   3.071   0.851   6.789  1.3459  1.2917 -0.0283
  197MOL0     H26579   3.322   1.157   6.517  0.1714 -0.6872  0.1861
  197MOL0     H26580   3.560   1.200   6.429 -2.2940 -0.0743 -0.9345
  197MOL0     H26581   5.686   1.927   6.440  1.4025 -0.6662 -1.3263
  197MOL0     H26582   5.887   1.994   6.534  0.0502 -0.4425  1.9963
  197MOL0     H26583   6.188   1.928   6.892  0.0280  1.9607  0.8684
  197MOL0     H26584   6.410   1.967   7.000 -0.7828  0.3421 -0.3227
  197MOL0     H26585   6.745   2.093   6.729  1.1527 -0.1933  0.0982
  197MOL0     H26586   6.678   2.241   6.794 -0.5302  0.3189  2.9184
  197MOL0     H26587   6.830   2.088   6.995  1.9824  2.0888  1.2368
  197MOL0     H26588   6.814   2.262   6.965 -3.4786  0.5005 -0.3782
  197MOL0     H26589   6.984   2.238   6.796 -2.3301 -2.3158 -2.9062
  197MOL0     H26590   6.978   2.058   6.818 -0.6538  0.9459 -1.8747
  197MOL0     H26591   7.101   2.099   7.036  0.3647  1.3584  1.1260
  197MOL0     H26592   7.024   2.255   7.051 -2.8987 -1.8365  0.5217
  197MOL0     H26593   7.362   2.364   6.863 -0.7982  0.9028 -0.6314
  197MOL0     H26594   6.577   2.063   6.623  1.7857 -0.3858  2.8350
  197MOL0     H26595   6.355   2.022   6.507  0.8958  0.9731  0.5912
  198MOL0     O26596   1.493   2.553   7.724  0.2425 -0.5103  0.0663
  198MOL0     C26597   1.432   2.647   7.780  0.2752  0.5774 -0.2710
  198MOL0     O26598   1.488   2.766   7.827 -0.5448 -0.5555 -0.4809
  198MOL0     C26599   1.621   2.789   7.793 -0.2085  0.5932 -0.0215
  198MOL0     C26600   1.714   2.789   7.898 -0.9017  0.1539  0.1399
  198MOL0     C26601   1.852   2.785   7.869  0.6805 -0.7025  0.9191
  198MOL0     C26602   1.891   2.785   7.736 -0.3457  0.1421 -0.4322
  198MOL0     O26603   2.025   2.771   7.688  0.1985  0.3139  0.3776
  198MOL0     C26604   2.077   2.888   7.620  0.5885  0.3137 -0.0041
  198MOL0     C26605   2.232   2.869   7.610 -0.6648  0.2210 -0.1752
  198MOL0     C26606   2.276   2.745   7.530  0.6613 -0.2098  0.5812
  198MOL0     C26607   2.377   2.785   7.425 -0.5522  0.3886  0.1326
  198MOL0     C26608   2.465   2.664   7.380  0.3037 -0.1339 -0.8507
  198MOL0     C26609   2.586   2.708   7.305  0.3914  0.5210  0.7442
  198MOL0     C26610   2.668   2.587   7.255 -0.4224 -0.1831  0.2531
  198MOL0     C26611   2.786   2.643   7.171 -0.6275  0.7901  0.5335
  198MOL0     N26612   2.739   2.692   7.042  0.4337 -0.0414  1.3775
  198MOL0     C26613   2.683   2.614   6.939 -0.0063  0.1209  0.8881
  198MOL0     C26614   2.675   2.700   6.832 -0.2782  0.3246  0.1924
  198MOL0     C26615   2.638   2.659   6.688 -0.0935 -0.8728 -0.0724
  198MOL0     C26616   2.514   2.566   6.697 -0.0146  0.1232 -0.5395
  198MOL0     C26617   2.475   2.521   6.562  0.2938  0.0057 -0.0211
  198MOL0     C26618   2.355   2.426   6.578 -0.0395  0.0979  0.4650
  198MOL0     O26619   2.398   2.290   6.608 -0.2182 -1.0121 -0.0439
  198MOL0     C26620   2.294   2.202   6.635  0.4028  0.6648 -0.8061
  198MOL0     C26621   2.336   2.074   6.680  0.2430  0.2675 -0.4076
  198MOL0     C26622   2.241   1.977   6.702 -0.0952 -0.8986  0.4796
  198MOL0     C26623   2.296   1.862   6.762  0.3143  0.2398  0.6326
  198MOL0     C26624   2.103   1.992   6.660  0.1610  0.2921 -0.4310
  198MOL0     C26625   1.994   1.894   6.682 -0.5061 -0.1452  0.4579
  198MOL0     O26626   1.862   1.935   6.693  0.6307  1.3514 -0.2919
  198MOL0     C26627   1.773   1.835   6.670  0.1898  0.3911  0.1846
  198MOL0     C26628   1.715   1.761   6.774  0.2464 -0.0595 -0.6853
  198MOL0     C26629   1.617   1.660   6.749 -0.0066 -0.4114 -0.4338
  198MOL0     C26630   1.578   1.633   6.614  0.4238  0.4380  0.5766
  198MOL0     O26631   1.467   1.550   6.592 -0.3027  0.6291 -0.6906
  198MOL0     C26632   1.339   1.613   6.623 -0.3035  1.2624 -0.0224
  198MOL0     C26633   1.246   1.545   6.527  0.4033 -0.1392 -0.5001
  198MOL0     C26634   1.202   1.402   6.566  0.0966  0.3881  0.4053
  198MOL0     C26635   1.169   1.318   6.445 -0.0266  0.3777 -0.2134
  198MOL0     C26636   1.115   1.172   6.454 -1.2648  0.9855 -0.6113
  198MOL0     C26637   1.005   1.143   6.571 -0.4753 -0.0739 -0.5690
  198MOL0     C26638   0.901   1.030   6.538  0.4313 -0.5844 -0.1327
  198MOL0     C26639   0.771   1.095   6.471  0.3477  0.5197  0.4344
  198MOL0    Cl26640   0.656   0.966   6.423 -0.2752 -0.3386 -0.1240
  198MOL0     C26641   1.637   1.710   6.504  0.1040 -0.1909 -0.1896
  198MOL0     C26642   1.729   1.812   6.538  0.5641 -0.1639 -0.2208
  198MOL0     O26643   2.034   1.780   6.682 -0.2365 -0.1680 -0.4294
  198MOL0     C26644   2.062   2.119   6.623 -0.1692 -0.4058  0.2942
  198MOL0     C26645   2.161   2.221   6.607 -0.8772 -0.4245 -0.5966
  198MOL0     N26646   2.716   2.831   6.871  0.9453  0.1792  0.8346
  198MOL0     N26647   2.751   2.824   6.994 -0.0934  0.5766  0.0731
  198MOL0     C26648   1.797   2.801   7.632 -0.0931 -0.6507 -0.0482
  198MOL0     C26649   1.665   2.807   7.661 -0.2119  0.3145  0.6909
  198MOL0     C26650   1.282   2.647   7.794  0.9068 -0.4154  0.0453
  198MOL0     C26651   1.221   2.522   7.777  1.0943  1.0281  0.3925
  198MOL0     C26652   1.084   2.510   7.786  0.2377 -1.0409  0.2048
  198MOL0     C26653   1.000   2.625   7.818 -1.1445  0.3783 -0.0972
  198MOL0     O26654   0.867   2.591   7.831  0.1656 -0.3781 -0.7349
  198MOL0     C26655   0.767   2.689   7.803  0.5514 -0.4997 -0.7974
  198MOL0     C26656   0.673   2.618   7.707  0.8123 -0.0963 -0.2896
  198MOL0     C26657   0.698   2.623   7.551 -0.4514 -0.3582  0.2219
  198MOL0     C26658   0.614   2.522   7.469  0.1474 -0.1361 -0.6727
  198MOL0     C26659   0.462   2.531   7.491  0.4594  0.4091  0.9630
  198MOL0     C26660   0.354   2.563   7.506 -0.0127  0.8343  0.2296
  198MOL0     C26661   1.056   2.749   7.838 -0.4067  0.1479  0.2631
  198MOL0     C26662   1.194   2.761   7.813 -0.6290 -0.0898 -0.5182
  198MOL0     H26663   1.694   2.782   8.005  2.3054 -0.4709  0.7919
  198MOL0     H26664   1.928   2.762   7.943 -0.0120  3.4320  3.2129
  198MOL0     H26665   2.045   2.892   7.516 -0.1745  2.1216  0.2618
  198MOL0     H26666   2.048   2.975   7.680  2.1574  0.0309  1.2432
  198MOL0     H26667   2.282   2.960   7.576 -1.6335  1.2507  1.0497
  198MOL0     H26668   2.260   2.854   7.715 -0.3425 -0.5591 -0.3719
  198MOL0     H26669   2.322   2.680   7.606  0.3505 -2.2826 -0.9255
  198MOL0     H26670   2.181   2.706   7.494 -0.9175  2.9320  0.9616
  198MOL0     H26671   2.323   2.818   7.336 -0.3879  1.3011  0.3648
  198MOL0     H26672   2.437   2.872   7.452 -0.9937  1.3335 -1.7693
  198MOL0     H26673   2.496   2.616   7.474 -0.5772 -0.6645 -0.8242
  198MOL0     H26674   2.402   2.595   7.323 -1.4700 -1.1671  2.0818
  198MOL0     H26675   2.550   2.769   7.221 -0.1460 -1.8984 -0.9020
  198MOL0     H26676   2.652   2.771   7.365  2.2870  0.0292 -0.7497
  198MOL0     H26677   2.714   2.533   7.338  2.0788  1.1527 -0.1619
  198MOL0     H26678   2.600   2.521   7.201 -2.4058  0.0911  2.2526
  198MOL0     H26679   2.857   2.562   7.152 -0.8346  1.2201 -2.6245
  198MOL0     H26680   2.839   2.720   7.226 -0.8742 -0.9030  3.3104
  198MOL0     H26681   2.659   2.509   6.923 -3.7600  1.1816 -1.7580
  198MOL0     H26682   2.614   2.750   6.633  0.4542  0.1074  1.2588
  198MOL0     H26683   2.722   2.618   6.632 -0.3848 -0.1527 -1.0560
  198MOL0     H26684   2.439   2.624   6.751  0.6734 -2.8401  4.1632
  198MOL0     H26685   2.532   2.475   6.754 -1.2068 -0.3060 -0.8179
  198MOL0     H26686   2.551   2.469   6.504 -0.2176  0.5070 -1.1837
  198MOL0     H26687   2.442   2.610   6.507  5.0991  1.1587 -1.5103
  198MOL0     H26688   2.302   2.433   6.482 -1.1087  2.5049  1.1435
  198MOL0     H26689   2.279   2.465   6.648 -0.1191  0.9622 -0.0837
  198MOL0     H26690   2.444   2.067   6.691  0.0362  0.5247  2.4127
  198MOL0     H26691   2.390   1.882   6.814 -0.1841 -0.1679  1.7087
  198MOL0     H26692   2.233   1.804   6.830 -1.2046  0.8552 -0.1995
  198MOL0     H26693   2.316   1.789   6.682  1.0190  1.7099 -0.5913
  198MOL0     H26694   1.747   1.788   6.874 -2.6070 -2.2032  0.9797
  198MOL0     H26695   1.570   1.599   6.825 -1.1114  1.7850  0.7534
  198MOL0     H26696   1.313   1.594   6.728 -0.2449 -0.5490 -0.2930
  198MOL0     H26697   1.337   1.716   6.589 -0.3044  1.2419 -0.0835
  198MOL0     H26698   1.157   1.609   6.529 -0.9075 -1.8207  2.5015
  198MOL0     H26699   1.277   1.552   6.422 -0.4820  1.3991 -0.6840
  198MOL0     H26700   1.113   1.418   6.628 -0.1444 -0.0131  0.1689
  198MOL0     H26701   1.278   1.346   6.620 -0.5360 -2.5889 -1.5431
  198MOL0     H26702   1.104   1.385   6.388  3.0427  3.4086 -0.5304
  198MOL0     H26703   1.260   1.318   6.383 -1.6297 -0.7606 -2.7088
  198MOL0     H26704   1.194   1.099   6.470  0.9319  3.3910  0.2444
  198MOL0     H26705   1.068   1.142   6.360  1.9526 -2.4111 -1.3754
  198MOL0     H26706   1.064   1.124   6.661 -2.4790  3.5310  1.7684
  198MOL0     H26707   0.950   1.237   6.581  1.4389  1.6841 -4.2868
  198MOL0     H26708   0.865   0.983   6.631  2.4272 -0.6599  0.6645
  198MOL0     H26709   0.940   0.950   6.474  0.3450  0.4739 -1.5423
  198MOL0     H26710   0.806   1.153   6.384  2.9099 -0.7898  0.4776
  198MOL0     H26711   0.719   1.160   6.541 -1.0544 -0.9129  0.7681
  198MOL0     H26712   1.593   1.699   6.406  0.3902  0.1363 -0.3572
  198MOL0     H26713   1.763   1.879   6.460 -1.9118  2.0487  0.4125
  198MOL0     H26714   1.957   2.134   6.597 -0.6708 -2.3977  0.9757
  198MOL0     H26715   2.123   2.310   6.559 -2.6812 -1.5142 -1.3087
  198MOL0     H26716   1.835   2.812   7.531 -1.6668 -0.4931 -0.6462
  198MOL0     H26717   1.595   2.811   7.579  0.8234 -1.7655 -0.3490
  198MOL0     H26718   1.273   2.429   7.763 -3.7980 -2.1262  0.7109
  198MOL0     H26719   1.036   2.413   7.781  1.0827 -1.4237 -0.9354
  198MOL0     H26720   0.709   2.716   7.892  1.3529 -1.1550 -0.0667
  198MOL0     H26721   0.812   2.767   7.740  2.7624 -1.0165  0.0502
  198MOL0     H26722   0.575   2.665   7.722  1.0524  0.0203  0.9448
  198MOL0     H26723   0.648   2.518   7.745 -1.4428  0.5332  0.0221
  198MOL0     H26724   0.799   2.610   7.510 -1.1604 -0.2976 -1.6485
  198MOL0     H26725   0.673   2.719   7.505 -0.5050 -1.3074 -1.8484
  198MOL0     H26726   0.643   2.417   7.478  2.2796  0.5281  1.0954
  198MOL0     H26727   0.641   2.554   7.368  2.1055 -1.9045 -0.7696
  198MOL0     H26728   0.254   2.591   7.533 -0.9978 -1.8356 -0.3456
  198MOL0     H26729   0.998   2.833   7.873  1.0243  0.6409  1.5326
  198MOL0     H26730   1.235   2.861   7.824  3.1026 -1.4647 -0.7439
  199MOL0     O26731   4.705   7.960   4.844 -0.5921 -0.2680 -0.5854
  199MOL0     C26732   4.730   7.839   4.817  0.2694 -0.0099 -0.1142
  199MOL0     O26733   4.639   7.744   4.805  0.1341 -0.1955 -0.3173
  199MOL0     C26734   4.503   7.764   4.837  0.0553 -0.1744 -0.5360
  199MOL0     C26735   4.413   7.694   4.760  0.1693 -0.0336  0.4332
  199MOL0     C26736   4.274   7.697   4.776  0.5822  0.7754  0.4963
  199MOL0     C26737   4.218   7.787   4.870 -0.3940  0.4935 -0.0056
  199MOL0     O26738   4.085   7.790   4.885  0.0056  0.5590  0.5093
  199MOL0     C26739   4.014   7.873   4.972  0.8774 -0.3806  0.0433
  199MOL0     C26740   3.869   7.869   4.927 -0.1642  0.4571 -0.3498
  199MOL0     C26741   3.785   7.950   5.030 -0.1662 -0.3711 -0.3379
  199MOL0     C26742   3.649   7.898   5.039  0.6568 -0.5554  0.2485
  199MOL0     C26743   3.559   7.991   5.127 -1.1049 -1.0759  0.7522
  199MOL0     C26744   3.414   7.981   5.090  0.1457 -0.4409 -0.1463
  199MOL0     C26745   3.323   8.046   5.198  1.0383  0.3516 -0.0104
  199MOL0     C26746   3.180   8.057   5.146 -0.1809 -0.3236 -0.6284
  199MOL0     N26747   3.145   8.164   5.056 -0.4258  0.5102  0.2832
  199MOL0     C26748   3.194   8.291   5.043  0.0832 -0.3274 -2.0485
  199MOL0     C26749   3.123   8.347   4.947 -0.5797 -0.3455 -0.0806
  199MOL0     C26750   3.133   8.479   4.881 -0.5898  0.0142  0.1043
  199MOL0     C26751   3.043   8.581   4.934 -0.4839  0.0784  0.4023
  199MOL0     C26752   3.065   8.729   4.878 -0.4603  0.2969 -0.4320
  199MOL0     C26753   2.964   8.825   4.944 -0.5037  0.1302  0.1833
  199MOL0     O26754   2.845   8.838   4.872  0.1741 -0.7364 -0.1542
  199MOL0     C26755   2.742   8.880   4.951  0.2424 -0.3192  0.6351
  199MOL0     C26756   2.738   8.956   5.070  0.1770  0.3203  0.0366
  199MOL0     C26757   2.614   8.990   5.134 -0.0821 -0.6289 -0.7016
  199MOL0     C26758   2.620   9.038   5.283  0.2500 -1.2768  0.4885
  199MOL0     C26759   2.493   8.967   5.070  0.4779  0.2559  0.1426
  199MOL0     C26760   2.356   9.006   5.121  0.6242  0.2059  0.2429
  199MOL0     O26761   2.249   8.971   5.040 -0.1967  0.4474 -0.2087
  199MOL0     C26762   2.114   8.983   5.080 -0.7912 -0.0152 -0.6736
  199MOL0     C26763   2.071   9.113   5.112  0.0524  0.1783 -0.1792
  199MOL0     C26764   1.939   9.142   5.151  0.4062  0.3510 -0.7124
  199MOL0     C26765   1.848   9.031   5.151  0.5024 -0.1042 -0.0471
  199MOL0     O26766   1.720   9.050   5.199 -0.0286 -0.0679  0.2184
  199MOL0     C26767   1.663   9.181   5.170 -0.0811 -0.5580 -0.9458
  199MOL0     C26768   1.509   9.182   5.173 -0.6275 -0.2201 -0.0846
  199MOL0     C26769   1.455   9.328   5.166  0.1272 -0.2464  0.1243
  199MOL0     C26770   1.453   9.398   5.313 -0.5649  0.4695 -0.1079
  199MOL0     C26771   1.423   9.541   5.319 -0.8317 -0.5687 -0.2373
  199MOL0     C26772   1.397   9.578   5.464  0.1993 -0.0727  0.0049
  199MOL0     C26773   1.512   9.559   5.563 -0.1890 -0.1857 -0.5324
  199MOL0     C26774   1.525   9.680   5.653 -0.2141  0.0875 -0.0191
  199MOL0    Cl26775   1.651   9.661   5.781 -0.1127 -0.1068 -0.2993
  199MOL0     C26776   1.901   8.900   5.127  0.3501  0.5805 -1.0121
  199MOL0     C26777   2.037   8.874   5.097  0.1207  0.3024  0.0235
  199MOL0     O26778   2.347   9.078   5.213  0.0939  0.0639 -0.2243
  199MOL0     C26779   2.502   8.906   4.939 -0.3369 -0.9069 -0.2131
  199MOL0     C26780   2.621   8.873   4.880 -0.4948 -0.2780 -0.2535
  199MOL0     N26781   3.017   8.265   4.906 -0.4932 -0.1391 -0.4201
  199MOL0     N26782   3.031   8.156   4.981 -0.3375 -0.2992  0.4306
  199MOL0     C26783   4.311   7.864   4.944  0.3863 -0.0041  0.0018
  199MOL0     C26784   4.450   7.845   4.939  0.1893 -0.7496 -0.0167
  199MOL0     C26785   4.871   7.798   4.807 -0.5846 -1.1530 -0.6917
  199MOL0     C26786   4.897   7.661   4.817 -0.3434  0.1047 -0.4871
  199MOL0     C26787   5.033   7.621   4.819 -0.0666  0.4933 -0.1204
  199MOL0     C26788   5.141   7.715   4.786  0.1481  0.4227  0.0685
  199MOL0     O26789   5.274   7.690   4.767  0.3701  0.0543  0.0723
  199MOL0     C26790   5.316   7.575   4.835 -0.1266  0.6555 -0.2220
  199MOL0     C26791   5.467   7.550   4.808  1.2621  0.3449  0.2452
  199MOL0     C26792   5.486   7.488   4.664  0.4316 -0.6557 -0.2653
  199MOL0     C26793   5.633   7.484   4.628 -0.2738  0.3984  0.4541
  199MOL0     C26794   5.655   7.469   4.480 -0.2842 -0.5007  0.0961
  199MOL0     C26795   5.649   7.463   4.360 -0.2013 -0.8678 -0.2857
  199MOL0     C26796   5.110   7.847   4.757  0.3239  0.1412  0.2201
  199MOL0     C26797   4.978   7.890   4.772  0.4520 -0.4116 -0.0311
  199MOL0     H26798   4.453   7.623   4.689  0.9865 -0.6068  1.4479
  199MOL0     H26799   4.203   7.648   4.710  2.7230  0.5733 -1.8698
  199MOL0     H26800   4.022   7.827   5.072 -0.4362  0.1963  0.4313
  199MOL0     H26801   4.049   7.976   4.979  1.7970 -0.5045 -2.1914
  199MOL0     H26802   3.857   7.917   4.829  2.1828  3.2950  0.6116
  199MOL0     H26803   3.826   7.769   4.934  0.8415  0.1139  1.6560
  199MOL0     H26804   3.832   7.933   5.128 -1.5137 -1.1307  0.2029
  199MOL0     H26805   3.787   8.059   5.017 -0.6766 -0.0575  1.7048
  199MOL0     H26806   3.603   7.878   4.942  0.5888 -1.5342  0.4693
  199MOL0     H26807   3.649   7.796   5.079 -3.7992 -0.5231  0.7734
  199MOL0     H26808   3.577   7.970   5.233  0.9947 -0.9932  0.4492
  199MOL0     H26809   3.592   8.093   5.104  0.9642 -1.9444 -0.3677
  199MOL0     H26810   3.403   8.035   4.995 -0.8447  1.6841  1.1010
  199MOL0     H26811   3.373   7.880   5.079 -2.1957  0.4896 -0.5316
  199MOL0     H26812   3.331   7.991   5.292 -2.1160  1.8409  1.2731
  199MOL0     H26813   3.367   8.145   5.215  3.5538 -0.6711 -0.0885
  199MOL0     H26814   3.123   8.069   5.239 -3.6866  0.2239 -2.6947
  199MOL0     H26815   3.147   7.958   5.112 -0.7472  0.0642 -1.2058
  199MOL0     H26816   3.281   8.340   5.086  0.0865  0.6813 -3.1453
  199MOL0     H26817   3.231   8.523   4.901  0.3069 -0.9290 -1.9335
  199MOL0     H26818   3.117   8.469   4.773  2.6687  3.3655 -0.8853
  199MOL0     H26819   3.044   8.578   5.043  4.1390  2.1990  0.6725
  199MOL0     H26820   2.938   8.557   4.914 -0.5510 -0.0798  0.9362
  199MOL0     H26821   3.059   8.749   4.771  0.7832  0.6478 -0.4520
  199MOL0     H26822   3.161   8.773   4.909 -1.3859  1.5373  0.7814
  199MOL0     H26823   3.018   8.918   4.966 -1.1153  0.5919 -0.2368
  199MOL0     H26824   2.947   8.781   5.042 -1.9765 -0.4882 -0.3306
  199MOL0     H26825   2.836   8.981   5.111 -0.4228  1.3679  0.8805
  199MOL0     H26826   2.587   9.141   5.295 -1.4189 -1.5576 -1.2395
  199MOL0     H26827   2.553   8.972   5.341  0.0136  0.6824  2.5799
  199MOL0     H26828   2.722   9.028   5.322  1.0334  2.1556 -0.3925
  199MOL0     H26829   2.150   9.186   5.096  0.0477  0.4221  0.8830
  199MOL0     H26830   1.908   9.239   5.189 -1.7232 -0.5681  0.0384
  199MOL0     H26831   1.698   9.249   5.247 -0.9663 -1.6747  0.4895
  199MOL0     H26832   1.691   9.220   5.072 -1.3512 -2.5618 -2.2009
  199MOL0     H26833   1.472   9.128   5.085  2.5990  0.1436 -1.8180
  199MOL0     H26834   1.472   9.142   5.268 -0.5811  2.2833  1.0583
  199MOL0     H26835   1.354   9.332   5.125  0.3090  0.3842 -0.2752
  199MOL0     H26836   1.509   9.389   5.093 -1.1414 -0.8139 -1.3491
  199MOL0     H26837   1.376   9.346   5.371  0.0142 -1.5874 -1.0900
  199MOL0     H26838   1.554   9.385   5.353 -0.4484 -0.6327 -0.7227
  199MOL0     H26839   1.337   9.556   5.254  0.0832 -1.6708 -1.7845
  199MOL0     H26840   1.509   9.600   5.286  0.3805 -1.5730  1.0081
  199MOL0     H26841   1.376   9.685   5.457  0.7452  0.0795  0.5709
  199MOL0     H26842   1.312   9.517   5.494  2.1463 -2.2256  1.4609
  199MOL0     H26843   1.609   9.553   5.513  0.5749  1.4530  0.6465
  199MOL0     H26844   1.485   9.475   5.628 -2.1702  0.3938 -0.5293
  199MOL0     H26845   1.426   9.697   5.696  0.1729 -1.5630  1.7021
  199MOL0     H26846   1.542   9.766   5.587 -1.5147 -0.3619 -0.9768
  199MOL0     H26847   1.838   8.813   5.145 -0.2163  0.9471 -1.1917
  199MOL0     H26848   2.074   8.773   5.083 -2.3653 -1.1894  2.9020
  199MOL0     H26849   2.410   8.869   4.895 -1.4841 -1.6380  2.5695
  199MOL0     H26850   2.620   8.837   4.778 -1.3728 -0.5938 -0.1358
  199MOL0     H26851   4.270   7.940   5.009 -2.0440  1.6443 -3.1872
  199MOL0     H26852   4.514   7.887   5.016  0.1407 -2.7600  1.1889
  199MOL0     H26853   4.821   7.585   4.832 -1.6292  0.8723 -2.6816
  199MOL0     H26854   5.051   7.514   4.824 -0.5672  0.1280 -3.6172
  199MOL0     H26855   5.300   7.597   4.941  0.8600 -0.9328  0.2888
  199MOL0     H26856   5.257   7.487   4.807 -1.4878  1.9318 -1.5892
  199MOL0     H26857   5.512   7.480   4.880 -0.9099 -1.2884  0.1292
  199MOL0     H26858   5.524   7.642   4.820  0.2094  1.0219  0.1489
  199MOL0     H26859   5.420   7.541   4.594 -0.0291 -3.5479 -2.1592
  199MOL0     H26860   5.451   7.386   4.651 -1.1723  0.1184 -2.8820
  199MOL0     H26861   5.677   7.397   4.676 -1.1277  0.0163  0.5579
  199MOL0     H26862   5.690   7.569   4.668  0.5075 -0.2182  0.6888
  199MOL0     H26863   5.648   7.450   4.254  1.1859  1.5712 -0.6847
  199MOL0     H26864   5.191   7.916   4.739  0.7143  0.0947  1.6600
  199MOL0     H26865   4.939   7.989   4.751 -0.8311 -1.1045 -1.0918
  200MOL0     O26866   8.038  10.844   5.915 -0.3391 -0.4547  0.3708
  200MOL0     C26867   8.016  10.921   6.008 -0.5535  0.3626 -0.4499
  200MOL0     O26868   7.894  10.948   6.067  0.0584  0.7144 -0.0663
  200MOL0     C26869   7.777  10.903   6.021  0.5411 -0.2174  0.2456
  200MOL0     C26870   7.726  10.927   5.894 -0.1400 -0.2066  0.3373
  200MOL0     C26871   7.597  10.883   5.864 -1.1626  0.3359  0.5337
  200MOL0     C26872   7.523  10.804   5.941  0.7883 -0.0811  0.3863
  200MOL0     O26873   7.414  10.734   5.895 -0.2733 -0.8760  0.2858
  200MOL0     C26874   7.321  10.679   5.979  0.4300 -0.1510 -0.3617
  200MOL0     C26875   7.197  10.622   5.909 -0.0748 -0.0615  0.4517
  200MOL0     C26876   7.115  10.543   6.017  0.1115 -0.4376 -0.4909
  200MOL0     C26877   6.994  10.464   5.970  0.1626 -0.0653 -0.2523
  200MOL0     C26878   6.867  10.539   5.924  0.2474 -0.1314 -0.1561
  200MOL0     C26879   6.761  10.440   5.867  0.1562  0.2559  0.0463
  200MOL0     C26880   6.626  10.508   5.848  0.5855  0.9127 -0.5683
  200MOL0     C26881   6.624  10.618   5.745  0.1313 -1.2849  0.1184
  200MOL0     N26882   6.487  10.641   5.700  0.6156  0.6399  0.4960
  200MOL0     C26883   6.400  10.551   5.649 -0.5886  0.0482  0.2480
  200MOL0     C26884   6.275  10.601   5.675  0.4763 -0.2604  0.0226
  200MOL0     C26885   6.144  10.532   5.638 -0.4274 -0.3356  0.6499
  200MOL0     C26886   6.146  10.498   5.483 -0.1940  0.0315 -1.1149
  200MOL0     C26887   5.997  10.468   5.445 -1.1002  0.4202 -0.3190
  200MOL0     C26888   5.990  10.401   5.304 -0.5178  0.2262  0.1888
  200MOL0     O26889   5.865  10.365   5.270 -0.1515 -0.3676  0.3533
  200MOL0     C26890   5.769  10.460   5.257 -1.0731  0.3198  0.1923
  200MOL0     C26891   5.791  10.577   5.194 -0.2128  0.9778  0.2865
  200MOL0     C26892   5.680  10.666   5.157 -0.9158 -0.5714  0.4049
  200MOL0     C26893   5.720  10.802   5.107  0.4157  0.2074 -0.6551
  200MOL0     C26894   5.550  10.636   5.209  0.4516  0.0800 -0.2835
  200MOL0     C26895   5.430  10.724   5.199  0.1140 -0.1911 -0.7398
  200MOL0     O26896   5.321  10.670   5.265  0.0372 -0.1601  0.1103
  200MOL0     C26897   5.203  10.728   5.237  0.0234  0.0404 -0.3023
  200MOL0     C26898   5.112  10.663   5.153  0.3633  0.2707 -0.2891
  200MOL0     C26899   4.982  10.723   5.154 -1.1589  0.6750  0.2080
  200MOL0     C26900   4.956  10.848   5.201  0.3307 -0.8270  0.0588
  200MOL0     O26901   4.832  10.897   5.176 -0.2560  0.8133  0.8707
  200MOL0     C26902   4.778  10.961   5.300 -0.0938  0.4703 -0.0776
  200MOL0     C26903   4.634  10.993   5.260  0.2114  0.3618  0.0223
  200MOL0     C26904   4.533  10.876   5.255 -0.3425 -0.4562  0.6523
  200MOL0     C26905   4.401  10.917   5.186 -0.4237 -0.5487  0.3846
  200MOL0     C26906   4.298  10.997   5.281  0.8733 -0.1369 -0.2957
  200MOL0     C26907   4.167  11.044   5.217  0.4674 -0.2036 -0.0417
  200MOL0     C26908   4.077  10.921   5.203 -0.6839  0.2581 -0.1044
  200MOL0     C26909   3.929  10.952   5.176  0.5764  0.7232  1.0714
  200MOL0    Cl26910   3.832  10.798   5.175  0.1993  0.0177  0.0710
  200MOL0     C26911   5.044  10.906   5.298 -0.4620  0.5366  0.4527
  200MOL0     C26912   5.170  10.839   5.309 -0.6217 -0.9438 -0.0639
  200MOL0     O26913   5.426  10.830   5.141  0.2136  0.2217 -0.0635
  200MOL0     C26914   5.533  10.509   5.277 -0.8295 -0.6795  0.1455
  200MOL0     C26915   5.642  10.421   5.290  0.5149 -0.1767  0.7508
  200MOL0     N26916   6.286  10.723   5.741  1.0880 -0.3630 -0.3377
  200MOL0     N26917   6.411  10.737   5.753  0.0182 -0.5586 -1.2870
  200MOL0     C26918   7.572  10.782   6.069  0.2307 -0.8391  0.2059
  200MOL0     C26919   7.699  10.828   6.107  1.8367  0.5842 -0.1573
  200MOL0     C26920   8.136  10.979   6.070 -0.4943  0.0178  0.7804
  200MOL0     C26921   8.258  10.988   5.987 -0.0610  1.1719 -0.2956
  200MOL0     C26922   8.373  11.040   6.047 -0.0470 -0.2927  1.1410
  200MOL0     C26923   8.376  11.078   6.181 -0.6202  0.0901  0.6007
  200MOL0     O26924   8.491  11.125   6.252  0.1365  0.0429 -0.0439
  200MOL0     C26925   8.592  11.186   6.171 -0.1267  0.1215 -0.4257
  200MOL0     C26926   8.639  11.317   6.235  0.0145 -0.4445  0.1052
  200MOL0     C26927   8.763  11.389   6.177 -0.2148  0.9052  0.6640
  200MOL0     C26928   8.799  11.520   6.246  0.1224  1.4721 -1.2568
  200MOL0     C26929   8.697  11.617   6.263 -0.1001 -0.3316 -0.3490
  200MOL0     C26930   8.609  11.700   6.287 -0.1689 -0.2021 -0.7480
  200MOL0     C26931   8.257  11.074   6.260  0.5359 -0.4039  0.7366
  200MOL0     C26932   8.136  11.035   6.204  0.4020  0.6776  0.6626
  200MOL0     H26933   7.785  10.977   5.818  4.4650  1.0512  4.2701
  200MOL0     H26934   7.552  10.897   5.766 -3.3739  0.0349  1.4386
  200MOL0     H26935   7.360  10.601   6.045 -0.4918  0.3566  0.8307
  200MOL0     H26936   7.297  10.760   6.049  2.9658  0.0216  0.4306
  200MOL0     H26937   7.127  10.690   5.860 -0.2751 -0.4898  0.1415
  200MOL0     H26938   7.228  10.555   5.829  2.5727  1.6090 -0.0363
  200MOL0     H26939   7.186  10.475   6.066 -1.8673 -1.6647  0.8087
  200MOL0     H26940   7.069  10.615   6.085  0.3451  0.3088 -1.1124
  200MOL0     H26941   7.029  10.397   5.892  3.0345 -0.2771  1.0928
  200MOL0     H26942   6.964  10.396   6.050  1.5744 -1.9351 -1.2548
  200MOL0     H26943   6.822  10.589   6.011  1.0053  0.5941 -0.1665
  200MOL0     H26944   6.894  10.608   5.844 -1.1364  3.6678  2.3194
  200MOL0     H26945   6.794  10.407   5.767 -2.1800 -0.1356 -0.6516
  200MOL0     H26946   6.761  10.352   5.932  0.7940  0.8012  0.8130
  200MOL0     H26947   6.567  10.424   5.811  2.0575 -0.6916  0.5248
  200MOL0     H26948   6.589  10.534   5.947  1.4298 -0.8594  0.2636
  200MOL0     H26949   6.683  10.584   5.659 -0.0126  1.9369 -1.3943
  200MOL0     H26950   6.675  10.711   5.773  1.6180 -0.6099 -4.1114
  200MOL0     H26951   6.432  10.465   5.590  0.2669  2.2740 -2.7620
  200MOL0     H26952   6.124  10.450   5.707 -1.2238 -1.4898 -0.8966
  200MOL0     H26953   6.076  10.615   5.663 -3.0593 -2.0691 -0.4253
  200MOL0     H26954   6.212  10.415   5.455 -0.1556 -0.8836  1.4270
  200MOL0     H26955   6.173  10.592   5.433 -0.0589 -0.4344 -1.9463
  200MOL0     H26956   5.944  10.563   5.448 -2.2135 -0.1969  1.7746
  200MOL0     H26957   5.946  10.406   5.520 -0.0725  0.7804  0.7001
  200MOL0     H26958   6.060  10.319   5.285 -0.1345  0.5449  0.2126
  200MOL0     H26959   6.026  10.478   5.235  1.2926 -0.1215  0.7133
  200MOL0     H26960   5.889  10.608   5.159  0.3616 -2.4170 -1.6412
  200MOL0     H26961   5.825  10.818   5.081 -0.1647  2.2610 -1.9051
  200MOL0     H26962   5.660  10.822   5.018 -1.6507  1.1632  0.8879
  200MOL0     H26963   5.694  10.877   5.183  0.6291 -0.3665 -0.0006
  200MOL0     H26964   5.144  10.578   5.094  0.9986 -0.5543  1.2051
  200MOL0     H26965   4.914  10.654   5.104 -0.2042 -0.6119  0.6373
  200MOL0     H26966   4.770  10.895   5.387  0.0712 -0.4874 -0.7791
  200MOL0     H26967   4.830  11.055   5.322 -0.4499  0.3087  1.6074
  200MOL0     H26968   4.594  11.068   5.329  0.8172  0.9731 -0.2800
  200MOL0     H26969   4.633  11.038   5.160  1.4338  0.6665  0.1270
  200MOL0     H26970   4.514  10.830   5.353 -0.2556 -1.8183  0.0425
  200MOL0     H26971   4.574  10.796   5.194  1.9861 -0.7368  2.4261
  200MOL0     H26972   4.421  10.971   5.093  0.5500 -2.2948 -0.4697
  200MOL0     H26973   4.354  10.821   5.160  1.9724 -2.3166  2.1458
  200MOL0     H26974   4.358  11.080   5.320  2.0182 -1.1152  0.0840
  200MOL0     H26975   4.269  10.937   5.368 -0.3788  1.7701  0.6749
  200MOL0     H26976   4.106  11.118   5.270 -0.7122  0.4416 -2.1839
  200MOL0     H26977   4.174  11.078   5.114 -3.5887 -2.4461 -1.2908
  200MOL0     H26978   4.082  10.858   5.292  3.5836  2.0246  1.1631
  200MOL0     H26979   4.123  10.859   5.125  2.2309  0.2356  1.4775
  200MOL0     H26980   3.921  11.004   5.080  1.7210  1.3150  1.2785
  200MOL0     H26981   3.888  11.001   5.265 -0.7307 -2.1113  2.1684
  200MOL0     H26982   5.020  10.994   5.357 -0.2744  1.5074 -0.8745
  200MOL0     H26983   5.236  10.884   5.384  0.0320 -0.7313 -0.7522
  200MOL0     H26984   5.437  10.470   5.308 -1.0292  0.2668  0.7392
  200MOL0     H26985   5.630  10.324   5.338  2.7784 -0.3924  0.9763
  200MOL0     H26986   7.497  10.742   6.137 -2.2636  2.1379 -0.5556
  200MOL0     H26987   7.740  10.800   6.204  3.9133 -0.1005 -1.1680
  200MOL0     H26988   8.258  10.962   5.881 -1.3948 -0.2625  0.0128
  200MOL0     H26989   8.457  11.046   5.978 -0.0973  1.7428  1.2126
  200MOL0     H26990   8.685  11.128   6.165 -1.0634 -1.2981 -2.4079
  200MOL0     H26991   8.557  11.205   6.069 -2.0294 -2.7966 -0.4456
  200MOL0     H26992   8.656  11.305   6.342  1.9974  1.1265  0.0231
  200MOL0     H26993   8.553  11.382   6.213 -1.7140 -2.4091  0.6812
  200MOL0     H26994   8.753  11.423   6.074 -1.4746 -2.1246 -0.3417
  200MOL0     H26995   8.848  11.320   6.179 -0.6193  0.2184 -2.1204
  200MOL0     H26996   8.883  11.570   6.196  3.1109  0.8670  2.6694
  200MOL0     H26997   8.840  11.488   6.343 -2.1674 -0.9932 -0.9923
  200MOL0     H26998   8.534  11.769   6.321  2.3086  3.2080 -1.6275
  200MOL0     H26999   8.278  11.101   6.363  0.2514 -1.3550  1.0526
  200MOL0     H27000   8.043  11.032   6.260 -0.2494 -0.6508 -0.4125
  201MOL0     O27001   0.267  11.225  10.755 -0.0781  0.5883  0.0593
  201MOL0     C27002   0.290  11.204  10.876  0.2174 -0.3554 -0.1780
  201MOL0     O27003   0.228  11.272  10.983 -0.3246 -0.3211 -0.2383
  201MOL0     C27004   0.149  11.377  10.949  0.1998  0.0763  0.0794
  201MOL0     C27005   0.203  11.504  10.928 -0.4052 -2.0983 -0.3652
  201MOL0     C27006   0.124  11.613  10.896 -0.2466 -0.6137 -0.0640
  201MOL0     C27007  -0.014  11.587  10.890 -0.2623 -0.2794 -0.4440
  201MOL0     O27008  -0.109  11.675  10.878  0.5145  0.5704  0.5599
  201MOL0     C27009  -0.151  11.704  10.742  0.3676  0.6109  0.1358
  201MOL0     C27010  -0.236  11.831  10.741  0.8455 -0.0195  0.4315
  201MOL0     C27011  -0.373  11.813  10.788  0.2887 -0.6932 -0.5422
  201MOL0     C27012  -0.451  11.946  10.762 -0.0511  0.6686  0.8424
  201MOL0     C27013  -0.606  11.920  10.786  0.4364  0.2033 -0.0896
  201MOL0     C27014  -0.686  12.050  10.830  0.3445 -0.0393 -0.1523
  201MOL0     C27015  -0.836  12.028  10.830  0.8232  0.4322  0.2229
  201MOL0     C27016  -0.910  12.160  10.861  1.1691  0.5207 -0.0731
  201MOL0     N27017  -1.051  12.138  10.839 -0.7019 -0.3862 -0.3079
  201MOL0     C27018  -1.121  12.030  10.885 -0.3125 -0.4076 -0.0546
  201MOL0     C27019  -1.256  12.073  10.890 -0.2667 -0.1919 -0.5409
  201MOL0     C27020  -1.376  11.984  10.915  0.5685 -0.0888  0.5644
  201MOL0     C27021  -1.483  11.986  10.807 -0.6001 -0.0037  0.3214
  201MOL0     C27022  -1.445  11.922  10.674 -0.2588 -0.0294 -0.3263
  201MOL0     C27023  -1.563  11.950  10.566  0.0500 -0.2220  0.2282
  201MOL0     O27024  -1.676  11.879  10.620 -0.0216  0.0577  0.6655
  201MOL0     C27025  -1.803  11.931  10.638 -0.5716  0.7942  0.6253
  201MOL0     C27026  -1.828  12.068  10.621 -0.2786  0.2578  0.2598
  201MOL0     C27027  -1.954  12.120  10.633  0.5132 -0.4378 -0.3929
  201MOL0     C27028  -1.940  12.279  10.641  0.5565  0.0442  0.5203
  201MOL0     C27029  -2.073  12.032  10.647 -0.2793  0.0032  1.1007
  201MOL0     C27030  -2.208  12.087  10.642  0.0829  0.6267  0.8594
  201MOL0     O27031  -2.301  11.986  10.641 -0.0554  0.6860 -0.4173
  201MOL0     C27032  -2.433  12.006  10.661  0.6137 -0.0071 -0.3782
  201MOL0     C27033  -2.512  12.046  10.558 -0.0965 -0.1401 -0.0262
  201MOL0     C27034  -2.649  12.043  10.575  0.5664 -0.2128 -0.4095
  201MOL0     C27035  -2.716  11.979  10.683 -0.3042  0.8846 -0.0163
  201MOL0     O27036  -2.848  11.956  10.688 -0.3646 -0.4100 -0.1956
  201MOL0     C27037  -2.946  12.035  10.636  1.2389 -0.4319 -0.1572
  201MOL0     C27038  -3.072  11.950  10.648 -0.0773 -0.2607 -0.1132
  201MOL0     C27039  -3.189  12.045  10.608 -0.1245  0.4475  0.7481
  201MOL0     C27040  -3.314  11.967  10.638 -0.0888 -0.2464 -0.8267
  201MOL0     C27041  -3.435  12.056  10.599 -0.4137 -0.1259  0.4355
  201MOL0     C27042  -3.564  11.981  10.642 -0.8370  0.8054 -0.3111
  201MOL0     C27043  -3.694  12.077  10.637  0.4041  0.6369  0.0632
  201MOL0     C27044  -3.828  12.018  10.682  0.3793  0.6222 -0.1153
  201MOL0    Cl27045  -3.965  12.126  10.674 -0.0928  0.4235  0.2247
  201MOL0     C27046  -2.630  11.928  10.782 -0.6398  0.7712  0.4073
  201MOL0     C27047  -2.487  11.945  10.773  0.2361  0.1977 -0.6409
  201MOL0     O27048  -2.234  12.201  10.625  0.1202 -0.5044 -0.4257
  201MOL0     C27049  -2.047  11.891  10.672 -1.0667 -0.7995 -0.3975
  201MOL0     C27050  -1.911  11.847  10.671  0.0268 -0.4275 -1.4493
  201MOL0     N27051  -1.258  12.201  10.847  0.5007 -0.7249  0.3739
  201MOL0     N27052  -1.145  12.235  10.817 -0.0794  0.1701 -0.0610
  201MOL0     C27053  -0.073  11.466  10.918 -0.3035  0.5523  0.2533
  201MOL0     C27054   0.009  11.357  10.942 -0.2387 -0.5537 -0.0640
  201MOL0     C27055   0.380  11.093  10.911 -0.3835  0.1569 -0.1689
  201MOL0     C27056   0.386  11.060  11.049 -0.1825  0.0174  1.1641
  201MOL0     C27057   0.473  10.951  11.090 -1.4841 -0.2377  0.6831
  201MOL0     C27058   0.558  10.882  10.996  0.1402 -0.6146 -0.0176
  201MOL0     O27059   0.630  10.775  11.040  0.2442 -0.0487  0.4141
  201MOL0     C27060   0.752  10.731  10.974  0.0902  0.6279  0.9913
  201MOL0     C27061   0.838  10.646  11.079 -0.1197  0.4972 -0.7291
  201MOL0     C27062   0.773  10.524  11.136 -0.7027 -0.7421 -0.6989
  201MOL0     C27063   0.856  10.409  11.188 -0.0053 -0.1484  0.1182
  201MOL0     C27064   0.982  10.457  11.245 -0.9661  0.8091  0.4019
  201MOL0     C27065   1.088  10.506  11.289 -0.1590 -0.8238  0.5646
  201MOL0     C27066   0.535  10.911  10.859  0.2498 -0.5370  0.2717
  201MOL0     C27067   0.448  11.016  10.818  0.7010 -0.4032 -0.2554
  201MOL0     H27068   0.311  11.502  10.938 -0.3240 -2.1038 -1.1992
  201MOL0     H27069   0.163  11.714  10.887  1.2688 -1.3133 -2.0135
  201MOL0     H27070  -0.073  11.727  10.669 -1.0499 -0.3111 -1.7307
  201MOL0     H27071  -0.207  11.616  10.712  1.6857 -0.4020  0.5350
  201MOL0     H27072  -0.188  11.911  10.798 -0.4859  1.8881 -0.9957
  201MOL0     H27073  -0.242  11.861  10.636  0.8754  0.9644  0.6987
  201MOL0     H27074  -0.430  11.740  10.730  0.3165  0.8807 -2.6353
  201MOL0     H27075  -0.375  11.795  10.896 -0.7098  0.6953 -0.2950
  201MOL0     H27076  -0.420  12.022  10.834 -0.2185  0.5243  1.0686
  201MOL0     H27077  -0.437  11.983  10.660  1.8497  0.8871  1.1478
  201MOL0     H27078  -0.648  11.876  10.695  0.9072 -0.8170  0.1758
  201MOL0     H27079  -0.624  11.852  10.869 -0.6740 -1.3097 -1.5048
  201MOL0     H27080  -0.649  12.074  10.930  4.4316 -0.6349 -1.3740
  201MOL0     H27081  -0.666  12.126  10.754  0.5901 -0.9893 -1.0682
  201MOL0     H27082  -0.886  11.980  10.746  0.8608 -1.2029  1.0984
  201MOL0     H27083  -0.855  11.965  10.917 -0.7939  1.3950  0.6006
  201MOL0     H27084  -0.881  12.241  10.794 -0.0958  0.1623 -1.1079
  201MOL0     H27085  -0.897  12.185  10.966 -0.4351 -0.0707  0.2942
  201MOL0     H27086  -1.079  11.930  10.894  0.9355  0.0430 -0.6347
  201MOL0     H27087  -1.348  11.882  10.941  1.9624  0.2445  0.4501
  201MOL0     H27088  -1.430  12.023  11.003 -0.3027 -3.0042  1.4290
  201MOL0     H27089  -1.521  12.086  10.788 -1.8368  0.2196  3.4390
  201MOL0     H27090  -1.566  11.933  10.855  0.1578 -2.5415 -0.9402
  201MOL0     H27091  -1.426  11.815  10.689  0.9959  0.2845  0.4560
  201MOL0     H27092  -1.356  11.967  10.629  0.7358 -2.7567 -1.2811
  201MOL0     H27093  -1.552  11.900  10.469 -0.4571 -0.9004  0.5116
  201MOL0     H27094  -1.591  12.054  10.547 -2.0682 -0.5964  1.0306
  201MOL0     H27095  -1.746  12.138  10.613  0.4380 -0.6067 -0.2416
  201MOL0     H27096  -1.922  12.323  10.542  2.5052  0.4029  0.9934
  201MOL0     H27097  -2.033  12.317  10.685  1.6626  0.1754  2.8883
  201MOL0     H27098  -1.864  12.303  10.716  1.7410 -2.4009  0.1965
  201MOL0     H27099  -2.476  12.075  10.460  0.2936  1.4434  0.5416
  201MOL0     H27100  -2.714  12.078  10.494 -0.9111 -1.0524  0.3696
  201MOL0     H27101  -2.953  12.125  10.698 -1.5387 -0.2328 -0.6329
  201MOL0     H27102  -2.941  12.059  10.529 -2.8962  0.7871 -0.2621
  201MOL0     H27103  -3.062  11.861  10.585 -0.5154 -0.8545  0.6328
  201MOL0     H27104  -3.087  11.916  10.751  0.5776  1.4869  0.5961
  201MOL0     H27105  -3.180  12.067  10.501 -3.7534  0.2131  0.2571
  201MOL0     H27106  -3.175  12.142  10.655  0.3566  0.9059 -0.3115
  201MOL0     H27107  -3.314  11.874  10.579  1.4426 -1.5024  1.0442
  201MOL0     H27108  -3.324  11.943  10.744 -1.3493  0.5893 -0.7276
  201MOL0     H27109  -3.428  12.074  10.491 -2.1173 -1.1179  0.1242
  201MOL0     H27110  -3.423  12.146  10.660  0.8505  0.1499 -0.1946
  201MOL0     H27111  -3.571  11.886  10.589 -0.3811  0.5867  0.0167
  201MOL0     H27112  -3.555  11.965  10.750  0.5032  4.9012  0.3783
  201MOL0     H27113  -3.710  12.107  10.533 -0.0732  2.0322  0.5166
  201MOL0     H27114  -3.657  12.157  10.701  1.9288  1.1003 -1.3634
  201MOL0     H27115  -3.816  11.985  10.786  0.2841  2.5749  0.5486
  201MOL0     H27116  -3.850  11.933  10.617 -2.4586  0.9465  0.3028
  201MOL0     H27117  -2.667  11.873  10.867 -0.3331 -0.3316 -0.1521
  201MOL0     H27118  -2.412  11.887  10.827 -1.6362 -1.1409  0.6744
  201MOL0     H27119  -2.130  11.826  10.699 -1.5910 -0.0349 -0.1492
  201MOL0     H27120  -1.894  11.742  10.688 -0.1207 -0.2529 -0.0944
  201MOL0     H27121  -0.181  11.463  10.906 -0.3477  3.4456 -0.9264
  201MOL0     H27122  -0.030  11.259  10.971  1.2385 -1.3743 -0.7364
  201MOL0     H27123   0.330  11.121  11.119  0.9474  2.7647 -0.1781
  201MOL0     H27124   0.474  10.919  11.194  1.3451 -2.1981  0.1436
  201MOL0     H27125   0.718  10.676  10.886 -0.6023  2.5424  0.0092
  201MOL0     H27126   0.812  10.817  10.942 -2.2922  2.1193  0.2394
  201MOL0     H27127   0.859  10.711  11.165 -2.4836 -0.3078  0.5433
  201MOL0     H27128   0.933  10.623  11.030 -0.2413  1.3912 -1.4046
  201MOL0     H27129   0.709  10.484  11.056 -1.2590 -0.5858 -0.3427
  201MOL0     H27130   0.706  10.566  11.212  1.8420  1.2304  0.5852
  201MOL0     H27131   0.878  10.325  11.121  0.8080 -0.2545  0.4966
  201MOL0     H27132   0.808  10.380  11.282  1.0476  0.9701  1.0449
  201MOL0     H27133   1.184  10.548  11.311 -0.8895  1.1148  0.2527
  201MOL0     H27134   0.576  10.839  10.788  0.0522 -0.5990  0.2179
  201MOL0     H27135   0.416  11.033  10.716  2.1920 -1.9383 -1.0218
  202MOL0     O27136  10.324  10.333   4.024  0.1784  0.2860 -0.8836
  202MOL0     C27137  10.326  10.312   3.907  0.4853  0.0651  0.0647
  202MOL0     O27138  10.219  10.292   3.824  0.3442 -0.3597  0.5538
  202MOL0     C27139  10.092  10.281   3.868  0.8196  0.4275 -0.3493
  202MOL0     C27140  10.010  10.391   3.873 -0.0406  0.2585  0.3879
  202MOL0     C27141   9.876  10.387   3.920 -0.3615 -0.0711  0.6931
  202MOL0     C27142   9.827  10.266   3.980 -0.6184 -0.4638 -0.1865
  202MOL0     O27143   9.710  10.248   4.047 -0.5415  0.4755  0.6364
  202MOL0     C27144   9.595  10.290   3.976  0.5957  0.1324 -0.0454
  202MOL0     C27145   9.472  10.244   4.060 -0.0488  0.2593 -0.7070
  202MOL0     C27146   9.346  10.312   4.005  0.2623  0.3593  0.1405
  202MOL0     C27147   9.224  10.230   4.053  0.6283  0.8885 -0.3060
  202MOL0     C27148   9.119  10.245   3.952 -0.4341  0.5142 -0.0953
  202MOL0     C27149   9.020  10.143   3.961  0.0651  0.0144 -0.0240
  202MOL0     C27150   8.902  10.172   3.868  0.4385  0.6416 -0.2629
  202MOL0     C27151   8.789  10.066   3.891  0.5119 -0.0279  0.7170
  202MOL0     N27152   8.818   9.938   3.824  0.6121  0.1844 -0.5986
  202MOL0     C27153   8.848   9.917   3.692  0.3915  0.4215  0.2571
  202MOL0     C27154   8.901   9.790   3.684 -0.2675 -0.3231  0.1311
  202MOL0     C27155   8.966   9.716   3.577  0.1478 -0.0426  0.0584
  202MOL0     C27156   9.071   9.801   3.514 -0.3216  0.5231 -0.2136
  202MOL0     C27157   9.163   9.728   3.417  0.2237  0.3946  0.1123
  202MOL0     C27158   9.236   9.822   3.321 -0.5902 -0.3311  0.1127
  202MOL0     O27159   9.325   9.751   3.223 -0.0179  0.3502  0.2406
  202MOL0     C27160   9.446   9.708   3.272 -0.2957 -0.2426 -0.4478
  202MOL0     C27161   9.495   9.718   3.411  0.0740 -0.5094 -0.3094
  202MOL0     C27162   9.622   9.666   3.449  0.5448 -0.5750 -0.0545
  202MOL0     C27163   9.666   9.666   3.586  0.1904  0.2355  0.3402
  202MOL0     C27164   9.709   9.621   3.344 -0.2409  0.0115 -0.8821
  202MOL0     C27165   9.851   9.569   3.372  0.8482 -0.0258  0.5004
  202MOL0     O27166   9.879   9.510   3.492  0.0203  0.4046 -0.2865
  202MOL0     C27167   9.984   9.429   3.502 -0.3997 -0.5154  0.4751
  202MOL0     C27168  10.054   9.440   3.623 -0.0399  0.7304  0.2339
  202MOL0     C27169  10.177   9.385   3.639  0.2794 -0.2778 -0.1401
  202MOL0     C27170  10.237   9.308   3.544 -0.4619  1.1635 -0.4885
  202MOL0     O27171  10.364   9.255   3.561  0.0510  0.1377 -0.9138
  202MOL0     C27172  10.411   9.164   3.462 -0.7435 -0.1590 -0.0953
  202MOL0     C27173  10.527   9.075   3.514 -0.3393 -0.3756 -0.0646
  202MOL0     C27174  10.467   8.987   3.623 -0.3216  0.1073 -0.0701
  202MOL0     C27175  10.574   8.886   3.675 -0.4213  0.6469 -0.0327
  202MOL0     C27176  10.514   8.808   3.793 -0.6347  0.8489 -0.2624
  202MOL0     C27177  10.600   8.694   3.827 -0.3034 -0.0982  0.7384
  202MOL0     C27178  10.723   8.741   3.914  1.1902  1.0341  0.2616
  202MOL0     C27179  10.816   8.624   3.961  0.4932 -0.6046  0.7374
  202MOL0    Cl27180  10.915   8.576   3.814 -0.1931  0.0364 -0.1196
  202MOL0     C27181  10.166   9.289   3.424  1.4959  0.6212  0.8208
  202MOL0     C27182  10.039   9.345   3.398 -0.4390  0.2943 -0.2235
  202MOL0     O27183   9.925   9.571   3.277 -0.3537 -0.1701 -0.0987
  202MOL0     C27184   9.656   9.604   3.210  0.9503 -0.4934 -0.3313
  202MOL0     C27185   9.529   9.649   3.174  0.4192  0.7159 -0.9036
  202MOL0     N27186   8.886   9.727   3.809  0.0778  0.1055  0.2134
  202MOL0     N27187   8.846   9.821   3.891  1.0169  0.2038 -0.2001
  202MOL0     C27188   9.909  10.150   3.970 -0.9682  0.0811 -1.3672
  202MOL0     C27189  10.036  10.159   3.913  0.0392  0.0909 -0.6952
  202MOL0     C27190  10.460  10.318   3.850 -0.3509 -0.2813  0.4088
  202MOL0     C27191  10.484  10.377   3.723 -0.3092  0.1461  0.0414
  202MOL0     C27192  10.615  10.411   3.686 -0.5262  0.2814 -0.2438
  202MOL0     C27193  10.721  10.365   3.758 -0.3238  0.1150  0.0233
  202MOL0     O27194  10.851  10.389   3.700  0.8536 -0.2119  0.0980
  202MOL0     C27195  10.964  10.327   3.763 -0.6912  0.3217  0.0975
  202MOL0     C27196  11.091  10.376   3.693 -0.5485  0.1223 -0.8609
  202MOL0     C27197  11.216  10.324   3.760  0.4138 -0.3969  0.6231
  202MOL0     C27198  11.335  10.373   3.688  0.2708 -0.2452  0.5469
  202MOL0     C27199  11.453  10.294   3.701 -0.0074  0.0716 -0.0813
  202MOL0     C27200  11.556  10.240   3.721 -0.4594  0.2761 -0.0840
  202MOL0     C27201  10.697  10.292   3.876 -0.1467  0.4658  0.0603
  202MOL0     C27202  10.568  10.275   3.920 -0.4742 -0.1168  0.7763
  202MOL0     H27203  10.062  10.472   3.822  1.0400 -0.4126  0.3810
  202MOL0     H27204   9.805  10.469   3.915  0.1772  0.3759  0.2761
  202MOL0     H27205   9.596  10.399   3.970  1.9822  0.1173 -0.2313
  202MOL0     H27206   9.581  10.262   3.871  0.4164  4.1735 -1.2700
  202MOL0     H27207   9.478  10.135   4.065  1.8152  0.3771  2.1023
  202MOL0     H27208   9.487  10.270   4.165 -0.1099 -2.5636  0.0780
  202MOL0     H27209   9.346  10.412   4.049  0.8784 -0.3826  1.9606
  202MOL0     H27210   9.348  10.323   3.896 -0.1649  0.0368  0.0957
  202MOL0     H27211   9.242  10.122   4.055 -0.3792  0.7198 -0.1718
  202MOL0     H27212   9.207  10.260   4.157 -0.2766 -1.1696  0.1712
  202MOL0     H27213   9.069  10.341   3.961 -1.5140  0.5683 -4.4392
  202MOL0     H27214   9.159  10.241   3.851 -1.0169 -5.3476 -0.4814
  202MOL0     H27215   9.063  10.044   3.941 -0.7634 -0.9304  2.5199
  202MOL0     H27216   8.984  10.134   4.064 -0.4738 -2.0949 -0.3484
  202MOL0     H27217   8.859  10.269   3.895 -0.5306 -0.1845  1.3210
  202MOL0     H27218   8.940  10.167   3.765  3.8559 -2.3498  0.9146
  202MOL0     H27219   8.696  10.109   3.852  0.7384  3.3338  3.4314
  202MOL0     H27220   8.772  10.058   3.998  0.3651 -0.2834  0.6753
  202MOL0     H27221   8.857   9.992   3.614  0.8252 -0.3797 -0.4793
  202MOL0     H27222   9.008   9.628   3.625 -0.7783 -1.7150 -2.0251
  202MOL0     H27223   8.890   9.690   3.502  0.6967  2.5963 -1.5499
  202MOL0     H27224   9.140   9.851   3.583  0.7194  0.8252 -1.4357
  202MOL0     H27225   9.011   9.879   3.467 -0.1213 -0.9581 -3.1096
  202MOL0     H27226   9.104   9.661   3.355  0.1870 -1.6209  2.1867
  202MOL0     H27227   9.236   9.667   3.472  0.8542  1.0665  0.0399
  202MOL0     H27228   9.299   9.884   3.385 -1.1335 -0.9568  1.2790
  202MOL0     H27229   9.165   9.892   3.274 -0.4130  0.1283  0.5250
  202MOL0     H27230   9.449   9.778   3.489  1.2658  1.0212 -0.7279
  202MOL0     H27231   9.691   9.564   3.615  1.4703  0.3644 -0.2224
  202MOL0     H27232   9.748   9.738   3.596  0.1347  0.3722 -0.1743
  202MOL0     H27233   9.585   9.701   3.651  0.2199  1.7663 -0.3827
  202MOL0     H27234  10.020   9.515   3.694  0.1265  1.1101 -0.0811
  202MOL0     H27235  10.239   9.401   3.727  0.2564 -1.2874  0.0695
  202MOL0     H27236  10.330   9.098   3.431  0.6051 -1.1049 -1.8640
  202MOL0     H27237  10.449   9.220   3.376 -0.2971  1.1375  0.9139
  202MOL0     H27238  10.579   9.018   3.437  0.1558  0.8824 -0.6819
  202MOL0     H27239  10.614   9.136   3.542  1.2874 -0.8152 -3.6054
  202MOL0     H27240  10.374   8.940   3.590 -0.1828  0.5122 -1.0369
  202MOL0     H27241  10.431   9.051   3.704 -0.7043 -1.4288  1.0215
  202MOL0     H27242  10.610   8.810   3.605 -2.4910 -2.1723  1.7325
  202MOL0     H27243  10.663   8.939   3.708 -0.4706  0.1148  1.0238
  202MOL0     H27244  10.415   8.767   3.768 -0.8969  0.3634  1.4366
  202MOL0     H27245  10.501   8.868   3.883 -0.6018 -0.8503  0.9326
  202MOL0     H27246  10.536   8.637   3.896  0.4228  3.1038  4.3761
  202MOL0     H27247  10.625   8.634   3.739 -1.4806 -1.4533  1.2775
  202MOL0     H27248  10.670   8.787   3.997 -0.0439  1.3290 -0.6584
  202MOL0     H27249  10.779   8.829   3.882  1.5915  1.1731  1.3162
  202MOL0     H27250  10.758   8.547   4.013 -0.1410 -0.8653 -0.3296
  202MOL0     H27251  10.876   8.669   4.040 -0.6382 -1.0415  1.8806
  202MOL0     H27252  10.203   9.230   3.341  0.5531 -0.3157  1.0581
  202MOL0     H27253   9.971   9.337   3.313 -2.3279 -0.4559  1.2764
  202MOL0     H27254   9.712   9.542   3.141 -3.3642 -3.9396 -1.1980
  202MOL0     H27255   9.480   9.635   3.079  0.5732  1.7838 -1.1502
  202MOL0     H27256   9.873  10.057   4.014 -1.8721  0.2514 -1.7136
  202MOL0     H27257  10.099  10.073   3.894  0.9078  0.3959  0.6692
  202MOL0     H27258  10.396  10.414   3.671 -0.4829  1.0008  0.9153
  202MOL0     H27259  10.633  10.465   3.594  1.8617  1.1809  0.6722
  202MOL0     H27260  10.969  10.345   3.871 -1.6826 -0.9151  0.3879
  202MOL0     H27261  10.966  10.219   3.748  1.0890  0.4241 -0.5939
  202MOL0     H27262  11.087  10.484   3.705 -1.9032  0.1930 -1.7347
  202MOL0     H27263  11.087  10.342   3.589 -2.7894  0.9062 -1.0769
  202MOL0     H27264  11.221  10.215   3.767  0.8316 -0.2931  3.8421
  202MOL0     H27265  11.222  10.352   3.866  0.3332  2.3649 -0.0215
  202MOL0     H27266  11.357  10.474   3.723 -2.6999  0.5675  0.3668
  202MOL0     H27267  11.311  10.368   3.581 -0.7488  0.7006  0.7149
  202MOL0     H27268  11.646  10.190   3.750 -2.1048 -1.3919  2.6342
  202MOL0     H27269  10.778  10.256   3.939  0.8990  2.7769  0.1681
  202MOL0     H27270  10.557  10.235   4.020 -0.6898  0.2700  0.9046
  203MOL0     O27271   1.961  11.038   9.858  0.0834 -0.4202 -0.2888
  203MOL0     C27272   1.939  11.063   9.974  0.0007  0.5897  0.0245
  203MOL0     O27273   1.817  11.101  10.022  0.4870  0.2612 -0.3616
  203MOL0     C27274   1.719  11.141   9.934 -0.4509 -0.3042  0.8007
  203MOL0     C27275   1.596  11.076   9.949 -0.3953 -0.8556  1.2644
  203MOL0     C27276   1.486  11.103   9.862 -1.1642 -0.2405  0.0435
  203MOL0     C27277   1.496  11.196   9.754 -0.9003 -0.8497 -0.4211
  203MOL0     O27278   1.400  11.215   9.651 -0.5098 -0.7234  0.4391
  203MOL0     C27279   1.273  11.141   9.664 -0.8220 -0.1786  0.1123
  203MOL0     C27280   1.204  11.192   9.534 -0.9451  0.3568 -0.1799
  203MOL0     C27281   1.073  11.109   9.501  0.2041  0.6424 -0.9402
  203MOL0     C27282   0.966  11.207   9.441  0.4587 -0.1159 -0.6435
  203MOL0     C27283   0.860  11.136   9.370  0.2895  0.1071  0.3805
  203MOL0     C27284   0.762  11.237   9.311  0.1431  0.2896 -0.8410
  203MOL0     C27285   0.650  11.166   9.232 -1.0077 -0.6776 -0.0997
  203MOL0     C27286   0.557  11.260   9.159  1.1836 -0.8652  0.2069
  203MOL0     N27287   0.466  11.201   9.059 -0.0682 -0.1653 -0.7388
  203MOL0     C27288   0.327  11.227   9.041  0.3274 -0.0454  1.1043
  203MOL0     C27289   0.299  11.168   8.926 -0.1530  0.4692 -0.0732
  203MOL0     C27290   0.169  11.174   8.860  0.2836  1.1093 -0.9198
  203MOL0     C27291   0.065  11.071   8.909 -0.5116 -0.1437  0.0701
  203MOL0     C27292  -0.003  11.110   9.037  0.4239 -0.2392 -0.3368
  203MOL0     C27293  -0.114  11.006   9.080  0.1072  0.5589 -0.6303
  203MOL0     O27294  -0.199  10.978   8.972 -0.0584  0.2123  0.5844
  203MOL0     C27295  -0.248  10.855   8.989  0.4928 -0.4722 -0.1585
  203MOL0     C27296  -0.370  10.832   9.060  0.0602  0.2825 -0.4936
  203MOL0     C27297  -0.413  10.696   9.098 -0.5701 -0.1291  0.3943
  203MOL0     C27298  -0.545  10.679   9.170 -0.0851  0.7518 -0.1401
  203MOL0     C27299  -0.324  10.587   9.077 -0.8215 -0.0963  0.0078
  203MOL0     C27300  -0.337  10.453   9.133 -0.7545 -0.4979 -0.1226
  203MOL0     O27301  -0.214  10.382   9.157  0.3129  0.0129  0.1088
  203MOL0     C27302  -0.222  10.257   9.208 -0.0370 -0.0920  0.0285
  203MOL0     C27303  -0.285  10.147   9.142  0.3130 -0.6157  0.0406
  203MOL0     C27304  -0.295  10.018   9.206  0.9431  0.5221 -1.0465
  203MOL0     C27305  -0.239  10.000   9.330  0.0650 -0.1004 -0.4531
  203MOL0     O27306  -0.248   9.876   9.396  0.0453 -0.7665 -0.3765
  203MOL0     C27307  -0.132   9.824   9.464  0.1615  0.2109 -0.7910
  203MOL0     C27308  -0.138   9.675   9.467  0.1037 -0.2900 -0.0062
  203MOL0     C27309  -0.246   9.634   9.562 -0.1571 -0.8334 -0.5106
  203MOL0     C27310  -0.243   9.480   9.573  0.1319  0.5760 -0.4092
  203MOL0     C27311  -0.354   9.407   9.648  0.3584  0.5947  0.0769
  203MOL0     C27312  -0.495   9.414   9.571  0.3768  0.1162  0.1354
  203MOL0     C27313  -0.604   9.374   9.670 -0.6215  0.3360  0.6313
  203MOL0     C27314  -0.735   9.380   9.600  0.6758  0.3010  0.0299
  203MOL0    Cl27315  -0.724   9.258   9.474  0.2178  0.3096  0.5098
  203MOL0     C27316  -0.173  10.106   9.388 -0.6472  0.5062 -0.5015
  203MOL0     C27317  -0.149  10.230   9.323 -0.3711  0.1602  0.6216
  203MOL0     O27318  -0.446  10.407   9.155 -0.5389 -0.1085 -0.4715
  203MOL0     C27319  -0.215  10.619   8.993 -0.0853  0.6168 -0.4863
  203MOL0     C27320  -0.182  10.744   8.938  0.5620 -0.4980 -0.0780
  203MOL0     N27321   0.408  11.102   8.873 -0.9844  0.5098  0.3678
  203MOL0     N27322   0.506  11.123   8.959 -0.3005 -0.2628 -1.0232
  203MOL0     C27323   1.620  11.259   9.741 -0.8694 -0.3955  0.4659
  203MOL0     C27324   1.733  11.232   9.822 -0.6969 -0.6569 -0.1389
  203MOL0     C27325   2.051  11.055  10.074 -0.3048  0.1667  0.9899
  203MOL0     C27326   2.166  10.982  10.037 -0.2008 -0.1842 -0.6278
  203MOL0     C27327   2.273  10.977  10.141  0.7752  0.7870  0.4438
  203MOL0     C27328   2.254  11.039  10.264  0.8085  0.0545 -0.1607
  203MOL0     O27329   2.336  11.033  10.372 -0.4102 -0.0187 -0.2648
  203MOL0     C27330   2.443  10.939  10.366  0.6709 -0.5728 -0.6269
  203MOL0     C27331   2.511  10.972  10.495  0.1259 -0.2015 -0.4299
  203MOL0     C27332   2.618  11.080  10.469  0.1886 -0.5094  0.3107
  203MOL0     C27333   2.693  11.130  10.600 -0.1024  0.4406 -0.3417
  203MOL0     C27334   2.794  11.029  10.639 -0.1420 -0.2740  0.5467
  203MOL0     C27335   2.873  10.937  10.662  0.5397  0.2838  0.3235
  203MOL0     C27336   2.137  11.109  10.288 -0.3104  0.3458  0.6691
  203MOL0     C27337   2.042  11.127  10.195  0.0834 -0.3749 -0.4291
  203MOL0     H27338   1.584  11.002  10.027 -4.3085  0.9435  2.5943
  203MOL0     H27339   1.388  11.061   9.880 -1.9972  0.5440 -2.2422
  203MOL0     H27340   1.285  11.033   9.663  0.9888 -0.0088 -0.9195
  203MOL0     H27341   1.219  11.169   9.755 -2.3998  1.2760 -1.1930
  203MOL0     H27342   1.183  11.298   9.552 -1.2141  0.7752 -2.5844
  203MOL0     H27343   1.272  11.180   9.449 -2.3875  1.1305 -1.4903
  203MOL0     H27344   1.103  11.023   9.441  0.2842  1.6311 -2.3739
  203MOL0     H27345   1.025  11.070   9.591 -0.1058  2.9299 -0.0354
  203MOL0     H27346   0.930  11.265   9.527 -1.1441 -2.5309  0.4353
  203MOL0     H27347   1.009  11.273   9.365 -2.3238  0.3535 -1.9139
  203MOL0     H27348   0.902  11.089   9.281 -1.2836  2.1547 -1.5975
  203MOL0     H27349   0.813  11.061   9.435  0.1540  2.1252  2.7823
  203MOL0     H27350   0.722  11.304   9.388  1.2850  0.5477 -0.4584
  203MOL0     H27351   0.810  11.308   9.243 -0.3062  0.8810 -0.5432
  203MOL0     H27352   0.702  11.105   9.158  0.9200  1.4509 -0.6040
  203MOL0     H27353   0.589  11.099   9.293 -4.7068  2.1005 -0.4030
  203MOL0     H27354   0.617  11.334   9.104 -1.8068  1.1732 -0.5427
  203MOL0     H27355   0.505  11.314   9.238  2.5294  1.7419 -0.5733
  203MOL0     H27356   0.275  11.304   9.096 -0.4598 -0.6694  1.2565
  203MOL0     H27357   0.127  11.275   8.871 -3.1783  0.2954 -4.2238
  203MOL0     H27358   0.194  11.155   8.755  1.6897 -0.5854 -0.3133
  203MOL0     H27359   0.110  10.973   8.924 -2.4407 -1.0909 -0.0613
  203MOL0     H27360  -0.004  11.063   8.824  0.1017 -1.2952 -0.3271
  203MOL0     H27361  -0.050  11.208   9.045  0.2793 -0.4177  1.6628
  203MOL0     H27362   0.075  11.129   9.112 -0.0246  4.0348 -0.7064
  203MOL0     H27363  -0.177  11.036   9.164 -3.2461 -0.6760 -2.4895
  203MOL0     H27364  -0.068  10.915   9.119 -0.7010  1.6922  3.4853
  203MOL0     H27365  -0.429  10.920   9.085  1.3276  1.5697 -1.8751
  203MOL0     H27366  -0.601  10.771   9.185  2.0124  1.8355  1.4903
  203MOL0     H27367  -0.606  10.599   9.126  0.8479 -1.4382  2.3034
  203MOL0     H27368  -0.530  10.646   9.273 -2.3728  0.4996  0.1750
  203MOL0     H27369  -0.328  10.170   9.045  0.5407 -0.2653  0.0195
  203MOL0     H27370  -0.343   9.935   9.155 -1.6483  1.6862 -0.6252
  203MOL0     H27371  -0.043   9.854   9.407 -0.9064  2.1395 -1.5479
  203MOL0     H27372  -0.108   9.875   9.558  2.6139 -0.9745 -0.6967
  203MOL0     H27373  -0.150   9.640   9.364 -0.2292  2.7181 -1.0975
  203MOL0     H27374  -0.043   9.638   9.505 -0.0172 -0.3510  0.2391
  203MOL0     H27375  -0.346   9.661   9.525 -0.4885 -2.9268 -1.3130
  203MOL0     H27376  -0.230   9.680   9.660  1.0451 -2.3607  0.0515
  203MOL0     H27377  -0.244   9.429   9.477 -3.2087 -0.7903  0.2196
  203MOL0     H27378  -0.145   9.457   9.615  1.6634  0.8492 -3.5847
  203MOL0     H27379  -0.356   9.449   9.749  3.7134  0.0915  0.4963
  203MOL0     H27380  -0.332   9.301   9.662 -0.7356  0.2148 -0.9258
  203MOL0     H27381  -0.514   9.518   9.542  1.6808 -0.0763 -1.5233
  203MOL0     H27382  -0.497   9.361   9.476  0.3528  2.1610 -1.0579
  203MOL0     H27383  -0.612   9.436   9.760 -0.8994 -0.9918  1.5587
  203MOL0     H27384  -0.589   9.274   9.712  0.3230 -0.0032 -0.4614
  203MOL0     H27385  -0.750   9.482   9.562  2.6226  1.5651  2.3619
  203MOL0     H27386  -0.818   9.353   9.666 -1.6044  0.8667 -2.4231
  203MOL0     H27387  -0.137  10.089   9.489 -0.1165 -0.4576 -0.8415
  203MOL0     H27388  -0.104  10.317   9.371 -1.5554  0.8798  0.4680
  203MOL0     H27389  -0.147  10.539   8.970 -2.4734 -1.0579 -2.2135
  203MOL0     H27390  -0.101  10.763   8.869 -2.2193  0.6214 -3.2786
  203MOL0     H27391   1.624  11.341   9.670 -1.3878  0.2431  1.1688
  203MOL0     H27392   1.823  11.291   9.818 -1.5300  0.6296 -0.9272
  203MOL0     H27393   2.190  10.943   9.939  0.8743  0.4700 -0.6460
  203MOL0     H27394   2.356  10.910  10.123 -1.0783 -1.6604  0.5433
  203MOL0     H27395   2.400  10.838  10.370  1.9106 -1.2539 -2.8583
  203MOL0     H27396   2.506  10.957  10.279  1.4059 -0.4261 -0.0748
  203MOL0     H27397   2.552  10.881  10.540 -2.3909 -1.7586 -1.0954
  203MOL0     H27398   2.442  11.016  10.568  0.7368  1.7506 -0.9754
  203MOL0     H27399   2.565  11.168  10.431 -1.4711 -1.8775 -0.6319
  203MOL0     H27400   2.685  11.047  10.390  1.2576 -1.5943  1.6171
  203MOL0     H27401   2.634  11.160  10.687  1.3187  1.6048  0.2591
  203MOL0     H27402   2.747  11.218  10.563 -0.1812 -0.1942 -2.0480
  203MOL0     H27403   2.938  10.858  10.694  0.3050 -1.8485 -3.7473
  203MOL0     H27404   2.130  11.159  10.384 -0.0495  1.9770 -0.1239
  203MOL0     H27405   1.955  11.189  10.215  1.4526  0.6732  3.0781
  204MOL0     O27406  11.172   8.110   1.140 -0.1503 -0.5484  0.0941
  204MOL0     C27407  11.234   8.009   1.116  0.6705 -0.4803 -0.0118
  204MOL0     O27408  11.180   7.886   1.121  0.4948 -0.8299  0.2523
  204MOL0     C27409  11.039   7.877   1.127 -0.2834 -0.7873 -0.4265
  204MOL0     C27410  10.969   7.864   1.253 -0.5027 -0.5926  0.6405
  204MOL0     C27411  10.835   7.885   1.261  0.7474  0.1694  1.2234
  204MOL0     C27412  10.753   7.905   1.151 -0.3228  0.7834 -0.2047
  204MOL0     O27413  10.622   7.925   1.157  0.4332 -0.4799  0.0480
  204MOL0     C27414  10.557   7.901   1.279  0.7161 -0.6757 -0.2593
  204MOL0     C27415  10.408   7.929   1.263 -0.2496  0.0037  0.0274
  204MOL0     C27416  10.340   7.903   1.397  0.3364 -0.8495  0.5181
  204MOL0     C27417  10.181   7.956   1.394 -0.0729  0.2715 -0.0590
  204MOL0     C27418  10.107   7.936   1.530 -0.9370 -0.1543 -0.3623
  204MOL0     C27419   9.989   8.041   1.536  0.5892 -0.1433 -0.1214
  204MOL0     C27420  10.027   8.190   1.554  0.1849  1.0394  0.5763
  204MOL0     C27421  10.100   8.211   1.681 -0.5376  0.3587  0.2386
  204MOL0     N27422  10.089   8.348   1.736  0.4887  0.0493 -1.4331
  204MOL0     C27423   9.967   8.409   1.767  0.3824  0.4976  1.0791
  204MOL0     C27424   9.992   8.534   1.812 -0.0720 -0.2072  0.4045
  204MOL0     C27425   9.896   8.629   1.862  0.7937  0.7737  0.5712
  204MOL0     C27426   9.908   8.655   2.007  0.1142  1.2237 -0.2069
  204MOL0     C27427   9.864   8.524   2.092 -0.4498 -0.1206 -0.0924
  204MOL0     C27428   9.721   8.492   2.072  0.1543 -0.3676  0.0723
  204MOL0     O27429   9.705   8.370   2.134 -0.0041  0.1161  0.1476
  204MOL0     C27430   9.604   8.280   2.108  0.3663 -0.3099  0.5229
  204MOL0     C27431   9.627   8.149   2.152  0.6908  0.1128 -0.0740
  204MOL0     C27432   9.521   8.052   2.143 -0.3180  0.4467 -0.0754
  204MOL0     C27433   9.562   7.915   2.190  0.0692 -0.2862 -0.3527
  204MOL0     C27434   9.398   8.091   2.084 -0.0838 -0.4781  0.1052
  204MOL0     C27435   9.284   7.999   2.077 -0.7832  0.4706 -0.0130
  204MOL0     O27436   9.185   8.030   1.984  0.1011 -0.1211 -0.3625
  204MOL0     C27437   9.060   7.971   1.988  1.1851  0.6351 -0.3074
  204MOL0     C27438   8.950   8.055   1.987 -0.7688 -1.3390 -0.4416
  204MOL0     C27439   8.819   8.009   1.996  0.3359  0.0744  0.0494
  204MOL0     C27440   8.799   7.875   2.008  0.4699 -0.5079  0.3053
  204MOL0     O27441   8.665   7.838   2.013 -0.0222 -0.0158  1.2173
  204MOL0     C27442   8.604   7.778   1.894 -0.1717 -0.0012 -0.7221
  204MOL0     C27443   8.473   7.853   1.868 -1.1194 -0.2750 -0.2276
  204MOL0     C27444   8.370   7.764   1.797 -0.1108 -0.4924  0.4565
  204MOL0     C27445   8.222   7.805   1.851 -0.2590  0.2778  0.3905
  204MOL0     C27446   8.108   7.744   1.768  0.8851  0.2059  0.1925
  204MOL0     C27447   7.976   7.814   1.801 -0.5869  0.8223 -0.1616
  204MOL0     C27448   7.858   7.791   1.705 -0.2481  0.3838  0.3484
  204MOL0     C27449   7.717   7.829   1.745  0.4802 -0.3650 -1.0526
  204MOL0    Cl27450   7.615   7.714   1.826 -0.6012  0.1530 -0.1419
  204MOL0     C27451   8.901   7.789   2.006  0.1453 -0.1847  0.5883
  204MOL0     C27452   9.034   7.833   1.993 -0.5397  0.0417 -0.1060
  204MOL0     O27453   9.278   7.911   2.163 -0.3785 -0.5776 -0.0802
  204MOL0     C27454   9.385   8.220   2.036  0.7831 -0.6928  0.3418
  204MOL0     C27455   9.482   8.317   2.048  0.1983 -0.0796 -0.7200
  204MOL0     N27456  10.129   8.548   1.798 -0.0195 -0.6829 -0.0558
  204MOL0     N27457  10.183   8.443   1.743  0.4136  0.2028 -0.2422
  204MOL0     C27458  10.821   7.910   1.030  0.6045 -0.5834  0.0793
  204MOL0     C27459  10.963   7.901   1.021 -0.6850  0.1886  0.6634
  204MOL0     C27460  11.379   8.023   1.101  0.3307  0.5244 -0.4108
  204MOL0     C27461  11.444   8.148   1.094  0.3464 -0.0945 -0.1090
  204MOL0     C27462  11.577   8.161   1.070 -0.7376  0.0829 -0.6305
  204MOL0     C27463  11.663   8.050   1.092 -0.3620  0.7922  0.6313
  204MOL0     O27464  11.803   8.039   1.095 -0.2457  0.3563  0.1130
  204MOL0     C27465  11.876   8.146   1.039 -0.2465  0.3858  0.1739
  204MOL0     C27466  12.024   8.148   1.070 -0.0904 -0.5203 -0.2413
  204MOL0     C27467  12.115   8.280   1.034  0.0675 -0.8522  0.5573
  204MOL0     C27468  12.263   8.252   1.024 -0.5515 -0.1292  0.4944
  204MOL0     C27469  12.296   8.147   0.925  0.7907 -0.4170  0.1434
  204MOL0     C27470  12.320   8.064   0.841 -0.0495  0.8784 -0.6613
  204MOL0     C27471  11.601   7.927   1.098  0.5688 -0.6635  0.8720
  204MOL0     C27472  11.459   7.913   1.104 -0.2777  0.3062 -0.3259
  204MOL0     H27473  11.024   7.851   1.345  0.6168  1.8844  0.3849
  204MOL0     H27474  10.804   7.869   1.364 -0.5835 -1.6510  0.5879
  204MOL0     H27475  10.574   7.797   1.309 -0.4662 -0.5119  1.1250
  204MOL0     H27476  10.598   7.971   1.353  0.0227 -1.3344  0.7827
  204MOL0     H27477  10.387   8.029   1.226  1.2892 -0.4974 -2.4062
  204MOL0     H27478  10.368   7.853   1.196  1.6264 -0.2458 -0.8704
  204MOL0     H27479  10.344   7.795   1.414  0.4084 -1.0552 -0.7103
  204MOL0     H27480  10.390   7.943   1.486  0.0500  0.3775  0.1457
  204MOL0     H27481  10.182   8.059   1.358 -1.8753 -0.3524 -2.1477
  204MOL0     H27482  10.123   7.901   1.319 -1.1747  0.1262  0.8706
  204MOL0     H27483  10.073   7.832   1.534 -1.2864  0.0028  2.3816
  204MOL0     H27484  10.174   7.953   1.614  0.4812  1.3621 -1.7219
  204MOL0     H27485   9.928   8.039   1.445  1.1803 -1.2371 -0.5049
  204MOL0     H27486   9.921   8.012   1.617 -2.0008  1.8182 -1.4575
  204MOL0     H27487  10.081   8.229   1.467 -1.6232 -1.2571 -1.7405
  204MOL0     H27488   9.929   8.235   1.567 -1.8301 -1.8180 -2.8223
  204MOL0     H27489  10.207   8.195   1.668 -0.8734 -2.8843  0.7099
  204MOL0     H27490  10.055   8.146   1.757 -4.6380 -0.0046 -2.1939
  204MOL0     H27491   9.876   8.352   1.753  2.1689 -1.8221 -2.8921
  204MOL0     H27492   9.917   8.723   1.809  3.0250  0.6447  1.1015
  204MOL0     H27493   9.794   8.598   1.838  1.6393 -2.9390  1.1375
  204MOL0     H27494   9.854   8.747   2.030  0.2383  1.3393 -0.3786
  204MOL0     H27495  10.015   8.663   2.029  0.1741 -0.7951  0.4060
  204MOL0     H27496   9.890   8.539   2.197  1.7248 -0.7198 -0.5051
  204MOL0     H27497   9.930   8.441   2.066 -0.2726 -0.7010  2.0459
  204MOL0     H27498   9.721   8.482   1.963  0.9134  1.2402 -0.1188
  204MOL0     H27499   9.659   8.574   2.109  3.4936  2.5035 -0.1112
  204MOL0     H27500   9.730   8.137   2.182  1.9456  1.8232 -3.2565
  204MOL0     H27501   9.535   7.839   2.115 -1.7164 -1.8139  1.7126
  204MOL0     H27502   9.669   7.911   2.210  0.2446 -1.9111 -1.3778
  204MOL0     H27503   9.499   7.894   2.277  2.2632 -0.9842  1.1555
  204MOL0     H27504   8.969   8.161   1.981 -1.0692 -1.3519 -2.0813
  204MOL0     H27505   8.734   8.076   1.986  0.1733 -0.3869 -2.5181
  204MOL0     H27506   8.676   7.779   1.812  0.3346 -0.3282 -0.2862
  204MOL0     H27507   8.583   7.674   1.921  2.1446 -0.1721  0.6315
  204MOL0     H27508   8.432   7.898   1.959 -2.0238 -0.7385 -0.3949
  204MOL0     H27509   8.484   7.937   1.799 -0.6210  0.0350  0.2139
  204MOL0     H27510   8.382   7.656   1.810  0.2959 -0.4766  0.2313
  204MOL0     H27511   8.377   7.783   1.690  1.9674  3.5543  1.1162
  204MOL0     H27512   8.220   7.774   1.956  2.0299  0.9169  0.6806
  204MOL0     H27513   8.219   7.914   1.850 -2.0765  0.2644 -0.3414
  204MOL0     H27514   8.094   7.636   1.782  0.6492 -0.1654 -2.4020
  204MOL0     H27515   8.135   7.750   1.662 -0.0018  0.7910 -0.0021
  204MOL0     H27516   7.948   7.798   1.905 -3.6208  1.1325 -0.8485
  204MOL0     H27517   7.990   7.921   1.781  0.0433  0.4476 -1.8946
  204MOL0     H27518   7.859   7.690   1.664  2.0830  0.9276 -1.1795
  204MOL0     H27519   7.888   7.855   1.622  2.0439 -2.2030 -0.9920
  204MOL0     H27520   7.650   7.853   1.662 -2.7217  0.2950  1.5073
  204MOL0     H27521   7.718   7.919   1.807 -1.6040 -0.8402 -0.2565
  204MOL0     H27522   8.879   7.684   2.021  0.5923 -0.3674 -0.0011
  204MOL0     H27523   9.120   7.767   1.990 -0.3319  0.3319 -2.8780
  204MOL0     H27524   9.297   8.253   1.982 -0.6786 -4.3346  0.2344
  204MOL0     H27525   9.462   8.420   2.021  1.4932  0.3596 -0.1081
  204MOL0     H27526  10.758   7.933   0.945 -3.5127 -2.2367  2.3717
  204MOL0     H27527  11.011   7.908   0.924  0.8985  1.0162  1.4742
  204MOL0     H27528  11.382   8.237   1.096 -0.4950 -0.6401 -1.0720
  204MOL0     H27529  11.631   8.256   1.063  2.3702 -1.5872 -1.4678
  204MOL0     H27530  11.866   8.128   0.932 -0.0309 -1.5051  0.4461
  204MOL0     H27531  11.841   8.243   1.077  2.4367 -0.0693  4.4894
  204MOL0     H27532  12.067   8.069   1.007 -0.8065 -2.0708  1.1323
  204MOL0     H27533  12.038   8.108   1.171 -0.5285 -1.0199 -0.3745
  204MOL0     H27534  12.093   8.354   1.111  0.3880  0.8613 -0.9385
  204MOL0     H27535  12.083   8.317   0.936 -0.2159  1.1565  1.3733
  204MOL0     H27536  12.287   8.219   1.125 -1.2561 -1.0902  0.3612
  204MOL0     H27537  12.314   8.343   0.993  2.0408 -1.0075  1.8654
  204MOL0     H27538  12.333   7.987   0.768 -2.2921 -1.6328  1.3900
  204MOL0     H27539  11.661   7.838   1.114  0.6672 -1.0399 -1.2442
  204MOL0     H27540  11.422   7.812   1.095 -5.0611  1.9833 -3.0383
  205MOL0     O27541   3.545   9.260   3.755  0.0850  0.4559 -0.5481
  205MOL0     C27542   3.593   9.374   3.738  0.7113 -0.2905  0.5660
  205MOL0     O27543   3.539   9.498   3.790 -0.2246  0.5749  0.1373
  205MOL0     C27544   3.405   9.522   3.800  0.6875 -0.0834  0.2296
  205MOL0     C27545   3.296   9.448   3.746  0.7664  0.2011 -0.5992
  205MOL0     C27546   3.165   9.494   3.762  1.0299 -0.1673 -0.2551
  205MOL0     C27547   3.137   9.621   3.816  0.4665 -0.3852 -0.6733
  205MOL0     O27548   3.005   9.663   3.847 -0.2504  0.0034  0.7124
  205MOL0     C27549   2.972   9.791   3.804 -0.5938 -0.1782 -0.9868
  205MOL0     C27550   2.816   9.792   3.808 -0.2439  0.0411  0.5694
  205MOL0     C27551   2.760   9.926   3.753  0.4820  1.0675  0.5879
  205MOL0     C27552   2.614   9.929   3.747  0.3007  0.3896  0.0006
  205MOL0     C27553   2.572   9.975   3.607 -0.2963 -0.5578 -0.1193
  205MOL0     C27554   2.424   9.979   3.593 -0.7255 -0.6343  0.4046
  205MOL0     C27555   2.379  10.024   3.450  0.9888 -0.3378 -0.3693
  205MOL0     C27556   2.226  10.064   3.440  0.5250 -0.2353  0.2338
  205MOL0     N27557   2.194  10.204   3.472  0.4217  0.1795  0.3447
  205MOL0     C27558   2.229  10.276   3.581  0.3255  0.1453 -0.1451
  205MOL0     C27559   2.175  10.394   3.555  0.5601  0.0070  0.3277
  205MOL0     C27560   2.194  10.511   3.644 -0.1382 -0.3090  0.2702
  205MOL0     C27561   2.065  10.561   3.720 -0.9896  0.4947 -0.4416
  205MOL0     C27562   1.941  10.584   3.632  0.0183  0.4841 -0.0535
  205MOL0     C27563   1.813  10.618   3.716  0.5292  0.5071  0.5995
  205MOL0     O27564   1.708  10.692   3.654 -0.7249 -0.1819  0.3412
  205MOL0     C27565   1.598  10.714   3.734 -0.0838 -0.2418 -0.2040
  205MOL0     C27566   1.484  10.750   3.662 -0.5575  0.6586 -0.2486
  205MOL0     C27567   1.357  10.760   3.718  0.3035  0.6861  0.0579
  205MOL0     C27568   1.248  10.815   3.620  0.3762  0.1009 -0.7776
  205MOL0     C27569   1.342  10.734   3.857 -0.3600 -0.0968 -0.6989
  205MOL0     C27570   1.225  10.743   3.945  0.2741 -0.4462  0.4586
  205MOL0     O27571   1.211  10.676   4.062 -0.5244 -0.8476 -0.1036
  205MOL0     C27572   1.103  10.716   4.144 -0.8880 -0.0158  0.2952
  205MOL0     C27573   1.023  10.609   4.190 -0.4363  0.2837 -0.0154
  205MOL0     C27574   0.916  10.638   4.278  0.4863  1.1722  0.2013
  205MOL0     C27575   0.894  10.762   4.329  0.7317 -0.6624 -0.0298
  205MOL0     O27576   0.788  10.773   4.407  0.7998  0.7337  0.3785
  205MOL0     C27577   0.751  10.891   4.474  0.8357  0.6132 -0.1321
  205MOL0     C27578   0.597  10.909   4.492  0.2888 -0.1124  0.7113
  205MOL0     C27579   0.522  10.781   4.537 -1.5449  0.0889  0.0394
  205MOL0     C27580   0.389  10.822   4.600  0.5382 -0.6420  0.6324
  205MOL0     C27581   0.293  10.707   4.611 -0.4170 -0.3426  0.2026
  205MOL0     C27582   0.161  10.748   4.679  0.4888 -0.4160  0.0551
  205MOL0     C27583   0.070  10.846   4.610  0.4518  0.2402 -0.4071
  205MOL0     C27584  -0.074  10.833   4.666 -0.1870 -0.2440  0.0681
  205MOL0    Cl27585  -0.137  10.667   4.617 -0.0986 -0.2818  0.2047
  205MOL0     C27586   0.989  10.866   4.299  0.2954  0.6243  0.9344
  205MOL0     C27587   1.086  10.844   4.203 -0.1130  0.1153  0.4909
  205MOL0     O27588   1.136  10.810   3.895  0.1716  0.1917 -0.7444
  205MOL0     C27589   1.459  10.686   3.929  0.4301 -0.1519  0.3300
  205MOL0     C27590   1.580  10.687   3.871  0.2035  0.5047  0.5285
  205MOL0     N27591   2.133  10.403   3.430  0.1578  0.1926  0.2023
  205MOL0     N27592   2.133  10.284   3.383 -0.1388 -0.6478  1.0530
  205MOL0     C27593   3.242   9.698   3.869 -0.2143  0.2151 -0.0123
  205MOL0     C27594   3.372   9.649   3.852  0.0200 -0.5608 -0.1286
  205MOL0     C27595   3.718   9.390   3.673 -0.2084  0.3268  0.2304
  205MOL0     C27596   3.776   9.516   3.634 -0.4559 -0.1548 -0.8169
  205MOL0     C27597   3.905   9.519   3.573  0.3785  0.4267 -1.0942
  205MOL0     C27598   3.979   9.399   3.544  0.5587  0.7576  0.0146
  205MOL0     O27599   4.097   9.381   3.478 -0.1173  0.0022 -0.0538
  205MOL0     C27600   4.189   9.486   3.483  0.2013  0.0869  0.5180
  205MOL0     C27601   4.322   9.418   3.448  0.6347  0.4548 -0.6764
  205MOL0     C27602   4.332   9.397   3.293 -0.1091 -0.4420 -0.6021
  205MOL0     C27603   4.395   9.513   3.217 -0.5398  0.4328  0.0287
  205MOL0     C27604   4.518   9.578   3.278 -0.0600 -0.1362 -0.0484
  205MOL0     C27605   4.619   9.626   3.322 -0.0934  0.1532  0.3259
  205MOL0     C27606   3.924   9.284   3.596  0.4597 -0.1099 -0.3087
  205MOL0     C27607   3.795   9.276   3.648 -0.4079 -0.1147  0.1814
  205MOL0     H27608   3.320   9.352   3.701  0.1737 -0.5327  0.6003
  205MOL0     H27609   3.083   9.435   3.723  0.9636 -1.5377  1.7915
  205MOL0     H27610   3.015   9.863   3.874 -1.2042 -1.9099  1.2542
  205MOL0     H27611   3.006   9.820   3.703 -1.6268  4.6700 -0.2100
  205MOL0     H27612   2.780   9.712   3.743  0.8967  2.1388 -2.8693
  205MOL0     H27613   2.782   9.780   3.912  0.9494 -2.5061  0.7526
  205MOL0     H27614   2.787  10.004   3.825  2.5019 -0.5504  1.7114
  205MOL0     H27615   2.807   9.958   3.660  0.9414 -0.1350  0.3818
  205MOL0     H27616   2.573   9.830   3.764  2.4053 -0.8883 -1.8274
  205MOL0     H27617   2.574   9.999   3.821  1.6190 -0.3719  1.4841
  205MOL0     H27618   2.606  10.077   3.586 -2.2757  0.0240 -0.6663
  205MOL0     H27619   2.602   9.895   3.538 -0.3301  0.1657 -0.9863
  205MOL0     H27620   2.380   9.880   3.606 -1.1821 -0.4252  0.4601
  205MOL0     H27621   2.387  10.048   3.669  2.0261 -0.9429  2.1423
  205MOL0     H27622   2.435  10.110   3.413 -0.2620  0.2464 -0.9633
  205MOL0     H27623   2.407   9.944   3.380  1.1561  0.2505 -0.9766
  205MOL0     H27624   2.168   9.996   3.503  1.6503 -1.2054  0.2473
  205MOL0     H27625   2.182  10.050   3.340  1.1670 -1.0954  0.0625
  205MOL0     H27626   2.253  10.241   3.681 -1.5508 -1.1300 -0.0968
  205MOL0     H27627   2.275  10.488   3.713  0.3479  1.3025  0.2777
  205MOL0     H27628   2.213  10.598   3.581  2.8563 -1.1101 -0.0796
  205MOL0     H27629   2.086  10.648   3.783  0.2198 -1.1589  1.5793
  205MOL0     H27630   2.059  10.475   3.788  2.2442  1.3747  1.1988
  205MOL0     H27631   1.937  10.501   3.560  1.7028 -0.0382  0.4073
  205MOL0     H27632   1.960  10.664   3.560  0.5174 -0.9950 -1.6343
  205MOL0     H27633   1.845  10.676   3.804  2.2457  1.1925 -0.4248
  205MOL0     H27634   1.774  10.521   3.750 -0.9152  0.7466 -0.2943
  205MOL0     H27635   1.501  10.783   3.560  1.0106  4.5569  1.0728
  205MOL0     H27636   1.297  10.842   3.526  1.6557  4.0965  0.8381
  205MOL0     H27637   1.182  10.730   3.603  2.8858 -1.3172 -4.9434
  205MOL0     H27638   1.203  10.909   3.652  1.7617  0.5296  0.0318
  205MOL0     H27639   1.047  10.510   4.153  0.4373  0.2476  0.6127
  205MOL0     H27640   0.841  10.566   4.309  1.3045  0.2440  0.0682
  205MOL0     H27641   0.808  10.908   4.566 -0.0148  2.1603  0.1435
  205MOL0     H27642   0.784  10.982   4.423 -0.1448 -1.1115 -4.2397
  205MOL0     H27643   0.583  10.992   4.562 -2.7067  1.3169 -1.4125
  205MOL0     H27644   0.555  10.954   4.402 -2.9198  1.9109  3.0014
  205MOL0     H27645   0.593  10.751   4.615 -0.0240  1.2387 -0.8567
  205MOL0     H27646   0.515  10.698   4.466  1.3548 -0.9782  0.8446
  205MOL0     H27647   0.404  10.879   4.692 -0.2395  2.0514 -0.8203
  205MOL0     H27648   0.336  10.892   4.536  0.7780 -1.4739 -0.5195
  205MOL0     H27649   0.333  10.619   4.663 -1.0761 -0.4777  0.5050
  205MOL0     H27650   0.277  10.680   4.507 -1.9112 -0.1315  0.3560
  205MOL0     H27651   0.112  10.657   4.714 -2.0654  1.2582  1.1247
  205MOL0     H27652   0.192  10.798   4.772 -1.2792  0.7782  0.0490
  205MOL0     H27653   0.068  10.822   4.503 -0.8807 -0.1085 -0.3093
  205MOL0     H27654   0.093  10.951   4.630  0.6836  0.0869  0.1346
  205MOL0     H27655  -0.142  10.909   4.627 -0.3321 -0.3847  0.0494
  205MOL0     H27656  -0.071  10.843   4.775 -2.8980  3.6220 -0.0201
  205MOL0     H27657   0.973  10.969   4.329  0.4758  2.4804 -4.3260
  205MOL0     H27658   1.156  10.922   4.172  1.9695 -1.0372  2.0599
  205MOL0     H27659   1.447  10.659   4.034 -0.8271 -1.4961 -0.1323
  205MOL0     H27660   1.663  10.662   3.935 -2.5545  0.5119  4.4449
  205MOL0     H27661   3.228   9.785   3.932  3.4602 -0.8663  2.6925
  205MOL0     H27662   3.461   9.702   3.885 -1.0430  0.7241  0.7940
  205MOL0     H27663   3.713   9.602   3.650 -2.0653 -1.0078 -2.2997
  205MOL0     H27664   3.939   9.615   3.536 -5.8890  2.9245 -1.5888
  205MOL0     H27665   4.150   9.570   3.425 -0.9660  0.0965  1.2881
  205MOL0     H27666   4.207   9.517   3.586 -0.4696 -0.2511  0.7418
  205MOL0     H27667   4.322   9.317   3.490 -2.3215  0.3399 -0.7203
  205MOL0     H27668   4.405   9.479   3.485 -1.5177  3.2381 -0.1060
  205MOL0     H27669   4.230   9.385   3.254 -0.3684  1.9474 -0.7725
  205MOL0     H27670   4.397   9.309   3.296  1.4220  0.6793  1.4190
  205MOL0     H27671   4.317   9.589   3.207  1.2144  2.6373  2.0592
  205MOL0     H27672   4.418   9.472   3.118 -1.6050  0.7947 -0.3804
  205MOL0     H27673   4.704   9.680   3.356  0.5164 -0.1276 -0.7126
  205MOL0     H27674   3.984   9.198   3.569  1.2667  1.0118 -2.3709
  205MOL0     H27675   3.770   9.172   3.663  0.0353 -0.5081 -1.5668
  206MOL0     O27676   0.355   6.443   2.442  0.2956  0.3759  0.4236
  206MOL0     C27677   0.379   6.345   2.516 -0.0241  0.0761  0.8324
  206MOL0     O27678   0.283   6.256   2.558 -0.6803 -0.9427  0.7646
  206MOL0     C27679   0.161   6.293   2.507  0.1518 -0.2190 -0.0219
  206MOL0     C27680   0.069   6.367   2.580 -0.0921 -0.1840 -0.1745
  206MOL0     C27681  -0.066   6.374   2.539  0.4146 -0.2241 -0.4826
  206MOL0     C27682  -0.108   6.319   2.423  0.6141 -0.3793  0.5292
  206MOL0     O27683  -0.236   6.318   2.362  0.0244  0.0728 -0.2794
  206MOL0     C27684  -0.325   6.431   2.377  0.1349  0.0144  0.1167
  206MOL0     C27685  -0.421   6.427   2.499  0.6555  0.6054 -0.5744
  206MOL0     C27686  -0.558   6.352   2.464  0.7254 -0.1860 -0.1690
  206MOL0     C27687  -0.614   6.306   2.599 -0.8585 -0.8939 -0.4299
  206MOL0     C27688  -0.747   6.228   2.583  0.7752  0.0976  0.2275
  206MOL0     C27689  -0.859   6.319   2.521 -0.3944  0.4471  0.1892
  206MOL0     C27690  -0.988   6.241   2.517 -0.4655 -0.2363 -0.6721
  206MOL0     C27691  -1.107   6.325   2.547 -0.4283  0.2947 -0.6288
  206MOL0     N27692  -1.226   6.242   2.537 -0.6292  0.2879 -0.0647
  206MOL0     C27693  -1.254   6.141   2.442 -0.0164 -0.0888  0.0443
  206MOL0     C27694  -1.392   6.128   2.454  1.3425  0.8508  0.6299
  206MOL0     C27695  -1.475   6.024   2.373  0.4225 -0.4610  0.0747
  206MOL0     C27696  -1.625   6.040   2.403 -0.4773  0.8946 -0.3230
  206MOL0     C27697  -1.705   5.931   2.321  0.1543  0.3894 -0.0544
  206MOL0     C27698  -1.854   5.963   2.304  0.4025 -0.8465 -0.4186
  206MOL0     O27699  -1.908   5.992   2.439 -0.1183 -0.4314  1.2283
  206MOL0     C27700  -2.033   5.941   2.458 -0.3780 -0.1450  0.9738
  206MOL0     C27701  -2.047   5.820   2.519 -0.4102 -0.5070 -0.5669
  206MOL0     C27702  -2.167   5.756   2.523  0.8090 -0.4554  0.9382
  206MOL0     C27703  -2.171   5.622   2.588  0.1744  0.1090 -0.2905
  206MOL0     C27704  -2.284   5.829   2.480  0.0732 -0.0535  0.3225
  206MOL0     C27705  -2.424   5.780   2.501 -0.7281 -0.4742  0.0261
  206MOL0     O27706  -2.522   5.878   2.479  0.4327  0.1627 -0.0796
  206MOL0     C27707  -2.649   5.858   2.540 -0.6009 -0.8673 -0.1700
  206MOL0     C27708  -2.757   5.887   2.464  0.0143  0.0614 -0.6060
  206MOL0     C27709  -2.882   5.874   2.519 -0.2212 -0.2086 -0.0660
  206MOL0     C27710  -2.900   5.822   2.652 -0.1218 -0.7665  0.3224
  206MOL0     O27711  -3.032   5.808   2.694 -0.3631  0.5801 -0.0979
  206MOL0     C27712  -3.051   5.756   2.832  0.1988 -0.2519 -0.0112
  206MOL0     C27713  -3.199   5.711   2.842 -0.2810 -0.1349 -0.3790
  206MOL0     C27714  -3.241   5.623   2.727 -0.8914 -0.4050 -0.2189
  206MOL0     C27715  -3.369   5.558   2.750  0.7017  1.1009  0.8582
  206MOL0     C27716  -3.427   5.465   2.638  0.8937 -0.0750  0.6408
  206MOL0     C27717  -3.538   5.374   2.691  0.4187 -0.5461 -0.4080
  206MOL0     C27718  -3.623   5.309   2.574 -0.0143 -0.3460 -0.6319
  206MOL0     C27719  -3.744   5.235   2.642 -0.2073  0.4624  0.4018
  206MOL0    Cl27720  -3.865   5.353   2.692 -0.0796  0.1484 -0.1638
  206MOL0     C27721  -2.786   5.809   2.736 -0.1890 -0.8377 -0.6392
  206MOL0     C27722  -2.657   5.817   2.676 -0.8376  0.3282  0.2276
  206MOL0     O27723  -2.440   5.664   2.538  0.4437  0.1894  0.1247
  206MOL0     C27724  -2.269   5.945   2.405  0.1818  0.0545 -0.5904
  206MOL0     C27725  -2.143   6.006   2.390 -0.7240  0.3290 -0.7035
  206MOL0     N27726  -1.438   6.218   2.545 -0.3687  0.8043 -0.6616
  206MOL0     N27727  -1.340   6.279   2.600 -0.5618 -0.6039  0.2463
  206MOL0     C27728  -0.015   6.254   2.347 -0.6613  0.6474  0.0070
  206MOL0     C27729   0.115   6.244   2.386 -0.5964  0.6156  0.1461
  206MOL0     C27730   0.521   6.334   2.554  0.9138 -0.4126  1.0292
  206MOL0     C27731   0.568   6.211   2.590  0.3098  0.6085  0.1175
  206MOL0     C27732   0.696   6.204   2.652  0.0046  0.4256  0.0485
  206MOL0     C27733   0.780   6.317   2.661 -0.1848  0.6073  0.0417
  206MOL0     O27734   0.899   6.299   2.725  0.1864  0.2975  0.1636
  206MOL0     C27735   0.979   6.410   2.742 -0.3505  0.3394  0.2124
  206MOL0     C27736   1.105   6.375   2.825 -0.0901 -0.1573 -0.9937
  206MOL0     C27737   1.220   6.473   2.780 -0.3209 -0.1809 -0.1822
  206MOL0     C27738   1.365   6.422   2.797 -0.1790  1.0275  0.1246
  206MOL0     C27739   1.404   6.331   2.682  0.1750 -0.5238 -0.4252
  206MOL0     C27740   1.451   6.256   2.598  0.7154  0.4972 -0.3583
  206MOL0     C27741   0.734   6.438   2.607 -0.0752 -0.4071  0.2094
  206MOL0     C27742   0.604   6.443   2.553  0.6944 -0.2307 -0.0452
  206MOL0     H27743   0.088   6.424   2.670 -0.8787 -1.6311  0.9373
  206MOL0     H27744  -0.138   6.425   2.603  0.7514  1.2907 -1.2524
  206MOL0     H27745  -0.272   6.526   2.372  0.0164  0.0473 -0.5248
  206MOL0     H27746  -0.383   6.439   2.285  0.6020 -0.2088 -0.1982
  206MOL0     H27747  -0.374   6.375   2.582 -0.9070 -3.3589 -1.9152
  206MOL0     H27748  -0.438   6.533   2.520  1.0000  0.9727 -2.0301
  206MOL0     H27749  -0.620   6.428   2.416 -1.0349  0.0241  2.2354
  206MOL0     H27750  -0.541   6.261   2.407 -3.3713 -0.6658 -0.9175
  206MOL0     H27751  -0.544   6.244   2.655 -0.0491 -1.2829 -1.8268
  206MOL0     H27752  -0.630   6.395   2.660  0.6285 -0.6771 -0.3306
  206MOL0     H27753  -0.721   6.149   2.511  2.1638 -1.0625  1.9249
  206MOL0     H27754  -0.784   6.192   2.679 -0.1214  4.3872  1.6773
  206MOL0     H27755  -0.878   6.417   2.567  3.7986  1.6972 -0.3648
  206MOL0     H27756  -0.844   6.334   2.414  1.3230  2.2173  0.6360
  206MOL0     H27757  -0.998   6.190   2.421 -2.7905 -1.5743  0.1993
  206MOL0     H27758  -0.983   6.162   2.594 -0.2742  0.4879  0.0735
  206MOL0     H27759  -1.105   6.413   2.483 -1.5570  1.8886  1.4129
  206MOL0     H27760  -1.104   6.365   2.649 -1.3123 -0.6956 -0.1858
  206MOL0     H27761  -1.179   6.094   2.379  0.4609  0.8154 -0.0687
  206MOL0     H27762  -1.461   6.048   2.268 -1.0648  1.1855  0.2095
  206MOL0     H27763  -1.431   5.926   2.397  0.9510 -0.2966 -0.2068
  206MOL0     H27764  -1.645   6.142   2.369  1.6254  1.3554 -0.3159
  206MOL0     H27765  -1.647   6.034   2.510 -0.7064  2.2322 -0.2831
  206MOL0     H27766  -1.707   5.828   2.357 -3.4045  0.4274  0.2175
  206MOL0     H27767  -1.660   5.934   2.221  2.4096 -1.5396  0.8314
  206MOL0     H27768  -1.919   5.895   2.249 -0.4236  0.1827 -0.7503
  206MOL0     H27769  -1.864   6.050   2.238  0.2451  1.4506  2.4170
  206MOL0     H27770  -1.953   5.778   2.553 -0.2155 -1.0024 -1.6613
  206MOL0     H27771  -2.250   5.609   2.663 -2.8380  3.0725 -2.6573
  206MOL0     H27772  -2.186   5.536   2.521  1.8619 -1.0820  0.7723
  206MOL0     H27773  -2.081   5.604   2.647 -1.3906 -0.0152  2.2053
  206MOL0     H27774  -2.741   5.904   2.358 -2.1286 -1.3906 -1.2391
  206MOL0     H27775  -2.974   5.897   2.467  0.6435 -2.8216 -3.1208
  206MOL0     H27776  -2.990   5.666   2.848  0.6030  0.2204  1.1932
  206MOL0     H27777  -3.041   5.825   2.916 -1.7287  0.4929 -0.3521
  206MOL0     H27778  -3.203   5.657   2.938  0.0732 -0.3841 -0.5007
  206MOL0     H27779  -3.256   5.804   2.843  2.1760  1.4873 -1.2089
  206MOL0     H27780  -3.169   5.541   2.719  0.7536  0.9806  0.0072
  206MOL0     H27781  -3.253   5.680   2.635  0.5706 -1.6641 -1.2269
  206MOL0     H27782  -3.346   5.489   2.832 -1.7466 -1.9717 -0.8057
  206MOL0     H27783  -3.445   5.633   2.772 -1.8789 -0.5251 -1.7987
  206MOL0     H27784  -3.349   5.406   2.589  0.8814  0.4393 -0.0072
  206MOL0     H27785  -3.469   5.532   2.562  2.3972 -0.9136 -1.0193
  206MOL0     H27786  -3.489   5.307   2.761 -0.4347  0.0599  0.8073
  206MOL0     H27787  -3.602   5.441   2.749  0.2924  0.5244 -1.7084
  206MOL0     H27788  -3.554   5.235   2.533  0.8441  0.3329 -0.4404
  206MOL0     H27789  -3.647   5.389   2.503  0.4085  0.2626 -0.1093
  206MOL0     H27790  -3.704   5.180   2.727  2.9246  1.1170 -0.5072
  206MOL0     H27791  -3.791   5.165   2.571 -0.8839  0.9707  0.3396
  206MOL0     H27792  -2.807   5.785   2.840 -0.0515  3.8842  0.7113
  206MOL0     H27793  -2.571   5.798   2.740 -0.3233 -2.6860 -1.1730
  206MOL0     H27794  -2.361   5.992   2.373 -0.3181 -0.0222  0.6950
  206MOL0     H27795  -2.124   6.097   2.333 -1.1622  2.1795  1.9449
  206MOL0     H27796  -0.042   6.205   2.253 -0.2958  0.0190  0.2214
  206MOL0     H27797   0.188   6.188   2.328 -1.0629  2.1715 -2.0590
  206MOL0     H27798   0.511   6.119   2.594 -0.9619  1.4014  3.2897
  206MOL0     H27799   0.718   6.105   2.691 -2.2804 -1.1367 -2.2604
  206MOL0     H27800   1.014   6.445   2.644 -0.0447 -1.5105 -0.3887
  206MOL0     H27801   0.932   6.493   2.796  0.7818  1.3030 -0.2267
  206MOL0     H27802   1.143   6.272   2.827 -2.6141 -1.1883 -1.5417
  206MOL0     H27803   1.084   6.389   2.932  1.9214 -0.9054 -0.4618
  206MOL0     H27804   1.215   6.557   2.849 -0.9314 -0.4926  0.1597
  206MOL0     H27805   1.206   6.524   2.684 -5.3798 -0.8087 -0.0527
  206MOL0     H27806   1.383   6.369   2.891 -0.4149 -0.5706 -0.6922
  206MOL0     H27807   1.435   6.506   2.795  2.2270 -0.8330  1.2754
  206MOL0     H27808   1.499   6.180   2.539 -0.0807 -0.2405 -0.0841
  206MOL0     H27809   0.798   6.526   2.606  0.7312 -0.9867 -0.9064
  206MOL0     H27810   0.568   6.529   2.496 -0.8365 -2.3132 -2.4578
  207MOL0     O27811   6.248  10.433  10.183  0.3840 -0.3520 -0.7070
  207MOL0     C27812   6.306  10.427  10.077 -1.0631  0.3692 -0.8091
  207MOL0     O27813   6.280  10.326   9.984  0.6587 -0.4478  0.3803
  207MOL0     C27814   6.183  10.226  10.005  0.2522 -0.9501  0.2032
  207MOL0     C27815   6.206  10.088  10.013 -0.3928 -0.6960  0.0527
  207MOL0     C27816   6.103  10.002  10.051 -0.2026  0.8167 -1.0456
  207MOL0     C27817   5.971  10.041  10.055 -0.1724 -0.3041  1.2760
  207MOL0     O27818   5.862   9.966  10.083 -0.4009 -0.2782  0.3828
  207MOL0     C27819   5.877   9.879  10.196 -0.0865  0.2248  0.7399
  207MOL0     C27820   5.901   9.729  10.147 -0.2630  0.2318 -0.4073
  207MOL0     C27821   5.872   9.633  10.272  0.9763  0.0531  0.3571
  207MOL0     C27822   5.896   9.485  10.240 -0.0515 -0.5500 -0.1005
  207MOL0     C27823   5.857   9.383  10.340 -0.5077 -0.2390 -0.5985
  207MOL0     C27824   5.712   9.369  10.375 -0.1155  1.1269  0.2897
  207MOL0     C27825   5.621   9.315  10.263  0.0030 -0.8973 -0.2592
  207MOL0     C27826   5.486   9.300  10.326 -0.9864  0.1461 -0.6799
  207MOL0     N27827   5.401   9.257  10.214  0.7053 -0.6319 -0.9809
  207MOL0     C27828   5.315   9.341  10.143 -0.6979 -0.0366  0.5503
  207MOL0     C27829   5.242   9.266  10.065  0.0922  0.3395  0.2415
  207MOL0     C27830   5.139   9.308   9.964 -0.1709 -0.7374  0.6906
  207MOL0     C27831   5.002   9.245   9.977  0.1562 -0.0702 -0.7976
  207MOL0     C27832   4.905   9.276   9.858  0.2161 -0.2631  0.1449
  207MOL0     C27833   4.771   9.212   9.868 -0.5027 -0.6641 -0.0595
  207MOL0     O27834   4.726   9.231  10.000 -0.2563 -0.3388 -0.2582
  207MOL0     C27835   4.593   9.194  10.016  0.4639 -1.0251  0.6868
  207MOL0     C27836   4.503   9.167   9.912 -0.8879  0.3217  0.2735
  207MOL0     C27837   4.361   9.144   9.938 -0.0263  0.3297  0.8020
  207MOL0     C27838   4.284   9.096   9.811 -0.1387  0.1055  0.0909
  207MOL0     C27839   4.310   9.161  10.067 -0.7772  0.0669 -0.4430
  207MOL0     C27840   4.160   9.130  10.100 -0.1318 -0.3310  0.2856
  207MOL0     O27841   4.126   9.119  10.228 -0.0584 -0.5231 -0.7003
  207MOL0     C27842   3.993   9.129  10.260  0.3508 -0.5470 -0.1816
  207MOL0     C27843   3.910   9.250  10.254 -0.1770  0.0050 -0.5412
  207MOL0     C27844   3.772   9.247  10.277 -0.4909 -0.1592 -0.4062
  207MOL0     C27845   3.708   9.126  10.311 -0.0858 -0.4016  0.0222
  207MOL0     O27846   3.578   9.114  10.333  0.1796  0.4050  0.2075
  207MOL0     C27847   3.542   9.203  10.428  0.0611 -0.2020  0.7596
  207MOL0     C27848   3.405   9.160  10.476  1.0675 -0.1811  0.0003
  207MOL0     C27849   3.369   9.209  10.620 -0.1662  0.0898  0.4435
  207MOL0     C27850   3.227   9.163  10.650 -0.5224  0.0980 -0.9380
  207MOL0     C27851   3.227   9.023  10.704 -0.7278 -0.0933 -0.3722
  207MOL0     C27852   3.091   8.957  10.716 -0.2321 -0.3857 -0.4858
  207MOL0     C27853   3.078   8.849  10.596  0.1969  0.3367 -0.3421
  207MOL0     C27854   2.942   8.778  10.615  0.0860 -0.8014 -0.5763
  207MOL0    Cl27855   2.941   8.674  10.758  0.2522 -0.0589  0.1724
  207MOL0     C27856   3.786   9.006  10.322 -0.0448 -0.4042  0.6115
  207MOL0     C27857   3.925   9.008  10.300  0.0815  1.3743  0.5353
  207MOL0     O27858   4.087   9.128  10.002 -0.6078  0.2197 -0.7849
  207MOL0     C27859   4.399   9.195  10.175  0.0855  0.5547 -0.6112
  207MOL0     C27860   4.534   9.204  10.143  0.2343 -0.5966  0.2760
  207MOL0     N27861   5.281   9.134  10.090 -0.0676 -0.7057 -0.6776
  207MOL0     N27862   5.378   9.127  10.177  0.5214  0.2360 -0.3766
  207MOL0     C27863   5.942  10.178  10.025 -0.8464  0.4008 -0.2305
  207MOL0     C27864   6.051  10.274   9.998  0.3788  0.8023  0.0249
  207MOL0     C27865   6.409  10.525  10.039 -0.3547  0.2487 -0.3824
  207MOL0     C27866   6.431  10.562   9.907  0.0559 -0.5346  0.0382
  207MOL0     C27867   6.533  10.653   9.871  0.4611 -0.2479 -0.7729
  207MOL0     C27868   6.617  10.701   9.970  0.2049 -0.1363  0.8646
  207MOL0     O27869   6.707  10.803   9.947  0.4459  0.2236  0.8881
  207MOL0     C27870   6.745  10.828   9.808 -0.0834 -0.4655 -0.0233
  207MOL0     C27871   6.834  10.951   9.794  0.2466 -0.1843  0.0899
  207MOL0     C27872   6.970  10.914   9.856 -0.2400  0.0353  0.2333
  207MOL0     C27873   7.078  11.014   9.855 -0.0167  0.2387  0.2869
  207MOL0     C27874   7.135  11.023   9.716 -0.3650 -0.8829  0.4905
  207MOL0     C27875   7.170  11.034   9.599  0.2675  0.2339 -0.3300
  207MOL0     C27876   6.601  10.659  10.106  0.0203  0.4221  0.4390
  207MOL0     C27877   6.497  10.578  10.137  0.4591 -0.0295  0.5142
  207MOL0     H27878   6.307  10.050  10.021 -1.3221 -2.8974  3.9628
  207MOL0     H27879   6.123   9.896  10.060 -2.0473  0.4622 -0.6141
  207MOL0     H27880   5.958   9.906  10.264  1.2188 -0.1898 -0.6118
  207MOL0     H27881   5.780   9.900  10.242  0.7086  0.5470  2.3456
  207MOL0     H27882   5.836   9.710  10.061 -0.6627  3.4401 -0.9111
  207MOL0     H27883   6.005   9.717  10.115 -0.1038 -0.2557  0.2598
  207MOL0     H27884   5.938   9.667  10.353 -0.5923  1.4787  1.1219
  207MOL0     H27885   5.770   9.646  10.310  0.3174 -1.3320 -0.8423
  207MOL0     H27886   5.840   9.474  10.146  4.1834 -0.1015 -2.9396
  207MOL0     H27887   6.000   9.470  10.212  1.2162  0.9134  3.2597
  207MOL0     H27888   5.890   9.287  10.302 -0.5121 -0.3725 -0.2695
  207MOL0     H27889   5.910   9.399  10.435 -1.5266  0.6706 -0.1538
  207MOL0     H27890   5.714   9.301  10.461  1.3987  1.2380  0.3654
  207MOL0     H27891   5.674   9.466  10.406 -0.6974  0.5075  1.5894
  207MOL0     H27892   5.612   9.384  10.179  1.2712 -0.3614  0.0212
  207MOL0     H27893   5.659   9.217  10.232 -2.8543 -2.7813  1.7516
  207MOL0     H27894   5.445   9.391  10.371 -1.9887 -1.6526  2.3197
  207MOL0     H27895   5.495   9.219  10.398  3.1770  0.6798 -0.3353
  207MOL0     H27896   5.298   9.448  10.147 -2.5606 -0.2004 -1.3547
  207MOL0     H27897   5.133   9.417   9.970  1.5400 -0.3397 -2.7139
  207MOL0     H27898   5.170   9.301   9.860 -2.1891  0.0267 -0.0064
  207MOL0     H27899   4.969   9.275  10.076 -0.1410 -1.6259 -0.3871
  207MOL0     H27900   5.011   9.136   9.981  0.8824  0.0163  0.2330
  207MOL0     H27901   4.960   9.232   9.774 -0.1854  0.5804 -0.5724
  207MOL0     H27902   4.891   9.384   9.851  1.9396  0.3712  3.9048
  207MOL0     H27903   4.769   9.106   9.841 -0.1231 -0.1482 -2.3510
  207MOL0     H27904   4.699   9.263   9.804  0.5120 -0.2957 -0.9360
  207MOL0     H27905   4.542   9.145   9.814  0.5755  0.5750  0.7732
  207MOL0     H27906   4.337   9.071   9.719 -2.5628  3.7035 -2.5633
  207MOL0     H27907   4.221   9.008   9.830 -1.3720  0.5186 -1.8341
  207MOL0     H27908   4.226   9.180   9.772 -0.0787 -0.1820 -0.6160
  207MOL0     H27909   3.964   9.340  10.224  2.9808 -1.2263  1.0561
  207MOL0     H27910   3.725   9.344  10.263  0.5454  0.4374  0.1282
  207MOL0     H27911   3.610   9.210  10.513 -1.2256  2.8579  1.6642
  207MOL0     H27912   3.519   9.300  10.385 -0.4452 -1.2281 -1.4506
  207MOL0     H27913   3.331   9.202  10.408  0.7025  1.7271  1.4776
  207MOL0     H27914   3.390   9.052  10.473  0.0126 -0.0284 -0.5258
  207MOL0     H27915   3.378   9.318  10.612  1.1401 -0.1483 -3.3998
  207MOL0     H27916   3.438   9.170  10.696 -0.6256  3.8733  3.1255
  207MOL0     H27917   3.193   9.236  10.724 -0.5635 -0.2946 -0.5631
  207MOL0     H27918   3.166   9.191  10.564 -1.1557  2.2583  0.1433
  207MOL0     H27919   3.250   9.028  10.811 -2.4698 -0.6572  0.0511
  207MOL0     H27920   3.313   8.965  10.670 -1.2921 -2.2437  1.6469
  207MOL0     H27921   3.080   8.903  10.810  0.6913  0.4062  0.0913
  207MOL0     H27922   3.006   9.026  10.713 -0.2436 -0.4206 -1.0967
  207MOL0     H27923   3.156   8.773  10.605  0.6502  0.9993  2.2506
  207MOL0     H27924   3.064   8.895  10.498 -4.1527 -2.0116 -1.0428
  207MOL0     H27925   2.937   8.723  10.521 -1.3445 -0.2232 -0.8545
  207MOL0     H27926   2.861   8.847  10.639 -0.3289 -0.9046 -1.6283
  207MOL0     H27927   3.747   8.913  10.363 -0.4603 -0.5926 -0.1962
  207MOL0     H27928   3.990   8.922  10.313  0.2896  1.5529  0.6987
  207MOL0     H27929   4.358   9.204  10.275 -2.2664 -1.5631 -1.2952
  207MOL0     H27930   4.597   9.238  10.225 -0.3275  0.6715  0.2030
  207MOL0     H27931   5.838  10.211  10.030 -0.8101  0.4952 -0.0752
  207MOL0     H27932   6.027  10.378   9.980 -0.5753  0.6425  0.3215
  207MOL0     H27933   6.359  10.520   9.837  1.8478 -3.6456 -0.0833
  207MOL0     H27934   6.533  10.678   9.765 -3.6776  1.6548 -0.4956
  207MOL0     H27935   6.784  10.739   9.757 -1.2584 -0.4634 -0.9818
  207MOL0     H27936   6.655  10.848   9.749 -0.0605 -0.3056 -0.0049
  207MOL0     H27937   6.783  11.038   9.836 -2.4348 -1.7118  0.1737
  207MOL0     H27938   6.845  10.973   9.687 -1.8062 -2.3111 -0.6260
  207MOL0     H27939   6.998  10.814   9.822  2.4641  1.5572 -2.5382
  207MOL0     H27940   6.935  10.909   9.959 -0.9061  2.1466  0.1596
  207MOL0     H27941   7.165  11.001   9.920 -0.9800  1.6988  1.9407
  207MOL0     H27942   7.031  11.102   9.898  0.0034 -1.0160  3.0673
  207MOL0     H27943   7.208  11.032   9.499 -1.4805 -0.6033 -1.0254
  207MOL0     H27944   6.653  10.717  10.182  0.5719  1.6850 -0.8589
  207MOL0     H27945   6.491  10.564  10.244 -1.0359  0.9453  0.5902
  208MOL0     O27946   9.110   6.188   5.508 -0.8395 -0.4053  0.3974
  208MOL0     C27947   9.114   6.069   5.503 -0.0960  0.0028 -0.1229
  208MOL0     O27948   9.015   5.984   5.548  0.3874  0.7046 -0.3401
  208MOL0     C27949   8.905   6.041   5.590  0.4547 -0.4702  0.6703
  208MOL0     C27950   8.863   6.005   5.712  0.5264 -0.2198  0.0213
  208MOL0     C27951   8.745   6.054   5.770 -0.1646  0.4626  0.7046
  208MOL0     C27952   8.657   6.133   5.703 -0.1577  0.5733  0.2499
  208MOL0     O27953   8.534   6.166   5.765 -0.7351 -0.4608 -0.2700
  208MOL0     C27954   8.417   6.162   5.679  0.0722  0.3397 -0.5645
  208MOL0     C27955   8.297   6.216   5.752  0.3119  0.2201 -0.2913
  208MOL0     C27956   8.173   6.189   5.668 -0.6772  0.0304 -0.2863
  208MOL0     C27957   8.045   6.229   5.737 -0.3480 -0.5281  0.8276
  208MOL0     C27958   7.914   6.192   5.669 -0.4220  0.0558 -0.3581
  208MOL0     C27959   7.890   6.048   5.707 -0.1983 -0.2833  0.4290
  208MOL0     C27960   7.795   5.970   5.620  0.2668  0.9988 -0.1673
  208MOL0     C27961   7.662   6.052   5.591  0.1936 -0.2852 -0.3184
  208MOL0     N27962   7.553   5.967   5.535 -0.0809  0.3952  0.3068
  208MOL0     C27963   7.474   5.881   5.611  0.7101  0.5721  0.4283
  208MOL0     C27964   7.376   5.841   5.526  0.1046 -0.5788  0.3631
  208MOL0     C27965   7.281   5.729   5.566  0.8849  0.3569 -0.4292
  208MOL0     C27966   7.136   5.773   5.579 -0.0840  0.7795  0.1686
  208MOL0     C27967   7.071   5.769   5.439  0.6100 -1.0852 -0.7084
  208MOL0     C27968   6.917   5.803   5.458  0.7843  0.3015  0.1422
  208MOL0     O27969   6.851   5.708   5.550  0.4523 -0.1913  0.0156
  208MOL0     C27970   6.805   5.585   5.500  0.4830  0.5785  0.5068
  208MOL0     C27971   6.784   5.487   5.596  0.2204  0.1316  0.0890
  208MOL0     C27972   6.723   5.370   5.565  0.3692 -0.1584  0.1236
  208MOL0     C27973   6.680   5.281   5.675 -0.4964 -0.6842  0.3006
  208MOL0     C27974   6.693   5.343   5.427  0.1772  0.0186 -0.1978
  208MOL0     C27975   6.617   5.231   5.380 -0.4022  0.1338  0.1871
  208MOL0     O27976   6.630   5.118   5.450 -0.0341 -0.3033  0.1612
  208MOL0     C27977   6.578   4.995   5.399  0.3848 -0.6803 -0.2430
  208MOL0     C27978   6.655   4.918   5.319 -0.3939 -0.2419 -0.5740
  208MOL0     C27979   6.610   4.793   5.271  0.3709 -0.4017  0.1472
  208MOL0     C27980   6.488   4.743   5.308 -0.2918  0.2663 -0.8947
  208MOL0     O27981   6.454   4.617   5.262  0.1067  0.6434 -0.0282
  208MOL0     C27982   6.312   4.591   5.264 -0.2871 -0.7443  0.2409
  208MOL0     C27983   6.267   4.474   5.173  0.4838  0.2536  0.6733
  208MOL0     C27984   6.252   4.504   5.016  0.3061 -0.9129 -0.2382
  208MOL0     C27985   6.199   4.380   4.931  0.4195  0.2118 -0.5933
  208MOL0     C27986   6.136   4.436   4.803 -0.0133 -0.1917  0.1938
  208MOL0     C27987   6.001   4.517   4.814  0.3001  0.0081 -0.5440
  208MOL0     C27988   5.928   4.536   4.676 -0.0574  0.6138 -0.5388
  208MOL0     C27989   5.877   4.401   4.628  0.1271  0.4231  0.5761
  208MOL0    Cl27990   5.709   4.355   4.676  0.3878  0.0910  0.2898
  208MOL0     C27991   6.410   4.822   5.404  0.8564  0.6685  0.6165
  208MOL0     C27992   6.451   4.948   5.441  0.2305 -0.9738 -0.0730
  208MOL0     O27993   6.542   5.245   5.284 -0.1388  0.4930 -0.1946
  208MOL0     C27994   6.723   5.441   5.330 -0.2600  0.8309 -0.5493
  208MOL0     C27995   6.770   5.567   5.364  0.1782  0.7486 -0.2508
  208MOL0     N27996   7.391   5.896   5.403  0.0557 -0.1840 -0.2080
  208MOL0     N27997   7.499   5.969   5.410 -0.2963  0.2192  0.7956
  208MOL0     C27998   8.689   6.164   5.570 -0.0128 -0.0662 -0.1583
  208MOL0     C27999   8.810   6.110   5.515  0.3813 -1.0257 -0.1310
  208MOL0     C28000   9.242   6.010   5.454 -0.1967  0.1863 -0.2811
  208MOL0     C28001   9.350   6.088   5.423 -0.5921 -0.0993 -0.6437
  208MOL0     C28002   9.471   6.041   5.376 -1.0235  0.0082 -0.3380
  208MOL0     C28003   9.496   5.901   5.381  0.9604  0.5907 -0.0861
  208MOL0     O28004   9.626   5.859   5.361 -1.1258 -0.4532 -0.2340
  208MOL0     C28005   9.642   5.720   5.322  0.0794 -0.1058 -0.2851
  208MOL0     C28006   9.792   5.694   5.289 -0.4200 -0.1950 -0.0793
  208MOL0     C28007   9.892   5.746   5.386  0.4806  0.1598 -0.1252
  208MOL0     C28008   9.870   5.737   5.537  0.6097  0.4973 -0.1857
  208MOL0     C28009   9.866   5.604   5.599 -1.0758  0.2724  0.0004
  208MOL0     C28010   9.862   5.483   5.631  0.3193 -0.4790  0.0994
  208MOL0     C28011   9.385   5.816   5.415  0.0866  0.0325  0.4688
  208MOL0     C28012   9.265   5.872   5.451 -0.1092 -0.4846 -0.1253
  208MOL0     H28013   8.935   5.945   5.765  1.6128  1.2776  0.3259
  208MOL0     H28014   8.719   6.032   5.873  0.8270  0.7986  1.0346
  208MOL0     H28015   8.440   6.220   5.589 -0.2944  0.9988 -0.2399
  208MOL0     H28016   8.396   6.059   5.649  1.9391 -0.5507  0.9644
  208MOL0     H28017   8.291   6.155   5.843 -0.7705 -2.7413 -2.2118
  208MOL0     H28018   8.306   6.324   5.764 -1.0795  0.2356  0.8785
  208MOL0     H28019   8.180   6.239   5.571 -1.1058 -0.3808 -0.5294
  208MOL0     H28020   8.159   6.082   5.649 -2.3214  0.0090  0.8637
  208MOL0     H28021   8.050   6.182   5.835 -0.9346  2.6377  2.5135
  208MOL0     H28022   8.055   6.337   5.751 -0.5540 -0.4119  0.1263
  208MOL0     H28023   7.839   6.259   5.711 -0.9267 -0.1558 -0.9060
  208MOL0     H28024   7.928   6.205   5.561 -1.6596  2.1267 -0.3221
  208MOL0     H28025   7.987   5.999   5.719 -0.1706  0.3122  3.4235
  208MOL0     H28026   7.861   6.038   5.812  1.3801 -0.4005  0.8824
  208MOL0     H28027   7.845   5.944   5.527 -0.2353 -2.2823  0.3780
  208MOL0     H28028   7.778   5.876   5.672 -0.4700 -0.5484 -3.0477
  208MOL0     H28029   7.682   6.130   5.517 -0.3531 -1.0906 -1.3426
  208MOL0     H28030   7.628   6.095   5.686  0.0701  0.8484 -0.8648
  208MOL0     H28031   7.494   5.846   5.711 -1.5324 -1.2515  0.3125
  208MOL0     H28032   7.288   5.645   5.496  1.3842 -0.6436  0.7652
  208MOL0     H28033   7.318   5.687   5.660  0.6706  0.3115 -0.3637
  208MOL0     H28034   7.121   5.864   5.637  0.3476  1.1094 -0.2274
  208MOL0     H28035   7.086   5.698   5.641  3.7574 -0.9231  1.5357
  208MOL0     H28036   7.078   5.672   5.388 -3.3575 -0.6382 -2.5246
  208MOL0     H28037   7.123   5.847   5.383  3.6396 -1.5630  1.2229
  208MOL0     H28038   6.860   5.819   5.366 -1.7600  1.0400  1.7489
  208MOL0     H28039   6.919   5.901   5.508  1.4850 -0.2319  1.1983
  208MOL0     H28040   6.816   5.510   5.697  0.1143 -4.1570  1.3282
  208MOL0     H28041   6.719   5.182   5.651 -0.3770 -1.4988  3.3598
  208MOL0     H28042   6.726   5.313   5.769 -0.5515  0.6100 -0.0956
  208MOL0     H28043   6.571   5.285   5.682 -0.4577  4.2845  1.9568
  208MOL0     H28044   6.757   4.946   5.293 -0.5949 -0.1061 -1.2425
  208MOL0     H28045   6.659   4.724   5.203  0.8844 -2.7451  2.7130
  208MOL0     H28046   6.285   4.562   5.366  1.2687 -0.7860  0.6521
  208MOL0     H28047   6.265   4.685   5.232  3.0657  0.9914  0.0620
  208MOL0     H28048   6.335   4.391   5.193  0.1245 -0.5893 -1.3778
  208MOL0     H28049   6.169   4.441   5.208  0.2078 -0.3924 -0.6567
  208MOL0     H28050   6.350   4.529   4.973 -0.6822  0.6368 -1.7131
  208MOL0     H28051   6.186   4.591   5.006  1.0673 -0.3823 -0.7365
  208MOL0     H28052   6.277   4.306   4.910  0.6234  0.0939  0.5287
  208MOL0     H28053   6.123   4.323   4.984  0.0832  0.4434 -0.8225
  208MOL0     H28054   6.112   4.348   4.743 -2.3089  0.0430  0.6682
  208MOL0     H28055   6.221   4.487   4.756  0.0270 -1.1120 -0.7816
  208MOL0     H28056   5.937   4.470   4.889 -0.6919  3.7397  1.1734
  208MOL0     H28057   6.034   4.609   4.863 -0.7379 -1.3945  3.1343
  208MOL0     H28058   5.987   4.585   4.598  0.6638  0.9797  0.2134
  208MOL0     H28059   5.839   4.594   4.700  0.0303  1.0793 -1.3092
  208MOL0     H28060   5.949   4.323   4.656  0.0340  0.0976 -0.0773
  208MOL0     H28061   5.877   4.405   4.519 -1.5856  1.2032  0.5735
  208MOL0     H28062   6.316   4.788   5.448 -0.5828  3.8643  0.2631
  208MOL0     H28063   6.387   4.999   5.512  1.7045  0.5134  0.2700
  208MOL0     H28064   6.686   5.413   5.232 -2.3106 -3.8663  1.2715
  208MOL0     H28065   6.773   5.637   5.281  3.1092 -2.0144 -2.7390
  208MOL0     H28066   8.628   6.221   5.499  1.0763  1.0558 -0.2300
  208MOL0     H28067   8.839   6.140   5.415 -0.4267 -0.5818 -0.2371
  208MOL0     H28068   9.344   6.196   5.424  1.0874  0.0371 -1.1470
  208MOL0     H28069   9.551   6.112   5.356 -0.7545  0.6551  2.6398
  208MOL0     H28070   9.613   5.653   5.404 -2.1920 -0.5242 -1.3471
  208MOL0     H28071   9.561   5.703   5.250 -1.7658  3.4572  0.6853
  208MOL0     H28072   9.800   5.746   5.193 -2.1743 -2.4259 -1.5566
  208MOL0     H28073   9.811   5.587   5.273 -0.2720 -0.0887 -0.6497
  208MOL0     H28074   9.896   5.853   5.364 -0.6788 -0.3819 -3.4471
  208MOL0     H28075   9.989   5.697   5.375  1.0055  0.3547  2.8216
  208MOL0     H28076   9.779   5.789   5.569 -1.0300 -1.7628 -0.8334
  208MOL0     H28077   9.944   5.799   5.589  1.7281 -0.1811 -0.9235
  208MOL0     H28078   9.886   5.381   5.653  0.3937 -0.2377  1.2317
  208MOL0     H28079   9.403   5.709   5.407  1.7729  0.3885 -1.1416
  208MOL0     H28080   9.186   5.803   5.478 -0.2235  0.0395  0.9297
  209MOL0     O28081   3.659   5.762   7.527 -0.5819 -0.1648  0.3375
  209MOL0     C28082   3.595   5.697   7.444 -0.6514  0.0648  0.1487
  209MOL0     O28083   3.472   5.648   7.454  0.7976 -0.4789 -0.3253
  209MOL0     C28084   3.402   5.679   7.571 -1.1436  0.5547 -0.0309
  209MOL0     C28085   3.456   5.668   7.700 -0.1080  0.7912  0.5707
  209MOL0     C28086   3.374   5.682   7.810 -0.4251  0.3583 -0.6025
  209MOL0     C28087   3.234   5.697   7.799 -0.5906  0.7038 -0.0029
  209MOL0     O28088   3.160   5.722   7.917  0.6663 -0.5743  0.2682
  209MOL0     C28089   3.024   5.771   7.895 -0.5858  0.5311 -0.0154
  209MOL0     C28090   2.972   5.800   8.032 -0.1605 -0.1731 -0.1085
  209MOL0     C28091   2.829   5.813   8.050  0.0219  0.4528  0.5670
  209MOL0     C28092   2.783   5.881   8.187 -0.2846  0.5712  0.1997
  209MOL0     C28093   2.652   5.836   8.227 -0.1898  0.3185 -0.2856
  209MOL0     C28094   2.597   5.915   8.342  0.5461 -1.0484 -0.0351
  209MOL0     C28095   2.444   5.908   8.349 -0.2558 -0.2297 -0.6327
  209MOL0     C28096   2.375   5.990   8.455  0.3294 -0.1649  0.2703
  209MOL0     N28097   2.231   5.960   8.450  0.4808 -0.3715 -0.1026
  209MOL0     C28098   2.133   6.058   8.462 -0.1202 -0.6028  0.8341
  209MOL0     C28099   2.019   5.988   8.494 -0.4503  0.1919  0.1854
  209MOL0     C28100   1.884   6.049   8.489  0.1788 -0.6655 -0.0470
  209MOL0     C28101   1.861   6.178   8.576  0.1165  0.2175 -0.3435
  209MOL0     C28102   1.708   6.197   8.596 -0.3678  0.1607 -0.1562
  209MOL0     C28103   1.617   6.206   8.475 -0.5357 -0.3904  0.9856
  209MOL0     O28104   1.633   6.331   8.407  0.1097 -0.1041  0.0160
  209MOL0     C28105   1.528   6.419   8.402 -0.2465  0.3007 -0.2459
  209MOL0     C28106   1.550   6.548   8.453  0.3957 -0.2385 -0.1993
  209MOL0     C28107   1.448   6.640   8.478 -0.1296  0.8392  0.0322
  209MOL0     C28108   1.486   6.755   8.566  0.3348  0.6367 -0.1586
  209MOL0     C28109   1.315   6.607   8.440 -0.1328  0.6294 -0.3173
  209MOL0     C28110   1.191   6.681   8.482 -0.2425 -0.6626 -0.6208
  209MOL0     O28111   1.082   6.602   8.489  0.0839 -0.2877  0.4766
  209MOL0     C28112   0.978   6.654   8.563 -0.1681 -0.4363  0.3282
  209MOL0     C28113   0.847   6.665   8.505  0.6473  0.7398  0.2481
  209MOL0     C28114   0.751   6.731   8.574  1.0238 -0.1762  0.3015
  209MOL0     C28115   0.767   6.778   8.701  0.2543  0.9076 -0.3047
  209MOL0     O28116   0.662   6.845   8.765 -0.4130  0.1901  0.5622
  209MOL0     C28117   0.524   6.843   8.725  0.3515  0.3936  0.3545
  209MOL0     C28118   0.425   6.922   8.807  0.3517 -0.1816  0.7495
  209MOL0     C28119   0.408   6.865   8.950  0.9907 -0.2178 -0.0449
  209MOL0     C28120   0.353   6.976   9.044 -0.2516  0.1272 -0.2071
  209MOL0     C28121   0.302   6.933   9.185  0.1209  0.7674 -0.4619
  209MOL0     C28122   0.427   6.880   9.269 -0.2476  0.2638  0.6845
  209MOL0     C28123   0.385   6.801   9.392  0.0964 -0.4204  0.1956
  209MOL0     C28124   0.510   6.771   9.476  0.1029 -0.0089 -0.0839
  209MOL0    Cl28125   0.612   6.915   9.519  0.0283 -0.5097  0.0874
  209MOL0     C28126   0.882   6.759   8.760 -1.1083  0.5506 -0.6046
  209MOL0     C28127   0.993   6.702   8.692 -0.5004 -0.0759 -0.2145
  209MOL0     O28128   1.192   6.801   8.495 -0.4024  0.6388 -0.1093
  209MOL0     C28129   1.299   6.486   8.367  0.0967 -0.3555 -0.1804
  209MOL0     C28130   1.406   6.394   8.345  0.8798 -0.2354 -0.1261
  209MOL0     N28131   2.055   5.859   8.526 -0.3380  0.0167 -0.1584
  209MOL0     N28132   2.186   5.845   8.510  0.3077 -0.5270 -0.1178
  209MOL0     C28133   3.175   5.703   7.668 -0.2895 -0.9897  0.3810
  209MOL0     C28134   3.264   5.702   7.559  0.3236  0.3977 -0.1324
  209MOL0     C28135   3.659   5.656   7.317  0.4449 -0.1393 -0.0187
  209MOL0     C28136   3.795   5.643   7.302 -0.5942 -0.4819 -0.9209
  209MOL0     C28137   3.859   5.627   7.180 -0.4663  0.3421 -0.2114
  209MOL0     C28138   3.784   5.614   7.060  0.0046  0.3223  0.5499
  209MOL0     O28139   3.842   5.598   6.935  0.2684 -0.9138 -0.2196
  209MOL0     C28140   3.979   5.641   6.903  0.8564  0.1301 -0.1057
  209MOL0     C28141   3.984   5.793   6.873 -0.0956 -0.3574  0.1756
  209MOL0     C28142   3.897   5.828   6.755  0.5480 -0.3771  1.0076
  209MOL0     C28143   3.758   5.872   6.796 -0.5703 -0.4418 -0.4230
  209MOL0     C28144   3.766   5.998   6.859  0.9178  0.0687 -0.2627
  209MOL0     C28145   3.781   6.094   6.927  0.9448 -0.1158  0.6774
  209MOL0     C28146   3.641   5.621   7.078 -0.2151  0.1607  0.5874
  209MOL0     C28147   3.584   5.632   7.204 -0.0356  0.9501 -0.8720
  209MOL0     H28148   3.558   5.636   7.718 -0.8859 -0.1239  4.2132
  209MOL0     H28149   3.410   5.675   7.912  0.0085 -0.9086 -0.8302
  209MOL0     H28150   3.020   5.862   7.835  0.4800 -0.1758 -1.2149
  209MOL0     H28151   2.973   5.687   7.845 -0.2087  0.7474 -0.7722
  209MOL0     H28152   3.014   5.740   8.113 -1.3275  0.0926  0.7171
  209MOL0     H28153   3.012   5.901   8.049  2.7190 -1.4574  1.2411
  209MOL0     H28154   2.784   5.874   7.971  1.0127  1.6846  0.9170
  209MOL0     H28155   2.784   5.715   8.037  0.4539  0.3309 -0.0824
  209MOL0     H28156   2.851   5.855   8.269  3.3568 -0.8255 -2.9317
  209MOL0     H28157   2.779   5.990   8.174 -2.8842  0.3432 -1.5868
  209MOL0     H28158   2.599   5.834   8.131  2.1019  1.0202 -1.6505
  209MOL0     H28159   2.662   5.732   8.257 -0.4958  0.6939  1.1992
  209MOL0     H28160   2.650   5.871   8.428  0.6912 -1.9329 -0.5651
  209MOL0     H28161   2.623   6.019   8.321 -0.9278 -0.5407  0.5484
  209MOL0     H28162   2.418   5.965   8.260 -2.2554 -2.0932 -1.3106
  209MOL0     H28163   2.410   5.805   8.345 -0.2956 -0.2485  0.1162
  209MOL0     H28164   2.379   6.099   8.440  0.5620 -0.5570 -3.5811
  209MOL0     H28165   2.427   5.962   8.546  0.9026 -5.0313 -1.2882
  209MOL0     H28166   2.144   6.158   8.420  2.3321 -1.0514  0.2301
  209MOL0     H28167   1.870   6.077   8.384  0.7112  3.9685  0.8898
  209MOL0     H28168   1.803   5.978   8.506 -0.7265  0.5471  0.9081
  209MOL0     H28169   1.904   6.267   8.528 -0.1698  1.0093  0.8339
  209MOL0     H28170   1.914   6.151   8.667  1.5187 -0.0883 -1.2268
  209MOL0     H28171   1.690   6.288   8.653 -1.0722 -0.0071 -0.1073
  209MOL0     H28172   1.668   6.112   8.652 -1.3578 -0.0561 -1.1600
  209MOL0     H28173   1.517   6.191   8.516 -0.5658  3.2031  2.6036
  209MOL0     H28174   1.649   6.132   8.402 -0.7785  0.5752 -0.1364
  209MOL0     H28175   1.650   6.575   8.486  0.7547 -2.3015  0.5286
  209MOL0     H28176   1.447   6.736   8.667  2.9263  0.7091  0.9164
  209MOL0     H28177   1.593   6.776   8.566  1.0493 -2.3825 -2.3737
  209MOL0     H28178   1.433   6.842   8.526 -1.7760 -0.1425  0.7776
  209MOL0     H28179   0.836   6.628   8.404  0.5921 -1.1368  0.9108
  209MOL0     H28180   0.656   6.739   8.522  1.0427 -0.6144  0.1938
  209MOL0     H28181   0.543   6.891   8.628 -1.0391  0.6677  0.1988
  209MOL0     H28182   0.482   6.742   8.723 -0.0677  0.5608  0.5871
  209MOL0     H28183   0.446   7.029   8.815  1.5671 -0.3941  0.6612
  209MOL0     H28184   0.329   6.919   8.755  0.5093  2.9823  0.0945
  209MOL0     H28185   0.503   6.828   8.991  1.2953  1.1162  0.5073
  209MOL0     H28186   0.338   6.781   8.941 -0.7662  1.4104 -3.2187
  209MOL0     H28187   0.437   7.045   9.056 -1.6356  1.5519  1.8800
  209MOL0     H28188   0.268   7.026   8.996  1.0214  0.3831 -2.3578
  209MOL0     H28189   0.219   6.866   9.164 -0.6835  1.5208  0.2764
  209MOL0     H28190   0.252   7.012   9.243  3.4077  2.0115  0.9619
  209MOL0     H28191   0.500   6.825   9.210 -2.0394 -1.8137  0.2840
  209MOL0     H28192   0.477   6.974   9.295  1.0032 -0.2311  0.1320
  209MOL0     H28193   0.333   6.709   9.362 -0.4416 -0.6517  1.7788
  209MOL0     H28194   0.323   6.867   9.454  0.7936 -0.2829  0.7556
  209MOL0     H28195   0.581   6.706   9.424  0.6134 -0.6643  1.3524
  209MOL0     H28196   0.473   6.720   9.566 -0.1322  0.7893  0.2802
  209MOL0     H28197   0.889   6.793   8.863  0.5676  0.2840 -0.5990
  209MOL0     H28198   1.086   6.683   8.745  0.2176  0.2424 -1.3241
  209MOL0     H28199   1.203   6.466   8.320 -0.6388 -1.1279  1.5194
  209MOL0     H28200   1.390   6.300   8.292  0.1896 -1.3449  1.9293
  209MOL0     H28201   3.068   5.717   7.655 -0.3986 -2.8106 -1.2535
  209MOL0     H28202   3.227   5.701   7.457  0.5618 -0.9543 -0.2266
  209MOL0     H28203   3.859   5.649   7.389 -0.1255 -2.8158 -1.0458
  209MOL0     H28204   3.967   5.637   7.172 -0.4011 -1.5879 -3.3376
  209MOL0     H28205   4.053   5.611   6.978 -0.8749  0.1234  1.6765
  209MOL0     H28206   4.021   5.578   6.824  3.3868 -0.6128  1.7032
  209MOL0     H28207   4.080   5.842   6.851 -0.6344  1.3141  1.2972
  209MOL0     H28208   3.946   5.840   6.965 -0.6542 -0.9151  0.2360
  209MOL0     H28209   3.883   5.739   6.693  0.3736 -1.1467  2.1286
  209MOL0     H28210   3.954   5.903   6.699 -0.9081 -1.1794 -1.7122
  209MOL0     H28211   3.712   5.805   6.869  0.1909  1.3743  1.8509
  209MOL0     H28212   3.689   5.876   6.711 -1.1282  0.2233  0.0399
  209MOL0     H28213   3.800   6.183   6.984 -0.0747  0.1301  0.6490
  209MOL0     H28214   3.574   5.611   6.993 -0.9482 -2.7685  1.3976
  209MOL0     H28215   3.476   5.625   7.208  0.0370 -1.9763 -1.6548
  210MOL0     O28216   8.007  10.356   4.089  0.1887  0.1444 -0.2551
  210MOL0     C28217   8.088  10.444   4.058  0.4075  0.1043  0.1140
  210MOL0     O28218   8.121  10.479   3.932  0.0919 -0.2087  0.0485
  210MOL0     C28219   8.098  10.390   3.833 -0.3202 -0.3269  0.1001
  210MOL0     C28220   8.039  10.441   3.714  0.0767  0.3143 -0.1876
  210MOL0     C28221   8.000  10.346   3.617  0.3800  0.3447 -0.5949
  210MOL0     C28222   8.047  10.214   3.621 -0.0357  0.4936  0.4282
  210MOL0     O28223   8.019  10.155   3.500 -0.6808 -0.8820 -0.0721
  210MOL0     C28224   8.064  10.023   3.484 -0.8498  0.1400 -0.1138
  210MOL0     C28225   7.979   9.966   3.372  0.0520  0.6288  0.2188
  210MOL0     C28226   7.823   9.976   3.384 -1.2781 -0.0602  0.4073
  210MOL0     C28227   7.752   9.916   3.506  0.6466 -0.1778 -0.5427
  210MOL0     C28228   7.738   9.766   3.498 -0.5052 -0.7727  0.7573
  210MOL0     C28229   7.663   9.703   3.608  0.3063 -0.6289  0.4834
  210MOL0     C28230   7.558   9.605   3.540 -0.3396 -0.2372  0.1305
  210MOL0     C28231   7.632   9.478   3.511  1.1613 -0.4019  0.0571
  210MOL0     N28232   7.534   9.385   3.447 -0.2268  1.1663  0.4016
  210MOL0     C28233   7.536   9.339   3.315  0.5913 -0.5394  1.0870
  210MOL0     C28234   7.422   9.262   3.298 -0.5352  0.0305 -0.4221
  210MOL0     C28235   7.377   9.174   3.188 -0.5514  0.2601  0.5217
  210MOL0     C28236   7.237   9.212   3.133  0.0999 -0.7097 -0.4802
  210MOL0     C28237   7.229   9.336   3.058 -0.3580 -1.3161 -0.5580
  210MOL0     C28238   7.088   9.360   3.007 -0.5865  0.0199  1.0292
  210MOL0     O28239   7.067   9.267   2.902 -0.4680 -0.5609 -0.6511
  210MOL0     C28240   6.941   9.266   2.852  0.0276  0.8516  0.5137
  210MOL0     C28241   6.841   9.360   2.863  0.3490  0.0221 -0.2481
  210MOL0     C28242   6.717   9.344   2.800 -0.4483  0.0115 -0.2202
  210MOL0     C28243   6.613   9.452   2.815  0.6965  0.3418 -0.3621
  210MOL0     C28244   6.681   9.224   2.726 -0.4908  0.0592 -0.6208
  210MOL0     C28245   6.546   9.194   2.674 -0.6607  0.5082  0.9510
  210MOL0     O28246   6.439   9.219   2.759  0.1276  0.0612 -0.0100
  210MOL0     C28247   6.312   9.181   2.728 -0.1195 -0.1955 -0.3624
  210MOL0     C28248   6.265   9.157   2.604 -1.0733 -0.0567  0.2684
  210MOL0     C28249   6.134   9.117   2.582 -1.0192  0.0728 -0.3092
  210MOL0     C28250   6.056   9.077   2.693  0.4148  0.0483 -0.6553
  210MOL0     O28251   5.935   9.022   2.701  0.1686  0.2563  0.0692
  210MOL0     C28252   5.883   9.001   2.564 -0.4837  0.4546 -0.0729
  210MOL0     C28253   5.736   8.968   2.586 -0.0365 -0.2759 -0.5176
  210MOL0     C28254   5.659   8.953   2.459 -0.3446  0.2300  0.0899
  210MOL0     C28255   5.550   8.830   2.467 -0.6317 -0.7483 -0.6141
  210MOL0     C28256   5.451   8.853   2.365  0.5664  0.4549 -0.4879
  210MOL0     C28257   5.343   8.742   2.391 -0.5913  0.0469 -0.2116
  210MOL0     C28258   5.233   8.751   2.282 -0.0224  0.6519 -0.0323
  210MOL0     C28259   5.129   8.834   2.343  0.3529  0.6793 -0.1813
  210MOL0    Cl28260   4.979   8.853   2.228 -0.4548 -0.1894 -0.2710
  210MOL0     C28261   6.109   9.102   2.824 -0.4239 -0.8212 -0.3957
  210MOL0     C28262   6.238   9.158   2.843  0.4746 -0.3057  0.0788
  210MOL0     O28263   6.543   9.116   2.579 -0.3891  0.1279 -0.1174
  210MOL0     C28264   6.786   9.136   2.716 -0.0818 -0.4423 -0.3952
  210MOL0     C28265   6.912   9.156   2.774 -0.7394 -0.4005 -1.5945
  210MOL0     N28266   7.354   9.264   3.421  0.2251 -0.3180  0.2228
  210MOL0     N28267   7.423   9.341   3.501  0.8858 -0.5683 -0.3201
  210MOL0     C28268   8.127  10.171   3.728 -0.1009 -0.4266  0.0326
  210MOL0     C28269   8.141  10.256   3.838  0.0898 -0.6678 -0.3487
  210MOL0     C28270   8.154  10.523   4.169  0.2650  0.5652 -0.2980
  210MOL0     C28271   8.106  10.525   4.295  0.0442  0.0171 -0.5415
  210MOL0     C28272   8.170  10.606   4.393 -0.5326 -0.1927 -0.3983
  210MOL0     C28273   8.278  10.691   4.360  0.5762  0.2005 -0.3857
  210MOL0     O28274   8.330  10.768   4.464  0.0410  0.0045 -0.1401
  210MOL0     C28275   8.440  10.853   4.437 -0.2538 -0.0700 -0.0656
  210MOL0     C28276   8.568  10.780   4.461 -0.1448 -0.3800  0.0810
  210MOL0     C28277   8.677  10.890   4.475  0.8059 -0.6972  0.1884
  210MOL0     C28278   8.797  10.823   4.535  0.3775 -0.5552 -0.2573
  210MOL0     C28279   8.924  10.901   4.542 -0.3885  0.1273 -0.1550
  210MOL0     C28280   9.014  10.983   4.550  0.3375 -0.8982 -0.2526
  210MOL0     C28281   8.335  10.666   4.232  0.6592 -1.0723  0.0840
  210MOL0     C28282   8.269  10.586   4.142 -0.2471 -0.3168  1.0010
  210MOL0     H28283   8.020  10.548   3.721  0.6657  0.3267  1.7764
  210MOL0     H28284   7.941  10.382   3.533  1.6665  0.8225 -1.3346
  210MOL0     H28285   8.169  10.017   3.452 -1.1175 -0.2485 -0.9530
  210MOL0     H28286   8.058   9.957   3.571 -0.3102 -0.7578 -0.7319
  210MOL0     H28287   8.021  10.009   3.281  1.8244 -1.6162 -0.1244
  210MOL0     H28288   8.004   9.860   3.362  0.9283  1.0360 -2.5527
  210MOL0     H28289   7.803  10.083   3.376 -0.3962  0.0500 -0.5324
  210MOL0     H28290   7.773   9.935   3.296 -1.8397  0.9758  0.2286
  210MOL0     H28291   7.794   9.961   3.597 -0.3461 -0.6480  0.1642
  210MOL0     H28292   7.653   9.961   3.495  1.3985  1.8765  0.5408
  210MOL0     H28293   7.703   9.736   3.398  0.6188  1.9377 -0.5610
  210MOL0     H28294   7.842   9.732   3.503 -0.8837 -1.8483  1.5826
  210MOL0     H28295   7.725   9.652   3.683 -0.1295 -3.1132 -0.7252
  210MOL0     H28296   7.610   9.787   3.653 -0.3919  0.1999 -1.7655
  210MOL0     H28297   7.478   9.584   3.611 -1.5802  1.9157 -0.5260
  210MOL0     H28298   7.523   9.657   3.450 -0.7042  5.0701  2.9759
  210MOL0     H28299   7.675   9.445   3.606  1.7282  1.2670  0.4104
  210MOL0     H28300   7.717   9.493   3.444  1.0139 -0.3450 -0.1193
  210MOL0     H28301   7.612   9.345   3.238 -0.9373  0.2103 -0.4503
  210MOL0     H28302   7.439   9.171   3.099 -1.4062 -2.3721 -0.0951
  210MOL0     H28303   7.385   9.068   3.216  0.2157 -0.5665 -2.4507
  210MOL0     H28304   7.161   9.226   3.211  1.9386  0.3598  1.2341
  210MOL0     H28305   7.211   9.131   3.065 -0.0100 -3.5344  2.6500
  210MOL0     H28306   7.298   9.339   2.973  0.4734  0.9649  0.1171
  210MOL0     H28307   7.266   9.422   3.114  0.9663 -0.6308 -2.3955
  210MOL0     H28308   7.088   9.460   2.963 -1.1745  0.2539  1.5466
  210MOL0     H28309   7.013   9.353   3.086 -0.2031 -1.4725  1.2879
  210MOL0     H28310   6.870   9.447   2.922  0.5432 -0.6123  0.6133
  210MOL0     H28311   6.537   9.417   2.886 -1.7330 -1.3356 -3.5593
  210MOL0     H28312   6.656   9.550   2.840  1.7632  0.2620 -1.7919
  210MOL0     H28313   6.563   9.474   2.720 -0.1407 -3.0379 -0.8217
  210MOL0     H28314   6.329   9.184   2.521 -3.1557  0.9476 -1.1027
  210MOL0     H28315   6.114   9.102   2.476  0.9265 -1.8644 -0.4810
  210MOL0     H28316   5.889   9.094   2.508 -0.2875  0.8979  0.6653
  210MOL0     H28317   5.936   8.918   2.516 -0.5281  0.8039 -0.7246
  210MOL0     H28318   5.733   8.881   2.651 -0.9595 -1.5897 -2.2365
  210MOL0     H28319   5.690   9.046   2.647 -2.9852 -1.8112 -0.6400
  210MOL0     H28320   5.727   8.941   2.374 -1.1807  1.9873 -0.8951
  210MOL0     H28321   5.606   9.045   2.432 -1.7347 -1.0350 -1.8078
  210MOL0     H28322   5.605   8.736   2.460  1.2665 -0.1748  3.5935
  210MOL0     H28323   5.511   8.839   2.568  0.5472 -2.6096  0.0740
  210MOL0     H28324   5.490   8.830   2.265 -0.5363 -1.8020 -0.4684
  210MOL0     H28325   5.397   8.948   2.370  1.0263  0.6677  1.4169
  210MOL0     H28326   5.387   8.643   2.376 -2.1016 -0.3379 -2.5531
  210MOL0     H28327   5.292   8.754   2.487  0.1407  0.7964  0.0965
  210MOL0     H28328   5.186   8.652   2.278  0.0630  0.5118  1.9089
  210MOL0     H28329   5.276   8.782   2.186  1.0455  3.6445  1.2821
  210MOL0     H28330   5.162   8.929   2.387  0.0125 -0.9757  4.1007
  210MOL0     H28331   5.088   8.778   2.428  0.8026  1.9798  0.9356
  210MOL0     H28332   6.057   9.065   2.912  1.1417 -0.7406  0.5978
  210MOL0     H28333   6.285   9.180   2.939  1.1248  0.0826 -0.3136
  210MOL0     H28334   6.791   9.035   2.675  1.4210 -0.6111  0.1240
  210MOL0     H28335   7.000   9.094   2.761 -2.2917 -2.9967 -0.3364
  210MOL0     H28336   8.184  10.079   3.729 -0.8857 -0.9429 -0.9946
  210MOL0     H28337   8.197  10.234   3.929 -1.7510 -0.9020  0.7827
  210MOL0     H28338   8.018  10.471   4.330 -0.3121  1.1195  0.3419
  210MOL0     H28339   8.130  10.613   4.494  2.7727 -0.6223  1.0740
  210MOL0     H28340   8.437  10.881   4.331 -0.0085 -0.3896 -0.1566
  210MOL0     H28341   8.439  10.940   4.503  0.4371 -0.9530  1.1447
  210MOL0     H28342   8.597  10.707   4.386  2.3618 -0.1932  0.7653
  210MOL0     H28343   8.563  10.725   4.556 -1.2796  2.5290  1.8591
  210MOL0     H28344   8.641  10.979   4.527  3.4790 -0.4793  1.8606
  210MOL0     H28345   8.702  10.911   4.370  1.9187  1.7802  0.8766
  210MOL0     H28346   8.816  10.733   4.476  4.1534  0.1006 -0.2902
  210MOL0     H28347   8.773  10.781   4.633 -2.1356  1.2553  0.0063
  210MOL0     H28348   9.098  11.048   4.559  2.1268 -2.8542 -1.6865
  210MOL0     H28349   8.432  10.712   4.212  0.4219  1.0638  3.1583
  210MOL0     H28350   8.314  10.570   4.044 -1.1821  0.3012  0.4562
  211MOL0     O28351   7.872   9.976   0.994 -0.3967  1.8511  0.5577
  211MOL0     C28352   7.870  10.091   0.966  0.3425 -1.1866 -0.5166
  211MOL0     O28353   7.760  10.163   0.927  0.1045 -0.2266  0.4997
  211MOL0     C28354   7.634  10.105   0.940 -0.2348 -0.2382 -0.0582
  211MOL0     C28355   7.592  10.040   1.059  0.0471 -0.1144  0.6915
  211MOL0     C28356   7.468   9.978   1.057 -0.0545  0.9547  0.9052
  211MOL0     C28357   7.390   9.964   0.942 -0.1116  0.7636  0.8144
  211MOL0     O28358   7.279   9.886   0.945 -0.2357  0.6449 -0.5159
  211MOL0     C28359   7.217   9.836   0.826  0.2541  0.7172  0.4524
  211MOL0     C28360   7.097   9.744   0.853 -0.6505  0.9735 -0.0190
  211MOL0     C28361   6.958   9.802   0.843 -0.1912 -0.4573 -0.0924
  211MOL0     C28362   6.928   9.917   0.940  0.6196 -0.0309 -0.1602
  211MOL0     C28363   6.776   9.947   0.941 -0.9890  0.1018 -0.6488
  211MOL0     C28364   6.746  10.058   1.045  0.8223  0.2225  0.5188
  211MOL0     C28365   6.600  10.091   1.060 -0.0235 -0.1139  0.7194
  211MOL0     C28366   6.584  10.226   1.137  0.1981 -0.1705 -0.0929
  211MOL0     N28367   6.440  10.251   1.160  0.5083  0.9428  0.2701
  211MOL0     C28368   6.356  10.267   1.053  0.0552 -0.2020  0.2029
  211MOL0     C28369   6.235  10.290   1.110  0.6944  0.6349 -0.7404
  211MOL0     C28370   6.104  10.323   1.037 -0.0415 -0.1787  1.0129
  211MOL0     C28371   5.978  10.318   1.122  0.2407 -0.3191  0.3733
  211MOL0     C28372   5.947  10.167   1.152 -0.7031  0.2619  0.1469
  211MOL0     C28373   5.857  10.164   1.272 -0.1397  0.2990 -0.2379
  211MOL0     O28374   5.740  10.240   1.249  0.4580  0.3428 -0.0550
  211MOL0     C28375   5.639  10.226   1.337 -1.1487  0.6181 -0.2724
  211MOL0     C28376   5.654  10.172   1.463  0.8123 -0.2044 -0.4926
  211MOL0     C28377   5.546  10.154   1.551  0.7212 -0.1361  0.5722
  211MOL0     C28378   5.577  10.092   1.691  0.0585 -0.0942 -0.3892
  211MOL0     C28379   5.416  10.206   1.516  0.3641 -0.3575  0.0157
  211MOL0     C28380   5.295  10.211   1.608  0.2659 -0.4482  0.6437
  211MOL0     O28381   5.176  10.212   1.546  0.7807  0.5004  0.2791
  211MOL0     C28382   5.061  10.246   1.621  0.2266  0.1763  0.3183
  211MOL0     C28383   5.032  10.192   1.748 -0.1755  0.3214  0.4031
  211MOL0     C28384   4.903  10.219   1.805  0.6540 -0.3745 -0.4203
  211MOL0     C28385   4.815  10.307   1.741 -0.0646  0.7368 -0.1183
  211MOL0     O28386   4.696  10.327   1.789  0.3547 -0.2277  0.1977
  211MOL0     C28387   4.653  10.295   1.921  0.1678 -0.3301 -0.3969
  211MOL0     C28388   4.548  10.393   1.961  0.3935 -0.2061 -0.1454
  211MOL0     C28389   4.403  10.358   1.909  0.0385 -0.0698  0.0888
  211MOL0     C28390   4.302  10.453   1.971 -0.2134  0.4755  0.6939
  211MOL0     C28391   4.166  10.385   1.926 -0.1963 -0.4086 -1.4173
  211MOL0     C28392   4.065  10.489   1.979  0.3376  0.2325  0.8962
  211MOL0     C28393   3.926  10.435   1.971 -0.4575  0.2217  0.9750
  211MOL0     C28394   3.846  10.461   2.100  0.3107 -0.1470  0.5743
  211MOL0    Cl28395   3.816  10.635   2.120  0.1619 -0.0138 -0.1186
  211MOL0     C28396   4.852  10.364   1.617 -0.6384  0.0665 -0.2575
  211MOL0     C28397   4.972  10.330   1.554 -0.3316  1.1153 -0.1072
  211MOL0     O28398   5.309  10.233   1.730 -0.1922  0.3510  0.5076
  211MOL0     C28399   5.401  10.265   1.389 -0.8767  0.1429 -0.5154
  211MOL0     C28400   5.512  10.272   1.304  0.1372  0.6030  0.3552
  211MOL0     N28401   6.249  10.286   1.251  0.7220  0.0237  0.3271
  211MOL0     N28402   6.372  10.265   1.284  0.0428 -0.0259  0.3164
  211MOL0     C28403   7.439  10.020   0.824 -0.5940 -0.7090  0.1754
  211MOL0     C28404   7.555  10.100   0.825 -0.0064 -0.4729 -0.0214
  211MOL0     C28405   7.988  10.171   1.000 -0.2627 -0.1673 -0.7237
  211MOL0     C28406   8.000  10.304   0.952 -1.6627 -0.1134  0.7001
  211MOL0     C28407   8.112  10.387   0.989  0.1091  0.0912  1.0305
  211MOL0     C28408   8.218  10.335   1.065  0.6116 -0.0591 -0.6160
  211MOL0     O28409   8.324  10.419   1.112  0.6908 -0.3417 -0.4399
  211MOL0     C28410   8.435  10.360   1.187  0.5940 -0.3014  0.2837
  211MOL0     C28411   8.542  10.467   1.208  0.2396  0.2269  0.2419
  211MOL0     C28412   8.491  10.563   1.321  0.7804 -0.8911  0.1732
  211MOL0     C28413   8.579  10.682   1.342 -0.3774 -0.2351 -0.2968
  211MOL0     C28414   8.724  10.652   1.341  0.0208  0.9416 -0.0681
  211MOL0     C28415   8.842  10.634   1.350  0.3235  0.2354  0.7997
  211MOL0     C28416   8.213  10.200   1.093  0.0258  0.5892  0.2729
  211MOL0     C28417   8.100  10.120   1.059 -0.0429  0.2576 -0.0097
  211MOL0     H28418   7.652  10.035   1.149  0.0596  2.6141  0.9090
  211MOL0     H28419   7.420   9.923   1.137 -0.2561 -0.8283 -0.3784
  211MOL0     H28420   7.178   9.918   0.765 -0.2247  0.9037  0.9976
  211MOL0     H28421   7.287   9.775   0.767 -0.5724 -1.5026  1.6350
  211MOL0     H28422   7.109   9.667   0.777 -2.0125 -0.5213  1.1903
  211MOL0     H28423   7.115   9.689   0.947 -1.1422  0.1808 -0.3757
  211MOL0     H28424   6.947   9.843   0.742  0.3840  2.0149  0.7686
  211MOL0     H28425   6.880   9.727   0.855 -0.8284 -0.1601 -2.0539
  211MOL0     H28426   6.951   9.894   1.045 -1.4723  1.0544  0.5890
  211MOL0     H28427   6.993   9.995   0.900  1.8832 -0.9488  0.0251
  211MOL0     H28428   6.752   9.984   0.841  0.6244 -2.4938 -2.1277
  211MOL0     H28429   6.714   9.860   0.963 -3.3028  2.0390  0.9292
  211MOL0     H28430   6.782  10.039   1.146  0.2040  0.8161  0.8623
  211MOL0     H28431   6.802  10.144   1.007  2.1945 -1.2487 -0.9470
  211MOL0     H28432   6.552  10.107   0.963  2.0426  1.1002 -0.1651
  211MOL0     H28433   6.537  10.016   1.109 -0.7843  0.3988  0.5517
  211MOL0     H28434   6.607  10.316   1.079 -0.6671  1.4617  1.9581
  211MOL0     H28435   6.649  10.218   1.225 -1.5983  0.1106  1.3241
  211MOL0     H28436   6.383  10.254   0.949 -3.4852  2.2569 -1.2114
  211MOL0     H28437   6.113  10.423   0.993  0.2195 -0.5016  0.3087
  211MOL0     H28438   6.099  10.259   0.948  2.5196  0.1486  0.5554
  211MOL0     H28439   5.897  10.363   1.064 -0.0587  0.8081  1.6394
  211MOL0     H28440   5.995  10.378   1.212  1.5327 -2.4418  1.6369
  211MOL0     H28441   6.037  10.113   1.183 -0.8724  1.0228  2.1251
  211MOL0     H28442   5.899  10.121   1.066 -0.7356  4.2560 -2.2075
  211MOL0     H28443   5.911  10.199   1.360 -1.2890  0.9197  0.2413
  211MOL0     H28444   5.838  10.059   1.297 -2.0406  0.6957  0.1377
  211MOL0     H28445   5.751  10.139   1.497  0.8772  0.5880  0.1311
  211MOL0     H28446   5.597  10.170   1.764 -1.4346  0.7547 -0.8578
  211MOL0     H28447   5.494  10.038   1.738  0.2020 -0.6640 -0.7774
  211MOL0     H28448   5.664  10.026   1.699  0.9790  1.0798 -0.5752
  211MOL0     H28449   5.102  10.126   1.798 -0.3649 -0.7663 -0.7306
  211MOL0     H28450   4.872  10.182   1.902  0.6094  2.2992  0.6677
  211MOL0     H28451   4.612  10.194   1.922 -0.0493 -0.2643 -1.5996
  211MOL0     H28452   4.736  10.316   1.989 -1.3395  1.1611  1.0737
  211MOL0     H28453   4.548  10.390   2.071 -0.5592 -2.5555 -0.1457
  211MOL0     H28454   4.584  10.490   1.927  1.6950  0.4729  2.8565
  211MOL0     H28455   4.372  10.266   1.959  1.0579  0.9910  2.8997
  211MOL0     H28456   4.403  10.356   1.800 -0.8407  1.1441  0.0520
  211MOL0     H28457   4.308  10.447   2.080 -1.0571  1.7473  0.8329
  211MOL0     H28458   4.310  10.557   1.939  1.1697  0.0902 -0.2756
  211MOL0     H28459   4.143  10.290   1.975 -0.5774  0.0865 -0.6196
  211MOL0     H28460   4.165  10.372   1.817  0.4063 -2.2220 -1.2422
  211MOL0     H28461   4.085  10.510   2.084  0.0061  0.8310  0.8408
  211MOL0     H28462   4.081  10.581   1.922  0.5747 -1.7949 -2.6390
  211MOL0     H28463   3.917  10.329   1.949 -0.0161  0.4391 -0.3078
  211MOL0     H28464   3.876  10.491   1.892  0.3218  0.7256  0.8291
  211MOL0     H28465   3.906  10.415   2.179  2.2657 -2.1137 -1.9109
  211MOL0     H28466   3.744  10.423   2.095 -0.0265  0.7320 -4.3970
  211MOL0     H28467   4.780  10.419   1.557  0.3141  0.1056 -1.4003
  211MOL0     H28468   4.990  10.371   1.455 -1.8819  3.0373  0.3524
  211MOL0     H28469   5.300  10.298   1.366 -2.4175 -3.2356  0.8312
  211MOL0     H28470   5.496  10.327   1.212 -1.0125 -0.1505  0.0916
  211MOL0     H28471   7.381  10.006   0.732  2.6272 -1.3982 -1.9075
  211MOL0     H28472   7.584  10.148   0.731  1.2537  0.2516  0.7036
  211MOL0     H28473   7.927  10.346   0.883 -1.1913  0.9175  0.8150
  211MOL0     H28474   8.114  10.489   0.953  3.5454 -0.5418 -1.0206
  211MOL0     H28475   8.408  10.319   1.285  3.9845  0.2655  1.5908
  211MOL0     H28476   8.482  10.280   1.128  3.3635 -0.0129  1.9468
  211MOL0     H28477   8.565  10.527   1.119 -0.5238  1.2262  0.7038
  211MOL0     H28478   8.636  10.416   1.231  1.4501  0.5262 -3.3125
  211MOL0     H28479   8.482  10.497   1.408 -4.6330 -0.7154  0.0755
  211MOL0     H28480   8.396  10.610   1.296  0.7758 -1.7500 -1.5427
  211MOL0     H28481   8.560  10.727   1.440  2.3570 -1.1960  0.7549
  211MOL0     H28482   8.562  10.763   1.270  0.9577  0.0471 -0.3181
  211MOL0     H28483   8.947  10.623   1.364  0.6860  1.4074 -0.7385
  211MOL0     H28484   8.295  10.148   1.142 -1.3529  0.6230  2.7717
  211MOL0     H28485   8.095  10.011   1.062  2.2702  0.1209  1.8159
  212MOL0     O28486   6.895   9.426   4.520 -0.2805  0.2931  0.4873
  212MOL0     C28487   6.951   9.414   4.409 -0.0629 -0.9141  0.0175
  212MOL0     O28488   6.884   9.420   4.293  0.0168 -0.8536  0.3965
  212MOL0     C28489   6.752   9.451   4.282  1.0649 -0.0667  0.2368
  212MOL0     C28490   6.695   9.410   4.169  0.7821  0.0362 -0.7433
  212MOL0     C28491   6.555   9.433   4.148 -0.2577  0.1656  0.4868
  212MOL0     C28492   6.475   9.503   4.233  0.3013 -0.6624 -1.0838
  212MOL0     O28493   6.339   9.537   4.209  0.0806  0.3945 -0.3703
  212MOL0     C28494   6.340   9.638   4.109  0.2028  1.1779 -0.2911
  212MOL0     C28495   6.209   9.701   4.118  0.3356 -0.4342  0.0924
  212MOL0     C28496   6.085   9.615   4.066  0.5117 -0.8724  0.1129
  212MOL0     C28497   5.964   9.689   4.134  0.3180 -0.1749 -0.3978
  212MOL0     C28498   5.832   9.641   4.069  0.5156 -0.0041  0.3503
  212MOL0     C28499   5.715   9.701   4.150 -0.3904 -0.8101 -0.0726
  212MOL0     C28500   5.580   9.661   4.091 -0.1298 -0.1390  0.1466
  212MOL0     C28501   5.457   9.705   4.172  0.0716 -0.0713 -0.5576
  212MOL0     N28502   5.472   9.839   4.230 -0.5048  0.3555 -0.2501
  212MOL0     C28503   5.465   9.953   4.146  0.4927  0.6685  0.2718
  212MOL0     C28504   5.475  10.050   4.235  0.3833 -0.2583 -0.6891
  212MOL0     C28505   5.502  10.196   4.216 -0.4170  0.1452 -0.2535
  212MOL0     C28506   5.390  10.276   4.264  0.8016 -0.4112  0.3795
  212MOL0     C28507   5.245  10.245   4.224  0.7244 -0.2348  0.9903
  212MOL0     C28508   5.142  10.353   4.270  0.1948 -0.0683 -0.3334
  212MOL0     O28509   5.175  10.479   4.203 -0.1974  0.1708  0.2380
  212MOL0     C28510   5.072  10.565   4.192 -0.1133 -1.1815  0.1281
  212MOL0     C28511   5.056  10.633   4.073  0.4942 -0.1769 -1.0732
  212MOL0     C28512   4.940  10.704   4.055  0.8524  0.1516  0.0939
  212MOL0     C28513   4.923  10.758   3.916 -0.0288  0.2779 -0.4445
  212MOL0     C28514   4.838  10.710   4.160  0.0583  0.6503  0.2464
  212MOL0     C28515   4.706  10.762   4.139 -0.2555 -0.3383  0.8137
  212MOL0     O28516   4.625  10.695   4.223  0.5754  0.8020 -0.2547
  212MOL0     C28517   4.489  10.691   4.200 -0.1599  0.0211  0.0307
  212MOL0     C28518   4.403  10.634   4.300  0.2139 -0.4635  0.5253
  212MOL0     C28519   4.268  10.613   4.275  0.5006 -0.1864 -0.1150
  212MOL0     C28520   4.204  10.657   4.164 -0.1953  0.2490  0.0964
  212MOL0     O28521   4.066  10.655   4.156 -0.2957 -0.1056  0.2957
  212MOL0     C28522   4.001  10.788   4.157  0.4119 -0.3667  0.1328
  212MOL0     C28523   3.851  10.772   4.145 -0.2914 -0.0487 -0.0517
  212MOL0     C28524   3.811  10.678   4.034  1.1846 -0.2329  0.3369
  212MOL0     C28525   3.655  10.685   4.022  0.0617  0.2343 -0.0644
  212MOL0     C28526   3.613  10.626   3.890 -0.5559 -0.5839 -0.3600
  212MOL0     C28527   3.458  10.615   3.876  0.9703  0.2948  0.1524
  212MOL0     C28528   3.409  10.547   3.744 -0.3758  0.0355 -0.4840
  212MOL0     C28529   3.414  10.638   3.626  0.0183 -0.3074  0.0020
  212MOL0    Cl28530   3.396  10.535   3.489  0.0671 -0.1696 -0.2045
  212MOL0     C28531   4.287  10.714   4.061 -0.2354  0.1121 -0.1728
  212MOL0     C28532   4.426  10.728   4.079 -0.4975  0.5051 -0.1687
  212MOL0     O28533   4.684  10.866   4.082  0.2362  0.1859 -0.2237
  212MOL0     C28534   4.862  10.642   4.277 -0.3112 -0.3720 -0.2617
  212MOL0     C28535   4.978  10.569   4.296 -0.2369  0.2758 -0.2079
  212MOL0     N28536   5.489  10.008   4.362 -0.6778  0.2210 -0.8209
  212MOL0     N28537   5.493   9.879   4.358  0.2217 -0.4446  0.0534
  212MOL0     C28538   6.537   9.541   4.354  0.5232  0.2199  0.2934
  212MOL0     C28539   6.673   9.527   4.369  0.3112  0.1006 -0.4660
  212MOL0     C28540   7.092   9.358   4.396 -0.7193 -0.4412  0.2173
  212MOL0     C28541   7.171   9.327   4.510 -0.0129 -0.1382  0.7335
  212MOL0     C28542   7.309   9.292   4.506  0.4371  0.6688 -1.0221
  212MOL0     C28543   7.357   9.264   4.384 -0.9431  0.7484  0.0587
  212MOL0     O28544   7.485   9.211   4.394  0.4188 -0.5583  0.7499
  212MOL0     C28545   7.537   9.154   4.269  1.0184  0.3981 -0.8956
  212MOL0     C28546   7.670   9.089   4.303 -0.6536  0.5550 -0.7973
  212MOL0     C28547   7.668   8.955   4.381  0.3254  0.1294 -0.5104
  212MOL0     C28548   7.807   8.884   4.388 -0.5818  0.1344  0.0889
  212MOL0     C28549   7.791   8.782   4.493  0.0005  0.6663  0.1955
  212MOL0     C28550   7.763   8.692   4.572 -0.9853  0.0150  0.0883
  212MOL0     C28551   7.287   9.291   4.265  0.2444 -1.2437 -0.7117
  212MOL0     C28552   7.154   9.337   4.271 -0.1709  0.6678 -0.2895
  212MOL0     H28553   6.758   9.367   4.092  1.8688 -2.2326  1.2627
  212MOL0     H28554   6.516   9.408   4.050 -4.1733  0.6248  1.7519
  212MOL0     H28555   6.406   9.723   4.130  1.0843  0.4387 -0.0146
  212MOL0     H28556   6.368   9.591   4.014  0.2702 -0.8467  0.6790
  212MOL0     H28557   6.201   9.726   4.224  0.5224  0.0182  0.0051
  212MOL0     H28558   6.211   9.796   4.064  0.4656 -1.2079 -1.2948
  212MOL0     H28559   6.086   9.602   3.957  2.6164 -2.0765  0.2211
  212MOL0     H28560   6.089   9.516   4.112  1.2385 -1.9079 -2.0255
  212MOL0     H28561   5.955   9.675   4.242  0.3552 -1.4598 -0.5523
  212MOL0     H28562   5.979   9.796   4.116  0.3310  0.5386  3.1058
  212MOL0     H28563   5.827   9.677   3.966  2.4839 -1.4512 -0.3132
  212MOL0     H28564   5.838   9.533   4.060 -0.7340  0.0452 -1.4600
  212MOL0     H28565   5.720   9.673   4.255  1.7106 -0.5708 -0.0522
  212MOL0     H28566   5.723   9.809   4.163 -2.0853 -0.8373  1.5110
  212MOL0     H28567   5.578   9.708   3.992  2.4310 -0.7893 -0.2885
  212MOL0     H28568   5.569   9.553   4.076  0.3192 -0.2311  0.4608
  212MOL0     H28569   5.436   9.638   4.255 -1.4553  1.4196  0.3344
  212MOL0     H28570   5.372   9.705   4.102 -0.1051 -1.3153 -0.3523
  212MOL0     H28571   5.452   9.957   4.038 -1.9046 -1.8480  0.3597
  212MOL0     H28572   5.593  10.219   4.272 -0.0147  0.2551 -0.9367
  212MOL0     H28573   5.507  10.214   4.108 -0.3816 -0.7369 -0.4148
  212MOL0     H28574   5.401  10.377   4.225  2.4347 -1.3282 -1.7508
  212MOL0     H28575   5.399  10.291   4.372 -1.4390  1.4094  0.3724
  212MOL0     H28576   5.210  10.143   4.245  0.1697 -0.0852  0.8317
  212MOL0     H28577   5.236  10.246   4.115  3.0120 -0.2441  0.7588
  212MOL0     H28578   5.152  10.361   4.378 -1.0874 -1.4341 -0.0928
  212MOL0     H28579   5.041  10.320   4.245 -0.4158 -0.0366  1.8861
  212MOL0     H28580   5.126  10.602   3.996 -0.0604  0.1739 -1.7238
  212MOL0     H28581   5.006  10.721   3.855 -0.3327 -0.5388 -0.3878
  212MOL0     H28582   4.829  10.722   3.871  0.9939 -2.1236 -0.8548
  212MOL0     H28583   4.922  10.866   3.928 -0.1652  0.0843  1.5194
  212MOL0     H28584   4.453  10.583   4.382 -0.7570 -3.7500 -0.7536
  212MOL0     H28585   4.217  10.570   4.361 -0.7436 -2.8437 -2.0569
  212MOL0     H28586   4.034  10.837   4.249 -0.9362 -0.0979  0.4971
  212MOL0     H28587   4.035  10.847   4.072 -2.9067  0.3962 -0.8252
  212MOL0     H28588   3.812  10.722   4.234  0.3242 -1.6844 -0.6654
  212MOL0     H28589   3.804  10.870   4.129 -0.0106  0.6389  2.7908
  212MOL0     H28590   3.844  10.575   4.050  0.1483 -0.3515  2.0009
  212MOL0     H28591   3.862  10.720   3.947  1.3984 -0.6586  0.2558
  212MOL0     H28592   3.606  10.630   4.102 -2.1097  0.3037 -1.2726
  212MOL0     H28593   3.600  10.779   4.037 -1.9391 -0.8609 -0.1232
  212MOL0     H28594   3.658  10.526   3.891  2.7305  0.7732  0.8667
  212MOL0     H28595   3.655  10.683   3.807  1.1844  1.4381  1.8025
  212MOL0     H28596   3.418  10.554   3.957 -2.8196  2.5595  0.2328
  212MOL0     H28597   3.419  10.717   3.883  0.8300  0.2568 -0.0791
  212MOL0     H28598   3.308  10.510   3.763 -0.3460 -0.3567 -1.0719
  212MOL0     H28599   3.476  10.464   3.720  0.7853  1.0733 -0.9569
  212MOL0     H28600   3.503  10.702   3.616 -0.7836  0.7520 -0.6560
  212MOL0     H28601   3.325  10.700   3.641  0.1496  0.5944 -2.4394
  212MOL0     H28602   4.246  10.773   3.979  0.3293 -0.7267 -1.0843
  212MOL0     H28603   4.471  10.777   3.994 -1.3167  0.5831 -0.5696
  212MOL0     H28604   4.791  10.649   4.358 -0.4864 -0.8811 -0.3668
  212MOL0     H28605   5.002  10.527   4.393 -1.0805 -2.0583 -0.9276
  212MOL0     H28606   6.484   9.595   4.431  0.5675 -0.9928  1.2067
  212MOL0     H28607   6.721   9.581   4.451 -0.0134  2.2373 -1.6166
  212MOL0     H28608   7.128   9.342   4.608 -1.1450 -0.8205  0.3706
  212MOL0     H28609   7.363   9.287   4.600  1.8656 -0.4796 -1.8647
  212MOL0     H28610   7.469   9.085   4.219  1.0302 -0.4581  0.2174
  212MOL0     H28611   7.557   9.234   4.197  0.3379  0.1639 -1.3589
  212MOL0     H28612   7.721   9.160   4.368 -0.0038 -1.0632  0.5396
  212MOL0     H28613   7.730   9.076   4.213  3.1301 -0.1714  1.6018
  212MOL0     H28614   7.590   8.886   4.347 -1.1826  0.6943  1.6107
  212MOL0     H28615   7.633   8.981   4.482 -0.2772  1.1398 -0.9647
  212MOL0     H28616   7.883   8.961   4.403 -1.6974  1.8551 -2.3298
  212MOL0     H28617   7.828   8.839   4.291 -0.4514 -0.0322  0.1941
  212MOL0     H28618   7.734   8.616   4.642 -1.9400 -1.8134 -2.1419
  212MOL0     H28619   7.332   9.275   4.167 -1.6932 -1.0098 -1.6807
  212MOL0     H28620   7.111   9.369   4.176  0.1583  1.0874 -0.2983
  213MOL0     O28621   0.061   5.179   8.409 -0.0038 -0.4141  0.1579
  213MOL0     C28622   0.096   5.065   8.458  0.5888 -0.3127 -0.3084
  213MOL0     O28623   0.009   4.964   8.487 -0.0209  0.1647 -0.1486
  213MOL0     C28624  -0.124   4.974   8.470  0.5588 -0.3051 -0.0739
  213MOL0     C28625  -0.190   5.049   8.568  0.1845 -0.2905 -0.1589
  213MOL0     C28626  -0.332   5.061   8.558 -0.0064 -0.0595 -0.0767
  213MOL0     C28627  -0.402   5.003   8.447  0.2641 -0.0415 -0.6766
  213MOL0     O28628  -0.534   5.036   8.418  0.1942  0.3900 -0.4414
  213MOL0     C28629  -0.616   5.023   8.537 -0.1399 -0.0796  0.0013
  213MOL0     C28630  -0.762   5.068   8.512 -0.6538 -1.0852  0.0544
  213MOL0     C28631  -0.833   5.008   8.393  0.4445 -0.0139  0.4418
  213MOL0     C28632  -0.813   4.861   8.380  0.1650 -0.0691  0.4968
  213MOL0     C28633  -0.911   4.812   8.283 -0.3272  0.9423  0.4854
  213MOL0     C28634  -0.875   4.859   8.137 -0.2317 -0.1152 -0.0244
  213MOL0     C28635  -0.981   4.804   8.037 -0.4650 -0.6572  0.2259
  213MOL0     C28636  -0.988   4.653   8.031 -0.0726  0.3983 -0.5469
  213MOL0     N28637  -1.095   4.589   7.947  0.9112  0.4066  0.3660
  213MOL0     C28638  -1.214   4.528   7.996 -0.1892 -0.1991 -0.1205
  213MOL0     C28639  -1.270   4.482   7.879  0.7283  0.1314  0.0336
  213MOL0     C28640  -1.400   4.405   7.866  0.0731  0.7117  0.0243
  213MOL0     C28641  -1.509   4.475   7.774  1.0625  0.6423 -0.0174
  213MOL0     C28642  -1.544   4.615   7.829  0.2373  0.2271 -0.4056
  213MOL0     C28643  -1.700   4.633   7.829 -0.4422 -0.0009  0.5025
  213MOL0     O28644  -1.765   4.542   7.919  0.9370 -0.5335  0.4601
  213MOL0     C28645  -1.885   4.570   7.962 -0.3580  0.0489 -0.9460
  213MOL0     C28646  -1.908   4.533   8.100  0.3801  0.0637  0.1426
  213MOL0     C28647  -2.026   4.570   8.162  0.7282  0.9600 -0.4924
  213MOL0     C28648  -2.032   4.544   8.320  0.5521  1.0576  0.5303
  213MOL0     C28649  -2.127   4.625   8.082  0.4208  0.5110 -0.5406
  213MOL0     C28650  -2.271   4.658   8.138 -0.0299 -0.2343 -0.7090
  213MOL0     O28651  -2.365   4.706   8.038  0.0534  0.3314  0.4457
  213MOL0     C28652  -2.499   4.686   8.070 -0.2901  0.2163  0.1303
  213MOL0     C28653  -2.560   4.566   8.111  0.0485 -0.8100  0.6288
  213MOL0     C28654  -2.700   4.559   8.122 -0.1529 -0.1966 -0.7421
  213MOL0     C28655  -2.787   4.670   8.112  0.0419 -0.5448 -0.0021
  213MOL0     O28656  -2.922   4.647   8.146  0.1682  0.0597 -0.3025
  213MOL0     C28657  -3.010   4.751   8.135  0.8829 -0.8708  1.0136
  213MOL0     C28658  -3.155   4.711   8.127  0.5705 -0.7724  0.6068
  213MOL0     C28659  -3.264   4.811   8.102  0.1763  0.3899 -0.1811
  213MOL0     C28660  -3.398   4.754   8.139 -0.5724 -0.1885 -0.0837
  213MOL0     C28661  -3.506   4.859   8.094  0.8301  0.3216 -0.3949
  213MOL0     C28662  -3.569   4.822   7.963 -0.6104 -0.5193  0.0997
  213MOL0     C28663  -3.675   4.922   7.933  0.2586  0.3232 -0.5887
  213MOL0     C28664  -3.705   4.910   7.785  0.0007 -0.3773 -0.8774
  213MOL0    Cl28665  -3.785   4.760   7.751  0.1088  0.3184 -0.5053
  213MOL0     C28666  -2.724   4.791   8.097 -0.2696  0.2329  0.2604
  213MOL0     C28667  -2.588   4.800   8.074 -0.8220 -0.8649 -0.0617
  213MOL0     O28668  -2.315   4.611   8.249 -0.7179 -0.1009  0.2308
  213MOL0     C28669  -2.102   4.661   7.953  0.0691 -0.3459 -0.2246
  213MOL0     C28670  -1.983   4.636   7.893 -0.0191  0.8082  0.7962
  213MOL0     N28671  -1.192   4.523   7.775  0.1727  0.3338 -0.2899
  213MOL0     N28672  -1.094   4.589   7.815 -0.1316  0.3047  0.3707
  213MOL0     C28673  -0.331   4.937   8.354 -0.5345 -0.7247 -0.8928
  213MOL0     C28674  -0.196   4.916   8.368 -0.3936  0.5551 -0.0010
  213MOL0     C28675   0.235   5.041   8.478  0.3905 -0.2338  0.3602
  213MOL0     C28676   0.279   4.978   8.594  0.8995  0.0348 -0.1703
  213MOL0     C28677   0.413   4.950   8.615  0.7414 -0.5350 -0.9212
  213MOL0     C28678   0.512   5.018   8.545  0.0015  0.4110  0.4994
  213MOL0     O28679   0.640   4.987   8.584  0.2326  1.0562 -0.3332
  213MOL0     C28680   0.752   5.057   8.537 -0.2958 -0.5721 -0.9699
  213MOL0     C28681   0.857   5.047   8.641  0.2129 -0.6902  0.6106
  213MOL0     C28682   0.826   5.133   8.766 -0.2982  0.1955 -0.5523
  213MOL0     C28683   0.945   5.170   8.856 -0.3087 -0.6050  0.1825
  213MOL0     C28684   1.003   5.053   8.918 -0.5101  0.3517 -0.0255
  213MOL0     C28685   1.068   4.955   8.944  0.6548  0.0193  0.4898
  213MOL0     C28686   0.472   5.098   8.432 -1.3231  0.0303  0.3298
  213MOL0     C28687   0.338   5.105   8.405 -0.2949 -1.2212 -0.2090
  213MOL0     H28688  -0.141   5.116   8.638 -0.6377  1.2328 -0.9937
  213MOL0     H28689  -0.371   5.121   8.639  2.7961  1.9664 -0.0631
  213MOL0     H28690  -0.626   4.919   8.570 -0.1201  0.1160  0.6319
  213MOL0     H28691  -0.580   5.089   8.617 -1.8174 -1.8481  2.3528
  213MOL0     H28692  -0.816   5.046   8.604 -0.4492 -0.3585  0.3531
  213MOL0     H28693  -0.759   5.174   8.487 -2.6310 -0.3183  2.6483
  213MOL0     H28694  -0.938   5.035   8.408 -0.0316 -0.6196 -1.4904
  213MOL0     H28695  -0.802   5.055   8.300  2.8224 -2.5291 -0.1615
  213MOL0     H28696  -0.719   4.827   8.335 -2.3679 -3.1066 -3.0640
  213MOL0     H28697  -0.836   4.809   8.474 -2.0559  1.0128  0.6024
  213MOL0     H28698  -0.906   4.703   8.293 -6.2026  0.0642 -2.0164
  213MOL0     H28699  -1.013   4.837   8.311 -0.8818  0.5549 -1.0740
  213MOL0     H28700  -0.860   4.967   8.127 -0.6306 -0.1234 -0.7758
  213MOL0     H28701  -0.780   4.805   8.130 -0.8043 -1.2433  0.6268
  213MOL0     H28702  -1.076   4.849   8.069 -1.3774  0.2348 -3.2853
  213MOL0     H28703  -0.968   4.843   7.936  1.2792 -3.3877 -0.6937
  213MOL0     H28704  -1.009   4.618   8.132 -2.6817  2.9339 -0.0626
  213MOL0     H28705  -0.888   4.617   8.004 -0.6174 -0.3258 -1.6829
  213MOL0     H28706  -1.249   4.523   8.098 -0.4223  0.3834 -0.1701
  213MOL0     H28707  -1.390   4.300   7.837  0.2650  0.9512 -0.8019
  213MOL0     H28708  -1.448   4.390   7.964  1.9302 -3.7535  0.4882
  213MOL0     H28709  -1.600   4.415   7.769  0.6932  1.2389 -0.3984
  213MOL0     H28710  -1.467   4.481   7.673 -1.1730 -3.4263 -1.4240
  213MOL0     H28711  -1.498   4.684   7.757  1.1060  0.3578  0.2484
  213MOL0     H28712  -1.507   4.626   7.932 -0.2244 -0.3547 -0.1752
  213MOL0     H28713  -1.738   4.626   7.727 -2.8128 -0.1217  1.3330
  213MOL0     H28714  -1.712   4.733   7.872  2.9998  1.1211 -0.7969
  213MOL0     H28715  -1.829   4.477   8.148  0.4052  0.0313  0.0649
  213MOL0     H28716  -2.076   4.626   8.377 -1.2129  1.2873 -1.0660
  213MOL0     H28717  -2.099   4.459   8.335  0.4655  0.6223 -1.8857
  213MOL0     H28718  -1.933   4.509   8.351  1.2893 -3.3470 -5.0314
  213MOL0     H28719  -2.495   4.481   8.127  2.8802  1.2924  1.0359
  213MOL0     H28720  -2.732   4.460   8.154  1.9682 -0.9903 -0.9037
  213MOL0     H28721  -2.998   4.811   8.226  0.1017  0.3442  0.3455
  213MOL0     H28722  -2.977   4.798   8.042  0.3696 -1.5702  0.4677
  213MOL0     H28723  -3.169   4.625   8.061 -0.6671  0.2889 -0.5692
  213MOL0     H28724  -3.177   4.660   8.221  0.3598  0.8847  1.4994
  213MOL0     H28725  -3.266   4.833   7.995 -1.6456 -1.2608 -0.5464
  213MOL0     H28726  -3.243   4.909   8.147 -0.7990  0.7999 -0.5899
  213MOL0     H28727  -3.404   4.661   8.081  1.4712 -1.3536  1.4390
  213MOL0     H28728  -3.410   4.736   8.246 -0.7556  1.4112  0.1838
  213MOL0     H28729  -3.466   4.960   8.088  1.6717  0.1533  1.6529
  213MOL0     H28730  -3.589   4.869   8.164  1.6834  1.9411  0.4508
  213MOL0     H28731  -3.487   4.832   7.891  1.0606 -0.5990  1.9063
  213MOL0     H28732  -3.611   4.721   7.962 -0.7546 -0.4514 -0.7688
  213MOL0     H28733  -3.652   5.025   7.964 -3.9854  1.0822  0.8140
  213MOL0     H28734  -3.764   4.908   7.996 -0.6889  3.7142 -0.9340
  213MOL0     H28735  -3.623   4.923   7.714 -0.2589  5.6604 -0.5516
  213MOL0     H28736  -3.778   4.987   7.757 -2.5730 -2.1936  0.3466
  213MOL0     H28737  -2.775   4.886   8.108  0.7338  1.1559 -2.4068
  213MOL0     H28738  -2.552   4.902   8.061 -1.9400 -0.1804  1.7375
  213MOL0     H28739  -2.172   4.724   7.898  1.5038  1.3250 -0.2079
  213MOL0     H28740  -1.964   4.654   7.788  2.3061 -2.7222  0.4488
  213MOL0     H28741  -0.380   4.898   8.265  1.5104  0.1074 -2.4519
  213MOL0     H28742  -0.155   4.854   8.289 -2.0803  0.6158 -0.9751
  213MOL0     H28743   0.199   4.958   8.664 -0.9738  1.1728 -1.8656
  213MOL0     H28744   0.430   4.886   8.701  2.2993  2.4908  1.2206
  213MOL0     H28745   0.795   4.996   8.457 -0.9076 -0.5627 -1.3063
  213MOL0     H28746   0.733   5.161   8.509  1.7587  0.8677  2.3530
  213MOL0     H28747   0.950   5.077   8.591 -1.0421  0.7073 -1.0278
  213MOL0     H28748   0.858   4.941   8.669  1.5537 -1.1587 -1.0215
  213MOL0     H28749   0.747   5.084   8.822 -0.3781 -1.4339 -1.9792
  213MOL0     H28750   0.775   5.223   8.730 -1.5097  0.5654  1.9375
  213MOL0     H28751   0.912   5.235   8.937  0.0048 -1.1540  0.7582
  213MOL0     H28752   1.025   5.221   8.801  2.2960 -1.5017  2.8435
  213MOL0     H28753   1.113   4.860   8.966  2.6273  0.4530 -1.2934
  213MOL0     H28754   0.539   5.154   8.368  0.4573 -1.8025  0.5225
  213MOL0     H28755   0.322   5.174   8.323  3.7227  1.5748  1.0702
  214MOL0     O28756   9.808   4.232   7.565  0.1469 -0.7165  0.6307
  214MOL0     C28757   9.798   4.115   7.531 -0.9660  0.0433  0.7748
  214MOL0     O28758   9.682   4.044   7.517 -0.1957  0.6140  0.0854
  214MOL0     C28759   9.561   4.109   7.516  0.2865 -0.3947  0.2231
  214MOL0     C28760   9.473   4.066   7.418  0.1632 -1.1009  0.2430
  214MOL0     C28761   9.343   4.132   7.397 -0.2932  0.2002 -0.4512
  214MOL0     C28762   9.298   4.237   7.485  0.2822  0.3746 -0.3121
  214MOL0     O28763   9.182   4.304   7.472 -0.0344  0.5671  0.3094
  214MOL0     C28764   9.097   4.272   7.365 -0.0858 -0.0770 -0.5085
  214MOL0     C28765   8.973   4.352   7.407 -0.6477  0.4292  0.4621
  214MOL0     C28766   8.843   4.323   7.318 -0.3770  0.7591  0.1104
  214MOL0     C28767   8.721   4.370   7.392  0.1189 -0.6559 -0.1302
  214MOL0     C28768   8.587   4.337   7.319  0.1582  0.3465 -0.6159
  214MOL0     C28769   8.467   4.438   7.329 -0.4076  0.2342 -0.1766
  214MOL0     C28770   8.329   4.380   7.293  0.2289 -0.3821 -0.2219
  214MOL0     C28771   8.219   4.460   7.361  1.1193 -0.0977  0.1080
  214MOL0     N28772   8.092   4.404   7.323 -0.4087  0.4948  0.3142
  214MOL0     C28773   8.050   4.370   7.196 -0.2082 -0.0331 -0.1202
  214MOL0     C28774   7.931   4.309   7.218 -0.0857 -0.1653 -0.5512
  214MOL0     C28775   7.846   4.247   7.107  0.0965 -0.6538 -0.5399
  214MOL0     C28776   7.808   4.102   7.145 -0.2420  0.4719 -0.5946
  214MOL0     C28777   7.721   4.037   7.029 -0.5850  0.4725 -0.7233
  214MOL0     C28778   7.704   3.883   7.049 -0.1359  0.1995 -0.4277
  214MOL0     O28779   7.668   3.852   7.187 -0.1525 -0.4751  0.6395
  214MOL0     C28780   7.541   3.829   7.224  0.3843  0.0525  0.1069
  214MOL0     C28781   7.424   3.873   7.169 -0.1976  0.3059 -0.1028
  214MOL0     C28782   7.296   3.839   7.222 -0.5607 -0.3983  0.0597
  214MOL0     C28783   7.167   3.877   7.156 -0.3855  0.5593  0.8643
  214MOL0     C28784   7.299   3.757   7.342 -1.1289  0.0502  0.4570
  214MOL0     C28785   7.176   3.722   7.415 -0.0883  0.3853 -0.2032
  214MOL0     O28786   7.063   3.705   7.351  0.2595  0.1061  0.2335
  214MOL0     C28787   6.961   3.658   7.426 -0.2080  0.0439 -0.1767
  214MOL0     C28788   6.939   3.521   7.452 -0.7696 -0.4229  0.0259
  214MOL0     C28789   6.818   3.473   7.499  0.2802  0.6162 -0.2638
  214MOL0     C28790   6.722   3.555   7.559 -0.6737 -0.2830  0.3556
  214MOL0     O28791   6.610   3.516   7.619  0.3872 -0.0694  0.1712
  214MOL0     C28792   6.562   3.377   7.601 -0.6060 -0.2318  0.1538
  214MOL0     C28793   6.421   3.343   7.658  0.1193  0.5213 -0.6450
  214MOL0     C28794   6.297   3.394   7.589  0.1550 -0.3879 -0.3862
  214MOL0     C28795   6.255   3.325   7.458  0.0123  0.9601  0.2359
  214MOL0     C28796   6.152   3.405   7.386 -0.2918 -0.8569  0.6536
  214MOL0     C28797   6.024   3.436   7.462  0.0036  0.8726 -0.1372
  214MOL0     C28798   5.930   3.502   7.363  0.4592  0.2775 -0.2096
  214MOL0     C28799   5.800   3.570   7.408  0.6984 -0.2544 -0.5971
  214MOL0    Cl28800   5.703   3.608   7.256 -0.4468 -0.0213  0.5157
  214MOL0     C28801   6.755   3.692   7.560  0.2233 -0.2481  0.8515
  214MOL0     C28802   6.861   3.746   7.483  0.8218  0.9978 -0.7141
  214MOL0     O28803   7.191   3.727   7.540  0.1023 -0.1984 -0.6528
  214MOL0     C28804   7.424   3.731   7.406 -1.0983  0.7173  0.9964
  214MOL0     C28805   7.540   3.755   7.342 -0.2746 -0.1094 -0.5870
  214MOL0     N28806   7.905   4.311   7.354  0.8161 -0.0475  0.6432
  214MOL0     N28807   7.999   4.373   7.411  0.0129  0.1415 -0.3041
  214MOL0     C28808   9.389   4.274   7.593  0.4695 -0.0569 -0.4917
  214MOL0     C28809   9.514   4.208   7.607  0.3485  0.4037  0.3300
  214MOL0     C28810   9.930   4.040   7.522 -0.0550  0.0004  0.3062
  214MOL0     C28811  10.030   4.038   7.617  0.3170  0.4830 -0.4416
  214MOL0     C28812  10.130   3.943   7.598  0.0321 -0.6297  0.4182
  214MOL0     C28813  10.145   3.868   7.484 -0.3115 -0.0328 -0.8806
  214MOL0     O28814  10.251   3.791   7.478  0.1882  1.2212 -0.9972
  214MOL0     C28815  10.324   3.795   7.355 -0.0098 -0.1762  0.9512
  214MOL0     C28816  10.475   3.783   7.375 -0.4664  1.4709  0.6587
  214MOL0     C28817  10.543   3.774   7.243  0.2881 -0.5536 -0.3863
  214MOL0     C28818  10.693   3.786   7.246 -0.3104 -0.9626 -0.2666
  214MOL0     C28819  10.743   3.668   7.315 -0.0365  0.3899 -0.0737
  214MOL0     C28820  10.790   3.568   7.373  0.2289 -0.4172 -0.8341
  214MOL0     C28821  10.045   3.875   7.387 -0.5673  0.7097  0.7019
  214MOL0     C28822   9.934   3.952   7.408 -0.2586  0.4660  0.3647
  214MOL0     H28823   9.498   3.996   7.338  0.2121 -0.0507 -0.6971
  214MOL0     H28824   9.287   4.112   7.306 -1.9465  2.3620 -0.0123
  214MOL0     H28825   9.138   4.306   7.269  0.9215 -0.7066 -0.3137
  214MOL0     H28826   9.082   4.164   7.369  1.3169 -0.2665  0.2469
  214MOL0     H28827   8.952   4.317   7.508 -3.4340 -0.9522 -0.4753
  214MOL0     H28828   8.988   4.460   7.403  0.3934  0.3205  1.1971
  214MOL0     H28829   8.846   4.384   7.227 -5.2521 -0.4745 -1.1553
  214MOL0     H28830   8.829   4.217   7.299  0.4264  0.2278  2.2049
  214MOL0     H28831   8.721   4.331   7.494 -0.3590  1.1968  0.6161
  214MOL0     H28832   8.742   4.477   7.395 -0.6640 -0.3754 -2.4178
  214MOL0     H28833   8.612   4.310   7.216  2.3042 -0.0988 -0.0359
  214MOL0     H28834   8.560   4.245   7.370 -0.3633  0.1247 -1.2757
  214MOL0     H28835   8.465   4.459   7.436  1.4125 -1.1393  0.1717
  214MOL0     H28836   8.496   4.523   7.266  1.9755  0.0294  0.5790
  214MOL0     H28837   8.323   4.393   7.184 -2.7687 -3.4444 -0.5687
  214MOL0     H28838   8.317   4.275   7.318  0.1530 -0.6351 -1.2494
  214MOL0     H28839   8.233   4.564   7.329  0.9594 -0.1267 -0.0568
  214MOL0     H28840   8.219   4.461   7.471  0.7708  0.8271  0.1078
  214MOL0     H28841   8.101   4.371   7.100  2.7159 -1.5100  1.3005
  214MOL0     H28842   7.758   4.307   7.085  1.0183  0.2177 -2.0092
  214MOL0     H28843   7.907   4.247   7.016  1.1224 -2.0773  0.0924
  214MOL0     H28844   7.760   4.106   7.243  1.1214 -1.0404  0.1908
  214MOL0     H28845   7.902   4.046   7.155 -1.1282 -1.3359 -1.8586
  214MOL0     H28846   7.764   4.048   6.929 -1.6841  0.8507 -1.1696
  214MOL0     H28847   7.620   4.079   7.029  0.0774  2.1634  0.5319
  214MOL0     H28848   7.796   3.831   7.022  0.4841  1.2941 -0.4862
  214MOL0     H28849   7.631   3.853   6.974  1.9410 -4.5836 -0.9066
  214MOL0     H28850   7.428   3.933   7.078 -2.1241 -3.1343 -2.6976
  214MOL0     H28851   7.125   3.796   7.096  1.9597  0.1209 -0.3097
  214MOL0     H28852   7.098   3.927   7.224 -1.1953  0.2974  0.2491
  214MOL0     H28853   7.204   3.950   7.083  1.6953  0.4996  1.7823
  214MOL0     H28854   7.010   3.455   7.405  1.5045  0.1163  2.4915
  214MOL0     H28855   6.813   3.366   7.516 -0.9547  0.4770 -1.3599
  214MOL0     H28856   6.560   3.359   7.493 -0.2090 -0.1048  0.1231
  214MOL0     H28857   6.639   3.310   7.639  0.6969  0.1726 -1.6034
  214MOL0     H28858   6.415   3.234   7.654 -0.6691  0.5226  0.2733
  214MOL0     H28859   6.415   3.376   7.762 -0.0270  1.9021 -1.0730
  214MOL0     H28860   6.304   3.503   7.582 -1.1220 -0.3482 -1.4523
  214MOL0     H28861   6.212   3.378   7.656 -0.1111  1.7694 -0.1475
  214MOL0     H28862   6.336   3.315   7.386 -1.2228 -0.7764 -1.0197
  214MOL0     H28863   6.208   3.228   7.480  2.1524  0.0290  0.9681
  214MOL0     H28864   6.131   3.352   7.293 -0.6095 -1.3200  0.9819
  214MOL0     H28865   6.182   3.499   7.339 -1.0104 -0.4332  1.0165
  214MOL0     H28866   5.984   3.339   7.494 -0.0852  0.8968 -0.1731
  214MOL0     H28867   6.041   3.495   7.552 -2.5177  2.4358 -0.6048
  214MOL0     H28868   5.910   3.422   7.292 -0.5551  0.2583  0.0745
  214MOL0     H28869   5.978   3.582   7.306 -0.1029  1.0570  0.3794
  214MOL0     H28870   5.819   3.654   7.475 -0.9360 -1.8203  2.0284
  214MOL0     H28871   5.746   3.502   7.475 -0.6324  1.4198  0.0964
  214MOL0     H28872   6.684   3.765   7.597 -0.5476  0.4953 -1.9145
  214MOL0     H28873   6.863   3.852   7.463 -0.8592  1.5115  1.4391
  214MOL0     H28874   7.427   3.676   7.500 -0.7891  1.2915  1.3263
  214MOL0     H28875   7.634   3.714   7.377 -0.0709  0.3824 -0.5441
  214MOL0     H28876   9.361   4.354   7.662 -0.6109 -2.5192  2.1440
  214MOL0     H28877   9.587   4.229   7.685  2.8508  0.1074 -1.7845
  214MOL0     H28878  10.023   4.099   7.707 -4.1502  2.5708 -1.9129
  214MOL0     H28879  10.204   3.931   7.676 -1.1865 -0.6196  1.6117
  214MOL0     H28880  10.289   3.712   7.292  0.2655  0.3172  0.1349
  214MOL0     H28881  10.303   3.895   7.317 -0.5193 -0.3347  0.7987
  214MOL0     H28882  10.497   3.693   7.434 -2.7054  2.3521  3.0480
  214MOL0     H28883  10.508   3.870   7.432 -3.0802  1.8423  1.7566
  214MOL0     H28884  10.507   3.870   7.203 -3.9292 -0.8819  2.1139
  214MOL0     H28885  10.513   3.691   7.178  3.9605 -1.7418 -0.7663
  214MOL0     H28886  10.736   3.877   7.287  0.4451 -2.0425  1.4717
  214MOL0     H28887  10.738   3.787   7.146  0.7108  0.6632  0.1737
  214MOL0     H28888  10.841   3.491   7.428  2.7090  0.0468 -2.3179
  214MOL0     H28889  10.043   3.806   7.303  2.9240  1.3865 -0.1123
  214MOL0     H28890   9.857   3.952   7.332 -0.3580 -0.2435  0.4575
  215MOL0     O28891   6.673  10.541   8.420 -0.4556  0.0900  0.2530
  215MOL0     C28892   6.737  10.624   8.480 -0.3562 -0.1538 -0.3334
  215MOL0     O28893   6.689  10.744   8.533  0.5985 -0.0900 -0.1760
  215MOL0     C28894   6.561  10.784   8.510 -1.0257  0.2760  0.2324
  215MOL0     C28895   6.501  10.851   8.612 -0.3780  0.1068 -0.3044
  215MOL0     C28896   6.368  10.893   8.604  0.8728 -0.1444 -0.4014
  215MOL0     C28897   6.286  10.858   8.497 -0.5189 -0.4751 -0.2990
  215MOL0     O28898   6.161  10.902   8.486  0.1060 -1.2895  0.4138
  215MOL0     C28899   6.058  10.840   8.572  0.2992 -0.1151 -0.5682
  215MOL0     C28900   5.920  10.859   8.505  0.3667  1.1283  0.3152
  215MOL0     C28901   5.816  10.767   8.570 -0.7080  0.1656 -0.4651
  215MOL0     C28902   5.761  10.818   8.705 -0.4623 -0.6499 -0.2748
  215MOL0     C28903   5.668  10.719   8.775  0.0717 -1.1408 -0.3060
  215MOL0     C28904   5.544  10.677   8.685 -0.4917 -0.0632  0.4062
  215MOL0     C28905   5.439  10.603   8.768 -0.1582 -0.3448  0.1814
  215MOL0     C28906   5.354  10.704   8.853  0.6787  0.6052  0.1859
  215MOL0     N28907   5.234  10.650   8.919 -0.0735 -0.7345  0.4801
  215MOL0     C28908   5.176  10.524   8.906  0.9353 -0.1746  0.2857
  215MOL0     C28909   5.051  10.520   8.956  0.3376 -0.0454  0.1221
  215MOL0     C28910   4.957  10.416   8.984  0.3020  0.3568  0.6541
  215MOL0     C28911   4.892  10.345   8.862 -0.6365  0.0944 -0.2591
  215MOL0     C28912   4.838  10.437   8.754 -0.7366  0.2849 -0.2867
  215MOL0     C28913   4.757  10.356   8.651 -0.4778  0.6220 -0.8040
  215MOL0     O28914   4.689  10.448   8.562 -0.0046  0.3155 -0.4520
  215MOL0     C28915   4.564  10.470   8.586  0.5805 -0.3019  1.2156
  215MOL0     C28916   4.491  10.512   8.473  0.2937 -0.5675  0.0079
  215MOL0     C28917   4.361  10.561   8.481  0.0950  0.5151 -0.8991
  215MOL0     C28918   4.295  10.612   8.355  0.0209  0.1398  0.0952
  215MOL0     C28919   4.287  10.557   8.605  0.4186 -0.2884  0.1754
  215MOL0     C28920   4.147  10.600   8.620  0.2543  0.2149 -0.3368
  215MOL0     O28921   4.084  10.553   8.734 -0.2477 -0.0112 -0.1320
  215MOL0     C28922   3.962  10.617   8.752  0.4514 -0.4710 -0.2304
  215MOL0     C28923   3.848  10.545   8.708 -0.4787 -0.5079 -0.4277
  215MOL0     C28924   3.723  10.602   8.733  0.2100  0.3521  0.5184
  215MOL0     C28925   3.698  10.728   8.789  0.4035  0.3867 -0.2074
  215MOL0     O28926   3.573  10.770   8.811  0.2670  0.2054  0.2801
  215MOL0     C28927   3.476  10.776   8.700  0.8397 -0.0646  0.2287
  215MOL0     C28928   3.359  10.878   8.736 -0.4452  0.0458 -0.3909
  215MOL0     C28929   3.408  11.021   8.735  0.2860  0.3433 -0.3775
  215MOL0     C28930   3.295  11.121   8.774  1.0953 -0.0564  0.2458
  215MOL0     C28931   3.335  11.266   8.790  0.5100  0.1737  0.4703
  215MOL0     C28932   3.363  11.322   8.651 -0.6471 -0.6758  0.6196
  215MOL0     C28933   3.441  11.460   8.668 -0.5326 -0.3771  0.2132
  215MOL0     C28934   3.529  11.506   8.559 -0.5318  0.5732  0.2230
  215MOL0    Cl28935   3.435  11.505   8.405 -0.1828 -0.4434  0.1686
  215MOL0     C28936   3.806  10.804   8.835  0.3806  1.1168 -0.3444
  215MOL0     C28937   3.940  10.747   8.814  0.5215  0.2909 -0.0098
  215MOL0     O28938   4.104  10.693   8.548  0.0744  0.5954  0.0139
  215MOL0     C28939   4.359  10.508   8.717 -0.6959 -0.3476  0.7682
  215MOL0     C28940   4.500  10.469   8.706  0.1694 -0.0459  0.3666
  215MOL0     N28941   5.039  10.653   9.002 -0.3554  0.3440 -0.6495
  215MOL0     N28942   5.134  10.723   8.967  0.1515 -0.1803  0.2844
  215MOL0     C28943   6.347  10.794   8.395  0.3958 -0.9598 -0.6894
  215MOL0     C28944   6.484  10.761   8.394  0.1419 -0.3617 -0.7396
  215MOL0     C28945   6.876  10.579   8.504  0.4711  0.6888  0.1044
  215MOL0     C28946   6.945  10.625   8.613 -1.0448 -0.4482  0.5790
  215MOL0     C28947   7.081  10.589   8.627  0.1245  0.0977  0.5934
  215MOL0     C28948   7.150  10.500   8.534  0.6215  0.2629 -0.3164
  215MOL0     O28949   7.279  10.453   8.557 -0.5064  0.0329 -0.4988
  215MOL0     C28950   7.368  10.534   8.635  0.6622  0.0997  0.4292
  215MOL0     C28951   7.513  10.501   8.612  0.3624  0.4578 -0.6006
  215MOL0     C28952   7.550  10.383   8.715 -0.7153 -0.7554  0.6645
  215MOL0     C28953   7.688  10.321   8.690  0.6723  0.5622  0.1955
  215MOL0     C28954   7.794  10.419   8.714  0.9435  0.5656 -0.4599
  215MOL0     C28955   7.883  10.487   8.755 -0.0276 -0.4796 -0.6855
  215MOL0     C28956   7.073  10.453   8.428  0.5010 -0.6751 -0.2942
  215MOL0     C28957   6.938  10.489   8.414 -0.0967 -0.3619 -0.1410
  215MOL0     H28958   6.550  10.866   8.708 -2.1112 -1.6549  0.9635
  215MOL0     H28959   6.330  10.954   8.685  2.6140  1.6559 -0.8353
  215MOL0     H28960   6.082  10.734   8.573  0.4584 -0.1777 -3.2529
  215MOL0     H28961   6.059  10.874   8.676  1.7294 -0.1059 -0.5762
  215MOL0     H28962   5.874  10.958   8.502  0.2199  1.0818  0.8172
  215MOL0     H28963   5.943  10.829   8.403  0.1708 -1.5476  0.9778
  215MOL0     H28964   5.735  10.772   8.496  0.3848  0.9393 -1.6553
  215MOL0     H28965   5.856  10.666   8.584  1.9216  1.5727  4.2850
  215MOL0     H28966   5.839  10.847   8.777 -0.9091  1.7917 -0.6795
  215MOL0     H28967   5.701  10.909   8.697 -0.9009 -0.7585  1.4442
  215MOL0     H28968   5.714  10.625   8.806 -0.5515 -1.6038 -0.7545
  215MOL0     H28969   5.637  10.768   8.868  0.4865  0.9407 -1.2003
  215MOL0     H28970   5.497  10.766   8.642 -3.2091 -1.8498 -0.5590
  215MOL0     H28971   5.568  10.599   8.613 -2.5006 -1.5621  1.2581
  215MOL0     H28972   5.374  10.554   8.696 -0.6768  0.5757  0.0014
  215MOL0     H28973   5.489  10.529   8.831 -0.4746  0.6058  1.6051
  215MOL0     H28974   5.315  10.785   8.790 -2.3093 -1.4510 -0.8471
  215MOL0     H28975   5.426  10.744   8.924  3.6606 -1.1490 -1.6638
  215MOL0     H28976   5.223  10.436   8.863  1.1160 -0.0515  0.2312
  215MOL0     H28977   5.005  10.341   9.048  0.7595  0.6946  0.7098
  215MOL0     H28978   4.866  10.454   9.031 -1.8409 -1.7016 -1.5459
  215MOL0     H28979   4.814  10.275   8.893 -0.8705 -0.3206 -1.7043
  215MOL0     H28980   4.965  10.281   8.812 -1.4445 -2.0692  1.1701
  215MOL0     H28981   4.923  10.485   8.705  1.1440  0.5269  2.9458
  215MOL0     H28982   4.778  10.514   8.804  0.4817  0.6597  0.6555
  215MOL0     H28983   4.692  10.286   8.704 -0.2266 -0.0836 -1.4165
  215MOL0     H28984   4.820  10.292   8.589 -1.8275 -1.7758  0.1714
  215MOL0     H28985   4.546  10.514   8.380 -2.2890 -0.0265 -1.5881
  215MOL0     H28986   4.196  10.566   8.343  0.4926 -0.4946 -1.5780
  215MOL0     H28987   4.286  10.720   8.341 -3.9201  0.0415  0.5182
  215MOL0     H28988   4.342  10.568   8.267  2.8585  0.3563  1.3913
  215MOL0     H28989   3.863  10.446   8.665  0.2680 -1.7733  2.5368
  215MOL0     H28990   3.643  10.537   8.700  0.0409  1.1312 -0.6420
  215MOL0     H28991   3.527  10.802   8.606 -1.3688 -0.3311 -1.1128
  215MOL0     H28992   3.430  10.677   8.704  3.0278 -1.1050  1.2414
  215MOL0     H28993   3.280  10.864   8.661 -1.9954  3.2682  0.4300
  215MOL0     H28994   3.325  10.856   8.838 -1.4995  2.2468 -0.2101
  215MOL0     H28995   3.453  11.036   8.636  0.6303 -0.3745 -0.3339
  215MOL0     H28996   3.494  11.029   8.801  1.9292 -0.9612 -2.2136
  215MOL0     H28997   3.211  11.114   8.704  1.1347  3.0373 -0.2425
  215MOL0     H28998   3.255  11.089   8.871 -1.7710 -0.1251 -0.8519
  215MOL0     H28999   3.418  11.276   8.860  0.5329  0.3307  0.4210
  215MOL0     H29000   3.248  11.313   8.836  0.2650  0.1918  0.0019
  215MOL0     H29001   3.424  11.256   8.588 -0.7652  2.4135 -3.1231
  215MOL0     H29002   3.269  11.341   8.599  0.9853  0.8711 -1.9782
  215MOL0     H29003   3.513  11.450   8.749  0.6350  0.1687 -0.7300
  215MOL0     H29004   3.361  11.533   8.683 -0.9005 -0.8645  0.6798
  215MOL0     H29005   3.616  11.440   8.556  0.2384  1.3754  2.7221
  215MOL0     H29006   3.562  11.608   8.580 -1.6506  0.5862  2.1747
  215MOL0     H29007   3.785  10.904   8.874 -1.9139 -0.1542  1.9632
  215MOL0     H29008   4.035  10.799   8.825  2.0544 -2.1255 -0.9775
  215MOL0     H29009   4.318  10.501   8.817 -0.1856  0.6462  1.0569
  215MOL0     H29010   4.561  10.435   8.789  3.9229 -1.7380 -2.7531
  215MOL0     H29011   6.281  10.788   8.309 -0.3881  2.3546 -0.4619
  215MOL0     H29012   6.536  10.716   8.310  2.1320  1.3363 -0.5051
  215MOL0     H29013   6.922  10.699   8.689  2.7807  0.3395  1.1745
  215MOL0     H29014   7.139  10.626   8.711 -1.0902  0.0585  1.4766
  215MOL0     H29015   7.356  10.642   8.618 -0.1064 -0.1591 -0.8105
  215MOL0     H29016   7.351  10.516   8.741  0.0068  0.8655  0.4669
  215MOL0     H29017   7.574  10.590   8.631  3.6387 -1.5444 -0.9689
  215MOL0     H29018   7.526  10.466   8.509 -2.5548  0.8136 -1.1523
  215MOL0     H29019   7.497  10.292   8.684  2.3405 -1.3862 -3.6429
  215MOL0     H29020   7.537  10.427   8.814 -0.2948  1.8371 -0.3543
  215MOL0     H29021   7.693  10.284   8.587 -0.9883  0.8334 -0.0147
  215MOL0     H29022   7.691  10.233   8.756 -3.3750  0.0705 -0.0201
  215MOL0     H29023   7.968  10.542   8.789 -0.5227 -0.3117  0.3323
  215MOL0     H29024   7.116  10.386   8.354  2.6765 -0.6208  0.8223
  215MOL0     H29025   6.883  10.459   8.325 -1.8534 -0.4915  0.9410
  216MOL0     O29026   5.196   5.366   3.349 -0.3410 -1.2056  0.3679
  216MOL0     C29027   5.254   5.454   3.276 -0.5436  0.7158  0.1107
  216MOL0     O29028   5.183   5.554   3.207  0.2396  0.2658  0.5838
  216MOL0     C29029   5.052   5.577   3.235  1.6466  0.1930  0.1954
  216MOL0     C29030   4.993   5.592   3.360 -0.0561 -0.7204 -0.4295
  216MOL0     C29031   4.856   5.618   3.373 -0.8282  0.2351  0.0137
  216MOL0     C29032   4.766   5.635   3.268 -0.5775  0.2933  0.8230
  216MOL0     O29033   4.640   5.663   3.297  0.4432  0.3531 -0.3920
  216MOL0     C29034   4.544   5.602   3.197  0.0525 -0.2625 -1.3356
  216MOL0     C29035   4.410   5.619   3.263  0.2183 -0.5884  0.3980
  216MOL0     C29036   4.352   5.764   3.256  0.7194 -0.3796 -0.2327
  216MOL0     C29037   4.195   5.767   3.268 -1.3921  0.4330 -0.1815
  216MOL0     C29038   4.167   5.915   3.283 -0.5395  0.3372  0.2924
  216MOL0     C29039   4.017   5.948   3.290  0.8232  0.4229  0.0523
  216MOL0     C29040   3.999   6.103   3.290 -0.2383 -0.3191 -0.0814
  216MOL0     C29041   3.853   6.152   3.283  0.0065 -0.1856 -0.0055
  216MOL0     N29042   3.781   6.116   3.159  0.2420  0.3611 -0.2724
  216MOL0     C29043   3.702   6.204   3.091  0.0848  0.3031  0.4954
  216MOL0     C29044   3.639   6.127   2.996 -1.0662  0.0554  0.0090
  216MOL0     C29045   3.546   6.174   2.898 -0.0603 -0.8838 -0.4225
  216MOL0     C29046   3.405   6.147   2.950  0.1619  0.1102  0.5827
  216MOL0     C29047   3.288   6.236   2.899 -0.5913  0.5881  1.0305
  216MOL0     C29048   3.159   6.209   2.966  0.7884 -0.0346 -0.0072
  216MOL0     O29049   3.114   6.074   2.941 -0.8298  0.3956 -0.0362
  216MOL0     C29050   2.985   6.039   2.970 -0.2982 -0.4543  0.9250
  216MOL0     C29051   2.897   6.102   3.057  0.7607  0.6092 -0.7832
  216MOL0     C29052   2.764   6.050   3.073 -0.4739 -0.1676  1.0410
  216MOL0     C29053   2.668   6.117   3.169  0.1613  0.3097 -0.3559
  216MOL0     C29054   2.718   5.938   2.996  0.2629  0.1269 -1.3293
  216MOL0     C29055   2.583   5.876   3.004  0.3187  0.4597 -0.0155
  216MOL0     O29056   2.579   5.757   2.955 -0.2056 -0.2386 -0.6304
  216MOL0     C29057   2.474   5.669   2.964  0.3734  0.5106 -0.0866
  216MOL0     C29058   2.343   5.718   2.945 -0.4041  0.8573  0.0023
  216MOL0     C29059   2.238   5.629   2.972  0.6249  0.2737 -0.8308
  216MOL0     C29060   2.256   5.494   3.007  0.8519 -0.4071 -0.8833
  216MOL0     O29061   2.153   5.417   3.054  0.0558  0.2742 -0.2028
  216MOL0     C29062   2.017   5.455   3.049 -0.1734  0.6195  0.3377
  216MOL0     C29063   1.978   5.520   3.188  0.3450 -1.0480  0.0198
  216MOL0     C29064   1.824   5.535   3.196  0.0841 -0.2387  0.2626
  216MOL0     C29065   1.784   5.597   3.324 -0.0767  0.1300 -0.0434
  216MOL0     C29066   1.634   5.632   3.322  0.8052 -0.3010  0.0248
  216MOL0     C29067   1.595   5.724   3.446  0.1204 -0.1636 -0.4588
  216MOL0     C29068   1.438   5.758   3.449 -0.8113  0.0892  0.0679
  216MOL0     C29069   1.408   5.843   3.573 -0.1408  0.4984  0.2004
  216MOL0    Cl29070   1.235   5.854   3.612 -0.0635  0.0503  0.0399
  216MOL0     C29071   2.390   5.439   3.011  0.2741 -0.0138  0.0967
  216MOL0     C29072   2.493   5.530   2.986  0.1124  0.1328 -0.3338
  216MOL0     O29073   2.487   5.930   3.063  0.5648  0.8495  0.1466
  216MOL0     C29074   2.809   5.862   2.916 -1.2111  0.0853 -0.9661
  216MOL0     C29075   2.940   5.927   2.899 -0.1683 -0.7219  0.3094
  216MOL0     N29076   3.687   5.995   3.004  1.0376 -0.2178 -0.1559
  216MOL0     N29077   3.769   5.992   3.107  0.2871 -0.2112 -0.0770
  216MOL0     C29078   4.827   5.632   3.140  0.2145 -0.4811  0.2301
  216MOL0     C29079   4.962   5.597   3.126  0.0270 -0.0997 -0.2139
  216MOL0     C29080   5.404   5.434   3.254  0.5194 -0.0334 -0.3824
  216MOL0     C29081   5.458   5.498   3.144 -0.5733  0.5582  1.4368
  216MOL0     C29082   5.594   5.486   3.123  0.1496  0.3863  0.0071
  216MOL0     C29083   5.678   5.415   3.224  0.7447 -0.0058  0.6621
  216MOL0     O29084   5.809   5.378   3.204  0.7137  0.1104  0.1946
  216MOL0     C29085   5.885   5.437   3.103  0.4319  0.5739 -0.1327
  216MOL0     C29086   6.028   5.389   3.111  0.7329  0.1291  0.5737
  216MOL0     C29087   6.097   5.433   3.231  0.3913  0.0388 -0.0598
  216MOL0     C29088   6.233   5.355   3.251  0.4188 -1.2387  0.8136
  216MOL0     C29089   6.332   5.384   3.143  0.1335  0.8154  0.1614
  216MOL0     C29090   6.403   5.431   3.052 -0.2051 -0.6457 -0.5039
  216MOL0     C29091   5.612   5.348   3.323  0.7014  0.5326 -0.2804
  216MOL0     C29092   5.475   5.353   3.343  0.4953  0.0116 -0.0709
  216MOL0     H29093   5.053   5.573   3.448  0.2130  0.8850 -0.2385
  216MOL0     H29094   4.817   5.613   3.474  0.6143 -0.5355  0.5666
  216MOL0     H29095   4.546   5.653   3.100  0.7865 -0.0670 -1.2235
  216MOL0     H29096   4.561   5.495   3.182 -1.6740 -0.5999 -1.0656
  216MOL0     H29097   4.349   5.545   3.210  0.7717 -0.5068 -0.3723
  216MOL0     H29098   4.424   5.589   3.367  1.7906  0.2811  0.4671
  216MOL0     H29099   4.395   5.817   3.341 -0.6466 -0.6383  0.6596
  216MOL0     H29100   4.388   5.816   3.167  3.0709  3.0792  2.4813
  216MOL0     H29101   4.148   5.729   3.177 -0.9068  0.0154 -0.2609
  216MOL0     H29102   4.155   5.711   3.354 -2.3320  1.6139  0.1829
  216MOL0     H29103   4.222   5.954   3.370  1.8591  1.0816 -1.4394
  216MOL0     H29104   4.208   5.960   3.192  0.4993 -2.1594 -0.5346
  216MOL0     H29105   3.972   5.898   3.203  2.6980  2.5644 -2.2858
  216MOL0     H29106   3.974   5.909   3.383 -0.0700 -2.2208 -1.3659
  216MOL0     H29107   4.037   6.120   3.391 -1.1159  0.2059  0.1692
  216MOL0     H29108   4.053   6.155   3.210  0.7552 -0.8871  0.2026
  216MOL0     H29109   3.868   6.260   3.290  2.1023 -0.2699 -1.9133
  216MOL0     H29110   3.792   6.111   3.364  0.5465  0.1365  0.5720
  216MOL0     H29111   3.679   6.307   3.115 -2.0545 -0.5508  2.5072
  216MOL0     H29112   3.560   6.281   2.878 -2.1070 -0.8195 -1.7152
  216MOL0     H29113   3.585   6.136   2.803  0.1658  4.5522 -2.9005
  216MOL0     H29114   3.413   6.173   3.056 -1.3561  0.8817  0.5417
  216MOL0     H29115   3.382   6.041   2.939 -0.6230  0.2467  0.8756
  216MOL0     H29116   3.264   6.203   2.798 -0.5157 -1.4547  1.6398
  216MOL0     H29117   3.316   6.342   2.899  2.4908 -0.0631 -1.6903
  216MOL0     H29118   3.082   6.278   2.929  1.5137  0.2180 -1.0831
  216MOL0     H29119   3.177   6.221   3.073 -1.8261 -1.3311  0.6746
  216MOL0     H29120   2.937   6.184   3.116 -0.2996 -0.0776  0.9302
  216MOL0     H29121   2.571   6.141   3.125 -0.4051  3.8951  2.3557
  216MOL0     H29122   2.659   6.048   3.253 -2.4343  0.2350 -0.6119
  216MOL0     H29123   2.704   6.210   3.214 -0.8246  0.9448 -0.8326
  216MOL0     H29124   2.338   5.822   2.912  5.1928  0.6181 -2.7846
  216MOL0     H29125   2.140   5.674   2.962  1.0909  1.8349  1.1010
  216MOL0     H29126   2.001   5.516   2.960  1.9784  2.0445  0.8314
  216MOL0     H29127   1.957   5.364   3.038  1.7838 -0.7105  0.0473
  216MOL0     H29128   2.017   5.462   3.272  1.0306  0.1383  0.5469
  216MOL0     H29129   2.018   5.622   3.197 -0.6838 -0.7811  2.3381
  216MOL0     H29130   1.784   5.434   3.194  4.6383 -2.3615 -4.1017
  216MOL0     H29131   1.784   5.599   3.117  0.2849 -2.2526 -1.5476
  216MOL0     H29132   1.806   5.528   3.406  0.9653 -1.1198 -1.3111
  216MOL0     H29133   1.835   5.693   3.335 -1.7636  0.9525  1.1484
  216MOL0     H29134   1.573   5.542   3.334 -1.0053  0.9950  1.0437
  216MOL0     H29135   1.604   5.682   3.230 -0.2366 -0.2947  0.3558
  216MOL0     H29136   1.629   5.680   3.540 -2.4488  1.9586  1.6264
  216MOL0     H29137   1.649   5.817   3.429 -0.0158 -0.1170 -0.6374
  216MOL0     H29138   1.374   5.669   3.454  1.0528 -1.2562  3.3006
  216MOL0     H29139   1.408   5.821   3.364 -3.4205  0.8111  1.3898
  216MOL0     H29140   1.455   5.941   3.561  3.4177 -1.2381 -1.3255
  216MOL0     H29141   1.450   5.798   3.663  0.6083 -0.6579 -0.6945
  216MOL0     H29142   2.413   5.335   3.031  1.4558 -0.0915 -1.4427
  216MOL0     H29143   2.597   5.498   2.993  0.3513  0.6474 -1.3518
  216MOL0     H29144   2.788   5.769   2.864 -3.6551 -0.4803  0.8670
  216MOL0     H29145   3.011   5.876   2.835 -0.8509  1.2854 -2.2132
  216MOL0     H29146   4.760   5.646   3.056 -0.1825  3.6847  1.0391
  216MOL0     H29147   5.014   5.599   3.031 -0.4978 -3.6424 -0.7422
  216MOL0     H29148   5.385   5.541   3.077  0.6859 -0.9236 -1.0427
  216MOL0     H29149   5.642   5.515   3.030  0.1007  2.3732  0.5664
  216MOL0     H29150   5.840   5.408   3.008 -0.3132  0.7360  0.1636
  216MOL0     H29151   5.881   5.546   3.112  0.9542  0.4893  1.6048
  216MOL0     H29152   6.088   5.439   3.035  0.4005  0.8894  0.7945
  216MOL0     H29153   6.026   5.280   3.099 -2.5999 -0.0304  1.4576
  216MOL0     H29154   6.032   5.423   3.319  1.7870 -2.6394  0.7996
  216MOL0     H29155   6.124   5.536   3.208  3.7478 -0.2444  1.8122
  216MOL0     H29156   6.221   5.248   3.267 -1.7270 -1.2234 -0.2728
  216MOL0     H29157   6.288   5.385   3.340 -0.6114  0.4150  0.9351
  216MOL0     H29158   6.471   5.465   2.976 -1.0135  0.9688 -0.5420
  216MOL0     H29159   5.681   5.298   3.391  1.1888  1.3098 -0.1972
  216MOL0     H29160   5.421   5.302   3.422 -2.2749  1.1715 -1.1020
  217MOL0     O29161   1.458   1.562   7.165 -0.1214 -0.1557 -0.4515
  217MOL0     C29162   1.510   1.492   7.082 -0.9450 -0.3728 -0.4224
  217MOL0     O29163   1.436   1.418   6.991  0.2135  0.5892  0.1869
  217MOL0     C29164   1.298   1.395   7.013 -0.2629  0.3688  0.0828
  217MOL0     C29165   1.233   1.336   6.905  0.1940  0.6123  0.3165
  217MOL0     C29166   1.102   1.291   6.914  0.2564 -0.4858 -0.0968
  217MOL0     C29167   1.031   1.301   7.037 -0.4911 -0.6594  0.1941
  217MOL0     O29168   0.905   1.268   7.052 -0.0546  0.5380  0.1337
  217MOL0     C29169   0.865   1.143   6.978 -0.2317 -0.1127 -0.5468
  217MOL0     C29170   0.730   1.108   7.036 -0.0228  0.4300  0.0840
  217MOL0     C29171   0.672   0.984   6.965  0.1486  1.2032  0.0810
  217MOL0     C29172   0.517   1.000   6.974  0.1071  0.5081  0.4501
  217MOL0     C29173   0.435   0.868   6.963 -0.7180  0.7059 -0.1077
  217MOL0     C29174   0.447   0.805   6.824  0.0696 -0.2048  0.5327
  217MOL0     C29175   0.361   0.678   6.802 -0.2141 -0.0147 -0.7892
  217MOL0     C29176   0.216   0.703   6.772 -0.2796 -0.3356  0.3099
  217MOL0     N29177   0.133   0.719   6.891 -0.0062  0.0977 -0.3027
  217MOL0     C29178   0.101   0.632   6.994  0.1964  0.5227  0.6087
  217MOL0     C29179   0.019   0.701   7.071  0.1997 -0.2578  0.3030
  217MOL0     C29180  -0.031   0.649   7.205  0.1400  0.6760 -0.0461
  217MOL0     C29181  -0.174   0.600   7.219  0.2125  0.3819  0.1140
  217MOL0     C29182  -0.270   0.718   7.189  0.5416  0.1315  0.0380
  217MOL0     C29183  -0.413   0.671   7.159  0.4268 -0.4388 -0.1347
  217MOL0     O29184  -0.494   0.629   7.268  0.0150  0.6101  0.4294
  217MOL0     C29185  -0.632   0.631   7.267  0.5583 -0.3136 -0.1273
  217MOL0     C29186  -0.708   0.662   7.162 -0.0780  1.1485 -0.2703
  217MOL0     C29187  -0.848   0.653   7.150  0.0572 -0.4081  0.0904
  217MOL0     C29188  -0.912   0.708   7.025  0.8684 -0.1499  0.3898
  217MOL0     C29189  -0.915   0.605   7.273 -0.3180 -0.0421  0.3224
  217MOL0     C29190  -1.063   0.615   7.279  0.4775  0.3955  0.6578
  217MOL0     O29191  -1.118   0.732   7.284  0.1634 -0.1219  0.5454
  217MOL0     C29192  -1.254   0.758   7.278  0.1938  0.5374  0.7627
  217MOL0     C29193  -1.310   0.868   7.341  0.0105 -0.5432 -0.0226
  217MOL0     C29194  -1.446   0.892   7.334  0.2645  0.2869  0.6534
  217MOL0     C29195  -1.536   0.807   7.269 -0.3211 -0.5323  1.0779
  217MOL0     O29196  -1.668   0.846   7.283  0.1135  0.0827 -0.0665
  217MOL0     C29197  -1.777   0.750   7.273 -0.8428 -0.8172 -0.0743
  217MOL0     C29198  -1.813   0.737   7.127  0.4426 -0.1194  0.6299
  217MOL0     C29199  -1.960   0.684   7.103  0.1737  0.2883 -0.1523
  217MOL0     C29200  -1.987   0.526   7.109 -0.2134 -0.2312 -0.6521
  217MOL0     C29201  -2.136   0.492   7.111  0.2765 -0.5074 -0.2825
  217MOL0     C29202  -2.174   0.357   7.048 -0.7977  0.2573  0.1561
  217MOL0     C29203  -2.331   0.330   7.062  0.4724  0.6879 -0.4395
  217MOL0     C29204  -2.375   0.193   7.005  1.0087 -0.6046 -0.0644
  217MOL0    Cl29205  -2.290   0.077   7.094 -0.2671 -0.0775  0.1609
  217MOL0     C29206  -1.486   0.701   7.199 -0.0407  0.3979 -0.2317
  217MOL0     C29207  -1.353   0.671   7.202 -1.4849  0.3788 -0.8245
  217MOL0     O29208  -1.122   0.508   7.291  0.4738 -0.2826 -0.2903
  217MOL0     C29209  -0.837   0.578   7.385  1.4528  0.5297  0.1271
  217MOL0     C29210  -0.702   0.591   7.382 -0.7419 -0.8329  0.4809
  217MOL0     N29211  -0.000   0.830   7.020 -0.4304  0.3166 -0.1099
  217MOL0     N29212   0.068   0.837   6.910  0.4174 -0.5600  0.0204
  217MOL0     C29213   1.095   1.361   7.144 -0.0123  0.3311  0.7153
  217MOL0     C29214   1.226   1.400   7.136 -0.5569 -0.2185  0.0233
  217MOL0     C29215   1.652   1.471   7.074  0.1203  0.6585 -0.2680
  217MOL0     C29216   1.747   1.573   7.111  0.1953  0.2433  0.1377
  217MOL0     C29217   1.886   1.548   7.091  0.8720  0.2476  0.0453
  217MOL0     C29218   1.929   1.432   7.036 -0.5965  0.2768  0.4665
  217MOL0     O29219   2.061   1.430   7.005  0.0939  0.2647  1.1651
  217MOL0     C29220   2.081   1.479   6.870  0.3517  0.1260  0.7113
  217MOL0     C29221   2.235   1.465   6.839 -0.3973 -0.3717  0.2718
  217MOL0     C29222   2.295   1.320   6.846 -0.1912  1.2112  0.2073
  217MOL0     C29223   2.448   1.313   6.834 -0.5359 -0.1926  0.3447
  217MOL0     C29224   2.489   1.289   6.692  0.3281 -0.4581 -0.3033
  217MOL0     C29225   2.508   1.268   6.572  0.5761 -0.3886 -0.0988
  217MOL0     C29226   1.832   1.324   7.012 -0.4151 -0.4983 -0.4667
  217MOL0     C29227   1.697   1.341   7.038 -0.1591 -0.2321  0.5410
  217MOL0     H29228   1.282   1.307   6.812  1.4025 -1.2321  1.4633
  217MOL0     H29229   1.057   1.250   6.825  1.0916  0.8681 -1.1811
  217MOL0     H29230   0.860   1.157   6.869 -0.8433 -1.0708 -0.6534
  217MOL0     H29231   0.924   1.052   6.993 -1.4275 -1.0263 -1.2214
  217MOL0     H29232   0.741   1.081   7.141 -0.6914  1.5308  0.4609
  217MOL0     H29233   0.660   1.192   7.027 -2.9629 -1.8567  0.2443
  217MOL0     H29234   0.691   0.966   6.859  1.2090  0.6158  0.3537
  217MOL0     H29235   0.714   0.898   7.019  2.5708  0.8263 -2.1758
  217MOL0     H29236   0.493   1.045   7.071  0.7773  1.7264  0.0723
  217MOL0     H29237   0.472   1.063   6.897 -1.1934  0.0175  0.7769
  217MOL0     H29238   0.463   0.794   7.039  0.4051 -0.7916 -1.9001
  217MOL0     H29239   0.330   0.888   6.987 -0.4047  1.4115  0.7310
  217MOL0     H29240   0.422   0.862   6.734 -0.9705 -2.5428 -0.7779
  217MOL0     H29241   0.553   0.779   6.816 -0.3458 -2.6679  2.0227
  217MOL0     H29242   0.402   0.638   6.709 -0.1566 -1.1333 -0.3027
  217MOL0     H29243   0.376   0.601   6.879 -0.6843 -0.3057 -0.9840
  217MOL0     H29244   0.177   0.617   6.716  1.4256 -2.5237  2.3034
  217MOL0     H29245   0.210   0.792   6.708 -2.4593 -2.1884 -2.3388
  217MOL0     H29246   0.138   0.531   7.010  2.0327  1.1007  0.2411
  217MOL0     H29247   0.040   0.576   7.243  0.3400  0.2765 -1.1425
  217MOL0     H29248  -0.036   0.732   7.275  2.3185  0.7113  0.1262
  217MOL0     H29249  -0.190   0.575   7.325 -1.9498  4.0214  0.8109
  217MOL0     H29250  -0.192   0.516   7.152 -0.7989 -2.0740  3.2120
  217MOL0     H29251  -0.237   0.762   7.095 -4.7201 -0.9876 -2.7476
  217MOL0     H29252  -0.272   0.790   7.272 -0.5782  1.4235 -1.0609
  217MOL0     H29253  -0.404   0.579   7.102  1.0332 -2.8515  3.5022
  217MOL0     H29254  -0.470   0.749   7.107 -0.4704 -0.8817  0.1582
  217MOL0     H29255  -0.657   0.685   7.069  1.7997 -0.5228  0.2756
  217MOL0     H29256  -1.008   0.655   7.016  0.3451  0.3330  2.6610
  217MOL0     H29257  -0.929   0.815   7.037 -1.2900 -0.5956  1.8204
  217MOL0     H29258  -0.854   0.676   6.937  1.2589  0.2510  0.4993
  217MOL0     H29259  -1.243   0.940   7.386  1.2031 -2.6600  1.7899
  217MOL0     H29260  -1.488   0.988   7.362  2.6305  1.0473  1.9193
  217MOL0     H29261  -1.752   0.656   7.321 -1.9805 -1.3162 -0.4242
  217MOL0     H29262  -1.855   0.798   7.334 -2.4347  1.5412 -3.6047
  217MOL0     H29263  -1.810   0.841   7.093 -2.9357  0.2288  1.1037
  217MOL0     H29264  -1.749   0.665   7.074  1.3946  0.8428  0.4321
  217MOL0     H29265  -2.007   0.720   7.011  0.9990  0.3231 -0.5682
  217MOL0     H29266  -2.012   0.736   7.184 -1.9555  1.2299 -2.0329
  217MOL0     H29267  -1.923   0.482   7.032  1.8458 -0.2325  0.9581
  217MOL0     H29268  -1.951   0.483   7.203  0.3956 -1.7112 -1.5303
  217MOL0     H29269  -2.183   0.569   7.050  0.8889  1.5436  1.6852
  217MOL0     H29270  -2.175   0.503   7.213  1.3769  1.2492 -0.0019
  217MOL0     H29271  -2.145   0.357   6.942 -0.0737  0.6114  0.3470
  217MOL0     H29272  -2.114   0.278   7.095  0.3548 -1.0321 -3.1872
  217MOL0     H29273  -2.377   0.420   7.018 -0.9006  0.5298  0.6170
  217MOL0     H29274  -2.351   0.335   7.170 -0.2815 -2.0458 -0.3924
  217MOL0     H29275  -2.363   0.174   6.898  1.1248 -2.3756  0.2217
  217MOL0     H29276  -2.484   0.190   7.014  1.0409 -1.4503  0.1642
  217MOL0     H29277  -1.553   0.632   7.148  0.0306 -1.6278  2.1860
  217MOL0     H29278  -1.312   0.580   7.159 -1.0762  0.0812  0.1511
  217MOL0     H29279  -0.877   0.535   7.476 -0.0850 -0.9694 -1.1857
  217MOL0     H29280  -0.648   0.554   7.468  0.8475 -0.9070 -0.5222
  217MOL0     H29281   1.039   1.379   7.235  0.8223  2.1112  0.9260
  217MOL0     H29282   1.273   1.439   7.225  1.2919 -2.2693  0.0092
  217MOL0     H29283   1.711   1.662   7.161  1.5243  2.0123 -1.8801
  217MOL0     H29284   1.959   1.625   7.111  0.9463 -0.1612  1.4238
  217MOL0     H29285   2.016   1.422   6.802 -1.9224  1.0508  1.9962
  217MOL0     H29286   2.056   1.585   6.868 -1.8266 -0.3037  1.5558
  217MOL0     H29287   2.290   1.531   6.907 -1.3112  0.8841 -0.1519
  217MOL0     H29288   2.251   1.494   6.735 -1.0935  0.2421  0.3225
  217MOL0     H29289   2.249   1.273   6.759  0.8160  1.4687 -0.4812
  217MOL0     H29290   2.251   1.274   6.935 -1.6458  0.5014 -0.8407
  217MOL0     H29291   2.489   1.237   6.901  1.6867  1.2011  0.6744
  217MOL0     H29292   2.496   1.406   6.864 -0.4160 -0.5283  1.2400
  217MOL0     H29293   2.525   1.249   6.468 -1.6169  0.7794 -0.7317
  217MOL0     H29294   1.872   1.232   6.971  0.2017 -0.5600  0.2521
  217MOL0     H29295   1.620   1.266   7.022  0.4937 -1.3509  2.2902
  218MOL0     O29296   4.731   6.101  10.498 -0.4120 -0.3933 -0.1248
  218MOL0     C29297   4.805   6.083  10.599 -0.9919 -0.6592 -0.4309
  218MOL0     O29298   4.774   6.016  10.707  0.3206 -0.2338 -0.7467
  218MOL0     C29299   4.655   5.947  10.705  0.1178  0.3876  0.8073
  218MOL0     C29300   4.544   5.992  10.770 -0.1545  0.4860 -0.7453
  218MOL0     C29301   4.441   5.916  10.788 -0.0888  0.4997  0.2661
  218MOL0     C29302   4.435   5.789  10.727 -1.0026 -0.6947  0.7181
  218MOL0     O29303   4.320   5.712  10.713 -0.1684 -0.0654 -0.0691
  218MOL0     C29304   4.197   5.758  10.776 -0.4453 -0.3603  0.7102
  218MOL0     C29305   4.084   5.706  10.687  0.3219 -0.0887  0.3906
  218MOL0     C29306   4.085   5.555  10.673 -0.1305 -0.1452 -0.0159
  218MOL0     C29307   3.942   5.490  10.664 -0.0297  0.0696 -0.2375
  218MOL0     C29308   3.866   5.540  10.536  0.3235 -0.5698 -1.3075
  218MOL0     C29309   3.723   5.485  10.516 -0.8385  0.2048 -0.3219
  218MOL0     C29310   3.617   5.556  10.602  0.5583  0.1251  0.4560
  218MOL0     C29311   3.488   5.481  10.587  1.0887  1.4865  0.0710
  218MOL0     N29312   3.380   5.545  10.650 -0.0415 -0.1991  0.5117
  218MOL0     C29313   3.260   5.546  10.595 -0.2687 -0.2828 -0.3870
  218MOL0     C29314   3.178   5.582  10.690  0.5706 -1.1350  0.8196
  218MOL0     C29315   3.028   5.577  10.671  0.5443 -0.3668 -0.2888
  218MOL0     C29316   2.988   5.462  10.750  0.5634  0.2504  0.2744
  218MOL0     C29317   2.845   5.406  10.728  0.2549 -0.5675 -0.0295
  218MOL0     C29318   2.766   5.451  10.613 -0.4447 -0.0299  0.9797
  218MOL0     O29319   2.738   5.598  10.638  0.2217  0.2140  0.4344
  218MOL0     C29320   2.626   5.646  10.708  0.1100  0.0744 -0.6462
  218MOL0     C29321   2.601   5.777  10.707 -0.3525 -0.6402 -0.7915
  218MOL0     C29322   2.484   5.828  10.761 -0.2745 -0.3903  0.0141
  218MOL0     C29323   2.462   5.975  10.728 -0.1503 -0.1867  0.2856
  218MOL0     C29324   2.392   5.746  10.831  0.2063  0.2788  1.5886
  218MOL0     C29325   2.272   5.791  10.901 -1.0766 -0.6144 -0.1751
  218MOL0     O29326   2.259   5.922  10.929  0.2351  0.1740  0.4067
  218MOL0     C29327   2.179   5.960  11.033 -0.7300 -0.7058 -0.6220
  218MOL0     C29328   2.203   5.921  11.166  0.3018  0.2984  0.0369
  218MOL0     C29329   2.100   5.942  11.265 -0.7016  0.7037  0.6754
  218MOL0     C29330   1.983   6.013  11.235  0.9571 -0.6008  0.0370
  218MOL0     O29331   1.906   6.037  11.345 -0.9125 -0.5354  0.2189
  218MOL0     C29332   1.774   6.096  11.326  0.3103 -0.2951  0.4850
  218MOL0     C29333   1.696   6.061  11.452  0.5157 -0.3081  1.6277
  218MOL0     C29334   1.550   6.117  11.434 -1.5818  0.0826  0.2810
  218MOL0     C29335   1.474   6.083  11.560  0.6546  0.1771 -0.5552
  218MOL0     C29336   1.325   6.083  11.543  0.9030 -0.0621  0.5044
  218MOL0     C29337   1.258   6.224  11.516  0.8466 -0.2488  0.1573
  218MOL0     C29338   1.097   6.212  11.535  0.8187 -0.0367  1.0090
  218MOL0     C29339   1.043   6.153  11.665  0.2448 -0.2658  0.5530
  218MOL0    Cl29340   0.864   6.172  11.685  0.2729 -0.0166  0.0974
  218MOL0     C29341   1.961   6.049  11.101  0.1559  0.1733  0.5824
  218MOL0     C29342   2.054   6.024  11.002  0.2105 -0.4864 -0.2938
  218MOL0     O29343   2.185   5.705  10.922 -0.5078 -0.4548  0.9329
  218MOL0     C29344   2.411   5.607  10.817  0.0123  0.4121  0.7194
  218MOL0     C29345   2.532   5.561  10.766  0.3303 -0.5356 -0.7771
  218MOL0     N29346   3.247   5.615  10.808  0.0699 -0.8103  0.2787
  218MOL0     N29347   3.371   5.602  10.774  0.5320  0.4918 -0.3567
  218MOL0     C29348   4.540   5.735  10.663  0.0313 -0.9718  0.2395
  218MOL0     C29349   4.652   5.817  10.650  0.3445 -0.0138  0.7812
  218MOL0     C29350   4.936   6.157  10.599  0.3530 -0.0530  0.0689
  218MOL0     C29351   4.975   6.241  10.493 -0.0567 -0.0077 -0.8059
  218MOL0     C29352   5.102   6.304  10.499 -0.0934  0.7110  0.3978
  218MOL0     C29353   5.195   6.268  10.594 -0.4252 -0.3482  0.2924
  218MOL0     O29354   5.322   6.325  10.583  0.0345 -0.2430 -0.0354
  218MOL0     C29355   5.422   6.281  10.677 -0.8318 -0.2360 -0.1840
  218MOL0     C29356   5.556   6.349  10.637  0.5870  0.0858 -0.2526
  218MOL0     C29357   5.621   6.277  10.520  1.0248 -0.2144  0.0300
  218MOL0     C29358   5.757   6.342  10.483 -0.1927  0.6004  0.0078
  218MOL0     C29359   5.858   6.309  10.589 -0.2685 -0.0222 -0.2346
  218MOL0     C29360   5.941   6.288  10.675  0.4928 -0.6095 -0.4120
  218MOL0     C29361   5.158   6.187  10.698  0.5086  0.6394 -0.5076
  218MOL0     C29362   5.029   6.129  10.696 -0.7228  0.0739 -0.3685
  218MOL0     H29363   4.552   6.094  10.806  1.2807 -0.0644  0.6084
  218MOL0     H29364   4.349   5.945  10.837 -0.9405 -2.1103  0.3345
  218MOL0     H29365   4.187   5.713  10.876  0.3659 -0.6247  0.6851
  218MOL0     H29366   4.189   5.867  10.778  3.7971  0.3176 -3.4561
  218MOL0     H29367   3.990   5.738  10.733  0.3425 -2.1348  2.0045
  218MOL0     H29368   4.108   5.753  10.591  1.8246  1.0296  1.2648
  218MOL0     H29369   4.147   5.541  10.584  1.9683  1.4908  1.1047
  218MOL0     H29370   4.142   5.511  10.755  1.0550 -1.5849 -1.5316
  218MOL0     H29371   3.942   5.381  10.661 -2.3800  0.0262 -0.6028
  218MOL0     H29372   3.874   5.519  10.745 -1.8330 -0.1862 -1.6034
  218MOL0     H29373   3.869   5.649  10.540  1.2564 -0.6231  1.6270
  218MOL0     H29374   3.930   5.511  10.453  2.6013 -2.4054  0.9354
  218MOL0     H29375   3.693   5.508  10.413 -1.5501  0.9331  0.0349
  218MOL0     H29376   3.705   5.378  10.531 -2.2445  0.0022 -2.8632
  218MOL0     H29377   3.643   5.544  10.707  0.4585  2.5517  0.8054
  218MOL0     H29378   3.598   5.658  10.570  1.3281 -0.1730 -1.0635
  218MOL0     H29379   3.495   5.380  10.629  0.5632  1.0069 -0.9720
  218MOL0     H29380   3.468   5.459  10.482  0.6573 -0.3549  0.5098
  218MOL0     H29381   3.223   5.516  10.497  0.4525 -3.6673  0.2816
  218MOL0     H29382   2.976   5.665  10.710  0.7438 -0.7480  0.8749
  218MOL0     H29383   3.016   5.564  10.563  1.6320  1.5789 -0.6933
  218MOL0     H29384   2.991   5.492  10.856 -0.8548  0.2549  0.3262
  218MOL0     H29385   3.059   5.380  10.737 -0.8651 -1.4576  2.5311
  218MOL0     H29386   2.790   5.438  10.818  0.6023  1.0353 -0.3485
  218MOL0     H29387   2.848   5.297  10.732  0.4351 -0.6606 -1.8358
  218MOL0     H29388   2.677   5.390  10.594  2.5195 -4.4575 -0.2197
  218MOL0     H29389   2.817   5.452  10.516 -1.7782  1.7726  0.2490
  218MOL0     H29390   2.676   5.844  10.666  0.3714 -1.4103 -0.7611
  218MOL0     H29391   2.444   6.043  10.812  1.5047  0.3123  0.2828
  218MOL0     H29392   2.544   6.018  10.670 -2.8603  5.1926 -0.1295
  218MOL0     H29393   2.369   5.980  10.670  0.0157 -0.1888  0.0199
  218MOL0     H29394   2.286   5.858  11.194  0.5115  0.7193  0.3785
  218MOL0     H29395   2.113   5.909  11.368  0.2031  1.4664  0.8237
  218MOL0     H29396   1.779   6.205  11.330  1.7711 -0.3773  1.9459
  218MOL0     H29397   1.731   6.051  11.236  2.6171  0.7029 -1.1774
  218MOL0     H29398   1.699   5.953  11.472  2.1964 -0.8281 -0.9871
  218MOL0     H29399   1.747   6.116  11.531 -1.8649  2.2832  1.5353
  218MOL0     H29400   1.515   6.067  11.343 -0.9871  0.1455  0.0149
  218MOL0     H29401   1.555   6.224  11.417  2.5732  0.4630  2.5979
  218MOL0     H29402   1.492   5.977  11.581 -0.4109  0.2037  0.6083
  218MOL0     H29403   1.507   6.152  11.639  0.5111  0.2992 -0.6028
  218MOL0     H29404   1.276   6.044  11.632 -0.1599  0.1125  0.0076
  218MOL0     H29405   1.293   6.017  11.462 -2.0504  1.4528  0.3084
  218MOL0     H29406   1.304   6.299  11.581  2.3515 -2.1672  1.4292
  218MOL0     H29407   1.280   6.246  11.412  0.0055  1.0936  0.2412
  218MOL0     H29408   1.068   6.141  11.456  0.7586 -0.3957  1.3504
  218MOL0     H29409   1.060   6.314  11.523  0.7087 -0.0801  0.9718
  218MOL0     H29410   1.084   6.218  11.743 -3.4995  0.9414  1.7787
  218MOL0     H29411   1.062   6.046  11.673 -2.9359 -0.8425  2.5943
  218MOL0     H29412   1.881   6.112  11.065 -0.0090  1.6929  3.3522
  218MOL0     H29413   2.033   6.054  10.900  1.7660  0.1445 -0.4635
  218MOL0     H29414   2.340   5.537  10.859 -0.1301 -0.0367 -0.2421
  218MOL0     H29415   2.552   5.455  10.777  0.9788 -0.3518 -0.0265
  218MOL0     H29416   4.545   5.636  10.618  2.9457  0.0219 -1.8402
  218MOL0     H29417   4.744   5.789  10.599  0.2678 -1.4238  1.3585
  218MOL0     H29418   4.919   6.270  10.405  2.5618  0.8247 -2.3218
  218MOL0     H29419   5.127   6.375  10.420 -0.4668  0.8854  0.4301
  218MOL0     H29420   5.401   6.298  10.783 -1.0862  2.9640 -0.6447
  218MOL0     H29421   5.429   6.173  10.664  0.5304 -0.0544 -1.3053
  218MOL0     H29422   5.630   6.350  10.718  1.0220  0.1923 -0.6497
  218MOL0     H29423   5.534   6.453  10.611  0.9117 -0.1370 -1.4803
  218MOL0     H29424   5.549   6.279  10.437 -0.1384 -0.8789  0.9832
  218MOL0     H29425   5.635   6.171  10.542  1.1639 -0.8952 -2.9870
  218MOL0     H29426   5.745   6.449  10.464  1.3542  0.4872 -1.8832
  218MOL0     H29427   5.779   6.293  10.388 -0.8833  0.8205 -0.2720
  218MOL0     H29428   6.021   6.285  10.746  1.1339 -0.5298 -1.1211
  218MOL0     H29429   5.226   6.149  10.774  1.6634  2.7783 -0.4015
  218MOL0     H29430   5.010   6.058  10.776  2.3745 -0.5512 -0.0661
  219MOL0     O29431   3.716   1.291  10.942 -1.1720 -0.8241  0.2901
  219MOL0     C29432   3.728   1.394  10.997 -0.4969  0.0887 -0.0893
  219MOL0     O29433   3.624   1.473  11.050 -0.1052  0.2956 -0.4667
  219MOL0     C29434   3.489   1.421  11.058 -0.1168 -0.3558 -0.3187
  219MOL0     C29435   3.392   1.494  10.988 -0.4457 -0.4004 -0.6705
  219MOL0     C29436   3.258   1.463  11.003 -0.0352 -0.4423 -0.3224
  219MOL0     C29437   3.220   1.350  11.082  0.4092 -0.3009  0.5423
  219MOL0     O29438   3.082   1.336  11.066 -0.4878  0.3480  0.6659
  219MOL0     C29439   3.026   1.212  11.105  0.1293  0.5356  1.0964
  219MOL0     C29440   2.889   1.207  11.047 -0.1436 -0.1822 -0.5637
  219MOL0     C29441   2.784   1.113  11.121  0.0940  0.2697 -0.0239
  219MOL0     C29442   2.656   1.100  11.025 -0.1476  0.0823 -0.3328
  219MOL0     C29443   2.565   0.995  11.085  0.4282  0.2046 -0.0463
  219MOL0     C29444   2.618   0.850  11.110 -0.8880  0.0135  0.3632
  219MOL0     C29445   2.656   0.761  10.982  0.3488 -0.4733  0.4297
  219MOL0     C29446   2.680   0.617  11.012  0.0948  0.2276 -0.0703
  219MOL0     N29447   2.555   0.547  11.049  0.9626 -0.2863 -1.3666
  219MOL0     C29448   2.517   0.482  11.163 -0.3653  0.1175 -0.2678
  219MOL0     C29449   2.384   0.447  11.147  0.1298 -0.0809 -0.1989
  219MOL0     C29450   2.288   0.401  11.253 -0.8881 -1.1806 -0.1575
  219MOL0     C29451   2.182   0.317  11.191  0.3432  0.2337  0.0835
  219MOL0     C29452   2.076   0.276  11.304 -0.2993 -0.7030 -0.1691
  219MOL0     C29453   1.962   0.185  11.253 -0.0210  0.2660  0.5041
  219MOL0     O29454   1.993   0.065  11.187 -0.1521  0.2397  0.5607
  219MOL0     C29455   1.885  -0.013  11.149  0.0485  0.5063  0.7213
  219MOL0     C29456   1.923  -0.120  11.072 -0.0803  0.3469 -0.0764
  219MOL0     C29457   1.829  -0.201  11.001 -0.7604  0.0650  0.8540
  219MOL0     C29458   1.883  -0.315  10.918 -0.3226  0.2952  0.3950
  219MOL0     C29459   1.691  -0.179  11.030 -0.4851  1.4046  0.0959
  219MOL0     C29460   1.577  -0.253  10.968  0.1029 -1.3708 -0.1221
  219MOL0     O29461   1.591  -0.292  10.839  0.2103 -0.7945  0.7094
  219MOL0     C29462   1.479  -0.322  10.773  0.5646  0.1938  0.5444
  219MOL0     C29463   1.356  -0.248  10.764  0.0253  0.3466 -0.4725
  219MOL0     C29464   1.244  -0.294  10.693  1.0516 -0.9427 -0.5130
  219MOL0     C29465   1.251  -0.424  10.633  0.3811  0.4973 -0.0229
  219MOL0     O29466   1.148  -0.484  10.568 -0.1787 -0.1513  0.2343
  219MOL0     C29467   1.024  -0.419  10.560  1.1812 -0.1021  1.0670
  219MOL0     C29468   0.936  -0.516  10.486 -1.2713 -0.4755  0.5425
  219MOL0     C29469   0.797  -0.459  10.492  0.2636 -0.0574 -0.7264
  219MOL0     C29470   0.716  -0.545  10.394  1.1265 -0.3562 -0.0808
  219MOL0     C29471   0.569  -0.516  10.419 -0.4441 -1.4567  0.3623
  219MOL0     C29472   0.485  -0.574  10.306  0.5130 -0.0943  0.9874
  219MOL0     C29473   0.338  -0.562  10.326  0.5600  0.2888 -0.2546
  219MOL0     C29474   0.287  -0.416  10.335 -0.2831  0.0312  0.3388
  219MOL0    Cl29475   0.321  -0.340  10.174  0.2604 -0.4733 -0.0874
  219MOL0     C29476   1.372  -0.491  10.639 -0.0397  0.7850 -0.2223
  219MOL0     C29477   1.477  -0.449  10.716  0.0817 -0.4952  0.3813
  219MOL0     O29478   1.478  -0.271  11.042  1.0052  0.4207  0.0186
  219MOL0     C29479   1.658  -0.066  11.099  0.3805 -0.0224 -0.1373
  219MOL0     C29480   1.752   0.014  11.164  0.1157 -0.3145 -0.1615
  219MOL0     N29481   2.349   0.484  11.020  0.3671  0.4309 -0.8408
  219MOL0     N29482   2.446   0.541  10.965 -0.9369  0.2276 -0.0572
  219MOL0     C29483   3.313   1.275  11.152  0.3641 -0.1069 -0.0277
  219MOL0     C29484   3.452   1.310  11.135 -0.1260  0.1951  0.2230
  219MOL0     C29485   3.866   1.441  11.016 -0.4757  0.7972  0.3624
  219MOL0     C29486   3.876   1.553  11.099  0.7578 -0.5216  0.2057
  219MOL0     C29487   4.002   1.612  11.124  0.0883  0.1369 -0.1508
  219MOL0     C29488   4.114   1.571  11.058 -0.0634  0.7473 -0.2771
  219MOL0     O29489   4.224   1.652  11.080 -0.0646  0.3896  0.1751
  219MOL0     C29490   4.341   1.648  11.001  0.7057 -1.3410  0.1821
  219MOL0     C29491   4.305   1.725  10.866 -0.4999  0.1569 -0.0340
  219MOL0     C29492   4.255   1.869  10.900 -0.7632  0.5160  0.6257
  219MOL0     C29493   4.259   1.947  10.764 -0.8615  0.3132 -0.2789
  219MOL0     C29494   4.167   2.060  10.763  0.6574  0.8046  0.4743
  219MOL0     C29495   4.105   2.154  10.762 -0.3485 -0.1387  0.5292
  219MOL0     C29496   4.103   1.463  10.967  1.3225 -0.2425  0.1658
  219MOL0     C29497   3.981   1.391  10.953 -0.1419 -0.4248 -0.2320
  219MOL0     H29498   3.425   1.568  10.916  1.5181 -0.5245  0.0530
  219MOL0     H29499   3.181   1.519  10.950  0.1125  1.3061  1.1702
  219MOL0     H29500   3.094   1.135  11.066  0.3705  1.3654 -0.1859
  219MOL0     H29501   3.025   1.201  11.214  3.1597 -0.3248  1.1189
  219MOL0     H29502   2.848   1.308  11.052 -0.6335 -0.4138  0.3822
  219MOL0     H29503   2.889   1.166  10.946 -2.5813 -3.8414  0.6941
  219MOL0     H29504   2.827   1.014  11.134 -2.5580 -0.7452  2.2329
  219MOL0     H29505   2.756   1.153  11.219 -0.6091  1.0960 -0.5465
  219MOL0     H29506   2.609   1.199  11.027 -0.8282 -0.2362  1.4689
  219MOL0     H29507   2.686   1.071  10.924  0.0010 -2.1378  0.2987
  219MOL0     H29508   2.513   1.027  11.175 -3.3935 -2.5666 -1.0324
  219MOL0     H29509   2.486   0.995  11.009  0.9917 -0.3008 -0.6494
  219MOL0     H29510   2.714   0.849  11.163  0.1331 -0.2012 -1.3953
  219MOL0     H29511   2.544   0.795  11.169 -0.6357 -1.2391 -0.4435
  219MOL0     H29512   2.595   0.784  10.894  1.4647  1.6212  0.1252
  219MOL0     H29513   2.753   0.793  10.941  0.0030 -0.7999 -0.6809
  219MOL0     H29514   2.750   0.614  11.097 -2.0375  0.3213  1.7836
  219MOL0     H29515   2.714   0.562  10.924  1.8721 -0.9806  1.2806
  219MOL0     H29516   2.585   0.471  11.247 -2.2060  1.4386  1.5027
  219MOL0     H29517   2.334   0.344  11.334  1.5193  2.3516  1.2411
  219MOL0     H29518   2.250   0.495  11.293  3.1395 -0.5909  2.8828
  219MOL0     H29519   2.207   0.235  11.124 -1.9406 -0.4728  0.0198
  219MOL0     H29520   2.115   0.372  11.124  1.6811  2.6539  0.5985
  219MOL0     H29521   2.033   0.369  11.342  1.8570 -0.0767  0.9065
  219MOL0     H29522   2.127   0.229  11.389 -0.8979  0.5010  0.8833
  219MOL0     H29523   1.897   0.242  11.185 -1.4572 -0.3880  1.2882
  219MOL0     H29524   1.902   0.166  11.343  0.5694  1.0602  1.0858
  219MOL0     H29525   2.030  -0.141  11.067 -0.5244 -2.2325 -0.1305
  219MOL0     H29526   1.945  -0.281  10.835  0.8827  1.9395  1.8943
  219MOL0     H29527   1.936  -0.380  10.989 -1.1614  3.6719  4.4614
  219MOL0     H29528   1.815  -0.382  10.865  1.8899 -1.1139 -0.8369
  219MOL0     H29529   1.351  -0.146  10.801 -2.3920 -0.0762  0.5252
  219MOL0     H29530   1.162  -0.223  10.686  1.8558  0.3268  1.8835
  219MOL0     H29531   0.983  -0.380  10.653 -1.3966  2.7165 -1.0566
  219MOL0     H29532   1.032  -0.327  10.502 -2.1869 -0.8250 -0.8253
  219MOL0     H29533   0.973  -0.533  10.385  1.0063 -0.1877  1.2640
  219MOL0     H29534   0.942  -0.611  10.540  0.5464 -0.6778  0.0533
  219MOL0     H29535   0.801  -0.362  10.442 -4.0080  0.2270 -0.8977
  219MOL0     H29536   0.746  -0.446  10.588 -0.1485 -1.4438 -0.7330
  219MOL0     H29537   0.751  -0.518  10.294  1.4785  0.6752  0.3047
  219MOL0     H29538   0.722  -0.653  10.410  0.9186 -0.2687  0.6160
  219MOL0     H29539   0.550  -0.408  10.425 -0.8705 -1.4189 -1.1193
  219MOL0     H29540   0.544  -0.555  10.518 -0.4688 -0.7774  0.6289
  219MOL0     H29541   0.506  -0.539  10.205  0.6438 -0.9218  0.7181
  219MOL0     H29542   0.503  -0.681  10.294 -2.3221 -0.6051  0.4028
  219MOL0     H29543   0.322  -0.620  10.417 -0.6053  1.6291  0.4450
  219MOL0     H29544   0.289  -0.611  10.241  1.9730  0.6507 -1.3248
  219MOL0     H29545   0.355  -0.369  10.407 -1.0536  0.3919  0.8449
  219MOL0     H29546   0.186  -0.424  10.375 -0.3572  0.9415  0.3662
  219MOL0     H29547   1.380  -0.589  10.592  0.7480  1.6388 -1.9816
  219MOL0     H29548   1.553  -0.520  10.745 -0.6619 -0.7175  1.8781
  219MOL0     H29549   1.552  -0.044  11.108  0.2099 -1.1734  0.9838
  219MOL0     H29550   1.717   0.098  11.224 -0.4579  0.1326 -1.0917
  219MOL0     H29551   3.274   1.201  11.222  1.3749 -0.4152  0.2303
  219MOL0     H29552   3.530   1.257  11.190  1.3494  1.4704 -0.5864
  219MOL0     H29553   3.794   1.603  11.150  0.6032 -1.3422  0.8017
  219MOL0     H29554   4.027   1.691  11.194 -0.5556  1.1223 -1.0010
  219MOL0     H29555   4.410   1.699  11.068 -2.8479  1.6374  1.9503
  219MOL0     H29556   4.371   1.545  10.984  0.9669 -1.2445  0.0515
  219MOL0     H29557   4.227   1.674  10.810 -0.2342 -0.0305 -0.2336
  219MOL0     H29558   4.398   1.730  10.808 -1.0847  0.0545 -0.9877
  219MOL0     H29559   4.328   1.910  10.971 -0.1538  0.3154  0.1193
  219MOL0     H29560   4.155   1.875  10.944 -1.9790 -4.4421 -0.7997
  219MOL0     H29561   4.228   1.874  10.688 -0.0094  1.2695 -1.5854
  219MOL0     H29562   4.363   1.972  10.742 -1.3915  0.9125 -2.2794
  219MOL0     H29563   4.054   2.247  10.746 -0.2526 -0.1413  0.2192
  219MOL0     H29564   4.186   1.439  10.901  0.2968 -0.0220 -1.2591
  219MOL0     H29565   3.975   1.318  10.873  0.0068 -0.2519 -0.4057
  220MOL0     O29566   6.067   5.352   8.555 -0.1355 -0.3415  0.1766
  220MOL0     C29567   6.002   5.249   8.578  0.1059 -0.2965 -0.3104
  220MOL0     O29568   6.027   5.123   8.529 -0.1781  0.3286  0.3320
  220MOL0     C29569   6.134   5.118   8.443  0.7350  0.5209 -0.2231
  220MOL0     C29570   6.127   5.146   8.304  0.1742  0.2763 -0.2642
  220MOL0     C29571   6.233   5.118   8.220  0.2238  0.1103  0.4230
  220MOL0     C29572   6.347   5.053   8.259 -0.1164 -0.0561  0.0264
  220MOL0     O29573   6.440   4.995   8.182 -0.0572  0.6582 -0.4465
  220MOL0     C29574   6.410   4.950   8.050  0.5725 -0.3572  0.4946
  220MOL0     C29575   6.524   4.890   7.962  0.9840  0.3804 -0.7442
  220MOL0     C29576   6.595   4.758   8.001 -0.6102 -0.1736  0.2530
  220MOL0     C29577   6.497   4.636   7.984 -0.1481  0.1791 -1.4998
  220MOL0     C29578   6.564   4.503   8.004  0.5473  0.7565  0.0403
  220MOL0     C29579   6.651   4.469   7.890  0.1251 -0.8738 -0.4076
  220MOL0     C29580   6.693   4.317   7.880 -0.3786  0.5164 -0.4104
  220MOL0     C29581   6.594   4.236   7.802  0.8241  0.9351 -0.3698
  220MOL0     N29582   6.623   4.090   7.808 -0.1988  0.5220 -0.0868
  220MOL0     C29583   6.725   4.028   7.886  0.0028  0.1517 -0.2662
  220MOL0     C29584   6.694   3.895   7.874  0.2962  0.2897 -0.1634
  220MOL0     C29585   6.775   3.777   7.930 -0.7972 -0.2728  0.9968
  220MOL0     C29586   6.791   3.770   8.087 -0.2249  1.3198 -0.3893
  220MOL0     C29587   6.648   3.774   8.147  0.0025  0.1003  0.2317
  220MOL0     C29588   6.659   3.751   8.300  0.1395 -0.6770 -0.1590
  220MOL0     O29589   6.636   3.626   8.339 -0.3943 -0.5053  0.3301
  220MOL0     C29590   6.495   3.598   8.363  0.3610 -0.2044  0.1975
  220MOL0     C29591   6.470   3.484   8.453 -0.8589 -0.0321 -0.4788
  220MOL0     C29592   6.336   3.446   8.481 -0.1043  0.3192 -0.3758
  220MOL0     C29593   6.316   3.315   8.560  0.0928  0.4330 -0.6076
  220MOL0     C29594   6.227   3.524   8.432 -0.8036  0.1002  0.0165
  220MOL0     C29595   6.077   3.491   8.448 -0.0013 -0.7922 -0.8770
  220MOL0     O29596   5.988   3.585   8.393 -0.0994  0.6722 -0.0107
  220MOL0     C29597   5.853   3.548   8.399 -0.4533 -0.0851 -1.2801
  220MOL0     C29598   5.780   3.505   8.288  0.3676 -0.0989  0.6554
  220MOL0     C29599   5.646   3.461   8.297 -0.0631  0.1255 -0.6797
  220MOL0     C29600   5.582   3.451   8.426 -0.1101  0.1506  0.6855
  220MOL0     O29601   5.460   3.402   8.441 -0.3963  0.0342 -0.1887
  220MOL0     C29602   5.438   3.271   8.396 -0.4930  0.6236  0.1025
  220MOL0     C29603   5.291   3.242   8.393 -0.9917  0.3449  0.1323
  220MOL0     C29604   5.267   3.093   8.381 -0.3474 -0.4615  0.2607
  220MOL0     C29605   5.114   3.051   8.369  0.1875 -0.3810 -0.2004
  220MOL0     C29606   5.098   2.902   8.382  0.1525 -0.2682 -0.0918
  220MOL0     C29607   5.139   2.834   8.255  0.2941 -0.1539 -0.2181
  220MOL0     C29608   5.080   2.687   8.258 -0.0956 -0.5209 -0.1058
  220MOL0     C29609   5.095   2.610   8.123  0.9595 -0.2278 -0.7467
  220MOL0    Cl29610   5.031   2.449   8.140  0.1322 -0.4359 -0.3366
  220MOL0     C29611   5.652   3.502   8.533 -1.2481 -0.2972  0.5766
  220MOL0     C29612   5.788   3.545   8.519 -0.0038 -0.4422  0.7473
  220MOL0     O29613   6.050   3.397   8.518 -0.4708 -0.4541  0.0040
  220MOL0     C29614   6.252   3.641   8.361 -0.6315 -0.5882  0.6851
  220MOL0     C29615   6.383   3.671   8.324  0.2519 -0.0329 -0.2449
  220MOL0     N29616   6.581   3.877   7.796  0.0419  0.5149  0.3920
  220MOL0     N29617   6.542   3.994   7.755 -0.0516  0.8258 -0.1931
  220MOL0     C29618   6.355   5.043   8.400 -0.4496 -0.6333  0.8545
  220MOL0     C29619   6.255   5.075   8.490  1.2613  0.9905  1.0746
  220MOL0     C29620   5.901   5.255   8.675  0.7900 -1.0833  0.4067
  220MOL0     C29621   5.793   5.171   8.682  0.7130 -0.6112 -0.4196
  220MOL0     C29622   5.685   5.194   8.775  0.1349  0.1782 -0.6056
  220MOL0     C29623   5.699   5.298   8.870  0.7441  0.4962  0.0227
  220MOL0     O29624   5.591   5.310   8.954  0.0783 -0.1445  0.5928
  220MOL0     C29625   5.590   5.395   9.071  0.2622  0.4228 -0.9912
  220MOL0     C29626   5.445   5.412   9.125 -0.2300  0.2150  0.4124
  220MOL0     C29627   5.423   5.478   9.267  0.1034  0.6056 -0.2571
  220MOL0     C29628   5.495   5.398   9.381 -0.0238 -0.3991 -0.0381
  220MOL0     C29629   5.484   5.250   9.360  0.6809 -1.3604 -0.9287
  220MOL0     C29630   5.481   5.123   9.358 -0.6534 -0.8208  0.1811
  220MOL0     C29631   5.811   5.378   8.872 -0.2544  0.1986 -0.3842
  220MOL0     C29632   5.909   5.360   8.771 -0.0698 -0.7183  0.3286
  220MOL0     H29633   6.036   5.197   8.276 -3.1517 -3.1578  3.1463
  220MOL0     H29634   6.223   5.154   8.118 -1.8084  3.5897  1.6519
  220MOL0     H29635   6.318   4.890   8.050  0.0013  0.4594 -1.1776
  220MOL0     H29636   6.394   5.046   8.000  1.3500 -0.5679 -0.1808
  220MOL0     H29637   6.497   4.887   7.856  3.4709 -0.1200 -1.4512
  220MOL0     H29638   6.599   4.970   7.951 -0.6372  1.6592 -3.7634
  220MOL0     H29639   6.683   4.744   7.937  0.7269 -2.7250  2.4918
  220MOL0     H29640   6.633   4.765   8.103  2.7559  2.2430 -0.9781
  220MOL0     H29641   6.411   4.662   8.047  0.1652 -0.8920 -0.5944
  220MOL0     H29642   6.458   4.639   7.882  2.8980 -0.2630 -2.7797
  220MOL0     H29643   6.631   4.513   8.090  0.5896 -0.1797  0.1231
  220MOL0     H29644   6.487   4.429   8.027 -1.4047  3.5826  3.5689
  220MOL0     H29645   6.602   4.494   7.795 -0.0118  0.3261 -0.0393
  220MOL0     H29646   6.741   4.528   7.904 -0.5567  0.5180 -1.6024
  220MOL0     H29647   6.787   4.322   7.825 -0.5872  0.7118 -0.7563
  220MOL0     H29648   6.705   4.280   7.982 -2.7062 -1.5287 -0.7862
  220MOL0     H29649   6.592   4.251   7.693 -0.3073 -3.7793 -1.2395
  220MOL0     H29650   6.493   4.247   7.842  0.6952  3.1065 -1.1676
  220MOL0     H29651   6.815   4.064   7.935 -0.5206 -0.3703  1.1051
  220MOL0     H29652   6.727   3.688   7.888  1.8622 -0.6905 -1.4225
  220MOL0     H29653   6.875   3.782   7.888 -1.5661 -0.8427 -0.9942
  220MOL0     H29654   6.848   3.855   8.125  0.4374  0.2747  1.0834
  220MOL0     H29655   6.843   3.679   8.120 -0.8939  1.8592  2.4849
  220MOL0     H29656   6.579   3.705   8.098 -1.8904  0.7371  1.8414
  220MOL0     H29657   6.621   3.878   8.126 -1.0507 -0.4282 -1.1192
  220MOL0     H29658   6.592   3.822   8.350 -1.0924 -1.1268 -1.1354
  220MOL0     H29659   6.761   3.770   8.336  0.0908  0.2266 -0.4486
  220MOL0     H29660   6.555   3.436   8.501 -0.9478 -1.4445 -1.6522
  220MOL0     H29661   6.238   3.252   8.515  1.5427 -0.3349 -2.1444
  220MOL0     H29662   6.410   3.262   8.578  1.7646  3.4690  0.1001
  220MOL0     H29663   6.274   3.347   8.656  1.3132 -1.8326  0.7903
  220MOL0     H29664   5.827   3.514   8.190 -0.4536  0.7595  0.3257
  220MOL0     H29665   5.594   3.444   8.204  1.9133  1.2982 -2.0947
  220MOL0     H29666   5.486   3.246   8.301  1.2784 -0.9974  1.3476
  220MOL0     H29667   5.489   3.201   8.462  0.7839  0.4831 -0.9957
  220MOL0     H29668   5.251   3.275   8.489  3.2050  0.1308  2.1874
  220MOL0     H29669   5.248   3.300   8.310  0.1098  0.4049 -0.4098
  220MOL0     H29670   5.317   3.043   8.465 -0.4136  0.7379  1.0424
  220MOL0     H29671   5.323   3.065   8.291  2.3188  3.0321  0.6029
  220MOL0     H29672   5.059   3.091   8.454  0.3596 -1.2103  0.3068
  220MOL0     H29673   5.077   3.074   8.268  1.6626 -1.3332 -1.0044
  220MOL0     H29674   4.995   2.884   8.415 -0.5572  2.4779 -0.5104
  220MOL0     H29675   5.164   2.874   8.464  2.5447  1.9649 -1.1200
  220MOL0     H29676   5.098   2.874   8.162  0.9281 -1.8493 -1.2816
  220MOL0     H29677   5.247   2.823   8.242  0.7280 -0.5663  3.0525
  220MOL0     H29678   4.976   2.702   8.288 -0.4920 -2.1744 -0.5213
  220MOL0     H29679   5.127   2.630   8.339  1.2391  1.3327  0.4759
  220MOL0     H29680   5.201   2.606   8.100  0.4420  0.0791 -3.4770
  220MOL0     H29681   5.037   2.652   8.041 -0.7879  3.1562  1.9601
  220MOL0     H29682   5.618   3.514   8.636 -3.6177  2.3850 -0.3917
  220MOL0     H29683   5.835   3.579   8.611  1.3433 -1.4223  0.4510
  220MOL0     H29684   6.168   3.705   8.335 -0.0594  0.4040  1.2148
  220MOL0     H29685   6.397   3.767   8.276  1.4002 -0.7488 -1.4191
  220MOL0     H29686   6.448   5.011   8.446  0.0747  3.0198  2.7569
  220MOL0     H29687   6.277   5.059   8.595  0.7009 -0.3298  1.0115
  220MOL0     H29688   5.787   5.086   8.615 -2.7396 -0.7180 -0.1642
  220MOL0     H29689   5.595   5.133   8.774  0.0873  0.2396 -1.8822
  220MOL0     H29690   5.643   5.350   9.155 -2.0288  1.8100  1.3474
  220MOL0     H29691   5.637   5.492   9.055  1.4260 -0.2798 -1.9587
  220MOL0     H29692   5.400   5.312   9.125 -0.2850  0.2405  0.4355
  220MOL0     H29693   5.386   5.463   9.049  0.1029  0.6893  0.4729
  220MOL0     H29694   5.316   5.483   9.289  0.5771  1.7186  2.1378
  220MOL0     H29695   5.467   5.578   9.265 -0.1980  0.7917 -3.6000
  220MOL0     H29696   5.445   5.413   9.477 -1.0774 -3.7514  0.0761
  220MOL0     H29697   5.599   5.425   9.399 -0.2007 -0.1309  0.5907
  220MOL0     H29698   5.479   5.016   9.367  2.8186 -1.0183  0.0627
  220MOL0     H29699   5.804   5.466   8.935 -2.7383 -2.6088  3.7552
  220MOL0     H29700   5.994   5.427   8.767 -1.1325  0.6428 -0.6041
  221MOL0     O29701   6.224  10.912   7.737  0.0745  0.4802  0.2158
  221MOL0     C29702   6.301  10.881   7.820 -0.2505 -0.2845 -0.8709
  221MOL0     O29703   6.293  10.925   7.951 -0.3061  0.4785  0.1551
  221MOL0     C29704   6.203  11.021   7.990  0.2622 -0.1711  0.3633
  221MOL0     C29705   6.177  11.147   7.932 -1.1731 -0.4444 -0.5850
  221MOL0     C29706   6.084  11.233   7.991 -0.2259 -0.2313 -1.0049
  221MOL0     C29707   6.005  11.194   8.100 -0.5030  0.1954 -0.5361
  221MOL0     O29708   5.908  11.282   8.138 -0.6490  0.0451 -0.4313
  221MOL0     C29709   5.797  11.233   8.211  0.0178  0.3747  0.1675
  221MOL0     C29710   5.703  11.346   8.248  0.0107  1.2596  0.3481
  221MOL0     C29711   5.564  11.278   8.296  0.4906 -1.1639  0.2167
  221MOL0     C29712   5.450  11.380   8.315 -0.1632  0.2367 -0.4698
  221MOL0     C29713   5.333  11.351   8.401  0.6010 -0.2346 -0.1841
  221MOL0     C29714   5.224  11.256   8.350 -0.2153  0.1758  1.0901
  221MOL0     C29715   5.096  11.288   8.421  0.0910  0.5409 -0.3113
  221MOL0     C29716   4.991  11.178   8.403 -0.0476  0.0866 -0.7122
  221MOL0     N29717   4.888  11.222   8.488  0.5120  0.3942  0.2220
  221MOL0     C29718   4.884  11.222   8.620  0.9211 -0.7173 -0.5491
  221MOL0     C29719   4.755  11.255   8.657 -0.2566 -0.3085 -0.0788
  221MOL0     C29720   4.688  11.270   8.791  1.1523  0.4790  0.4459
  221MOL0     C29721   4.720  11.401   8.851 -0.9025 -0.9722 -0.6543
  221MOL0     C29722   4.826  11.371   8.963 -0.1635  0.6057  0.0982
  221MOL0     C29723   4.868  11.489   9.054 -0.1045  0.1448  0.1298
  221MOL0     O29724   4.928  11.593   8.986  0.1572  0.5156  0.3217
  221MOL0     C29725   5.061  11.627   9.013  0.0449 -0.0798 -0.0795
  221MOL0     C29726   5.153  11.561   9.091  1.5006 -0.9544  0.2545
  221MOL0     C29727   5.293  11.596   9.103  1.1595  0.2323  0.0949
  221MOL0     C29728   5.384  11.494   9.161 -0.7930 -0.0514 -0.2711
  221MOL0     C29729   5.332  11.718   9.044  0.3092  0.6142 -0.5440
  221MOL0     C29730   5.472  11.770   9.037  0.0730  0.4104 -1.1734
  221MOL0     O29731   5.566  11.680   9.009 -0.6371  0.8368  0.2560
  221MOL0     C29732   5.697  11.707   9.002  0.2009 -0.0808 -0.2350
  221MOL0     C29733   5.759  11.835   9.014 -0.6119  0.5368 -0.6221
  221MOL0     C29734   5.895  11.852   9.019  0.1666 -0.0585 -0.2459
  221MOL0     C29735   5.981  11.748   9.003 -0.6400  0.0421  0.1012
  221MOL0     O29736   6.112  11.781   8.994 -0.3224 -0.7488 -0.2917
  221MOL0     C29737   6.202  11.675   8.964 -0.1132  0.7536 -0.2420
  221MOL0     C29738   6.345  11.701   9.004 -0.0843 -0.0737  0.5273
  221MOL0     C29739   6.441  11.599   8.939 -0.0702 -0.9644 -0.6356
  221MOL0     C29740   6.583  11.618   8.994  0.5379 -0.1438  0.4574
  221MOL0     C29741   6.662  11.500   8.942  0.7125 -0.4098  0.3162
  221MOL0     C29742   6.810  11.528   8.968 -0.0500  0.1325  0.0463
  221MOL0     C29743   6.903  11.431   8.883  0.9074 -0.1441 -0.5805
  221MOL0     C29744   7.049  11.474   8.883 -0.7128 -0.4553 -0.1972
  221MOL0    Cl29745   7.135  11.391   8.756 -0.6042  0.2288 -0.0452
  221MOL0     C29746   5.922  11.620   8.979  0.1915  0.1622  1.0803
  221MOL0     C29747   5.780  11.603   8.980 -1.3961  0.1269 -0.2668
  221MOL0     O29748   5.479  11.894   9.049 -0.4581 -0.1187 -0.4509
  221MOL0     C29749   5.236  11.793   8.975  1.1778 -0.5568  0.4516
  221MOL0     C29750   5.100  11.746   8.953  0.0210 -0.2167  0.7043
  221MOL0     N29751   4.688  11.278   8.544 -0.2759  0.2703 -0.4777
  221MOL0     N29752   4.762  11.248   8.439 -0.0314 -0.3736  0.2758
  221MOL0     C29753   6.032  11.070   8.160  0.1444  0.0075 -0.5285
  221MOL0     C29754   6.136  10.995   8.116  0.2771  0.0100  0.6273
  221MOL0     C29755   6.420  10.816   7.779 -0.6149  0.1772 -0.3631
  221MOL0     C29756   6.505  10.752   7.868  1.1187  0.1663 -0.1959
  221MOL0     C29757   6.627  10.693   7.824  0.7042 -0.3573 -0.5202
  221MOL0     C29758   6.664  10.689   7.690 -0.2223  0.0586 -0.8774
  221MOL0     O29759   6.782  10.633   7.639 -0.2071 -0.2273 -0.2212
  221MOL0     C29760   6.905  10.632   7.715  0.5997 -0.0966  0.7764
  221MOL0     C29761   6.966  10.773   7.711 -0.1469  0.7579 -0.1876
  221MOL0     C29762   7.091  10.779   7.798  0.2800 -0.1990 -0.3895
  221MOL0     C29763   7.214  10.751   7.718 -0.0877 -0.0813 -0.2528
  221MOL0     C29764   7.345  10.754   7.794  0.2194  0.0259  0.2892
  221MOL0     C29765   7.458  10.753   7.837  0.0067  0.3521  0.7427
  221MOL0     C29766   6.580  10.747   7.603 -0.6076 -0.5228  0.7784
  221MOL0     C29767   6.460  10.808   7.643 -0.6648 -0.1450 -0.0545
  221MOL0     H29768   6.245  11.171   7.851 -2.1236  0.8589 -1.0158
  221MOL0     H29769   6.062  11.330   7.947  0.4140  1.1440  1.5051
  221MOL0     H29770   5.746  11.168   8.140  2.4437 -0.3109 -1.0588
  221MOL0     H29771   5.811  11.173   8.301 -3.2546  0.9741  1.2226
  221MOL0     H29772   5.754  11.399   8.329 -2.3259  1.7215  1.5997
  221MOL0     H29773   5.702  11.412   8.161 -1.9989 -0.7121 -1.2285
  221MOL0     H29774   5.525  11.209   8.221 -2.8768  0.3653  0.3638
  221MOL0     H29775   5.590  11.225   8.388 -1.4874 -0.2728  1.3655
  221MOL0     H29776   5.498  11.470   8.356  1.2152  0.3413 -2.2091
  221MOL0     H29777   5.420  11.407   8.214  0.9262  4.2180  0.0974
  221MOL0     H29778   5.357  11.324   8.504  0.4835  2.4765  0.6254
  221MOL0     H29779   5.285  11.448   8.413 -1.6171 -0.7980 -3.1355
  221MOL0     H29780   5.214  11.275   8.243  4.9343 -0.3905  0.2372
  221MOL0     H29781   5.245  11.149   8.357 -1.5753 -0.3022 -1.1730
  221MOL0     H29782   5.119  11.307   8.526  2.0589  0.7568 -0.7401
  221MOL0     H29783   5.053  11.382   8.386  1.7942  1.1775 -0.7987
  221MOL0     H29784   5.036  11.083   8.432 -1.5228 -0.0580  1.2598
  221MOL0     H29785   4.962  11.183   8.298 -2.1337  3.9243 -0.1493
  221MOL0     H29786   4.964  11.197   8.689  0.2289  1.5920  1.2103
  221MOL0     H29787   4.581  11.257   8.777  1.4520 -1.6771 -0.1558
  221MOL0     H29788   4.722  11.187   8.854  2.8760  1.1698  0.4870
  221MOL0     H29789   4.627  11.447   8.886  0.4461  2.2988 -0.9274
  221MOL0     H29790   4.756  11.464   8.769 -0.5969 -0.3460 -0.0495
  221MOL0     H29791   4.914  11.319   8.923  1.1547  1.2256  2.0688
  221MOL0     H29792   4.778  11.303   9.034  1.5920 -0.1297  0.6341
  221MOL0     H29793   4.925  11.451   9.138  0.5755 -1.1445 -0.8939
  221MOL0     H29794   4.776  11.531   9.098  1.3789  1.8778  1.7505
  221MOL0     H29795   5.125  11.465   9.135  0.4373 -0.0799  1.5782
  221MOL0     H29796   5.419  11.428   9.081 -0.8088 -0.9051  0.4132
  221MOL0     H29797   5.473  11.529   9.214  0.4682 -4.8033  1.2480
  221MOL0     H29798   5.333  11.429   9.233 -0.2878  0.2452  0.3660
  221MOL0     H29799   5.701  11.925   9.033  1.2076  1.3632  1.5394
  221MOL0     H29800   5.926  11.956   9.025  0.4499  0.0945 -3.1223
  221MOL0     H29801   6.170  11.583   9.015 -2.0819  0.8255 -1.2523
  221MOL0     H29802   6.190  11.661   8.856 -1.9307  1.7879 -0.2280
  221MOL0     H29803   6.364  11.802   8.965 -1.7946 -0.4434 -1.4712
  221MOL0     H29804   6.353  11.700   9.113  0.9172 -0.2203  0.4616
  221MOL0     H29805   6.428  11.593   8.831  0.3336 -0.7746 -0.6992
  221MOL0     H29806   6.410  11.501   8.977  1.7712 -1.6220 -0.7446
  221MOL0     H29807   6.630  11.715   8.972 -2.5484  1.6908  1.3701
  221MOL0     H29808   6.575  11.617   9.103  0.0611 -0.7835  0.4197
  221MOL0     H29809   6.642  11.505   8.835 -1.2886  0.3390  0.6901
  221MOL0     H29810   6.632  11.400   8.975  1.0199 -0.3786  0.7068
  221MOL0     H29811   6.825  11.628   8.926  3.0495  0.2558  1.1722
  221MOL0     H29812   6.839  11.537   9.073  0.6019  0.0925 -0.1235
  221MOL0     H29813   6.881  11.415   8.777  2.3340  1.5206 -1.1801
  221MOL0     H29814   6.888  11.326   8.910 -1.7856 -0.5328 -3.0473
  221MOL0     H29815   7.090  11.431   8.975 -2.1272  0.5000  0.9358
  221MOL0     H29816   7.061  11.581   8.868  0.4355 -0.5964 -0.3996
  221MOL0     H29817   5.990  11.544   8.941  0.3769  1.4387 -1.3611
  221MOL0     H29818   5.748  11.500   8.971 -0.7417 -0.1644  0.6659
  221MOL0     H29819   5.261  11.885   8.923  0.2705 -0.1942  0.6428
  221MOL0     H29820   5.022  11.800   8.900 -0.3139 -2.0021 -0.7124
  221MOL0     H29821   5.971  11.044   8.246 -0.8753  0.2153 -1.1630
  221MOL0     H29822   6.152  10.897   8.160 -1.8401 -0.5766  0.1853
  221MOL0     H29823   6.474  10.739   7.972  0.2599 -0.2090 -0.4911
  221MOL0     H29824   6.692  10.636   7.889  2.1756 -0.5644 -2.1072
  221MOL0     H29825   6.882  10.599   7.817  1.9688  0.5575  1.3076
  221MOL0     H29826   6.985  10.563   7.689 -2.0751 -3.2142  0.0855
  221MOL0     H29827   6.881  10.834   7.744 -0.7248  0.1338 -0.5137
  221MOL0     H29828   6.984  10.809   7.610 -0.9411 -1.2073 -1.0709
  221MOL0     H29829   7.095  10.702   7.876  0.6954 -0.7496 -0.9499
  221MOL0     H29830   7.098  10.878   7.844  1.8054 -1.7704  3.2134
  221MOL0     H29831   7.221  10.803   7.622 -0.8425 -0.5453 -0.5650
  221MOL0     H29832   7.193  10.647   7.693 -2.5439 -0.2603  2.0332
  221MOL0     H29833   7.561  10.769   7.863 -0.2172  0.4006  1.6313
  221MOL0     H29834   6.616  10.743   7.501 -2.3055 -0.0118  0.1222
  221MOL0     H29835   6.409  10.870   7.570  2.2218  2.5834  0.0583
  222MOL0     O29836   0.429   2.805  10.767  0.0399  0.1663  0.4821
  222MOL0     C29837   0.523   2.865  10.817  0.9205  0.2076  0.3417
  222MOL0     O29838   0.523   2.998  10.854 -0.1815  0.1544 -0.4001
  222MOL0     C29839   0.399   3.065  10.839 -0.2711 -0.1592 -0.6631
  222MOL0     C29840   0.309   3.043  10.947  0.2190  0.5158  0.0480
  222MOL0     C29841   0.181   3.103  10.937 -0.0150 -0.0939 -0.7656
  222MOL0     C29842   0.156   3.205  10.847  0.3814  0.5517  0.7929
  222MOL0     O29843   0.050   3.285  10.883  0.6679  0.0135  0.3073
  222MOL0     C29844  -0.018   3.334  10.764  0.2156 -0.0952 -0.0149
  222MOL0     C29845  -0.093   3.467  10.802  0.5938 -0.4537 -0.0440
  222MOL0     C29846   0.003   3.590  10.794  0.2509 -0.1991  0.7294
  222MOL0     C29847  -0.069   3.712  10.855 -1.0065 -0.1394 -0.4024
  222MOL0     C29848   0.006   3.838  10.838  0.3054 -0.1817 -0.0549
  222MOL0     C29849   0.153   3.841  10.903  0.1241 -0.2761 -0.2613
  222MOL0     C29850   0.216   3.983  10.912  0.3770  0.5822 -0.1755
  222MOL0     C29851   0.152   4.083  11.006  0.9420 -0.3880  0.2678
  222MOL0     N29852   0.164   4.040  11.147 -0.2656 -0.3613  0.1237
  222MOL0     C29853   0.056   3.996  11.210 -0.1280  0.3053 -0.3760
  222MOL0     C29854   0.091   4.012  11.338  0.8702 -1.0483  0.1550
  222MOL0     C29855  -0.003   3.981  11.451  0.3511  0.4716 -0.0900
  222MOL0     C29856  -0.019   4.091  11.552 -0.5956 -0.1922 -0.1772
  222MOL0     C29857  -0.099   4.055  11.685 -0.2820 -0.3356  0.5609
  222MOL0     C29858  -0.247   4.040  11.664 -0.9777  0.1186 -0.1804
  222MOL0     O29859  -0.298   4.172  11.653 -0.3863  0.0713 -0.3604
  222MOL0     C29860  -0.409   4.205  11.734 -0.2509  0.4074 -0.7059
  222MOL0     C29861  -0.405   4.321  11.816 -0.1810  0.0590  1.1798
  222MOL0     C29862  -0.515   4.362  11.897  0.8111  0.1985  0.8701
  222MOL0     C29863  -0.489   4.486  11.977 -0.5246  0.9639 -0.8880
  222MOL0     C29864  -0.631   4.285  11.910 -0.4904  0.2448 -0.0838
  222MOL0     C29865  -0.745   4.316  12.001 -0.0903  0.6702 -0.6427
  222MOL0     O29866  -0.843   4.217  12.020  0.2802 -0.5399 -0.0637
  222MOL0     C29867  -0.970   4.254  12.064  1.0980  0.6400 -0.1102
  222MOL0     C29868  -1.037   4.378  12.059 -0.4926  0.3572  0.4279
  222MOL0     C29869  -1.166   4.396  12.095  0.5530 -0.0483 -0.7010
  222MOL0     C29870  -1.231   4.285  12.150  0.8227 -0.0411 -0.9539
  222MOL0     O29871  -1.361   4.306  12.169 -0.1385  0.7789  0.1034
  222MOL0     C29872  -1.467   4.205  12.174 -0.2362  0.1638  0.0883
  222MOL0     C29873  -1.600   4.285  12.181  0.4763  0.7398  0.2842
  222MOL0     C29874  -1.734   4.198  12.175  0.0259 -0.4861  0.0743
  222MOL0     C29875  -1.851   4.274  12.232 -0.7759 -0.6433 -0.2639
  222MOL0     C29876  -1.975   4.187  12.256  0.0996  0.0266  0.3336
  222MOL0     C29877  -2.102   4.275  12.255 -0.2273 -0.8271 -0.2228
  222MOL0     C29878  -2.228   4.201  12.291  0.1267  1.3144 -0.5617
  222MOL0     C29879  -2.285   4.114  12.181  0.5733 -0.1049 -0.6124
  222MOL0    Cl29880  -2.437   4.031  12.245  0.0076 -0.2135  0.0240
  222MOL0     C29881  -1.178   4.161  12.166  0.1737 -0.6309 -0.7570
  222MOL0     C29882  -1.045   4.153  12.122 -0.2086  0.3665  0.3175
  222MOL0     O29883  -0.754   4.431  12.048  0.1956 -0.3092  0.3407
  222MOL0     C29884  -0.627   4.164  11.842  0.8564 -0.1008  0.3232
  222MOL0     C29885  -0.523   4.125  11.747  0.5827  0.2517  0.5468
  222MOL0     N29886   0.217   4.053  11.347 -0.7321  0.4893  0.6932
  222MOL0     N29887   0.269   4.066  11.226 -0.3829 -0.1288  0.0103
  222MOL0     C29888   0.253   3.235  10.743  0.3564  0.7515 -0.9372
  222MOL0     C29889   0.376   3.163  10.733 -0.3362  0.8760 -0.3291
  222MOL0     C29890   0.656   2.794  10.821 -0.4172 -0.3707 -0.7446
  222MOL0     C29891   0.665   2.666  10.776 -0.2515  0.4580  0.2209
  222MOL0     C29892   0.783   2.602  10.765  0.1516 -0.4113 -0.6229
  222MOL0     C29893   0.907   2.664  10.789 -0.6124  0.2763 -0.1722
  222MOL0     O29894   1.026   2.598  10.775 -0.6799 -0.3786 -0.2733
  222MOL0     C29895   1.157   2.668  10.773  0.3111  0.0765  0.5637
  222MOL0     C29896   1.251   2.608  10.671 -0.4515  0.2424 -0.1127
  222MOL0     C29897   1.395   2.657  10.699  0.4474 -0.3732 -0.0664
  222MOL0     C29898   1.490   2.590  10.608  0.2847  0.1694 -0.2879
  222MOL0     C29899   1.625   2.625  10.641 -0.8096 -0.2948 -0.1503
  222MOL0     C29900   1.738   2.664  10.663 -0.0071 -0.0840 -0.8735
  222MOL0     C29901   0.892   2.805  10.826  0.3586  0.4586  0.5541
  222MOL0     C29902   0.773   2.867  10.847 -0.0499 -0.9908 -0.2370
  222MOL0     H29903   0.327   2.987  11.038  0.8136  2.4030  1.1645
  222MOL0     H29904   0.115   3.107  11.023  1.1996 -0.2290  0.1908
  222MOL0     H29905   0.036   3.350  10.669  0.5615 -2.5328 -0.2857
  222MOL0     H29906  -0.095   3.263  10.732 -0.4826  0.9649 -0.7569
  222MOL0     H29907  -0.164   3.475  10.719  3.0902 -1.7178 -2.4857
  222MOL0     H29908  -0.142   3.460  10.899 -2.7016 -2.7113 -1.6976
  222MOL0     H29909   0.092   3.561  10.851  0.2890 -1.3979  0.1103
  222MOL0     H29910   0.030   3.611  10.690 -1.3384 -3.8695 -0.6030
  222MOL0     H29911  -0.164   3.739  10.808 -1.8094 -0.2081  1.1124
  222MOL0     H29912  -0.092   3.680  10.957 -3.2806 -2.1186 -1.4156
  222MOL0     H29913   0.018   3.850  10.730  0.6712 -0.1956 -0.0166
  222MOL0     H29914  -0.054   3.917  10.884  0.0278  0.9092 -2.1623
  222MOL0     H29915   0.159   3.797  11.004  1.9119  1.8780  0.6529
  222MOL0     H29916   0.224   3.779  10.847 -0.6563 -1.5413  0.0937
  222MOL0     H29917   0.324   3.975  10.928  0.2503 -1.2824  0.0478
  222MOL0     H29918   0.213   4.035  10.816 -1.8895 -2.6316 -2.0452
  222MOL0     H29919   0.049   4.088  10.972  1.9850 -1.0097 -3.3696
  222MOL0     H29920   0.205   4.179  11.009 -0.4867  0.5067 -1.4284
  222MOL0     H29921  -0.042   3.967  11.173 -0.3920 -1.1097  1.2842
  222MOL0     H29922  -0.100   3.971  11.402  0.1355  0.6063  0.3129
  222MOL0     H29923   0.032   3.887  11.494 -1.5276  0.4918  1.6232
  222MOL0     H29924  -0.077   4.169  11.502  1.6091  0.0208 -2.6321
  222MOL0     H29925   0.079   4.137  11.566 -0.0544 -0.2493 -3.2066
  222MOL0     H29926  -0.081   4.130  11.762 -4.5413 -0.3858  1.8488
  222MOL0     H29927  -0.059   3.966  11.734  1.1149  0.4770  0.9636
  222MOL0     H29928  -0.299   3.983  11.742 -1.5051 -0.2470 -0.7899
  222MOL0     H29929  -0.271   3.975  11.579 -0.0470 -3.4082  2.0616
  222MOL0     H29930  -0.315   4.381  11.810  0.2356 -0.6336 -0.1024
  222MOL0     H29931  -0.486   4.449  12.079 -0.8533 -0.5708 -1.4033
  222MOL0     H29932  -0.393   4.534  11.956 -0.0400  0.1919 -0.5028
  222MOL0     H29933  -0.575   4.550  11.957 -2.5747 -0.1416  3.2471
  222MOL0     H29934  -0.994   4.466  12.012 -1.4795  0.0525 -1.1007
  222MOL0     H29935  -1.220   4.490  12.084 -0.3277 -0.4122  0.2663
  222MOL0     H29936  -1.464   4.136  12.089 -1.4071 -0.2004  0.3136
  222MOL0     H29937  -1.454   4.140  12.261  3.5077  0.2805 -0.2183
  222MOL0     H29938  -1.602   4.353  12.267  0.0539 -1.1912  1.8694
  222MOL0     H29939  -1.610   4.358  12.101 -3.6838  0.7953  0.6516
  222MOL0     H29940  -1.716   4.119  12.248  4.2341 -1.3238 -1.5887
  222MOL0     H29941  -1.746   4.166  12.071  1.6533 -0.4635 -0.1560
  222MOL0     H29942  -1.818   4.306  12.331  3.1749 -0.8589 -1.3520
  222MOL0     H29943  -1.878   4.359  12.168 -3.8109 -0.8141  0.6374
  222MOL0     H29944  -1.956   4.124  12.344  2.4182 -0.7114 -0.6174
  222MOL0     H29945  -1.983   4.111  12.178 -1.5831  0.7685 -0.2482
  222MOL0     H29946  -2.094   4.355  12.329  0.3907 -0.5422 -0.5889
  222MOL0     H29947  -2.105   4.309  12.151  0.4714  0.4286  0.1599
  222MOL0     H29948  -2.315   4.257  12.323 -1.4942 -2.8214  3.3651
  222MOL0     H29949  -2.199   4.136  12.374  3.1303  2.0521 -0.8899
  222MOL0     H29950  -2.212   4.037  12.154  0.2669 -0.3084 -0.8726
  222MOL0     H29951  -2.302   4.183  12.098 -1.6254  1.9915  1.4435
  222MOL0     H29952  -1.226   4.075  12.211  0.9872 -0.1663  1.1081
  222MOL0     H29953  -1.007   4.054  12.144  0.2008  1.0428  2.9353
  222MOL0     H29954  -0.717   4.103  11.845  2.2349 -2.2851  0.2248
  222MOL0     H29955  -0.527   4.028  11.699 -1.0233 -0.0276  1.1669
  222MOL0     H29956   0.240   3.320  10.677 -3.3569 -0.3531 -1.9281
  222MOL0     H29957   0.456   3.166  10.661  0.1135  1.0832  0.1671
  222MOL0     H29958   0.572   2.616  10.753  0.2250 -1.5773  2.3265
  222MOL0     H29959   0.780   2.496  10.739 -1.1668 -0.6799  0.5261
  222MOL0     H29960   1.137   2.775  10.759 -0.5746 -0.0490  0.7739
  222MOL0     H29961   1.204   2.656  10.871  0.3119 -2.2534  0.3187
  222MOL0     H29962   1.220   2.638  10.570  1.7181 -0.4516 -1.0534
  222MOL0     H29963   1.251   2.500  10.689 -1.8177  0.3046  0.3746
  222MOL0     H29964   1.432   2.625  10.797  0.6965 -2.3981 -0.7922
  222MOL0     H29965   1.405   2.765  10.683  0.7093 -0.2829  0.6542
  222MOL0     H29966   1.478   2.623  10.505  2.3552 -1.4183 -1.1139
  222MOL0     H29967   1.478   2.481  10.600  0.8010  0.1184 -0.3970
  222MOL0     H29968   1.839   2.698  10.669 -0.9767  2.8954  0.2372
  222MOL0     H29969   0.979   2.867  10.846 -1.8366  3.5302  1.3265
  222MOL0     H29970   0.764   2.970  10.880 -4.0838 -1.3318  0.2595
  223MOL0     O29971   8.320   7.198   7.975 -0.5632 -0.6898 -0.3031
  223MOL0     C29972   8.299   7.316   7.995 -0.1411 -0.9407 -0.1493
  223MOL0     O29973   8.367   7.390   8.085  0.0065  0.1767  0.4062
  223MOL0     C29974   8.489   7.352   8.134  0.3142 -0.3880 -0.0464
  223MOL0     C29975   8.511   7.422   8.250  0.1669  0.6689 -0.8474
  223MOL0     C29976   8.640   7.418   8.304 -0.1766  0.5306 -1.3232
  223MOL0     C29977   8.740   7.328   8.255 -0.2886 -0.8776  0.6655
  223MOL0     O29978   8.865   7.319   8.313 -0.6144 -0.1629 -0.3170
  223MOL0     C29979   8.898   7.414   8.416 -0.5450  0.1060  0.1585
  223MOL0     C29980   9.040   7.391   8.481 -0.0246  0.9615  0.0374
  223MOL0     C29981   9.160   7.404   8.379  0.2316  0.4108  0.1892
  223MOL0     C29982   9.290   7.344   8.431 -0.5698  0.3783 -0.8121
  223MOL0     C29983   9.421   7.398   8.374 -0.0487 -0.5057 -0.0211
  223MOL0     C29984   9.543   7.399   8.474 -0.5426 -0.5895  0.3494
  223MOL0     C29985   9.664   7.450   8.395 -0.0988  0.3014  0.0507
  223MOL0     C29986   9.740   7.545   8.489  0.3938 -0.2297 -0.0492
  223MOL0     N29987   9.881   7.540   8.456 -0.2233  0.2770  0.0136
  223MOL0     C29988   9.948   7.627   8.371  0.0596 -0.7042  0.7275
  223MOL0     C29989  10.079   7.606   8.380  0.1838  0.3570 -0.4255
  223MOL0     C29990  10.181   7.690   8.309 -0.0950  0.0850 -0.0126
  223MOL0     C29991  10.302   7.599   8.254  0.5242 -0.8789  0.0082
  223MOL0     C29992  10.235   7.522   8.137 -0.0924  0.4520  0.5984
  223MOL0     C29993  10.302   7.382   8.120  0.4373 -0.2692  0.8047
  223MOL0     O29994  10.227   7.283   8.046 -0.6311 -0.0177 -0.1211
  223MOL0     C29995  10.116   7.219   8.091  0.5933 -0.6011  0.3031
  223MOL0     C29996  10.048   7.135   8.007 -0.3311 -0.1292 -0.4204
  223MOL0     C29997   9.927   7.066   8.035  0.1321 -0.1960  0.7477
  223MOL0     C29998   9.870   6.983   7.923 -0.0500  0.2582 -0.4637
  223MOL0     C29999   9.880   7.080   8.174  0.3999  0.2814 -0.8299
  223MOL0     C30000   9.766   7.006   8.225 -1.0181  0.1897  0.4119
  223MOL0     O30001   9.713   7.033   8.348  0.2258  0.3956 -0.3464
  223MOL0     C30002   9.616   6.955   8.404 -0.6886  0.9246  0.9326
  223MOL0     C30003   9.484   6.953   8.363 -0.5485 -0.0932 -0.3039
  223MOL0     C30004   9.386   6.891   8.439  0.4777  0.2624 -0.2533
  223MOL0     C30005   9.422   6.816   8.552 -0.2881 -0.0849  0.3457
  223MOL0     O30006   9.333   6.744   8.627 -0.4342 -0.3101  0.2803
  223MOL0     C30007   9.189   6.754   8.609 -1.0800 -0.4411  0.5258
  223MOL0     C30008   9.116   6.720   8.737 -0.8293  0.7459 -0.6079
  223MOL0     C30009   8.970   6.718   8.697 -0.1565  0.0860  0.2661
  223MOL0     C30010   8.885   6.701   8.821  1.0443 -0.1165 -0.2341
  223MOL0     C30011   8.742   6.763   8.817  0.5900  0.4250 -0.0438
  223MOL0     C30012   8.658   6.686   8.713 -0.0212 -0.0663 -0.8058
  223MOL0     C30013   8.509   6.740   8.716 -0.0552  0.7568 -0.4721
  223MOL0     C30014   8.426   6.670   8.596  0.0381  0.1765 -0.7141
  223MOL0    Cl30015   8.274   6.754   8.589 -0.3211 -0.2622 -0.0517
  223MOL0     C30016   9.559   6.806   8.583  0.9324  0.6636 -0.5713
  223MOL0     C30017   9.651   6.878   8.516 -0.3253 -0.1154 -0.0832
  223MOL0     O30018   9.732   6.911   8.159 -0.8180 -0.2953  0.3604
  223MOL0     C30019   9.947   7.176   8.260 -0.2640 -0.3415  0.3489
  223MOL0     C30020  10.052   7.253   8.216 -0.0055  0.1847  0.3011
  223MOL0     N30021  10.096   7.515   8.476  0.9062 -0.5102  0.1955
  223MOL0     N30022   9.978   7.478   8.521 -0.5689  0.3140 -0.4411
  223MOL0     C30023   8.710   7.251   8.142  0.7593 -0.2827  0.0010
  223MOL0     C30024   8.586   7.271   8.077 -0.6365  0.0021  0.5269
  223MOL0     C30025   8.178   7.377   7.933 -0.0391  0.6028  0.3206
  223MOL0     C30026   8.141   7.331   7.808 -0.1629  0.6125 -0.2249
  223MOL0     C30027   8.041   7.402   7.739 -0.7848 -0.5056  0.1171
  223MOL0     C30028   7.970   7.505   7.799 -1.2951 -0.4721 -0.2293
  223MOL0     O30029   7.871   7.578   7.740  0.8290  0.1591 -0.5724
  223MOL0     C30030   7.839   7.558   7.602 -0.5179  0.2554 -0.6018
  223MOL0     C30031   7.945   7.624   7.517 -1.1470  0.3084  0.2272
  223MOL0     C30032   7.913   7.606   7.373 -0.0962 -0.0515 -0.5932
  223MOL0     C30033   8.024   7.670   7.283  0.4425 -0.2687  0.5447
  223MOL0     C30034   7.995   7.815   7.262  1.0770  0.1283  0.3695
  223MOL0     C30035   7.952   7.924   7.248  0.0288 -0.1243  0.4807
  223MOL0     C30036   8.003   7.546   7.927 -0.7778  0.4427 -0.2439
  223MOL0     C30037   8.112   7.484   7.995  0.3255 -0.5501 -0.0663
  223MOL0     H30038   8.427   7.484   8.278 -1.7080 -1.8646 -0.4767
  223MOL0     H30039   8.656   7.477   8.393 -1.0752  0.0082 -0.8015
  223MOL0     H30040   8.896   7.515   8.374  0.7186  0.4957  0.9744
  223MOL0     H30041   8.825   7.406   8.497 -1.7891 -1.2296 -1.0310
  223MOL0     H30042   9.061   7.468   8.556  0.4555  0.2600  0.6438
  223MOL0     H30043   9.037   7.289   8.522  1.3193  0.7647 -0.3024
  223MOL0     H30044   9.140   7.361   8.281  1.7255  0.9222 -0.3540
  223MOL0     H30045   9.167   7.510   8.356 -1.8016 -0.0669 -3.3441
  223MOL0     H30046   9.298   7.341   8.540 -1.2086 -1.6188 -0.7760
  223MOL0     H30047   9.290   7.238   8.405 -0.4018  0.1016  0.2494
  223MOL0     H30048   9.437   7.345   8.280 -0.4422 -2.3574  0.9093
  223MOL0     H30049   9.404   7.503   8.349  2.4257 -0.3148 -1.2305
  223MOL0     H30050   9.521   7.459   8.563 -4.9587  0.1390 -0.9861
  223MOL0     H30051   9.558   7.297   8.511 -2.6086 -0.9066  0.4301
  223MOL0     H30052   9.720   7.366   8.351  0.9452  2.1834 -2.4874
  223MOL0     H30053   9.626   7.502   8.307 -0.7921  1.0417  0.7726
  223MOL0     H30054   9.736   7.512   8.593 -0.0870 -1.4480 -0.4348
  223MOL0     H30055   9.698   7.646   8.475 -1.5468 -0.8973  0.5647
  223MOL0     H30056   9.895   7.695   8.305  1.4789 -0.1005  0.1884
  223MOL0     H30057  10.131   7.745   8.229 -3.2569  2.1368  3.0678
  223MOL0     H30058  10.221   7.767   8.375 -3.0520  2.4915 -0.8327
  223MOL0     H30059  10.330   7.537   8.339 -3.0524 -1.5756  0.8516
  223MOL0     H30060  10.386   7.659   8.218 -0.4236  0.6577  0.2753
  223MOL0     H30061  10.243   7.579   8.044  0.2739 -0.1461  0.2565
  223MOL0     H30062  10.129   7.502   8.156 -0.3442 -0.7543 -1.7050
  223MOL0     H30063  10.333   7.345   8.218 -0.2781  0.7104  1.4104
  223MOL0     H30064  10.400   7.399   8.074  2.0887  3.1050  4.8916
  223MOL0     H30065  10.099   7.127   7.911  3.9546 -3.5612  1.7874
  223MOL0     H30066   9.900   6.882   7.950  1.3531  0.6709 -0.3968
  223MOL0     H30067   9.761   6.986   7.920 -0.5042 -3.6741  2.8751
  223MOL0     H30068   9.917   7.018   7.830  0.1363  1.3090  0.0101
  223MOL0     H30069   9.459   7.009   8.273  0.3034  1.0626  0.1510
  223MOL0     H30070   9.285   6.899   8.401  0.9369 -0.2342 -1.6434
  223MOL0     H30071   9.166   6.858   8.582  2.7956  0.6841  0.9508
  223MOL0     H30072   9.160   6.698   8.520  1.7523  1.2177 -1.5958
  223MOL0     H30073   9.165   6.634   8.784  0.5782  1.8020 -0.0730
  223MOL0     H30074   9.137   6.798   8.810 -1.8651  1.0690 -0.6501
  223MOL0     H30075   8.950   6.647   8.616 -1.8628  2.3287 -1.4029
  223MOL0     H30076   8.951   6.817   8.654 -1.8572 -0.8027 -1.1153
  223MOL0     H30077   8.875   6.593   8.839  0.7037  0.0121  0.3806
  223MOL0     H30078   8.939   6.751   8.901  1.7151  2.7048 -2.3113
  223MOL0     H30079   8.751   6.867   8.786 -1.2627  0.2499 -1.3540
  223MOL0     H30080   8.695   6.767   8.916 -0.0556  1.6595 -0.3891
  223MOL0     H30081   8.688   6.708   8.610  0.7235  1.3488 -0.3205
  223MOL0     H30082   8.658   6.579   8.733 -2.1689  0.3741  2.1372
  223MOL0     H30083   8.506   6.847   8.696 -0.3079  1.4390  2.6972
  223MOL0     H30084   8.457   6.720   8.810 -0.7932  0.9676 -0.8312
  223MOL0     H30085   8.406   6.565   8.623  1.1839 -0.0350 -0.6260
  223MOL0     H30086   8.484   6.674   8.504  1.8111  1.4114  0.4117
  223MOL0     H30087   9.594   6.744   8.664 -0.8895  0.4023  0.0731
  223MOL0     H30088   9.755   6.879   8.547 -1.0085  2.5883  2.6484
  223MOL0     H30089   9.916   7.198   8.361  4.5735 -0.2461  2.0946
  223MOL0     H30090  10.098   7.325   8.283  0.0036  1.4247 -0.9950
  223MOL0     H30091   8.790   7.193   8.095  2.0168  1.6527 -0.3398
  223MOL0     H30092   8.577   7.231   7.976  0.8207 -0.1904  0.4529
  223MOL0     H30093   8.193   7.249   7.759 -1.7489  1.0572 -2.8510
  223MOL0     H30094   8.014   7.371   7.639  0.1390  2.0311 -0.9995
  223MOL0     H30095   7.831   7.452   7.580  3.6718 -0.3324 -0.2566
  223MOL0     H30096   7.744   7.611   7.592 -2.8954 -3.3799  0.7650
  223MOL0     H30097   8.042   7.576   7.536 -2.3348 -2.5970 -0.5771
  223MOL0     H30098   7.967   7.727   7.547  2.9627 -0.1719 -0.5079
  223MOL0     H30099   7.821   7.653   7.338  1.3928  1.0710 -3.3595
  223MOL0     H30100   7.910   7.498   7.360  1.4145 -0.1798 -0.0876
  223MOL0     H30101   8.025   7.619   7.186  3.0109  4.3399 -2.2305
  223MOL0     H30102   8.124   7.664   7.326 -0.3181 -2.0851  2.1978
  223MOL0     H30103   7.915   8.022   7.222 -0.5221 -0.6688 -0.8965
  223MOL0     H30104   7.953   7.627   7.979  1.9799  2.7988 -1.0191
  223MOL0     H30105   8.139   7.511   8.096  0.0521 -0.5706  0.0142
  224MOL0     O30106   8.594   6.414   7.838  0.0334  0.1379  0.4856
  224MOL0     C30107   8.657   6.413   7.733 -0.7351 -0.2003  0.0961
  224MOL0     O30108   8.609   6.409   7.606  0.7782 -0.4980 -0.0844
  224MOL0     C30109   8.476   6.414   7.565 -0.4575  0.7322 -0.4813
  224MOL0     C30110   8.444   6.414   7.423 -0.1925  0.0873  0.0306
  224MOL0     C30111   8.319   6.422   7.372  1.4551  0.5577  0.0101
  224MOL0     C30112   8.207   6.427   7.466 -0.3001  0.2475  0.8218
  224MOL0     O30113   8.079   6.399   7.415  0.0006  0.2787  0.8295
  224MOL0     C30114   7.963   6.449   7.486 -0.4034  0.1551 -0.2840
  224MOL0     C30115   7.830   6.407   7.416  0.3995 -0.6210  1.2049
  224MOL0     C30116   7.783   6.506   7.316  0.6937  0.8474 -0.0154
  224MOL0     C30117   7.645   6.461   7.260 -0.6423 -0.7361 -0.3212
  224MOL0     C30118   7.641   6.332   7.170 -0.6015 -0.0732  0.6346
  224MOL0     C30119   7.744   6.330   7.052  0.6926 -0.6927 -0.4443
  224MOL0     C30120   7.720   6.205   6.967  0.4519 -0.2460 -0.2103
  224MOL0     C30121   7.805   6.199   6.843 -0.2617 -0.3487  0.0119
  224MOL0     N30122   7.932   6.149   6.885 -1.4478  0.0141 -0.5466
  224MOL0     C30123   8.048   6.217   6.888 -1.1698  0.0850 -0.5787
  224MOL0     C30124   8.145   6.118   6.909 -0.4731 -0.4490 -0.1175
  224MOL0     C30125   8.293   6.143   6.923 -0.7502 -0.1746 -0.3421
  224MOL0     C30126   8.382   6.123   6.799  0.3599  0.5731 -0.2682
  224MOL0     C30127   8.381   5.976   6.778 -0.0527 -0.7818  0.1832
  224MOL0     C30128   8.456   5.942   6.646  0.9250  0.1188  0.0652
  224MOL0     O30129   8.596   5.992   6.637 -0.3147  0.1067  0.6726
  224MOL0     C30130   8.685   5.888   6.646  0.7157  0.5502 -0.3408
  224MOL0     C30131   8.767   5.854   6.542  0.6488 -0.3557 -0.0863
  224MOL0     C30132   8.844   5.742   6.561 -0.2519 -0.0670  0.3680
  224MOL0     C30133   8.920   5.698   6.439 -0.3175  0.2884 -0.2871
  224MOL0     C30134   8.860   5.668   6.684 -0.0498 -0.2312 -0.7658
  224MOL0     C30135   8.959   5.557   6.715 -0.0307  0.4723  0.4363
  224MOL0     O30136   9.060   5.543   6.627  0.0723 -0.8055  0.4828
  224MOL0     C30137   9.138   5.434   6.627  0.1078 -0.8390 -0.1264
  224MOL0     C30138   9.268   5.444   6.584 -0.0468 -0.0802 -0.4335
  224MOL0     C30139   9.357   5.339   6.593  0.3228  0.5327 -0.9739
  224MOL0     C30140   9.324   5.215   6.634  0.4202  1.1002 -0.1354
  224MOL0     O30141   9.408   5.109   6.634  0.1520 -0.1042  0.3115
  224MOL0     C30142   9.491   5.106   6.749  0.4892 -0.3672 -0.7000
  224MOL0     C30143   9.625   5.176   6.729 -0.4744 -0.7544  0.5131
  224MOL0     C30144   9.696   5.109   6.607  0.4898 -0.0213  0.7228
  224MOL0     C30145   9.798   5.196   6.549 -0.0110 -0.8496 -0.9767
  224MOL0     C30146   9.832   5.170   6.407 -0.3318 -0.1010  1.0346
  224MOL0     C30147   9.936   5.053   6.406  0.3641  0.1313 -0.5981
  224MOL0     C30148  10.003   5.014   6.271  0.1589 -0.1461 -0.2587
  224MOL0     C30149  10.105   4.906   6.326  0.4470 -0.2220 -0.2349
  224MOL0    Cl30150  10.180   4.851   6.190 -0.2906  0.1823 -0.1694
  224MOL0     C30151   9.191   5.200   6.682  0.0612 -0.0297  0.1481
  224MOL0     C30152   9.102   5.311   6.678  0.1378  0.5229  0.0327
  224MOL0     O30153   8.955   5.495   6.817 -0.4821 -0.3668 -0.2907
  224MOL0     C30154   8.779   5.713   6.797 -0.4151  0.4533 -0.1876
  224MOL0     C30155   8.693   5.817   6.776  0.8987  0.1960  0.3511
  224MOL0     N30156   8.086   5.997   6.936  1.1732 -0.3297 -0.5448
  224MOL0     N30157   7.959   6.017   6.924  0.2721 -0.0390  0.0155
  224MOL0     C30158   8.237   6.438   7.599 -0.5314 -0.5822 -0.5338
  224MOL0     C30159   8.365   6.423   7.649 -0.0515 -0.4545 -0.9557
  224MOL0     C30160   8.807   6.422   7.748  0.3563  0.1430 -0.6554
  224MOL0     C30161   8.858   6.480   7.868 -0.5970 -0.1128 -0.2378
  224MOL0     C30162   8.998   6.507   7.863 -0.2762 -0.3106  0.4706
  224MOL0     C30163   9.076   6.479   7.747 -0.9871 -0.2146 -0.5256
  224MOL0     O30164   9.214   6.484   7.744  0.0155  0.1842  0.6526
  224MOL0     C30165   9.285   6.546   7.852 -0.2693 -0.0754 -0.1219
  224MOL0     C30166   9.439   6.519   7.827  0.3567  0.0289  0.3252
  224MOL0     C30167   9.521   6.638   7.876 -0.2119  0.1624  0.3147
  224MOL0     C30168   9.674   6.603   7.876  0.6593 -1.3889  0.1645
  224MOL0     C30169   9.722   6.498   7.780 -0.6148 -0.3707  0.5827
  224MOL0     C30170   9.746   6.418   7.687  0.1633  0.2990 -0.1290
  224MOL0     C30171   9.021   6.413   7.645  0.4944 -0.5107  0.1195
  224MOL0     C30172   8.889   6.383   7.648  0.2278 -0.1722  0.1216
  224MOL0     H30173   8.522   6.414   7.347  0.3776 -0.1287  0.6020
  224MOL0     H30174   8.300   6.420   7.265  0.1412 -0.7024  0.2243
  224MOL0     H30175   7.963   6.412   7.588 -1.0751  1.2872  0.1433
  224MOL0     H30176   7.967   6.558   7.498  2.1948  0.4930 -2.8415
  224MOL0     H30177   7.856   6.312   7.368 -0.2857  0.2329 -0.9911
  224MOL0     H30178   7.749   6.377   7.483 -0.7752 -0.2139  0.0148
  224MOL0     H30179   7.772   6.603   7.365  4.1811  0.5567  1.6228
  224MOL0     H30180   7.849   6.511   7.229 -1.3446  2.2420 -1.5959
  224MOL0     H30181   7.568   6.446   7.336  0.4218 -0.1367  0.8954
  224MOL0     H30182   7.607   6.547   7.205  1.2194  0.3583  0.0205
  224MOL0     H30183   7.655   6.243   7.231  2.8079 -0.2775 -0.2440
  224MOL0     H30184   7.541   6.330   7.124 -1.0517 -0.5471  1.6149
  224MOL0     H30185   7.710   6.410   6.986 -4.0795 -2.4332 -0.4333
  224MOL0     H30186   7.850   6.338   7.080  0.4037 -1.5222  0.9381
  224MOL0     H30187   7.734   6.117   7.030 -1.0272  1.9764  3.6349
  224MOL0     H30188   7.620   6.205   6.923  0.8626 -0.6607 -1.1750
  224MOL0     H30189   7.811   6.292   6.787  0.1281  0.1255  0.8157
  224MOL0     H30190   7.762   6.126   6.773 -1.8010  0.5728 -0.0571
  224MOL0     H30191   8.058   6.325   6.880 -1.5089  0.3787  1.9324
  224MOL0     H30192   8.315   6.245   6.955  0.4958 -1.8030  4.9163
  224MOL0     H30193   8.342   6.090   7.005  0.5215  0.3315 -0.7539
  224MOL0     H30194   8.487   6.151   6.811 -0.0325  2.1094 -0.3095
  224MOL0     H30195   8.345   6.173   6.709  1.1962 -3.8270 -3.3922
  224MOL0     H30196   8.277   5.944   6.782 -0.1932 -0.2043  1.3621
  224MOL0     H30197   8.438   5.927   6.858  2.2402  1.1791 -0.1330
  224MOL0     H30198   8.405   5.972   6.555 -0.2198 -3.1592 -0.4873
  224MOL0     H30199   8.458   5.833   6.640  3.1572  0.1379 -0.4820
  224MOL0     H30200   8.756   5.907   6.448 -0.7459  1.3540  0.9835
  224MOL0     H30201   8.900   5.755   6.347 -2.5390  2.3291  1.3438
  224MOL0     H30202   9.027   5.706   6.460  0.0275 -1.0038 -1.3777
  224MOL0     H30203   8.895   5.592   6.426 -0.3511  0.3444 -0.6980
  224MOL0     H30204   9.308   5.539   6.549 -0.9315  1.2045  1.7976
  224MOL0     H30205   9.462   5.366   6.579  0.7307  0.7234  1.8447
  224MOL0     H30206   9.435   5.148   6.833 -2.2543  0.5952 -2.8467
  224MOL0     H30207   9.519   5.003   6.776  1.6855 -0.4829 -2.2306
  224MOL0     H30208   9.601   5.282   6.716 -1.4880 -1.3479 -3.7060
  224MOL0     H30209   9.700   5.161   6.808 -1.6383 -3.9564  1.1347
  224MOL0     H30210   9.620   5.100   6.530  1.8765  2.0121 -0.9962
  224MOL0     H30211   9.746   5.019   6.646 -0.3952 -0.5210  0.7228
  224MOL0     H30212   9.759   5.298   6.546  0.8336 -0.3238  2.2060
  224MOL0     H30213   9.888   5.201   6.612 -1.5166 -1.2746  1.3279
  224MOL0     H30214   9.883   5.256   6.363  0.8163 -1.0175  0.5072
  224MOL0     H30215   9.754   5.139   6.337 -1.4695  1.2850  1.6584
  224MOL0     H30216  10.008   5.080   6.484 -2.1958 -1.3765  2.5804
  224MOL0     H30217   9.885   4.961   6.437 -2.7037  1.8334 -0.1604
  224MOL0     H30218  10.064   5.094   6.228  0.8389  0.9174  2.4648
  224MOL0     H30219   9.925   4.987   6.199 -0.0549  0.4776 -0.2709
  224MOL0     H30220  10.048   4.830   6.380 -0.5464  1.5340  1.2883
  224MOL0     H30221  10.172   4.935   6.407 -0.6767 -1.5828  1.2471
  224MOL0     H30222   9.167   5.100   6.717  0.2944  0.4004  1.5789
  224MOL0     H30223   8.999   5.296   6.710 -0.0633  0.5047 -0.6127
  224MOL0     H30224   8.784   5.660   6.891  1.6543  0.9904  0.0469
  224MOL0     H30225   8.640   5.860   6.860  1.4053 -1.4561  1.5534
  224MOL0     H30226   8.160   6.445   7.675  0.1297 -0.2612  0.1300
  224MOL0     H30227   8.380   6.422   7.756  3.1675 -1.1130 -1.3227
  224MOL0     H30228   8.793   6.515   7.947 -1.5251  0.0785 -1.0647
  224MOL0     H30229   9.051   6.546   7.949 -0.6249  4.3411 -1.1348
  224MOL0     H30230   9.274   6.653   7.832 -2.2355 -0.1507  0.4172
  224MOL0     H30231   9.264   6.527   7.957 -2.4909  0.4603 -0.4271
  224MOL0     H30232   9.463   6.487   7.725 -0.7841 -1.3177  0.4396
  224MOL0     H30233   9.471   6.434   7.889 -1.3474 -0.5557  0.4437
  224MOL0     H30234   9.497   6.676   7.975 -0.5356 -0.5919  0.5349
  224MOL0     H30235   9.507   6.714   7.799 -1.3084 -0.7731 -0.4486
  224MOL0     H30236   9.690   6.558   7.975 -1.7919 -1.0895  0.7537
  224MOL0     H30237   9.723   6.701   7.873 -0.3431 -0.7731  2.1900
  224MOL0     H30238   9.753   6.361   7.597  0.1312  3.5219 -2.3239
  224MOL0     H30239   9.072   6.384   7.553  0.9878  3.3458 -1.0215
  224MOL0     H30240   8.852   6.318   7.569  0.7350 -1.8647  1.2255
  225MOL0     O30241   9.373   7.067  11.215 -0.2649  0.0076 -0.2727
  225MOL0     C30242   9.452   7.155  11.182 -0.3559 -0.7494 -0.4606
  225MOL0     O30243   9.423   7.290  11.184  0.4703  0.0650  0.1235
  225MOL0     C30244   9.297   7.326  11.242 -1.4491  0.3485 -0.0513
  225MOL0     C30245   9.302   7.412  11.351  1.2929 -0.8263  0.0171
  225MOL0     C30246   9.181   7.470  11.403  0.3472 -0.0573 -0.4176
  225MOL0     C30247   9.057   7.453  11.339 -0.5666  0.3587 -0.0811
  225MOL0     O30248   8.948   7.514  11.390  0.9487  0.4299  0.5745
  225MOL0     C30249   8.811   7.490  11.346  0.0223 -0.0340  0.3415
  225MOL0     C30250   8.733   7.435  11.469  0.4851  0.2428  0.3356
  225MOL0     C30251   8.581   7.402  11.427 -0.3870  0.5354 -0.7486
  225MOL0     C30252   8.502   7.355  11.554  0.3967 -0.0771 -0.2214
  225MOL0     C30253   8.528   7.222  11.610  0.1368 -0.9439  0.8399
  225MOL0     C30254   8.485   7.095  11.523  0.5555 -0.0322 -0.8649
  225MOL0     C30255   8.475   6.959  11.595  0.4450  0.3636  0.1376
  225MOL0     C30256   8.378   6.942  11.718 -0.4691 -0.7343  0.0954
  225MOL0     N30257   8.359   6.806  11.762 -0.2472 -0.5352 -0.4854
  225MOL0     C30258   8.259   6.757  11.836 -0.1852  0.3821 -0.4753
  225MOL0     C30259   8.276   6.624  11.847  0.8993  0.0350  0.2381
  225MOL0     C30260   8.185   6.531  11.908  0.1384  0.4596 -0.2049
  225MOL0     C30261   8.050   6.539  11.838  0.0893  0.3726 -0.3646
  225MOL0     C30262   7.948   6.419  11.876 -0.1400 -0.3585  0.6552
  225MOL0     C30263   7.829   6.433  11.780 -0.0224  0.2675  0.2324
  225MOL0     O30264   7.745   6.319  11.794 -0.2877 -0.2899  0.6096
  225MOL0     C30265   7.615   6.323  11.735 -0.1702  0.4756 -0.3406
  225MOL0     C30266   7.528   6.218  11.770 -0.4258  0.3545 -0.2902
  225MOL0     C30267   7.397   6.200  11.707  0.2954  0.3313 -0.2497
  225MOL0     C30268   7.317   6.081  11.755 -0.1744 -0.0510 -0.7110
  225MOL0     C30269   7.351   6.295  11.608 -0.1355 -0.5809  0.0880
  225MOL0     C30270   7.216   6.291  11.537  0.3409  1.0979  0.1462
  225MOL0     O30271   7.125   6.185  11.561 -0.1448  0.0210  0.2365
  225MOL0     C30272   6.986   6.214  11.546 -0.2006 -0.7480 -0.5379
  225MOL0     C30273   6.906   6.110  11.514 -0.1383  0.6211 -0.5868
  225MOL0     C30274   6.764   6.125  11.493  0.4160  0.1920 -0.7594
  225MOL0     C30275   6.707   6.248  11.518  1.3493 -0.1566 -0.0072
  225MOL0     O30276   6.567   6.258  11.501 -0.0576  0.2547 -0.5686
  225MOL0     C30277   6.497   6.324  11.602  0.0776 -0.3432  0.4564
  225MOL0     C30278   6.345   6.320  11.569  0.1603  1.0283  0.7766
  225MOL0     C30279   6.273   6.184  11.594 -0.4891  0.2546  0.0672
  225MOL0     C30280   6.122   6.207  11.591  0.3480  0.8581  0.1334
  225MOL0     C30281   6.056   6.075  11.628 -0.9347  0.1813  0.0068
  225MOL0     C30282   5.910   6.075  11.592  0.5238  0.2817 -0.2251
  225MOL0     C30283   5.829   6.194  11.664  0.5866  0.4817  0.0585
  225MOL0     C30284   5.678   6.160  11.658 -0.1924 -0.5054 -0.3294
  225MOL0    Cl30285   5.632   6.028  11.768  0.1459  0.1752  0.3842
  225MOL0     C30286   6.796   6.357  11.552 -0.3146 -0.5051  1.1177
  225MOL0     C30287   6.930   6.337  11.571 -0.3020 -0.4850  0.6258
  225MOL0     O30288   7.195   6.382  11.461  0.3886 -0.1904  0.1411
  225MOL0     C30289   7.440   6.405  11.585  0.1587 -0.8698 -0.4601
  225MOL0     C30290   7.569   6.419  11.644 -0.3206  0.2778  0.5755
  225MOL0     N30291   8.389   6.592  11.779 -0.5578 -0.6282 -0.2682
  225MOL0     N30292   8.438   6.698  11.725  0.1074 -0.5060 -0.0076
  225MOL0     C30293   9.062   7.375  11.220  0.6223  0.7316  0.0788
  225MOL0     C30294   9.180   7.308  11.174 -0.2642  0.0639  0.1999
  225MOL0     C30295   9.593   7.125  11.136 -0.7529  0.3544 -0.2595
  225MOL0     C30296   9.694   7.221  11.144 -0.2245 -0.5730  0.4779
  225MOL0     C30297   9.826   7.185  11.105 -0.5614 -0.5065  0.2802
  225MOL0     C30298   9.859   7.056  11.073 -0.1130  0.6150 -0.6640
  225MOL0     O30299   9.988   7.025  11.058 -0.5501 -0.3151  0.1897
  225MOL0     C30300  10.037   6.903  11.007  0.5362 -0.1712 -0.0989
  225MOL0     C30301  10.189   6.889  11.017  0.2679  0.4264  0.6516
  225MOL0     C30302  10.225   6.914  11.156  0.9481 -0.4776  0.2267
  225MOL0     C30303  10.363   6.871  11.193  0.2002 -0.7264  0.5659
  225MOL0     C30304  10.477   6.927  11.121 -0.5648 -0.4189 -0.6728
  225MOL0     C30305  10.555   6.974  11.041  0.0952  1.0192  0.8476
  225MOL0     C30306   9.754   6.965  11.048 -0.8142  0.2035 -0.1477
  225MOL0     C30307   9.625   6.994  11.091 -0.3745 -0.6190  0.4246
  225MOL0     H30308   9.395   7.449  11.394  1.1146  1.1182 -1.1244
  225MOL0     H30309   9.159   7.520  11.497  0.3936 -0.9490  0.0875
  225MOL0     H30310   8.768   7.587  11.319  0.7505 -0.0106 -0.8192
  225MOL0     H30311   8.791   7.418  11.266 -0.5466  1.0283 -0.5117
  225MOL0     H30312   8.790   7.347  11.501  1.6042  0.5069 -0.8698
  225MOL0     H30313   8.732   7.498  11.558  2.2366 -0.0338  0.5771
  225MOL0     H30314   8.527   7.483  11.377 -1.2078  1.4377  1.4540
  225MOL0     H30315   8.584   7.317  11.358  1.1524  1.3139 -1.6672
  225MOL0     H30316   8.523   7.425  11.636  0.2248  0.8527 -0.9536
  225MOL0     H30317   8.398   7.355  11.521  1.0822 -1.5504 -2.6376
  225MOL0     H30318   8.633   7.223  11.639  0.7386 -2.0633 -1.1257
  225MOL0     H30319   8.479   7.212  11.707  0.7228  0.4219  1.3001
  225MOL0     H30320   8.388   7.121  11.480 -0.1111  1.4661  1.3715
  225MOL0     H30321   8.558   7.085  11.442  1.8699  3.9218 -0.3943
  225MOL0     H30322   8.438   6.884  11.524 -1.2794  1.6600 -0.4033
  225MOL0     H30323   8.572   6.932  11.638  0.3393  0.4757  0.4541
  225MOL0     H30324   8.279   6.982  11.695 -0.7952 -1.3378  0.4400
  225MOL0     H30325   8.426   6.999  11.799 -0.7924  0.8385 -0.7808
  225MOL0     H30326   8.177   6.811  11.881  0.3654  0.7006  0.1650
  225MOL0     H30327   8.222   6.428  11.911  0.6933  0.5373  4.8972
  225MOL0     H30328   8.178   6.559  12.014  2.2616 -1.9671  0.6762
  225MOL0     H30329   8.063   6.547  11.729 -0.4033  1.9495 -0.3425
  225MOL0     H30330   8.004   6.637  11.858 -1.6659 -0.4521 -0.1668
  225MOL0     H30331   7.905   6.439  11.975 -1.2353  1.8742 -0.1854
  225MOL0     H30332   8.004   6.326  11.864  0.7561  0.0787  1.3584
  225MOL0     H30333   7.860   6.445  11.675 -1.2917  3.5100  0.0973
  225MOL0     H30334   7.771   6.520  11.812  1.2116  0.9270  0.7556
  225MOL0     H30335   7.559   6.156  11.854 -0.7494  0.8379  0.1965
  225MOL0     H30336   7.377   6.026  11.828 -1.2839  0.8541  0.9596
  225MOL0     H30337   7.228   6.119  11.805 -0.0332 -1.7290  0.9199
  225MOL0     H30338   7.282   6.012  11.678  0.0378 -1.5789  0.5144
  225MOL0     H30339   6.962   6.019  11.489 -1.0688 -0.3602  0.7529
  225MOL0     H30340   6.702   6.042  11.463  0.7214 -0.0166 -0.8178
  225MOL0     H30341   6.513   6.288  11.704 -1.2078 -1.1666  0.3901
  225MOL0     H30342   6.527   6.429  11.600 -0.4650 -0.1886  0.3409
  225MOL0     H30343   6.310   6.408  11.624  0.3056  1.4107  0.2725
  225MOL0     H30344   6.342   6.328  11.460  0.1933  3.5237  0.8881
  225MOL0     H30345   6.297   6.145  11.693  0.3503  1.3409  0.3102
  225MOL0     H30346   6.310   6.115  11.518  1.8655  0.0176  1.3320
  225MOL0     H30347   6.093   6.286  11.660 -1.8304 -0.6801  1.0888
  225MOL0     H30348   6.099   6.248  11.492 -0.6015  1.3840  0.5578
  225MOL0     H30349   6.050   6.051  11.735 -2.8207 -0.4065 -0.1862
  225MOL0     H30350   6.110   5.992  11.582  1.6357  2.1811 -0.7897
  225MOL0     H30351   5.888   6.093  11.487 -1.8647 -2.2205 -0.2507
  225MOL0     H30352   5.866   5.979  11.623  1.4670  0.6001  2.4001
  225MOL0     H30353   5.846   6.288  11.611  3.4078  0.0340  0.0205
  225MOL0     H30354   5.854   6.210  11.769  0.2760 -0.6104  0.3076
  225MOL0     H30355   5.655   6.146  11.552  1.3734  0.1622 -0.7904
  225MOL0     H30356   5.641   6.252  11.704  4.9880  1.3430  0.8023
  225MOL0     H30357   6.736   6.444  11.576 -1.6730 -1.0635 -0.0482
  225MOL0     H30358   6.982   6.425  11.607  1.3094 -0.8270 -0.7516
  225MOL0     H30359   7.404   6.472  11.508  1.2863  1.2140  0.7380
  225MOL0     H30360   7.636   6.501  11.619  0.3829  0.0072  1.4902
  225MOL0     H30361   8.968   7.360  11.168  0.2164  0.1448  0.9620
  225MOL0     H30362   9.179   7.255  11.079  2.6694 -0.5531  0.4237
  225MOL0     H30363   9.680   7.327  11.158  0.1091 -0.5056  0.3091
  225MOL0     H30364   9.909   7.255  11.105  0.4501 -1.6692 -0.4071
  225MOL0     H30365   9.985   6.828  11.068  0.7242  0.8273  1.3332
  225MOL0     H30366   9.998   6.890  10.906  0.5541  0.6957 -0.2204
  225MOL0     H30367  10.244   6.961  10.955 -2.3694  1.7083 -0.3307
  225MOL0     H30368  10.219   6.787  10.991 -3.4062 -0.5902 -0.1938
  225MOL0     H30369  10.158   6.863  11.226  0.5656 -0.9746 -0.4875
  225MOL0     H30370  10.212   7.022  11.166  0.3764 -0.5585  0.4029
  225MOL0     H30371  10.369   6.762  11.183 -1.1186 -0.7582 -0.1189
  225MOL0     H30372  10.391   6.895  11.296  1.7575  0.8695 -0.1700
  225MOL0     H30373  10.618   6.999  10.958 -1.0967 -0.9545 -0.7264
  225MOL0     H30374   9.788   6.870  11.008 -1.4362  0.0626 -0.3534
  225MOL0     H30375   9.538   6.930  11.097 -0.0861 -1.0953 -0.2912
  226MOL0     O30376   4.658  10.899   9.863  0.1688  0.7045  0.2635
  226MOL0     C30377   4.746  10.892   9.779  0.1649  0.4085  0.3999
  226MOL0     O30378   4.734  10.842   9.652  0.1950 -0.0002  0.6192
  226MOL0     C30379   4.615  10.782   9.615 -0.3122  0.0318 -0.4325
  226MOL0     C30380   4.586  10.647   9.613  0.6669 -0.8100 -0.0336
  226MOL0     C30381   4.457  10.593   9.582  0.0374  0.1969  0.3655
  226MOL0     C30382   4.345  10.681   9.573  0.6875 -0.0916 -0.5623
  226MOL0     O30383   4.217  10.638   9.545 -0.2569  0.3437  0.6072
  226MOL0     C30384   4.189  10.498   9.503 -0.2783  0.3589  0.4825
  226MOL0     C30385   4.046  10.487   9.509 -0.1285 -0.6864 -0.2262
  226MOL0     C30386   4.002  10.350   9.473  0.8017 -0.0265  0.3484
  226MOL0     C30387   3.847  10.353   9.440 -0.1918  0.5916 -0.2541
  226MOL0     C30388   3.794  10.213   9.404  0.4205 -0.1782  0.0085
  226MOL0     C30389   3.654  10.215   9.344  0.7921 -0.1553 -0.0087
  226MOL0     C30390   3.555  10.310   9.421  0.4458 -0.5303  0.9660
  226MOL0     C30391   3.527  10.267   9.560 -0.5983  0.9245  0.1770
  226MOL0     N30392   3.402  10.187   9.572 -0.0978 -0.7123 -0.1417
  226MOL0     C30393   3.349  10.163   9.700  0.3552 -0.0928 -0.0428
  226MOL0     C30394   3.247  10.071   9.672 -0.0897 -0.2015 -0.2407
  226MOL0     C30395   3.141  10.015   9.763 -0.0350  0.0490 -0.0942
  226MOL0     C30396   3.091   9.885   9.710  0.4881  0.1134  0.4570
  226MOL0     C30397   2.996   9.816   9.807 -0.7889  0.6920  0.7852
  226MOL0     C30398   2.853   9.865   9.795  0.2791 -0.1254 -0.1215
  226MOL0     O30399   2.762   9.767   9.861 -0.9311  0.0778 -0.2691
  226MOL0     C30400   2.630   9.771   9.852 -0.1392  0.0727  0.1663
  226MOL0     C30401   2.563   9.667   9.935  0.2838  0.3154  0.3084
  226MOL0     C30402   2.421   9.655   9.940 -0.0443 -0.8009  0.7914
  226MOL0     C30403   2.377   9.553  10.034  0.4965  0.1941  0.1203
  226MOL0     C30404   2.343   9.746   9.862 -0.1692  0.2900  0.0138
  226MOL0     C30405   2.196   9.750   9.866 -0.1812  1.2431 -0.2054
  226MOL0     O30406   2.121   9.634   9.896 -0.1876  0.2292 -0.3970
  226MOL0     C30407   1.986   9.626   9.873  0.2764  0.3956  0.0680
  226MOL0     C30408   1.918   9.557   9.973  0.1993  0.5266  0.2388
  226MOL0     C30409   1.780   9.536   9.968  0.2199 -0.9906  0.0630
  226MOL0     C30410   1.715   9.588   9.853 -0.3078 -0.1766  0.4119
  226MOL0     O30411   1.583   9.563   9.863  0.9228  0.2642  0.0088
  226MOL0     C30412   1.493   9.643   9.789 -0.8036  0.5857 -0.2194
  226MOL0     C30413   1.347   9.607   9.823 -0.2023 -0.2100  0.0463
  226MOL0     C30414   1.252   9.661   9.719 -0.8619 -0.4516  1.4801
  226MOL0     C30415   1.120   9.576   9.722 -0.4398 -0.5686 -0.8689
  226MOL0     C30416   1.023   9.591   9.841  0.5823 -1.0964 -0.2997
  226MOL0     C30417   0.909   9.490   9.846 -0.0435 -0.5128  0.4955
  226MOL0     C30418   0.952   9.349   9.862  0.8264  0.1418 -0.2450
  226MOL0     C30419   0.832   9.255   9.867 -0.4904  0.1482 -0.8273
  226MOL0    Cl30420   0.746   9.259  10.017  0.1422  0.1407  0.0987
  226MOL0     C30421   1.786   9.644   9.742 -0.6282  0.2622 -0.0371
  226MOL0     C30422   1.921   9.663   9.752  0.4811 -0.0591  0.1586
  226MOL0     O30423   2.151   9.865   9.848 -0.4928  0.7363 -0.0915
  226MOL0     C30424   2.407   9.842   9.780 -0.6373  0.6502 -0.1385
  226MOL0     C30425   2.550   9.860   9.784  0.7100  0.6602  0.7759
  226MOL0     N30426   3.244  10.049   9.534 -0.0061  0.0557  0.1305
  226MOL0     N30427   3.330  10.125   9.477 -0.6705 -0.3219  0.6241
  226MOL0     C30428   4.378  10.818   9.566  0.1241 -0.2778 -0.2651
  226MOL0     C30429   4.506  10.864   9.585  0.3116 -0.3750 -0.2130
  226MOL0     C30430   4.877  10.953   9.813  0.3252 -0.2769  0.0292
  226MOL0     C30431   4.985  10.936   9.726  0.3477 -0.6447  0.6367
  226MOL0     C30432   5.116  10.992   9.754  0.6263 -0.0732  0.0333
  226MOL0     C30433   5.131  11.064   9.875 -0.5478 -0.0879  0.0470
  226MOL0     O30434   5.258  11.120   9.902 -0.4226 -0.3101 -0.6767
  226MOL0     C30435   5.266  11.233  10.000 -0.1631  0.5261  0.6557
  226MOL0     C30436   5.412  11.284   9.996  0.2866 -0.5474 -0.5199
  226MOL0     C30437   5.444  11.391  10.108 -0.3680  0.0858 -0.0008
  226MOL0     C30438   5.579  11.464  10.090 -0.2907 -0.3672 -0.4155
  226MOL0     C30439   5.580  11.558   9.974 -0.3479 -0.4654 -0.1989
  226MOL0     C30440   5.592  11.635   9.876  0.3504 -0.0865 -0.3278
  226MOL0     C30441   5.017  11.074   9.956 -0.0526 -0.1370 -0.3085
  226MOL0     C30442   4.893  11.025   9.927  0.4443 -0.4453 -0.4296
  226MOL0     H30443   4.659  10.580   9.655 -0.4543 -1.0076  1.6909
  226MOL0     H30444   4.460  10.486   9.598  1.8243  0.1799  0.1866
  226MOL0     H30445   4.213  10.475   9.399 -0.2960 -1.9321  0.9287
  226MOL0     H30446   4.249  10.432   9.566  1.7952  1.2320 -0.4722
  226MOL0     H30447   4.000  10.515   9.604 -2.2685 -0.1635 -1.3404
  226MOL0     H30448   3.993  10.560   9.447 -0.8125 -0.4705  0.5971
  226MOL0     H30449   4.045  10.323   9.376 -0.6334 -0.5586 -0.1672
  226MOL0     H30450   4.014  10.271   9.548 -2.7399 -1.1452 -0.0622
  226MOL0     H30451   3.794  10.389   9.528  2.5815  3.2151  0.4965
  226MOL0     H30452   3.824  10.421   9.358 -0.5030 -0.9956 -1.5257
  226MOL0     H30453   3.864  10.165   9.335  1.3656  3.2850 -1.6436
  226MOL0     H30454   3.789  10.150   9.493  2.8211 -0.2120  0.1854
  226MOL0     H30455   3.657  10.252   9.241 -1.2964 -0.1446 -0.1158
  226MOL0     H30456   3.616  10.113   9.331  0.3579  0.1811 -1.6026
  226MOL0     H30457   3.576  10.417   9.417  0.1473 -0.4357  1.6900
  226MOL0     H30458   3.462  10.316   9.364  2.3659 -1.7081 -2.5919
  226MOL0     H30459   3.521  10.362   9.614  2.3188  0.9629  0.5743
  226MOL0     H30460   3.607  10.210   9.608 -2.7472  0.0689  3.0483
  226MOL0     H30461   3.384  10.200   9.797 -1.1490 -0.4765  0.6734
  226MOL0     H30462   3.180  10.006   9.865  1.3926  0.9770 -0.5316
  226MOL0     H30463   3.055  10.081   9.752 -0.2377 -0.3750 -1.2705
  226MOL0     H30464   3.174   9.815   9.701  0.9380  0.8009 -1.1183
  226MOL0     H30465   3.051   9.901   9.609  1.2608 -0.4455  0.0586
  226MOL0     H30466   3.033   9.817   9.910 -0.9696 -1.2343  0.9001
  226MOL0     H30467   3.008   9.712   9.775  2.2273  2.0747 -3.6128
  226MOL0     H30468   2.824   9.869   9.690 -3.7607 -2.5636  0.6596
  226MOL0     H30469   2.852   9.959   9.850  0.1302 -0.9328  1.3155
  226MOL0     H30470   2.615   9.604  10.006 -0.8727 -0.6806  0.2992
  226MOL0     H30471   2.277   9.566  10.075 -0.4039 -3.5156 -0.5617
  226MOL0     H30472   2.376   9.454   9.989  0.6347  0.9208 -1.5446
  226MOL0     H30473   2.451   9.542  10.114  0.3038  1.1572  0.4494
  226MOL0     H30474   1.982   9.522  10.053 -0.5435  3.2954  2.2034
  226MOL0     H30475   1.726   9.481  10.045  2.0767 -0.4389  1.8639
  226MOL0     H30476   1.516   9.748   9.812  2.0285  0.5779 -2.3599
  226MOL0     H30477   1.518   9.628   9.683  1.2979 -2.3747  0.5872
  226MOL0     H30478   1.339   9.498   9.829 -1.8323 -0.1707 -0.9715
  226MOL0     H30479   1.321   9.654   9.918  0.7391 -0.2580  0.3360
  226MOL0     H30480   1.302   9.656   9.622 -4.1056 -0.2718 -0.3464
  226MOL0     H30481   1.235   9.768   9.734 -2.0219 -0.1550 -1.3255
  226MOL0     H30482   1.068   9.585   9.626  1.0961  1.3919 -1.5827
  226MOL0     H30483   1.154   9.472   9.715  2.4609  0.2042  0.4600
  226MOL0     H30484   0.986   9.693   9.829 -1.2542 -1.6551  0.1833
  226MOL0     H30485   1.089   9.573   9.927  0.6006  0.5875  0.0701
  226MOL0     H30486   0.849   9.505   9.937  1.0580 -0.5420  1.2501
  226MOL0     H30487   0.847   9.500   9.757  0.5573  0.7325  0.1833
  226MOL0     H30488   1.008   9.326   9.953  0.9778  1.7978  0.1135
  226MOL0     H30489   1.012   9.320   9.775  1.3031  2.0280 -0.5796
  226MOL0     H30490   0.881   9.158   9.873 -2.3903 -0.8638 -0.7423
  226MOL0     H30491   0.762   9.249   9.783 -2.0994 -1.1813  0.5339
  226MOL0     H30492   1.725   9.667   9.655 -1.9508 -2.6885 -0.0236
  226MOL0     H30493   1.979   9.710   9.673  0.1121  1.4071  0.7333
  226MOL0     H30494   2.356   9.926   9.733  0.2429  1.0879 -0.3305
  226MOL0     H30495   2.599   9.949   9.746 -0.1948 -0.2480 -2.8852
  226MOL0     H30496   4.311  10.899   9.540 -0.7511 -0.9307 -0.1037
  226MOL0     H30497   4.520  10.970   9.569  1.1651 -0.5790 -0.8987
  226MOL0     H30498   4.978  10.869   9.641  1.0970 -0.6452  0.5669
  226MOL0     H30499   5.199  10.987   9.684  0.5744 -0.1767 -0.0213
  226MOL0     H30500   5.206  11.319   9.969 -1.7225 -1.0612 -0.9076
  226MOL0     H30501   5.235  11.203  10.101 -3.5541  0.6239 -0.2396
  226MOL0     H30502   5.447  11.324   9.900 -0.1991  2.1466  0.3218
  226MOL0     H30503   5.477  11.198  10.015  0.6022  0.0110  1.0524
  226MOL0     H30504   5.443  11.343  10.206  0.5777  1.3503  0.6588
  226MOL0     H30505   5.365  11.467  10.112 -0.3729  0.0182  1.7776
  226MOL0     H30506   5.661  11.392  10.076 -0.6431 -0.7935 -0.3100
  226MOL0     H30507   5.609  11.528  10.174 -1.4358  3.2204 -2.5364
  226MOL0     H30508   5.604  11.688   9.784  1.5771  0.5648  0.1810
  226MOL0     H30509   5.030  11.131  10.047 -1.3249  0.3736 -0.4262
  226MOL0     H30510   4.804  11.044   9.987  0.3737 -0.1824 -0.6181
  227MOL0     O30511   8.150  10.825   7.308 -0.0997 -0.1681 -0.1296
  227MOL0     C30512   8.153  10.841   7.432  0.2584 -0.0371 -1.2431
  227MOL0     O30513   8.042  10.838   7.512  0.9284  0.1867  0.1067
  227MOL0     C30514   7.917  10.863   7.456 -0.6692 -0.5304 -0.7192
  227MOL0     C30515   7.805  10.789   7.500  0.5740  0.2808 -0.1544
  227MOL0     C30516   7.675  10.810   7.461 -0.2093  0.3809 -0.3617
  227MOL0     C30517   7.649  10.917   7.377 -0.2368 -0.5849  0.7002
  227MOL0     O30518   7.526  10.960   7.329 -0.4992 -0.7982  0.0094
  227MOL0     C30519   7.416  10.877   7.351  0.2770 -0.2621  0.2722
  227MOL0     C30520   7.297  10.939   7.279 -0.6985 -0.2537 -0.3893
  227MOL0     C30521   7.166  10.888   7.340 -0.6761  0.5657  0.8385
  227MOL0     C30522   7.052  10.966   7.283  0.7200 -0.5030 -0.0640
  227MOL0     C30523   6.914  10.916   7.332  0.6752 -0.0843 -0.2346
  227MOL0     C30524   6.814  11.016   7.272 -0.0773 -0.3013  0.0363
  227MOL0     C30525   6.669  10.972   7.294  0.2870 -0.2738  0.9509
  227MOL0     C30526   6.572  11.073   7.228 -0.1588  0.4334  0.6086
  227MOL0     N30527   6.435  11.054   7.266  1.1891  1.1914 -0.3808
  227MOL0     C30528   6.342  11.150   7.282  0.2520  0.3757  0.5802
  227MOL0     C30529   6.229  11.084   7.318  0.2458 -0.3597 -0.4918
  227MOL0     C30530   6.101  11.151   7.351  0.3305 -0.1273 -0.2303
  227MOL0     C30531   6.078  11.152   7.497 -0.3961 -0.0546 -1.2849
  227MOL0     C30532   5.951  11.235   7.532  0.2294  0.1211 -0.0370
  227MOL0     C30533   5.890  11.192   7.664  0.0454 -0.0647 -0.5229
  227MOL0     O30534   5.843  11.316   7.726  0.2597 -0.3101 -0.5358
  227MOL0     C30535   5.704  11.336   7.729  0.0360  0.5666 -0.1448
  227MOL0     C30536   5.623  11.299   7.626  0.7791 -0.3436  0.7827
  227MOL0     C30537   5.478  11.299   7.648 -0.8774  0.5268  0.0471
  227MOL0     C30538   5.381  11.247   7.545 -0.2716  0.4481  0.0888
  227MOL0     C30539   5.424  11.334   7.777 -0.1426 -0.8126  0.8020
  227MOL0     C30540   5.282  11.327   7.811 -0.5068 -0.5407 -0.1698
  227MOL0     O30541   5.234  11.430   7.893  0.0753  0.7348 -0.3023
  227MOL0     C30542   5.107  11.433   7.932 -0.7243 -0.8171 -0.3626
  227MOL0     C30543   5.001  11.429   7.840  0.1866  0.8523  0.8438
  227MOL0     C30544   4.867  11.426   7.885  0.6967 -0.4026 -0.5823
  227MOL0     C30545   4.833  11.440   8.024  0.1339  0.5397  0.8937
  227MOL0     O30546   4.697  11.456   8.052 -0.1136 -0.2143 -0.0043
  227MOL0     C30547   4.663  11.476   8.192  0.2072  0.3340 -0.0433
  227MOL0     C30548   4.513  11.505   8.211  0.7100  0.2772 -0.3878
  227MOL0     C30549   4.458  11.620   8.123  0.0892  0.6274  0.7046
  227MOL0     C30550   4.312  11.665   8.158  0.1184  0.8674 -0.0835
  227MOL0     C30551   4.222  11.541   8.200 -0.6949 -0.1549  0.4167
  227MOL0     C30552   4.091  11.598   8.248  0.6537  0.2411  0.4630
  227MOL0     C30553   3.994  11.486   8.289 -0.0371 -0.6373  0.3234
  227MOL0     C30554   3.851  11.518   8.313  0.5290 -0.2542 -0.7887
  227MOL0    Cl30555   3.828  11.632   8.456  0.0824 -0.1133 -0.6206
  227MOL0     C30556   4.941  11.437   8.116  0.1693 -0.1476 -0.7368
  227MOL0     C30557   5.072  11.440   8.066  0.1805  0.0925  0.4042
  227MOL0     O30558   5.218  11.229   7.776 -0.2050  0.4840  0.3088
  227MOL0     C30559   5.511  11.391   7.871  0.0377  0.4131  0.2764
  227MOL0     C30560   5.648  11.400   7.840 -0.2599  1.2713  0.7083
  227MOL0     N30561   6.254  10.951   7.314  0.0995 -0.2776  0.1073
  227MOL0     N30562   6.378  10.932   7.275 -0.1805 -0.0915 -0.6490
  227MOL0     C30563   7.758  10.995   7.328  0.3569  0.3600 -0.2567
  227MOL0     C30564   7.897  10.969   7.364  0.5771 -0.4906 -0.3635
  227MOL0     C30565   8.284  10.837   7.494 -0.1185  0.6790 -0.2001
  227MOL0     C30566   8.302  10.833   7.636 -0.1970  0.2884 -0.5433
  227MOL0     C30567   8.428  10.823   7.696 -0.0768  0.1712 -0.6414
  227MOL0     C30568   8.542  10.820   7.618 -0.4331 -0.6618 -0.0508
  227MOL0     O30569   8.655  10.803   7.693  0.2103 -0.2268  0.0934
  227MOL0     C30570   8.773  10.841   7.635  0.2445  0.0049  0.2153
  227MOL0     C30571   8.863  10.891   7.748  0.7888 -0.1749  0.1529
  227MOL0     C30572   8.901  10.775   7.844  1.0109  0.0537  0.1111
  227MOL0     C30573   8.968  10.650   7.784 -0.5232 -0.3944 -0.7944
  227MOL0     C30574   9.096  10.669   7.726  0.3552 -0.3151 -0.4140
  227MOL0     C30575   9.199  10.700   7.673  0.3512  0.2477 -0.4059
  227MOL0     C30576   8.529  10.820   7.476 -0.6110 -0.0581 -0.1801
  227MOL0     C30577   8.403  10.825   7.414  0.2400  0.1061 -0.3826
  227MOL0     H30578   7.824  10.703   7.563 -0.8422 -0.9350 -1.3269
  227MOL0     H30579   7.597  10.750   7.507 -1.9841  3.2904  0.7522
  227MOL0     H30580   7.442  10.777   7.314 -0.7642 -0.0357 -1.1815
  227MOL0     H30581   7.390  10.878   7.457 -0.9633  1.2666 -0.0005
  227MOL0     H30582   7.302  11.045   7.304  3.5533 -0.3332 -0.1282
  227MOL0     H30583   7.302  10.913   7.173  3.3787  0.8818 -0.6617
  227MOL0     H30584   7.153  10.780   7.337 -4.8458  0.8918 -1.8771
  227MOL0     H30585   7.167  10.911   7.447 -0.1289  2.9500  0.3797
  227MOL0     H30586   7.067  11.073   7.302 -0.8604 -0.5778  1.8739
  227MOL0     H30587   7.061  10.973   7.174  1.2558  0.1492  0.0136
  227MOL0     H30588   6.907  10.815   7.292 -1.4447  0.2277 -0.7688
  227MOL0     H30589   6.910  10.909   7.441  3.1219  0.2144 -0.0730
  227MOL0     H30590   6.820  11.118   7.312  1.1003 -0.7441  1.0356
  227MOL0     H30591   6.833  11.018   7.164 -1.2935  0.0609 -0.1845
  227MOL0     H30592   6.661  10.868   7.263  1.8275 -0.8350  2.3402
  227MOL0     H30593   6.655  10.962   7.402  2.9238 -1.9270  1.2245
  227MOL0     H30594   6.578  11.066   7.119  2.7603 -3.4119  0.8038
  227MOL0     H30595   6.601  11.177   7.246 -1.8927  1.1901 -0.6068
  227MOL0     H30596   6.346  11.257   7.263 -1.8414  0.0939 -2.0082
  227MOL0     H30597   6.096  11.253   7.312  0.3963  0.7334  1.8828
  227MOL0     H30598   6.030  11.082   7.304  0.6976 -2.4048  2.3173
  227MOL0     H30599   6.166  11.206   7.534 -0.4257 -1.5187  1.1094
  227MOL0     H30600   6.085  11.055   7.546 -0.4848 -0.1487 -1.4586
  227MOL0     H30601   5.876  11.215   7.455  1.1162  1.4277 -1.2957
  227MOL0     H30602   5.981  11.340   7.528 -0.6909  0.4272  0.7586
  227MOL0     H30603   5.958  11.159   7.743  0.8384  1.5028 -0.5069
  227MOL0     H30604   5.820  11.111   7.646  0.3377 -1.2554  3.0643
  227MOL0     H30605   5.655  11.259   7.530 -1.1515 -1.4892  0.5497
  227MOL0     H30606   5.304  11.323   7.527 -1.3774 -0.9137 -1.2115
  227MOL0     H30607   5.441  11.224   7.457  2.3539 -2.7280  2.4542
  227MOL0     H30608   5.315  11.165   7.575 -1.5912  1.5431  0.3035
  227MOL0     H30609   5.016  11.408   7.735 -0.9440 -3.0762  1.2866
  227MOL0     H30610   4.790  11.424   7.808  1.9975 -1.4122 -1.8953
  227MOL0     H30611   4.673  11.379   8.243 -0.2631  0.9539  1.2729
  227MOL0     H30612   4.724  11.541   8.254  1.8059  0.9698 -2.1727
  227MOL0     H30613   4.457  11.411   8.201  1.8446 -0.4603 -0.1502
  227MOL0     H30614   4.503  11.541   8.314 -0.5606  3.9030 -1.6613
  227MOL0     H30615   4.466  11.601   8.016  0.7258  2.1480  0.4611
  227MOL0     H30616   4.524  11.706   8.132  0.7131  0.5034 -2.0332
  227MOL0     H30617   4.322  11.718   8.253 -0.9340 -0.1104  0.6128
  227MOL0     H30618   4.268  11.730   8.082 -0.8097 -1.4439 -1.6348
  227MOL0     H30619   4.270  11.495   8.287  1.9508  1.7073  0.0742
  227MOL0     H30620   4.208  11.464   8.124 -3.3263  1.2622 -0.6789
  227MOL0     H30621   4.111  11.669   8.329  2.2187  0.5218 -0.1256
  227MOL0     H30622   4.058  11.658   8.163  1.4258  0.4324  0.2859
  227MOL0     H30623   4.035  11.433   8.376 -1.2380 -0.2513  1.1398
  227MOL0     H30624   3.992  11.414   8.207 -0.2554 -2.5295  1.8967
  227MOL0     H30625   3.799  11.423   8.331 -2.8447  1.2907 -1.5033
  227MOL0     H30626   3.805  11.569   8.228 -1.0924  0.9932  0.7604
  227MOL0     H30627   4.927  11.441   8.224 -1.9985  0.0305 -0.9802
  227MOL0     H30628   5.153  11.441   8.137  1.1525  0.4474 -0.6790
  227MOL0     H30629   5.471  11.425   7.966  0.9798 -1.5542  1.4317
  227MOL0     H30630   5.707  11.429   7.926  0.1079  1.7536  0.2922
  227MOL0     H30631   7.743  11.076   7.257  1.4055  0.6397 -0.1844
  227MOL0     H30632   7.978  11.037   7.343 -0.0183  1.3932  2.8551
  227MOL0     H30633   8.218  10.825   7.704  2.4630 -0.1974  2.9579
  227MOL0     H30634   8.430  10.813   7.804 -1.0008 -1.9287 -0.7585
  227MOL0     H30635   8.827  10.764   7.579 -1.5951 -0.3306 -1.1896
  227MOL0     H30636   8.752  10.925   7.568  1.4230 -0.9885 -1.4892
  227MOL0     H30637   8.816  10.963   7.815  0.4157  1.4719 -1.7822
  227MOL0     H30638   8.944  10.946   7.701 -1.2567  2.5878 -0.4091
  227MOL0     H30639   8.805  10.744   7.889 -0.6156  1.5274 -2.1334
  227MOL0     H30640   8.955  10.809   7.933 -0.1354 -1.6395  1.5147
  227MOL0     H30641   8.904  10.599   7.712 -0.5452 -0.0719 -1.0060
  227MOL0     H30642   8.991  10.585   7.870  1.1564  2.2603  0.9132
  227MOL0     H30643   9.299  10.722   7.642  0.1506  3.6587  0.9632
  227MOL0     H30644   8.612  10.803   7.408 -0.6293  2.0064 -0.7883
  227MOL0     H30645   8.409  10.809   7.307 -0.0833 -1.1876 -0.2238
  228MOL0     O30646   2.251   2.726   5.857  0.0189 -0.4816  0.0176
  228MOL0     C30647   2.306   2.737   5.973  0.1315  0.4195 -0.0297
  228MOL0     O30648   2.236   2.727   6.084  0.4477  0.1950  0.2312
  228MOL0     C30649   2.100   2.755   6.069  0.0402 -0.1828 -0.5118
  228MOL0     C30650   2.046   2.875   6.107  0.7463  0.1153  1.0771
  228MOL0     C30651   1.907   2.903   6.114 -0.5211  0.0312  0.1174
  228MOL0     C30652   1.816   2.797   6.089 -0.3929  0.1267 -0.4888
  228MOL0     O30653   1.684   2.816   6.111 -0.1239 -0.0515 -0.0943
  228MOL0     C30654   1.596   2.718   6.174  0.0936  0.3308 -0.0545
  228MOL0     C30655   1.501   2.659   6.070 -0.3224 -0.8791  0.4131
  228MOL0     C30656   1.411   2.776   6.019 -0.2834 -0.2445 -0.3081
  228MOL0     C30657   1.316   2.721   5.913  0.1045  0.0759  0.3504
  228MOL0     C30658   1.268   2.832   5.826  0.4793 -0.2345 -0.1573
  228MOL0     C30659   1.147   2.797   5.741  1.0212 -0.1149  0.3828
  228MOL0     C30660   1.109   2.918   5.656  0.6755  0.1720 -0.2361
  228MOL0     C30661   0.985   2.870   5.576 -0.5626  0.6108  0.6770
  228MOL0     N30662   0.959   2.986   5.490  0.0739 -0.6732  0.0692
  228MOL0     C30663   0.896   3.096   5.542 -0.1201 -0.6198  0.1154
  228MOL0     C30664   0.892   3.173   5.431 -0.0392 -0.2457  0.8452
  228MOL0     C30665   0.831   3.314   5.437  0.4089  0.0150 -0.1899
  228MOL0     C30666   0.694   3.327   5.358  0.3947  0.2097  0.5344
  228MOL0     C30667   0.631   3.466   5.362  0.8379  0.0166 -0.0430
  228MOL0     C30668   0.480   3.461   5.342  0.0969 -0.2178 -0.8728
  228MOL0     O30669   0.443   3.437   5.204 -0.2329 -0.5366  0.1613
  228MOL0     C30670   0.319   3.476   5.156  0.0382  0.1516  0.6503
  228MOL0     C30671   0.319   3.525   5.028 -0.6746 -0.1525 -0.5674
  228MOL0     C30672   0.197   3.557   4.966  0.2728  0.0831  0.2719
  228MOL0     C30673   0.206   3.634   4.833  0.2806  0.0875  0.0303
  228MOL0     C30674   0.071   3.522   5.022 -0.0948  0.1417  0.2062
  228MOL0     C30675  -0.069   3.555   4.973  0.5844 -0.4298  0.5301
  228MOL0     O30676  -0.163   3.508   5.060  0.3004 -0.1264  0.0113
  228MOL0     C30677  -0.289   3.564   5.051  0.1391 -0.3262  0.2297
  228MOL0     C30678  -0.400   3.505   4.988 -0.1530  0.2219 -0.6090
  228MOL0     C30679  -0.526   3.562   4.983  0.3498  0.1568 -0.8221
  228MOL0     C30680  -0.546   3.682   5.055  0.0451 -0.3718 -0.1743
  228MOL0     O30681  -0.670   3.728   5.059  0.2126  0.4014  0.1846
  228MOL0     C30682  -0.710   3.832   5.149  0.0592 -0.0744 -1.1590
  228MOL0     C30683  -0.843   3.891   5.102  0.6760  0.1020 -0.2796
  228MOL0     C30684  -0.893   3.988   5.205  0.1159  0.5032 -0.2439
  228MOL0     C30685  -0.999   4.090   5.154 -0.4628  0.4570 -0.2425
  228MOL0     C30686  -1.132   4.023   5.160  0.5183  0.0740  0.4496
  228MOL0     C30687  -1.250   4.087   5.089  0.1661 -0.1778 -0.7946
  228MOL0     C30688  -1.278   4.227   5.145 -0.0580  0.5539  0.0803
  228MOL0     C30689  -1.334   4.224   5.282 -0.4152 -0.3901  0.6360
  228MOL0    Cl30690  -1.472   4.340   5.290  0.0657 -0.5016  0.0279
  228MOL0     C30691  -0.439   3.747   5.119  0.1688  0.7282 -0.0610
  228MOL0     C30692  -0.309   3.685   5.113  0.2037 -0.4243 -0.0052
  228MOL0     O30693  -0.083   3.631   4.882  0.7366  0.2816 -0.2035
  228MOL0     C30694   0.084   3.461   5.155  0.3042  0.1012  0.6696
  228MOL0     C30695   0.204   3.447   5.222 -0.4362 -0.6740  0.1729
  228MOL0     N30696   0.939   3.110   5.316 -0.2341  0.2718 -0.1788
  228MOL0     N30697   0.989   3.001   5.361  0.6944 -0.3105  0.3917
  228MOL0     C30698   1.869   2.669   6.059  0.3091  0.3820  0.1651
  228MOL0     C30699   2.009   2.653   6.038  0.4500 -0.3037  0.0590
  228MOL0     C30700   2.451   2.761   5.980 -0.5955  0.0110  0.1810
  228MOL0     C30701   2.527   2.821   5.872  0.9541  0.5974  0.4217
  228MOL0     C30702   2.667   2.846   5.890 -0.8018  0.2203  1.2535
  228MOL0     C30703   2.727   2.816   6.012 -0.0358 -0.4169 -0.3070
  228MOL0     O30704   2.860   2.831   6.034 -0.7236  0.1622 -0.0100
  228MOL0     C30705   2.947   2.914   5.957  0.2366  0.8502  0.2371
  228MOL0     C30706   3.076   2.926   6.038 -0.3936  0.2454 -0.5334
  228MOL0     C30707   3.181   3.009   5.972  0.5106 -0.4529 -0.2567
  228MOL0     C30708   3.306   3.026   6.062 -0.3289  0.0765 -0.4392
  228MOL0     C30709   3.381   2.910   6.082 -1.0154  0.4258  0.1849
  228MOL0     C30710   3.442   2.814   6.126 -0.5287  0.6604  0.5106
  228MOL0     C30711   2.654   2.752   6.112 -0.0082  0.2169  0.1399
  228MOL0     C30712   2.516   2.732   6.092  0.2901  0.2905 -0.6004
  228MOL0     H30713   2.116   2.954   6.134 -0.7839  1.8917  0.0786
  228MOL0     H30714   1.880   3.006   6.135  3.2732  1.0950  0.5071
  228MOL0     H30715   1.652   2.631   6.210 -1.1277 -0.3154  0.3099
  228MOL0     H30716   1.543   2.768   6.256  2.6214  2.0367  0.6692
  228MOL0     H30717   1.559   2.609   5.993 -1.3776 -1.3732 -0.0790
  228MOL0     H30718   1.438   2.576   6.101 -0.6560 -1.1920 -1.0450
  228MOL0     H30719   1.358   2.806   6.110 -1.0550 -0.1800 -0.7682
  228MOL0     H30720   1.471   2.858   5.979  0.0096 -1.0970 -1.6823
  228MOL0     H30721   1.375   2.659   5.845 -0.6811  0.9744 -1.1976
  228MOL0     H30722   1.225   2.675   5.953 -0.8176  0.5924 -1.0849
  228MOL0     H30723   1.245   2.916   5.892 -3.9814 -1.4463  0.1185
  228MOL0     H30724   1.354   2.862   5.765 -0.1459 -0.1860 -1.0471
  228MOL0     H30725   1.154   2.715   5.670  1.1357 -0.3508  0.6656
  228MOL0     H30726   1.066   2.774   5.811 -0.8686  2.3410 -0.8638
  228MOL0     H30727   1.079   2.996   5.727  0.8498 -0.4442  0.5368
  228MOL0     H30728   1.186   2.946   5.584 -0.5265  0.7554 -1.3457
  228MOL0     H30729   0.900   2.856   5.643 -1.8687 -2.1434 -1.3655
  228MOL0     H30730   0.995   2.778   5.518 -2.0246  2.0012 -1.9922
  228MOL0     H30731   0.868   3.120   5.644  0.6059 -2.7344  0.8536
  228MOL0     H30732   0.800   3.335   5.539  2.0998 -0.2552  0.4040
  228MOL0     H30733   0.901   3.393   5.408  0.4047  1.2257  2.7775
  228MOL0     H30734   0.621   3.255   5.397 -1.1868  1.5032  0.0952
  228MOL0     H30735   0.711   3.303   5.253 -4.2217 -1.0812 -0.1796
  228MOL0     H30736   0.663   3.530   5.280 -0.8472  1.2602  0.2093
  228MOL0     H30737   0.659   3.516   5.456  1.3061 -0.2175 -0.0527
  228MOL0     H30738   0.446   3.562   5.370 -1.0558 -0.6747 -0.5343
  228MOL0     H30739   0.426   3.387   5.403 -0.8607 -0.5515 -2.0946
  228MOL0     H30740   0.420   3.545   4.993 -0.0808 -1.5612  0.2864
  228MOL0     H30741   0.133   3.715   4.835  0.6281  0.4002  0.3511
  228MOL0     H30742   0.299   3.689   4.818 -0.8694  2.0566 -0.2175
  228MOL0     H30743   0.189   3.574   4.743 -0.0507 -0.9233  0.7454
  228MOL0     H30744  -0.377   3.422   4.922  0.6660  0.6100 -0.8267
  228MOL0     H30745  -0.605   3.511   4.929  1.4966 -2.5133 -0.1825
  228MOL0     H30746  -0.710   3.800   5.253 -0.9040 -0.8517 -1.3895
  228MOL0     H30747  -0.646   3.920   5.135 -1.9984  1.5924 -0.4895
  228MOL0     H30748  -0.826   3.951   5.012  0.9294  0.5156  0.0416
  228MOL0     H30749  -0.923   3.817   5.088  0.5795  0.3394 -1.0073
  228MOL0     H30750  -0.813   4.054   5.240  0.5754  0.2974 -0.8909
  228MOL0     H30751  -0.925   3.937   5.296 -0.1419  1.1847  0.0508
  228MOL0     H30752  -1.012   4.176   5.221  2.1106 -1.9580  3.8147
  228MOL0     H30753  -0.977   4.121   5.051  0.2593 -0.8736 -0.5077
  228MOL0     H30754  -1.161   4.009   5.264 -0.8689  0.2540  0.0977
  228MOL0     H30755  -1.123   3.923   5.116 -1.0762  0.1820 -0.1891
  228MOL0     H30756  -1.250   4.081   4.980  1.1863  0.5133 -0.8472
  228MOL0     H30757  -1.327   4.011   5.105  4.5898 -4.9190  0.9056
  228MOL0     H30758  -1.346   4.274   5.074  0.8742 -1.5138 -2.3611
  228MOL0     H30759  -1.189   4.290   5.152  1.4424 -1.5243  0.8656
  228MOL0     H30760  -1.257   4.239   5.357  0.4480  1.5167 -0.5677
  228MOL0     H30761  -1.374   4.123   5.295 -0.2713 -0.2308  2.6515
  228MOL0     H30762  -0.448   3.847   5.160  4.0996  0.8794  0.8330
  228MOL0     H30763  -0.229   3.745   5.157 -0.4118  1.5847 -1.4722
  228MOL0     H30764  -0.001   3.425   5.211 -0.9009 -0.9384 -1.6805
  228MOL0     H30765   0.216   3.407   5.322  0.9570 -0.3186  0.1655
  228MOL0     H30766   1.800   2.588   6.037  0.5697 -0.1536  1.2667
  228MOL0     H30767   2.068   2.572   5.995  1.1122  0.3460 -0.2805
  228MOL0     H30768   2.469   2.837   5.781 -0.3514 -1.3485  0.8529
  228MOL0     H30769   2.727   2.891   5.812 -0.2443  0.0271  1.5685
  228MOL0     H30770   2.968   2.871   5.858 -0.9225 -0.7842  0.6502
  228MOL0     H30771   2.902   3.013   5.944 -1.7429 -0.1801 -1.3669
  228MOL0     H30772   3.127   2.833   6.063 -1.9047 -0.4746  0.0303
  228MOL0     H30773   3.059   2.979   6.133  0.8335 -0.4733  0.1058
  228MOL0     H30774   3.141   3.108   5.949  2.9545  0.5620 -0.3884
  228MOL0     H30775   3.195   2.967   5.872 -0.6705  3.2699 -2.1708
  228MOL0     H30776   3.280   3.065   6.160  1.2457  1.6903 -0.6082
  228MOL0     H30777   3.372   3.096   6.010 -0.7628  1.3164  0.6151
  228MOL0     H30778   3.511   2.746   6.172  0.8072  0.9177 -1.0159
  228MOL0     H30779   2.701   2.731   6.207  0.9305  1.8076  0.0536
  228MOL0     H30780   2.458   2.682   6.169  1.4199 -1.5437 -0.8908
  229MOL0     O30781   4.186   0.290   0.814  0.2532  0.2288 -0.6662
  229MOL0     C30782   4.197   0.236   0.700 -0.2253 -0.3656 -0.2323
  229MOL0     O30783   4.103   0.246   0.598 -0.2438 -0.0866 -0.3702
  229MOL0     C30784   4.030   0.358   0.597 -0.4152  0.4373  0.5992
  229MOL0     C30785   4.092   0.475   0.554 -0.3787 -0.6134 -0.3536
  229MOL0     C30786   4.014   0.591   0.546  0.4018 -0.4886  0.2372
  229MOL0     C30787   3.877   0.593   0.585 -0.0555 -0.2934  0.4580
  229MOL0     O30788   3.811   0.714   0.579  0.3502 -0.6344  0.0305
  229MOL0     C30789   3.717   0.749   0.677 -0.7259 -0.2321 -0.6681
  229MOL0     C30790   3.577   0.739   0.625  0.4010  0.1980  0.1733
  229MOL0     C30791   3.479   0.745   0.739 -0.3148 -0.3613 -0.1009
  229MOL0     C30792   3.346   0.735   0.671 -0.1247 -0.3880 -0.0806
  229MOL0     C30793   3.229   0.731   0.775 -0.5785 -0.4886 -0.7904
  229MOL0     C30794   3.091   0.739   0.708 -0.4314 -0.4695  0.0797
  229MOL0     C30795   2.980   0.724   0.811  0.2559 -0.6289 -0.1973
  229MOL0     C30796   2.963   0.579   0.843  0.5580  0.0461  0.0618
  229MOL0     N30797   2.846   0.582   0.933 -0.1982  0.6977 -0.3342
  229MOL0     C30798   2.712   0.553   0.895 -0.2684 -0.9549 -0.1892
  229MOL0     C30799   2.640   0.541   1.019 -0.0329 -0.5106  0.1879
  229MOL0     C30800   2.493   0.517   1.039  0.0734 -0.0979 -0.2526
  229MOL0     C30801   2.452   0.411   0.930  0.9485  0.9015  0.2762
  229MOL0     C30802   2.321   0.348   0.970 -0.5241 -0.3928  0.1466
  229MOL0     C30803   2.299   0.229   0.870 -0.3177  0.3589 -0.6334
  229MOL0     O30804   2.174   0.171   0.905  0.4933  0.9641 -0.3214
  229MOL0     C30805   2.055   0.223   0.859 -0.5512  0.1752 -0.2353
  229MOL0     C30806   2.033   0.344   0.795 -0.0578 -0.1325 -0.1147
  229MOL0     C30807   1.899   0.383   0.766 -0.7897 -0.4413 -0.1345
  229MOL0     C30808   1.883   0.509   0.691 -0.6218  0.3771  0.6337
  229MOL0     C30809   1.786   0.305   0.802 -0.4562 -0.4030  0.8857
  229MOL0     C30810   1.641   0.354   0.799 -0.9999  0.2620 -0.5028
  229MOL0     O30811   1.558   0.270   0.858 -0.4795 -1.1608 -0.1402
  229MOL0     C30812   1.421   0.280   0.832  0.4036 -0.4075  0.2556
  229MOL0     C30813   1.357   0.167   0.787 -0.2934 -0.1014 -0.0317
  229MOL0     C30814   1.220   0.170   0.750 -0.4054  0.5269 -0.3796
  229MOL0     C30815   1.144   0.294   0.777  0.7948  0.3019 -0.1358
  229MOL0     O30816   1.006   0.303   0.753 -0.1578 -0.0251 -0.5647
  229MOL0     C30817   0.946   0.222   0.652  0.0943  0.3270 -0.3879
  229MOL0     C30818   0.808   0.278   0.613  0.3988  0.5989 -0.6613
  229MOL0     C30819   0.702   0.263   0.730 -0.0480  0.0928 -0.2742
  229MOL0     C30820   0.560   0.251   0.658  0.2661 -0.0392 -0.8725
  229MOL0     C30821   0.454   0.234   0.762 -0.6362 -0.1869 -0.6835
  229MOL0     C30822   0.319   0.203   0.712  0.3279  0.1874 -0.2265
  229MOL0     C30823   0.222   0.190   0.833 -0.7517  0.6535 -0.1477
  229MOL0     C30824   0.084   0.139   0.801  0.2037  0.5695  0.1892
  229MOL0    Cl30825  -0.008   0.244   0.699  0.1535 -0.2781 -0.0400
  229MOL0     C30826   1.210   0.403   0.835  0.4894 -0.3033 -0.6018
  229MOL0     C30827   1.348   0.396   0.862  0.3455 -0.0573  0.2425
  229MOL0     O30828   1.617   0.453   0.736  0.5530 -0.6601  1.7153
  229MOL0     C30829   1.816   0.184   0.862  0.5385  0.4049 -0.6341
  229MOL0     C30830   1.942   0.141   0.895 -0.2698 -0.1637  0.1339
  229MOL0     N30831   2.730   0.569   1.117 -0.7349 -0.2309 -0.7425
  229MOL0     N30832   2.849   0.579   1.065 -0.3236  1.0356  0.6397
  229MOL0     C30833   3.823   0.476   0.632 -0.1632 -0.3951  0.7494
  229MOL0     C30834   3.900   0.356   0.640  1.4346 -1.1455 -0.2450
  229MOL0     C30835   4.302   0.133   0.679 -0.4790  0.3460 -0.3128
  229MOL0     C30836   4.395   0.099   0.779 -0.3651  0.3165  0.0486
  229MOL0     C30837   4.490  -0.004   0.759 -0.2181  0.1216 -0.3078
  229MOL0     C30838   4.509  -0.067   0.632  0.0096 -0.8076 -0.5501
  229MOL0     O30839   4.600  -0.165   0.597 -0.5091  0.0969  0.3258
  229MOL0     C30840   4.718  -0.171   0.686  0.3324  1.2483  0.0986
  229MOL0     C30841   4.813  -0.264   0.620 -0.2051 -0.0073  0.1968
  229MOL0     C30842   4.893  -0.202   0.504  0.0401  0.6597  1.0702
  229MOL0     C30843   5.018  -0.127   0.545 -0.4179  0.6571  0.4026
  229MOL0     C30844   5.130  -0.216   0.580  0.4473  0.0241 -0.3138
  229MOL0     C30845   5.208  -0.306   0.613  0.2292  0.0148 -0.8134
  229MOL0     C30846   4.423  -0.037   0.539  0.6819 -0.7113 -0.5283
  229MOL0     C30847   4.321   0.067   0.562  0.0018  0.4278  0.1392
  229MOL0     H30848   4.193   0.469   0.513 -1.1868  0.5267 -2.6921
  229MOL0     H30849   4.063   0.681   0.512  0.3206  1.4951  4.7311
  229MOL0     H30850   3.732   0.697   0.772 -0.2644  0.3539 -0.4096
  229MOL0     H30851   3.746   0.849   0.710 -0.8614 -0.9280  1.6969
  229MOL0     H30852   3.557   0.817   0.551  1.2663  0.3881  0.1271
  229MOL0     H30853   3.567   0.641   0.578 -3.0820 -0.2360  1.5097
  229MOL0     H30854   3.498   0.664   0.810  1.6391  0.0586 -0.0905
  229MOL0     H30855   3.496   0.842   0.786  2.3569 -0.0339 -1.5505
  229MOL0     H30856   3.340   0.826   0.610  2.9758 -0.0545 -0.0692
  229MOL0     H30857   3.341   0.647   0.606  0.8843  0.2745 -1.0973
  229MOL0     H30858   3.235   0.634   0.825  1.2336 -0.4385 -0.8672
  229MOL0     H30859   3.237   0.803   0.857 -2.2739 -2.9767  1.7195
  229MOL0     H30860   3.077   0.841   0.671 -0.8345  0.2368  2.0556
  229MOL0     H30861   3.084   0.670   0.624 -3.4759 -0.9605  0.6249
  229MOL0     H30862   3.009   0.780   0.901  1.8422 -2.1148  0.2677
  229MOL0     H30863   2.892   0.760   0.758 -0.0608 -0.9857  0.0777
  229MOL0     H30864   3.051   0.535   0.890  0.8779  0.0949 -0.4757
  229MOL0     H30865   2.952   0.517   0.753 -1.9503  1.9781 -1.1078
  229MOL0     H30866   2.678   0.532   0.794  1.8234 -2.1427 -0.7112
  229MOL0     H30867   2.463   0.480   1.137 -0.7337  2.8810  0.7232
  229MOL0     H30868   2.430   0.601   1.007  2.1846  1.1497 -1.3255
  229MOL0     H30869   2.534   0.338   0.930 -0.2051 -0.5155 -2.1663
  229MOL0     H30870   2.439   0.447   0.827  0.5690 -1.8160 -0.6894
  229MOL0     H30871   2.247   0.424   0.942  0.3733  0.4733  0.0576
  229MOL0     H30872   2.320   0.326   1.077 -0.9619 -0.2520  0.1722
  229MOL0     H30873   2.379   0.154   0.869 -2.4198 -2.2190 -4.9122
  229MOL0     H30874   2.293   0.259   0.765 -2.3967 -0.9119 -0.9386
  229MOL0     H30875   2.116   0.412   0.773 -1.7912  2.6558  1.3442
  229MOL0     H30876   1.976   0.548   0.650 -0.7304  0.9733  0.9563
  229MOL0     H30877   1.809   0.503   0.610  2.1974  1.1057 -2.1679
  229MOL0     H30878   1.849   0.588   0.759 -0.4741  1.6977 -0.7647
  229MOL0     H30879   1.416   0.080   0.758  0.9892  1.1920 -1.4755
  229MOL0     H30880   1.183   0.075   0.714 -1.0432  1.4965 -2.4610
  229MOL0     H30881   1.000   0.232   0.558  0.0022 -0.4190 -0.5250
  229MOL0     H30882   0.944   0.120   0.692  0.6837  0.5027  0.1218
  229MOL0     H30883   0.821   0.386   0.595  0.3286  0.5170 -1.2165
  229MOL0     H30884   0.762   0.236   0.523 -0.5957  0.6655 -0.2073
  229MOL0     H30885   0.702   0.347   0.800  2.3786  1.2916 -1.5812
  229MOL0     H30886   0.712   0.170   0.788 -2.7436 -0.4137 -0.5194
  229MOL0     H30887   0.542   0.345   0.604 -0.2485  0.3553 -0.0446
  229MOL0     H30888   0.568   0.162   0.596  0.5127 -0.9581  0.4474
  229MOL0     H30889   0.447   0.333   0.807  1.4252  0.7328 -2.2191
  229MOL0     H30890   0.496   0.171   0.841 -0.6328  2.0562  1.2105
  229MOL0     H30891   0.291   0.279   0.640  3.0031  0.2259 -1.3574
  229MOL0     H30892   0.331   0.104   0.666 -0.9177 -0.6577  1.1571
  229MOL0     H30893   0.220   0.293   0.870  0.7006  0.8522 -0.5451
  229MOL0     H30894   0.263   0.117   0.905 -2.6686 -2.3968 -1.9273
  229MOL0     H30895   0.025   0.140   0.894  0.4758  3.3288  0.4155
  229MOL0     H30896   0.082   0.038   0.760  0.8110 -0.0377  1.5583
  229MOL0     H30897   1.152   0.492   0.852  1.4963  0.0852  1.0391
  229MOL0     H30898   1.394   0.473   0.924 -3.8946  1.6131  1.6824
  229MOL0     H30899   1.745   0.112   0.900  1.2691  0.8847  1.8033
  229MOL0     H30900   1.954   0.052   0.956 -3.4930  0.6249  2.1944
  229MOL0     H30901   3.719   0.485   0.661 -0.8284  2.8169 -1.9470
  229MOL0     H30902   3.847   0.268   0.674 -0.2017 -0.3224 -0.6020
  229MOL0     H30903   4.391   0.148   0.875  1.1905  0.9332 -0.1794
  229MOL0     H30904   4.555  -0.026   0.842 -1.8074  1.0483  1.2562
  229MOL0     H30905   4.774  -0.077   0.684  1.2556  0.7695  1.9212
  229MOL0     H30906   4.697  -0.199   0.789  2.1253  1.3603  0.5275
  229MOL0     H30907   4.762  -0.346   0.568  1.1686 -1.8599  1.6371
  229MOL0     H30908   4.876  -0.316   0.692 -0.0722 -3.3410 -2.1070
  229MOL0     H30909   4.830  -0.149   0.432  1.6757 -1.4211 -2.0729
  229MOL0     H30910   4.921  -0.280   0.433  0.1410  2.4511 -0.9589
  229MOL0     H30911   4.991  -0.063   0.630 -1.1049  1.7052 -0.5807
  229MOL0     H30912   5.050  -0.068   0.459  2.2891 -2.2498 -0.7750
  229MOL0     H30913   5.265  -0.391   0.644  0.1166  0.8189  1.8587
  229MOL0     H30914   4.416  -0.097   0.449 -0.9843  1.5201 -1.9721
  229MOL0     H30915   4.243   0.084   0.489 -1.7153 -1.0273  1.5315
  230MOL0     O30916   9.751   0.557   3.107  0.3071 -0.0458 -1.0390
  230MOL0     C30917   9.776   0.547   3.227 -0.2019 -0.2885 -0.4055
  230MOL0     O30918   9.680   0.543   3.331 -0.2986  0.2195  0.2890
  230MOL0     C30919   9.553   0.562   3.295  0.3636  0.7299  0.0759
  230MOL0     C30920   9.478   0.452   3.236  0.2253 -0.7309 -0.1156
  230MOL0     C30921   9.336   0.462   3.220 -0.2495  0.1857  0.4726
  230MOL0     C30922   9.270   0.583   3.266 -0.0173 -0.2778  0.3337
  230MOL0     O30923   9.137   0.619   3.245  0.4198  0.4941  0.3835
  230MOL0     C30924   9.073   0.544   3.144 -0.5048  0.7723  0.3948
  230MOL0     C30925   8.954   0.630   3.096 -0.7357 -0.8248  0.0124
  230MOL0     C30926   8.852   0.554   3.005 -0.6738 -0.6717 -0.7416
  230MOL0     C30927   8.737   0.640   2.946 -0.8777 -0.2845 -0.0001
  230MOL0     C30928   8.639   0.574   2.859  0.0387  1.1146  0.8057
  230MOL0     C30929   8.514   0.660   2.852  0.3551 -0.6536 -0.0293
  230MOL0     C30930   8.417   0.594   2.755 -0.7089  0.1433 -0.4873
  230MOL0     C30931   8.283   0.658   2.752  1.0627  0.0232  0.1781
  230MOL0     N30932   8.165   0.581   2.780  0.4753  0.4310  0.3302
  230MOL0     C30933   8.111   0.552   2.902  0.9456 -0.0445  0.3274
  230MOL0     C30934   7.994   0.485   2.872 -0.6485  0.1132 -0.5806
  230MOL0     C30935   7.891   0.465   2.978  0.3693 -0.5386 -0.4962
  230MOL0     C30936   7.837   0.323   2.989  0.1377 -0.5549 -0.5783
  230MOL0     C30937   7.778   0.258   2.863  0.9454 -0.1820 -0.5416
  230MOL0     C30938   7.703   0.125   2.894 -0.2645  0.9999  0.4122
  230MOL0     O30939   7.573   0.125   2.958 -0.1369 -0.0573  0.1521
  230MOL0     C30940   7.499   0.011   2.930  0.6470 -0.5889 -0.0033
  230MOL0     C30941   7.366   0.030   2.874 -0.5214  0.7616  0.0018
  230MOL0     C30942   7.281  -0.079   2.856 -0.4187 -0.2738  0.0868
  230MOL0     C30943   7.141  -0.055   2.792 -0.4733 -0.4199 -0.7269
  230MOL0     C30944   7.326  -0.209   2.882 -0.1374 -0.1925 -0.2930
  230MOL0     C30945   7.240  -0.325   2.871 -0.0615 -0.3143 -0.8452
  230MOL0     O30946   7.268  -0.430   2.958  0.0882  0.5011  0.3832
  230MOL0     C30947   7.200  -0.554   2.947  0.9420 -0.3581  0.2744
  230MOL0     C30948   7.068  -0.567   2.922 -0.1600  0.3740 -0.8065
  230MOL0     C30949   7.003  -0.691   2.922  0.4045  0.2883 -0.2261
  230MOL0     C30950   7.072  -0.809   2.958 -0.0892  0.1528 -0.0976
  230MOL0     O30951   7.012  -0.927   2.969  0.9691 -0.0863  0.7272
  230MOL0     C30952   7.080  -1.046   2.999  0.4051  1.1618 -0.4485
  230MOL0     C30953   6.992  -1.167   2.976 -0.3447 -0.2317  0.2347
  230MOL0     C30954   7.053  -1.296   3.028  0.6229 -0.0199 -0.2989
  230MOL0     C30955   7.173  -1.339   2.948  0.5467 -0.4973  0.2924
  230MOL0     C30956   7.231  -1.476   2.989  0.0133  0.2851  0.7189
  230MOL0     C30957   7.379  -1.493   2.953  0.4581  0.5052  0.0015
  230MOL0     C30958   7.440  -1.624   3.002  0.3395 -0.3199  0.3769
  230MOL0     C30959   7.590  -1.620   2.999  0.1740 -0.2949 -0.2995
  230MOL0    Cl30960   7.655  -1.765   3.089 -0.0513  0.1180 -0.4376
  230MOL0     C30961   7.204  -0.791   2.996  0.0025  0.3992 -0.7202
  230MOL0     C30962   7.270  -0.663   2.996  0.5329  0.2828  0.5987
  230MOL0     O30963   7.163  -0.329   2.773  0.1419  0.0101 -0.3462
  230MOL0     C30964   7.460  -0.220   2.935  0.5788 -1.2866 -0.2863
  230MOL0     C30965   7.536  -0.112   2.973  1.1674  0.7747  0.1765
  230MOL0     N30966   7.982   0.479   2.734 -0.4123  0.4935 -0.1108
  230MOL0     N30967   8.082   0.539   2.682  0.2115 -0.2335 -1.5053
  230MOL0     C30968   9.343   0.680   3.331 -0.5935  0.5422 -0.6295
  230MOL0     C30969   9.484   0.671   3.347 -0.9279  0.4053 -0.4650
  230MOL0     C30970   9.922   0.535   3.265  0.0310  0.5955  0.7112
  230MOL0     C30971   9.952   0.476   3.388  0.7190 -0.7497  0.0737
  230MOL0     C30972  10.084   0.456   3.421  0.2227 -0.6052 -0.1170
  230MOL0     C30973  10.186   0.499   3.330  0.0939  0.7513  0.2243
  230MOL0     O30974  10.320   0.487   3.359  0.8905  0.4840 -0.6784
  230MOL0     C30975  10.383   0.386   3.277 -0.2513  0.7928  0.9010
  230MOL0     C30976  10.535   0.376   3.306  0.6118 -0.5114 -0.7112
  230MOL0     C30977  10.561   0.277   3.424 -0.6155  0.2771 -0.2428
  230MOL0     C30978  10.702   0.257   3.461  0.0829  0.0021  0.5301
  230MOL0     C30979  10.778   0.204   3.346 -0.0043  0.5148 -0.3191
  230MOL0     C30980  10.851   0.148   3.267 -0.2082 -0.1281  0.7258
  230MOL0     C30981  10.156   0.575   3.219  0.2750  0.4091 -0.2547
  230MOL0     C30982  10.026   0.584   3.188  1.0894 -0.1501  0.8964
  230MOL0     H30983   9.534   0.366   3.201 -0.3287 -0.3631 -2.0471
  230MOL0     H30984   9.290   0.374   3.175  1.3725  0.8557 -2.7444
  230MOL0     H30985   9.140   0.516   3.063 -0.4787  2.3134 -0.1387
  230MOL0     H30986   9.035   0.450   3.187  1.2048  1.2656  3.2894
  230MOL0     H30987   8.897   0.662   3.184  1.3519 -2.5767  2.1187
  230MOL0     H30988   8.995   0.726   3.062  2.1166 -1.5914  0.9989
  230MOL0     H30989   8.902   0.490   2.931 -1.2848 -1.8811 -0.1295
  230MOL0     H30990   8.812   0.477   3.071 -3.4656 -0.9843 -2.6387
  230MOL0     H30991   8.698   0.677   3.041  1.1679 -1.3906  1.3407
  230MOL0     H30992   8.788   0.724   2.896  0.4504  0.5621  2.6136
  230MOL0     H30993   8.685   0.550   2.763 -0.2748  3.7393 -0.0765
  230MOL0     H30994   8.613   0.479   2.906  0.3230  0.8613  0.4518
  230MOL0     H30995   8.477   0.681   2.952 -0.1117 -1.5841 -0.0006
  230MOL0     H30996   8.548   0.753   2.805  0.1905 -0.7008 -0.2482
  230MOL0     H30997   8.473   0.592   2.661  0.6838  0.0677  0.3140
  230MOL0     H30998   8.408   0.487   2.778  2.5024 -0.2332 -0.5384
  230MOL0     H30999   8.275   0.709   2.656  1.5058 -0.3067 -0.0384
  230MOL0     H31000   8.282   0.735   2.829  1.4720 -2.5588  2.9676
  230MOL0     H31001   8.144   0.593   2.996 -1.1108  1.1789  0.5907
  230MOL0     H31002   7.926   0.499   3.076  0.4809  1.3164 -1.1430
  230MOL0     H31003   7.817   0.545   2.969  0.7866  0.3002  2.4463
  230MOL0     H31004   7.752   0.328   3.058  0.9053  0.4479  0.3135
  230MOL0     H31005   7.913   0.263   3.040 -0.1978 -0.1549  0.4248
  230MOL0     H31006   7.859   0.237   2.793 -1.2679 -2.5056 -2.6700
  230MOL0     H31007   7.715   0.327   2.806  2.2087 -0.0311 -1.8008
  230MOL0     H31008   7.768   0.067   2.960  0.4676  2.6485  1.1839
  230MOL0     H31009   7.691   0.075   2.797  1.6494  1.0955  0.0862
  230MOL0     H31010   7.356   0.133   2.842  0.6447  0.7723 -0.3753
  230MOL0     H31011   7.061  -0.098   2.852 -0.4296  2.7385  1.8612
  230MOL0     H31012   7.116   0.051   2.802 -2.3163 -0.6768 -2.0386
  230MOL0     H31013   7.132  -0.075   2.685 -0.7349 -1.6440 -0.4891
  230MOL0     H31014   7.009  -0.476   2.919 -0.4939  0.6912  4.9626
  230MOL0     H31015   6.900  -0.705   2.890  1.3304 -2.4290 -2.3980
  230MOL0     H31016   7.168  -1.059   2.935  0.5709 -0.8183  0.1199
  230MOL0     H31017   7.111  -1.047   3.104 -1.5097  0.5874  0.1445
  230MOL0     H31018   6.885  -1.159   2.998  0.1321 -1.9690  3.9273
  230MOL0     H31019   6.990  -1.176   2.867  1.8135 -0.7917  0.2019
  230MOL0     H31020   6.971  -1.368   3.015  0.3587  0.1060  0.5613
  230MOL0     H31021   7.079  -1.281   3.133  0.8007  2.3125 -0.6325
  230MOL0     H31022   7.164  -1.347   2.839  2.1397 -0.6475  0.1508
  230MOL0     H31023   7.244  -1.257   2.960  0.4639 -0.1029 -1.5362
  230MOL0     H31024   7.170  -1.559   2.953 -0.3738 -1.2647  4.5023
  230MOL0     H31025   7.230  -1.482   3.099  0.8251 -1.8006  0.6453
  230MOL0     H31026   7.383  -1.493   2.843  0.0198 -0.3973 -0.0154
  230MOL0     H31027   7.432  -1.401   2.982  0.2032  1.0063 -1.0335
  230MOL0     H31028   7.406  -1.713   2.949 -0.2195 -1.6002  2.7785
  230MOL0     H31029   7.401  -1.638   3.103 -2.3593 -1.0968 -0.6805
  230MOL0     H31030   7.625  -1.532   3.054 -1.3310  0.1645 -0.0298
  230MOL0     H31031   7.615  -1.629   2.893  0.7232 -2.6794 -0.0411
  230MOL0     H31032   7.261  -0.875   3.035  0.7662  0.2549 -2.0627
  230MOL0     H31033   7.371  -0.641   3.028  2.2408 -0.7111 -3.4315
  230MOL0     H31034   7.505  -0.317   2.953 -1.6158 -2.2659  0.3319
  230MOL0     H31035   7.627  -0.124   3.030  1.3239 -2.3411 -0.5401
  230MOL0     H31036   9.284   0.760   3.373 -1.0453  1.1678 -2.3393
  230MOL0     H31037   9.537   0.741   3.412 -1.3997 -1.5710  2.1838
  230MOL0     H31038   9.875   0.449   3.460 -0.3368  0.1417 -0.6969
  230MOL0     H31039  10.108   0.403   3.512 -0.2449 -3.5645 -1.6052
  230MOL0     H31040  10.341   0.287   3.298 -1.9521  1.2780 -0.0548
  230MOL0     H31041  10.364   0.414   3.173  0.8080 -1.0377  0.1592
  230MOL0     H31042  10.581   0.470   3.336  0.3180 -0.4323 -0.5074
  230MOL0     H31043  10.583   0.350   3.211  1.7938 -0.4679 -0.1437
  230MOL0     H31044  10.514   0.182   3.398 -1.7592  0.6920  0.2350
  230MOL0     H31045  10.502   0.315   3.508 -3.2193 -1.5237 -1.1360
  230MOL0     H31046  10.705   0.193   3.550 -2.4920 -1.1442 -0.1025
  230MOL0     H31047  10.739   0.359   3.476  1.7833 -0.5306  0.0990
  230MOL0     H31048  10.900   0.087   3.194  0.5232  1.3959 -0.1023
  230MOL0     H31049  10.238   0.617   3.161  0.3554  0.2497 -0.2559
  230MOL0     H31050   9.988   0.641   3.103  1.7179 -1.6769 -0.4732
  231MOL0     O31051   3.444   0.209   5.696 -0.1732  0.5551 -0.0468
  231MOL0     C31052   3.543   0.205   5.630 -0.2602 -0.6418  0.6494
  231MOL0     O31053   3.544   0.231   5.493  0.1167  0.1011  0.3444
  231MOL0     C31054   3.420   0.238   5.428 -0.1205  0.0782  1.0249
  231MOL0     C31055   3.396   0.359   5.355  0.3935 -0.1682 -0.3102
  231MOL0     C31056   3.268   0.374   5.287 -1.0217 -0.2161 -0.4226
  231MOL0     C31057   3.175   0.264   5.288 -0.1058 -0.1142  0.1617
  231MOL0     O31058   3.053   0.265   5.230  0.0536  0.0866 -0.0310
  231MOL0     C31059   2.986   0.383   5.177 -0.0059  0.0895 -0.3710
  231MOL0     C31060   2.948   0.490   5.277 -0.4460 -0.0392 -0.1830
  231MOL0     C31061   2.838   0.590   5.224  0.8558 -0.5963  0.3032
  231MOL0     C31062   2.705   0.526   5.260  0.3349  0.2935 -0.7815
  231MOL0     C31063   2.582   0.599   5.217  0.3898 -0.2129 -0.3782
  231MOL0     C31064   2.459   0.518   5.256 -0.2878 -0.1270  0.4595
  231MOL0     C31065   2.328   0.603   5.248  0.2758 -0.9568  0.2610
  231MOL0     C31066   2.203   0.524   5.284  0.3287  0.6942  0.6670
  231MOL0     N31067   2.079   0.579   5.339  0.0519  0.1854  0.0167
  231MOL0     C31068   2.010   0.516   5.432 -0.1051  0.2828  0.5233
  231MOL0     C31069   1.899   0.591   5.444  0.6597  0.1597  0.4211
  231MOL0     C31070   1.785   0.550   5.529 -0.7120  0.1462  0.2780
  231MOL0     C31071   1.742   0.661   5.629  0.0469  0.1838  0.2750
  231MOL0     C31072   1.664   0.786   5.577 -0.6512  0.2247 -0.0305
  231MOL0     C31073   1.577   0.768   5.453  0.4270 -0.3821  0.1015
  231MOL0     O31074   1.478   0.657   5.450 -0.1749 -0.4823  1.0067
  231MOL0     C31075   1.345   0.691   5.469 -0.9387  0.3563 -0.2996
  231MOL0     C31076   1.300   0.797   5.544  0.0902  0.4877 -0.2715
  231MOL0     C31077   1.164   0.813   5.570  0.5284 -0.1318  0.3005
  231MOL0     C31078   1.117   0.929   5.654 -1.1094  0.2044 -1.0404
  231MOL0     C31079   1.065   0.722   5.511 -0.0914  0.0572 -0.4807
  231MOL0     C31080   0.916   0.735   5.530 -0.3269 -0.4964  0.4383
  231MOL0     O31081   0.851   0.856   5.502  0.1111  0.4524  0.6947
  231MOL0     C31082   0.712   0.870   5.505 -0.5429  0.0385 -0.2384
  231MOL0     C31083   0.650   0.968   5.585  0.2309 -0.4571  0.0593
  231MOL0     C31084   0.514   0.991   5.591 -0.0916 -0.2521 -0.1445
  231MOL0     C31085   0.435   0.916   5.504  0.1604 -0.0397 -0.2196
  231MOL0     O31086   0.302   0.930   5.502 -0.2488 -0.1313 -0.3417
  231MOL0     C31087   0.230   1.023   5.591 -0.2564  0.3518  0.0349
  231MOL0     C31088   0.199   0.978   5.741 -0.5278  0.0648  0.9623
  231MOL0     C31089   0.080   1.036   5.819 -0.8694 -0.2495  0.8883
  231MOL0     C31090   0.088   0.995   5.967  0.3410 -0.0861  0.3225
  231MOL0     C31091  -0.014   1.073   6.066  1.4759  0.1665  1.4394
  231MOL0     C31092  -0.164   1.023   6.071 -0.2601 -0.7614  0.0003
  231MOL0     C31093  -0.245   1.100   6.165  0.5768  0.0394  0.2465
  231MOL0     C31094  -0.263   1.243   6.157  0.0221 -0.2359  0.1992
  231MOL0    Cl31095  -0.312   1.307   5.998 -0.3111 -0.0774 -0.0656
  231MOL0     C31096   0.486   0.816   5.418  0.1385  0.3735  1.0007
  231MOL0     C31097   0.625   0.797   5.417  0.2469  0.7376  0.5722
  231MOL0     O31098   0.865   0.628   5.568 -0.6098 -0.3100 -0.2820
  231MOL0     C31099   1.111   0.621   5.429 -0.0985  0.3326 -0.2227
  231MOL0     C31100   1.247   0.607   5.406  0.1428  0.6151 -0.3549
  231MOL0     N31101   1.913   0.700   5.367  0.7338 -0.4658  0.3150
  231MOL0     N31102   2.029   0.706   5.312  0.3687  0.1604 -0.7881
  231MOL0     C31103   3.202   0.152   5.358  0.0519  1.1095 -0.9759
  231MOL0     C31104   3.329   0.134   5.421 -0.0693 -0.7092 -0.6627
  231MOL0     C31105   3.674   0.192   5.700  0.0718  0.0897  0.2358
  231MOL0     C31106   3.786   0.146   5.629 -0.0245 -1.4123  0.1494
  231MOL0     C31107   3.911   0.136   5.691 -1.0667  0.3646  0.0128
  231MOL0     C31108   3.915   0.147   5.832 -0.2691  0.8540 -0.7189
  231MOL0     O31109   4.035   0.137   5.908  0.0229 -0.1200 -1.1469
  231MOL0     C31110   4.164   0.157   5.849  0.3708 -0.2582  0.3652
  231MOL0     C31111   4.252   0.236   5.942  0.2208  0.2533 -0.2358
  231MOL0     C31112   4.203   0.387   5.969  0.3305 -0.3876 -1.0906
  231MOL0     C31113   4.304   0.466   6.050  0.6951  0.8645 -0.5036
  231MOL0     C31114   4.416   0.499   5.964 -0.6359 -0.7720 -0.5202
  231MOL0     C31115   4.510   0.515   5.893  1.0700  0.6712  0.5001
  231MOL0     C31116   3.800   0.189   5.903 -0.3011  0.2008 -0.2882
  231MOL0     C31117   3.686   0.219   5.838 -0.0715  0.4053  0.1945
  231MOL0     H31118   3.454   0.450   5.363 -2.7975  2.1644 -1.6866
  231MOL0     H31119   3.250   0.461   5.224  0.5943 -0.9729 -2.0403
  231MOL0     H31120   3.055   0.419   5.100  1.2267 -0.3042  0.5268
  231MOL0     H31121   2.890   0.349   5.135  0.5312 -1.6975 -0.2310
  231MOL0     H31122   2.920   0.447   5.374 -0.2692  2.6168  1.1502
  231MOL0     H31123   3.036   0.551   5.299 -0.0827 -0.2291 -1.1100
  231MOL0     H31124   2.842   0.686   5.276 -1.7287 -2.0613  3.5413
  231MOL0     H31125   2.844   0.606   5.116  0.7316 -0.0736  0.3715
  231MOL0     H31126   2.691   0.427   5.216 -2.7915  0.7558 -1.0717
  231MOL0     H31127   2.715   0.516   5.369 -0.0964 -0.0738 -0.7740
  231MOL0     H31128   2.580   0.699   5.262 -0.4137 -0.5830  0.4526
  231MOL0     H31129   2.586   0.623   5.111 -1.1835  2.3180  0.0551
  231MOL0     H31130   2.445   0.422   5.207  0.8042 -0.0618 -0.0014
  231MOL0     H31131   2.484   0.482   5.356  2.4555 -0.6110 -0.3116
  231MOL0     H31132   2.342   0.689   5.315  2.0791  0.7532 -2.1039
  231MOL0     H31133   2.316   0.649   5.149  4.7682  2.0818  0.7824
  231MOL0     H31134   2.234   0.446   5.354 -0.5761  1.6741  2.2060
  231MOL0     H31135   2.166   0.480   5.191 -2.9116  0.8193  1.7832
  231MOL0     H31136   2.026   0.417   5.473 -0.9331 -0.6069 -1.1838
  231MOL0     H31137   1.708   0.509   5.463 -0.1359  0.2629 -0.4773
  231MOL0     H31138   1.814   0.471   5.597 -0.6376  0.7641  0.9761
  231MOL0     H31139   1.824   0.688   5.696  1.6979 -2.8668 -0.3273
  231MOL0     H31140   1.663   0.607   5.682 -2.0913 -0.2966 -3.0920
  231MOL0     H31141   1.744   0.861   5.572  0.3257 -0.5342  2.4610
  231MOL0     H31142   1.595   0.816   5.656 -0.1467  0.1561  0.4434
  231MOL0     H31143   1.641   0.756   5.366 -1.8001 -0.8264 -1.5690
  231MOL0     H31144   1.520   0.860   5.437  1.4035  0.0182 -1.1897
  231MOL0     H31145   1.379   0.853   5.592  1.0741 -0.9209 -0.2143
  231MOL0     H31146   1.044   0.909   5.734  1.4659  0.0315  1.4227
  231MOL0     H31147   1.205   0.984   5.688  0.4450 -1.3877 -2.3658
  231MOL0     H31148   1.074   0.999   5.581  0.9558  1.5463 -1.0551
  231MOL0     H31149   0.715   1.014   5.658  0.9944 -1.6127  0.1354
  231MOL0     H31150   0.479   1.066   5.662  2.5347  1.0512 -0.0901
  231MOL0     H31151   0.281   1.120   5.594  1.5640 -0.5806  0.4960
  231MOL0     H31152   0.130   1.038   5.548 -0.5535 -4.8185 -1.8075
  231MOL0     H31153   0.172   0.872   5.727 -0.9178  0.1098  1.3208
  231MOL0     H31154   0.290   0.985   5.802  0.6924  1.3320 -0.9259
  231MOL0     H31155  -0.016   1.008   5.775 -1.5223  1.7569  0.9123
  231MOL0     H31156   0.076   1.145   5.809 -0.7925 -0.4218 -1.9832
  231MOL0     H31157   0.064   0.889   5.976 -1.0659 -0.0656 -2.1399
  231MOL0     H31158   0.188   1.016   6.005  0.0171  3.2838 -0.3423
  231MOL0     H31159  -0.024   1.179   6.042 -2.9836 -0.3119  0.4785
  231MOL0     H31160   0.023   1.065   6.169 -0.0647  4.3258  2.5131
  231MOL0     H31161  -0.202   1.032   5.968  2.2276  1.1761 -0.8604
  231MOL0     H31162  -0.160   0.916   6.093  2.6582 -1.4177 -2.9665
  231MOL0     H31163  -0.205   1.080   6.265 -2.0263 -1.7807  1.0373
  231MOL0     H31164  -0.346   1.057   6.172  1.5097 -2.0186  2.1441
  231MOL0     H31165  -0.166   1.289   6.178  0.3816 -0.9122  0.0879
  231MOL0     H31166  -0.331   1.279   6.234  1.5004  1.8910  0.5974
  231MOL0     H31167   0.422   0.770   5.343 -1.5997  2.6525  0.9958
  231MOL0     H31168   0.676   0.730   5.350 -0.0755  1.5270 -0.4865
  231MOL0     H31169   1.030   0.567   5.381 -2.3522  2.0438  1.4712
  231MOL0     H31170   1.284   0.530   5.339  0.4076 -0.0092  0.4914
  231MOL0     H31171   3.139   0.064   5.354  0.3435  0.7379  1.3909
  231MOL0     H31172   3.357   0.052   5.486  0.1818  0.2736  0.5115
  231MOL0     H31173   3.775   0.119   5.524  1.6859  1.8423 -1.0313
  231MOL0     H31174   4.000   0.108   5.635 -1.2479  0.3215 -0.2503
  231MOL0     H31175   4.207   0.058   5.833  0.2271  0.1100 -2.7935
  231MOL0     H31176   4.163   0.201   5.749  1.2905 -0.5072  0.2313
  231MOL0     H31177   4.356   0.240   5.911 -0.4997  1.2790 -2.8220
  231MOL0     H31178   4.267   0.172   6.029  0.3778 -1.3048 -1.3720
  231MOL0     H31179   4.112   0.396   6.029  1.4936  1.1198  0.5483
  231MOL0     H31180   4.182   0.431   5.872  1.3508  1.7298 -0.4232
  231MOL0     H31181   4.333   0.397   6.130  1.4903 -1.4729 -2.6661
  231MOL0     H31182   4.257   0.549   6.103  0.2627  1.0866 -1.2185
  231MOL0     H31183   4.591   0.528   5.823  0.1564 -1.4951 -1.0634
  231MOL0     H31184   3.815   0.192   6.011  1.7048 -0.1124 -0.5024
  231MOL0     H31185   3.599   0.261   5.888 -1.5400  1.5449 -3.0788
  232MOL0     O31186  10.572   2.727   4.719 -0.2966  0.0059  0.1042
  232MOL0     C31187  10.472   2.660   4.743 -1.1333  0.4838  0.5581
  232MOL0     O31188  10.433   2.638   4.867  0.2052  0.4004  0.0387
  232MOL0     C31189  10.478   2.708   4.979  0.2223 -0.4518  0.0720
  232MOL0     C31190  10.498   2.845   4.984  0.3595 -0.3857 -0.3745
  232MOL0     C31191  10.530   2.915   5.101 -0.3056 -0.8392 -0.1218
  232MOL0     C31192  10.538   2.845   5.223  0.4744  0.0080  0.5374
  232MOL0     O31193  10.560   2.893   5.350  0.7618 -0.0077  0.2263
  232MOL0     C31194  10.601   3.026   5.363 -0.3352  0.0269  0.9689
  232MOL0     C31195  10.607   3.072   5.512  0.2637 -0.0722 -0.4468
  232MOL0     C31196  10.471   3.048   5.595  0.4812 -0.5157  0.2896
  232MOL0     C31197  10.491   3.127   5.726 -0.0314 -0.2251  0.1645
  232MOL0     C31198  10.374   3.094   5.826 -0.4782  0.0818 -0.2157
  232MOL0     C31199  10.374   3.175   5.949  0.4484 -0.2866  0.3231
  232MOL0     C31200  10.497   3.135   6.040 -0.9371 -0.0037 -1.0009
  232MOL0     C31201  10.479   2.987   6.099 -1.2642  0.1304 -0.2076
  232MOL0     N31202  10.365   2.972   6.182 -0.4274  0.5426 -0.4642
  232MOL0     C31203  10.356   3.005   6.317 -0.4392 -0.3411  0.2782
  232MOL0     C31204  10.249   2.941   6.377 -0.6525 -0.1798  0.0898
  232MOL0     C31205  10.201   2.964   6.519  0.6954 -0.5843  0.5810
  232MOL0     C31206  10.137   3.105   6.542  0.7339 -0.9215  0.1637
  232MOL0     C31207  10.034   3.155   6.441 -1.4474 -0.3204  0.8210
  232MOL0     C31208   9.953   3.270   6.501 -0.3852 -0.1562  0.4897
  232MOL0     O31209   9.876   3.330   6.393 -0.3028  0.1007  0.5884
  232MOL0     C31210   9.759   3.391   6.419 -0.7309  0.3930  1.7412
  232MOL0     C31211   9.712   3.434   6.546 -0.2657  0.2599 -0.1664
  232MOL0     C31212   9.581   3.497   6.563 -0.2331  0.3757 -1.2011
  232MOL0     C31213   9.541   3.527   6.709 -0.6055  0.4555 -0.8921
  232MOL0     C31214   9.504   3.512   6.450  0.3620  0.5960 -0.5583
  232MOL0     C31215   9.370   3.568   6.450  1.0714  0.3842  0.2427
  232MOL0     O31216   9.317   3.618   6.567  0.3207  0.2841 -0.4563
  232MOL0     C31217   9.215   3.709   6.556 -0.2819 -0.3206  0.2630
  232MOL0     C31218   9.225   3.833   6.622 -0.7266  0.6018 -0.1355
  232MOL0     C31219   9.110   3.909   6.636 -0.3316 -0.4954  0.7571
  232MOL0     C31220   8.986   3.870   6.577 -0.3346  0.2636 -0.3714
  232MOL0     O31221   8.863   3.943   6.579  0.4243 -0.3187 -0.5657
  232MOL0     C31222   8.872   4.081   6.612 -0.4847  0.0556 -0.0920
  232MOL0     C31223   8.766   4.161   6.549  0.4278  0.5138  1.1608
  232MOL0     C31224   8.788   4.305   6.576 -0.9182 -0.5617 -0.3718
  232MOL0     C31225   8.671   4.365   6.665 -0.3006  0.4649  0.0084
  232MOL0     C31226   8.699   4.519   6.700  0.3229 -0.1959  0.3153
  232MOL0     C31227   8.581   4.573   6.782 -0.5709  0.3301 -0.3461
  232MOL0     C31228   8.448   4.593   6.703 -0.1875  0.1404 -0.5172
  232MOL0     C31229   8.342   4.487   6.737  0.1799 -0.2001  0.4666
  232MOL0    Cl31230   8.280   4.459   6.907 -0.1661 -0.2001 -0.1436
  232MOL0     C31231   8.982   3.753   6.506  1.0805  0.1579  0.5953
  232MOL0     C31232   9.089   3.678   6.500 -0.2662 -0.1995 -0.0995
  232MOL0     O31233   9.302   3.557   6.347  0.3072 -0.3228 -0.0502
  232MOL0     C31234   9.545   3.455   6.329  0.8421 -0.0848  0.1665
  232MOL0     C31235   9.670   3.392   6.308 -0.9191  0.4629 -0.6826
  232MOL0     N31236  10.196   2.860   6.278 -0.2926  0.0682  0.0897
  232MOL0     N31237  10.264   2.882   6.160  0.1601  0.1351  0.3258
  232MOL0     C31238  10.520   2.704   5.221  0.6849  0.0340  0.5624
  232MOL0     C31239  10.487   2.640   5.104 -0.0237  0.9333 -0.0080
  232MOL0     C31240  10.399   2.600   4.630  0.1369 -0.0968 -0.2125
  232MOL0     C31241  10.455   2.600   4.506 -0.2762 -0.1612  0.5185
  232MOL0     C31242  10.394   2.537   4.392  0.7584 -0.0697  0.0693
  232MOL0     C31243  10.286   2.457   4.419 -0.3219 -0.2601 -0.5405
  232MOL0     O31244  10.229   2.396   4.305  0.1864  0.1043 -1.0388
  232MOL0     C31245  10.140   2.285   4.318 -0.1564  0.1803 -0.0584
  232MOL0     C31246  10.163   2.171   4.409 -0.3072 -0.0217  0.2949
  232MOL0     C31247  10.085   2.056   4.349 -0.4041  0.1772 -0.4900
  232MOL0     C31248  10.141   1.929   4.411 -0.1361  0.9519 -0.1826
  232MOL0     C31249  10.271   1.881   4.361  0.5239  0.0000 -0.2359
  232MOL0     C31250  10.381   1.845   4.333  0.1877  0.0719  0.8037
  232MOL0     C31251  10.229   2.456   4.547  0.9443 -0.2605 -0.0640
  232MOL0     C31252  10.290   2.530   4.647 -0.2196 -0.0652 -0.4204
  232MOL0     H31253  10.477   2.900   4.893 -0.0089 -1.0992 -0.7377
  232MOL0     H31254  10.559   3.019   5.097 -2.7631 -0.1392 -1.5532
  232MOL0     H31255  10.694   3.055   5.312 -1.8281  3.2823 -0.1760
  232MOL0     H31256  10.523   3.087   5.317  0.2322 -0.8785 -1.3383
  232MOL0     H31257  10.680   3.010   5.566 -1.9455 -1.5147  1.0126
  232MOL0     H31258  10.638   3.177   5.512 -3.7574  1.3322 -2.6238
  232MOL0     H31259  10.386   3.090   5.540  1.3443  2.8272  1.3215
  232MOL0     H31260  10.456   2.943   5.622 -0.9383 -1.1788 -2.6322
  232MOL0     H31261  10.587   3.095   5.768  0.4791 -0.2830 -1.0057
  232MOL0     H31262  10.490   3.234   5.703 -0.2075 -0.0228  1.0503
  232MOL0     H31263  10.284   3.122   5.770 -1.2921 -0.3516  0.8505
  232MOL0     H31264  10.371   2.987   5.844 -1.9339 -0.0636 -1.0858
  232MOL0     H31265  10.371   3.279   5.915  1.1139  0.3479  2.1293
  232MOL0     H31266  10.279   3.150   5.998 -1.4432 -0.4533 -3.1075
  232MOL0     H31267  10.594   3.140   5.990  0.8829 -2.1207  2.0186
  232MOL0     H31268  10.498   3.216   6.113 -0.9338  3.2290 -4.2709
  232MOL0     H31269  10.571   2.959   6.151 -1.2331  1.3054  0.3979
  232MOL0     H31270  10.482   2.915   6.017  1.9262 -1.8820  1.4894
  232MOL0     H31271  10.421   3.075   6.369 -0.2543  0.8782 -1.5059
  232MOL0     H31272  10.126   2.885   6.535 -0.9096  0.3988 -1.5336
  232MOL0     H31273  10.286   2.969   6.587  2.0511  1.8277 -1.1793
  232MOL0     H31274  10.214   3.181   6.558 -1.3556  1.5104 -0.6303
  232MOL0     H31275  10.090   3.101   6.640  1.6200  0.6882  0.6960
  232MOL0     H31276   9.965   3.072   6.420 -0.8736 -0.4374 -0.6887
  232MOL0     H31277  10.078   3.179   6.344 -0.2569 -1.9979  0.8987
  232MOL0     H31278  10.024   3.347   6.533 -0.7970  1.4633 -2.1230
  232MOL0     H31279   9.894   3.230   6.584 -0.4011  0.0661  0.5847
  232MOL0     H31280   9.782   3.410   6.625  1.2254  1.2245 -1.1551
  232MOL0     H31281   9.471   3.449   6.741 -0.6856 -0.2630 -2.7314
  232MOL0     H31282   9.628   3.514   6.774 -1.4681 -1.1708 -0.0101
  232MOL0     H31283   9.504   3.629   6.721  0.9745  1.0785 -1.0601
  232MOL0     H31284   9.319   3.846   6.675 -0.3978 -2.7626  0.3795
  232MOL0     H31285   9.116   3.996   6.701  0.5985 -0.3702  0.5048
  232MOL0     H31286   8.858   4.087   6.720 -1.0869 -0.7923 -0.1071
  232MOL0     H31287   8.965   4.124   6.575 -0.8090  0.8371 -0.0152
  232MOL0     H31288   8.771   4.145   6.441 -0.9098  0.6141  1.0694
  232MOL0     H31289   8.664   4.138   6.579 -0.6544  0.6850 -2.0520
  232MOL0     H31290   8.803   4.357   6.480  0.2213  0.6435  0.4181
  232MOL0     H31291   8.885   4.322   6.625 -2.1616 -0.6421  2.2867
  232MOL0     H31292   8.576   4.356   6.612  0.5177 -0.2003 -1.4229
  232MOL0     H31293   8.675   4.312   6.760  0.3954  1.9436  0.8519
  232MOL0     H31294   8.705   4.577   6.607 -1.0005 -0.0446  0.3100
  232MOL0     H31295   8.791   4.537   6.757  0.0795  0.2679  0.5684
  232MOL0     H31296   8.579   4.528   6.882  0.0239 -0.6433 -0.7591
  232MOL0     H31297   8.615   4.675   6.802 -1.5914  0.7260 -0.5827
  232MOL0     H31298   8.462   4.601   6.595 -2.5145  4.1450 -0.6959
  232MOL0     H31299   8.406   4.691   6.725  0.2843  0.3604 -0.5838
  232MOL0     H31300   8.387   4.396   6.699  1.0791  1.4759 -2.8784
  232MOL0     H31301   8.257   4.506   6.670  2.7088 -1.5095 -3.3915
  232MOL0     H31302   8.892   3.720   6.455  1.3304 -1.6035  1.2444
  232MOL0     H31303   9.083   3.581   6.451 -1.0261 -1.1299  1.7555
  232MOL0     H31304   9.483   3.459   6.240  1.1242 -1.5236 -0.1169
  232MOL0     H31305   9.695   3.352   6.210  0.3850  0.3452 -0.3190
  232MOL0     H31306  10.525   2.647   5.313  0.2529  0.7533  1.0381
  232MOL0     H31307  10.462   2.535   5.100 -1.1327  1.1006  1.4227
  232MOL0     H31308  10.548   2.654   4.491  0.1480 -1.2070 -0.7679
  232MOL0     H31309  10.425   2.537   4.288 -2.2390  3.1336 -1.0300
  232MOL0     H31310  10.045   2.333   4.343 -1.5739 -2.8241  0.7030
  232MOL0     H31311  10.123   2.252   4.216 -1.8083 -2.0382  0.8585
  232MOL0     H31312  10.119   2.193   4.507 -0.0238  0.2634  0.3589
  232MOL0     H31313  10.270   2.148   4.409  0.2098  2.1645 -0.2051
  232MOL0     H31314  10.090   2.041   4.241  1.6220 -0.8196 -0.3163
  232MOL0     H31315   9.980   2.072   4.373 -0.2464  0.4122  0.0742
  232MOL0     H31316  10.066   1.853   4.389 -0.9696  0.9908  2.3197
  232MOL0     H31317  10.152   1.942   4.519 -2.0642 -0.3392  0.2006
  232MOL0     H31318  10.476   1.811   4.299 -1.9308 -2.0254 -3.9800
  232MOL0     H31319  10.138   2.406   4.581  0.6383  1.2639  1.5169
  232MOL0     H31320  10.249   2.506   4.745  1.7330 -2.3531 -0.0670
  233MOL0     O31321   9.617   9.316   1.715 -0.1457  0.5874 -0.4758
  233MOL0     C31322   9.671   9.362   1.616  0.2530 -0.1678 -0.0606
  233MOL0     O31323   9.639   9.344   1.490 -0.2327  0.5815 -0.1669
  233MOL0     C31324   9.543   9.259   1.454  0.3083 -0.1467  0.6535
  233MOL0     C31325   9.412   9.276   1.492 -0.1295 -0.2738  0.1292
  233MOL0     C31326   9.320   9.198   1.443  0.5107  1.6597 -0.1881
  233MOL0     C31327   9.345   9.101   1.350 -0.0800  1.4903  0.0600
  233MOL0     O31328   9.237   9.037   1.287 -0.0920 -0.6775  0.1540
  233MOL0     C31329   9.116   9.015   1.362 -0.3979 -0.2352 -0.4117
  233MOL0     C31330   9.045   8.884   1.325  0.6208 -0.1811 -0.1602
  233MOL0     C31331   8.896   8.887   1.322  0.2874  0.7347  0.2604
  233MOL0     C31332   8.845   8.744   1.298 -1.0411  0.2166 -0.0869
  233MOL0     C31333   8.703   8.747   1.262  0.0510 -0.1148  0.2887
  233MOL0     C31334   8.653   8.606   1.243 -0.0651  0.0639 -0.0306
  233MOL0     C31335   8.501   8.601   1.221 -0.2356  0.6389 -0.7262
  233MOL0     C31336   8.457   8.448   1.175 -0.0235  0.3500  0.2515
  233MOL0     N31337   8.310   8.430   1.204 -0.3438 -0.1273 -0.7437
  233MOL0     C31338   8.231   8.488   1.304  0.6924 -0.1173  0.0150
  233MOL0     C31339   8.101   8.439   1.291 -0.2543 -0.4716  0.9498
  233MOL0     C31340   7.986   8.494   1.368 -0.2454 -0.3769  0.4321
  233MOL0     C31341   7.861   8.412   1.346 -0.2122 -0.1814  0.7390
  233MOL0     C31342   7.873   8.278   1.424  0.2446  0.8333 -0.8071
  233MOL0     C31343   7.752   8.185   1.391 -0.2455 -0.1426  1.2980
  233MOL0     O31344   7.625   8.261   1.383 -0.8426 -0.2533 -0.2173
  233MOL0     C31345   7.511   8.204   1.335 -0.7436  1.3886 -0.1496
  233MOL0     C31346   7.499   8.068   1.289 -0.1715 -0.1074 -0.1177
  233MOL0     C31347   7.379   8.002   1.258  0.0953 -0.0948 -0.1694
  233MOL0     C31348   7.376   7.861   1.201 -0.2602  0.6493 -0.1622
  233MOL0     C31349   7.261   8.074   1.272 -0.3889 -0.8353  0.0186
  233MOL0     C31350   7.119   8.027   1.240  1.0088  0.1765  0.7505
  233MOL0     O31351   7.019   8.127   1.257 -0.8178 -0.1921 -0.5219
  233MOL0     C31352   6.892   8.106   1.213 -0.0353  0.2589  0.1030
  233MOL0     C31353   6.854   8.039   1.094 -0.1155 -0.1677 -0.0031
  233MOL0     C31354   6.726   8.012   1.053 -0.5512  0.1733  0.5852
  233MOL0     C31355   6.630   8.061   1.130  0.3505 -0.0628 -0.2015
  233MOL0     O31356   6.501   8.016   1.100  0.3919 -0.1160  0.0734
  233MOL0     C31357   6.382   8.041   1.173 -0.7588  0.0471 -0.4504
  233MOL0     C31358   6.258   8.005   1.088 -0.9760 -0.3143 -0.2457
  233MOL0     C31359   6.137   7.976   1.188  0.9972  0.3373 -0.5800
  233MOL0     C31360   6.023   7.910   1.098 -0.2445 -0.5488 -0.0210
  233MOL0     C31361   5.944   7.800   1.174  0.1096 -0.6959  0.5911
  233MOL0     C31362   5.861   7.854   1.301 -0.0064 -0.4295  0.6236
  233MOL0     C31363   5.781   7.983   1.275 -0.5208  1.0198 -0.4884
  233MOL0     C31364   5.708   8.017   1.406  0.7949 -0.0768  0.1824
  233MOL0    Cl31365   5.654   8.177   1.387  0.5523 -0.2080 -0.0461
  233MOL0     C31366   6.654   8.148   1.240 -0.3235 -0.7642 -0.1022
  233MOL0     C31367   6.781   8.165   1.290 -0.1138  0.2813  0.7590
  233MOL0     O31368   7.096   7.913   1.199  0.1017  0.0805  0.5436
  233MOL0     C31369   7.272   8.211   1.306  0.1371 -0.6613 -1.0377
  233MOL0     C31370   7.394   8.278   1.340 -0.5655  0.0578  1.0162
  233MOL0     N31371   8.105   8.356   1.177  0.9112  0.7166  0.5212
  233MOL0     N31372   8.231   8.344   1.135 -0.7973 -0.1257 -0.3976
  233MOL0     C31373   9.478   9.075   1.321  0.3810 -0.9754 -0.3684
  233MOL0     C31374   9.578   9.159   1.370 -0.2295 -0.0111 -0.6147
  233MOL0     C31375   9.789   9.455   1.650 -0.0940  0.7163 -0.1836
  233MOL0     C31376   9.852   9.527   1.546  0.2385  0.3082  0.1479
  233MOL0     C31377   9.964   9.605   1.568 -0.7551 -0.8550 -0.2930
  233MOL0     C31378  10.023   9.604   1.697  0.2253 -0.3336  0.5174
  233MOL0     O31379  10.134   9.682   1.705  0.5870  0.3421  0.3785
  233MOL0     C31380  10.203   9.673   1.831 -0.7393  0.3410 -0.8449
  233MOL0     C31381  10.340   9.741   1.833  0.2128  0.9467  0.7705
  233MOL0     C31382  10.418   9.696   1.705  0.2714  0.1093  0.0168
  233MOL0     C31383  10.560   9.736   1.703 -0.0924  0.1857  0.0147
  233MOL0     C31384  10.591   9.875   1.739 -0.1961 -0.3305 -0.1054
  233MOL0     C31385  10.613   9.989   1.776 -0.4579  0.5182 -0.7695
  233MOL0     C31386   9.956   9.538   1.806 -0.2700  0.2524  1.1174
  233MOL0     C31387   9.843   9.464   1.782  1.2419 -0.2195 -0.1958
  233MOL0     H31388   9.381   9.362   1.552  0.7529  1.7753 -2.1818
  233MOL0     H31389   9.216   9.214   1.470  0.7625  2.2717  0.4501
  233MOL0     H31390   9.126   9.008   1.471  1.8983  1.9389 -0.3863
  233MOL0     H31391   9.063   9.104   1.329  3.1604  1.5887 -1.7814
  233MOL0     H31392   9.076   8.862   1.222  2.7402  1.4494  0.0423
  233MOL0     H31393   9.079   8.800   1.385  1.4343 -3.0074 -4.1532
  233MOL0     H31394   8.855   8.927   1.415  0.1074 -4.2119  2.6244
  233MOL0     H31395   8.857   8.945   1.238 -0.4165 -1.8689 -1.3342
  233MOL0     H31396   8.903   8.690   1.223 -2.7346 -2.6028  0.4775
  233MOL0     H31397   8.852   8.688   1.392  0.7305  1.9174  0.8710
  233MOL0     H31398   8.642   8.802   1.335 -0.8968 -3.8214  2.5624
  233MOL0     H31399   8.695   8.784   1.159 -0.4196 -1.2693 -0.1040
  233MOL0     H31400   8.703   8.563   1.156 -1.0481 -2.1041  0.3990
  233MOL0     H31401   8.685   8.549   1.331  1.3928 -0.8379 -1.0940
  233MOL0     H31402   8.457   8.638   1.314  1.2991  0.0425  0.2763
  233MOL0     H31403   8.462   8.666   1.141 -1.8616 -0.8700 -1.2149
  233MOL0     H31404   8.508   8.372   1.235 -0.7808 -1.0114 -0.7796
  233MOL0     H31405   8.477   8.418   1.072  3.2873  0.9698  0.5911
  233MOL0     H31406   8.256   8.562   1.380  0.7979  0.5649 -0.6731
  233MOL0     H31407   8.014   8.515   1.472  1.6104  3.4993 -0.6411
  233MOL0     H31408   7.969   8.590   1.319  1.6280  0.6655  1.6723
  233MOL0     H31409   7.836   8.410   1.240 -0.0183  2.4647  0.5822
  233MOL0     H31410   7.778   8.471   1.387  0.3195  1.7750 -0.8526
  233MOL0     H31411   7.878   8.295   1.532  0.8057 -0.5563 -0.6002
  233MOL0     H31412   7.953   8.207   1.400  2.1029  1.4832  2.7986
  233MOL0     H31413   7.748   8.107   1.467  3.5860  0.5327  2.3886
  233MOL0     H31414   7.768   8.128   1.299 -0.7889  0.9857  0.4674
  233MOL0     H31415   7.594   8.020   1.271  0.0950  0.4266 -0.1460
  233MOL0     H31416   7.327   7.790   1.268 -1.9420  1.2705 -0.6870
  233MOL0     H31417   7.314   7.848   1.113 -1.7548 -1.2335  1.0966
  233MOL0     H31418   7.480   7.832   1.182 -0.6016 -1.3200  0.7972
  233MOL0     H31419   6.930   7.982   1.041 -0.3816  0.6420 -1.2836
  233MOL0     H31420   6.717   7.955   0.961  0.8241  2.3440 -1.0233
  233MOL0     H31421   6.387   7.981   1.264  1.2033 -1.5173 -1.5132
  233MOL0     H31422   6.378   8.147   1.202 -1.2144 -0.2490  0.6295
  233MOL0     H31423   6.245   8.090   1.021  2.9000  2.2285  1.8518
  233MOL0     H31424   6.280   7.912   1.034 -1.6233 -0.1822 -0.7500
  233MOL0     H31425   6.092   8.067   1.228 -1.0252 -0.7140 -0.3562
  233MOL0     H31426   6.163   7.907   1.269 -1.8256  1.1398  1.1514
  233MOL0     H31427   5.951   7.990   1.079 -1.5499 -1.2145  1.8570
  233MOL0     H31428   6.058   7.875   1.000 -2.1296 -3.3366  0.1662
  233MOL0     H31429   6.018   7.732   1.216  2.9170  1.6290 -0.2403
  233MOL0     H31430   5.871   7.750   1.110 -1.1293  0.9600  0.6337
  233MOL0     H31431   5.791   7.776   1.333  1.4716 -1.7304  0.8078
  233MOL0     H31432   5.940   7.871   1.375  0.5448 -2.7270  0.6524
  233MOL0     H31433   5.723   7.978   1.182 -3.3292  3.1511  1.0068
  233MOL0     H31434   5.855   8.062   1.266  0.4522  0.1884 -0.0262
  233MOL0     H31435   5.767   8.029   1.498 -0.0248 -0.0281  0.7166
  233MOL0     H31436   5.629   7.944   1.427  0.6929  0.1144  0.4714
  233MOL0     H31437   6.571   8.183   1.301  1.1339  0.0672  1.4732
  233MOL0     H31438   6.809   8.219   1.379  1.3354 -0.1204  0.5813
  233MOL0     H31439   7.179   8.267   1.315 -0.5093 -1.9383  1.1683
  233MOL0     H31440   7.404   8.376   1.386  2.2507  1.2719 -1.8209
  233MOL0     H31441   9.498   8.990   1.257  2.1666 -0.4506 -0.5790
  233MOL0     H31442   9.672   9.143   1.318 -0.0236  2.1142 -0.9759
  233MOL0     H31443   9.828   9.514   1.441  1.6796  1.8164 -0.4097
  233MOL0     H31444  10.020   9.651   1.487 -0.7608  0.2603  0.3109
  233MOL0     H31445  10.135   9.715   1.904 -1.0380  3.7806 -2.9014
  233MOL0     H31446  10.222   9.571   1.866 -2.8904  0.7402  1.7900
  233MOL0     H31447  10.399   9.705   1.918 -0.5154 -0.8590  0.5497
  233MOL0     H31448  10.323   9.848   1.847 -1.0301  0.6530  1.7009
  233MOL0     H31449  10.370   9.731   1.613  1.0609  0.4592 -0.2691
  233MOL0     H31450  10.411   9.587   1.697  2.6122 -0.2718  2.0281
  233MOL0     H31451  10.589   9.711   1.600 -1.3034 -3.1293  0.3713
  233MOL0     H31452  10.614   9.667   1.769  0.4910  0.6211  0.0047
  233MOL0     H31453  10.622  10.092   1.805  1.6752  0.7998 -2.1916
  233MOL0     H31454   9.990   9.531   1.909 -0.8809 -0.6821  1.2649
  233MOL0     H31455   9.806   9.413   1.871  1.3473 -1.2855 -0.7521
  234MOL0     O31456   5.516   7.428   7.725 -0.0978 -0.8217  0.6590
  234MOL0     C31457   5.453   7.418   7.834 -0.0037 -0.7854 -0.5180
  234MOL0     O31458   5.498   7.446   7.962  0.6516 -0.0957  0.9989
  234MOL0     C31459   5.639   7.448   7.965 -0.4791 -0.7487 -1.0675
  234MOL0     C31460   5.711   7.561   7.920 -0.4014 -0.2151 -0.5691
  234MOL0     C31461   5.845   7.559   7.919 -0.0208 -0.2089 -0.1514
  234MOL0     C31462   5.911   7.448   7.969  0.0271  0.7730  0.1395
  234MOL0     O31463   6.046   7.427   7.964  0.2995 -0.0952  0.0672
  234MOL0     C31464   6.128   7.547   7.945 -0.8079  0.3026 -0.5319
  234MOL0     C31465   6.270   7.516   7.947 -0.2400 -0.6047 -0.8445
  234MOL0     C31466   6.357   7.637   7.914 -0.3671 -0.8403 -0.1382
  234MOL0     C31467   6.497   7.591   7.935 -0.1650  0.4093 -0.5294
  234MOL0     C31468   6.582   7.710   7.922 -0.7007  0.1735 -0.4139
  234MOL0     C31469   6.733   7.657   7.925 -0.0958 -0.5582 -0.1710
  234MOL0     C31470   6.791   7.591   7.798  0.5898 -0.2699 -0.3484
  234MOL0     C31471   6.933   7.574   7.812  0.1764 -0.5258 -0.1920
  234MOL0     N31472   6.996   7.533   7.690  0.4047  0.3159  0.8218
  234MOL0     C31473   7.100   7.456   7.683 -0.7786  0.7132 -0.5109
  234MOL0     C31474   7.134   7.461   7.553  0.3076  0.4520  0.3559
  234MOL0     C31475   7.240   7.383   7.476 -0.4655  0.7736  0.5330
  234MOL0     C31476   7.198   7.238   7.439 -0.4184  0.0939 -0.1560
  234MOL0     C31477   7.095   7.208   7.337  0.5285  0.2907  0.5723
  234MOL0     C31478   7.096   7.066   7.267 -0.6981 -0.0752  0.4739
  234MOL0     O31479   7.034   7.067   7.139 -0.5146 -0.0149 -0.2537
  234MOL0     C31480   6.898   7.048   7.121 -0.0040 -0.1433  0.1131
  234MOL0     C31481   6.874   7.030   6.988 -0.5631  0.5239  0.5449
  234MOL0     C31482   6.753   7.043   6.930 -0.4649  0.2442  0.8100
  234MOL0     C31483   6.736   7.043   6.782 -0.4569  0.8499  0.1041
  234MOL0     C31484   6.639   7.032   7.023 -0.5531 -0.6216 -0.1202
  234MOL0     C31485   6.499   7.008   6.988  0.4347  0.4064  0.1915
  234MOL0     O31486   6.402   7.027   7.079 -0.5272 -0.4111 -0.2199
  234MOL0     C31487   6.276   6.990   7.048  0.0628 -1.0285  0.1835
  234MOL0     C31488   6.209   7.017   6.924 -0.5418  0.1210 -0.1819
  234MOL0     C31489   6.082   6.978   6.893 -0.8546 -0.9390  0.2127
  234MOL0     C31490   6.002   6.931   7.002  0.1832  0.2450 -0.4109
  234MOL0     O31491   5.866   6.923   6.981 -0.0459 -0.6741 -0.0315
  234MOL0     C31492   5.785   6.977   7.091  0.3783  0.5337 -0.0741
  234MOL0     C31493   5.637   6.952   7.047  0.0786 -0.2252  0.5245
  234MOL0     C31494   5.597   7.044   6.930  0.5856  0.1454  0.0081
  234MOL0     C31495   5.460   7.008   6.868 -0.0704 -0.6693 -0.1925
  234MOL0     C31496   5.478   6.920   6.740 -0.3777 -0.2962 -0.4475
  234MOL0     C31497   5.338   6.887   6.681  0.5562 -0.1065  0.1870
  234MOL0     C31498   5.350   6.820   6.544  0.1605  0.0779 -0.0359
  234MOL0     C31499   5.212   6.769   6.493  0.3960  0.1119 -0.0421
  234MOL0    Cl31500   5.102   6.900   6.453 -0.3028  0.1601  0.1181
  234MOL0     C31501   6.062   6.902   7.130 -0.0000 -0.1740  1.2510
  234MOL0     C31502   6.195   6.942   7.149  0.9155  0.4064 -0.9548
  234MOL0     O31503   6.477   6.967   6.877 -0.2588 -0.3670 -0.0295
  234MOL0     C31504   6.664   7.029   7.158  0.4491 -0.0197 -0.3670
  234MOL0     C31505   6.798   7.044   7.212  0.3195 -0.0916 -0.2981
  234MOL0     N31506   7.056   7.557   7.488 -0.5483  0.5864  0.2029
  234MOL0     N31507   6.971   7.599   7.574 -1.2319 -0.4257  0.4103
  234MOL0     C31508   5.846   7.338   8.029 -0.0805  0.6155 -0.3217
  234MOL0     C31509   5.706   7.337   8.030  0.6671 -0.0732 -0.1287
  234MOL0     C31510   5.320   7.369   7.814 -0.0281  0.6847  0.7100
  234MOL0     C31511   5.280   7.315   7.687  0.3507 -1.0453 -0.6755
  234MOL0     C31512   5.150   7.272   7.669 -0.1531 -0.4863  0.0076
  234MOL0     C31513   5.061   7.260   7.774  0.4541 -0.3242  0.4204
  234MOL0     O31514   4.930   7.219   7.763  0.2415 -0.3896 -0.0806
  234MOL0     C31515   4.875   7.172   7.643  0.1816  0.2359 -0.5950
  234MOL0     C31516   4.805   7.285   7.567  0.6484  0.8600 -0.6773
  234MOL0     C31517   4.753   7.246   7.419  1.0882  0.4079  0.3497
  234MOL0     C31518   4.691   7.368   7.347  0.5249 -0.4022  0.3738
  234MOL0     C31519   4.666   7.328   7.205 -0.3616  0.5500  0.4273
  234MOL0     C31520   4.646   7.288   7.089  0.0290  0.4125 -0.4106
  234MOL0     C31521   5.103   7.294   7.902  0.0205  0.4310 -0.3752
  234MOL0     C31522   5.225   7.353   7.922  0.1617  0.3708 -0.0316
  234MOL0     H31523   5.650   7.647   7.895  0.1129  0.0853 -0.8047
  234MOL0     H31524   5.904   7.640   7.876 -1.3461  0.3688 -0.9513
  234MOL0     H31525   6.109   7.592   7.848 -0.9678  1.6482  0.1072
  234MOL0     H31526   6.119   7.624   8.022  4.2434  0.9233 -0.1838
  234MOL0     H31527   6.275   7.466   8.044  0.0564 -2.0104 -1.5608
  234MOL0     H31528   6.294   7.439   7.874 -0.0951 -2.3820  1.0036
  234MOL0     H31529   6.345   7.670   7.810  2.3416  0.0161 -0.2520
  234MOL0     H31530   6.333   7.725   7.974  0.2952 -1.3196  0.8604
  234MOL0     H31531   6.510   7.568   8.041  3.3570 -0.1182 -0.9807
  234MOL0     H31532   6.525   7.508   7.871 -4.1782 -0.3021 -1.6651
  234MOL0     H31533   6.578   7.758   7.824  1.6287  2.2774  0.4254
  234MOL0     H31534   6.562   7.787   7.997  1.5982 -1.9742  2.6132
  234MOL0     H31535   6.794   7.746   7.942 -0.6217 -0.1292 -0.4815
  234MOL0     H31536   6.757   7.593   8.010 -0.2471  1.2281  1.2879
  234MOL0     H31537   6.737   7.497   7.783 -0.6297 -0.1452  2.5569
  234MOL0     H31538   6.766   7.664   7.720  0.6213  0.6869  0.5183
  234MOL0     H31539   6.942   7.493   7.885 -0.0391  1.4260  2.1284
  234MOL0     H31540   6.981   7.661   7.859 -0.6051 -0.6995  0.9433
  234MOL0     H31541   7.150   7.396   7.758 -0.1432  0.4989 -1.0986
  234MOL0     H31542   7.266   7.440   7.387 -0.3169  0.9936  0.7186
  234MOL0     H31543   7.328   7.369   7.539 -0.8206  0.9823  1.0929
  234MOL0     H31544   7.166   7.187   7.530  1.3022  2.0583  1.6488
  234MOL0     H31545   7.294   7.203   7.402 -1.5357 -0.6512 -2.5708
  234MOL0     H31546   7.107   7.287   7.262  1.1550  0.4965  0.8765
  234MOL0     H31547   6.996   7.215   7.383  0.2426 -1.0485  0.1939
  234MOL0     H31548   7.042   6.994   7.329 -0.7830 -0.4226  0.0017
  234MOL0     H31549   7.200   7.030   7.267 -0.1577  1.3252 -1.4962
  234MOL0     H31550   6.961   7.024   6.924  0.5235 -0.0386  2.0029
  234MOL0     H31551   6.725   6.942   6.743  1.1981  1.0782 -1.0910
  234MOL0     H31552   6.654   7.109   6.752  0.3698  1.7182 -0.3289
  234MOL0     H31553   6.825   7.080   6.730 -1.5503  2.2662 -0.8427
  234MOL0     H31554   6.275   7.054   6.847 -0.9187 -2.4835 -1.9049
  234MOL0     H31555   6.039   7.009   6.798 -1.5793 -1.0082  0.5111
  234MOL0     H31556   5.808   6.923   7.183  1.2666  1.0964  0.0457
  234MOL0     H31557   5.799   7.083   7.113 -2.3162  0.7460  0.9265
  234MOL0     H31558   5.623   6.847   7.019  0.5882  0.1720 -1.3416
  234MOL0     H31559   5.567   6.974   7.129 -1.7142  0.4823 -1.1159
  234MOL0     H31560   5.666   7.043   6.846 -0.8944 -2.1641 -1.2829
  234MOL0     H31561   5.571   7.140   6.976 -0.0435 -0.7282  1.5664
  234MOL0     H31562   5.399   6.957   6.944  4.2604 -4.8858  0.9941
  234MOL0     H31563   5.405   7.098   6.838  1.8136  0.3395 -0.7574
  234MOL0     H31564   5.527   6.826   6.766  1.0270  0.2090 -1.1242
  234MOL0     H31565   5.536   6.980   6.668 -1.7033  1.4844 -0.1085
  234MOL0     H31566   5.286   6.809   6.738  0.4931 -1.2684 -1.3954
  234MOL0     H31567   5.290   6.985   6.676  0.9143  0.0454 -0.3882
  234MOL0     H31568   5.425   6.740   6.546  3.1150  2.6473  1.4372
  234MOL0     H31569   5.388   6.892   6.471 -0.9213  1.5334  0.7940
  234MOL0     H31570   5.163   6.701   6.564  0.1821 -0.9486 -1.1680
  234MOL0     H31571   5.237   6.705   6.408  0.3390 -1.8982  1.3776
  234MOL0     H31572   6.007   6.868   7.217  0.4007 -0.3859  1.4250
  234MOL0     H31573   6.235   6.921   7.248 -1.2760  3.1251  0.6461
  234MOL0     H31574   6.580   7.030   7.227 -0.5361 -1.3671 -1.4704
  234MOL0     H31575   6.810   7.051   7.320 -0.7318 -0.1443 -0.1625
  234MOL0     H31576   5.909   7.263   8.075 -2.0642  0.9132  3.2608
  234MOL0     H31577   5.645   7.252   8.059 -1.3522  1.3241 -0.0252
  234MOL0     H31578   5.337   7.321   7.595 -1.4470  1.4302 -1.7390
  234MOL0     H31579   5.126   7.244   7.567  3.6051 -0.3024 -1.0801
  234MOL0     H31580   4.954   7.137   7.576  1.1081 -0.3172  0.7235
  234MOL0     H31581   4.808   7.089   7.670  0.0559  1.0321  1.7580
  234MOL0     H31582   4.879   7.365   7.559  2.0849 -0.4100 -0.5937
  234MOL0     H31583   4.724   7.321   7.631 -1.3421 -2.6978 -0.9708
  234MOL0     H31584   4.674   7.175   7.443  2.6515 -1.9126 -0.9279
  234MOL0     H31585   4.821   7.189   7.355 -2.6493 -1.4465 -2.3001
  234MOL0     H31586   4.749   7.461   7.349 -1.7912  1.1089  1.1786
  234MOL0     H31587   4.593   7.392   7.390 -0.1458 -2.9303  0.4011
  234MOL0     H31588   4.644   7.258   6.986 -2.8183  0.3829 -0.4129
  234MOL0     H31589   5.037   7.279   7.987  1.8680 -1.5147  0.8216
  234MOL0     H31590   5.265   7.383   8.018  2.5327 -1.8757 -0.2118
  235MOL0     O31591   1.006   9.892   8.326 -0.1293 -0.3460 -0.4328
  235MOL0     C31592   0.983   9.979   8.249 -0.4847 -0.3797  0.4022
  235MOL0     O31593   0.945   9.953   8.121  0.2981  0.8446  0.2359
  235MOL0     C31594   0.936   9.814   8.099  0.3638  0.1765  0.0381
  235MOL0     C31595   0.827   9.743   8.148  0.3847 -0.0805 -0.0855
  235MOL0     C31596   0.801   9.616   8.111  0.3338  1.0044  0.8542
  235MOL0     C31597   0.889   9.546   8.030 -0.0704 -0.2742 -0.1334
  235MOL0     O31598   0.850   9.419   8.000 -0.1128  0.0151 -0.0387
  235MOL0     C31599   0.931   9.339   7.923  0.3187  0.3523 -0.5769
  235MOL0     C31600   0.851   9.235   7.849 -0.4451  0.5175 -0.3799
  235MOL0     C31601   0.939   9.111   7.823  0.1518  0.3051 -0.0412
  235MOL0     C31602   0.866   9.013   7.734 -0.8060 -0.4032  0.2606
  235MOL0     C31603   0.787   8.916   7.819  0.1688  0.4551  0.2149
  235MOL0     C31604   0.705   8.813   7.728  0.1946  0.4048 -0.3394
  235MOL0     C31605   0.581   8.876   7.658 -0.1345 -0.3290  0.1226
  235MOL0     C31606   0.480   8.776   7.592  0.3040 -0.8189 -0.3238
  235MOL0     N31607   0.371   8.838   7.504 -0.3291  0.1714  0.5014
  235MOL0     C31608   0.272   8.923   7.552 -0.2113 -0.3757  0.6082
  235MOL0     C31609   0.204   8.963   7.441  1.2144  0.3719 -0.3257
  235MOL0     C31610   0.098   9.061   7.412  0.3550 -0.0050  0.4675
  235MOL0     C31611   0.111   9.150   7.296  0.0870 -0.4882 -0.2423
  235MOL0     C31612  -0.017   9.222   7.261 -0.0908 -0.0938  0.7044
  235MOL0     C31613  -0.122   9.117   7.211  0.2394 -0.2821  0.8932
  235MOL0     O31614  -0.212   9.193   7.126  0.5302  0.8293  0.5458
  235MOL0     C31615  -0.340   9.147   7.096 -0.0065  0.2451 -0.1383
  235MOL0     C31616  -0.428   9.235   7.042  0.3437  0.2307  0.6138
  235MOL0     C31617  -0.561   9.197   7.010 -0.2507  0.1093 -0.4426
  235MOL0     C31618  -0.639   9.302   6.933 -0.2824  0.1168 -0.2791
  235MOL0     C31619  -0.605   9.069   7.038 -0.6951  0.3852 -0.4457
  235MOL0     C31620  -0.739   9.023   7.003  0.4806 -0.6168  0.4087
  235MOL0     O31621  -0.834   9.102   6.956 -0.3355  0.0618  0.5186
  235MOL0     C31622  -0.963   9.054   6.921 -0.6118 -0.0013 -0.2591
  235MOL0     C31623  -1.063   9.036   7.012  0.1087 -1.0726 -0.2586
  235MOL0     C31624  -1.187   8.989   6.971 -0.4857  0.6995  0.1458
  235MOL0     C31625  -1.225   8.983   6.838 -0.2461  0.1744 -0.6486
  235MOL0     O31626  -1.350   8.958   6.790  0.8541 -0.9852 -0.0595
  235MOL0     C31627  -1.455   9.018   6.866  0.4026 -0.2910  0.1471
  235MOL0     C31628  -1.592   8.976   6.807 -0.3429  0.3164 -0.6034
  235MOL0     C31629  -1.723   9.022   6.886 -0.3320  0.0247  0.3514
  235MOL0     C31630  -1.749   9.171   6.843 -0.2834  0.2100 -0.8042
  235MOL0     C31631  -1.895   9.197   6.808 -0.6609  1.0955  0.3141
  235MOL0     C31632  -1.914   9.347   6.780 -0.5240 -0.0188  0.2846
  235MOL0     C31633  -2.058   9.383   6.744  0.3087  0.1002 -0.2234
  235MOL0     C31634  -2.082   9.531   6.778 -0.6884 -0.0120  0.4041
  235MOL0    Cl31635  -2.250   9.585   6.815 -0.3283 -0.1546  0.3149
  235MOL0     C31636  -1.126   9.007   6.745 -0.8423 -0.4907 -0.3344
  235MOL0     C31637  -0.990   9.043   6.784 -0.2301 -0.2145  0.2743
  235MOL0     O31638  -0.758   8.902   7.013  0.4569 -0.5257 -0.1834
  235MOL0     C31639  -0.518   8.980   7.093  0.8625  0.0094 -0.8752
  235MOL0     C31640  -0.382   9.014   7.119  0.0536 -0.3704 -0.3678
  235MOL0     N31641   0.280   8.911   7.330 -0.2494  0.3205  0.6044
  235MOL0     N31642   0.386   8.851   7.374 -0.6660  0.4572  0.8339
  235MOL0     C31643   0.999   9.619   7.972 -0.1755 -0.5104  0.1854
  235MOL0     C31644   1.021   9.755   8.009  0.0895  0.4306  0.8308
  235MOL0     C31645   1.005  10.115   8.295 -0.6406 -0.6114  0.1973
  235MOL0     C31646   1.034  10.223   8.212  0.9892 -0.0622  0.1517
  235MOL0     C31647   1.067  10.355   8.248  0.1659 -0.6437 -0.0056
  235MOL0     C31648   1.073  10.384   8.386  0.3529 -0.2646  0.9738
  235MOL0     O31649   1.110  10.506   8.428 -0.5740 -0.6984  0.2335
  235MOL0     C31650   1.210  10.534   8.530  0.1760 -0.6500  0.1351
  235MOL0     C31651   1.349  10.515   8.484  0.4036  0.6914  0.5456
  235MOL0     C31652   1.375  10.588   8.356  0.1084 -0.5182 -0.6450
  235MOL0     C31653   1.525  10.588   8.334  0.0275 -0.2215  0.6206
  235MOL0     C31654   1.606  10.668   8.419 -0.0256 -0.5624 -0.8473
  235MOL0     C31655   1.674  10.732   8.502  0.9495 -1.2809  0.1418
  235MOL0     C31656   1.041  10.285   8.483  1.3540  0.7236 -0.5277
  235MOL0     C31657   1.005  10.155   8.433  0.1173 -0.1231 -0.0158
  235MOL0     H31658   0.766   9.800   8.218  1.9051  0.5224  0.7947
  235MOL0     H31659   0.712   9.566   8.149 -0.9817  0.4407 -2.5438
  235MOL0     H31660   0.980   9.396   7.844 -0.9701  0.2021 -1.5111
  235MOL0     H31661   1.001   9.295   7.995  0.4445  1.9634  0.3264
  235MOL0     H31662   0.758   9.212   7.900 -1.0189  1.4521 -0.9644
  235MOL0     H31663   0.815   9.284   7.758  1.1783  4.0637  0.6941
  235MOL0     H31664   1.024   9.153   7.769  2.0632 -0.1445  2.4178
  235MOL0     H31665   0.961   9.069   7.922  1.1808  0.0546 -0.3590
  235MOL0     H31666   0.805   9.082   7.675  1.5169  1.6703  0.1241
  235MOL0     H31667   0.939   8.960   7.672 -1.2604 -0.4955 -0.1949
  235MOL0     H31668   0.864   8.864   7.877  0.1715 -0.3325 -0.4710
  235MOL0     H31669   0.712   8.964   7.881 -2.2937 -0.9327 -1.5169
  235MOL0     H31670   0.781   8.770   7.662  1.5262  0.9069  0.8136
  235MOL0     H31671   0.668   8.732   7.792 -0.7889  1.8563  1.0138
  235MOL0     H31672   0.517   8.919   7.735  1.3375  1.0345  0.6410
  235MOL0     H31673   0.611   8.944   7.578 -1.5735 -1.7032 -1.6775
  235MOL0     H31674   0.412   8.733   7.667 -0.6065 -0.1075 -0.7330
  235MOL0     H31675   0.536   8.698   7.540 -1.9467 -1.9522 -1.1732
  235MOL0     H31676   0.249   8.951   7.654 -3.2312  1.5039 -0.4568
  235MOL0     H31677  -0.002   9.016   7.414 -0.0160  0.0614 -4.5740
  235MOL0     H31678   0.106   9.134   7.493 -1.8892  4.2378 -2.6761
  235MOL0     H31679   0.134   9.088   7.208 -2.0206 -4.3403  1.6539
  235MOL0     H31680   0.194   9.218   7.314  1.0603 -1.0828 -2.1948
  235MOL0     H31681   0.004   9.299   7.185 -0.7173  1.0312  1.6284
  235MOL0     H31682  -0.043   9.281   7.349 -2.1303  0.1742 -0.0377
  235MOL0     H31683  -0.179   9.079   7.296  0.0269 -2.9391 -0.3356
  235MOL0     H31684  -0.068   9.043   7.152 -0.3285 -0.2863  0.3607
  235MOL0     H31685  -0.385   9.331   7.016  0.8271  0.2377  1.4119
  235MOL0     H31686  -0.670   9.249   6.843 -0.1673  0.4828 -0.5403
  235MOL0     H31687  -0.723   9.334   6.995  0.9463 -1.2382  2.2694
  235MOL0     H31688  -0.571   9.383   6.902  0.3252 -1.0041 -2.0458
  235MOL0     H31689  -1.041   9.065   7.115  0.6423  0.1966 -0.7114
  235MOL0     H31690  -1.253   8.961   7.052 -1.0109 -1.8778 -1.0721
  235MOL0     H31691  -1.457   8.984   6.970 -0.0591 -1.7169 -0.2982
  235MOL0     H31692  -1.449   9.127   6.870  0.0336 -0.3157  1.8750
  235MOL0     H31693  -1.606   9.028   6.712 -1.7522  0.3987 -0.3665
  235MOL0     H31694  -1.583   8.867   6.795  0.4777  0.4852 -1.6322
  235MOL0     H31695  -1.703   9.013   6.993  0.7842 -3.4790 -0.0281
  235MOL0     H31696  -1.810   8.965   6.853 -0.2801  0.0723  0.1274
  235MOL0     H31697  -1.728   9.224   6.937  0.2467  0.8631 -1.2800
  235MOL0     H31698  -1.688   9.213   6.762  1.2226 -0.8637 -0.2793
  235MOL0     H31699  -1.962   9.174   6.892  0.8059  0.9177  1.4838
  235MOL0     H31700  -1.912   9.133   6.721  1.0682 -0.7942  1.2725
  235MOL0     H31701  -1.863   9.401   6.860  1.3599 -1.4274  0.0990
  235MOL0     H31702  -1.848   9.347   6.693 -1.3724 -1.6011 -0.4012
  235MOL0     H31703  -2.122   9.324   6.810  2.6679 -0.8109  1.3522
  235MOL0     H31704  -2.081   9.366   6.638  0.6470  0.3612 -0.3399
  235MOL0     H31705  -2.055   9.595   6.693 -1.6417 -0.9617 -0.6394
  235MOL0     H31706  -2.009   9.553   6.856  1.0592  1.0760 -1.4191
  235MOL0     H31707  -1.159   8.994   6.642  0.1166 -1.2439 -0.5602
  235MOL0     H31708  -0.911   9.077   6.719 -2.0169  1.4347 -1.1361
  235MOL0     H31709  -0.550   8.877   7.108  1.4042 -0.1477 -0.7716
  235MOL0     H31710  -0.317   8.935   7.157  0.0300 -0.6850 -0.9618
  235MOL0     H31711   1.060   9.578   7.892 -2.5357 -0.6524 -1.6576
  235MOL0     H31712   1.098   9.811   7.957  1.3875 -1.6428  0.4256
  235MOL0     H31713   1.047  10.200   8.106  0.3950 -0.5792  0.1855
  235MOL0     H31714   1.094  10.426   8.171 -1.8948 -0.6321 -0.7779
  235MOL0     H31715   1.191  10.636   8.566 -0.5365 -1.9230  3.7684
  235MOL0     H31716   1.194  10.476   8.621 -2.3221 -2.2039 -1.1739
  235MOL0     H31717   1.360  10.408   8.468 -3.9342 -0.0945  1.6979
  235MOL0     H31718   1.417  10.549   8.563  1.2922 -0.8815  0.4950
  235MOL0     H31719   1.342  10.690   8.376  0.6372 -0.7371  1.6309
  235MOL0     H31720   1.311  10.544   8.280 -5.4131  0.6908  2.7670
  235MOL0     H31721   1.544  10.636   8.237  1.0764  2.0007  1.8771
  235MOL0     H31722   1.561  10.484   8.327  3.8571  0.9624  0.5611
  235MOL0     H31723   1.730  10.801   8.563 -0.9723  1.1149 -0.6356
  235MOL0     H31724   1.030  10.299   8.590  0.8537  5.0506 -0.9681
  235MOL0     H31725   0.971  10.095   8.517  2.1277  0.3546  1.2227
  236MOL0     O31726   3.865   8.230   7.926  0.2341 -0.6735 -0.2241
  236MOL0     C31727   3.914   8.133   7.988  0.6708  0.3259  0.4489
  236MOL0     O31728   3.855   8.005   7.980 -0.6573 -0.7119 -0.5265
  236MOL0     C31729   3.725   7.996   7.939  0.3923 -0.1816 -0.3417
  236MOL0     C31730   3.706   7.936   7.813  0.4840  0.4479 -1.1859
  236MOL0     C31731   3.572   7.908   7.771  0.0366 -0.3106 -0.2141
  236MOL0     C31732   3.467   7.942   7.856  0.3584  0.7295  0.8256
  236MOL0     O31733   3.336   7.901   7.815  0.1715 -1.0021  0.3165
  236MOL0     C31734   3.293   7.961   7.696  1.3153 -0.1270 -0.2308
  236MOL0     C31735   3.148   7.920   7.668 -0.1130  0.0543 -0.5247
  236MOL0     C31736   3.045   8.007   7.751 -0.5168 -0.3864  0.8357
  236MOL0     C31737   2.903   7.985   7.702 -0.4183 -0.5230 -0.2985
  236MOL0     C31738   2.808   8.032   7.810  0.9710 -0.6414 -1.1206
  236MOL0     C31739   2.657   8.024   7.774  0.5555 -0.7799 -1.6058
  236MOL0     C31740   2.571   8.094   7.876  0.2734 -1.2109  0.0045
  236MOL0     C31741   2.534   8.236   7.833  0.4719 -0.4103  0.0234
  236MOL0     N31742   2.417   8.239   7.737  0.2192  0.3266  0.3886
  236MOL0     C31743   2.286   8.209   7.775  0.2828 -0.4254  0.1025
  236MOL0     C31744   2.228   8.181   7.657  0.7514 -0.3185 -0.9736
  236MOL0     C31745   2.083   8.161   7.646 -1.0191 -0.1896  0.0841
  236MOL0     C31746   2.014   8.257   7.549 -0.0952  0.5852 -0.3756
  236MOL0     C31747   1.888   8.315   7.618 -0.2324  0.1637 -0.1916
  236MOL0     C31748   1.785   8.369   7.519  0.3242 -0.0531 -0.3246
  236MOL0     O31749   1.749   8.248   7.445 -0.0951 -0.0685 -0.3257
  236MOL0     C31750   1.636   8.243   7.369  0.3058  0.3207  0.1560
  236MOL0     C31751   1.597   8.355   7.288  0.7312  0.6896 -0.5679
  236MOL0     C31752   1.476   8.346   7.216  1.1148 -0.1226 -0.1630
  236MOL0     C31753   1.439   8.467   7.139  0.9938 -0.0599  0.2974
  236MOL0     C31754   1.400   8.229   7.213  0.3025 -0.3025  0.8403
  236MOL0     C31755   1.265   8.219   7.161  0.1756  0.0371 -0.2797
  236MOL0     O31756   1.182   8.158   7.250 -0.1306  0.0714 -0.2409
  236MOL0     C31757   1.047   8.140   7.223  0.0691  0.6335  0.4064
  236MOL0     C31758   0.997   8.083   7.099  0.1746 -0.2184  0.1473
  236MOL0     C31759   0.857   8.085   7.081  0.5904 -0.2400 -0.7502
  236MOL0     C31760   0.770   8.145   7.171  0.2807 -0.5288  0.2817
  236MOL0     O31761   0.630   8.135   7.164  0.3817 -0.3512  0.4976
  236MOL0     C31762   0.581   8.167   7.035 -0.3341  0.3191 -0.1932
  236MOL0     C31763   0.434   8.204   7.043 -0.1887  0.1640  0.1439
  236MOL0     C31764   0.386   8.237   6.905  0.4167  0.6826  0.4286
  236MOL0     C31765   0.239   8.260   6.903  0.7371 -0.3694  0.2053
  236MOL0     C31766   0.166   8.287   6.765  0.7644 -0.2429  0.8270
  236MOL0     C31767   0.025   8.347   6.790 -0.1508 -0.0440 -1.2830
  236MOL0     C31768  -0.052   8.382   6.653 -0.2861  0.7138  0.6105
  236MOL0     C31769  -0.164   8.483   6.686  0.5283 -0.4429 -0.4228
  236MOL0    Cl31770  -0.308   8.423   6.783 -0.0856 -0.4711 -0.4449
  236MOL0     C31771   0.821   8.191   7.287 -0.7041 -0.6445 -0.4385
  236MOL0     C31772   0.956   8.191   7.315 -0.3794 -0.6114 -0.3573
  236MOL0     O31773   1.231   8.251   7.053  0.1489 -0.0309  0.2782
  236MOL0     C31774   1.445   8.121   7.297  0.1305 -0.0158 -0.3627
  236MOL0     C31775   1.564   8.129   7.368  0.2594 -0.0328  0.1444
  236MOL0     N31776   2.311   8.195   7.554  0.6800  0.2049 -0.7408
  236MOL0     N31777   2.432   8.229   7.594  0.0600  0.5817  0.0860
  236MOL0     C31778   3.491   8.002   7.973 -0.1346  0.6771  0.1594
  236MOL0     C31779   3.619   8.040   8.014 -0.2369  0.0985  0.0725
  236MOL0     C31780   4.050   8.146   8.039 -0.0233 -0.1837 -0.4777
  236MOL0     C31781   4.130   8.035   8.019  0.0193 -0.3308 -0.1048
  236MOL0     C31782   4.261   8.045   8.074 -0.1402 -0.2995  0.4666
  236MOL0     C31783   4.312   8.159   8.139  1.1061  0.3606  0.0050
  236MOL0     O31784   4.439   8.146   8.171  0.2704 -0.1567  0.3896
  236MOL0     C31785   4.482   8.221   8.289 -0.3824  0.0198 -0.5708
  236MOL0     C31786   4.629   8.203   8.324  0.2930 -1.7230  0.9923
  236MOL0     C31787   4.730   8.308   8.253  0.1575  0.8215 -0.6417
  236MOL0     C31788   4.691   8.442   8.273 -0.1877 -0.0371  0.7566
  236MOL0     C31789   4.783   8.545   8.211 -0.2874  0.4659  0.2730
  236MOL0     C31790   4.863   8.626   8.165  0.1121  0.2241  0.5539
  236MOL0     C31791   4.224   8.268   8.150  0.5777  0.5599 -0.8354
  236MOL0     C31792   4.093   8.261   8.094  0.0121 -0.4230 -0.4193
  236MOL0     H31793   3.781   7.886   7.752  0.1011 -1.9713  0.1695
  236MOL0     H31794   3.564   7.856   7.676  0.2600 -2.3614  0.8272
  236MOL0     H31795   3.310   8.069   7.703 -0.1349 -0.0070  2.5725
  236MOL0     H31796   3.347   7.920   7.610 -0.0649  3.1964 -2.9184
  236MOL0     H31797   3.127   7.943   7.563  3.0773  1.7828 -0.9045
  236MOL0     H31798   3.146   7.813   7.691  0.6780  0.2701  0.6372
  236MOL0     H31799   3.055   7.983   7.857 -0.1869 -1.8579  0.4954
  236MOL0     H31800   3.074   8.110   7.731 -1.8601 -0.3477 -1.3026
  236MOL0     H31801   2.887   8.040   7.609 -1.1958  1.9490  1.2039
  236MOL0     H31802   2.890   7.879   7.679  0.5692 -0.3734 -1.7194
  236MOL0     H31803   2.826   8.000   7.913 -2.1792 -1.5602 -0.7443
  236MOL0     H31804   2.828   8.140   7.813  0.7502 -0.5745  2.1576
  236MOL0     H31805   2.637   8.062   7.673  0.0095  3.4438 -0.1108
  236MOL0     H31806   2.643   7.916   7.782  2.2504 -0.9471 -0.1911
  236MOL0     H31807   2.480   8.035   7.892 -1.7200  1.9997  1.3242
  236MOL0     H31808   2.616   8.091   7.976 -1.5194  1.1539  0.9675
  236MOL0     H31809   2.619   8.287   7.788 -0.3863  2.1387  1.0853
  236MOL0     H31810   2.514   8.290   7.927 -0.6163  0.4184 -0.6539
  236MOL0     H31811   2.237   8.220   7.871  1.3785 -3.2687  1.0943
  236MOL0     H31812   2.069   8.055   7.621  0.3636  0.0797 -2.1696
  236MOL0     H31813   2.032   8.167   7.742 -0.8172 -1.1436  0.2593
  236MOL0     H31814   1.984   8.208   7.456  0.8009  1.0167 -0.9055
  236MOL0     H31815   2.081   8.339   7.520  0.2487  0.1898 -0.7044
  236MOL0     H31816   1.917   8.393   7.689  0.6116 -0.8474  0.6313
  236MOL0     H31817   1.832   8.238   7.673 -1.3502  2.0275  1.4075
  236MOL0     H31818   1.825   8.438   7.444  1.7979 -1.0901 -0.5447
  236MOL0     H31819   1.703   8.421   7.570  0.0530 -0.8253  0.0300
  236MOL0     H31820   1.662   8.441   7.282  1.5980  0.0948  0.0625
  236MOL0     H31821   1.332   8.488   7.146  1.5544  4.1894 -0.8644
  236MOL0     H31822   1.491   8.558   7.173 -0.6528  0.2798  2.0960
  236MOL0     H31823   1.453   8.454   7.031  3.2306  0.8129  0.4101
  236MOL0     H31824   1.065   8.036   7.029 -0.5477 -0.3782 -0.4636
  236MOL0     H31825   0.834   8.030   6.991  3.4682  2.9343 -3.7016
  236MOL0     H31826   0.640   8.242   6.982  0.5855 -0.9468 -1.0134
  236MOL0     H31827   0.580   8.079   6.971 -1.3626 -0.4591  0.8356
  236MOL0     H31828   0.367   8.133   7.093 -3.5082  1.1250 -2.5489
  236MOL0     H31829   0.427   8.292   7.107 -1.9574 -0.0180  0.2615
  236MOL0     H31830   0.394   8.161   6.827  2.9274  1.5613 -0.2609
  236MOL0     H31831   0.446   8.323   6.873  1.4158 -0.0477  0.2858
  236MOL0     H31832   0.186   8.173   6.944  0.0614 -0.8612 -1.6214
  236MOL0     H31833   0.215   8.346   6.966 -0.8993  1.8377 -3.1649
  236MOL0     H31834   0.162   8.193   6.710 -3.1434  1.4514 -2.1659
  236MOL0     H31835   0.217   8.361   6.702 -0.9640 -1.1754 -1.8202
  236MOL0     H31836  -0.036   8.275   6.845  3.1098 -0.4239  2.2132
  236MOL0     H31837   0.034   8.444   6.840 -2.2915 -0.5033  0.1444
  236MOL0     H31838  -0.078   8.288   6.604  2.9577 -0.8367  1.5504
  236MOL0     H31839   0.027   8.433   6.597  0.9080 -0.6518  0.9852
  236MOL0     H31840  -0.204   8.525   6.593 -2.3397 -0.6939  0.5956
  236MOL0     H31841  -0.119   8.555   6.755 -2.0216 -0.4314  1.3590
  236MOL0     H31842   0.775   8.253   7.362 -1.5702 -1.6493 -0.1042
  236MOL0     H31843   0.993   8.228   7.410  1.0477  1.3558 -1.6030
  236MOL0     H31844   1.396   8.024   7.303 -0.0703  0.0811 -0.4086
  236MOL0     H31845   1.600   8.039   7.418  3.7594  1.4071  0.5438
  236MOL0     H31846   3.399   8.006   8.031 -1.6007 -2.2551 -1.7371
  236MOL0     H31847   3.622   8.091   8.109 -0.2147 -2.8522  1.7705
  236MOL0     H31848   4.094   7.943   7.973  0.1520 -1.0595  1.2210
  236MOL0     H31849   4.328   7.960   8.066  0.3512 -0.1208  2.2122
  236MOL0     H31850   4.449   8.325   8.286 -1.9380 -0.4328 -0.5594
  236MOL0     H31851   4.420   8.184   8.372  1.1115  2.0829  1.5874
  236MOL0     H31852   4.656   8.103   8.288 -1.8554 -1.1102 -2.7937
  236MOL0     H31853   4.643   8.209   8.433 -1.8725 -0.5474  1.2518
  236MOL0     H31854   4.745   8.278   8.149  2.8422  1.3684 -0.4768
  236MOL0     H31855   4.824   8.298   8.308  1.5529  2.5773 -2.5632
  236MOL0     H31856   4.672   8.459   8.379  0.8715 -0.8691  1.0867
  236MOL0     H31857   4.596   8.453   8.218 -0.7642 -1.9571  1.3026
  236MOL0     H31858   4.932   8.690   8.115  1.3075 -1.2511  0.2346
  236MOL0     H31859   4.258   8.360   8.197  1.2750 -0.3156  0.4401
  236MOL0     H31860   4.025   8.345   8.092 -0.9451 -1.1446  0.5382
  237MOL0     O31861   6.052   9.788   6.653 -0.1441  0.1484 -0.0149
  237MOL0     C31862   6.103   9.843   6.754  0.4948  0.0931 -0.2883
  237MOL0     O31863   6.027   9.881   6.860 -0.3779  0.2602 -0.4072
  237MOL0     C31864   5.887   9.874   6.840  0.0082  0.3785 -0.4890
  237MOL0     C31865   5.815   9.934   6.732  0.1948  1.0437  0.6237
  237MOL0     C31866   5.674   9.934   6.729  0.1397  0.0613  0.1474
  237MOL0     C31867   5.594   9.872   6.823 -0.8691  0.8148  0.5044
  237MOL0     O31868   5.452   9.868   6.804  0.1869 -0.3126 -0.3465
  237MOL0     C31869   5.377   9.865   6.929 -0.7384 -0.1514 -0.8583
  237MOL0     C31870   5.230   9.894   6.885 -1.0848  0.4541  0.0335
  237MOL0     C31871   5.138   9.881   7.002  0.0147  0.2163  0.1427
  237MOL0     C31872   4.989   9.917   6.955  0.5775  0.5783  0.0267
  237MOL0     C31873   4.884   9.871   7.066 -0.2791  0.2969 -0.4324
  237MOL0     C31874   4.742   9.897   7.023  0.2421  0.5318 -0.5343
  237MOL0     C31875   4.668   9.769   6.991  0.1205 -0.0918 -0.1336
  237MOL0     C31876   4.748   9.681   6.898  0.3231  0.1851  0.1418
  237MOL0     N31877   4.668   9.564   6.852  0.4968  0.7550 -0.8240
  237MOL0     C31878   4.631   9.529   6.725  0.0804  0.0151 -0.1923
  237MOL0     C31879   4.574   9.405   6.734 -0.5427  0.3246 -0.2317
  237MOL0     C31880   4.499   9.351   6.621  0.4986  0.7667  0.1481
  237MOL0     C31881   4.343   9.355   6.647 -0.6188  0.3349  0.3458
  237MOL0     C31882   4.298   9.297   6.786 -0.4427  0.3483  0.4689
  237MOL0     C31883   4.146   9.258   6.804 -0.7367 -0.0874 -0.2249
  237MOL0     O31884   4.069   9.361   6.739  0.0546 -0.3811  1.0160
  237MOL0     C31885   3.928   9.345   6.713 -0.9118  0.0255 -0.4225
  237MOL0     C31886   3.849   9.240   6.762  0.1389 -0.3124  0.6043
  237MOL0     C31887   3.708   9.252   6.765 -0.0091  1.0796  0.1339
  237MOL0     C31888   3.637   9.149   6.854  0.8507  0.7932  0.9336
  237MOL0     C31889   3.638   9.366   6.710 -1.1931  0.6636 -0.0699
  237MOL0     C31890   3.491   9.390   6.720 -0.4225  0.1965 -0.4495
  237MOL0     O31891   3.441   9.514   6.693 -0.3287 -0.3498  0.3582
  237MOL0     C31892   3.307   9.541   6.684 -0.0238  0.1506  0.2207
  237MOL0     C31893   3.273   9.664   6.737  0.9795 -0.1246 -0.1432
  237MOL0     C31894   3.137   9.700   6.744 -0.4070 -0.0948  0.9198
  237MOL0     C31895   3.039   9.612   6.703 -0.1029  0.0166 -0.4820
  237MOL0     O31896   2.903   9.632   6.715 -0.3262  0.3050  0.4241
  237MOL0     C31897   2.848   9.698   6.829 -0.0774  0.8881 -0.2127
  237MOL0     C31898   2.719   9.771   6.802  0.7376  0.0512 -0.6568
  237MOL0     C31899   2.602   9.681   6.779 -0.1956  0.3756  0.4264
  237MOL0     C31900   2.565   9.595   6.901 -0.6635  0.3052 -0.4602
  237MOL0     C31901   2.431   9.522   6.884  0.2039  0.3228 -0.4362
  237MOL0     C31902   2.386   9.463   7.014 -0.3098  0.4014 -0.2712
  237MOL0     C31903   2.255   9.389   6.992 -0.6156  0.6018  0.5571
  237MOL0     C31904   2.261   9.263   6.915 -0.0784  0.3277  0.1163
  237MOL0    Cl31905   2.103   9.179   6.908 -0.0455 -0.4587  0.4449
  237MOL0     C31906   3.081   9.488   6.654  0.5974 -0.9577  0.7197
  237MOL0     C31907   3.217   9.456   6.629  0.5400 -0.2301  0.3728
  237MOL0     O31908   3.424   9.294   6.753 -0.9805  0.1514  0.1118
  237MOL0     C31909   3.721   9.462   6.652  0.4202 -0.7584 -0.3890
  237MOL0     C31910   3.860   9.457   6.655  0.4596 -0.3001  0.3697
  237MOL0     N31911   4.590   9.351   6.865 -0.5130 -0.5113 -0.0945
  237MOL0     N31912   4.648   9.447   6.930 -0.3071 -0.7208  0.2648
  237MOL0     C31913   5.666   9.815   6.930 -0.0587 -0.0146  0.3252
  237MOL0     C31914   5.813   9.821   6.938 -0.0097  0.4754 -0.0732
  237MOL0     C31915   6.247   9.876   6.751 -0.5405 -0.8117 -0.5329
  237MOL0     C31916   6.309   9.961   6.847  0.5865 -0.4209  0.0078
  237MOL0     C31917   6.445   9.977   6.840 -1.5586  0.7543 -0.2223
  237MOL0     C31918   6.524   9.923   6.736 -0.3891  0.3663  0.7901
  237MOL0     O31919   6.661   9.953   6.735 -0.0154  0.1028  0.1422
  237MOL0     C31920   6.751   9.900   6.640 -0.0417  0.6045 -0.5836
  237MOL0     C31921   6.893   9.877   6.696  0.3320 -0.3454 -0.3712
  237MOL0     C31922   6.916   9.734   6.747 -0.0303 -0.7476  0.0570
  237MOL0     C31923   7.057   9.724   6.799 -0.0387  0.1794  0.8132
  237MOL0     C31924   7.095   9.816   6.906 -0.1346  0.4953  0.5576
  237MOL0     C31925   7.097   9.904   6.988 -0.6964  0.7701  0.1290
  237MOL0     C31926   6.460   9.854   6.636 -0.9811 -0.5360  0.3633
  237MOL0     C31927   6.323   9.832   6.640  0.1937 -0.0234 -0.2781
  237MOL0     H31928   5.863   9.987   6.651 -0.3924 -0.0809 -0.5083
  237MOL0     H31929   5.618   9.978   6.647  0.2338 -1.1249 -0.5889
  237MOL0     H31930   5.392   9.770   6.982  1.5321 -0.0764 -1.2743
  237MOL0     H31931   5.405   9.951   6.991  1.8270  0.6126 -2.9056
  237MOL0     H31932   5.221   9.994   6.841  0.4370 -0.2516 -1.9724
  237MOL0     H31933   5.213   9.823   6.804  2.8612  1.0223 -1.5027
  237MOL0     H31934   5.148   9.781   7.045  2.4952  0.2527 -0.1657
  237MOL0     H31935   5.155   9.950   7.085  0.0833 -1.4009  1.5267
  237MOL0     H31936   4.979  10.024   6.937 -2.3770  0.9037  2.6965
  237MOL0     H31937   4.965   9.873   6.858  1.0140 -1.8955  0.9746
  237MOL0     H31938   4.918   9.769   7.087  0.8334  0.6553 -0.4029
  237MOL0     H31939   4.900   9.930   7.157  2.4815  0.8258 -1.1739
  237MOL0     H31940   4.698   9.933   7.116 -0.0673  1.8485 -1.1631
  237MOL0     H31941   4.727   9.967   6.940 -2.2423  0.3206 -0.3472
  237MOL0     H31942   4.645   9.716   7.084  0.8960  0.2360  0.2605
  237MOL0     H31943   4.581   9.804   6.935  2.3652  1.2031 -3.1416
  237MOL0     H31944   4.829   9.642   6.961 -1.3462  0.1869  2.4321
  237MOL0     H31945   4.788   9.742   6.817 -2.1126  1.9056  0.1421
  237MOL0     H31946   4.632   9.588   6.634 -1.5830  2.5608  1.3111
  237MOL0     H31947   4.522   9.400   6.526 -1.0350 -0.7206 -1.0614
  237MOL0     H31948   4.535   9.248   6.607 -0.0408  0.1198  2.9241
  237MOL0     H31949   4.300   9.289   6.570  4.2922 -1.7292 -1.0015
  237MOL0     H31950   4.303   9.456   6.636 -1.2932  0.0946  0.5062
  237MOL0     H31951   4.324   9.374   6.859 -3.9786  2.4929 -0.2867
  237MOL0     H31952   4.355   9.207   6.810 -3.2085 -1.2770  1.4171
  237MOL0     H31953   4.113   9.248   6.907  1.1095  1.7887  0.6319
  237MOL0     H31954   4.136   9.160   6.756 -0.0096 -0.1992 -0.1639
  237MOL0     H31955   3.902   9.174   6.830 -1.8598 -1.3469  1.2206
  237MOL0     H31956   3.705   9.066   6.871 -0.0605 -0.6277 -1.8215
  237MOL0     H31957   3.611   9.194   6.950 -0.6911  1.7683  0.1073
  237MOL0     H31958   3.548   9.108   6.807  0.2916  1.6230  1.2422
  237MOL0     H31959   3.343   9.732   6.786 -0.0485  0.0043  1.2330
  237MOL0     H31960   3.107   9.793   6.792 -0.0949 -1.3947  3.8551
  237MOL0     H31961   2.830   9.626   6.909 -0.7469 -0.6293 -1.6664
  237MOL0     H31962   2.923   9.771   6.860  2.0257 -1.2330  0.0303
  237MOL0     H31963   2.691   9.851   6.871 -0.6831 -0.5155 -0.5323
  237MOL0     H31964   2.733   9.835   6.714 -0.5811  2.7856  0.9842
  237MOL0     H31965   2.613   9.600   6.706 -1.2276 -0.2777  0.9671
  237MOL0     H31966   2.512   9.735   6.749 -1.1682  0.6365  3.4687
  237MOL0     H31967   2.648   9.530   6.932 -0.5488  0.4158 -0.5300
  237MOL0     H31968   2.552   9.666   6.983  0.8353 -0.0858  0.1553
  237MOL0     H31969   2.440   9.440   6.812 -1.8875 -0.2044 -0.1641
  237MOL0     H31970   2.357   9.590   6.842 -1.2891 -0.8732  0.1646
  237MOL0     H31971   2.460   9.391   7.050  0.8944  0.5063 -2.3903
  237MOL0     H31972   2.364   9.541   7.089 -0.6740  1.5868 -1.5626
  237MOL0     H31973   2.184   9.456   6.942 -0.5311 -0.6503 -1.3796
  237MOL0     H31974   2.212   9.363   7.089  0.8933  0.7037  1.2873
  237MOL0     H31975   2.335   9.192   6.954  0.1775  1.0764  1.0428
  237MOL0     H31976   2.295   9.295   6.817  2.3258  2.1778  1.4584
  237MOL0     H31977   3.001   9.421   6.623 -1.2146 -0.1388  3.2317
  237MOL0     H31978   3.234   9.355   6.592 -0.6233 -0.1964 -0.3315
  237MOL0     H31979   3.671   9.552   6.618 -1.3104 -2.1187 -1.6365
  237MOL0     H31980   3.903   9.546   6.611 -0.8267 -1.4093 -3.5560
  237MOL0     H31981   5.616   9.751   7.001 -0.6436 -0.5061 -0.5190
  237MOL0     H31982   5.855   9.774   7.027 -2.6989 -2.4891 -0.2069
  237MOL0     H31983   6.253  10.010   6.927  0.9040 -1.5003  0.9118
  237MOL0     H31984   6.497  10.029   6.920 -1.4821  1.6252 -0.8296
  237MOL0     H31985   6.717   9.804   6.602  0.8767 -0.0167  0.1159
  237MOL0     H31986   6.749   9.975   6.560  3.2291  1.2362 -0.2265
  237MOL0     H31987   6.915   9.944   6.779  0.1383  0.3532 -0.8785
  237MOL0     H31988   6.969   9.897   6.620 -1.6830  1.2642 -2.0644
  237MOL0     H31989   6.905   9.657   6.670  1.7618 -0.5911 -0.3921
  237MOL0     H31990   6.842   9.716   6.825  1.3584  2.3514  2.2958
  237MOL0     H31991   7.134   9.734   6.722  0.1008 -2.2100  0.5695
  237MOL0     H31992   7.057   9.620   6.833 -0.3174 -0.9112 -2.2283
  237MOL0     H31993   7.105   9.980   7.063 -0.2635 -0.8942  1.8408
  237MOL0     H31994   6.523   9.833   6.550  0.0374  1.9572  0.4356
  237MOL0     H31995   6.275   9.772   6.563 -1.1090 -0.3807  0.7856
  238MOL0     O31996   4.701   8.496   0.271 -0.5904  0.6264 -0.6643
  238MOL0     C31997   4.719   8.401   0.346 -0.0194 -0.7122 -0.0878
  238MOL0     O31998   4.625   8.336   0.412 -0.1614  0.2148  0.1318
  238MOL0     C31999   4.492   8.342   0.380  0.2917  0.2479  0.5734
  238MOL0     C32000   4.409   8.327   0.487  0.7524 -0.2089  0.2834
  238MOL0     C32001   4.267   8.323   0.467 -0.0806 -0.2564  0.0815
  238MOL0     C32002   4.214   8.381   0.347  0.2216 -0.1437 -0.6491
  238MOL0     O32003   4.083   8.414   0.312  0.2089  0.0642  0.3043
  238MOL0     C32004   3.991   8.408   0.421 -0.6088  0.0070 -0.9113
  238MOL0     C32005   3.864   8.474   0.374 -0.2811  0.4492 -0.2711
  238MOL0     C32006   3.766   8.471   0.497  1.1930 -0.5019  0.1355
  238MOL0     C32007   3.634   8.545   0.472 -0.5321 -0.1885 -0.1789
  238MOL0     C32008   3.529   8.529   0.576 -0.3070  0.1813 -0.6245
  238MOL0     C32009   3.402   8.599   0.521  0.4996 -0.7443 -0.3862
  238MOL0     C32010   3.279   8.581   0.613  0.4934  0.0694  0.3986
  238MOL0     C32011   3.160   8.664   0.560 -0.1623  0.0934  0.0235
  238MOL0     N32012   3.041   8.598   0.610  0.1551  0.3252  0.0772
  238MOL0     C32013   2.988   8.615   0.734 -0.5777  0.2940  0.7418
  238MOL0     C32014   2.861   8.557   0.728 -0.1714 -0.7636 -0.4588
  238MOL0     C32015   2.753   8.568   0.834 -0.3655  0.5844 -0.4210
  238MOL0     C32016   2.692   8.441   0.883  0.2323  0.0747 -0.3473
  238MOL0     C32017   2.542   8.464   0.924 -0.3817 -0.4306 -0.0869
  238MOL0     C32018   2.486   8.349   1.003 -0.7091 -0.0574  0.2873
  238MOL0     O32019   2.367   8.403   1.052  1.0111 -0.0883 -0.2592
  238MOL0     C32020   2.297   8.341   1.153  0.9802  0.1842  0.4116
  238MOL0     C32021   2.342   8.227   1.218  0.1685 -0.7655 -0.6445
  238MOL0     C32022   2.264   8.171   1.319 -0.2924 -0.5693  0.9484
  238MOL0     C32023   2.323   8.048   1.381  0.3388  0.1899 -0.7484
  238MOL0     C32024   2.138   8.231   1.361 -0.0931 -0.0647 -0.2157
  238MOL0     C32025   2.043   8.175   1.464  0.3139 -0.2869 -0.1944
  238MOL0     O32026   1.912   8.205   1.440  1.3082 -0.6877 -0.9797
  238MOL0     C32027   1.807   8.145   1.503 -1.1799  1.2096 -0.4407
  238MOL0     C32028   1.799   8.136   1.641 -0.9155  0.7669  1.0471
  238MOL0     C32029   1.682   8.081   1.703 -0.3725 -0.6293 -0.4239
  238MOL0     C32030   1.582   8.023   1.625  0.2160 -1.0409  0.3746
  238MOL0     O32031   1.469   7.968   1.677 -0.4996 -0.1823  0.0476
  238MOL0     C32032   1.447   7.937   1.816  0.1386 -0.3425 -0.2118
  238MOL0     C32033   1.532   7.837   1.880 -0.4116  0.0899 -0.2748
  238MOL0     C32034   1.465   7.779   2.009 -0.6212 -0.1306  0.1146
  238MOL0     C32035   1.561   7.707   2.101 -0.3106  0.2852  0.0499
  238MOL0     C32036   1.505   7.660   2.229  0.4954  0.5353 -0.5943
  238MOL0     C32037   1.610   7.615   2.334 -0.1703  0.7810  0.5782
  238MOL0     C32038   1.527   7.548   2.452 -0.3617 -0.2727  0.2836
  238MOL0     C32039   1.613   7.455   2.533 -0.5990  0.3977  0.0614
  238MOL0    Cl32040   1.533   7.405   2.691  0.3665 -0.2805 -0.3045
  238MOL0     C32041   1.591   8.035   1.490  0.3165  0.2364 -0.7675
  238MOL0     C32042   1.702   8.091   1.430  0.4915  0.3103 -0.5906
  238MOL0     O32043   2.081   8.125   1.572 -0.1219  0.0423  0.9689
  238MOL0     C32044   2.098   8.348   1.291  0.2448 -0.9639  0.1092
  238MOL0     C32045   2.176   8.400   1.186 -0.4970  0.5285  0.5845
  238MOL0     N32046   2.844   8.505   0.605  0.9950 -0.6288 -0.6232
  238MOL0     N32047   2.953   8.524   0.540  0.2582 -0.0295  0.2997
  238MOL0     C32048   4.304   8.389   0.235  0.5462  0.1232  0.3210
  238MOL0     C32049   4.449   8.371   0.249  0.5474  0.3218  0.2993
  238MOL0     C32050   4.860   8.365   0.390  0.5105 -0.0712  0.4169
  238MOL0     C32051   4.977   8.365   0.305  0.8168  0.3700  0.1943
  238MOL0     C32052   5.108   8.333   0.357 -0.0707 -0.0998  0.3085
  238MOL0     C32053   5.120   8.307   0.499 -0.1793  0.4563  0.9617
  238MOL0     O32054   5.253   8.291   0.544  0.1122 -0.3712 -0.5249
  238MOL0     C32055   5.276   8.268   0.682  0.1406  0.3961 -0.6141
  238MOL0     C32056   5.411   8.204   0.717  0.0533  0.2318  0.7600
  238MOL0     C32057   5.526   8.302   0.700  0.1217  0.5079  0.2596
  238MOL0     C32058   5.552   8.357   0.559  0.5129 -0.8683  0.2293
  238MOL0     C32059   5.696   8.390   0.541 -0.0596  0.2122  0.0836
  238MOL0     C32060   5.805   8.442   0.514  0.9249 -0.1664  0.4416
  238MOL0     C32061   5.005   8.317   0.582  0.9763 -0.8919  0.1900
  238MOL0     C32062   4.879   8.348   0.527 -0.4673 -0.6226 -0.3349
  238MOL0     H32063   4.449   8.298   0.584 -0.1217 -0.5504  0.5533
  238MOL0     H32064   4.189   8.301   0.540 -2.7660 -0.7700 -2.7517
  238MOL0     H32065   3.982   8.304   0.452  0.5893  0.6711  2.0773
  238MOL0     H32066   4.028   8.459   0.511  0.9260  2.0204 -2.5764
  238MOL0     H32067   3.884   8.574   0.336  0.9361  0.2849 -0.0831
  238MOL0     H32068   3.830   8.424   0.283 -0.7418 -1.4418  0.8717
  238MOL0     H32069   3.739   8.366   0.514  2.5937 -0.7490  0.9304
  238MOL0     H32070   3.816   8.504   0.588 -0.1499 -1.0229  1.0865
  238MOL0     H32071   3.656   8.652   0.463  2.2204 -0.6642 -0.0389
  238MOL0     H32072   3.588   8.507   0.380 -1.6021 -0.4329  0.4523
  238MOL0     H32073   3.511   8.422   0.587 -0.7376  0.2750 -0.3708
  238MOL0     H32074   3.549   8.585   0.668  1.1129  1.6371 -1.7548
  238MOL0     H32075   3.417   8.706   0.509 -2.2768 -0.1826  0.4671
  238MOL0     H32076   3.373   8.561   0.422  0.2787 -1.0434 -0.2072
  238MOL0     H32077   3.253   8.475   0.604  2.3583 -0.2554 -2.1538
  238MOL0     H32078   3.288   8.606   0.719 -0.2891 -2.4743  1.1548
  238MOL0     H32079   3.163   8.666   0.451  3.9944 -2.6604 -0.1445
  238MOL0     H32080   3.176   8.765   0.598  0.3419  0.1746 -0.4030
  238MOL0     H32081   3.036   8.671   0.813  1.9529 -2.6464  1.4299
  238MOL0     H32082   2.783   8.622   0.924 -0.9977  1.8731 -0.9603
  238MOL0     H32083   2.673   8.628   0.790 -0.6393  1.8609  1.6594
  238MOL0     H32084   2.752   8.399   0.964 -0.4053  2.0345  1.2072
  238MOL0     H32085   2.683   8.371   0.799 -0.3552 -3.5924  2.5185
  238MOL0     H32086   2.484   8.476   0.832 -0.1855  0.7215 -0.0758
  238MOL0     H32087   2.534   8.558   0.980 -0.2792  0.6591 -1.8245
  238MOL0     H32088   2.559   8.321   1.079  1.8887  2.3920 -1.1155
  238MOL0     H32089   2.461   8.274   0.927  0.0946 -0.8398  0.7824
  238MOL0     H32090   2.435   8.177   1.194  1.0561  0.3655  0.3329
  238MOL0     H32091   2.369   8.081   1.475 -1.8578 -1.8013  1.1547
  238MOL0     H32092   2.246   7.980   1.417 -0.7671  2.0350  0.5402
  238MOL0     H32093   2.394   7.988   1.323  0.5701 -1.9634  1.5814
  238MOL0     H32094   1.873   8.163   1.715  0.5515 -1.2112  0.3898
  238MOL0     H32095   1.668   8.070   1.811 -0.9432  1.3958 -0.2529
  238MOL0     H32096   1.453   8.032   1.869 -1.6900  1.5833 -3.1765
  238MOL0     H32097   1.344   7.904   1.834 -0.2722  2.1936  3.0801
  238MOL0     H32098   1.553   7.750   1.817 -1.8310 -0.2692 -0.3032
  238MOL0     H32099   1.627   7.880   1.913 -0.4778  0.5855 -0.7293
  238MOL0     H32100   1.380   7.718   1.976 -1.6042  2.5609 -2.8554
  238MOL0     H32101   1.420   7.859   2.068 -0.4921 -0.4521  0.6490
  238MOL0     H32102   1.599   7.617   2.054  1.4461  0.8166  0.3798
  238MOL0     H32103   1.644   7.777   2.117 -0.2768  0.5574 -1.2161
  238MOL0     H32104   1.419   7.593   2.220  0.6169  0.5034 -1.6466
  238MOL0     H32105   1.468   7.751   2.278  2.4051  1.3534 -0.5539
  238MOL0     H32106   1.669   7.536   2.287 -1.9649  0.1938 -0.8171
  238MOL0     H32107   1.679   7.692   2.368  0.7720 -0.7937  2.3725
  238MOL0     H32108   1.439   7.491   2.419  0.2899  0.2125 -2.5829
  238MOL0     H32109   1.504   7.636   2.512 -1.1272 -0.1016 -0.2366
  238MOL0     H32110   1.707   7.495   2.572  0.8401 -2.4078 -0.2630
  238MOL0     H32111   1.642   7.365   2.478  0.5047  0.9917 -0.3430
  238MOL0     H32112   1.515   7.984   1.430 -1.3825  1.6201  0.1267
  238MOL0     H32113   1.705   8.099   1.322  2.0291 -0.8258 -0.6636
  238MOL0     H32114   2.006   8.389   1.330  0.1393 -2.0355  1.0662
  238MOL0     H32115   2.144   8.491   1.136  2.1228 -0.2649 -2.8866
  238MOL0     H32116   4.263   8.416   0.138 -0.9365 -0.8879  0.6251
  238MOL0     H32117   4.512   8.391   0.163  0.1355  2.3042  0.4067
  238MOL0     H32118   4.971   8.384   0.198  3.4115 -1.8186 -0.4600
  238MOL0     H32119   5.188   8.335   0.284 -3.2418  0.8752 -3.5198
  238MOL0     H32120   5.255   8.358   0.741  0.5653  0.9212 -1.2577
  238MOL0     H32121   5.209   8.186   0.711  1.5449 -0.8141 -0.6823
  238MOL0     H32122   5.421   8.116   0.653 -1.8440  0.6887 -0.2534
  238MOL0     H32123   5.413   8.162   0.818  2.8991 -0.1323  0.6329
  238MOL0     H32124   5.619   8.251   0.728 -0.8792 -1.7707 -0.4408
  238MOL0     H32125   5.510   8.387   0.768 -0.6319 -1.1741  2.2889
  238MOL0     H32126   5.496   8.451   0.557  2.6743  0.6352  2.8870
  238MOL0     H32127   5.513   8.294   0.480 -0.9771  0.2428  0.0379
  238MOL0     H32128   5.898   8.490   0.494  0.9701 -1.2394 -2.4563
  238MOL0     H32129   5.018   8.319   0.690  1.7646 -1.3376  0.1092
  238MOL0     H32130   4.789   8.355   0.586 -1.4152 -0.0972 -1.7651
  239MOL0     O32131   8.098   4.446   1.811  0.0755  0.0367  0.1632
  239MOL0     C32132   8.119   4.323   1.823 -1.1522  0.3934  0.1173
  239MOL0     O32133   8.028   4.222   1.822 -0.2432 -0.0965 -0.0626
  239MOL0     C32134   7.894   4.243   1.825  0.2707  0.1511  0.0378
  239MOL0     C32135   7.822   4.133   1.780  0.4933  0.8787  0.5188
  239MOL0     C32136   7.684   4.129   1.792  0.0058 -1.0454 -0.4423
  239MOL0     C32137   7.611   4.236   1.846  0.0473 -0.1115 -0.4023
  239MOL0     O32138   7.475   4.237   1.869  0.2499  0.7953  0.4221
  239MOL0     C32139   7.403   4.108   1.861  0.5971  0.6846 -0.1455
  239MOL0     C32140   7.262   4.107   1.926  0.9779 -0.5187  0.3309
  239MOL0     C32141   7.155   4.165   1.847  0.2214  0.2002 -0.0853
  239MOL0     C32142   7.017   4.152   1.911  0.2002  0.5164  0.1048
  239MOL0     C32143   6.909   4.231   1.831 -1.0302 -0.3120  0.3325
  239MOL0     C32144   6.763   4.198   1.871  0.4251 -0.0115 -0.1448
  239MOL0     C32145   6.743   4.252   2.010  0.0256  0.4037 -0.4320
  239MOL0     C32146   6.612   4.208   2.071 -0.1606  0.0256 -0.6025
  239MOL0     N32147   6.507   4.245   1.974 -0.0716  0.0765  0.4143
  239MOL0     C32148   6.437   4.365   1.966  0.3645 -0.0664 -0.9735
  239MOL0     C32149   6.352   4.358   1.857 -0.0189  0.8414 -0.5082
  239MOL0     C32150   6.252   4.459   1.821  0.4936  0.2961  0.5494
  239MOL0     C32151   6.127   4.440   1.904 -0.6131 -0.3157 -0.2135
  239MOL0     C32152   6.036   4.557   1.899 -0.2221  0.1433  0.1594
  239MOL0     C32153   5.919   4.513   1.983 -0.3280  0.7569 -0.4416
  239MOL0     O32154   5.820   4.612   1.995 -0.9043  0.0041 -0.8150
  239MOL0     C32155   5.691   4.583   2.031  0.3709  0.4401  0.7086
  239MOL0     C32156   5.602   4.682   2.012 -0.0662 -0.0027  0.6368
  239MOL0     C32157   5.472   4.676   2.062  1.3736 -0.7381  0.4985
  239MOL0     C32158   5.376   4.793   2.049 -0.1166 -0.2175  0.3834
  239MOL0     C32159   5.427   4.560   2.117  0.3606  0.2567  0.4676
  239MOL0     C32160   5.286   4.536   2.167  0.9213  0.8862  0.1707
  239MOL0     O32161   5.245   4.402   2.143  0.0455 -0.5305  0.1735
  239MOL0     C32162   5.117   4.366   2.158 -0.0979 -0.2433  0.2526
  239MOL0     C32163   5.026   4.427   2.069  1.4137 -0.7181 -0.0062
  239MOL0     C32164   4.891   4.387   2.068  0.6937  0.3003 -0.2991
  239MOL0     C32165   4.851   4.285   2.148  0.0951  0.0306 -0.6612
  239MOL0     O32166   4.738   4.213   2.138  1.1795  0.3677  0.2444
  239MOL0     C32167   4.632   4.250   2.053  0.3399 -0.4885  0.1538
  239MOL0     C32168   4.529   4.342   2.127 -0.1414  0.3832 -0.6106
  239MOL0     C32169   4.445   4.278   2.243 -0.5731  0.2706 -0.4837
  239MOL0     C32170   4.337   4.380   2.281  1.1122 -0.2881  0.0374
  239MOL0     C32171   4.246   4.331   2.398  0.1712 -0.2734  0.0332
  239MOL0     C32172   4.126   4.428   2.420  0.4770  0.4702 -0.0928
  239MOL0     C32173   4.040   4.388   2.544 -0.0258  0.4085 -0.0463
  239MOL0     C32174   4.102   4.438   2.674  0.6124  0.0202 -0.2308
  239MOL0    Cl32175   4.018   4.371   2.819  0.6527 -0.3457  0.1397
  239MOL0     C32176   4.939   4.225   2.236 -0.0267  0.3604  0.7230
  239MOL0     C32177   5.067   4.265   2.244 -0.3177  0.1322 -0.2894
  239MOL0     O32178   5.225   4.613   2.241 -0.3003  1.0403 -0.3574
  239MOL0     C32179   5.516   4.447   2.119 -0.2409 -0.0742 -0.5206
  239MOL0     C32180   5.651   4.461   2.090  0.2772 -0.3693 -0.1228
  239MOL0     N32181   6.357   4.226   1.812  0.5140  0.0582  0.4232
  239MOL0     N32182   6.452   4.166   1.870  0.2207 -0.4641 -0.0709
  239MOL0     C32183   7.690   4.347   1.892 -0.3461  0.1130 -0.6586
  239MOL0     C32184   7.829   4.348   1.887 -0.7673  0.0899 -0.0250
  239MOL0     C32185   8.261   4.288   1.866 -0.0702  0.5359 -0.3084
  239MOL0     C32186   8.352   4.390   1.905 -0.0453 -0.3582  0.2348
  239MOL0     C32187   8.478   4.351   1.950 -0.0034  0.0657  0.4144
  239MOL0     C32188   8.519   4.212   1.964 -0.0175 -0.6216 -0.0289
  239MOL0     O32189   8.637   4.169   2.024  0.3008  0.5738 -0.1574
  239MOL0     C32190   8.697   4.239   2.125 -0.0304  0.6594  0.7657
  239MOL0     C32191   8.793   4.152   2.202  0.6067 -0.1980 -0.4500
  239MOL0     C32192   8.909   4.122   2.106  0.6363  0.3718 -0.2866
  239MOL0     C32193   9.013   4.032   2.177  0.6824 -0.9703 -0.3950
  239MOL0     C32194   8.968   3.890   2.189 -0.0372  0.4500 -0.8093
  239MOL0     C32195   8.941   3.770   2.181 -0.0442 -0.5639 -0.0751
  239MOL0     C32196   8.424   4.114   1.923  0.4925 -1.1030 -0.0337
  239MOL0     C32197   8.296   4.150   1.879  0.2433 -0.2252  0.1483
  239MOL0     H32198   7.874   4.047   1.737 -1.5869 -0.7981  1.1701
  239MOL0     H32199   7.641   4.034   1.762  2.0129 -1.2751 -2.8712
  239MOL0     H32200   7.386   4.089   1.755 -0.3919  1.3198 -0.1191
  239MOL0     H32201   7.459   4.021   1.895 -0.6696 -2.2476 -4.6551
  239MOL0     H32202   7.239   4.003   1.952  0.2530 -0.1824  1.0518
  239MOL0     H32203   7.274   4.169   2.015  1.3798 -0.7784  0.4639
  239MOL0     H32204   7.177   4.271   1.836 -1.9341  0.5949 -1.0909
  239MOL0     H32205   7.169   4.118   1.749  0.4809 -1.9272  0.9215
  239MOL0     H32206   6.982   4.048   1.908  0.4479  0.4018  0.9160
  239MOL0     H32207   7.022   4.179   2.017  0.9959 -1.1718  0.5319
  239MOL0     H32208   6.926   4.338   1.844 -1.2952  0.0405 -1.8990
  239MOL0     H32209   6.914   4.216   1.723 -0.0895 -2.8450  0.6551
  239MOL0     H32210   6.706   4.249   1.793 -0.9270  2.6021  2.3542
  239MOL0     H32211   6.751   4.090   1.867  3.3219 -0.7112  3.6914
  239MOL0     H32212   6.816   4.205   2.076  0.6061  0.1642 -1.2210
  239MOL0     H32213   6.751   4.361   2.021  1.0150  0.6288 -2.7653
  239MOL0     H32214   6.595   4.250   2.171  0.3459  1.0383 -0.9223
  239MOL0     H32215   6.614   4.099   2.079  2.8335  0.0653  0.2751
  239MOL0     H32216   6.447   4.458   2.021 -2.3557  0.0266 -0.5046
  239MOL0     H32217   6.292   4.560   1.826  0.7529  0.2919 -1.0983
  239MOL0     H32218   6.222   4.439   1.718 -0.3352  1.6319  0.5096
  239MOL0     H32219   6.157   4.420   2.008  0.9035  2.1954 -0.0897
  239MOL0     H32220   6.077   4.349   1.868 -2.0675  0.3239  0.1355
  239MOL0     H32221   6.006   4.578   1.796 -4.2051  1.8777  1.4791
  239MOL0     H32222   6.096   4.642   1.935  0.3451  0.2996 -1.0695
  239MOL0     H32223   5.953   4.486   2.084  1.9761  0.6559 -1.1973
  239MOL0     H32224   5.878   4.428   1.928  0.1428  0.2485 -0.0155
  239MOL0     H32225   5.628   4.776   1.964  0.0505 -0.3967 -0.0688
  239MOL0     H32226   5.287   4.769   1.991  0.8569  0.9521 -1.7314
  239MOL0     H32227   5.372   4.848   2.143  0.5316  2.2147 -0.9111
  239MOL0     H32228   5.425   4.867   1.984  1.5272 -0.5000  1.2312
  239MOL0     H32229   5.058   4.508   2.004  0.9310 -0.7689 -0.3124
  239MOL0     H32230   4.816   4.446   2.016  0.7400  1.9903  1.4550
  239MOL0     H32231   4.664   4.296   1.959  2.4383 -1.4954  0.3092
  239MOL0     H32232   4.598   4.152   2.017 -0.0631 -0.0462 -0.6895
  239MOL0     H32233   4.591   4.422   2.168 -0.7636  1.2028 -1.2351
  239MOL0     H32234   4.448   4.382   2.066 -1.5484 -0.5057  0.6061
  239MOL0     H32235   4.495   4.258   2.338 -2.9408  0.1496  0.8062
  239MOL0     H32236   4.409   4.180   2.208 -0.3677  0.5551 -1.5297
  239MOL0     H32237   4.379   4.479   2.303  0.5306 -0.0784  0.2287
  239MOL0     H32238   4.269   4.401   2.198  1.7768 -0.8642 -0.6744
  239MOL0     H32239   4.300   4.324   2.493  0.2739  1.9392  0.1754
  239MOL0     H32240   4.206   4.232   2.374 -0.0769 -1.5442  4.7150
  239MOL0     H32241   4.167   4.528   2.437  0.3308  0.4879  0.1498
  239MOL0     H32242   4.065   4.436   2.329 -3.6466  1.3500  2.4673
  239MOL0     H32243   4.024   4.279   2.545 -0.0123  0.3843  1.9466
  239MOL0     H32244   3.944   4.439   2.532 -0.5417 -0.7012 -0.9338
  239MOL0     H32245   4.110   4.547   2.678 -0.0494  0.0517  2.1992
  239MOL0     H32246   4.193   4.377   2.683 -1.8094 -3.8144  0.5954
  239MOL0     H32247   4.902   4.137   2.288 -1.0201  1.2940  1.6534
  239MOL0     H32248   5.125   4.211   2.318 -0.6900  2.6498  1.9911
  239MOL0     H32249   5.488   4.354   2.167 -0.4812  0.4417  0.3580
  239MOL0     H32250   5.727   4.387   2.110  1.1899  0.3638 -0.8276
  239MOL0     H32251   7.641   4.432   1.938  1.8182  0.0479  1.9722
  239MOL0     H32252   7.880   4.427   1.942 -0.6749 -1.4301  2.2204
  239MOL0     H32253   8.325   4.494   1.890 -0.2223 -0.6218 -1.5727
  239MOL0     H32254   8.540   4.433   1.984 -1.2093  0.8885  0.7021
  239MOL0     H32255   8.747   4.334   2.106 -0.3985  1.0285  1.5643
  239MOL0     H32256   8.609   4.264   2.186 -0.8245 -1.7813  0.7408
  239MOL0     H32257   8.746   4.060   2.240  0.8214 -0.1484 -0.0541
  239MOL0     H32258   8.838   4.206   2.287 -1.0465  1.1687 -0.3791
  239MOL0     H32259   8.946   4.219   2.074  0.8192 -0.0231 -1.3287
  239MOL0     H32260   8.891   4.066   2.014  1.3243 -1.4339  0.6258
  239MOL0     H32261   9.038   4.070   2.276  2.3700 -3.6466  0.3019
  239MOL0     H32262   9.110   4.034   2.127  0.1615  1.6892 -1.4667
  239MOL0     H32263   8.923   3.665   2.176 -0.3933 -0.5621  0.9584
  239MOL0     H32264   8.455   4.011   1.930 -0.6249 -1.4076  0.6462
  239MOL0     H32265   8.235   4.069   1.839  0.2837 -0.5361  0.7016
  240MOL0     O32266   6.049   5.644   9.527  0.4666  1.0400  0.6606
  240MOL0     C32267   6.160   5.684   9.554  0.7304 -0.0498  0.7035
  240MOL0     O32268   6.185   5.794   9.633 -0.0691 -0.2233 -0.3235
  240MOL0     C32269   6.084   5.863   9.695  0.2011  0.1412 -0.4874
  240MOL0     C32270   6.132   5.978   9.762  0.8557  0.2239 -0.0128
  240MOL0     C32271   6.041   6.039   9.849 -0.7550 -0.4174 -0.0866
  240MOL0     C32272   5.910   6.010   9.867 -0.3684  0.1392  0.2825
  240MOL0     O32273   5.846   6.092   9.956 -0.3458  0.6616  0.0315
  240MOL0     C32274   5.704   6.070   9.975 -0.1159 -0.9664 -0.0970
  240MOL0     C32275   5.638   6.158  10.084 -1.1068  0.4539 -0.2140
  240MOL0     C32276   5.492   6.121  10.121 -0.6695  0.0130 -0.1429
  240MOL0     C32277   5.402   6.153  10.003  0.2616  0.6441  0.0782
  240MOL0     C32278   5.259   6.106  10.034  0.2180 -0.5254 -0.4308
  240MOL0     C32279   5.169   6.123   9.911 -0.0919  0.3834 -0.8401
  240MOL0     C32280   5.029   6.059   9.936 -0.1236  0.4754  0.5538
  240MOL0     C32281   4.938   6.158  10.001  0.5350 -0.0768  0.3159
  240MOL0     N32282   4.810   6.092  10.036  0.0082 -0.5128 -0.4439
  240MOL0     C32283   4.799   6.007  10.141 -0.1093  1.8906 -0.3319
  240MOL0     C32284   4.676   5.956  10.133  0.6167  0.4180  0.6129
  240MOL0     C32285   4.626   5.853  10.234 -0.1951  0.2623 -0.3029
  240MOL0     C32286   4.483   5.806  10.200 -0.9701 -0.1936 -0.2590
  240MOL0     C32287   4.416   5.717  10.313  0.2992 -0.6516  0.4994
  240MOL0     C32288   4.280   5.674  10.275  0.1617  0.5570 -0.5678
  240MOL0     O32289   4.191   5.787  10.270  0.6335 -0.1638 -0.6296
  240MOL0     C32290   4.057   5.762  10.255 -0.2731  0.1114  0.0452
  240MOL0     C32291   3.987   5.646  10.210  0.2948  0.5686  0.9874
  240MOL0     C32292   3.853   5.645  10.184  0.8076  0.9313 -0.1454
  240MOL0     C32293   3.800   5.525  10.115 -0.5011  0.1403  0.8436
  240MOL0     C32294   3.780   5.763  10.225 -0.1672  0.2110  0.5238
  240MOL0     C32295   3.630   5.759  10.230  0.0829  0.5158  0.6889
  240MOL0     O32296   3.570   5.877  10.253 -0.7562 -0.0639  0.4789
  240MOL0     C32297   3.441   5.874  10.298 -0.4588 -0.2455 -0.8768
  240MOL0     C32298   3.430   5.944  10.412  0.0114  0.1256 -0.7297
  240MOL0     C32299   3.313   5.941  10.495 -0.8761 -0.0872  0.7160
  240MOL0     C32300   3.197   5.871  10.447  0.8590  0.8717 -0.1638
  240MOL0     O32301   3.077   5.862  10.517  0.1459  0.5481 -0.2799
  240MOL0     C32302   2.962   5.895  10.433 -0.3916  1.1598 -0.1297
  240MOL0     C32303   2.881   5.990  10.517  0.6243  0.5015  1.3156
  240MOL0     C32304   2.758   6.054  10.441  0.1173 -0.4801  0.4480
  240MOL0     C32305   2.660   5.947  10.383  0.0123 -0.0223 -0.4694
  240MOL0     C32306   2.560   6.013  10.297  0.3859 -0.1795  0.0918
  240MOL0     C32307   2.435   5.939  10.317  0.3892 -0.0818  1.0477
  240MOL0     C32308   2.324   5.973  10.209 -0.4368  0.8139 -0.5046
  240MOL0     C32309   2.276   6.122  10.187 -0.2184  0.4943 -0.4091
  240MOL0    Cl32310   2.384   6.217  10.063  0.1361 -0.1519 -0.0899
  240MOL0     C32311   3.211   5.789  10.330 -0.1434 -0.7556 -0.0373
  240MOL0     C32312   3.332   5.792  10.267 -0.8575  0.2028  0.3152
  240MOL0     O32313   3.582   5.652  10.258  0.4445  0.1287  0.3386
  240MOL0     C32314   3.838   5.874  10.273 -0.6788 -0.0795  0.4802
  240MOL0     C32315   3.974   5.873  10.291 -0.4589 -0.2630 -0.3912
  240MOL0     N32316   4.615   6.021  10.025  0.3314  0.4876  0.1053
  240MOL0     N32317   4.696   6.100   9.965  0.7498 -0.7977 -0.3125
  240MOL0     C32318   5.872   5.896   9.811  0.4917  0.2784  0.6777
  240MOL0     C32319   5.950   5.821   9.720 -1.1064  0.9100  0.6927
  240MOL0     C32320   6.280   5.626   9.480 -0.3134  0.4385  0.1680
  240MOL0     C32321   6.410   5.658   9.503 -0.9801 -0.9336  0.2158
  240MOL0     C32322   6.512   5.589   9.441 -0.4974 -0.2159 -0.4802
  240MOL0     C32323   6.485   5.481   9.359 -0.8189 -0.4340  0.3718
  240MOL0     O32324   6.604   5.423   9.321 -0.7778  0.1344 -0.1398
  240MOL0     C32325   6.597   5.314   9.240 -0.3869  0.0318  0.6827
  240MOL0     C32326   6.550   5.180   9.299  0.6131  0.3761 -1.1217
  240MOL0     C32327   6.608   5.153   9.442 -0.3321  0.4053  0.2755
  240MOL0     C32328   6.756   5.118   9.428  0.8819 -0.5517 -0.0641
  240MOL0     C32329   6.825   5.114   9.555  0.0015 -0.4428 -0.2621
  240MOL0     C32330   6.876   5.108   9.665  0.6294  0.0812  0.4924
  240MOL0     C32331   6.354   5.450   9.320  0.6500 -0.0904 -0.9248
  240MOL0     C32332   6.253   5.529   9.380  0.0273 -0.1219 -0.3415
  240MOL0     H32333   6.237   6.002   9.754  1.1965 -1.6699 -3.1393
  240MOL0     H32334   6.076   6.121   9.911  0.4593 -0.7320 -0.3211
  240MOL0     H32335   5.649   6.081   9.882  1.3204 -1.4773 -1.0360
  240MOL0     H32336   5.685   5.966  10.003  2.6939 -1.3724  0.6807
  240MOL0     H32337   5.694   6.148  10.177  2.6982 -3.4146 -2.5974
  240MOL0     H32338   5.639   6.264  10.055  1.4520  1.1354  2.0001
  240MOL0     H32339   5.466   6.020  10.154 -2.9809  0.1587 -1.3032
  240MOL0     H32340   5.454   6.190  10.197 -1.3436 -0.7860  0.2675
  240MOL0     H32341   5.401   6.257   9.968 -0.7460  0.2698 -1.0316
  240MOL0     H32342   5.434   6.099   9.914 -0.1347 -0.8719  0.8177
  240MOL0     H32343   5.249   6.003  10.070  0.2612  0.4266  2.6317
  240MOL0     H32344   5.229   6.167  10.120  0.8631 -1.5898  0.5824
  240MOL0     H32345   5.164   6.229   9.884 -0.0268  1.3491  2.4953
  240MOL0     H32346   5.213   6.079   9.822 -5.0428 -2.8548 -2.0885
  240MOL0     H32347   4.982   6.037   9.840 -2.5881  2.9495  1.0590
  240MOL0     H32348   5.037   5.963   9.989 -2.6642 -0.3924 -0.4703
  240MOL0     H32349   4.925   6.241   9.931  1.8803 -0.8308 -0.8860
  240MOL0     H32350   4.975   6.195  10.097 -2.6684  1.9251  0.9304
  240MOL0     H32351   4.874   5.965  10.207 -3.0739 -1.9208  0.9502
  240MOL0     H32352   4.699   5.774  10.250  1.0948  0.9298 -2.4719
  240MOL0     H32353   4.615   5.907  10.329 -0.9470  0.3848 -0.4499
  240MOL0     H32354   4.498   5.758  10.103 -1.8024 -1.9024  0.4305
  240MOL0     H32355   4.419   5.893  10.181  2.1046  1.7425 -2.6821
  240MOL0     H32356   4.407   5.770  10.408  0.8693 -0.2872  0.3563
  240MOL0     H32357   4.474   5.626  10.334  1.2612 -0.1483  0.1174
  240MOL0     H32358   4.246   5.608  10.355 -1.4384  1.3814 -0.5115
  240MOL0     H32359   4.285   5.628  10.176 -1.6691 -0.1013 -0.3855
  240MOL0     H32360   4.041   5.557  10.178  0.0591  0.8723 -0.3284
  240MOL0     H32361   3.774   5.449  10.190  0.7116 -1.2961 -0.1501
  240MOL0     H32362   3.711   5.559  10.062  0.4192  0.6204 -0.4303
  240MOL0     H32363   3.869   5.481  10.043  0.3079 -1.9676  2.7732
  240MOL0     H32364   3.512   6.009  10.443  0.0124  0.2386 -0.9690
  240MOL0     H32365   3.311   6.004  10.584 -0.3668  0.1440  0.5701
  240MOL0     H32366   2.999   5.942  10.342  1.7727 -1.5940 -0.8247
  240MOL0     H32367   2.910   5.804  10.401  0.2562  0.4508  0.7860
  240MOL0     H32368   2.850   5.943  10.611 -3.7191  2.2355  0.9769
  240MOL0     H32369   2.945   6.078  10.533 -1.3629  2.5143 -1.0547
  240MOL0     H32370   2.801   6.108  10.356 -1.0560 -0.1282  0.0585
  240MOL0     H32371   2.711   6.129  10.504  0.8357  0.8669 -0.5684
  240MOL0     H32372   2.719   5.873  10.328  0.4822 -0.3253  0.4273
  240MOL0     H32373   2.624   5.895  10.473  1.8367  0.9572  0.8679
  240MOL0     H32374   2.600   6.026  10.196 -1.5497 -0.9103 -0.8292
  240MOL0     H32375   2.547   6.114  10.336  1.0792  0.9961 -2.5232
  240MOL0     H32376   2.445   5.833  10.293  2.0904  0.4533 -0.8703
  240MOL0     H32377   2.397   5.956  10.418  0.0149 -2.4404  1.3661
  240MOL0     H32378   2.235   5.932  10.256 -0.7128  3.3462  1.3808
  240MOL0     H32379   2.352   5.924  10.115 -1.0472 -0.6734  0.0550
  240MOL0     H32380   2.271   6.187  10.274 -0.3262 -0.6115  0.4419
  240MOL0     H32381   2.176   6.112  10.145  0.1703  2.7796 -2.0816
  240MOL0     H32382   3.140   5.717  10.290  0.0804 -1.4128  0.7129
  240MOL0     H32383   3.338   5.740  10.172 -2.2381  0.3294  0.1287
  240MOL0     H32384   3.784   5.964  10.299 -0.1529  0.4011 -0.0691
  240MOL0     H32385   4.021   5.956  10.342  0.3335 -0.7504 -0.3072
  240MOL0     H32386   5.776   5.858   9.843 -0.3742  0.7012 -1.2459
  240MOL0     H32387   5.920   5.723   9.684  0.5805  1.0558 -1.3017
  240MOL0     H32388   6.426   5.740   9.572  0.5205 -0.4789 -0.6189
  240MOL0     H32389   6.618   5.603   9.464 -0.1906 -2.4627 -0.3659
  240MOL0     H32390   6.529   5.330   9.155  1.9678 -1.9136 -1.7095
  240MOL0     H32391   6.694   5.298   9.192  0.8492 -4.3300  4.0974
  240MOL0     H32392   6.564   5.092   9.235  0.2987 -2.8241  2.7779
  240MOL0     H32393   6.441   5.192   9.305  0.7324  2.0171 -1.7581
  240MOL0     H32394   6.549   5.069   9.482 -1.4975  0.2847 -1.6070
  240MOL0     H32395   6.599   5.250   9.492  3.1580  1.7647 -1.4020
  240MOL0     H32396   6.808   5.185   9.359 -0.4044 -0.2960 -0.8061
  240MOL0     H32397   6.765   5.015   9.390 -0.8037 -2.1904  3.5036
  240MOL0     H32398   6.919   5.082   9.760 -2.3398  0.7639  2.1330
  240MOL0     H32399   6.332   5.380   9.240  0.2126  2.0009 -2.7488
  240MOL0     H32400   6.150   5.509   9.353  0.4809 -1.4508 -1.2007
  241MOL0     O32401   4.806  11.241   3.443 -0.2315 -0.7603 -0.4837
  241MOL0     C32402   4.835  11.354   3.498 -0.1335 -0.7455  0.0454
  241MOL0     O32403   4.746  11.436   3.552  1.0607  0.0703  0.1459
  241MOL0     C32404   4.608  11.416   3.534 -0.5169  0.3337 -0.6700
  241MOL0     C32405   4.524  11.443   3.643 -0.7686  0.3308  0.0509
  241MOL0     C32406   4.387  11.424   3.634 -0.0789 -0.1918  0.0984
  241MOL0     C32407   4.328  11.376   3.511 -0.1652 -0.5170 -0.7031
  241MOL0     O32408   4.200  11.357   3.485  0.0690  0.0906 -0.4835
  241MOL0     C32409   4.119  11.337   3.606  0.5211  0.1137  0.4601
  241MOL0     C32410   3.989  11.274   3.573  1.3012  0.6315 -0.2488
  241MOL0     C32411   3.909  11.370   3.490  0.9315  0.1951 -0.3590
  241MOL0     C32412   3.766  11.313   3.465 -0.2944 -1.1426 -0.1697
  241MOL0     C32413   3.707  11.398   3.340 -0.9158 -0.3449  0.4371
  241MOL0     C32414   3.559  11.371   3.306  0.2651  0.2270 -0.3754
  241MOL0     C32415   3.506  11.487   3.227 -0.4120 -0.1174  0.2332
  241MOL0     C32416   3.469  11.610   3.317  0.0633 -0.3798  0.1179
  241MOL0     N32417   3.380  11.700   3.242  0.3956 -0.0684  0.7380
  241MOL0     C32418   3.303  11.800   3.297  0.2833 -0.0585 -0.5915
  241MOL0     C32419   3.231  11.854   3.191  0.1004  1.4245 -0.3082
  241MOL0     C32420   3.128  11.960   3.187  0.7280 -0.2350 -0.2870
  241MOL0     C32421   3.045  11.980   3.316  0.5845  0.2135 -0.1290
  241MOL0     C32422   2.946  12.102   3.325 -0.2095  0.3330 -0.5835
  241MOL0     C32423   2.836  12.084   3.431 -0.1156  0.0973  0.2052
  241MOL0     O32424   2.790  12.223   3.447  0.7622  0.2543 -0.0137
  241MOL0     C32425   2.679  12.242   3.530  0.1294 -0.3480  0.2010
  241MOL0     C32426   2.630  12.375   3.545  0.2265  0.2068  0.4822
  241MOL0     C32427   2.507  12.397   3.605 -0.0572 -0.4766 -0.1696
  241MOL0     C32428   2.450  12.538   3.600  0.2713  0.1932 -0.2879
  241MOL0     C32429   2.433  12.291   3.666 -0.1612 -0.6347  0.3249
  241MOL0     C32430   2.304  12.299   3.739 -0.3740 -0.0922  0.2019
  241MOL0     O32431   2.246  12.179   3.783 -0.3760 -0.9466 -0.3266
  241MOL0     C32432   2.126  12.181   3.863  0.9048  0.0311  0.3671
  241MOL0     C32433   2.022  12.092   3.835 -0.4463  0.2927  0.5765
  241MOL0     C32434   1.907  12.080   3.912 -0.0125  0.2315  0.4493
  241MOL0     C32435   1.877  12.177   4.006  1.4488  0.3353  0.6488
  241MOL0     O32436   1.768  12.186   4.092 -0.6697  0.0059 -0.0817
  241MOL0     C32437   1.666  12.089   4.072  0.6467  0.1828 -1.2186
  241MOL0     C32438   1.546  12.132   4.168 -0.3162  0.0783  0.6430
  241MOL0     C32439   1.425  12.038   4.168  0.6369 -0.0508 -0.3466
  241MOL0     C32440   1.439  11.895   4.215  0.2208  0.5427 -0.3396
  241MOL0     C32441   1.326  11.804   4.232  0.3324 -0.2416  0.8314
  241MOL0     C32442   1.211  11.866   4.303 -0.2088  1.3061  0.4827
  241MOL0     C32443   1.097  11.767   4.319  0.8596 -0.0527  0.1874
  241MOL0     C32444   0.971  11.832   4.356 -0.0004  0.4923  0.2666
  241MOL0    Cl32445   0.840  11.717   4.340 -0.2324 -0.5575 -0.0546
  241MOL0     C32446   1.978  12.273   4.030 -0.1332 -0.3307  0.2073
  241MOL0     C32447   2.100  12.272   3.965  0.4143 -0.2718  0.9665
  241MOL0     O32448   2.264  12.410   3.763 -0.2566  0.2666 -0.1529
  241MOL0     C32449   2.492  12.165   3.656  0.4620  1.0724  0.0203
  241MOL0     C32450   2.608  12.137   3.588 -0.4198  0.0346 -0.3703
  241MOL0     N32451   3.281  11.793   3.077  0.4081 -0.1902 -0.3798
  241MOL0     N32452   3.369  11.706   3.106 -0.2334  0.2320  0.2813
  241MOL0     C32453   4.409  11.377   3.396  0.0297  0.3413  0.1468
  241MOL0     C32454   4.547  11.388   3.410  1.0569  0.6583  0.6746
  241MOL0     C32455   4.980  11.390   3.515 -0.7809  1.1467 -0.0684
  241MOL0     C32456   5.015  11.509   3.578 -1.0192 -0.4172 -0.8319
  241MOL0     C32457   5.150  11.528   3.614  0.4217  0.0551 -1.3606
  241MOL0     C32458   5.249  11.433   3.597 -0.4499 -1.2227 -0.6934
  241MOL0     O32459   5.377  11.475   3.632  0.0008  0.5468  0.5041
  241MOL0     C32460   5.487  11.389   3.674  0.1523  0.2223 -0.7312
  241MOL0     C32461   5.462  11.319   3.815 -1.1491  0.4581 -0.2363
  241MOL0     C32462   5.581  11.221   3.846 -0.2357 -0.3009  0.6236
  241MOL0     C32463   5.562  11.141   3.966 -0.5456 -0.0970 -0.5999
  241MOL0     C32464   5.690  11.084   3.998 -0.3643  0.5057 -0.6256
  241MOL0     C32465   5.797  11.034   4.013 -0.5330  0.7367  0.1270
  241MOL0     C32466   5.210  11.311   3.548 -0.3037 -0.7607  0.1431
  241MOL0     C32467   5.083  11.295   3.501  0.4981 -0.0814  0.7803
  241MOL0     H32468   4.570  11.467   3.739 -2.2502  0.1309  0.8360
  241MOL0     H32469   4.335  11.445   3.726 -0.0756 -1.3872  0.3907
  241MOL0     H32470   4.171  11.274   3.679 -0.5991  0.3535  1.5121
  241MOL0     H32471   4.105  11.431   3.660  1.6576  1.3138 -1.2635
  241MOL0     H32472   3.999  11.180   3.517  3.6337 -0.4430  1.7589
  241MOL0     H32473   3.931  11.236   3.658  1.3537 -0.4381 -0.6696
  241MOL0     H32474   3.898  11.462   3.548  0.0681 -0.9776  1.4395
  241MOL0     H32475   3.965  11.393   3.399 -0.8257  0.9798 -1.3061
  241MOL0     H32476   3.769  11.206   3.441 -2.2819 -1.4455  0.7295
  241MOL0     H32477   3.700  11.321   3.552 -0.4574  1.5339 -0.4475
  241MOL0     H32478   3.723  11.503   3.363 -1.1459 -0.2268  0.0531
  241MOL0     H32479   3.763  11.384   3.247  0.3319  0.6653  1.0098
  241MOL0     H32480   3.550  11.284   3.241  0.1117  1.0996 -1.5538
  241MOL0     H32481   3.497  11.351   3.394 -3.3579  0.7119 -2.5819
  241MOL0     H32482   3.569  11.506   3.140 -0.1099  2.0750  0.8641
  241MOL0     H32483   3.414  11.448   3.185 -0.2438 -2.3267  1.7031
  241MOL0     H32484   3.556  11.660   3.359 -1.0659  0.6502  1.3339
  241MOL0     H32485   3.407  11.576   3.401  0.1402 -0.4447  0.1475
  241MOL0     H32486   3.275  11.808   3.402 -3.6216 -2.7234 -1.2026
  241MOL0     H32487   3.192  12.047   3.169 -0.3533  0.9918  1.4787
  241MOL0     H32488   3.065  11.945   3.099  1.4454 -3.6984 -0.3621
  241MOL0     H32489   3.110  11.977   3.404 -1.6284  2.4401  1.7258
  241MOL0     H32490   2.984  11.890   3.331 -0.1214  0.4207 -1.6075
  241MOL0     H32491   2.909  12.115   3.222 -1.8790 -0.6829 -0.1446
  241MOL0     H32492   3.000  12.192   3.357  1.7721 -0.8961 -0.2628
  241MOL0     H32493   2.879  12.046   3.524  1.6517  0.9683 -0.2065
  241MOL0     H32494   2.752  12.024   3.394 -0.0853  0.2659 -0.1425
  241MOL0     H32495   2.684  12.461   3.506 -2.1325  1.6911  0.2793
  241MOL0     H32496   2.456  12.594   3.694  1.8877  1.1621 -0.9389
  241MOL0     H32497   2.490  12.601   3.520  0.8777  3.2844  2.2665
  241MOL0     H32498   2.341  12.543   3.591  0.3239  3.5853 -0.0495
  241MOL0     H32499   2.038  12.030   3.747  0.6128  1.1824  0.1172
  241MOL0     H32500   1.839  12.001   3.883  0.7129 -0.2703  0.0808
  241MOL0     H32501   1.647  12.093   3.964  1.8277 -0.7450 -1.4863
  241MOL0     H32502   1.704  11.992   4.107 -0.1843  0.5561  0.8393
  241MOL0     H32503   1.579  12.152   4.270 -2.4744 -1.5742  1.7444
  241MOL0     H32504   1.518  12.227   4.119  1.6554 -0.5172 -1.9089
  241MOL0     H32505   1.391  12.038   4.064  2.8874 -0.3708 -1.1460
  241MOL0     H32506   1.356  12.085   4.238  0.8014  0.3162 -0.4284
  241MOL0     H32507   1.518  11.845   4.157 -0.3302  1.1625 -1.6747
  241MOL0     H32508   1.475  11.909   4.317 -2.3909  1.2400  0.5495
  241MOL0     H32509   1.370  11.721   4.289 -0.4406 -2.0719 -1.0888
  241MOL0     H32510   1.298  11.767   4.132  1.9306 -0.6095  0.4923
  241MOL0     H32511   1.240  11.895   4.405 -1.1398 -0.9032  1.4421
  241MOL0     H32512   1.174  11.950   4.243  0.1871 -0.0088 -1.6823
  241MOL0     H32513   1.117  11.684   4.387  2.0309 -1.0931 -1.3774
  241MOL0     H32514   1.083  11.718   4.223  3.5776 -0.3023 -0.1854
  241MOL0     H32515   0.959  11.917   4.289 -1.6553  2.5415  2.9901
  241MOL0     H32516   0.978  11.877   4.455  1.2988  1.2466 -0.1474
  241MOL0     H32517   1.961  12.337   4.116 -1.9164  0.8092 -0.9257
  241MOL0     H32518   2.176  12.346   3.986  1.0647 -1.0156  1.2756
  241MOL0     H32519   2.441  12.072   3.679  2.8014  0.1076  1.6451
  241MOL0     H32520   2.649  12.037   3.580  0.1206  0.1106  1.1189
  241MOL0     H32521   4.365  11.356   3.298 -0.6168  3.6343 -0.3664
  241MOL0     H32522   4.609  11.388   3.321 -1.5334  1.7897 -1.2595
  241MOL0     H32523   4.935  11.574   3.614 -0.6869 -0.2982 -0.2899
  241MOL0     H32524   5.176  11.624   3.659 -0.2780 -1.0988  1.7637
  241MOL0     H32525   5.501  11.313   3.596  0.2041  0.0030 -0.5089
  241MOL0     H32526   5.580  11.444   3.688  1.1873 -1.5524 -0.4252
  241MOL0     H32527   5.368  11.264   3.820 -0.7070 -0.1987  2.1263
  241MOL0     H32528   5.451  11.398   3.890  0.1750 -1.0116  1.5958
  241MOL0     H32529   5.668  11.287   3.846 -0.7468  0.5105 -1.8619
  241MOL0     H32530   5.597  11.151   3.764  1.1407  2.1995 -1.4093
  241MOL0     H32531   5.484  11.065   3.957  0.3415 -0.9208 -1.6644
  241MOL0     H32532   5.542  11.211   4.048 -1.5245 -0.6109 -0.3816
  241MOL0     H32533   5.894  11.001   4.044 -0.2976  0.5288 -0.7955
  241MOL0     H32534   5.290  11.240   3.530  0.9646  0.2589  1.4793
  241MOL0     H32535   5.056  11.200   3.457 -1.5407 -0.3304  2.3821
  242MOL0     O32536   7.389   9.558   1.459  0.2123 -0.0236 -0.6348
  242MOL0     C32537   7.407   9.677   1.448 -0.2337  0.2417  0.3194
  242MOL0     O32538   7.307   9.773   1.435 -0.5051 -0.2999 -1.0656
  242MOL0     C32539   7.180   9.735   1.401  0.1826 -0.2556  0.8835
  242MOL0     C32540   7.069   9.738   1.493 -0.3632 -0.4498 -0.3775
  242MOL0     C32541   6.945   9.683   1.460  0.5782  1.0441 -0.3537
  242MOL0     C32542   6.914   9.648   1.330  1.1186  1.1039  0.8115
  242MOL0     O32543   6.790   9.615   1.291 -0.2001 -0.4860  0.3409
  242MOL0     C32544   6.752   9.595   1.151  0.0765  0.5140 -2.0815
  242MOL0     C32545   6.603   9.556   1.138 -0.0760 -0.9137 -0.4007
  242MOL0     C32546   6.507   9.666   1.196  0.3945 -0.6606  0.6408
  242MOL0     C32547   6.354   9.635   1.199  0.0378 -0.1680  0.4149
  242MOL0     C32548   6.274   9.758   1.254  0.7205  0.4002  0.2396
  242MOL0     C32549   6.315   9.815   1.388  0.7399 -0.9477  0.5186
  242MOL0     C32550   6.226   9.939   1.422  0.0334  0.2558  0.3894
  242MOL0     C32551   6.215   9.953   1.569 -0.3864 -0.1319 -0.1243
  242MOL0     N32552   6.111  10.059   1.602 -0.4082 -0.3920  0.0820
  242MOL0     C32553   6.137  10.189   1.606  0.4043 -0.4638 -0.0670
  242MOL0     C32554   6.025  10.251   1.643 -0.4472  0.4359 -0.1160
  242MOL0     C32555   5.990  10.396   1.653 -0.0470  0.1339  0.8154
  242MOL0     C32556   6.062  10.456   1.775 -0.2963  0.5084  0.0299
  242MOL0     C32557   6.119  10.595   1.754  0.2238 -0.3559 -0.3155
  242MOL0     C32558   6.155  10.665   1.890 -0.1829  1.0477  0.4762
  242MOL0     O32559   6.255  10.585   1.950 -0.2855  0.1412 -0.4171
  242MOL0     C32560   6.299  10.622   2.072 -0.9465  0.6443  0.3467
  242MOL0     C32561   6.239  10.721   2.161 -0.4217  0.5917  0.6441
  242MOL0     C32562   6.296  10.753   2.284  0.7007 -0.8175 -0.2454
  242MOL0     C32563   6.223  10.852   2.376  0.4921  0.4669 -0.2064
  242MOL0     C32564   6.403  10.684   2.328 -0.3892  0.2813  0.1456
  242MOL0     C32565   6.464  10.717   2.451 -0.0800  0.4138  0.0806
  242MOL0     O32566   6.492  10.851   2.476  0.4049 -0.7052  0.6287
  242MOL0     C32567   6.558  10.880   2.588  0.1093 -0.3595  0.1002
  242MOL0     C32568   6.696  10.856   2.600  0.1680  0.0563 -0.5924
  242MOL0     C32569   6.764  10.886   2.717 -0.2951 -0.1217  0.4605
  242MOL0     C32570   6.699  10.956   2.820 -0.0534  0.3265  0.3532
  242MOL0     O32571   6.774  11.001   2.925  1.0932  0.6183  0.3654
  242MOL0     C32572   6.730  11.097   3.025  0.5965 -0.9324  0.3327
  242MOL0     C32573   6.843  11.150   3.109  0.3555  0.0074 -0.1047
  242MOL0     C32574   6.865  11.041   3.223 -0.5508 -0.0933 -0.8835
  242MOL0     C32575   6.986  11.061   3.306 -0.6066  0.2300  0.1226
  242MOL0     C32576   7.117  11.047   3.239  0.4938  0.0684  0.3269
  242MOL0     C32577   7.220  11.020   3.346  0.1637 -0.0410 -0.6259
  242MOL0     C32578   7.360  11.020   3.294  0.2724 -0.2354 -0.0979
  242MOL0     C32579   7.463  11.000   3.399 -0.4768  0.2733  0.3138
  242MOL0    Cl32580   7.472  11.134   3.512 -0.0774  0.3149 -0.0026
  242MOL0     C32581   6.554  10.978   2.807  0.2349 -0.4091  0.3701
  242MOL0     C32582   6.490  10.938   2.689  0.2658  0.1864 -0.3903
  242MOL0     O32583   6.479  10.626   2.528  0.7562  1.3076 -0.1456
  242MOL0     C32584   6.458  10.576   2.252 -0.7048  0.6879  0.3770
  242MOL0     C32585   6.409  10.549   2.120 -0.4174 -0.4394 -0.8666
  242MOL0     N32586   5.929  10.154   1.677 -0.7333  0.1279  0.7017
  242MOL0     N32587   5.977  10.040   1.635  0.6688  0.2878  0.4121
  242MOL0     C32588   7.020   9.658   1.234  0.6750 -0.0800 -0.1669
  242MOL0     C32589   7.150   9.703   1.269  0.3198  0.3429 -0.2410
  242MOL0     C32590   7.541   9.739   1.478 -0.2788  0.1103  0.9679
  242MOL0     C32591   7.575   9.871   1.464 -0.3193 -0.5053 -0.7260
  242MOL0     C32592   7.703   9.915   1.496  0.2458 -0.6159  0.2489
  242MOL0     C32593   7.797   9.841   1.561 -0.1454 -0.1962  0.2771
  242MOL0     O32594   7.921   9.884   1.607  0.0010 -0.5287 -0.4213
  242MOL0     C32595   7.954  10.027   1.608  0.4064 -0.0557  0.0513
  242MOL0     C32596   8.027  10.063   1.474 -0.1062 -0.1614  0.1562
  242MOL0     C32597   8.025  10.214   1.435  0.0401  0.2850  0.0264
  242MOL0     C32598   8.118  10.291   1.517 -0.4012  0.0954  0.7641
  242MOL0     C32599   8.130  10.425   1.467 -0.3378 -0.3147 -0.9376
  242MOL0     C32600   8.138  10.542   1.460 -0.2256 -0.6258  0.6015
  242MOL0     C32601   7.760   9.709   1.586  0.2440  0.3073 -0.3405
  242MOL0     C32602   7.644   9.657   1.539  0.8653  0.1850  0.0487
  242MOL0     H32603   7.072   9.769   1.597 -4.2850  0.0392 -0.2482
  242MOL0     H32604   6.865   9.681   1.533  1.1646 -0.3998  0.2659
  242MOL0     H32605   6.757   9.694   1.105 -0.5814  2.3209  1.4064
  242MOL0     H32606   6.801   9.510   1.101 -3.8324 -1.5599 -2.8380
  242MOL0     H32607   6.597   9.554   1.029 -1.0498  2.2728 -0.5087
  242MOL0     H32608   6.589   9.456   1.178 -0.8088 -1.1158 -1.1384
  242MOL0     H32609   6.538   9.685   1.299 -0.6990 -0.0028  0.8605
  242MOL0     H32610   6.528   9.753   1.133 -1.4008 -0.9404 -0.4262
  242MOL0     H32611   6.321   9.623   1.096  3.1282  2.5772 -1.0924
  242MOL0     H32612   6.329   9.544   1.255 -0.2388 -1.2687 -1.4222
  242MOL0     H32613   6.261   9.840   1.184  0.9337  0.1463 -0.1032
  242MOL0     H32614   6.171   9.720   1.257  0.5598  0.7810 -0.4501
  242MOL0     H32615   6.302   9.744   1.471 -2.7277 -0.9761  0.1140
  242MOL0     H32616   6.417   9.852   1.381 -0.3139  2.9492  2.8135
  242MOL0     H32617   6.272  10.031   1.385  1.4100 -0.9218 -1.0136
  242MOL0     H32618   6.125   9.931   1.380  0.5187 -0.3681 -0.6974
  242MOL0     H32619   6.314   9.975   1.612  0.1461 -1.8240 -0.4130
  242MOL0     H32620   6.167   9.871   1.622 -0.6109 -0.1369 -0.3376
  242MOL0     H32621   6.225  10.238   1.566 -0.1997  0.8141  0.1237
  242MOL0     H32622   6.014  10.445   1.558 -0.1771  0.6028  1.0242
  242MOL0     H32623   5.882  10.409   1.663 -0.0114  0.4208  0.8270
  242MOL0     H32624   6.148  10.394   1.801  0.0917  2.0376  2.8991
  242MOL0     H32625   5.994  10.453   1.861 -0.7239 -0.6170 -0.3357
  242MOL0     H32626   6.044  10.650   1.697  0.2790  0.4296  0.3432
  242MOL0     H32627   6.200  10.576   1.683  1.0202  1.2825  0.1152
  242MOL0     H32628   6.064  10.682   1.950 -2.3350  0.0556 -2.2875
  242MOL0     H32629   6.197  10.765   1.874  1.4057  0.3298 -0.0559
  242MOL0     H32630   6.152  10.776   2.127 -0.8528 -0.4059  0.0903
  242MOL0     H32631   6.147  10.907   2.319  0.0546 -0.8570 -0.9458
  242MOL0     H32632   6.172  10.800   2.458  1.8408  1.3007  1.1985
  242MOL0     H32633   6.289  10.934   2.403  0.2084  2.4937 -4.7067
  242MOL0     H32634   6.748  10.809   2.518  1.7001  0.7728 -0.0581
  242MOL0     H32635   6.872  10.879   2.731  0.2334  1.9346 -1.9306
  242MOL0     H32636   6.676  11.184   2.987  2.3790  0.9771  1.9233
  242MOL0     H32637   6.650  11.059   3.089 -1.2793  2.4436  0.2108
  242MOL0     H32638   6.928  11.154   3.041 -0.5163 -0.4098 -1.2457
  242MOL0     H32639   6.813  11.245   3.153 -0.2742 -1.0075  1.8241
  242MOL0     H32640   6.869  10.944   3.172  1.7886 -2.6211  3.5397
  242MOL0     H32641   6.778  11.030   3.289 -0.9665  0.2601 -1.3594
  242MOL0     H32642   6.977  11.150   3.369 -1.9144 -0.8303  1.5082
  242MOL0     H32643   6.984  10.983   3.384  2.1161  1.3635  1.4688
  242MOL0     H32644   7.128  11.134   3.174 -1.8531 -0.1986 -0.5381
  242MOL0     H32645   7.127  10.956   3.179  0.5651 -1.4898  2.5697
  242MOL0     H32646   7.206  11.099   3.421 -3.8460  0.0368 -1.2149
  242MOL0     H32647   7.194  10.924   3.392  0.0293 -0.2938 -1.2248
  242MOL0     H32648   7.383  11.113   3.240  1.5035 -0.8564 -0.6983
  242MOL0     H32649   7.371  10.945   3.215  0.2320  3.1641 -3.6149
  242MOL0     H32650   7.566  10.995   3.362  1.0902 -0.3426  4.2357
  242MOL0     H32651   7.448  10.910   3.459  2.4961  0.2891  1.2534
  242MOL0     H32652   6.505  11.011   2.898  0.1428 -2.0020  0.9428
  242MOL0     H32653   6.383  10.951   2.677  0.7252  2.2763 -3.3021
  242MOL0     H32654   6.538  10.511   2.287 -1.9053 -0.1337  1.6841
  242MOL0     H32655   6.469  10.471   2.074  0.9353 -0.6851  1.1797
  242MOL0     H32656   7.001   9.627   1.131 -0.6706  0.7010 -0.1758
  242MOL0     H32657   7.231   9.695   1.197 -0.2790  0.3662 -0.9283
  242MOL0     H32658   7.501   9.944   1.434 -1.1693 -1.1764 -0.3040
  242MOL0     H32659   7.720  10.022   1.490  0.5521 -0.7281 -3.7315
  242MOL0     H32660   7.868  10.093   1.623  1.2019  1.5590 -2.0333
  242MOL0     H32661   8.028  10.046   1.687  0.4398  1.9928 -0.4348
  242MOL0     H32662   7.984  10.008   1.389  0.3366 -0.2180 -0.0349
  242MOL0     H32663   8.131  10.029   1.480 -0.5384 -1.8528 -0.8969
  242MOL0     H32664   7.923  10.254   1.446 -0.0318 -0.1829  1.1284
  242MOL0     H32665   8.050  10.215   1.329 -2.3257 -0.8707 -0.6156
  242MOL0     H32666   8.213  10.240   1.500 -0.0370  1.6280 -2.5629
  242MOL0     H32667   8.074  10.283   1.617  1.3256  2.8132  1.8629
  242MOL0     H32668   8.137  10.649   1.455 -0.5146 -0.6061  1.0049
  242MOL0     H32669   7.822   9.637   1.639  0.8937  1.8310  1.0346
  242MOL0     H32670   7.602   9.558   1.552 -3.1515  0.5462 -5.9068
  243MOL0     O32671   3.254   3.058   3.873  0.4955 -0.9038 -0.2882
  243MOL0     C32672   3.282   3.174   3.833 -0.1853 -1.3114  0.6105
  243MOL0     O32673   3.190   3.266   3.789  0.0826 -0.2299 -0.1329
  243MOL0     C32674   3.071   3.208   3.775  0.3344  0.2224 -0.2102
  243MOL0     C32675   3.035   3.167   3.643  0.6277  1.0266 -0.2466
  243MOL0     C32676   2.910   3.120   3.610  0.5320  0.8706 -0.3185
  243MOL0     C32677   2.811   3.103   3.711 -0.5551 -0.3098  0.3031
  243MOL0     O32678   2.690   3.039   3.672 -0.9815  0.1074 -0.3452
  243MOL0     C32679   2.587   3.025   3.770 -0.2600  0.2873  0.2457
  243MOL0     C32680   2.465   2.965   3.701  1.0718  0.1324 -1.0817
  243MOL0     C32681   2.351   2.934   3.797  0.2488  0.2719 -0.2134
  243MOL0     C32682   2.228   2.896   3.704 -0.1895 -0.1609 -0.4771
  243MOL0     C32683   2.157   2.998   3.616  0.8322 -0.0862 -0.8868
  243MOL0     C32684   2.069   2.942   3.514  0.4510  0.6764  0.1366
  243MOL0     C32685   1.947   2.863   3.560 -0.0079 -0.2282  0.4027
  243MOL0     C32686   1.870   2.817   3.437 -0.1591 -0.0271  0.7663
  243MOL0     N32687   1.756   2.730   3.468 -0.4692  0.1393  0.8879
  243MOL0     C32688   1.622   2.756   3.455 -0.0415  0.3299 -0.4627
  243MOL0     C32689   1.561   2.649   3.499  0.7696 -0.6474 -0.7894
  243MOL0     C32690   1.405   2.627   3.516 -0.8789  0.4572 -0.4762
  243MOL0     C32691   1.325   2.758   3.535 -0.1671  0.7912  0.1518
  243MOL0     C32692   1.173   2.738   3.531 -0.4300 -0.6569 -0.4823
  243MOL0     C32693   1.098   2.875   3.526  0.5751 -0.5540  0.5303
  243MOL0     O32694   0.962   2.842   3.564 -0.3474  0.3640  0.7602
  243MOL0     C32695   0.867   2.943   3.551  0.1830 -0.2713  0.6220
  243MOL0     C32696   0.754   2.936   3.625  0.1308 -0.3223  0.0231
  243MOL0     C32697   0.642   3.023   3.613  0.0440  1.2235  0.3497
  243MOL0     C32698   0.525   2.997   3.708 -0.0186 -0.1213  0.5174
  243MOL0     C32699   0.651   3.132   3.520  0.2883 -0.0462  0.4998
  243MOL0     C32700   0.538   3.233   3.502 -0.9376 -0.6322 -0.2116
  243MOL0     O32701   0.414   3.183   3.511  0.6493 -0.0204  0.6425
  243MOL0     C32702   0.306   3.268   3.508  0.2260 -0.3609 -1.1194
  243MOL0     C32703   0.217   3.241   3.613  0.2766 -0.8744 -0.1780
  243MOL0     C32704   0.089   3.297   3.620 -0.0770 -0.1632  0.1949
  243MOL0     C32705   0.065   3.416   3.541 -0.3010  0.0448 -0.2074
  243MOL0     O32706  -0.051   3.481   3.564  0.1000 -0.6601  0.1993
  243MOL0     C32707  -0.082   3.599   3.487  1.2057 -0.6610 -0.1776
  243MOL0     C32708  -0.238   3.629   3.499 -0.7187 -0.0865 -0.2340
  243MOL0     C32709  -0.281   3.776   3.458 -0.4964  0.2870  0.5331
  243MOL0     C32710  -0.436   3.797   3.468  0.9906  0.1344 -0.0321
  243MOL0     C32711  -0.483   3.945   3.446 -0.1800  0.3897 -0.8009
  243MOL0     C32712  -0.633   3.956   3.425 -0.0800 -0.4513 -0.4415
  243MOL0     C32713  -0.659   4.107   3.433 -0.8088 -0.7784 -0.0174
  243MOL0     C32714  -0.802   4.145   3.452 -0.3290  0.2941 -0.3923
  243MOL0    Cl32715  -0.845   4.291   3.359 -0.1155 -0.6074  0.1041
  243MOL0     C32716   0.150   3.447   3.432  0.0223 -0.1814  0.2633
  243MOL0     C32717   0.275   3.376   3.418 -0.0055  0.0254 -0.0465
  243MOL0     O32718   0.566   3.349   3.474 -0.1205 -0.1491 -0.1771
  243MOL0     C32719   0.773   3.145   3.445  0.6402  0.4343  0.1517
  243MOL0     C32720   0.877   3.054   3.457 -0.2468  0.3214  0.0378
  243MOL0     N32721   1.659   2.557   3.543 -0.1599 -1.1203 -0.5062
  243MOL0     N32722   1.775   2.603   3.511 -0.2899 -0.3203 -0.1821
  243MOL0     C32723   2.832   3.167   3.833 -0.4488  0.2116  0.2307
  243MOL0     C32724   2.969   3.205   3.871  0.0331 -0.1531 -0.1078
  243MOL0     C32725   3.411   3.234   3.863  0.1771  0.0803 -0.4629
  243MOL0     C32726   3.515   3.155   3.926 -0.4034  0.9273  0.5612
  243MOL0     C32727   3.642   3.206   3.945 -0.5825 -0.4072 -0.1847
  243MOL0     C32728   3.668   3.337   3.938  0.5236  0.2263  0.3893
  243MOL0     O32729   3.792   3.383   3.964  0.1258 -0.2657 -0.2477
  243MOL0     C32730   3.800   3.469   4.080  0.1113  0.5702 -0.1529
  243MOL0     C32731   3.940   3.549   4.077  0.4149 -0.0082 -0.2438
  243MOL0     C32732   4.050   3.451   4.044  0.7877 -0.0824 -0.6273
  243MOL0     C32733   4.183   3.506   4.098 -0.4310 -0.2292  0.1279
  243MOL0     C32734   4.303   3.421   4.069 -0.2911 -0.7129  0.3195
  243MOL0     C32735   4.395   3.359   4.023  0.0465 -0.1122  0.9569
  243MOL0     C32736   3.568   3.414   3.886 -0.0910 -0.8214 -0.2631
  243MOL0     C32737   3.451   3.363   3.836  0.6226 -0.5318 -0.1636
  243MOL0     H32738   3.101   3.177   3.557 -0.9879  0.4819 -1.5973
  243MOL0     H32739   2.879   3.100   3.508 -4.6907  0.7132  1.0049
  243MOL0     H32740   2.619   2.955   3.848  0.1761  1.1839  0.8905
  243MOL0     H32741   2.573   3.126   3.811 -0.7780  1.0132 -1.6094
  243MOL0     H32742   2.419   3.046   3.644 -0.0681  1.8193  1.9981
  243MOL0     H32743   2.479   2.875   3.641  1.7493 -0.8297  0.4760
  243MOL0     H32744   2.380   2.850   3.861  1.3959 -0.5850 -1.7954
  243MOL0     H32745   2.330   3.017   3.866 -0.2531 -0.9771  1.1818
  243MOL0     H32746   2.256   2.804   3.654  0.1288 -0.5906  0.4676
  243MOL0     H32747   2.162   2.865   3.785  2.2088  0.0913  1.6966
  243MOL0     H32748   2.111   3.071   3.683  0.4498 -1.4270  0.3672
  243MOL0     H32749   2.222   3.053   3.547  1.1178 -0.0992 -0.6263
  243MOL0     H32750   2.032   3.015   3.441  0.8201  2.2457  1.4704
  243MOL0     H32751   2.129   2.871   3.457 -1.0253  1.8918 -3.2731
  243MOL0     H32752   1.973   2.767   3.607  1.5699 -0.6994 -1.3206
  243MOL0     H32753   1.882   2.925   3.622  0.9344  0.7082  0.4823
  243MOL0     H32754   1.936   2.765   3.367  1.5373  0.8031  1.6833
  243MOL0     H32755   1.830   2.908   3.391 -0.1340 -0.1276  0.5476
  243MOL0     H32756   1.568   2.845   3.423 -2.2946 -1.1644 -1.0720
  243MOL0     H32757   1.370   2.567   3.431 -1.3911 -0.3152  0.2672
  243MOL0     H32758   1.391   2.564   3.604  0.6466 -0.3059 -0.7340
  243MOL0     H32759   1.356   2.830   3.458  0.7358 -1.2151 -1.4484
  243MOL0     H32760   1.339   2.804   3.634  0.9220 -0.5364  0.6525
  243MOL0     H32761   1.135   2.685   3.619  1.3050 -1.1355  0.0035
  243MOL0     H32762   1.144   2.667   3.453  1.1699  0.2912 -2.0158
  243MOL0     H32763   1.098   2.918   3.426 -1.0687 -2.7006 -0.4719
  243MOL0     H32764   1.133   2.953   3.594 -2.5676 -1.0832  3.0017
  243MOL0     H32765   0.746   2.854   3.696 -1.1427 -0.5125 -0.3149
  243MOL0     H32766   0.541   2.916   3.780 -0.4038 -0.4177  0.2722
  243MOL0     H32767   0.522   3.098   3.751  1.8276 -0.1130  0.7240
  243MOL0     H32768   0.441   2.977   3.641  1.9674 -1.1711 -1.7796
  243MOL0     H32769   0.239   3.159   3.681 -0.9622 -2.3062 -1.4293
  243MOL0     H32770   0.012   3.269   3.692  0.5666  0.6659  1.2420
  243MOL0     H32771  -0.033   3.683   3.535  0.9367 -1.7461  2.1505
  243MOL0     H32772  -0.061   3.593   3.380 -1.5937  0.7436 -0.9200
  243MOL0     H32773  -0.293   3.554   3.441  1.9980 -1.3186 -1.3894
  243MOL0     H32774  -0.270   3.609   3.602 -0.9495 -3.2088 -0.8032
  243MOL0     H32775  -0.249   3.801   3.357  0.6382 -1.7544  0.3218
  243MOL0     H32776  -0.240   3.847   3.530 -2.2426 -0.3121  2.2247
  243MOL0     H32777  -0.477   3.736   3.387 -1.3776 -0.5651  1.5980
  243MOL0     H32778  -0.465   3.758   3.566  0.0465  0.3044 -0.2304
  243MOL0     H32779  -0.436   3.982   3.354  0.8862  0.0532 -0.3937
  243MOL0     H32780  -0.447   4.000   3.533 -2.4421 -0.6649  0.9289
  243MOL0     H32781  -0.651   3.920   3.323  3.3996 -1.2047 -0.9318
  243MOL0     H32782  -0.694   3.901   3.496 -1.9902  0.2400 -1.4860
  243MOL0     H32783  -0.631   4.151   3.337  1.6945  0.0433  1.0084
  243MOL0     H32784  -0.600   4.163   3.506  0.6245 -2.1645 -0.0583
  243MOL0     H32785  -0.815   4.167   3.558 -0.3212  0.0522 -0.3411
  243MOL0     H32786  -0.867   4.060   3.431  2.2506 -2.0134  0.5119
  243MOL0     H32787   0.135   3.538   3.374  0.2586  1.9209  3.2616
  243MOL0     H32788   0.354   3.388   3.345 -0.6188  2.0702 -0.4455
  243MOL0     H32789   0.779   3.242   3.396 -2.7222 -0.4542 -2.3873
  243MOL0     H32790   0.971   3.080   3.409 -0.6751  1.2750 -0.3098
  243MOL0     H32791   2.745   3.166   3.898 -1.2812 -1.6977 -0.8345
  243MOL0     H32792   2.988   3.238   3.973  1.6747 -1.6083  0.0861
  243MOL0     H32793   3.499   3.052   3.955  2.5118  0.2665  0.1314
  243MOL0     H32794   3.727   3.145   3.973 -0.2814 -1.2177 -2.6118
  243MOL0     H32795   3.721   3.545   4.086 -1.6584 -1.2981  1.2493
  243MOL0     H32796   3.793   3.418   4.176  4.2290 -0.1828 -0.0578
  243MOL0     H32797   3.954   3.599   4.173  0.7330  3.0956 -1.7728
  243MOL0     H32798   3.938   3.627   3.999  1.8290  1.6846  1.3095
  243MOL0     H32799   4.051   3.427   3.938  0.8302 -2.8322 -0.0866
  243MOL0     H32800   4.023   3.361   4.100  2.2237 -0.9105 -1.1980
  243MOL0     H32801   4.169   3.523   4.205 -1.3742 -0.8178  0.1147
  243MOL0     H32802   4.187   3.602   4.047  0.8148 -0.1533  0.3438
  243MOL0     H32803   4.481   3.313   3.978 -1.3935 -1.9188 -0.1249
  243MOL0     H32804   3.586   3.519   3.867 -2.7711 -0.6438 -2.3916
  243MOL0     H32805   3.385   3.427   3.777 -0.2326 -3.2346 -2.3950
  244MOL0     O32806   6.992   6.074   9.885  0.4599  0.1643  0.0796
  244MOL0     C32807   6.968   5.960   9.931  0.4492  0.6510  0.2313
  244MOL0     O32808   6.848   5.908   9.956  0.4519  0.1907  0.3815
  244MOL0     C32809   6.740   5.977   9.908  0.9020  0.2718 -0.4479
  244MOL0     C32810   6.663   6.058   9.999  0.1365 -0.6410  0.5764
  244MOL0     C32811   6.542   6.118   9.952  0.2688 -0.1909 -0.2690
  244MOL0     C32812   6.530   6.130   9.810 -0.4831  0.4233 -0.5966
  244MOL0     O32813   6.439   6.220   9.757  0.5431  0.6647 -0.1638
  244MOL0     C32814   6.435   6.360   9.800  0.3973 -0.6329 -0.3140
  244MOL0     C32815   6.291   6.402   9.811 -0.3412 -0.0123 -0.1386
  244MOL0     C32816   6.242   6.450   9.676  0.2843  0.3144 -0.7908
  244MOL0     C32817   6.111   6.396   9.632  0.3453 -0.4581  0.0646
  244MOL0     C32818   6.058   6.478   9.512  0.0166 -1.2455  0.4411
  244MOL0     C32819   6.035   6.629   9.540 -0.2411 -0.1105  0.2953
  244MOL0     C32820   6.002   6.706   9.401 -0.0562 -0.4754  0.3814
  244MOL0     C32821   5.855   6.691   9.366 -0.1467 -1.2107 -0.0901
  244MOL0     N32822   5.800   6.803   9.293  0.0280 -0.4812  0.4173
  244MOL0     C32823   5.805   6.925   9.341 -0.5279  0.2919 -0.3456
  244MOL0     C32824   5.755   6.998   9.238  0.1504 -0.0717 -0.0743
  244MOL0     C32825   5.724   7.141   9.241 -0.3802 -0.3030 -0.0604
  244MOL0     C32826   5.658   7.192   9.115  0.3976 -0.8494  0.3013
  244MOL0     C32827   5.635   7.347   9.115 -0.5894  0.0547 -0.4132
  244MOL0     C32828   5.631   7.396   8.972  1.0932 -0.0883  1.2810
  244MOL0     O32829   5.516   7.330   8.899 -0.1519  0.1429 -0.2184
  244MOL0     C32830   5.388   7.379   8.898  0.1881 -0.0049  0.5855
  244MOL0     C32831   5.359   7.486   8.976  0.1942 -0.5321 -0.4426
  244MOL0     C32832   5.226   7.537   9.001  0.7844  0.2207  0.8296
  244MOL0     C32833   5.204   7.646   9.111 -0.1812  0.4458  0.9934
  244MOL0     C32834   5.124   7.484   8.920  0.6896 -0.2769 -0.1016
  244MOL0     C32835   4.992   7.537   8.929  0.4075  0.4105 -0.5873
  244MOL0     O32836   4.915   7.546   8.813 -0.1191 -0.0435 -0.4289
  244MOL0     C32837   4.784   7.593   8.811  0.3860 -0.0383 -0.4909
  244MOL0     C32838   4.721   7.679   8.903  0.7392 -0.7645  0.2218
  244MOL0     C32839   4.582   7.693   8.897  0.3954  0.0887  0.4494
  244MOL0     C32840   4.509   7.634   8.797  0.1349  0.7944 -0.3126
  244MOL0     O32841   4.373   7.641   8.796 -0.1827  0.2414  0.4798
  244MOL0     C32842   4.288   7.638   8.907 -0.2227  0.7704  0.4614
  244MOL0     C32843   4.148   7.607   8.864  0.1342 -0.0098  0.0569
  244MOL0     C32844   4.090   7.721   8.784  0.4480  0.5067  0.0161
  244MOL0     C32845   3.937   7.698   8.756 -0.5957  0.4762  0.2541
  244MOL0     C32846   3.864   7.820   8.702 -0.5731  0.6724 -0.9566
  244MOL0     C32847   3.709   7.797   8.709 -0.7171 -0.0822  0.3878
  244MOL0     C32848   3.648   7.926   8.671 -0.7923  0.3226  0.6765
  244MOL0     C32849   3.503   7.915   8.695 -0.1608  0.0452 -0.3031
  244MOL0    Cl32850   3.424   7.795   8.581  0.3995 -0.2295  0.0127
  244MOL0     C32851   4.571   7.567   8.697 -0.0746 -0.0725 -0.1207
  244MOL0     C32852   4.710   7.556   8.701 -0.3320  0.0337 -0.5563
  244MOL0     O32853   4.944   7.552   9.042  0.7332  0.2804  0.0034
  244MOL0     C32854   5.161   7.380   8.834  0.2822  0.0493  0.4827
  244MOL0     C32855   5.286   7.326   8.822  0.5747  0.5036  0.5760
  244MOL0     N32856   5.716   6.909   9.140  0.3942  0.1500  0.0698
  244MOL0     N32857   5.754   6.793   9.168  0.1306 -0.7403 -0.1752
  244MOL0     C32858   6.604   6.060   9.722 -1.0026 -0.2195  0.3313
  244MOL0     C32859   6.708   5.981   9.769  0.6537  1.1281  0.4493
  244MOL0     C32860   7.096   5.895   9.972 -0.2661 -0.4758 -0.0920
  244MOL0     C32861   7.222   5.952   9.953 -0.8237  0.5713  0.3706
  244MOL0     C32862   7.340   5.902  10.001  0.2927  0.7201 -0.2707
  244MOL0     C32863   7.339   5.770  10.062  0.0210 -0.9564 -0.6548
  244MOL0     O32864   7.453   5.697  10.102  0.1956 -0.1965  0.3681
  244MOL0     C32865   7.584   5.735  10.061  0.3786 -0.2024 -0.0440
  244MOL0     C32866   7.683   5.642  10.122 -0.0446 -0.3895  0.0967
  244MOL0     C32867   7.823   5.707  10.137  0.1041  0.2053  0.2044
  244MOL0     C32868   7.916   5.698  10.016 -0.4960  0.4332 -0.6186
  244MOL0     C32869   8.022   5.798  10.025 -0.7453  0.0562 -0.3721
  244MOL0     C32870   8.090   5.894  10.031 -0.6508 -0.2821 -0.1179
  244MOL0     C32871   7.215   5.711  10.074 -0.1218  0.2767  0.4511
  244MOL0     C32872   7.105   5.769  10.030  0.3733  0.3356  0.9583
  244MOL0     H32873   6.690   6.053  10.104  0.7404  2.7226  0.6955
  244MOL0     H32874   6.478   6.167  10.025 -0.6110 -1.9803  0.2259
  244MOL0     H32875   6.473   6.366   9.902 -1.2796 -2.4030  0.4656
  244MOL0     H32876   6.495   6.429   9.740 -1.1476  0.4654 -0.6658
  244MOL0     H32877   6.234   6.315   9.845 -0.8090 -0.2500 -1.4740
  244MOL0     H32878   6.278   6.482   9.885  0.7975 -0.6129  0.7380
  244MOL0     H32879   6.251   6.559   9.679 -0.6893  0.4463 -1.7639
  244MOL0     H32880   6.303   6.415   9.592  0.0286  1.7040 -1.5840
  244MOL0     H32881   6.128   6.295   9.593 -0.6082 -1.4128  1.9853
  244MOL0     H32882   6.044   6.381   9.717  2.0098  1.1645  1.7625
  244MOL0     H32883   6.126   6.472   9.426  0.0018 -2.1088  0.4827
  244MOL0     H32884   5.962   6.439   9.478 -0.8848  0.6993  0.6057
  244MOL0     H32885   5.960   6.649   9.618  2.1630 -2.0465  3.3435
  244MOL0     H32886   6.131   6.675   9.567  0.7838 -1.8336 -0.2552
  244MOL0     H32887   6.027   6.812   9.410  0.1170 -0.5157  0.3783
  244MOL0     H32888   6.065   6.662   9.323  1.4753  0.8957  0.7784
  244MOL0     H32889   5.797   6.681   9.458  2.5811  2.1872  2.2914
  244MOL0     H32890   5.850   6.601   9.303  0.2562 -0.6061 -1.0127
  244MOL0     H32891   5.838   6.963   9.437 -2.6989  1.7578 -0.1221
  244MOL0     H32892   5.654   7.147   9.326  0.5244  0.4843  0.6524
  244MOL0     H32893   5.819   7.193   9.259  0.0022 -1.0353  0.0649
  244MOL0     H32894   5.567   7.133   9.104  2.5043 -4.2007 -0.6019
  244MOL0     H32895   5.728   7.154   9.040  1.9321  2.2392  0.0050
  244MOL0     H32896   5.725   7.390   9.159  0.6410  0.3473 -3.0320
  244MOL0     H32897   5.549   7.372   9.178  0.5062  0.1471  1.1019
  244MOL0     H32898   5.723   7.373   8.918  0.6138 -0.3539  0.5437
  244MOL0     H32899   5.621   7.504   8.974 -4.5699 -0.3088  1.8525
  244MOL0     H32900   5.431   7.542   9.034 -1.8582 -0.2925  2.0419
  244MOL0     H32901   5.298   7.675   9.159  1.1218 -1.1505 -0.4440
  244MOL0     H32902   5.154   7.733   9.067  0.0943  0.4504  0.6833
  244MOL0     H32903   5.142   7.607   9.192 -3.4823  0.3809 -1.3541
  244MOL0     H32904   4.775   7.739   8.976  0.4064 -0.2593  0.0592
  244MOL0     H32905   4.538   7.767   8.964  1.3549  0.0577  1.1410
  244MOL0     H32906   4.327   7.566   8.979 -2.7953  0.1932  1.3930
  244MOL0     H32907   4.287   7.737   8.954  1.9973  0.8430  0.4470
  244MOL0     H32908   4.145   7.520   8.799 -2.6080  1.3787 -1.9102
  244MOL0     H32909   4.094   7.592   8.958  1.3743 -1.1108  0.6254
  244MOL0     H32910   4.143   7.727   8.689 -0.0679 -0.0607 -0.3167
  244MOL0     H32911   4.093   7.819   8.833 -2.3975  0.7897 -0.1807
  244MOL0     H32912   3.927   7.625   8.675  0.0573  2.1562 -1.4264
  244MOL0     H32913   3.888   7.670   8.849 -0.8976  0.2262  0.0195
  244MOL0     H32914   3.897   7.846   8.601  0.3964  0.0345 -0.8181
  244MOL0     H32915   3.890   7.906   8.764 -3.1663  0.0671  1.1254
  244MOL0     H32916   3.677   7.714   8.646  3.6365 -1.0895 -0.8788
  244MOL0     H32917   3.678   7.766   8.809  0.7187 -3.0303  0.0470
  244MOL0     H32918   3.668   7.934   8.564 -0.0225 -1.5680  0.6398
  244MOL0     H32919   3.697   8.011   8.719  1.5920 -0.4651 -0.2057
  244MOL0     H32920   3.450   8.011   8.697 -2.4748 -1.1605 -0.0315
  244MOL0     H32921   3.494   7.882   8.799 -0.2017 -0.3931 -0.4437
  244MOL0     H32922   4.509   7.532   8.615  0.2277  3.0624 -1.8454
  244MOL0     H32923   4.745   7.492   8.621 -0.2618 -1.2202  0.4559
  244MOL0     H32924   5.083   7.331   8.776  1.3200 -3.6245  1.8836
  244MOL0     H32925   5.297   7.238   8.760 -1.1726  0.9912 -0.4915
  244MOL0     H32926   6.599   6.073   9.615 -0.3215 -1.0297  0.1891
  244MOL0     H32927   6.771   5.928   9.698 -2.4158 -1.3580 -0.6618
  244MOL0     H32928   7.228   6.044   9.896  0.3482 -0.6968 -1.6755
  244MOL0     H32929   7.430   5.959   9.985  2.1930 -2.0381 -0.1441
  244MOL0     H32930   7.607   5.730   9.954  1.9354  0.0860  0.2455
  244MOL0     H32931   7.613   5.832  10.104 -1.9142  0.7845 -0.5934
  244MOL0     H32932   7.698   5.549  10.067 -1.3721 -1.5252  1.5576
  244MOL0     H32933   7.648   5.611  10.221  1.5537 -0.0009  0.8155
  244MOL0     H32934   7.868   5.654  10.221 -0.0867  1.2224  0.9564
  244MOL0     H32935   7.818   5.811  10.169 -1.4336 -0.1606  1.2571
  244MOL0     H32936   7.860   5.721   9.926  0.9305 -1.5870 -2.1263
  244MOL0     H32937   7.974   5.607   9.997 -0.2928  0.3828  0.1895
  244MOL0     H32938   8.155   5.976  10.055 -1.6574  0.0602  1.5492
  244MOL0     H32939   7.208   5.609  10.111  0.0240  0.5868  1.3795
  244MOL0     H32940   7.015   5.709  10.032  2.1774 -2.5730  0.9473
  245MOL0     O32941   6.032   4.450   3.023 -0.2526 -0.4850  0.2448
  245MOL0     C32942   6.026   4.536   3.106  0.4100 -0.4110 -0.0392
  245MOL0     O32943   5.909   4.588   3.147  0.5217  0.0690  0.6425
  245MOL0     C32944   5.785   4.542   3.107 -0.4170  0.0496 -0.0535
  245MOL0     C32945   5.756   4.485   2.981  0.3679  0.4262  0.4191
  245MOL0     C32946   5.620   4.444   2.953 -0.7854  0.1373  0.5093
  245MOL0     C32947   5.520   4.456   3.055  0.7474  0.0783 -0.3628
  245MOL0     O32948   5.386   4.415   3.037 -0.1809 -0.6598 -0.4058
  245MOL0     C32949   5.307   4.453   2.923 -0.8841 -0.8862  0.7092
  245MOL0     C32950   5.159   4.447   2.961 -0.0494  0.5167 -0.1739
  245MOL0     C32951   5.135   4.497   3.102 -0.3771  0.1386  0.3605
  245MOL0     C32952   4.987   4.546   3.126 -0.0465 -0.3456 -0.1336
  245MOL0     C32953   4.871   4.444   3.094  0.1848  0.9722 -0.6473
  245MOL0     C32954   4.899   4.325   3.190  0.0151 -0.5149  0.0787
  245MOL0     C32955   4.793   4.212   3.170 -0.1276 -0.0163 -0.6176
  245MOL0     C32956   4.785   4.147   3.031  0.3833 -0.1743  0.1039
  245MOL0     N32957   4.915   4.100   2.988  0.3450  0.1813  0.1587
  245MOL0     C32958   4.986   4.130   2.878 -0.0740  0.0237 -0.0118
  245MOL0     C32959   5.107   4.082   2.900  0.1280 -0.6209 -0.5769
  245MOL0     C32960   5.215   4.088   2.793  0.7713 -0.4449  0.3402
  245MOL0     C32961   5.345   4.053   2.853  0.0451 -0.1836  0.1201
  245MOL0     C32962   5.459   4.126   2.786 -0.1520  0.0575  0.1866
  245MOL0     C32963   5.585   4.039   2.793 -0.6245 -0.9872  0.1278
  245MOL0     O32964   5.643   4.056   2.925 -0.2785  0.9160  0.1500
  245MOL0     C32965   5.783   4.058   2.937  0.5425  0.3154 -0.3509
  245MOL0     C32966   5.873   3.978   2.865  0.3403 -1.0524  0.0519
  245MOL0     C32967   6.013   3.977   2.889 -0.5721 -0.7677 -0.3858
  245MOL0     C32968   6.092   3.885   2.802  0.9003 -0.1163  0.4920
  245MOL0     C32969   6.074   4.066   2.972 -0.1899  0.4508 -0.1739
  245MOL0     C32970   6.220   4.077   2.997 -0.7168 -0.1666 -0.8170
  245MOL0     O32971   6.261   4.104   3.125 -0.7098 -0.4910 -0.3705
  245MOL0     C32972   6.393   4.131   3.145 -0.3051  0.0795  0.0265
  245MOL0     C32973   6.494   4.050   3.093 -0.4327  0.1801  0.1817
  245MOL0     C32974   6.630   4.077   3.128  0.6729  0.3451  0.6795
  245MOL0     C32975   6.668   4.179   3.223  0.6971 -0.1456 -0.4708
  245MOL0     O32976   6.799   4.191   3.255  0.7817  0.8003 -0.7854
  245MOL0     C32977   6.824   4.152   3.390 -0.7235  0.0453 -0.2094
  245MOL0     C32978   6.930   4.237   3.456  0.5847 -0.0793  0.3430
  245MOL0     C32979   6.918   4.226   3.611 -0.3163 -0.3108 -0.4055
  245MOL0     C32980   7.042   4.290   3.663  0.9370  0.2310  0.1284
  245MOL0     C32981   7.029   4.321   3.805 -0.3409 -0.1274 -0.9029
  245MOL0     C32982   7.159   4.389   3.861  0.1733 -0.1325  0.2440
  245MOL0     C32983   7.166   4.429   4.012 -0.7939  0.2210 -0.1952
  245MOL0     C32984   7.245   4.552   4.056  0.0107 -0.3402  0.9940
  245MOL0    Cl32985   7.411   4.542   4.010  0.6223 -0.0986  0.1426
  245MOL0     C32986   6.561   4.249   3.289 -0.3353 -0.2667  0.2962
  245MOL0     C32987   6.430   4.226   3.248 -0.0444  0.1644  0.0308
  245MOL0     O32988   6.299   4.081   2.898 -0.1246  0.4396  0.5187
  245MOL0     C32989   5.984   4.138   3.055  0.3822  0.5050  0.3213
  245MOL0     C32990   5.844   4.128   3.037  0.3462  0.0880 -0.1298
  245MOL0     N32991   5.112   4.023   3.022 -0.0005 -0.1495 -0.3059
  245MOL0     N32992   4.997   4.036   3.070  0.2406  0.0552  0.3155
  245MOL0     C32993   5.551   4.513   3.179 -0.2877  0.3842 -0.1618
  245MOL0     C32994   5.680   4.564   3.206 -0.0911 -0.4109 -0.3837
  245MOL0     C32995   6.156   4.592   3.158 -0.2025 -0.3538  0.1306
  245MOL0     C32996   6.281   4.539   3.110  0.0890 -0.8540 -0.0038
  245MOL0     C32997   6.397   4.607   3.142 -0.7060  0.3454  0.8298
  245MOL0     C32998   6.395   4.721   3.217 -0.6589  0.1318  0.1938
  245MOL0     O32999   6.498   4.802   3.248  0.0239 -0.8556 -0.3455
  245MOL0     C33000   6.628   4.787   3.190  0.2508  0.1497 -0.6417
  245MOL0     C33001   6.703   4.690   3.283  0.8875  1.0358  0.2999
  245MOL0     C33002   6.829   4.643   3.205 -0.1909 -0.7055 -0.5883
  245MOL0     C33003   6.927   4.759   3.138 -0.0141 -0.9337  0.1078
  245MOL0     C33004   6.876   4.801   3.001 -0.2375  0.1877  0.8282
  245MOL0     C33005   6.837   4.845   2.897 -0.1261 -0.4612 -0.0223
  245MOL0     C33006   6.274   4.780   3.265  1.1513 -0.2717 -0.6437
  245MOL0     C33007   6.155   4.708   3.236  0.2582  0.1519 -0.3354
  245MOL0     H33008   5.833   4.479   2.905  0.4669  0.2411  0.5355
  245MOL0     H33009   5.603   4.389   2.861  1.0030  0.3300  0.0312
  245MOL0     H33010   5.322   4.556   2.889 -0.5548 -0.8504  0.9659
  245MOL0     H33011   5.325   4.390   2.835 -2.5278  1.4946 -1.5203
  245MOL0     H33012   5.094   4.494   2.888 -0.7043  0.7034  0.5188
  245MOL0     H33013   5.124   4.344   2.955  0.9698  0.2012 -1.1774
  245MOL0     H33014   5.170   4.421   3.174 -1.5602 -0.4153  0.3795
  245MOL0     H33015   5.193   4.586   3.129  0.5052 -0.7045  1.3811
  245MOL0     H33016   4.978   4.573   3.232  0.9944 -0.3209 -0.0397
  245MOL0     H33017   4.965   4.631   3.061 -0.8857  0.2671  0.8982
  245MOL0     H33018   4.769   4.482   3.108  0.2135  1.1798 -0.9968
  245MOL0     H33019   4.883   4.413   2.990  0.2522  0.3476 -0.4555
  245MOL0     H33020   5.000   4.290   3.166  0.4673  1.8893 -2.0469
  245MOL0     H33021   4.910   4.353   3.295  1.5200 -1.2717  0.1465
  245MOL0     H33022   4.805   4.139   3.251  0.0828  0.0239 -0.6112
  245MOL0     H33023   4.697   4.258   3.195 -1.3881 -2.3156 -0.9621
  245MOL0     H33024   4.745   4.222   2.962 -3.8824 -1.6746  0.6703
  245MOL0     H33025   4.714   4.064   3.032 -1.4513  1.3146 -1.1731
  245MOL0     H33026   4.936   4.183   2.798 -1.6468  1.4906  1.8274
  245MOL0     H33027   5.185   4.013   2.718 -1.7948  0.0959  0.7233
  245MOL0     H33028   5.212   4.187   2.747  2.3000  0.1332  1.4206
  245MOL0     H33029   5.361   3.945   2.842  0.1176 -0.5839  3.2129
  245MOL0     H33030   5.346   4.074   2.961  3.0093 -2.1235  0.5923
  245MOL0     H33031   5.470   4.222   2.837 -1.1445 -1.2757  3.0769
  245MOL0     H33032   5.442   4.139   2.678  2.1081  0.5228 -0.1569
  245MOL0     H33033   5.651   4.090   2.722 -2.6746  2.3645  0.3915
  245MOL0     H33034   5.567   3.936   2.762  0.5501 -0.8219 -1.2004
  245MOL0     H33035   5.831   3.902   2.800 -0.5987  2.0154 -3.2640
  245MOL0     H33036   6.034   3.817   2.740  0.7856 -1.1482  1.6828
  245MOL0     H33037   6.157   3.943   2.737  1.2131  0.9433  1.7042
  245MOL0     H33038   6.153   3.816   2.861  2.9265 -0.7088 -2.1549
  245MOL0     H33039   6.472   3.962   3.032 -0.1470 -0.4613  0.9870
  245MOL0     H33040   6.701   4.015   3.073  1.8553  1.4156  0.9659
  245MOL0     H33041   6.745   4.163   3.465  1.1080  0.5547  1.7249
  245MOL0     H33042   6.856   4.048   3.384 -0.8740  0.0317 -0.9749
  245MOL0     H33043   7.026   4.201   3.418  0.2235  0.3728 -1.0446
  245MOL0     H33044   6.911   4.339   3.422  0.6630  0.2333  1.2039
  245MOL0     H33045   6.917   4.122   3.644  0.9814 -0.0956  0.3667
  245MOL0     H33046   6.831   4.282   3.647 -0.5803 -0.0322 -1.4212
  245MOL0     H33047   7.132   4.234   3.636 -0.0839 -0.8032 -1.2275
  245MOL0     H33048   7.061   4.388   3.618  0.2535  0.3795  0.1542
  245MOL0     H33049   6.992   4.238   3.868 -0.6062 -0.0133 -0.9066
  245MOL0     H33050   6.961   4.406   3.819  0.1922 -0.0499  1.9263
  245MOL0     H33051   7.241   4.320   3.839  0.0998  0.3310 -1.6878
  245MOL0     H33052   7.176   4.481   3.804 -1.4584 -0.7641 -1.3603
  245MOL0     H33053   7.205   4.342   4.066 -2.2346 -0.7234 -0.6262
  245MOL0     H33054   7.064   4.436   4.050 -1.0654 -1.6168 -0.5248
  245MOL0     H33055   7.244   4.552   4.165 -0.2128  3.6988  1.1549
  245MOL0     H33056   7.195   4.645   4.024 -1.4020 -1.8997 -1.7670
  245MOL0     H33057   6.579   4.324   3.364 -2.3005 -0.4849  1.0502
  245MOL0     H33058   6.339   4.276   3.279 -0.7510  0.6493 -2.5389
  245MOL0     H33059   6.029   4.200   3.133  2.6302 -0.4773 -0.1043
  245MOL0     H33060   5.783   4.189   3.102  1.8464  3.2803 -1.4604
  245MOL0     H33061   5.469   4.529   3.248  1.5896 -0.1069  2.3405
  245MOL0     H33062   5.707   4.617   3.297  2.1819 -0.7553 -0.7869
  245MOL0     H33063   6.279   4.454   3.042 -0.8218 -2.4152  1.8726
  245MOL0     H33064   6.490   4.586   3.089  0.7105  3.9469  1.6201
  245MOL0     H33065   6.624   4.746   3.089 -0.1183 -1.2700 -0.0697
  245MOL0     H33066   6.676   4.885   3.198 -0.1377  0.2343  1.1720
  245MOL0     H33067   6.649   4.596   3.292  3.6526 -0.6857  0.1139
  245MOL0     H33068   6.720   4.736   3.381 -0.4131 -0.3970  1.2398
  245MOL0     H33069   6.810   4.571   3.125  1.5826 -0.9317 -0.8328
  245MOL0     H33070   6.888   4.597   3.284 -0.6305 -0.0158  0.1549
  245MOL0     H33071   7.029   4.722   3.131  0.7464  0.7956  1.4161
  245MOL0     H33072   6.933   4.853   3.194 -0.8606 -0.7469 -0.0945
  245MOL0     H33073   6.808   4.878   2.799  3.7050 -0.1139 -1.2006
  245MOL0     H33074   6.262   4.864   3.333 -1.3909 -1.7442  0.8935
  245MOL0     H33075   6.060   4.739   3.278  0.5403 -1.1909  1.3851
  246MOL0     O33076   9.445   6.282   6.996 -0.7276 -0.6619  0.1896
  246MOL0     C33077   9.464   6.227   6.889  0.3930  0.3914  1.0777
  246MOL0     O33078   9.389   6.255   6.775 -0.2270 -0.3065 -0.5838
  246MOL0     C33079   9.299   6.359   6.764 -0.1789  0.3880 -0.5584
  246MOL0     C33080   9.322   6.467   6.678  0.1349  0.7018  0.2406
  246MOL0     C33081   9.236   6.578   6.683 -1.2316  1.4465 -0.6475
  246MOL0     C33082   9.118   6.581   6.756  0.4074 -0.1391  0.3180
  246MOL0     O33083   9.038   6.691   6.742  0.3539 -0.2662 -0.1402
  246MOL0     C33084   8.896   6.686   6.741  0.2023  0.9789 -0.9401
  246MOL0     C33085   8.851   6.799   6.837 -0.6853  0.2655 -0.6290
  246MOL0     C33086   8.703   6.797   6.855  0.0689 -0.3832  0.8804
  246MOL0     C33087   8.654   6.907   6.951 -0.2824  1.1006 -0.8497
  246MOL0     C33088   8.501   6.925   6.955 -0.2971  0.0683  0.2130
  246MOL0     C33089   8.470   7.025   6.840 -0.0222 -0.3548 -0.4850
  246MOL0     C33090   8.330   7.062   6.841 -0.4048 -0.9254 -0.1670
  246MOL0     C33091   8.305   7.150   6.712 -1.1451 -0.7040  0.3489
  246MOL0     N33092   8.173   7.213   6.723  0.5841  0.4648  0.4149
  246MOL0     C33093   8.132   7.315   6.803 -0.2273 -0.0570 -0.7860
  246MOL0     C33094   8.003   7.353   6.754 -0.1207 -0.9245  0.0695
  246MOL0     C33095   7.918   7.457   6.816 -0.0347 -0.7589 -0.3998
  246MOL0     C33096   7.997   7.559   6.898  0.1458 -0.1631 -0.1040
  246MOL0     C33097   8.074   7.661   6.815  0.4620 -0.3137 -0.2816
  246MOL0     C33098   8.193   7.711   6.889  0.0044 -0.3775  0.5953
  246MOL0     O33099   8.278   7.788   6.808 -0.1163  0.2071 -0.0617
  246MOL0     C33100   8.384   7.714   6.753  0.2622  0.4512  0.6924
  246MOL0     C33101   8.388   7.714   6.607  0.0386 -0.3774  0.2307
  246MOL0     C33102   8.477   7.639   6.534 -0.8765 -0.1075 -0.4888
  246MOL0     C33103   8.457   7.639   6.384 -0.8374 -0.5673  0.2828
  246MOL0     C33104   8.565   7.551   6.604 -0.3122  0.9073  0.0241
  246MOL0     C33105   8.657   7.450   6.531  0.2967  0.2468 -0.0975
  246MOL0     O33106   8.739   7.371   6.605 -0.6273  0.0153 -0.2874
  246MOL0     C33107   8.808   7.276   6.540 -1.1490 -0.1177 -0.1848
  246MOL0     C33108   8.771   7.141   6.536 -0.0481  0.6207 -0.0869
  246MOL0     C33109   8.864   7.040   6.507 -0.2535  0.4276  0.1237
  246MOL0     C33110   8.989   7.071   6.449 -0.1724  0.3579 -0.2211
  246MOL0     O33111   9.076   6.971   6.417 -0.3884  0.1674 -0.2173
  246MOL0     C33112   9.054   6.909   6.294 -0.3186 -0.4306  0.5147
  246MOL0     C33113   9.104   6.767   6.307  0.6073 -0.5272 -0.1519
  246MOL0     C33114   9.252   6.740   6.296 -0.3097 -0.6094  0.2662
  246MOL0     C33115   9.253   6.586   6.276 -0.6542 -0.7147 -0.0916
  246MOL0     C33116   9.402   6.533   6.255 -0.3001  0.4670  0.1815
  246MOL0     C33117   9.404   6.381   6.268 -0.4652  0.9561  0.8260
  246MOL0     C33118   9.552   6.337   6.277  0.0927 -0.3702 -0.2339
  246MOL0     C33119   9.561   6.190   6.336 -0.2008  0.7060 -0.5871
  246MOL0    Cl33120   9.728   6.150   6.330 -0.9375 -0.3850  0.3251
  246MOL0     C33121   9.011   7.209   6.433 -0.0522 -0.0056 -1.1991
  246MOL0     C33122   8.926   7.313   6.482  0.4189  0.4315 -0.2754
  246MOL0     O33123   8.656   7.445   6.412 -0.4811  0.0645  0.2005
  246MOL0     C33124   8.572   7.564   6.753  0.1436 -0.7899 -0.4848
  246MOL0     C33125   8.489   7.654   6.829 -0.2781 -0.3766  0.5362
  246MOL0     N33126   7.970   7.279   6.646 -0.1868 -0.0948 -0.3216
  246MOL0     N33127   8.072   7.199   6.627 -1.0928 -0.0369 -0.9199
  246MOL0     C33128   9.090   6.474   6.837 -0.0524 -0.2664 -0.2279
  246MOL0     C33129   9.182   6.367   6.841  0.0125  0.4482  0.6134
  246MOL0     C33130   9.572   6.133   6.878 -0.2119  0.6090  0.0130
  246MOL0     C33131   9.614   6.075   6.765  0.0048  0.4773  0.3265
  246MOL0     C33132   9.711   5.969   6.756 -0.5507 -0.0444  0.8110
  246MOL0     C33133   9.774   5.922   6.871 -0.0186  1.1855 -0.1194
  246MOL0     O33134   9.854   5.815   6.879 -0.0382 -0.1979  0.0699
  246MOL0     C33135   9.987   5.844   6.925 -0.3552  0.2349 -0.3316
  246MOL0     C33136  10.101   5.742   6.878  0.4551 -0.0368  0.0365
  246MOL0     C33137  10.102   5.602   6.942 -0.3303  0.0303  0.5462
  246MOL0     C33138   9.960   5.533   6.951  0.1068 -0.7762  0.0925
  246MOL0     C33139   9.978   5.401   7.004 -0.8307 -0.5579  0.2523
  246MOL0     C33140   9.992   5.289   7.045 -0.2296  0.6876 -0.4321
  246MOL0     C33141   9.730   5.980   6.988 -0.3893  0.0346  0.4138
  246MOL0     C33142   9.632   6.084   6.990  0.1638  0.2053  0.0313
  246MOL0     H33143   9.411   6.467   6.617 -0.6087  1.2207 -0.8670
  246MOL0     H33144   9.265   6.661   6.620  1.4356  2.4184  1.6545
  246MOL0     H33145   8.844   6.698   6.646 -0.7869 -1.3919 -0.7802
  246MOL0     H33146   8.862   6.588   6.777  2.3715  0.8282  0.9340
  246MOL0     H33147   8.908   6.797   6.931 -0.4215 -2.8521 -0.7534
  246MOL0     H33148   8.881   6.895   6.792  0.3534 -0.0633 -0.6490
  246MOL0     H33149   8.663   6.818   6.755  1.5820 -0.2392  0.2814
  246MOL0     H33150   8.668   6.702   6.895 -0.5436  0.3161  2.0541
  246MOL0     H33151   8.680   6.875   7.053  1.9486 -1.1629 -2.0244
  246MOL0     H33152   8.708   6.999   6.926  1.6140  1.0720  2.4930
  246MOL0     H33153   8.444   6.836   6.928  1.2975 -0.1287 -2.9595
  246MOL0     H33154   8.475   6.969   7.052  0.3678 -0.7138  0.7530
  246MOL0     H33155   8.528   7.117   6.848 -0.3276 -0.1559 -0.5572
  246MOL0     H33156   8.499   6.973   6.748 -1.7091 -2.0601 -0.1420
  246MOL0     H33157   8.262   6.976   6.838 -1.9449  0.2303  0.1578
  246MOL0     H33158   8.312   7.117   6.934  0.6826  1.2529 -1.1735
  246MOL0     H33159   8.315   7.078   6.631  2.0116  1.8461 -1.7745
  246MOL0     H33160   8.379   7.229   6.700 -2.5019  0.8008  1.4656
  246MOL0     H33161   8.185   7.358   6.887 -3.1244  1.6996  0.2974
  246MOL0     H33162   7.856   7.506   6.741 -3.2004 -1.3902  1.6261
  246MOL0     H33163   7.851   7.407   6.887 -0.6312  0.7902  0.1839
  246MOL0     H33164   8.068   7.512   6.968  0.4817  0.2549 -0.1584
  246MOL0     H33165   7.918   7.603   6.959 -0.2017 -0.3921 -0.3899
  246MOL0     H33166   8.021   7.755   6.798  1.9392  0.1162 -3.4126
  246MOL0     H33167   8.105   7.626   6.716 -0.9963 -0.8985 -0.5592
  246MOL0     H33168   8.249   7.631   6.938  0.0435  1.3546  3.6251
  246MOL0     H33169   8.162   7.775   6.972  0.9302  1.7991 -0.6677
  246MOL0     H33170   8.308   7.776   6.567  0.0627  1.1863  2.4305
  246MOL0     H33171   8.403   7.730   6.361 -2.0016 -1.0213  1.1366
  246MOL0     H33172   8.549   7.632   6.326 -0.3690  0.6174  0.8576
  246MOL0     H33173   8.391   7.556   6.357 -3.0013  1.7411 -1.9371
  246MOL0     H33174   8.673   7.114   6.572  0.1019  0.4480  0.1987
  246MOL0     H33175   8.828   6.939   6.524 -0.5792  0.3914 -0.7375
  246MOL0     H33176   8.946   6.915   6.279 -0.1457  1.6046 -0.2694
  246MOL0     H33177   9.098   6.969   6.213  0.7650 -0.2829  1.1978
  246MOL0     H33178   9.072   6.726   6.403  1.7092  1.0111  0.9191
  246MOL0     H33179   9.053   6.719   6.223 -0.0953 -2.2639  1.1882
  246MOL0     H33180   9.313   6.773   6.381 -0.5754 -1.5884  0.8563
  246MOL0     H33181   9.293   6.793   6.210 -0.7392  3.8168  2.4573
  246MOL0     H33182   9.234   6.546   6.376  4.5132  0.3853  1.6378
  246MOL0     H33183   9.177   6.551   6.206  0.1622 -0.2277 -1.2481
  246MOL0     H33184   9.456   6.580   6.337 -1.9705  1.1221  0.9412
  246MOL0     H33185   9.439   6.561   6.156  0.3195  0.2715  0.3522
  246MOL0     H33186   9.361   6.351   6.364  2.3440  1.4983  2.3873
  246MOL0     H33187   9.346   6.325   6.194 -1.8234  2.2804  0.8542
  246MOL0     H33188   9.604   6.411   6.339 -2.6672 -0.6142  2.6001
  246MOL0     H33189   9.587   6.335   6.173 -2.6937  0.5061 -1.2644
  246MOL0     H33190   9.498   6.125   6.274 -1.8955  1.3972  0.3392
  246MOL0     H33191   9.511   6.187   6.433  2.5188  2.3743  1.0062
  246MOL0     H33192   9.109   7.243   6.401 -0.1873  0.5526 -1.0411
  246MOL0     H33193   8.958   7.416   6.488 -0.2047  0.6639 -0.8085
  246MOL0     H33194   8.643   7.496   6.800 -2.2348 -1.3079  2.6846
  246MOL0     H33195   8.499   7.667   6.937 -0.6214  2.3287  0.2894
  246MOL0     H33196   9.007   6.487   6.905 -0.9167  0.0203 -1.3151
  246MOL0     H33197   9.165   6.283   6.908  1.0629 -0.4999 -0.2737
  246MOL0     H33198   9.567   6.112   6.674  1.6224  3.2934  0.5138
  246MOL0     H33199   9.740   5.922   6.662  2.6787 -1.4557  2.3630
  246MOL0     H33200  10.010   5.947   6.895  3.3103  0.3004  1.9418
  246MOL0     H33201   9.979   5.838   7.034  0.5573 -1.7195 -0.3336
  246MOL0     H33202  10.195   5.783   6.916  0.9713  0.6795 -1.9283
  246MOL0     H33203  10.096   5.727   6.770  2.3296  1.3199 -0.2799
  246MOL0     H33204  10.141   5.607   7.044  0.3277  0.4590  0.2842
  246MOL0     H33205  10.172   5.537   6.888  0.6181  1.3490  0.1356
  246MOL0     H33206   9.910   5.532   6.853 -0.0337  0.6215  0.1276
  246MOL0     H33207   9.886   5.580   7.016  0.6942 -0.3281  0.4416
  246MOL0     H33208  10.008   5.194   7.091  2.0786  0.1181 -2.2280
  246MOL0     H33209   9.767   5.950   7.085 -0.9199 -0.0626  0.5884
  246MOL0     H33210   9.598   6.113   7.089 -2.0663 -0.9879 -0.3123
  247MOL0     O33211  10.657   5.490   3.206  0.0086 -0.0204 -1.0907
  247MOL0     C33212  10.658   5.398   3.290 -0.1086  0.0047  0.3685
  247MOL0     O33213  10.597   5.401   3.411 -0.0247  0.0281  0.0425
  247MOL0     C33214  10.492   5.488   3.430 -0.0887  0.0940  0.9891
  247MOL0     C33215  10.512   5.611   3.499  0.2554  0.1062 -0.5886
  247MOL0     C33216  10.418   5.722   3.501  1.1327 -0.7937 -1.0930
  247MOL0     C33217  10.296   5.706   3.426 -0.1098 -0.1651  0.6451
  247MOL0     O33218  10.206   5.811   3.424  0.2404 -0.8075 -0.0615
  247MOL0     C33219  10.144   5.849   3.304  0.2773  0.3483  0.0765
  247MOL0     C33220   9.993   5.868   3.336 -0.3652 -0.0330 -0.0251
  247MOL0     C33221   9.912   5.734   3.350 -0.3544  0.3430  0.7590
  247MOL0     C33222   9.781   5.752   3.428 -0.5279 -0.3466  0.4341
  247MOL0     C33223   9.659   5.802   3.341  0.5746 -0.3510  0.4571
  247MOL0     C33224   9.585   5.698   3.246  0.1421 -0.4526  0.1742
  247MOL0     C33225   9.445   5.749   3.187  0.2882  0.6700 -0.0296
  247MOL0     C33226   9.452   5.871   3.097  0.0685  0.8084  0.5077
  247MOL0     N33227   9.331   5.873   3.011 -0.3965  0.1743  0.5506
  247MOL0     C33228   9.202   5.883   3.057  0.6180 -0.6628  0.0663
  247MOL0     C33229   9.123   5.882   2.954 -1.1791 -0.8691  0.7307
  247MOL0     C33230   8.970   5.862   2.945 -0.1449 -0.0388 -0.2215
  247MOL0     C33231   8.922   6.011   2.953 -0.2761 -1.1721 -0.5341
  247MOL0     C33232   8.774   6.024   2.947  0.3452  0.9014  0.0131
  247MOL0     C33233   8.748   6.177   2.938  0.2801  0.1437  0.5441
  247MOL0     O33234   8.634   6.216   3.016  0.7404  0.3379  0.4745
  247MOL0     C33235   8.512   6.180   2.958  0.2984  0.0076 -0.9775
  247MOL0     C33236   8.405   6.210   3.038 -0.9290  0.5822 -0.0016
  247MOL0     C33237   8.279   6.187   2.997  0.2288  0.0329  0.3092
  247MOL0     C33238   8.165   6.221   3.096 -0.0780  0.8700 -0.2754
  247MOL0     C33239   8.259   6.137   2.860 -0.3235 -0.3835 -0.3622
  247MOL0     C33240   8.123   6.113   2.796 -0.6373  0.1473 -0.1941
  247MOL0     O33241   8.129   6.095   2.662 -0.6969 -0.5582  0.4927
  247MOL0     C33242   8.015   6.062   2.599 -0.2444  0.3593  0.1785
  247MOL0     C33243   8.018   5.950   2.517  0.1662  0.0260  0.2973
  247MOL0     C33244   7.910   5.908   2.430  0.1261 -0.3049 -0.9736
  247MOL0     C33245   7.796   5.989   2.426  0.5997 -0.4776 -0.2832
  247MOL0     O33246   7.679   5.975   2.352 -0.2959 -0.4546  0.1077
  247MOL0     C33247   7.692   5.932   2.217 -0.5302 -0.6172 -0.1947
  247MOL0     C33248   7.559   5.945   2.138 -0.6514  0.3098 -0.1223
  247MOL0     C33249   7.570   5.912   1.985  0.7232 -0.0283  0.9145
  247MOL0     C33250   7.428   5.914   1.924  0.1644  0.5316 -0.9596
  247MOL0     C33251   7.391   5.768   1.893  0.3592  0.1617 -0.0378
  247MOL0     C33252   7.244   5.728   1.843 -0.1721 -0.7104 -0.7177
  247MOL0     C33253   7.227   5.586   1.787  0.0617  0.4510  0.2374
  247MOL0     C33254   7.096   5.557   1.705 -0.4332  0.0879 -0.7060
  247MOL0    Cl33255   7.090   5.671   1.571  0.0968  0.1787  0.2436
  247MOL0     C33256   7.791   6.104   2.508  0.1258 -0.8820  0.3673
  247MOL0     C33257   7.894   6.137   2.599 -0.1208 -0.1194  0.3397
  247MOL0     O33258   8.026   6.090   2.867 -1.0169  0.4311  0.7631
  247MOL0     C33259   8.372   6.113   2.780  0.5045  0.8352 -0.2666
  247MOL0     C33260   8.498   6.127   2.826  0.6932  0.1058 -0.0397
  247MOL0     N33261   9.209   5.903   2.849  0.0863  0.7308  0.5457
  247MOL0     N33262   9.329   5.878   2.878  0.0363  0.5833  0.5758
  247MOL0     C33263  10.271   5.572   3.379  0.9670 -0.9095  0.2815
  247MOL0     C33264  10.366   5.469   3.386 -0.2679  0.0559  0.4095
  247MOL0     C33265  10.753   5.289   3.254  0.0289 -0.4155 -0.0507
  247MOL0     C33266  10.789   5.192   3.350  0.0195 -0.0522 -0.7910
  247MOL0     C33267  10.890   5.105   3.324 -0.0295 -0.7515  0.1006
  247MOL0     C33268  10.961   5.101   3.199  0.1070  0.4411  0.6277
  247MOL0     O33269  11.064   5.019   3.186 -0.7125  0.4311 -0.2772
  247MOL0     C33270  11.058   4.880   3.228 -0.0517  0.2162 -0.2649
  247MOL0     C33271  11.165   4.797   3.161  0.1749 -0.5245 -0.0637
  247MOL0     C33272  11.106   4.754   3.031  0.0663  0.3013 -0.1077
  247MOL0     C33273  11.211   4.670   2.957  0.1539  1.1037  0.1718
  247MOL0     C33274  11.334   4.743   2.912  0.8203 -1.2826 -0.6706
  247MOL0     C33275  11.441   4.803   2.900 -0.5339  0.1162 -0.4042
  247MOL0     C33276  10.922   5.191   3.101  0.3945 -0.7930 -0.5675
  247MOL0     C33277  10.815   5.284   3.123 -0.3489  0.1749 -0.2605
  247MOL0     H33278  10.606   5.630   3.551 -0.6743 -1.4650  1.8333
  247MOL0     H33279  10.440   5.820   3.543 -1.4072 -0.3921 -0.5174
  247MOL0     H33280  10.183   5.938   3.255  2.0668  0.3315  1.3812
  247MOL0     H33281  10.142   5.767   3.231  0.3704  1.3069 -1.0226
  247MOL0     H33282   9.981   5.923   3.430 -3.6203  0.4418 -0.6078
  247MOL0     H33283   9.951   5.925   3.253  1.0281  0.0001 -0.7416
  247MOL0     H33284   9.884   5.696   3.252  0.7461  2.6897 -0.5470
  247MOL0     H33285   9.975   5.659   3.399 -2.2096  0.1367  3.0320
  247MOL0     H33286   9.765   5.653   3.473  4.1997 -0.8202  1.5660
  247MOL0     H33287   9.802   5.825   3.507  0.2180 -0.2651  0.1606
  247MOL0     H33288   9.600   5.841   3.424  3.2626  0.7316  1.9811
  247MOL0     H33289   9.685   5.897   3.293 -0.1791  0.9152  2.4041
  247MOL0     H33290   9.648   5.685   3.158 -0.7801  0.8499 -0.7093
  247MOL0     H33291   9.576   5.597   3.288  0.8920 -0.5430  0.1407
  247MOL0     H33292   9.400   5.672   3.123  1.9364 -0.4607  0.1087
  247MOL0     H33293   9.371   5.750   3.267  2.5133 -0.6411  2.1637
  247MOL0     H33294   9.545   5.873   3.041 -0.8482  0.1356 -1.1085
  247MOL0     H33295   9.457   5.960   3.161 -0.4362  0.8182  0.5404
  247MOL0     H33296   9.172   5.877   3.161 -0.2475  0.1222 -0.1273
  247MOL0     H33297   8.937   5.818   2.850  0.4913 -3.3877  0.9733
  247MOL0     H33298   8.941   5.797   3.027 -0.9912 -0.5350 -0.8999
  247MOL0     H33299   8.966   6.072   2.874 -2.2370 -0.7226 -1.3437
  247MOL0     H33300   8.951   6.053   3.050  1.0781 -2.4790 -0.3443
  247MOL0     H33301   8.720   5.986   3.034 -1.8344  0.2102 -1.5435
  247MOL0     H33302   8.741   5.967   2.860 -1.4135  1.6546  0.1519
  247MOL0     H33303   8.747   6.215   2.836  1.1256  0.7795  0.7722
  247MOL0     H33304   8.828   6.224   2.995  1.1971  0.4655 -0.9783
  247MOL0     H33305   8.426   6.250   3.137  1.0203  0.4641 -0.3367
  247MOL0     H33306   8.129   6.320   3.066  0.3545  2.1142  2.8888
  247MOL0     H33307   8.083   6.148   3.096  0.0802  0.6748  0.8508
  247MOL0     H33308   8.194   6.234   3.201 -1.4667  3.2436 -0.1156
  247MOL0     H33309   8.113   5.897   2.510  1.3425  1.9160  0.9928
  247MOL0     H33310   7.914   5.824   2.362 -0.6910 -1.4631  0.3695
  247MOL0     H33311   7.772   5.986   2.165 -2.0442  0.1577 -1.7863
  247MOL0     H33312   7.711   5.824   2.214 -0.3433 -0.5685 -1.0107
  247MOL0     H33313   7.484   5.885   2.190 -0.6759  0.6678  0.2582
  247MOL0     H33314   7.526   6.048   2.151  2.1742  1.0536  2.0988
  247MOL0     H33315   7.614   5.816   1.958 -2.1684 -0.5704 -2.6616
  247MOL0     H33316   7.627   5.985   1.926  0.9854 -0.4335  0.6597
  247MOL0     H33317   7.346   5.947   1.987  0.5540 -1.2086  0.5460
  247MOL0     H33318   7.433   5.982   1.839  0.4897  1.2822 -0.3490
  247MOL0     H33319   7.419   5.708   1.981  0.8629 -0.4255 -0.5921
  247MOL0     H33320   7.451   5.745   1.805 -1.7654  0.9663 -1.7994
  247MOL0     H33321   7.185   5.743   1.935  2.4978  0.8937  0.8636
  247MOL0     H33322   7.205   5.795   1.765 -1.4192 -2.2909 -1.5182
  247MOL0     H33323   7.218   5.514   1.870 -3.0450  0.9635  0.4509
  247MOL0     H33324   7.310   5.567   1.718 -3.1419 -1.7981 -3.3794
  247MOL0     H33325   7.011   5.582   1.770  1.3621  2.8972  0.7934
  247MOL0     H33326   7.095   5.452   1.675  0.0489 -0.3061  0.5746
  247MOL0     H33327   7.702   6.165   2.505  1.2276  0.7455 -1.0809
  247MOL0     H33328   7.891   6.219   2.670 -0.5860  0.8627 -0.7689
  247MOL0     H33329   8.370   6.083   2.676 -0.6316 -0.5059  0.1221
  247MOL0     H33330   8.584   6.103   2.764  1.4992  2.8126 -0.0936
  247MOL0     H33331  10.173   5.559   3.335  1.1062  2.1848 -1.2188
  247MOL0     H33332  10.339   5.374   3.342  1.0072  0.0716 -0.4649
  247MOL0     H33333  10.751   5.195   3.452  2.2817 -2.0229  0.1913
  247MOL0     H33334  10.929   5.045   3.405 -0.2884 -0.2264  0.6227
  247MOL0     H33335  11.076   4.877   3.336  0.3702  2.1280 -0.2483
  247MOL0     H33336  10.958   4.841   3.210 -1.4200  2.8169  1.2213
  247MOL0     H33337  11.204   4.712   3.217 -1.2350 -1.9325 -1.1185
  247MOL0     H33338  11.249   4.866   3.148 -0.6323  0.7261  1.0420
  247MOL0     H33339  11.078   4.844   2.977  0.2909 -0.5489 -1.6997
  247MOL0     H33340  11.015   4.696   3.051 -1.6918  2.0987 -2.4699
  247MOL0     H33341  11.160   4.625   2.871  0.6708  4.0730 -1.8482
  247MOL0     H33342  11.248   4.592   3.025 -4.5862 -0.0112  1.8396
  247MOL0     H33343  11.535   4.850   2.877 -0.4466  0.7496  1.1580
  247MOL0     H33344  10.985   5.207   3.014 -1.1304  0.2269 -1.5273
  247MOL0     H33345  10.784   5.355   3.047  0.7539 -0.8527 -1.7307
  248MOL0     O33346   6.375   4.765  10.596  0.0099  0.0072 -0.1355
  248MOL0     C33347   6.326   4.861  10.651  0.3619 -0.5212 -0.6469
  248MOL0     O33348   6.200   4.898  10.654 -0.0900 -0.1607 -0.0428
  248MOL0     C33349   6.098   4.807  10.633  0.1867  0.4047  0.2027
  248MOL0     C33350   6.104   4.676  10.679 -0.3060 -0.2004  1.7069
  248MOL0     C33351   6.012   4.581  10.652  1.4286  0.5436 -0.1284
  248MOL0     C33352   5.897   4.619  10.585 -0.2547 -0.3405 -0.0103
  248MOL0     O33353   5.798   4.524  10.588 -0.6325 -0.9242 -0.4166
  248MOL0     C33354   5.678   4.559  10.523 -0.3691  0.5598  0.4485
  248MOL0     C33355   5.559   4.471  10.561 -0.8158 -0.4911  0.9381
  248MOL0     C33356   5.438   4.517  10.486 -0.0248  0.1451 -0.2552
  248MOL0     C33357   5.314   4.447  10.543 -0.5180 -0.0916 -0.2534
  248MOL0     C33358   5.202   4.424  10.439 -0.7422  0.2916  0.0219
  248MOL0     C33359   5.157   4.551  10.373 -0.4684  0.5496  0.6873
  248MOL0     C33360   5.045   4.511  10.276  0.1760  0.1543  0.1294
  248MOL0     C33361   4.961   4.635  10.242  0.1154  0.0390  0.6642
  248MOL0     N33362   5.037   4.748  10.202  0.3212 -0.6673  0.6814
  248MOL0     C33363   5.069   4.762  10.063 -0.8784  0.3576  0.2487
  248MOL0     C33364   5.126   4.883  10.054 -0.8097 -0.0619  0.2913
  248MOL0     C33365   5.178   4.949   9.928  0.3595 -0.2820  0.4865
  248MOL0     C33366   5.297   4.878   9.851  0.7928  0.1149  0.6255
  248MOL0     C33367   5.421   4.880   9.929 -0.3820  0.5886 -0.4581
  248MOL0     C33368   5.409   4.819  10.073  0.2758  0.6305  0.5211
  248MOL0     O33369   5.536   4.764  10.112 -0.4268 -0.3840 -0.4354
  248MOL0     C33370   5.636   4.860  10.132  0.9558 -0.0353  0.4280
  248MOL0     C33371   5.616   5.001  10.146  0.2873  1.0098 -0.3158
  248MOL0     C33372   5.731   5.079  10.171  0.9799 -0.2326 -0.5348
  248MOL0     C33373   5.703   5.224  10.190  0.0654  0.7229 -0.0834
  248MOL0     C33374   5.861   5.024  10.195  0.0046 -0.4806 -0.4105
  248MOL0     C33375   5.972   5.106  10.241  0.8126 -0.0725 -0.0861
  248MOL0     O33376   6.096   5.045  10.226  0.4735 -0.7526  0.8087
  248MOL0     C33377   6.214   5.124  10.238 -0.0020  0.6158 -0.7492
  248MOL0     C33378   6.241   5.235  10.164  0.1953  0.0085  0.2178
  248MOL0     C33379   6.357   5.316  10.192  1.2826  0.5733  0.6163
  248MOL0     C33380   6.446   5.270  10.289 -0.1170  0.2807  0.1235
  248MOL0     O33381   6.557   5.350  10.309 -0.8340  0.4916 -0.3925
  248MOL0     C33382   6.667   5.314  10.390 -0.4407  0.1016  0.2100
  248MOL0     C33383   6.763   5.432  10.394 -0.8520 -0.3061 -0.3521
  248MOL0     C33384   6.910   5.400  10.430  0.3307 -0.1159  0.4849
  248MOL0     C33385   7.003   5.519  10.445  0.6560 -0.1195  0.3272
  248MOL0     C33386   7.138   5.465  10.478 -0.6075  0.1395 -0.0432
  248MOL0     C33387   7.238   5.586  10.489  0.7388 -0.6948  0.0569
  248MOL0     C33388   7.369   5.534  10.536  0.4324  0.2366 -0.0351
  248MOL0     C33389   7.463   5.659  10.532 -0.0497 -0.6723 -0.7086
  248MOL0    Cl33390   7.632   5.621  10.525 -0.2331  0.3122 -0.0010
  248MOL0     C33391   6.416   5.147  10.361 -0.3440 -2.0727 -0.8533
  248MOL0     C33392   6.297   5.073  10.341 -0.2582 -0.5728  0.3847
  248MOL0     O33393   5.956   5.216  10.289  0.2561  0.4747  0.1001
  248MOL0     C33394   5.873   4.890  10.186 -0.5673 -0.9499 -0.0195
  248MOL0     C33395   5.763   4.809  10.152 -0.3681  0.5060  0.9059
  248MOL0     N33396   5.126   4.935  10.181  0.3906 -0.3714 -0.1038
  248MOL0     N33397   5.090   4.851  10.268  0.2891 -0.9197 -0.2361
  248MOL0     C33398   5.886   4.748  10.528  0.4778  0.6319  0.2996
  248MOL0     C33399   5.982   4.844  10.564  0.4163 -0.2763 -0.2658
  248MOL0     C33400   6.413   4.970  10.695 -0.5873  0.6676  0.7862
  248MOL0     C33401   6.368   5.103  10.705 -0.3924  0.7788  0.3758
  248MOL0     C33402   6.459   5.204  10.738 -0.1438 -0.5550 -0.0471
  248MOL0     C33403   6.599   5.173  10.747 -0.2997 -0.9177  0.3943
  248MOL0     O33404   6.689   5.270  10.775  0.2902  0.2127  0.5525
  248MOL0     C33405   6.730   5.289  10.911  0.9080 -0.2252  0.4682
  248MOL0     C33406   6.874   5.241  10.928 -0.4043  0.8911 -0.3694
  248MOL0     C33407   6.976   5.305  10.839 -1.4809  0.0688 -0.0326
  248MOL0     C33408   7.129   5.269  10.878  0.6467 -0.7455  0.1663
  248MOL0     C33409   7.185   5.369  10.976 -0.5910  1.0237 -0.4559
  248MOL0     C33410   7.245   5.448  11.046  0.0151  0.6743 -0.0078
  248MOL0     C33411   6.646   5.040  10.741  0.0799 -0.3403  0.4127
  248MOL0     C33412   6.559   4.939  10.717  0.5638  0.1240  0.0742
  248MOL0     H33413   6.199   4.641  10.718  1.4256  1.3940 -0.7553
  248MOL0     H33414   6.030   4.476  10.674  1.3679  0.5871  0.1310
  248MOL0     H33415   5.645   4.662  10.541 -0.3814  0.5514  0.4742
  248MOL0     H33416   5.701   4.555  10.416  1.6231 -1.1943  0.8735
  248MOL0     H33417   5.579   4.368  10.533 -1.5117 -0.5600  0.6642
  248MOL0     H33418   5.550   4.485  10.669  0.2103 -2.6207  1.3506
  248MOL0     H33419   5.422   4.625  10.495 -0.2333  0.1485 -0.6412
  248MOL0     H33420   5.433   4.492  10.380 -2.6910 -0.5025 -0.0646
  248MOL0     H33421   5.325   4.355  10.602 -3.5278 -0.6589 -0.4003
  248MOL0     H33422   5.277   4.514  10.620  1.8036 -2.0302  2.8183
  248MOL0     H33423   5.236   4.360  10.358  2.3890  0.7831  0.7973
  248MOL0     H33424   5.126   4.367  10.494 -0.5998  2.5535  2.8376
  248MOL0     H33425   5.112   4.623  10.442 -0.5683  0.8387  0.3280
  248MOL0     H33426   5.244   4.603  10.331 -0.6556  1.6446  1.6010
  248MOL0     H33427   5.100   4.478  10.188  0.2863  0.0832  0.2245
  248MOL0     H33428   4.973   4.438  10.315 -1.7331  0.2937 -2.8484
  248MOL0     H33429   4.920   4.652  10.342  1.2591 -1.3090  1.4170
  248MOL0     H33430   4.879   4.619  10.171  0.6003  0.2012  0.0621
  248MOL0     H33431   5.047   4.696   9.980  2.0211  0.5291 -0.7693
  248MOL0     H33432   5.097   4.948   9.855  0.3840  1.1654  0.4128
  248MOL0     H33433   5.208   5.050   9.957 -2.6570  2.2410 -4.0456
  248MOL0     H33434   5.301   4.924   9.752  0.5435  0.1841  0.6477
  248MOL0     H33435   5.273   4.771   9.842 -1.0609  0.5743 -0.3356
  248MOL0     H33436   5.456   4.982   9.944 -2.5690  1.0581  2.4137
  248MOL0     H33437   5.491   4.820   9.869 -0.5966  1.0111 -1.1421
  248MOL0     H33438   5.337   4.739  10.094 -0.2542  1.2214  1.0231
  248MOL0     H33439   5.377   4.899  10.141  2.2041  0.7557  1.3251
  248MOL0     H33440   5.516   5.044  10.145  0.5403  1.6274 -2.1724
  248MOL0     H33441   5.761   5.279  10.116  0.5508 -1.1246 -1.1184
  248MOL0     H33442   5.598   5.245  10.168 -0.3811 -1.9491 -0.7639
  248MOL0     H33443   5.723   5.259  10.292 -0.2531 -1.0947  0.6459
  248MOL0     H33444   6.180   5.268  10.081  1.1793 -0.5841 -0.7659
  248MOL0     H33445   6.357   5.413  10.144 -1.2502  0.5016  0.3309
  248MOL0     H33446   6.638   5.283  10.491  2.9653  1.0728  1.6291
  248MOL0     H33447   6.716   5.227  10.346 -2.4095 -1.3824  0.8032
  248MOL0     H33448   6.767   5.486  10.299 -0.2217  3.3484  1.5466
  248MOL0     H33449   6.722   5.501  10.469  0.2961 -2.0740  2.0196
  248MOL0     H33450   6.957   5.333  10.357 -2.5325 -1.5977 -0.1321
  248MOL0     H33451   6.914   5.358  10.530 -3.8327 -1.4896  0.2218
  248MOL0     H33452   6.994   5.581  10.355 -1.9895  2.7824  2.3646
  248MOL0     H33453   6.970   5.589  10.523  0.5572 -0.1534  0.3161
  248MOL0     H33454   7.180   5.401  10.400  1.4493  1.8141 -0.4269
  248MOL0     H33455   7.146   5.401  10.567  1.0206  0.9062  0.4004
  248MOL0     H33456   7.254   5.630  10.391 -1.4988  0.2007  0.0526
  248MOL0     H33457   7.201   5.662  10.558  0.6507  0.3074 -1.0786
  248MOL0     H33458   7.398   5.466  10.455 -1.3096 -3.8228  2.4568
  248MOL0     H33459   7.369   5.481  10.631  0.9648  0.5114  0.1260
  248MOL0     H33460   7.435   5.710  10.625 -2.1487  1.4242 -2.3646
  248MOL0     H33461   7.439   5.724  10.448  0.4169  0.0368 -0.3069
  248MOL0     H33462   6.479   5.122  10.445  0.9054  1.0727 -0.7059
  248MOL0     H33463   6.279   4.980  10.395 -0.3595  0.2668  1.8519
  248MOL0     H33464   5.970   4.843  10.200 -0.8756 -1.2766  1.1982
  248MOL0     H33465   5.783   4.704  10.130  3.1319  1.9488 -4.7671
  248MOL0     H33466   5.804   4.765  10.459  0.2889 -1.0441  0.0603
  248MOL0     H33467   5.963   4.949  10.543 -0.3590  0.1224  2.0981
  248MOL0     H33468   6.261   5.119  10.705 -0.7850 -1.2896  2.1341
  248MOL0     H33469   6.429   5.307  10.756  1.8277 -0.1934  1.5717
  248MOL0     H33470   6.725   5.396  10.933  0.1880  0.1926 -1.5711
  248MOL0     H33471   6.673   5.244  10.993 -0.9244  0.0017 -0.6371
  248MOL0     H33472   6.866   5.134  10.909  1.5769  1.0121 -2.3273
  248MOL0     H33473   6.891   5.247  11.036 -0.5432  1.3005 -0.3679
  248MOL0     H33474   6.964   5.413  10.827 -2.0698 -0.1953 -2.1592
  248MOL0     H33475   6.962   5.264  10.739  2.6092  0.6236 -1.0273
  248MOL0     H33476   7.191   5.279  10.788  0.2972 -1.1595 -0.1196
  248MOL0     H33477   7.147   5.168  10.917  1.9623 -0.6686 -0.1760
  248MOL0     H33478   7.287   5.532  11.098 -1.3514  2.1211 -1.1538
  248MOL0     H33479   6.754   5.030  10.740  0.1930  0.7938  0.2392
  248MOL0     H33480   6.603   4.840  10.727  4.1113  1.6208  0.6642
  249MOL0     O33481  11.246   1.377   0.575 -0.2266 -0.3064  0.5490
  249MOL0     C33482  11.252   1.253   0.570 -0.1304  0.3274 -0.2933
  249MOL0     O33483  11.147   1.162   0.562 -0.0917  0.3148  0.1818
  249MOL0     C33484  11.024   1.214   0.582 -0.3884 -0.3259 -0.6970
  249MOL0     C33485  10.964   1.203   0.703 -0.2924 -0.3386 -0.3369
  249MOL0     C33486  10.836   1.258   0.721 -0.6481 -0.5008  0.5554
  249MOL0     C33487  10.774   1.330   0.612  0.1268  0.6360  0.0381
  249MOL0     O33488  10.670   1.413   0.637 -0.8542  0.1542 -0.5946
  249MOL0     C33489  10.585   1.463   0.536  0.2787 -0.9730 -1.4303
  249MOL0     C33490  10.445   1.494   0.587  0.1851 -1.2552 -0.0702
  249MOL0     C33491  10.439   1.603   0.688  0.0813 -0.2868 -0.2263
  249MOL0     C33492  10.448   1.555   0.834 -0.1249  0.3300 -0.2473
  249MOL0     C33493  10.462   1.680   0.920  0.3316  0.0716  0.4186
  249MOL0     C33494  10.513   1.659   1.059  0.2922  0.2764  0.0766
  249MOL0     C33495  10.435   1.550   1.144 -0.5398  0.0986 -0.8373
  249MOL0     C33496  10.480   1.404   1.129  0.1692 -0.2233  0.9023
  249MOL0     N33497  10.419   1.318   1.229 -1.2580 -0.1281 -0.4346
  249MOL0     C33498  10.462   1.188   1.241 -0.0096  0.2428  0.7604
  249MOL0     C33499  10.372   1.130   1.317 -0.5385  0.6163  0.2256
  249MOL0     C33500  10.358   0.980   1.346  0.2495 -0.5072  0.0287
  249MOL0     C33501  10.487   0.920   1.392 -0.1944  0.1320 -0.9633
  249MOL0     C33502  10.486   0.772   1.405 -0.5540 -0.0679 -0.4777
  249MOL0     C33503  10.620   0.712   1.452 -0.4996 -0.2800 -0.7834
  249MOL0     O33504  10.714   0.726   1.347 -0.7701  0.3771  0.9335
  249MOL0     C33505  10.850   0.723   1.358  0.0014  0.7415  0.3802
  249MOL0     C33506  10.930   0.746   1.245 -0.7707  0.2350 -0.1197
  249MOL0     C33507  11.067   0.776   1.262 -0.0918 -0.5593 -1.0228
  249MOL0     C33508  11.150   0.856   1.162 -0.1284  0.2645  0.2451
  249MOL0     C33509  11.129   0.750   1.390  0.5624  0.5353 -0.5254
  249MOL0     C33510  11.277   0.760   1.410 -0.4881  0.3850 -0.1693
  249MOL0     O33511  11.369   0.729   1.305  0.9430  0.4069 -0.1746
  249MOL0     C33512  11.507   0.724   1.333 -0.0913  0.0322 -0.2344
  249MOL0     C33513  11.571   0.682   1.448  0.6825 -0.0970  0.5595
  249MOL0     C33514  11.713   0.678   1.453 -0.1328 -0.3275  0.3302
  249MOL0     C33515  11.793   0.721   1.342  0.6034  0.3432 -0.1621
  249MOL0     O33516  11.927   0.712   1.340 -0.5274 -0.8671  0.0978
  249MOL0     C33517  11.991   0.666   1.227 -0.1595  0.2586  0.3903
  249MOL0     C33518  12.140   0.675   1.275  0.2511  0.1500  0.2177
  249MOL0     C33519  12.239   0.626   1.172 -0.0054 -0.0671  0.3847
  249MOL0     C33520  12.372   0.608   1.237 -0.3761 -0.6745 -0.2324
  249MOL0     C33521  12.427   0.733   1.301  0.1477 -0.2007  0.5442
  249MOL0     C33522  12.577   0.730   1.334 -0.7422 -0.6778 -1.0571
  249MOL0     C33523  12.614   0.604   1.407  0.2834 -0.7206  0.0175
  249MOL0     C33524  12.765   0.599   1.439 -0.4479 -0.4765  0.1007
  249MOL0    Cl33525  12.874   0.583   1.296 -0.4869 -0.1871  0.0768
  249MOL0     C33526  11.728   0.772   1.240  0.6340 -0.2313  0.4348
  249MOL0     C33527  11.585   0.770   1.229  0.7904 -0.5535 -0.5705
  249MOL0     O33528  11.309   0.803   1.518  0.3123 -0.1123  0.0341
  249MOL0     C33529  11.044   0.724   1.499 -0.6140  0.3332 -0.3808
  249MOL0     C33530  10.909   0.713   1.477  0.3143  0.1312  0.8505
  249MOL0     N33531  10.270   1.220   1.347 -0.1094  0.2240 -0.1624
  249MOL0     N33532  10.301   1.333   1.293  0.4234  1.3397  0.2235
  249MOL0     C33533  10.845   1.346   0.489  0.1613  0.4776 -0.0146
  249MOL0     C33534  10.967   1.277   0.472 -0.5431 -0.5492  0.3635
  249MOL0     C33535  11.391   1.189   0.554 -0.0774  0.4654  0.3288
  249MOL0     C33536  11.411   1.051   0.561  0.2912 -0.8548  0.5958
  249MOL0     C33537  11.544   1.007   0.559  0.1333  0.2431 -0.5494
  249MOL0     C33538  11.653   1.092   0.539 -0.4847  0.7770  0.1013
  249MOL0     O33539  11.779   1.038   0.536  0.0878  0.0021 -0.3800
  249MOL0     C33540  11.887   1.098   0.475  0.6280  0.2170 -0.4354
  249MOL0     C33541  11.992   0.994   0.505 -0.3798 -0.3263  0.5827
  249MOL0     C33542  12.139   1.045   0.503  0.5226 -0.1052 -0.4747
  249MOL0     C33543  12.187   1.113   0.369  0.2355 -0.3546 -0.3243
  249MOL0     C33544  12.189   1.007   0.268 -0.4198  0.2855  0.4801
  249MOL0     C33545  12.196   0.924   0.180  0.1398  0.0621  0.0240
  249MOL0     C33546  11.634   1.228   0.539  0.5899 -0.4778 -1.1915
  249MOL0     C33547  11.499   1.282   0.555  0.3801 -0.4660  0.0114
  249MOL0     H33548  11.012   1.136   0.774  0.0707 -1.7517 -1.8739
  249MOL0     H33549  10.806   1.262   0.825  0.2602  0.2674  0.7953
  249MOL0     H33550  10.627   1.555   0.496  0.5391 -0.7138 -0.5902
  249MOL0     H33551  10.571   1.390   0.455  1.6805 -1.5027 -1.2187
  249MOL0     H33552  10.379   1.506   0.500  0.0263  1.0345  0.3034
  249MOL0     H33553  10.411   1.400   0.631 -1.2896 -0.3312  0.8190
  249MOL0     H33554  10.514   1.680   0.669 -1.8632  2.3936  2.2175
  249MOL0     H33555  10.342   1.651   0.673  1.1761  1.9246 -0.4949
  249MOL0     H33556  10.355   1.505   0.863 -0.5046  3.0289  4.1619
  249MOL0     H33557  10.538   1.495   0.850 -0.7548 -0.5768  0.0019
  249MOL0     H33558  10.519   1.754   0.863  2.6862 -1.8226  0.2031
  249MOL0     H33559  10.364   1.728   0.933  0.8958  1.0844  1.1168
  249MOL0     H33560  10.614   1.621   1.040 -0.1150 -1.6706  1.5103
  249MOL0     H33561  10.528   1.754   1.111  3.5205  0.3972 -0.8472
  249MOL0     H33562  10.451   1.591   1.245 -1.4699 -0.7664 -0.3230
  249MOL0     H33563  10.327   1.554   1.127 -1.0362  0.9632  1.9949
  249MOL0     H33564  10.589   1.400   1.137  0.2859 -0.1539 -0.4911
  249MOL0     H33565  10.450   1.370   1.030  0.2596 -1.5427  1.3084
  249MOL0     H33566  10.546   1.138   1.193 -1.1600  0.6893 -1.8432
  249MOL0     H33567  10.271   0.975   1.413 -0.9367  0.0702 -1.4150
  249MOL0     H33568  10.325   0.928   1.255 -2.2679  0.8767  0.0732
  249MOL0     H33569  10.517   0.978   1.480  2.0695  0.7149 -2.0471
  249MOL0     H33570  10.567   0.946   1.322 -0.8980 -0.5276 -2.0285
  249MOL0     H33571  10.459   0.732   1.307  0.6180 -0.5559 -0.6210
  249MOL0     H33572  10.410   0.736   1.474 -1.0812 -2.6059 -2.2479
  249MOL0     H33573  10.604   0.607   1.475  1.2439 -0.5525 -0.6962
  249MOL0     H33574  10.661   0.763   1.540  3.0324 -1.6850 -1.4336
  249MOL0     H33575  10.889   0.788   1.153 -0.4735 -1.1366 -0.8972
  249MOL0     H33576  11.082   0.888   1.082 -0.0262  2.3805  0.9278
  249MOL0     H33577  11.199   0.938   1.216 -1.2770  0.1778  1.4842
  249MOL0     H33578  11.233   0.803   1.115  0.8586  1.7719  0.2068
  249MOL0     H33579  11.509   0.639   1.527 -1.2712 -3.9614 -2.6738
  249MOL0     H33580  11.767   0.632   1.536  0.0351  0.0036  0.4054
  249MOL0     H33581  11.958   0.563   1.217  0.4749 -0.1484  2.0768
  249MOL0     H33582  11.970   0.723   1.136 -2.1303  0.2838  0.8199
  249MOL0     H33583  12.152   0.780   1.301 -0.0687  1.5095 -4.2978
  249MOL0     H33584  12.150   0.603   1.357  1.3486  1.9468  1.7523
  249MOL0     H33585  12.244   0.700   1.092 -2.0788  1.6146  1.7184
  249MOL0     H33586  12.195   0.536   1.128  0.8859 -0.4597  0.2722
  249MOL0     H33587  12.366   0.537   1.321  2.6976 -0.7166  0.0588
  249MOL0     H33588  12.445   0.565   1.168 -0.3687 -1.2222  0.1102
  249MOL0     H33589  12.361   0.751   1.386 -2.6361 -0.5706 -1.4055
  249MOL0     H33590  12.413   0.823   1.239 -0.0823  2.3692  4.0207
  249MOL0     H33591  12.648   0.752   1.253  1.2936 -0.4195  0.6874
  249MOL0     H33592  12.595   0.808   1.409  2.8538 -1.9065 -0.4021
  249MOL0     H33593  12.595   0.514   1.347  1.5492 -1.1450  0.2241
  249MOL0     H33594  12.564   0.603   1.504 -0.2489 -0.3476 -0.2447
  249MOL0     H33595  12.791   0.518   1.507 -1.3796  0.1178  1.2083
  249MOL0     H33596  12.791   0.691   1.492 -0.2422  0.5110 -1.6314
  249MOL0     H33597  11.778   0.802   1.149 -2.7736  1.2026 -1.1636
  249MOL0     H33598  11.543   0.831   1.149  1.5861 -0.0538 -0.6190
  249MOL0     H33599  11.087   0.723   1.599  1.7248 -2.2438 -1.2979
  249MOL0     H33600  10.861   0.692   1.572  0.2059 -1.0320  0.5539
  249MOL0     H33601  10.801   1.416   0.419 -3.1694 -2.7402 -1.4809
  249MOL0     H33602  11.030   1.281   0.384 -1.7779  0.4810 -0.5063
  249MOL0     H33603  11.345   0.966   0.574 -0.2210 -0.8699 -1.6326
  249MOL0     H33604  11.570   0.904   0.582  2.5764  1.4417  3.0386
  249MOL0     H33605  11.864   1.112   0.369  0.3287  0.1675 -0.3786
  249MOL0     H33606  11.914   1.193   0.522 -0.7405  0.0863  0.6933
  249MOL0     H33607  11.974   0.918   0.429 -0.4150 -0.6199  0.8796
  249MOL0     H33608  11.973   0.947   0.602 -2.5700 -3.3639 -1.1476
  249MOL0     H33609  12.205   0.960   0.523 -1.4301 -2.0905 -1.8969
  249MOL0     H33610  12.141   1.119   0.584 -2.2299 -0.0210 -0.3837
  249MOL0     H33611  12.286   1.156   0.388 -0.5197  2.0047 -1.4136
  249MOL0     H33612  12.126   1.198   0.340 -0.5747 -0.8019  0.0499
  249MOL0     H33613  12.203   0.857   0.096 -0.6847 -0.1467  0.1134
  249MOL0     H33614  11.702   1.312   0.531 -2.5848  2.3631 -1.0306
  249MOL0     H33615  11.483   1.389   0.559 -1.1830 -0.6776  0.0333
  250MOL0     O33616   4.821   9.113   0.111 -0.2768  0.6298  0.1935
  250MOL0     C33617   4.849   9.001   0.152 -0.4668 -0.2702  0.1123
  250MOL0     O33618   4.757   8.911   0.214 -0.8326  0.3917  0.4574
  250MOL0     C33619   4.619   8.923   0.203  0.1889  0.8593  0.6698
  250MOL0     C33620   4.552   8.800   0.245  0.7099 -0.5960 -0.7346
  250MOL0     C33621   4.411   8.799   0.256 -0.4117  0.3344  0.6819
  250MOL0     C33622   4.333   8.909   0.219 -0.4509 -0.0997 -0.2052
  250MOL0     O33623   4.201   8.917   0.223 -0.0178  0.4771  0.5011
  250MOL0     C33624   4.118   8.795   0.229 -0.5253  0.7583  0.1721
  250MOL0     C33625   3.987   8.838   0.183 -0.1733 -0.8260 -0.3365
  250MOL0     C33626   3.894   8.904   0.279 -1.2388 -0.0173 -1.0176
  250MOL0     C33627   3.792   8.993   0.212  0.2085  1.4795 -0.5125
  250MOL0     C33628   3.697   9.049   0.311  0.1237  0.6541 -0.2383
  250MOL0     C33629   3.582   8.951   0.353  0.6861  0.4370 -0.1216
  250MOL0     C33630   3.465   9.031   0.409 -0.1421 -0.1973  0.3785
  250MOL0     C33631   3.370   9.097   0.319 -0.3872 -0.3369 -0.7849
  250MOL0     N33632   3.267   9.181   0.382  0.1457 -0.4723  0.3217
  250MOL0     C33633   3.132   9.179   0.346 -0.8123  0.7543 -0.5242
  250MOL0     C33634   3.063   9.277   0.414 -0.1565  0.4432  0.1426
  250MOL0     C33635   2.928   9.336   0.421 -0.0633 -0.0638 -0.6988
  250MOL0     C33636   2.916   9.461   0.340  0.2131 -1.0785  0.4396
  250MOL0     C33637   2.776   9.525   0.371  0.2652 -0.1929  0.1435
  250MOL0     C33638   2.776   9.663   0.294 -0.4374 -0.2756  0.1500
  250MOL0     O33639   2.653   9.683   0.231  0.7202  0.1962  0.7407
  250MOL0     C33640   2.531   9.692   0.291  0.1398  0.0081 -0.4612
  250MOL0     C33641   2.427   9.620   0.235 -1.2146 -0.7389 -0.6939
  250MOL0     C33642   2.303   9.618   0.287 -0.5142 -0.7823 -0.1635
  250MOL0     C33643   2.207   9.534   0.205  0.3416  0.0790 -0.6813
  250MOL0     C33644   2.272   9.693   0.404  0.7723  0.0693  0.1650
  250MOL0     C33645   2.137   9.698   0.469  0.2443 -0.3114 -0.0359
  250MOL0     O33646   2.065   9.589   0.450 -0.0284 -0.0176  0.2854
  250MOL0     C33647   1.932   9.585   0.503 -0.8397 -0.1696  0.3523
  250MOL0     C33648   1.834   9.525   0.419 -0.9444  0.6835  0.0040
  250MOL0     C33649   1.713   9.494   0.477  0.1902  0.3674  0.0612
  250MOL0     C33650   1.683   9.521   0.613  0.4207 -0.1439 -0.5426
  250MOL0     O33651   1.556   9.517   0.654 -0.3999  0.7622 -0.1943
  250MOL0     C33652   1.533   9.429   0.764 -0.0318 -0.4193 -0.4524
  250MOL0     C33653   1.391   9.439   0.838 -0.7394  0.4402  0.6171
  250MOL0     C33654   1.310   9.567   0.809  0.0767 -0.1927  0.2526
  250MOL0     C33655   1.174   9.546   0.885  0.0666 -0.8196  0.4306
  250MOL0     C33656   1.112   9.685   0.911  0.7898  0.2854 -0.4767
  250MOL0     C33657   0.970   9.677   0.970 -0.2243 -0.5574 -0.2164
  250MOL0     C33658   0.890   9.819   0.982 -0.4346  0.4656 -0.6756
  250MOL0     C33659   0.756   9.819   1.034 -0.3419  0.6915  0.0086
  250MOL0    Cl33660   0.656   9.723   0.927  0.2023 -0.3419 -0.2913
  250MOL0     C33661   1.780   9.587   0.689 -0.3061 -0.5202 -0.4047
  250MOL0     C33662   1.899   9.624   0.628 -0.8146  0.3463 -0.4747
  250MOL0     O33663   2.108   9.802   0.522 -0.1094  0.3409  0.4409
  250MOL0     C33664   2.376   9.769   0.462 -0.6519  0.3132 -0.1742
  250MOL0     C33665   2.510   9.767   0.405 -0.1257 -0.0468  0.5785
  250MOL0     N33666   3.157   9.328   0.506  0.2279  0.3381  0.4447
  250MOL0     N33667   3.277   9.269   0.486  1.0969 -0.8479 -1.1471
  250MOL0     C33668   4.403   9.022   0.175  0.8614  0.0991 -0.9552
  250MOL0     C33669   4.540   9.034   0.174  0.0402 -0.4462 -0.2409
  250MOL0     C33670   4.985   8.957   0.124 -0.2849  0.4832 -0.3074
  250MOL0     C33671   5.080   9.036   0.061 -0.2478  0.0390  0.0146
  250MOL0     C33672   5.205   8.987   0.018 -0.8131 -1.0693  0.0397
  250MOL0     C33673   5.246   8.855   0.053 -0.0566 -0.5723 -0.0993
  250MOL0     O33674   5.357   8.789   0.012 -0.6253 -0.8433 -0.6740
  250MOL0     C33675   5.411   8.805  -0.115  0.1440 -0.1776  0.2458
  250MOL0     C33676   5.478   8.678  -0.151  0.6290 -0.4417 -0.3188
  250MOL0     C33677   5.366   8.566  -0.153 -0.0561  0.3021  0.1851
  250MOL0     C33678   5.245   8.590  -0.251  0.9284  0.1881  0.2760
  250MOL0     C33679   5.281   8.645  -0.381 -0.2248  0.0122  0.2808
  250MOL0     C33680   5.315   8.688  -0.493  0.0037 -0.2850  0.1404
  250MOL0     C33681   5.153   8.780   0.135  0.9160 -0.1476 -0.8321
  250MOL0     C33682   5.021   8.827   0.161 -0.5765 -0.1557 -0.0962
  250MOL0     H33683   4.612   8.720   0.286  0.5282  1.0583  3.2184
  250MOL0     H33684   4.354   8.708   0.275  1.4582 -1.0005  0.1223
  250MOL0     H33685   4.150   8.708   0.171 -2.5140  0.6950 -0.9050
  250MOL0     H33686   4.113   8.752   0.330  0.9594  0.3347  0.0958
  250MOL0     H33687   3.990   8.909   0.100 -0.6572  0.1209  0.4311
  250MOL0     H33688   3.925   8.753   0.154  0.9723 -0.7785 -3.2949
  250MOL0     H33689   3.844   8.825   0.335 -3.2692  0.5024 -2.0004
  250MOL0     H33690   3.945   8.969   0.350 -1.5288 -1.8571  0.9704
  250MOL0     H33691   3.838   9.076   0.158 -2.5995  1.6786 -2.8777
  250MOL0     H33692   3.743   8.935   0.133  0.4819  0.1422  0.2727
  250MOL0     H33693   3.751   9.088   0.398  0.9262 -0.0762 -0.4001
  250MOL0     H33694   3.642   9.126   0.256 -2.2356 -1.7142 -1.4177
  250MOL0     H33695   3.553   8.888   0.269 -0.8406  1.0330 -0.0683
  250MOL0     H33696   3.625   8.891   0.433  2.2096  2.3154  0.5636
  250MOL0     H33697   3.409   8.960   0.471  1.2772 -1.8203 -0.1266
  250MOL0     H33698   3.509   9.110   0.470  1.7843 -1.3367  0.5663
  250MOL0     H33699   3.315   9.018   0.268 -0.7703  0.2764 -1.3370
  250MOL0     H33700   3.420   9.154   0.240  1.5913 -1.0334 -0.0809
  250MOL0     H33701   3.088   9.104   0.281 -0.4029 -0.1119  0.1697
  250MOL0     H33702   2.851   9.264   0.394  0.0149  0.0737 -1.3057
  250MOL0     H33703   2.921   9.369   0.525 -1.7043  0.6534 -0.9989
  250MOL0     H33704   2.918   9.439   0.233 -0.5928 -0.3379  0.2596
  250MOL0     H33705   3.004   9.522   0.360 -0.7691  1.1788 -1.5838
  250MOL0     H33706   2.765   9.537   0.479  0.2607 -0.0167  0.1230
  250MOL0     H33707   2.698   9.463   0.326  1.1270 -1.0833 -0.1818
  250MOL0     H33708   2.845   9.647   0.211 -0.8450 -2.3963  0.1674
  250MOL0     H33709   2.814   9.747   0.353 -0.8198 -2.4368  3.7435
  250MOL0     H33710   2.450   9.563   0.146  1.3210 -0.8511 -0.0434
  250MOL0     H33711   2.233   9.525   0.098 -2.9142  0.6768 -1.6188
  250MOL0     H33712   2.191   9.437   0.251 -0.8527  0.7485  0.3652
  250MOL0     H33713   2.111   9.587   0.203 -1.2041 -2.3917 -4.4033
  250MOL0     H33714   1.864   9.497   0.319  1.5526 -2.6129  1.4872
  250MOL0     H33715   1.638   9.456   0.409 -0.1660  0.2501  0.5150
  250MOL0     H33716   1.547   9.326   0.732  0.3675  0.3461 -2.8939
  250MOL0     H33717   1.615   9.441   0.836 -0.0914  0.7290 -0.5441
  250MOL0     H33718   1.330   9.353   0.808  3.3119 -2.6415  0.3948
  250MOL0     H33719   1.408   9.421   0.945  1.3402 -1.1409  0.0854
  250MOL0     H33720   1.289   9.580   0.703 -0.1290  3.7916  0.6370
  250MOL0     H33721   1.358   9.657   0.847 -0.9119  0.1773  0.6577
  250MOL0     H33722   1.116   9.482   0.818 -3.3258  0.9098  1.4763
  250MOL0     H33723   1.192   9.509   0.987 -0.6421  2.9042  2.0966
  250MOL0     H33724   1.094   9.741   0.820 -1.6805  2.1439  1.0304
  250MOL0     H33725   1.179   9.755   0.962 -2.2913  4.1298 -1.2141
  250MOL0     H33726   0.912   9.611   0.904 -0.6602 -2.1997  1.6688
  250MOL0     H33727   0.976   9.634   1.071  1.2894  1.0516  0.4114
  250MOL0     H33728   0.882   9.865   0.883  0.8634  1.8994 -0.1590
  250MOL0     H33729   0.951   9.881   1.048  0.7921 -2.9536  1.6242
  250MOL0     H33730   0.721   9.923   1.032 -0.1770  0.7445 -0.0580
  250MOL0     H33731   0.745   9.792   1.140  0.6230 -0.2439 -0.1266
  250MOL0     H33732   1.769   9.637   0.785  5.3993  1.1252 -0.1843
  250MOL0     H33733   1.977   9.676   0.683 -2.1433  1.0303  0.8150
  250MOL0     H33734   2.348   9.830   0.547 -0.7102  0.8685 -0.5867
  250MOL0     H33735   2.590   9.830   0.443  0.5197  1.8630 -3.4964
  250MOL0     H33736   4.332   9.103   0.160 -0.8119 -0.5443  2.4992
  250MOL0     H33737   4.581   9.131   0.147 -0.1434  0.4146  2.2822
  250MOL0     H33738   5.046   9.135   0.032  2.2800  0.3719 -2.2134
  250MOL0     H33739   5.270   9.055  -0.036 -2.2483  0.9350  0.7186
  250MOL0     H33740   5.325   8.825  -0.180  0.9783 -0.3041 -0.9273
  250MOL0     H33741   5.482   8.887  -0.127  0.3598 -0.6236 -2.1234
  250MOL0     H33742   5.556   8.653  -0.078  0.9396 -2.6598 -1.3443
  250MOL0     H33743   5.527   8.680  -0.248 -0.9274  2.2355 -1.1561
  250MOL0     H33744   5.328   8.548  -0.052  2.4955  0.8484  1.3303
  250MOL0     H33745   5.425   8.476  -0.176  0.5450  0.1937  2.0079
  250MOL0     H33746   5.178   8.665  -0.207  0.5509 -0.4834  0.8673
  250MOL0     H33747   5.198   8.493  -0.265 -0.6949  1.2684 -2.7339
  250MOL0     H33748   5.345   8.740  -0.582  1.9118 -2.4220 -0.5695
  250MOL0     H33749   5.179   8.677   0.159 -0.7077 -0.2491  0.6143
  250MOL0     H33750   4.948   8.770   0.218 -0.2401 -2.0891 -1.5023
  251MOL0     O33751   7.700  10.771   8.460  0.0057 -0.3408  0.1459
  251MOL0     C33752   7.721  10.841   8.356 -0.0368  1.0855 -0.1758
  251MOL0     O33753   7.636  10.881   8.266 -0.6164  0.9955  0.3051
  251MOL0     C33754   7.497  10.870   8.271 -0.6010 -0.3273 -0.0041
  251MOL0     C33755   7.416  10.792   8.352 -0.3217 -0.3914 -0.7707
  251MOL0     C33756   7.279  10.794   8.335  0.2849  0.4149  0.6286
  251MOL0     C33757   7.215  10.877   8.252  0.5027 -0.3017  0.7741
  251MOL0     O33758   7.082  10.872   8.253 -0.2946  0.1959  0.3338
  251MOL0     C33759   7.028  10.854   8.122  1.4600  0.0834 -1.1891
  251MOL0     C33760   6.877  10.836   8.127  0.2639 -0.0193  0.1005
  251MOL0     C33761   6.810  10.956   8.184  0.5218 -0.7521 -0.4098
  251MOL0     C33762   6.666  10.960   8.147  0.2354 -0.7309 -0.2508
  251MOL0     C33763   6.597  11.067   8.230 -0.4064  0.4092  0.5616
  251MOL0     C33764   6.455  11.108   8.168 -1.8188  0.2818 -0.7611
  251MOL0     C33765   6.406  11.224   8.248 -0.2050 -0.2285 -0.2417
  251MOL0     C33766   6.349  11.181   8.380 -0.4933 -0.8177  0.2855
  251MOL0     N33767   6.313  11.294   8.465  0.3532  0.1325 -0.1427
  251MOL0     C33768   6.207  11.380   8.443 -0.5564 -0.0370 -0.4405
  251MOL0     C33769   6.231  11.480   8.532  0.2463 -0.7093 -0.5646
  251MOL0     C33770   6.147  11.609   8.548 -0.0746 -0.4473  1.1644
  251MOL0     C33771   6.019  11.590   8.625 -0.6655 -0.1365  1.1363
  251MOL0     C33772   5.907  11.564   8.526  0.6650  0.5633  0.2755
  251MOL0     C33773   5.762  11.560   8.588 -0.2216  0.3476 -0.1094
  251MOL0     O33774   5.729  11.422   8.627  0.9486 -0.1885 -0.4331
  251MOL0     C33775   5.618  11.400   8.695 -0.9582 -0.6670  0.3180
  251MOL0     C33776   5.586  11.265   8.702 -0.1270  0.0444 -0.3489
  251MOL0     C33777   5.462  11.227   8.755  0.4405  0.0804  0.4063
  251MOL0     C33778   5.438  11.075   8.773 -0.3745 -0.1549  0.8042
  251MOL0     C33779   5.363  11.322   8.794 -0.2684  0.1259  0.4848
  251MOL0     C33780   5.233  11.282   8.859 -0.3571 -0.3386 -0.0482
  251MOL0     O33781   5.235  11.215   8.983  0.4574 -0.1257 -0.2057
  251MOL0     C33782   5.124  11.162   9.030  0.8049 -0.5477  0.7494
  251MOL0     C33783   5.052  11.062   8.962  0.5306 -0.2508  0.6811
  251MOL0     C33784   4.941  10.999   9.021 -0.1602  0.0720  0.5050
  251MOL0     C33785   4.899  11.044   9.148 -0.1018 -0.2828  0.7775
  251MOL0     O33786   4.793  10.993   9.217  0.1375  0.1884  0.7091
  251MOL0     C33787   4.691  10.924   9.149 -0.5223  1.0093  0.0024
  251MOL0     C33788   4.562  10.924   9.219  0.4566  0.9966 -0.1066
  251MOL0     C33789   4.466  10.817   9.163 -0.2770 -0.2650 -0.0536
  251MOL0     C33790   4.317  10.838   9.184 -0.4507 -0.9445 -0.4086
  251MOL0     C33791   4.227  10.736   9.135 -0.2682  0.0879  0.6013
  251MOL0     C33792   4.090  10.774   9.178  0.0521  0.4081  1.1633
  251MOL0     C33793   4.000  10.661   9.142  0.5045 -0.3545 -0.3987
  251MOL0     C33794   3.852  10.712   9.158 -0.6468  0.2257  0.0461
  251MOL0    Cl33795   3.748  10.562   9.136 -0.1945  0.3277 -0.0879
  251MOL0     C33796   4.975  11.133   9.211 -0.0134  0.0574 -0.3337
  251MOL0     C33797   5.082  11.194   9.158 -0.6090 -0.2258 -0.9404
  251MOL0     O33798   5.138  11.297   8.790  0.1701 -0.2324  0.3536
  251MOL0     C33799   5.393  11.452   8.777 -0.5608 -0.5579  0.3630
  251MOL0     C33800   5.523  11.496   8.737 -0.3626  0.4109  0.4098
  251MOL0     N33801   6.346  11.451   8.600 -0.0795 -0.1786  0.0775
  251MOL0     N33802   6.407  11.349   8.551  0.3805 -0.3434  0.3608
  251MOL0     C33803   7.289  10.966   8.174  0.2082  0.6383 -0.5435
  251MOL0     C33804   7.434  10.951   8.176  0.4052  0.2172 -0.6144
  251MOL0     C33805   7.859  10.865   8.332  0.6262 -0.8867 -0.5567
  251MOL0     C33806   7.906  10.924   8.213 -0.8601  0.8051  0.1032
  251MOL0     C33807   8.042  10.952   8.191  0.1327  0.1580 -0.0205
  251MOL0     C33808   8.140  10.928   8.290 -0.7579  0.1061  0.0845
  251MOL0     O33809   8.269  10.968   8.262  0.1232 -0.9044 -0.3970
  251MOL0     C33810   8.296  11.107   8.286  0.4775  0.0135 -0.4709
  251MOL0     C33811   8.399  11.157   8.188 -0.0135  0.2404 -0.5325
  251MOL0     C33812   8.531  11.086   8.180  0.2029 -0.1600 -0.8820
  251MOL0     C33813   8.641  11.160   8.257 -0.3291 -0.7728  0.1253
  251MOL0     C33814   8.758  11.082   8.244 -1.1344  0.2234  0.4976
  251MOL0     C33815   8.850  11.000   8.232 -0.0102  0.1950 -0.9171
  251MOL0     C33816   8.098  10.878   8.411  0.1749 -0.1555 -0.2100
  251MOL0     C33817   7.961  10.839   8.432 -0.6717 -0.6786 -0.5003
  251MOL0     H33818   7.445  10.724   8.431 -0.8911  0.8917  0.5784
  251MOL0     H33819   7.219  10.734   8.402 -2.2139  2.9905  0.8779
  251MOL0     H33820   7.044  10.939   8.055  0.1083  0.5412 -0.9681
  251MOL0     H33821   7.061  10.762   8.073 -2.2922 -3.3087  1.8964
  251MOL0     H33822   6.835  10.824   8.027 -3.1679 -1.8273  1.5794
  251MOL0     H33823   6.858  10.747   8.186 -1.4693 -0.6476 -1.3217
  251MOL0     H33824   6.800  10.937   8.292 -3.5110  0.4679 -0.4329
  251MOL0     H33825   6.862  11.051   8.166  1.9329 -1.1784  1.1215
  251MOL0     H33826   6.656  10.977   8.039 -0.0849  1.3603  0.0659
  251MOL0     H33827   6.618  10.866   8.174  1.6106 -1.0524  1.2218
  251MOL0     H33828   6.581  11.022   8.329  1.4470 -0.7102  0.3901
  251MOL0     H33829   6.656  11.158   8.245  0.1437  0.0658  0.4801
  251MOL0     H33830   6.484  11.133   8.066  4.1442 -4.8547 -0.9904
  251MOL0     H33831   6.387  11.022   8.176 -1.6229  0.1956  0.1102
  251MOL0     H33832   6.482  11.302   8.260  0.4477 -0.7615 -0.8758
  251MOL0     H33833   6.333  11.279   8.188 -2.1667 -0.4208  1.8472
  251MOL0     H33834   6.418  11.110   8.428  0.5625  1.1633  1.8466
  251MOL0     H33835   6.265  11.117   8.353 -0.9933  0.0770 -0.3360
  251MOL0     H33836   6.134  11.372   8.363  0.5105 -2.3731 -1.2716
  251MOL0     H33837   6.203  11.671   8.619  2.6648 -3.4854  1.8667
  251MOL0     H33838   6.125  11.655   8.451 -2.4766  0.8568  2.2480
  251MOL0     H33839   5.998  11.678   8.686  2.2683  1.5908 -0.1217
  251MOL0     H33840   6.020  11.502   8.689 -1.3284 -1.9065 -1.1482
  251MOL0     H33841   5.919  11.465   8.480 -2.6058  1.2407 -2.3823
  251MOL0     H33842   5.911  11.634   8.443 -2.1747  0.3576 -0.1382
  251MOL0     H33843   5.691  11.586   8.509  0.2933 -2.3132 -1.5790
  251MOL0     H33844   5.753  11.630   8.672  0.3097 -1.4581  1.5269
  251MOL0     H33845   5.658  11.189   8.675  1.4362  0.2535  2.7406
  251MOL0     H33846   5.530  11.022   8.746  1.7120  2.6623  1.9055
  251MOL0     H33847   5.424  11.064   8.881 -2.0676 -0.0455  0.6109
  251MOL0     H33848   5.351  11.033   8.722 -1.7948 -0.3406  3.1920
  251MOL0     H33849   5.086  11.036   8.863  0.2189 -2.4898  1.1145
  251MOL0     H33850   4.893  10.923   8.961  1.0205  0.8051 -1.4594
  251MOL0     H33851   4.669  10.962   9.048  0.2514 -1.9076 -1.3868
  251MOL0     H33852   4.727  10.826   9.117 -1.4050  0.7779 -0.3122
  251MOL0     H33853   4.581  10.897   9.323 -4.3795 -2.8913  0.1388
  251MOL0     H33854   4.526  11.027   9.209 -0.2823  1.0103  2.2267
  251MOL0     H33855   4.479  10.723   9.218  0.6862 -2.1044 -3.1944
  251MOL0     H33856   4.485  10.798   9.057  0.4520  2.1763 -0.4205
  251MOL0     H33857   4.312  10.848   9.293 -0.7492  0.4974 -0.5340
  251MOL0     H33858   4.287  10.933   9.140 -1.5110 -0.2796  1.6382
  251MOL0     H33859   4.263  10.643   9.180  3.2717  0.6171 -0.7906
  251MOL0     H33860   4.240  10.725   9.027  2.0347  0.9386  0.7512
  251MOL0     H33861   4.081  10.805   9.282 -0.2631  3.4945  0.3195
  251MOL0     H33862   4.072  10.862   9.116  5.1471 -0.2053 -1.7917
  251MOL0     H33863   4.014  10.586   9.221  1.0773 -0.4330 -0.5714
  251MOL0     H33864   4.016  10.628   9.039  0.2659 -1.5037 -0.0831
  251MOL0     H33865   3.823  10.782   9.078  1.3575 -0.6985 -1.5853
  251MOL0     H33866   3.825  10.769   9.247 -0.7112 -0.4024  0.4289
  251MOL0     H33867   4.941  11.168   9.308 -2.8357 -2.3930 -0.3094
  251MOL0     H33868   5.144  11.258   9.220 -1.3272 -0.4143 -0.0172
  251MOL0     H33869   5.311  11.510   8.817 -0.6577 -0.9797  0.7828
  251MOL0     H33870   5.535  11.604   8.745 -0.1700  0.4905 -0.8043
  251MOL0     H33871   7.239  11.044   8.117  0.6134  2.1403  1.0720
  251MOL0     H33872   7.502  11.003   8.110 -0.1485  2.6184  0.6261
  251MOL0     H33873   7.841  10.935   8.127  1.7557  2.0808 -1.8596
  251MOL0     H33874   8.079  10.997   8.100 -0.3568  3.4924  1.3123
  251MOL0     H33875   8.202  11.161   8.277  0.4590 -0.1315 -1.2666
  251MOL0     H33876   8.330  11.114   8.389 -0.8165 -1.6852  0.1289
  251MOL0     H33877   8.422  11.255   8.231  0.1882 -0.8522  2.0485
  251MOL0     H33878   8.358  11.181   8.090  1.6243  0.8777 -1.1067
  251MOL0     H33879   8.566  11.069   8.077  2.2804  0.5881 -0.3527
  251MOL0     H33880   8.522  10.995   8.240  0.9304  0.6386  0.4812
  251MOL0     H33881   8.617  11.166   8.364  3.0688  2.9495  0.9245
  251MOL0     H33882   8.659  11.259   8.214  3.3840 -1.5704 -0.4181
  251MOL0     H33883   8.920  10.922   8.253 -1.8048 -0.5307  3.5947
  251MOL0     H33884   8.175  10.850   8.483  0.7131 -1.2217 -1.1666
  251MOL0     H33885   7.939  10.798   8.530  1.6974  0.6241  0.6633
  252MOL0     O33886   1.225  10.479   2.756  0.1733  0.2220 -0.1954
  252MOL0     C33887   1.237  10.421   2.866  0.5317 -0.3019 -0.0088
  252MOL0     O33888   1.152  10.433   2.959  0.1757 -0.4710 -0.3851
  252MOL0     C33889   1.046  10.520   2.939 -0.1233  0.0077  0.0196
  252MOL0     C33890   0.948  10.495   2.836  0.6326  0.2831  0.7821
  252MOL0     C33891   0.827  10.574   2.839 -0.1663 -0.0799  0.2125
  252MOL0     C33892   0.806  10.673   2.932 -0.1230  0.6673 -0.1350
  252MOL0     O33893   0.681  10.719   2.936 -0.6756  0.4925  0.0597
  252MOL0     C33894   0.625  10.780   3.051 -0.6466 -0.2411 -0.0032
  252MOL0     C33895   0.607  10.682   3.164 -0.4201  0.3616 -0.0119
  252MOL0     C33896   0.507  10.573   3.120 -0.3278  0.4323 -1.1446
  252MOL0     C33897   0.453  10.474   3.235  0.4838 -0.1045  0.2011
  252MOL0     C33898   0.417  10.533   3.367  1.0709  0.0886  0.0125
  252MOL0     C33899   0.273  10.593   3.351 -1.2493 -0.1516  0.3516
  252MOL0     C33900   0.239  10.693   3.463 -0.8518  0.6949  0.0092
  252MOL0     C33901   0.095  10.753   3.460  1.0850  0.0098 -0.4632
  252MOL0     N33902   0.050  10.814   3.585  0.3011 -0.1183 -0.0986
  252MOL0     C33903   0.096  10.788   3.708  0.1023 -0.5869  0.4505
  252MOL0     C33904   0.048  10.887   3.787 -0.4115  0.8595  0.0844
  252MOL0     C33905   0.064  10.879   3.930  0.0442  0.1193  0.4111
  252MOL0     C33906  -0.049  10.802   3.996  0.5809 -0.9280  0.6184
  252MOL0     C33907  -0.024  10.654   4.021 -0.3845 -0.0289  0.7323
  252MOL0     C33908  -0.129  10.611   4.119 -0.0703 -0.4172  0.5959
  252MOL0     O33909  -0.259  10.590   4.044  0.3738 -0.0903  0.2828
  252MOL0     C33910  -0.378  10.603   4.113  0.0376 -0.6656 -0.7231
  252MOL0     C33911  -0.402  10.612   4.252  0.2241 -0.4028  0.2385
  252MOL0     C33912  -0.533  10.624   4.301 -0.2346 -0.1287  0.1988
  252MOL0     C33913  -0.549  10.666   4.439  0.3569 -0.7534 -0.3517
  252MOL0     C33914  -0.642  10.607   4.217  0.4589 -0.3291  0.1377
  252MOL0     C33915  -0.778  10.626   4.257 -0.5870  0.0385  0.7045
  252MOL0     O33916  -0.811  10.592   4.385 -0.6567  0.2391  0.2250
  252MOL0     C33917  -0.933  10.634   4.443 -0.0500  0.8651  1.7493
  252MOL0     C33918  -1.065  10.657   4.385  0.0453 -0.2246  0.1519
  252MOL0     C33919  -1.173  10.712   4.460 -0.4135  0.1590 -0.6899
  252MOL0     C33920  -1.146  10.756   4.591 -0.9211 -0.2230 -0.8130
  252MOL0     O33921  -1.241  10.816   4.663  0.3264 -0.1923  0.2397
  252MOL0     C33922  -1.358  10.737   4.683  0.2335  0.0581 -0.2653
  252MOL0     C33923  -1.336  10.626   4.787  0.1292  0.4904 -0.3611
  252MOL0     C33924  -1.282  10.682   4.919 -0.1323  0.1050  0.9402
  252MOL0     C33925  -1.400  10.753   5.007 -0.5408 -0.2917 -0.4179
  252MOL0     C33926  -1.505  10.654   5.053  0.1073 -0.1095 -0.5287
  252MOL0     C33927  -1.621  10.728   5.128 -0.4238 -0.2199 -0.2616
  252MOL0     C33928  -1.608  10.742   5.282  0.6090 -0.3854  0.4360
  252MOL0     C33929  -1.650  10.620   5.348 -0.3030 -0.5532 -0.6323
  252MOL0    Cl33930  -1.628  10.622   5.523 -0.0951 -0.3718  0.3375
  252MOL0     C33931  -1.021  10.737   4.645 -0.8771 -0.1199 -0.5843
  252MOL0     C33932  -0.922  10.672   4.578 -0.4691  0.2965  0.1470
  252MOL0     O33933  -0.845  10.682   4.179  0.1135 -0.2201  0.0024
  252MOL0     C33934  -0.616  10.585   4.080  0.1571 -0.1108  0.2688
  252MOL0     C33935  -0.482  10.591   4.027 -1.1846  0.2496  0.5173
  252MOL0     N33936  -0.008  10.988   3.704 -0.2683 -0.0332  0.1287
  252MOL0     N33937  -0.005  10.937   3.585  0.9947  0.1738 -1.2342
  252MOL0     C33938   0.914  10.700   3.021  0.1651 -0.1997 -0.2273
  252MOL0     C33939   1.027  10.630   3.021  0.6724  0.0656 -0.2659
  252MOL0     C33940   1.312  10.297   2.876 -0.1357  0.0679  0.1384
  252MOL0     C33941   1.304  10.216   2.995 -0.7127 -0.7881 -0.1590
  252MOL0     C33942   1.384  10.109   3.010  0.3295  0.9279 -0.0940
  252MOL0     C33943   1.465  10.063   2.904 -0.3071  0.6914 -0.0413
  252MOL0     O33944   1.532   9.947   2.927 -0.7866 -0.3370  0.1843
  252MOL0     C33945   1.611   9.899   2.816 -0.4100  0.0347  0.0729
  252MOL0     C33946   1.661   9.767   2.860  0.2284  0.6270 -0.6122
  252MOL0     C33947   1.567   9.643   2.855  0.7698 -0.2472  0.2247
  252MOL0     C33948   1.648   9.519   2.900  0.2203 -0.1676 -0.1529
  252MOL0     C33949   1.567   9.401   2.896  0.4652  0.1206  0.9243
  252MOL0     C33950   1.500   9.303   2.891 -0.2659  0.4107 -0.9045
  252MOL0     C33951   1.470  10.140   2.790  0.2206  0.3609 -0.8613
  252MOL0     C33952   1.396  10.259   2.775  0.3725  0.7097  0.1498
  252MOL0     H33953   0.964  10.420   2.759 -0.1101  3.4393 -2.7274
  252MOL0     H33954   0.756  10.568   2.757 -0.3675  0.2741  0.3567
  252MOL0     H33955   0.688  10.864   3.081  1.7335 -1.2986 -1.7166
  252MOL0     H33956   0.525  10.818   3.030 -0.7559  0.0413  0.9605
  252MOL0     H33957   0.696  10.622   3.182 -0.9793 -0.6739 -0.5970
  252MOL0     H33958   0.583  10.740   3.253  0.3437  1.9027 -0.7575
  252MOL0     H33959   0.425  10.627   3.072 -0.3344  1.5575  0.0661
  252MOL0     H33960   0.567  10.518   3.048  0.8239  0.7663 -0.4643
  252MOL0     H33961   0.367  10.423   3.190  1.4673 -0.6381 -1.1612
  252MOL0     H33962   0.532  10.405   3.266 -1.4799 -1.6603  2.1140
  252MOL0     H33963   0.406  10.455   3.442 -0.2820  0.1616 -0.0914
  252MOL0     H33964   0.486  10.598   3.420  0.4621 -0.9434  2.1571
  252MOL0     H33965   0.272  10.656   3.262  1.6849  2.8636  2.2210
  252MOL0     H33966   0.194  10.517   3.352 -1.9819  0.5872  1.7047
  252MOL0     H33967   0.250  10.646   3.561  0.5176  0.4179 -0.2614
  252MOL0     H33968   0.294  10.788   3.461 -0.9954  0.7675 -1.7983
  252MOL0     H33969   0.018  10.676   3.450  0.0176  1.1017 -0.9294
  252MOL0     H33970   0.089  10.825   3.378  1.8636 -1.6271 -2.0106
  252MOL0     H33971   0.150  10.697   3.731 -0.6270 -1.9363 -2.6120
  252MOL0     H33972   0.166  10.840   3.939 -0.1194 -0.3452  0.2426
  252MOL0     H33973   0.061  10.979   3.974 -2.5685 -0.2671  1.3057
  252MOL0     H33974  -0.142  10.828   3.945  2.1180  2.0387 -0.9629
  252MOL0     H33975  -0.068  10.849   4.093 -1.0924 -1.4667  0.5760
  252MOL0     H33976   0.079  10.637   4.055 -1.2326 -3.7680  1.9207
  252MOL0     H33977  -0.037  10.603   3.925  0.4641  0.8158  0.1432
  252MOL0     H33978  -0.151  10.686   4.195 -0.3893 -0.2868  0.3786
  252MOL0     H33979  -0.102  10.524   4.180 -0.6835  0.4994  2.2387
  252MOL0     H33980  -0.321  10.625   4.324 -0.3140  1.2479  0.5964
  252MOL0     H33981  -0.587  10.591   4.508  1.8439 -0.3303  0.9903
  252MOL0     H33982  -0.455  10.704   4.480 -0.9727  1.3266  0.9639
  252MOL0     H33983  -0.613  10.754   4.425  1.3654 -0.4688 -4.6970
  252MOL0     H33984  -1.062  10.621   4.283  0.6603 -1.2362  0.5100
  252MOL0     H33985  -1.270  10.727   4.413 -0.5537  0.7387 -0.2334
  252MOL0     H33986  -1.438  10.800   4.723 -0.7269 -0.7421 -0.9104
  252MOL0     H33987  -1.395  10.692   4.591  0.2113  0.5909 -0.5213
  252MOL0     H33988  -1.424  10.563   4.807  1.0888 -0.0861  2.5258
  252MOL0     H33989  -1.264  10.557   4.742  0.1217  0.9578 -1.0925
  252MOL0     H33990  -1.210  10.760   4.891  1.1047 -1.4124 -0.2338
  252MOL0     H33991  -1.236  10.595   4.964  0.8373 -0.3800 -0.8811
  252MOL0     H33992  -1.352  10.792   5.096 -0.5379 -2.5685  0.6455
  252MOL0     H33993  -1.442  10.840   4.954 -0.2395 -0.1653 -0.4469
  252MOL0     H33994  -1.458  10.582   5.120 -0.6902  0.3958  0.6019
  252MOL0     H33995  -1.557  10.616   4.965 -4.1335  0.6735  1.3792
  252MOL0     H33996  -1.641  10.827   5.086  0.7828  0.4134  0.5856
  252MOL0     H33997  -1.705  10.661   5.110  1.5017 -2.7204 -0.5805
  252MOL0     H33998  -1.665  10.824   5.324 -0.4052 -3.0810  4.9591
  252MOL0     H33999  -1.503  10.751   5.314  1.2511 -2.5212 -0.8004
  252MOL0     H34000  -1.577  10.543   5.321  0.1178 -0.5043  0.3066
  252MOL0     H34001  -1.754  10.591   5.330 -1.0897  2.0813 -0.7652
  252MOL0     H34002  -0.993  10.774   4.743  0.1828 -0.5578 -0.7133
  252MOL0     H34003  -0.831  10.645   4.630 -2.9258 -0.5922  4.5083
  252MOL0     H34004  -0.690  10.575   4.001  0.7302  0.9945 -0.4318
  252MOL0     H34005  -0.456  10.565   3.925  0.1416 -0.8278  1.1002
  252MOL0     H34006   0.906  10.781   3.092  2.4409  1.1043 -1.3229
  252MOL0     H34007   1.098  10.642   3.102  0.0007  1.1394  0.1771
  252MOL0     H34008   1.239  10.242   3.078 -3.2364 -1.6015 -1.7973
  252MOL0     H34009   1.374  10.049   3.100  1.6387 -3.4906 -2.6043
  252MOL0     H34010   1.555   9.890   2.723 -0.9628  1.1186  0.2795
  252MOL0     H34011   1.702   9.959   2.801  1.7936 -3.0023  0.4667
  252MOL0     H34012   1.711   9.778   2.957 -0.3066  2.0131 -0.4866
  252MOL0     H34013   1.739   9.742   2.787  0.6316  0.0813 -0.0095
  252MOL0     H34014   1.527   9.636   2.753 -2.1032  0.2893  1.2410
  252MOL0     H34015   1.487   9.651   2.928  0.0948  1.2252 -0.6347
  252MOL0     H34016   1.665   9.530   3.008 -1.6533 -0.2359  0.2011
  252MOL0     H34017   1.733   9.503   2.835  0.4839  1.9271 -0.4065
  252MOL0     H34018   1.448   9.210   2.898  0.9150 -0.1353  2.0884
  252MOL0     H34019   1.524  10.105   2.702  0.3786 -0.8075 -0.3176
  252MOL0     H34020   1.408  10.332   2.697  4.2389  4.2816  3.6170
  253MOL0     O34021   0.919   1.674   5.405  0.1602  0.2654  0.1559
  253MOL0     C34022   0.925   1.632   5.287  0.5246 -0.4693 -0.1996
  253MOL0     O34023   0.822   1.604   5.207 -0.2267 -0.5603  0.0068
  253MOL0     C34024   0.694   1.570   5.252  0.4599  0.3507 -0.6503
  253MOL0     C34025   0.579   1.604   5.178  0.2134  0.2650 -0.4286
  253MOL0     C34026   0.451   1.570   5.228  0.7611  0.2421  0.0053
  253MOL0     C34027   0.443   1.499   5.348  0.5364  0.1415  0.1621
  253MOL0     O34028   0.326   1.452   5.406  0.0892  0.0206 -0.5566
  253MOL0     C34029   0.230   1.410   5.309  0.0863  0.1951 -0.5972
  253MOL0     C34030   0.110   1.508   5.323 -0.3056 -0.4219  0.6417
  253MOL0     C34031   0.049   1.502   5.463  0.1961  0.1970  0.2791
  253MOL0     C34032  -0.091   1.568   5.466 -0.2006 -0.0381  0.4803
  253MOL0     C34033  -0.154   1.583   5.612  0.1247 -0.0445 -0.5399
  253MOL0     C34034  -0.305   1.599   5.595 -0.3960 -0.1520  0.2590
  253MOL0     C34035  -0.378   1.593   5.733  0.3563 -0.0910  0.2420
  253MOL0     C34036  -0.392   1.729   5.800  0.4779 -0.6290 -0.0074
  253MOL0     N34037  -0.270   1.775   5.856  0.4090 -0.0647  0.2945
  253MOL0     C34038  -0.200   1.887   5.815  0.1942 -0.0127 -0.3389
  253MOL0     C34039  -0.127   1.923   5.923  0.3703  1.0240  0.3247
  253MOL0     C34040  -0.039   2.040   5.949  0.1904 -0.0898  0.4549
  253MOL0     C34041  -0.097   2.179   5.945  0.1707  0.0993 -0.3910
  253MOL0     C34042  -0.173   2.216   6.073 -0.1483  0.9024 -0.0361
  253MOL0     C34043  -0.316   2.166   6.077 -0.3645 -0.1851  0.2542
  253MOL0     O34044  -0.390   2.225   5.968 -0.5791 -0.0790  0.2746
  253MOL0     C34045  -0.521   2.194   5.956 -0.2528 -1.3479 -0.0669
  253MOL0     C34046  -0.588   2.100   6.036 -0.4357 -0.6933  0.0378
  253MOL0     C34047  -0.728   2.090   6.025 -0.2712 -0.5232 -0.5904
  253MOL0     C34048  -0.807   1.994   6.116 -0.3502  0.1202  0.0222
  253MOL0     C34049  -0.804   2.174   5.936  0.0707 -0.9502  0.1889
  253MOL0     C34050  -0.953   2.172   5.914  0.9198  0.1841 -0.1952
  253MOL0     O34051  -0.996   2.187   5.781  0.0256 -0.5997 -0.3027
  253MOL0     C34052  -1.133   2.196   5.760  0.5932 -0.7541  0.1928
  253MOL0     C34053  -1.221   2.090   5.724 -0.0559 -0.6476 -0.8484
  253MOL0     C34054  -1.357   2.113   5.701 -0.3262 -0.0048  0.4118
  253MOL0     C34055  -1.411   2.248   5.704 -0.0029  0.2229 -0.7056
  253MOL0     O34056  -1.544   2.277   5.677  0.0372  0.3180  0.5463
  253MOL0     C34057  -1.659   2.189   5.693 -0.3396 -0.4760 -0.0776
  253MOL0     C34058  -1.701   2.142   5.556  0.0434  0.6564 -0.2921
  253MOL0     C34059  -1.856   2.159   5.539  1.1450  0.5196 -0.4097
  253MOL0     C34060  -1.936   2.089   5.649  0.2829 -0.1336 -0.7022
  253MOL0     C34061  -2.087   2.101   5.634  0.4206  0.4962  0.1941
  253MOL0     C34062  -2.157   1.976   5.687 -0.0863  0.1181 -0.1654
  253MOL0     C34063  -2.309   1.992   5.680  0.8396  0.1609 -0.0978
  253MOL0     C34064  -2.373   1.855   5.715  0.5242  1.0286  0.1058
  253MOL0    Cl34065  -2.543   1.849   5.785 -0.2336 -0.2780 -0.1777
  253MOL0     C34066  -1.316   2.347   5.723  0.4607 -0.8920  0.7087
  253MOL0     C34067  -1.182   2.327   5.755  0.3055 -0.4193 -0.1047
  253MOL0     O34068  -1.029   2.144   6.001  0.5610  0.3129  0.0323
  253MOL0     C34069  -0.727   2.258   5.849  0.6098  0.2855 -0.0925
  253MOL0     C34070  -0.588   2.264   5.857  0.2624 -0.4441  0.1541
  253MOL0     N34071  -0.149   1.830   6.026  0.1938  0.1422 -0.6669
  253MOL0     N34072  -0.230   1.745   5.989 -0.2068 -0.0965  0.8138
  253MOL0     C34073   0.558   1.458   5.418 -0.3602  0.1633  0.3416
  253MOL0     C34074   0.680   1.493   5.370  0.4055  0.0679  0.1299
  253MOL0     C34075   1.060   1.623   5.229 -0.2879  0.6382 -0.5904
  253MOL0     C34076   1.175   1.664   5.297 -0.2558 -0.4219  0.6468
  253MOL0     C34077   1.296   1.638   5.238 -0.1246 -0.0171  0.4846
  253MOL0     C34078   1.308   1.549   5.132 -0.0581 -0.3453  0.3448
  253MOL0     O34079   1.433   1.503   5.081 -0.5243  0.6350 -0.3864
  253MOL0     C34080   1.558   1.560   5.134 -0.5137  0.4708 -0.8399
  253MOL0     C34081   1.676   1.528   5.037 -0.6027  0.0495 -0.8299
  253MOL0     C34082   1.811   1.600   5.078  0.2393 -1.0029 -0.2945
  253MOL0     C34083   1.914   1.614   4.967  0.6538  0.1670 -0.2349
  253MOL0     C34084   2.031   1.675   5.037 -0.3131  0.5829 -0.3387
  253MOL0     C34085   2.138   1.726   5.079  0.5425 -0.6256 -0.0466
  253MOL0     C34086   1.198   1.500   5.062 -0.4970 -0.3417  0.2408
  253MOL0     C34087   1.079   1.540   5.111 -0.0761  0.0917 -0.5653
  253MOL0     H34088   0.588   1.667   5.090 -0.9407 -0.3484 -1.0121
  253MOL0     H34089   0.356   1.603   5.185  0.5126  1.9827  1.7543
  253MOL0     H34090   0.272   1.405   5.208 -1.0622 -0.0186 -1.0789
  253MOL0     H34091   0.197   1.309   5.335  0.6965  0.2024  0.2507
  253MOL0     H34092   0.132   1.611   5.294 -1.1996  0.2366  2.1534
  253MOL0     H34093   0.034   1.466   5.257 -0.1533  1.0788 -0.5367
  253MOL0     H34094   0.037   1.396   5.489 -3.8528  0.9879  2.3980
  253MOL0     H34095   0.114   1.558   5.530  1.7440  2.3780 -2.8096
  253MOL0     H34096  -0.081   1.667   5.421 -2.5910 -1.3530 -3.3897
  253MOL0     H34097  -0.161   1.504   5.412  1.9162 -1.0253 -1.2530
  253MOL0     H34098  -0.136   1.490   5.666 -1.1637  0.2281  0.4120
  253MOL0     H34099  -0.124   1.665   5.679 -2.7237 -1.1073  2.2866
  253MOL0     H34100  -0.324   1.696   5.550 -2.4921 -1.1992 -1.2971
  253MOL0     H34101  -0.340   1.535   5.513  1.9432 -0.5779 -0.4759
  253MOL0     H34102  -0.476   1.548   5.710  1.4885 -1.2721 -2.7481
  253MOL0     H34103  -0.333   1.514   5.794 -0.1849 -0.8698 -0.3383
  253MOL0     H34104  -0.465   1.715   5.880 -0.1197 -1.3562 -0.6607
  253MOL0     H34105  -0.443   1.793   5.727 -0.7177 -1.7989 -0.2375
  253MOL0     H34106  -0.214   1.953   5.730  1.1644  1.3986  0.5482
  253MOL0     H34107   0.029   2.028   6.034  0.2882  3.3272  1.0019
  253MOL0     H34108   0.037   2.039   5.870 -0.3682  0.1780 -0.0919
  253MOL0     H34109  -0.154   2.194   5.853 -3.1025  1.7362  1.7012
  253MOL0     H34110  -0.021   2.257   5.937 -0.4069  0.6661 -0.4384
  253MOL0     H34111  -0.176   2.324   6.087 -0.9151  1.2588 -2.4683
  253MOL0     H34112  -0.124   2.171   6.160 -2.5352  2.8010  2.4470
  253MOL0     H34113  -0.358   2.189   6.176 -0.1641  0.3717  0.2146
  253MOL0     H34114  -0.320   2.057   6.074 -1.4694 -0.1527  0.0143
  253MOL0     H34115  -0.535   2.036   6.105 -2.9149 -0.4848  2.2870
  253MOL0     H34116  -0.878   1.938   6.056 -0.6377 -1.8329  2.0443
  253MOL0     H34117  -0.737   1.925   6.164 -3.5573 -2.6636  1.1206
  253MOL0     H34118  -0.857   2.048   6.198  0.5183 -0.0406  0.6670
  253MOL0     H34119  -1.181   1.989   5.732 -2.6065 -1.6713 -0.3149
  253MOL0     H34120  -1.402   2.019   5.672  3.8362 -1.8117 -1.1165
  253MOL0     H34121  -1.643   2.114   5.770 -0.0933  1.2331  1.6062
  253MOL0     H34122  -1.739   2.251   5.733 -1.1146 -0.0868 -2.0912
  253MOL0     H34123  -1.649   2.204   5.482  0.8846 -1.8337 -1.9287
  253MOL0     H34124  -1.667   2.040   5.541 -0.8009  0.5907 -1.9401
  253MOL0     H34125  -1.890   2.110   5.447 -0.7791  0.4303  0.2948
  253MOL0     H34126  -1.885   2.265   5.536  0.9104  0.4403 -1.1244
  253MOL0     H34127  -1.898   1.987   5.638 -0.5085 -0.3655 -1.3301
  253MOL0     H34128  -1.920   2.127   5.750 -2.0686  3.1019 -1.4078
  253MOL0     H34129  -2.107   2.115   5.527  0.6736 -0.5904 -0.0085
  253MOL0     H34130  -2.112   2.192   5.689 -0.3800  2.4856 -3.1325
  253MOL0     H34131  -2.133   1.888   5.625 -2.4638 -1.1357  0.5734
  253MOL0     H34132  -2.136   1.958   5.793  0.1692 -1.9342 -0.5224
  253MOL0     H34133  -2.351   2.022   5.583  0.0961  0.6557  0.3644
  253MOL0     H34134  -2.340   2.073   5.746 -0.3047 -0.1023 -0.2857
  253MOL0     H34135  -2.307   1.811   5.791 -0.6751 -2.0638 -0.5090
  253MOL0     H34136  -2.370   1.780   5.635  1.0999 -0.7592  1.7169
  253MOL0     H34137  -1.346   2.452   5.726  0.5668 -0.8793  1.9001
  253MOL0     H34138  -1.118   2.411   5.778 -1.2916  1.9180 -3.3730
  253MOL0     H34139  -0.784   2.315   5.776  0.9420 -2.1059 -2.3862
  253MOL0     H34140  -0.538   2.338   5.795 -0.8110  0.0487 -0.1323
  253MOL0     H34141   0.543   1.398   5.507  2.4820 -3.2913 -1.2950
  253MOL0     H34142   0.771   1.453   5.413  1.4915 -0.1079 -2.2262
  253MOL0     H34143   1.174   1.716   5.393  1.0211 -0.0139  0.4576
  253MOL0     H34144   1.383   1.664   5.298  0.3740  1.1559 -0.7178
  253MOL0     H34145   1.550   1.669   5.145 -3.9794  0.2509 -0.1392
  253MOL0     H34146   1.576   1.519   5.233 -1.1030 -1.2514 -1.4241
  253MOL0     H34147   1.649   1.554   4.934 -0.7779 -2.2619 -1.4296
  253MOL0     H34148   1.697   1.422   5.055  0.4141  0.2999 -0.4968
  253MOL0     H34149   1.846   1.541   5.163  0.1372  0.8749  1.1235
  253MOL0     H34150   1.788   1.698   5.122  0.5084  0.2146 -2.6884
  253MOL0     H34151   1.886   1.690   4.893  0.6072  1.3567  0.9658
  253MOL0     H34152   1.938   1.516   4.925  1.5154 -0.4421  1.5949
  253MOL0     H34153   2.234   1.767   5.103 -1.2181  2.9121  1.7337
  253MOL0     H34154   1.202   1.434   4.976  3.4338 -0.1631  0.1143
  253MOL0     H34155   0.987   1.507   5.064 -0.0509 -0.3323 -0.3292
  254MOL0     O34156   6.060   3.658   6.009  0.1990  0.2731  0.1987
  254MOL0     C34157   6.122   3.711   5.920  0.8204  0.5990  0.4884
  254MOL0     O34158   6.069   3.734   5.793 -0.6081 -0.1504 -0.3596
  254MOL0     C34159   5.936   3.709   5.772 -0.2797  0.4776 -0.6701
  254MOL0     C34160   5.899   3.590   5.713  0.0874  0.2035 -0.4716
  254MOL0     C34161   5.764   3.570   5.689 -0.8239  0.0977  0.3555
  254MOL0     C34162   5.668   3.658   5.724 -0.1379 -0.7583  1.2079
  254MOL0     O34163   5.534   3.625   5.692 -0.1655 -0.3076 -0.1380
  254MOL0     C34164   5.432   3.712   5.743  0.0591  0.2707 -0.2304
  254MOL0     C34165   5.289   3.663   5.698  0.2459  0.0573  0.2591
  254MOL0     C34166   5.191   3.715   5.796 -0.5839  0.2782  0.2752
  254MOL0     C34167   5.053   3.694   5.753  0.7666 -0.2545 -0.9369
  254MOL0     C34168   4.959   3.758   5.855 -0.0004  1.0102  0.3476
  254MOL0     C34169   4.809   3.741   5.825  1.2756 -0.7065  0.0060
  254MOL0     C34170   4.727   3.770   5.950  0.0480  0.5542 -0.0911
  254MOL0     C34171   4.583   3.725   5.947  0.1980 -0.5128  0.1276
  254MOL0     N34172   4.500   3.775   5.839 -0.9646 -0.2338  0.2308
  254MOL0     C34173   4.462   3.912   5.823 -0.6390 -0.6025 -0.6183
  254MOL0     C34174   4.405   3.921   5.703  0.0511 -0.1581 -0.6201
  254MOL0     C34175   4.355   4.051   5.649 -0.0589  0.5637 -0.0781
  254MOL0     C34176   4.200   4.078   5.655  0.8490 -0.0686  0.9036
  254MOL0     C34177   4.135   4.046   5.791  0.6733 -0.1491  0.5440
  254MOL0     C34178   3.992   4.096   5.790 -0.4907  0.9727  0.1436
  254MOL0     O34179   3.911   3.992   5.734  0.6531  0.0658  0.1767
  254MOL0     C34180   3.788   4.034   5.672 -1.0344 -0.1231 -0.3352
  254MOL0     C34181   3.735   3.954   5.575 -0.7794  0.2708  0.8190
  254MOL0     C34182   3.607   3.974   5.516 -0.4546 -0.3616  1.1348
  254MOL0     C34183   3.565   3.895   5.396  0.3094  0.1837  0.5833
  254MOL0     C34184   3.515   4.072   5.570  0.2575  0.7266 -0.4212
  254MOL0     C34185   3.371   4.078   5.537  0.1823 -0.2767  0.0189
  254MOL0     O34186   3.339   4.160   5.430  0.1390  0.1185 -0.2198
  254MOL0     C34187   3.217   4.158   5.383  0.4712 -0.5203 -0.7763
  254MOL0     C34188   3.179   4.059   5.305  1.2198  0.7899 -0.2284
  254MOL0     C34189   3.058   4.069   5.237  0.6341 -0.4149 -0.0517
  254MOL0     C34190   2.964   4.169   5.265 -0.3051 -0.3589 -0.7703
  254MOL0     O34191   2.835   4.162   5.208 -0.0890 -0.4503 -0.4829
  254MOL0     C34192   2.769   4.278   5.160  1.0655 -0.4024 -0.1055
  254MOL0     C34193   2.654   4.238   5.070 -0.2248 -0.2246  0.5521
  254MOL0     C34194   2.705   4.192   4.930  0.5222  0.0609 -0.3308
  254MOL0     C34195   2.738   4.304   4.835 -0.2111  1.6788  0.7028
  254MOL0     C34196   2.776   4.239   4.697  0.0404  0.4734  0.9504
  254MOL0     C34197   2.763   4.349   4.591  0.5929  0.8727 -0.2627
  254MOL0     C34198   2.792   4.304   4.454 -0.4815  0.2598 -0.5299
  254MOL0     C34199   2.747   4.394   4.349 -0.1051 -0.9586 -0.2280
  254MOL0    Cl34200   2.870   4.523   4.320  0.1154  0.0309  0.0648
  254MOL0     C34201   3.011   4.274   5.345 -0.0377  0.5079  0.2954
  254MOL0     C34202   3.141   4.276   5.404 -0.3746 -0.0309 -0.5270
  254MOL0     O34203   3.298   3.995   5.589 -0.2542 -0.0843 -0.1372
  254MOL0     C34204   3.568   4.142   5.679 -0.8121  0.5398 -0.5785
  254MOL0     C34205   3.699   4.126   5.725  0.1807  0.2548 -0.6374
  254MOL0     N34206   4.413   3.798   5.640 -0.0815 -0.7046  0.1628
  254MOL0     N34207   4.467   3.711   5.728  0.8169  0.0658 -0.0642
  254MOL0     C34208   5.709   3.772   5.785  0.1543  0.1472  0.0924
  254MOL0     C34209   5.840   3.801   5.809 -0.5775  0.1538 -0.0833
  254MOL0     C34210   6.257   3.745   5.954  0.1415 -0.1497 -0.0548
  254MOL0     C34211   6.326   3.820   5.867 -0.1802  0.6920 -0.2441
  254MOL0     C34212   6.462   3.852   5.881  0.9045 -0.1977  0.4098
  254MOL0     C34213   6.529   3.808   5.995  0.4219 -1.2610  0.5152
  254MOL0     O34214   6.656   3.857   6.012 -0.1194 -0.5022 -0.4431
  254MOL0     C34215   6.724   3.820   6.131  0.2341 -0.1865 -0.7684
  254MOL0     C34216   6.872   3.867   6.138 -0.1181 -0.5169 -0.0904
  254MOL0     C34217   6.901   4.016   6.125  0.0809 -0.2531 -0.1850
  254MOL0     C34218   7.053   4.039   6.133  0.1688  0.6423  0.0776
  254MOL0     C34219   7.127   3.978   6.014 -0.3498 -0.5518 -0.3899
  254MOL0     C34220   7.190   3.936   5.921  0.4847  0.4967 -0.6866
  254MOL0     C34221   6.463   3.735   6.089 -0.1080 -0.0844  0.4474
  254MOL0     C34222   6.326   3.702   6.073  0.3536 -0.0770  0.2475
  254MOL0     H34223   5.960   3.509   5.674 -1.7422 -0.8032 -1.4055
  254MOL0     H34224   5.729   3.485   5.632  0.4640  0.0179 -0.3549
  254MOL0     H34225   5.447   3.719   5.851 -0.4967  4.4420 -0.2572
  254MOL0     H34226   5.437   3.814   5.704 -2.2128 -0.9164 -4.2668
  254MOL0     H34227   5.272   3.706   5.599  0.3667 -0.7134 -0.1024
  254MOL0     H34228   5.273   3.555   5.696  0.8528 -0.0357 -1.6299
  254MOL0     H34229   5.213   3.667   5.891  1.6135  0.5957 -0.0106
  254MOL0     H34230   5.203   3.824   5.800 -0.3527  0.3286 -1.2258
  254MOL0     H34231   5.030   3.721   5.650 -2.6968  2.1107  0.2738
  254MOL0     H34232   5.029   3.587   5.759 -1.3507  0.2000 -0.4165
  254MOL0     H34233   4.971   3.710   5.952 -0.2715 -0.1827 -0.1916
  254MOL0     H34234   4.975   3.866   5.864 -0.3448  0.9176  2.5448
  254MOL0     H34235   4.764   3.796   5.742 -0.5739 -0.1694  1.2784
  254MOL0     H34236   4.794   3.636   5.802 -3.1273 -1.0600  3.2362
  254MOL0     H34237   4.773   3.712   6.030  1.3784 -0.4928 -1.5652
  254MOL0     H34238   4.737   3.876   5.977  3.3697 -0.0402  1.4266
  254MOL0     H34239   4.544   3.742   6.048  1.1715  0.0791  0.4245
  254MOL0     H34240   4.585   3.618   5.928 -0.3139 -0.5976  0.5547
  254MOL0     H34241   4.464   3.997   5.891 -2.1971 -0.6651 -0.4541
  254MOL0     H34242   4.405   4.123   5.715  0.4909 -1.6362  2.0841
  254MOL0     H34243   4.392   4.067   5.547  0.2006 -0.9225 -0.2304
  254MOL0     H34244   4.155   4.017   5.576  1.6690  0.8672 -0.3129
  254MOL0     H34245   4.189   4.183   5.625  0.7406 -0.7243 -1.5190
  254MOL0     H34246   4.190   4.101   5.867  0.8387  0.4908 -0.0334
  254MOL0     H34247   4.144   3.938   5.806  0.5201 -0.3158 -0.4872
  254MOL0     H34248   3.980   4.186   5.729  1.2420 -0.6827 -2.8498
  254MOL0     H34249   3.971   4.125   5.894 -3.0072  2.9058 -0.7914
  254MOL0     H34250   3.807   3.877   5.550 -0.7690  0.9640 -1.5902
  254MOL0     H34251   3.644   3.820   5.384  0.9100  0.2900  3.2073
  254MOL0     H34252   3.469   3.857   5.432  0.9153  0.0569  2.1241
  254MOL0     H34253   3.543   3.944   5.301 -0.6806 -0.4673  0.4674
  254MOL0     H34254   3.244   3.973   5.290  1.8840  0.2385  4.2763
  254MOL0     H34255   3.034   3.981   5.177 -1.0934  0.0583 -0.1304
  254MOL0     H34256   2.733   4.343   5.241  0.4787 -0.9286  0.0568
  254MOL0     H34257   2.839   4.339   5.101  0.2475  0.1581 -0.5186
  254MOL0     H34258   2.596   4.162   5.123 -0.8313 -1.4832 -1.7797
  254MOL0     H34259   2.591   4.327   5.056 -0.2574 -0.0931  1.4604
  254MOL0     H34260   2.619   4.129   4.902 -1.0021  1.4138  1.0626
  254MOL0     H34261   2.790   4.125   4.946  1.3244  0.1481 -3.5556
  254MOL0     H34262   2.659   4.378   4.818  1.1613  2.6435 -2.1253
  254MOL0     H34263   2.827   4.363   4.855 -0.7939  2.7463  0.2185
  254MOL0     H34264   2.704   4.160   4.675  1.0487 -0.6650  1.5651
  254MOL0     H34265   2.878   4.200   4.683 -0.5841 -0.9437  0.0566
  254MOL0     H34266   2.660   4.385   4.597  0.7544  1.1245  1.9575
  254MOL0     H34267   2.828   4.433   4.620 -2.2407  2.8604  0.7775
  254MOL0     H34268   2.734   4.215   4.430 -0.1604 -0.3002  0.7394
  254MOL0     H34269   2.897   4.277   4.442 -0.1469  1.2294  0.0633
  254MOL0     H34270   2.655   4.441   4.386 -1.2628 -2.8001 -0.6673
  254MOL0     H34271   2.711   4.352   4.255  0.3615  0.7445 -1.2261
  254MOL0     H34272   2.947   4.360   5.358  0.1728  1.0329 -1.8103
  254MOL0     H34273   3.175   4.355   5.470 -1.5182  1.2567 -1.4412
  254MOL0     H34274   3.514   4.219   5.732 -0.7661 -0.1563  0.5194
  254MOL0     H34275   3.725   4.181   5.815  1.2938  0.8057 -1.2679
  254MOL0     H34276   5.646   3.860   5.799  1.9028  1.8363 -1.8409
  254MOL0     H34277   5.866   3.903   5.838  0.0071  0.4991 -1.7368
  254MOL0     H34278   6.288   3.847   5.770 -0.4813  0.1041 -0.2916
  254MOL0     H34279   6.513   3.918   5.812  3.1528  0.9335  2.9754
  254MOL0     H34280   6.665   3.879   6.202 -0.7874 -1.4405 -0.5428
  254MOL0     H34281   6.720   3.713   6.153 -1.2771 -0.1213 -0.6866
  254MOL0     H34282   6.936   3.810   6.070 -0.9728 -1.3055 -0.2533
  254MOL0     H34283   6.914   3.852   6.238 -0.4769 -1.5772 -0.0850
  254MOL0     H34284   6.850   4.070   6.206 -0.1876 -1.0358  0.1726
  254MOL0     H34285   6.870   4.065   6.033 -0.3845  1.2108  0.7171
  254MOL0     H34286   7.091   3.996   6.226 -1.1004 -1.0955 -0.1537
  254MOL0     H34287   7.080   4.145   6.125  1.9806  0.2776  0.9088
  254MOL0     H34288   7.233   3.922   5.824  0.4842  1.6675 -0.8755
  254MOL0     H34289   6.519   3.698   6.175  0.2874 -0.7872 -0.1049
  254MOL0     H34290   6.285   3.636   6.149 -1.0536  0.5629  0.0708
  255MOL0     O34291   4.996   0.453   2.368 -0.4283 -0.1033 -0.3006
  255MOL0     C34292   5.100   0.486   2.319 -0.1670 -0.1879 -0.9696
  255MOL0     O34293   5.120   0.590   2.234 -0.2368  0.0484 -0.3754
  255MOL0     C34294   5.017   0.677   2.214 -0.3396  0.5231 -0.8353
  255MOL0     C34295   4.978   0.703   2.085 -0.2369  0.0059 -0.1668
  255MOL0     C34296   4.870   0.797   2.065  0.3432  0.6615 -0.3193
  255MOL0     C34297   4.807   0.860   2.172 -0.2305 -0.2854 -0.3515
  255MOL0     O34298   4.705   0.959   2.163 -0.3790  0.0226  0.2042
  255MOL0     C34299   4.640   0.963   2.034  0.5909 -0.3763  0.0964
  255MOL0     C34300   4.537   1.079   2.042  0.3014 -0.5748  0.4789
  255MOL0     C34301   4.402   1.056   2.098 -0.1796 -0.4157 -0.3742
  255MOL0     C34302   4.324   1.184   2.152 -0.0538 -0.4311 -0.5943
  255MOL0     C34303   4.194   1.140   2.210 -0.1090  0.6963 -0.7674
  255MOL0     C34304   4.119   1.268   2.276 -0.0893 -0.5648 -0.3234
  255MOL0     C34305   3.984   1.236   2.333  0.4151 -0.5163 -0.1437
  255MOL0     C34306   3.920   1.114   2.276 -0.0366  0.7441 -0.5160
  255MOL0     N34307   3.805   1.077   2.357 -0.3338  1.0038 -0.5253
  255MOL0     C34308   3.674   1.117   2.350  0.3103 -0.4494  0.5576
  255MOL0     C34309   3.608   1.057   2.446  0.3680 -0.1098  0.2905
  255MOL0     C34310   3.454   1.068   2.476  0.7414 -1.1591  0.3844
  255MOL0     C34311   3.386   0.929   2.445  0.5439 -0.3370 -0.0979
  255MOL0     C34312   3.233   0.944   2.441 -0.6459 -0.1855 -0.1225
  255MOL0     C34313   3.178   0.958   2.581  0.4047  0.6560 -0.9203
  255MOL0     O34314   3.052   1.017   2.567 -0.2049  0.1255  0.0150
  255MOL0     C34315   2.941   0.931   2.559 -0.8162 -0.5707 -0.5908
  255MOL0     C34316   2.939   0.793   2.533  0.0591 -0.1161 -0.0484
  255MOL0     C34317   2.819   0.720   2.556 -0.0906 -0.0633  0.6372
  255MOL0     C34318   2.811   0.568   2.532  0.9207  0.7280 -0.9002
  255MOL0     C34319   2.699   0.786   2.584 -0.2473  0.2717 -0.1213
  255MOL0     C34320   2.569   0.724   2.625  0.6706 -0.7211 -0.1619
  255MOL0     O34321   2.508   0.731   2.750 -0.8276 -0.3555  0.0733
  255MOL0     C34322   2.390   0.680   2.770 -0.9336 -0.4777  0.0931
  255MOL0     C34323   2.386   0.542   2.804  0.1816 -0.8036 -0.2774
  255MOL0     C34324   2.263   0.484   2.839 -0.0137  0.5337 -0.2545
  255MOL0     C34325   2.153   0.562   2.838  0.7708  0.0887  1.0651
  255MOL0     O34326   2.033   0.506   2.865 -0.0233 -0.0660  0.0218
  255MOL0     C34327   2.000   0.376   2.914 -0.3631  0.5724  0.4847
  255MOL0     C34328   1.850   0.348   2.898 -0.2000  0.1100  0.1995
  255MOL0     C34329   1.765   0.451   2.969 -0.3132 -0.1580 -0.3594
  255MOL0     C34330   1.617   0.413   2.985 -0.3286  0.5765  0.0166
  255MOL0     C34331   1.532   0.539   3.012 -0.0800 -0.4291  0.1662
  255MOL0     C34332   1.377   0.509   3.010 -0.7242 -0.4384 -0.7972
  255MOL0     C34333   1.301   0.636   3.041  0.1202 -0.6921  0.0777
  255MOL0     C34334   1.156   0.615   3.084 -0.4362 -0.2533 -0.1752
  255MOL0    Cl34335   1.104   0.746   3.191  0.0848  0.2045  0.0715
  255MOL0     C34336   2.160   0.698   2.802 -0.0554  0.2509 -0.3117
  255MOL0     C34337   2.275   0.759   2.762  0.4863  0.6056 -0.5328
  255MOL0     O34338   2.520   0.669   2.525 -0.3489 -0.2311 -0.4210
  255MOL0     C34339   2.706   0.923   2.592  0.3430 -0.3433  0.1828
  255MOL0     C34340   2.823   0.994   2.577  0.3707 -0.4770  0.5495
  255MOL0     N34341   3.697   0.979   2.523  0.0991 -0.8061  0.2111
  255MOL0     N34342   3.815   1.002   2.470  0.7326  0.0373 -0.7939
  255MOL0     C34343   4.851   0.829   2.296  0.0182  0.1525  0.2893
  255MOL0     C34344   4.962   0.746   2.318  0.1907  0.0618 -0.0262
  255MOL0     C34345   5.222   0.403   2.330  0.9529  0.0213 -0.0481
  255MOL0     C34346   5.350   0.452   2.292  0.0188  0.4141  0.6335
  255MOL0     C34347   5.460   0.369   2.306  0.0719 -0.3312  0.1337
  255MOL0     C34348   5.457   0.249   2.374 -0.4709  0.3503 -0.5398
  255MOL0     O34349   5.567   0.167   2.402 -0.2658  0.1227  0.2908
  255MOL0     C34350   5.672   0.225   2.479  0.8280  0.0374 -0.3664
  255MOL0     C34351   5.811   0.171   2.441 -0.4228  0.0253 -0.1300
  255MOL0     C34352   5.820   0.017   2.482  0.4566 -0.3725 -0.6000
  255MOL0     C34353   5.949  -0.055   2.440 -0.0918  0.3560  0.6501
  255MOL0     C34354   5.946  -0.193   2.486  0.0401  0.4583 -0.7803
  255MOL0     C34355   5.954  -0.310   2.523 -0.2874  0.5898  0.3691
  255MOL0     C34356   5.339   0.206   2.420  0.0761 -0.4998  0.2887
  255MOL0     C34357   5.218   0.276   2.392 -0.8432 -0.6732 -0.6621
  255MOL0     H34358   5.037   0.658   2.006 -0.3504 -1.3340  0.4899
  255MOL0     H34359   4.838   0.839   1.970  1.8152  0.3243 -0.9804
  255MOL0     H34360   4.712   0.992   1.957  3.1270 -1.5060  1.9064
  255MOL0     H34361   4.594   0.866   2.014  0.2835 -0.1639 -0.2375
  255MOL0     H34362   4.592   1.152   2.102 -0.1748  1.3231 -1.2636
  255MOL0     H34363   4.519   1.109   1.938  2.2162  2.1147  0.8145
  255MOL0     H34364   4.335   1.005   2.029  0.4437 -0.8961 -0.6299
  255MOL0     H34365   4.411   0.995   2.188  1.5599  0.8054  0.3385
  255MOL0     H34366   4.387   1.243   2.219 -0.7245 -0.6489  0.2427
  255MOL0     H34367   4.299   1.253   2.071 -1.4705  1.7040  1.5385
  255MOL0     H34368   4.141   1.086   2.131  0.7775 -0.7772 -0.4027
  255MOL0     H34369   4.220   1.078   2.297 -0.0636  1.4603 -0.2284
  255MOL0     H34370   4.187   1.312   2.349  3.3552 -5.1423 -0.3298
  255MOL0     H34371   4.115   1.339   2.192  3.1023  0.5548  0.2972
  255MOL0     H34372   3.995   1.214   2.440 -1.6242 -1.8259 -0.1485
  255MOL0     H34373   3.917   1.321   2.318 -1.6339 -2.4714 -3.3153
  255MOL0     H34374   3.977   1.021   2.274 -1.8444 -0.4315 -0.4581
  255MOL0     H34375   3.887   1.134   2.174 -1.7861 -0.0708 -0.1532
  255MOL0     H34376   3.640   1.194   2.281  0.9939 -0.4948  0.1564
  255MOL0     H34377   3.429   1.110   2.573  0.3017  2.6881 -1.2033
  255MOL0     H34378   3.405   1.145   2.415  2.6982 -0.7073 -0.7157
  255MOL0     H34379   3.407   0.854   2.523 -0.0324  0.5917  0.9803
  255MOL0     H34380   3.423   0.898   2.347 -1.2426  1.5180 -1.4295
  255MOL0     H34381   3.173   0.874   2.383 -0.0929 -0.4778 -0.3466
  255MOL0     H34382   3.214   1.036   2.383 -0.6711  0.1089  0.3465
  255MOL0     H34383   3.246   1.023   2.638  1.3081  0.4997 -1.8049
  255MOL0     H34384   3.193   0.856   2.617  2.5350  1.0990 -0.3586
  255MOL0     H34385   3.027   0.739   2.499 -0.4802  0.2994 -2.2806
  255MOL0     H34386   2.737   0.543   2.456 -0.3022 -1.1203  0.7919
  255MOL0     H34387   2.910   0.531   2.506  0.3903 -0.2893 -1.5167
  255MOL0     H34388   2.776   0.532   2.630  0.7102  1.4802 -0.6876
  255MOL0     H34389   2.476   0.483   2.804  2.0715  1.8608 -1.6577
  255MOL0     H34390   2.262   0.379   2.866  0.4439  0.0001 -2.2055
  255MOL0     H34391   2.058   0.301   2.860  0.4396  0.2317  1.7592
  255MOL0     H34392   2.027   0.363   3.020 -1.1704  1.0943  0.7697
  255MOL0     H34393   1.832   0.366   2.791 -0.6891  2.2005  0.5920
  255MOL0     H34394   1.824   0.249   2.937  1.1842  0.9910  3.7714
  255MOL0     H34395   1.774   0.547   2.916  1.1037  1.3316  2.3375
  255MOL0     H34396   1.800   0.464   3.072 -2.3776  0.3484  0.3395
  255MOL0     H34397   1.592   0.357   2.895 -1.1851  0.2948  0.4117
  255MOL0     H34398   1.602   0.341   3.066  1.7391 -0.3063 -0.3490
  255MOL0     H34399   1.541   0.617   2.936 -2.7838  1.0466  1.1867
  255MOL0     H34400   1.559   0.589   3.106 -0.4109 -1.3951  0.7906
  255MOL0     H34401   1.349   0.471   2.911 -1.1017  1.3005 -1.3968
  255MOL0     H34402   1.362   0.432   3.086 -1.3269  1.0511  0.6657
  255MOL0     H34403   1.303   0.701   2.954 -0.9993  0.5244  0.9205
  255MOL0     H34404   1.357   0.688   3.119 -1.5736  1.2829  0.0695
  255MOL0     H34405   1.162   0.519   3.135 -0.0948  0.8457  1.9803
  255MOL0     H34406   1.085   0.607   3.001 -0.7198 -1.0927  0.1465
  255MOL0     H34407   2.067   0.754   2.801 -0.8169 -0.9124 -2.2205
  255MOL0     H34408   2.275   0.865   2.737  1.4569  0.4970 -1.0208
  255MOL0     H34409   2.617   0.985   2.600  1.8299  1.8595  0.4858
  255MOL0     H34410   2.823   1.101   2.592 -0.1122 -0.4520  0.3725
  255MOL0     H34411   4.813   0.880   2.384 -3.3565 -1.5518 -0.0245
  255MOL0     H34412   4.996   0.731   2.421 -0.1910 -1.0102 -0.0383
  255MOL0     H34413   5.366   0.551   2.252 -1.6338  1.7638  3.0361
  255MOL0     H34414   5.560   0.408   2.286 -0.2934  2.2620  2.7689
  255MOL0     H34415   5.681   0.334   2.469 -0.2397  0.1159 -0.6015
  255MOL0     H34416   5.642   0.206   2.583  2.7152 -0.3322  0.1493
  255MOL0     H34417   5.890   0.238   2.476  1.0304 -0.3215 -2.4416
  255MOL0     H34418   5.830   0.179   2.333 -3.9543 -0.0462 -0.8687
  255MOL0     H34419   5.735  -0.034   2.436  1.1838 -0.1094 -2.3431
  255MOL0     H34420   5.818   0.019   2.591  0.0072 -2.8544 -0.5083
  255MOL0     H34421   6.034  -0.011   2.491 -0.2328  1.1528  0.2186
  255MOL0     H34422   5.963  -0.050   2.331 -0.8025  3.0895  0.5976
  255MOL0     H34423   5.931  -0.402   2.573 -2.5848  0.4111 -0.9179
  255MOL0     H34424   5.341   0.116   2.482  0.3749  0.3114  1.4839
  255MOL0     H34425   5.120   0.240   2.424 -1.5243  3.1297  2.3104
  256MOL0     O34426   5.081  10.517  10.337  0.1919  0.4638 -0.2246
  256MOL0     C34427   5.153  10.417  10.337 -0.9546  0.0744  0.3852
  256MOL0     O34428   5.116  10.290  10.374  0.0209  0.0804 -0.4571
  256MOL0     C34429   4.984  10.256  10.349 -0.2867 -0.1995  0.0243
  256MOL0     C34430   4.935  10.146  10.434 -0.7596 -0.9372 -0.3141
  256MOL0     C34431   4.806  10.091  10.414 -0.1698 -0.2232  0.4798
  256MOL0     C34432   4.719  10.129  10.316 -0.2294  0.8143 -0.2525
  256MOL0     O34433   4.603  10.056  10.307 -0.1415  0.4132  0.4194
  256MOL0     C34434   4.499  10.073  10.209 -0.5700 -0.1978 -0.3189
  256MOL0     C34435   4.411   9.948  10.197  0.2091  0.2751  0.5469
  256MOL0     C34436   4.295   9.960  10.298  1.1010 -0.0798  0.1140
  256MOL0     C34437   4.185   9.847  10.271 -0.0391 -0.3357  0.1306
  256MOL0     C34438   4.090   9.841  10.389  0.3959  0.5530 -0.7131
  256MOL0     C34439   3.995   9.727  10.361 -0.0648 -0.1446  0.3412
  256MOL0     C34440   3.897   9.716  10.476 -0.1625 -0.0530 -0.4443
  256MOL0     C34441   3.880   9.567  10.511  0.7071  0.0178 -0.0113
  256MOL0     N34442   3.750   9.565  10.590 -0.6918 -0.1413  0.1575
  256MOL0     C34443   3.738   9.535  10.725  0.6378  0.5128  0.6088
  256MOL0     C34444   3.605   9.525  10.751  0.5130 -0.3645 -0.3020
  256MOL0     C34445   3.547   9.475  10.877  0.9167 -0.2719  0.1698
  256MOL0     C34446   3.485   9.597  10.954 -0.3521 -0.0118  0.0164
  256MOL0     C34447   3.407   9.698  10.868  1.2361  0.1661 -0.4045
  256MOL0     C34448   3.277   9.630  10.811 -0.9860 -1.0297  1.0468
  256MOL0     O34449   3.201   9.554  10.903 -0.0010  0.3082  0.8526
  256MOL0     C34450   3.067   9.543  10.875 -0.2530 -0.3387 -1.3240
  256MOL0     C34451   3.016   9.418  10.869 -0.4851  1.2004  0.4280
  256MOL0     C34452   2.874   9.399  10.842  0.1155 -0.2282  0.7316
  256MOL0     C34453   2.814   9.260  10.860  0.3884 -0.0120 -0.1287
  256MOL0     C34454   2.789   9.515  10.836  0.5348  0.0497 -0.4676
  256MOL0     C34455   2.644   9.510  10.832 -0.2979 -1.3305  1.1622
  256MOL0     O34456   2.572   9.612  10.890  0.5190  0.2447 -0.4985
  256MOL0     C34457   2.438   9.595  10.895  1.4129 -0.9307 -1.3521
  256MOL0     C34458   2.352   9.686  10.847 -0.7099 -0.8188 -0.5889
  256MOL0     C34459   2.209   9.680  10.834 -0.6726  0.3946 -0.3284
  256MOL0     C34460   2.153   9.560  10.873 -0.0352  0.2129 -0.3331
  256MOL0     O34461   2.018   9.523  10.861 -0.1127  0.6650  0.7326
  256MOL0     C34462   1.939   9.604  10.776 -1.1676 -0.4025 -0.3593
  256MOL0     C34463   1.786   9.569  10.799  0.4130  0.5704 -0.1216
  256MOL0     C34464   1.751   9.426  10.741 -0.6835 -0.2330  0.1357
  256MOL0     C34465   1.591   9.392  10.759 -0.9546 -0.0768  1.1762
  256MOL0     C34466   1.568   9.238  10.746 -0.0773  0.2493 -0.9031
  256MOL0     C34467   1.421   9.200  10.779  0.3079  0.3032  0.4935
  256MOL0     C34468   1.384   9.221  10.919 -0.1030 -0.5476  0.1875
  256MOL0     C34469   1.241   9.192  10.949  0.2565 -0.1585  0.3128
  256MOL0    Cl34470   1.141   9.320  10.862 -0.4429  0.2746 -0.1076
  256MOL0     C34471   2.237   9.466  10.933  0.6471  0.2223 -0.5009
  256MOL0     C34472   2.373   9.485  10.961 -0.6558  0.1861  0.0444
  256MOL0     O34473   2.595   9.420  10.761  0.7428 -0.2934 -0.8382
  256MOL0     C34474   2.854   9.643  10.849  0.0132 -0.1095  0.3260
  256MOL0     C34475   2.988   9.650  10.874  0.3909  0.2722 -0.1786
  256MOL0     N34476   3.543   9.535  10.633 -1.0047 -0.1384 -0.8560
  256MOL0     N34477   3.626   9.572  10.536 -0.4170 -0.8756 -0.1953
  256MOL0     C34478   4.760  10.240  10.240  1.1036 -0.7356  0.7527
  256MOL0     C34479   4.889  10.304  10.258  1.0173 -0.0552 -0.8837
  256MOL0     C34480   5.303  10.426  10.308 -0.2886 -0.0064  0.2828
  256MOL0     C34481   5.358  10.322  10.232 -0.0763  0.6200 -0.4214
  256MOL0     C34482   5.499  10.325  10.194 -0.1260 -0.6920 -0.8601
  256MOL0     C34483   5.571  10.435  10.245  0.4071  0.7945  0.8735
  256MOL0     O34484   5.707  10.419  10.223  0.2234 -0.4182  0.1657
  256MOL0     C34485   5.806  10.479  10.316 -0.0772 -0.4525 -0.4447
  256MOL0     C34486   5.938  10.407  10.323 -0.1082  0.3352  0.0198
  256MOL0     C34487   5.921  10.259  10.370 -0.1992 -0.9957 -0.0569
  256MOL0     C34488   6.065  10.201  10.367  0.7686  0.6244 -0.2038
  256MOL0     C34489   6.077  10.073  10.452  0.3966  0.2691  1.1789
  256MOL0     C34490   6.082   9.994  10.542  0.1591 -0.9360 -0.0108
  256MOL0     C34491   5.515  10.544  10.298  1.4525 -0.6949 -0.5421
  256MOL0     C34492   5.378  10.540  10.335 -0.0969 -0.3749  0.3953
  256MOL0     H34493   5.002  10.112  10.512 -0.2678  2.2233  0.7778
  256MOL0     H34494   4.777  10.006  10.475 -2.3492  1.2566  1.6552
  256MOL0     H34495   4.444  10.161  10.243  2.2485  2.0279 -1.1428
  256MOL0     H34496   4.539  10.094  10.109  1.4835  0.2807  0.5594
  256MOL0     H34497   4.370   9.930  10.097  1.1250  0.5191  0.1228
  256MOL0     H34498   4.473   9.858  10.208  0.5839  0.2540 -1.3896
  256MOL0     H34499   4.326   9.953  10.403 -1.0791 -0.3621  0.7751
  256MOL0     H34500   4.247  10.054  10.269  1.7275 -0.7694 -3.8092
  256MOL0     H34501   4.131   9.862  10.177 -0.5056  0.2017  0.4769
  256MOL0     H34502   4.233   9.749  10.272  1.7582  0.5139 -0.0695
  256MOL0     H34503   4.144   9.825  10.482  1.8036  1.2103 -1.3740
  256MOL0     H34504   4.031   9.932  10.404  0.6459  0.3980  1.5038
  256MOL0     H34505   3.942   9.743  10.266  1.4203  0.3273 -0.4359
  256MOL0     H34506   4.068   9.647  10.374  0.2392  0.4036  2.3265
  256MOL0     H34507   3.932   9.770  10.565 -0.8381  0.9340 -0.7716
  256MOL0     H34508   3.801   9.752  10.438  0.9479 -0.4842 -4.0438
  256MOL0     H34509   3.968   9.527  10.560  0.3627  0.5430  1.0646
  256MOL0     H34510   3.860   9.516  10.416  1.1164  1.0353 -0.6543
  256MOL0     H34511   3.818   9.507  10.792  0.4666 -1.3718  0.0825
  256MOL0     H34512   3.463   9.410  10.853 -0.7846  2.1332 -0.7391
  256MOL0     H34513   3.632   9.435  10.933  2.9865  0.6386 -2.1152
  256MOL0     H34514   3.568   9.656  10.993 -0.1790 -0.6019  0.5657
  256MOL0     H34515   3.433   9.560  11.043  1.4062 -2.2347  0.2094
  256MOL0     H34516   3.463   9.741  10.784 -0.4095 -0.4574 -1.8827
  256MOL0     H34517   3.386   9.782  10.936 -0.5661 -0.1605 -0.4897
  256MOL0     H34518   3.309   9.567  10.727 -2.4981  0.9709 -1.1866
  256MOL0     H34519   3.221   9.710  10.762  1.5531 -0.5654 -1.3617
  256MOL0     H34520   3.078   9.330  10.889  1.0227  2.5804  2.1673
  256MOL0     H34521   2.727   9.249  10.795 -0.7278 -1.0088  1.4629
  256MOL0     H34522   2.896   9.195  10.829  1.0999  1.0592 -0.5350
  256MOL0     H34523   2.766   9.237  10.956 -2.7017  0.2138 -1.4843
  256MOL0     H34524   2.400   9.770  10.799 -0.3837 -0.7728 -0.1882
  256MOL0     H34525   2.165   9.765  10.784  1.9830  0.9547 -1.9239
  256MOL0     H34526   1.949   9.709  10.805 -1.2028 -0.1739 -1.1578
  256MOL0     H34527   1.971   9.588  10.673 -0.1891 -2.4992  0.2241
  256MOL0     H34528   1.761   9.575  10.906  0.7186  0.2767 -0.0321
  256MOL0     H34529   1.727   9.644  10.746  0.4061 -1.3678 -3.0584
  256MOL0     H34530   1.805   9.348  10.796  1.5927  2.2711  1.6875
  256MOL0     H34531   1.780   9.410  10.637 -1.8363  0.8260 -0.3653
  256MOL0     H34532   1.564   9.417  10.862  2.0829 -2.0251  2.6035
  256MOL0     H34533   1.538   9.448  10.682  2.8461  2.0683 -0.1771
  256MOL0     H34534   1.632   9.198  10.825 -0.3491  0.6467 -0.4769
  256MOL0     H34535   1.591   9.194  10.648  0.3429  1.1886 -1.2372
  256MOL0     H34536   1.353   9.264  10.722  1.8106  1.6940  0.1739
  256MOL0     H34537   1.414   9.092  10.759  4.4040 -0.2342  1.0444
  256MOL0     H34538   1.411   9.322  10.953  0.4898 -0.3430 -0.8563
  256MOL0     H34539   1.430   9.155  10.993  0.1246  3.0921  3.6385
  256MOL0     H34540   1.218   9.199  11.056 -1.4112 -2.0777  0.1432
  256MOL0     H34541   1.215   9.088  10.926 -0.8444  0.2015 -0.1261
  256MOL0     H34542   2.185   9.386  10.985 -1.3765  2.1493  0.6225
  256MOL0     H34543   2.442   9.421  11.015  0.9993  0.7869 -1.2690
  256MOL0     H34544   2.784   9.727  10.844 -2.3848 -1.8449  2.1072
  256MOL0     H34545   3.032   9.749  10.871 -1.1295  0.9629 -1.6801
  256MOL0     H34546   4.701  10.282  10.159 -1.7267 -2.9889  1.4771
  256MOL0     H34547   4.912  10.388  10.193  3.0859  0.8348  0.8709
  256MOL0     H34548   5.297  10.238  10.201  0.0369  0.5355 -0.4186
  256MOL0     H34549   5.548  10.245  10.140  0.4527 -0.6082 -0.4767
  256MOL0     H34550   5.824  10.584  10.293  1.5591 -0.5953  0.0191
  256MOL0     H34551   5.766  10.483  10.418  1.5244  1.0768  0.1838
  256MOL0     H34552   5.997  10.465  10.394  2.2523  0.7352 -2.1274
  256MOL0     H34553   5.985  10.409  10.224 -0.2722 -1.1499 -0.1113
  256MOL0     H34554   5.847  10.208  10.308 -0.6219 -0.2115 -0.2172
  256MOL0     H34555   5.892  10.261  10.476  1.1608  1.6034  0.3472
  256MOL0     H34556   6.139  10.274  10.400 -0.5875  1.2842  1.5364
  256MOL0     H34557   6.088  10.171  10.265 -1.9752  2.3146 -1.4331
  256MOL0     H34558   6.098   9.921  10.619  1.7193  0.5071  1.1139
  256MOL0     H34559   5.563  10.639  10.318  0.9381 -0.4388 -0.5198
  256MOL0     H34560   5.323  10.620  10.383 -1.3244 -1.0786  0.1961
  257MOL0     O34561   5.097   5.713   5.661 -0.0067 -0.7252  0.1624
  257MOL0     C34562   5.067   5.664   5.557 -0.1742  0.4243  0.7416
  257MOL0     O34563   4.943   5.620   5.523 -0.0242  0.3158 -1.0141
  257MOL0     C34564   4.841   5.660   5.608 -1.4260  0.1317 -0.2333
  257MOL0     C34565   4.821   5.784   5.671 -0.0512  0.1711 -0.5764
  257MOL0     C34566   4.718   5.813   5.752 -0.2327  0.1393  0.3300
  257MOL0     C34567   4.619   5.712   5.779 -0.4717  1.3882 -0.0988
  257MOL0     O34568   4.514   5.737   5.868 -0.4075  0.0898 -0.5043
  257MOL0     C34569   4.382   5.727   5.810  0.3431 -0.0677 -0.1813
  257MOL0     C34570   4.304   5.617   5.888  0.6602  0.4764 -0.5824
  257MOL0     C34571   4.154   5.607   5.844  0.2071 -0.5500 -0.4224
  257MOL0     C34572   4.069   5.579   5.969  0.4850  0.3640  0.7415
  257MOL0     C34573   3.922   5.620   5.964  0.1751 -0.1066 -0.9014
  257MOL0     C34574   3.842   5.547   6.074  0.3392 -0.0678 -0.4943
  257MOL0     C34575   3.692   5.548   6.061 -0.9849  0.3466 -0.0354
  257MOL0     C34576   3.606   5.495   6.182 -0.8876  0.1084  0.2519
  257MOL0     N34577   3.464   5.506   6.177  0.2577 -0.3346  0.4302
  257MOL0     C34578   3.376   5.495   6.279  0.4534  0.6725 -0.1948
  257MOL0     C34579   3.253   5.505   6.231 -0.4838  0.1964  0.0099
  257MOL0     C34580   3.121   5.501   6.311 -0.8015 -0.6013  0.4938
  257MOL0     C34581   3.105   5.642   6.381 -0.1053 -0.3200 -0.2192
  257MOL0     C34582   2.961   5.679   6.416 -0.6967 -0.2163  0.6315
  257MOL0     C34583   2.908   5.606   6.532  0.0691 -0.2870 -0.3209
  257MOL0     O34584   2.813   5.686   6.615 -0.4641  0.3537 -0.0170
  257MOL0     C34585   2.682   5.660   6.609  0.1643 -0.7807 -0.0678
  257MOL0     C34586   2.601   5.732   6.703  0.3335  0.0155  0.5803
  257MOL0     C34587   2.457   5.714   6.716  0.0279  0.0939  0.2419
  257MOL0     C34588   2.395   5.800   6.815  0.6301 -0.1979 -0.3095
  257MOL0     C34589   2.390   5.623   6.634 -0.1583  0.2309  0.6630
  257MOL0     C34590   2.246   5.598   6.628  0.4171  0.3441  0.5534
  257MOL0     O34591   2.204   5.527   6.516  0.7921  0.1120 -0.4286
  257MOL0     C34592   2.074   5.490   6.515  0.0917 -0.0443  0.1177
  257MOL0     C34593   1.963   5.585   6.525 -0.3875 -0.3922  0.2728
  257MOL0     C34594   1.828   5.545   6.501 -0.0421 -0.0644  0.2426
  257MOL0     C34595   1.806   5.413   6.464 -0.4911  0.2763  0.1550
  257MOL0     O34596   1.678   5.363   6.443  0.3341 -0.4164 -0.5883
  257MOL0     C34597   1.638   5.383   6.310 -0.5049  0.6562 -0.4000
  257MOL0     C34598   1.537   5.510   6.290  0.4349  1.5353  0.1195
  257MOL0     C34599   1.397   5.499   6.359 -0.1486 -0.0066  0.1694
  257MOL0     C34600   1.401   5.495   6.516  0.5834  0.1009  0.5699
  257MOL0     C34601   1.252   5.491   6.569 -0.3287 -0.1215 -0.8086
  257MOL0     C34602   1.184   5.359   6.543 -0.5375  0.2420 -0.7733
  257MOL0     C34603   1.056   5.363   6.634  0.7896  0.3715 -0.1381
  257MOL0     C34604   0.967   5.243   6.624  0.9231  0.4426  0.6420
  257MOL0    Cl34605   0.903   5.239   6.460 -0.5802  0.2615 -0.2511
  257MOL0     C34606   1.914   5.320   6.454 -0.0001 -0.0046  0.7726
  257MOL0     C34607   2.046   5.354   6.490 -1.1575  0.8512  0.2551
  257MOL0     O34608   2.172   5.639   6.717  0.1680  0.0818  0.3918
  257MOL0     C34609   2.469   5.572   6.524 -0.2298  0.3560 -0.3600
  257MOL0     C34610   2.612   5.587   6.516  0.1228  0.4467 -0.0259
  257MOL0     N34611   3.262   5.506   6.094  0.0663  0.2465 -0.2960
  257MOL0     N34612   3.386   5.518   6.064 -0.4218 -0.1747  0.0327
  257MOL0     C34613   4.647   5.579   5.730 -0.5080 -0.2231 -0.2547
  257MOL0     C34614   4.750   5.551   5.643  0.3390 -0.1913 -0.3096
  257MOL0     C34615   5.181   5.626   5.463  0.2201  0.0579 -0.7226
  257MOL0     C34616   5.306   5.676   5.484  0.4726  0.3014 -0.5681
  257MOL0     C34617   5.407   5.645   5.398 -0.1710  1.1441 -0.6263
  257MOL0     C34618   5.384   5.569   5.281 -0.5042  0.2862 -0.7026
  257MOL0     O34619   5.484   5.551   5.188 -0.2435  0.0848  0.2268
  257MOL0     C34620   5.619   5.589   5.210  0.1951  0.1247 -0.0368
  257MOL0     C34621   5.708   5.534   5.099 -0.4562 -0.1481 -0.6478
  257MOL0     C34622   5.684   5.568   4.952  0.4157 -0.4298  0.1788
  257MOL0     C34623   5.790   5.498   4.862  0.6021  0.2365  0.0474
  257MOL0     C34624   5.750   5.519   4.718 -0.3450  0.1486  0.2981
  257MOL0     C34625   5.728   5.522   4.597 -0.2673 -0.4775 -0.5150
  257MOL0     C34626   5.263   5.521   5.264 -0.2940 -0.0515 -0.3181
  257MOL0     C34627   5.165   5.539   5.354  0.4939  0.5564 -0.1049
  257MOL0     H34628   4.880   5.870   5.641 -2.7649  1.7139 -1.8773
  257MOL0     H34629   4.706   5.918   5.778 -0.7912 -0.1417  1.2393
  257MOL0     H34630   4.334   5.825   5.810  0.4536  0.0106  1.3342
  257MOL0     H34631   4.394   5.704   5.703  3.7713  0.9639 -0.1595
  257MOL0     H34632   4.350   5.520   5.867 -3.0777 -1.2039 -1.8343
  257MOL0     H34633   4.328   5.636   5.993  1.9996  1.1788 -0.9890
  257MOL0     H34634   4.124   5.703   5.800  4.5732  1.5419  0.5970
  257MOL0     H34635   4.133   5.531   5.768  1.1490 -0.6609 -0.5861
  257MOL0     H34636   4.076   5.473   5.995 -1.6321  0.5741  2.4262
  257MOL0     H34637   4.100   5.649   6.047 -1.9747  4.1608 -1.3578
  257MOL0     H34638   3.917   5.729   5.968  0.3240 -0.1079 -0.6642
  257MOL0     H34639   3.882   5.585   5.868  0.9980  1.0292 -1.6905
  257MOL0     H34640   3.864   5.440   6.072 -2.6546 -0.9261  2.8686
  257MOL0     H34641   3.881   5.585   6.168 -0.7361  0.7618 -0.3587
  257MOL0     H34642   3.660   5.651   6.041 -2.1461  0.3435  1.5699
  257MOL0     H34643   3.662   5.489   5.974 -0.9891  0.7190 -0.2874
  257MOL0     H34644   3.649   5.545   6.269  2.1985  2.0102 -2.1366
  257MOL0     H34645   3.626   5.389   6.194  0.5566  0.4290  0.8950
  257MOL0     H34646   3.398   5.475   6.383  1.7504 -0.4027 -0.6423
  257MOL0     H34647   3.042   5.475   6.241 -0.4591 -1.2352  0.3411
  257MOL0     H34648   3.128   5.425   6.389 -0.4304 -0.6980  0.3659
  257MOL0     H34649   3.156   5.715   6.318  1.6484 -1.1319  0.2070
  257MOL0     H34650   3.170   5.638   6.468  0.8446 -2.0714 -0.9733
  257MOL0     H34651   2.890   5.681   6.332 -0.7695 -0.2124  0.6920
  257MOL0     H34652   2.965   5.787   6.435 -1.0713  0.1968 -1.3816
  257MOL0     H34653   2.985   5.586   6.607  0.2663  3.9698  0.9105
  257MOL0     H34654   2.861   5.514   6.498  1.1831 -0.0912 -2.5296
  257MOL0     H34655   2.650   5.788   6.782 -0.8405 -0.7897  1.9270
  257MOL0     H34656   2.342   5.744   6.893  2.2792 -1.4361 -0.0164
  257MOL0     H34657   2.472   5.858   6.867  1.9634 -0.9959 -1.3147
  257MOL0     H34658   2.327   5.869   6.765  0.9652 -0.2556 -0.8587
  257MOL0     H34659   1.976   5.686   6.563  2.0038 -0.8360  0.7308
  257MOL0     H34660   1.743   5.612   6.511 -1.4812 -1.8595  0.5157
  257MOL0     H34661   1.725   5.380   6.245 -2.9369 -3.5967 -3.9920
  257MOL0     H34662   1.581   5.294   6.283  0.8636  0.1781 -1.8380
  257MOL0     H34663   1.590   5.597   6.328  2.5809  0.9086 -1.2737
  257MOL0     H34664   1.535   5.524   6.181 -0.0482  1.6492  0.1392
  257MOL0     H34665   1.359   5.401   6.332 -1.1994  0.8810 -1.8151
  257MOL0     H34666   1.333   5.579   6.319  1.5233  0.6284 -1.3975
  257MOL0     H34667   1.465   5.412   6.546  0.3822 -0.7645 -1.2663
  257MOL0     H34668   1.436   5.596   6.542  2.3339 -0.0833 -0.8704
  257MOL0     H34669   1.207   5.578   6.520 -1.3344 -0.6566 -0.8710
  257MOL0     H34670   1.269   5.491   6.676 -1.2423  0.2794 -0.6520
  257MOL0     H34671   1.164   5.352   6.436 -0.0913 -0.7323 -0.8035
  257MOL0     H34672   1.245   5.273   6.572  1.7761  1.1913 -2.5134
  257MOL0     H34673   0.998   5.452   6.607  1.7993  1.1083  0.0668
  257MOL0     H34674   1.084   5.372   6.739 -1.4321  2.3652  0.3813
  257MOL0     H34675   0.879   5.249   6.689 -0.0033 -2.2939 -0.2375
  257MOL0     H34676   1.019   5.150   6.647 -0.1334  0.2784  2.6017
  257MOL0     H34677   1.883   5.219   6.429 -0.4401 -0.6063  3.4010
  257MOL0     H34678   2.121   5.276   6.481 -1.3970  0.6090  0.3418
  257MOL0     H34679   2.421   5.510   6.448 -1.1530  0.5414  0.0583
  257MOL0     H34680   2.668   5.529   6.443  0.7191  0.1968  0.6292
  257MOL0     H34681   4.584   5.494   5.753 -1.0890  0.3426  0.3067
  257MOL0     H34682   4.768   5.456   5.595 -0.6787 -0.6036  0.1053
  257MOL0     H34683   5.330   5.746   5.563  0.4380 -0.1874 -0.1243
  257MOL0     H34684   5.506   5.686   5.418  0.4373  0.3985 -2.0383
  257MOL0     H34685   5.630   5.697   5.215  1.5151  0.1649 -2.4898
  257MOL0     H34686   5.657   5.537   5.299 -1.3221 -1.6753 -0.3718
  257MOL0     H34687   5.702   5.425   5.101 -0.3593 -0.1461  0.7834
  257MOL0     H34688   5.807   5.566   5.131 -0.7755 -0.7700  1.0584
  257MOL0     H34689   5.707   5.674   4.937  0.6243 -0.4436  0.4045
  257MOL0     H34690   5.578   5.554   4.928  0.2823  2.8921 -1.7149
  257MOL0     H34691   5.797   5.389   4.871 -0.2139 -0.0645 -2.2109
  257MOL0     H34692   5.889   5.531   4.896 -0.4206 -0.2307  3.8576
  257MOL0     H34693   5.719   5.515   4.491  3.2022  2.9799 -1.2168
  257MOL0     H34694   5.254   5.474   5.167  0.9860 -0.9182 -0.0453
  257MOL0     H34695   5.069   5.495   5.328  0.6239 -0.4146  0.9692
  258MOL0     O34696   0.958   6.211   6.419 -0.3992  0.2324  0.1781
  258MOL0     C34697   0.941   6.327   6.384  0.0400  0.0738 -0.1059
  258MOL0     O34698   0.818   6.384   6.369 -0.7642 -0.0711 -0.0462
  258MOL0     C34699   0.705   6.313   6.386  0.3213  0.4822 -0.5457
  258MOL0     C34700   0.598   6.336   6.293  0.2111  0.6167 -0.3406
  258MOL0     C34701   0.471   6.279   6.302  0.2071  0.7323  0.4404
  258MOL0     C34702   0.441   6.190   6.416  0.2079 -0.9202 -0.0600
  258MOL0     O34703   0.321   6.134   6.431  0.8806 -0.0473 -0.0885
  258MOL0     C34704   0.199   6.194   6.377  0.1700  0.0343  0.2254
  258MOL0     C34705   0.103   6.193   6.500 -0.3204 -0.4790 -0.3322
  258MOL0     C34706  -0.029   6.245   6.442 -0.5572 -0.0410  0.0975
  258MOL0     C34707  -0.150   6.235   6.553  0.7605  0.1043 -0.3733
  258MOL0     C34708  -0.118   6.336   6.666 -0.4715  0.3446  0.1581
  258MOL0     C34709  -0.233   6.341   6.773 -0.4504 -0.1363  0.1096
  258MOL0     C34710  -0.201   6.425   6.896 -0.0335  0.5922 -0.2047
  258MOL0     C34711  -0.220   6.570   6.867 -0.3393  0.4630 -0.4866
  258MOL0     N34712  -0.362   6.610   6.864 -0.4374 -0.0080 -0.0444
  258MOL0     C34713  -0.438   6.639   6.752  0.1514 -0.2685  0.1625
  258MOL0     C34714  -0.570   6.633   6.783  0.4889 -1.1843 -0.4196
  258MOL0     C34715  -0.700   6.654   6.696 -0.3088  0.5605 -0.1812
  258MOL0     C34716  -0.810   6.717   6.775 -1.0165 -0.9655  0.0932
  258MOL0     C34717  -0.902   6.617   6.842 -0.1497 -0.7157  0.2026
  258MOL0     C34718  -1.018   6.680   6.925  0.5271 -0.3443  0.7712
  258MOL0     O34719  -1.107   6.769   6.851  0.4786  0.4014 -0.3758
  258MOL0     C34720  -1.203   6.839   6.910  0.0506  0.4280 -0.0741
  258MOL0     C34721  -1.296   6.908   6.838 -0.6285  0.0996  0.0013
  258MOL0     C34722  -1.405   6.981   6.887  0.7279 -0.2489  0.6503
  258MOL0     C34723  -1.500   7.037   6.784  0.1486 -0.3703 -0.1526
  258MOL0     C34724  -1.414   6.996   7.024  0.1948  0.3604  0.6250
  258MOL0     C34725  -1.526   7.059   7.096 -0.1978 -0.0646 -0.4829
  258MOL0     O34726  -1.649   7.071   7.035  0.2713 -0.3376 -0.5020
  258MOL0     C34727  -1.737   7.158   7.099  0.5507 -0.7751  1.0853
  258MOL0     C34728  -1.823   7.103   7.194 -0.8022 -0.3012 -0.5589
  258MOL0     C34729  -1.918   7.187   7.251 -0.2230 -0.2362  0.0028
  258MOL0     C34730  -1.922   7.329   7.231  0.0832  0.3239  0.1628
  258MOL0     O34731  -1.997   7.415   7.305 -0.0860  0.7093  0.0249
  258MOL0     C34732  -2.127   7.376   7.353 -0.7773 -0.4000 -0.3299
  258MOL0     C34733  -2.231   7.483   7.307 -0.3626  0.3055  0.5345
  258MOL0     C34734  -2.354   7.485   7.397  0.2892 -0.9164 -0.0273
  258MOL0     C34735  -2.469   7.566   7.328 -0.0381  0.5011 -0.7239
  258MOL0     C34736  -2.605   7.566   7.414 -1.4839  0.3187  0.5043
  258MOL0     C34737  -2.693   7.684   7.357  0.5927 -0.2037  0.1278
  258MOL0     C34738  -2.810   7.722   7.449  0.1594 -0.3447 -0.4566
  258MOL0     C34739  -2.840   7.873   7.410  0.6899  0.8187 -0.0511
  258MOL0    Cl34740  -2.983   7.918   7.509  0.0948  0.5480 -0.6452
  258MOL0     C34741  -1.833   7.386   7.139  1.2703  0.0651  0.7912
  258MOL0     C34742  -1.742   7.303   7.081 -0.6785  1.4230  0.1476
  258MOL0     O34743  -1.504   7.117   7.200 -0.8899 -0.2816 -0.0536
  258MOL0     C34744  -1.316   6.931   7.102  0.5623  0.1345  0.6975
  258MOL0     C34745  -1.225   6.840   7.049  0.1962 -0.3419 -0.2849
  258MOL0     N34746  -0.570   6.608   6.912 -0.3809  0.1614 -0.6115
  258MOL0     N34747  -0.450   6.599   6.964 -0.4175  0.0848 -0.8131
  258MOL0     C34748   0.540   6.172   6.508 -0.0484  0.4157 -0.0487
  258MOL0     C34749   0.666   6.233   6.494  0.3107  0.2827  0.5459
  258MOL0     C34750   1.057   6.418   6.367 -0.4175  0.4952  0.8738
  258MOL0     C34751   1.038   6.560   6.356 -0.8419 -0.5936 -0.1320
  258MOL0     C34752   1.149   6.653   6.349 -0.0327  0.0111 -1.1916
  258MOL0     C34753   1.281   6.607   6.346  0.4966 -0.1250  0.4235
  258MOL0     O34754   1.384   6.687   6.323  0.1328 -0.4056  0.1599
  258MOL0     C34755   1.351   6.805   6.252 -0.3073 -0.2768 -1.0097
  258MOL0     C34756   1.481   6.870   6.204  0.5681 -0.7084  0.3318
  258MOL0     C34757   1.500   6.856   6.050  0.7141 -0.8844  0.5928
  258MOL0     C34758   1.631   6.923   6.002  0.2839  0.2583 -0.3776
  258MOL0     C34759   1.755   6.857   6.052  0.6407  0.0366  0.5790
  258MOL0     C34760   1.844   6.783   6.088  0.3211  0.5040  0.3712
  258MOL0     C34761   1.303   6.468   6.348  1.1780  0.0610  0.2406
  258MOL0     C34762   1.192   6.373   6.365  0.0984 -0.3888  0.0624
  258MOL0     H34763   0.620   6.421   6.230 -0.6042  1.8007  0.9059
  258MOL0     H34764   0.391   6.304   6.233 -0.4364  1.7403  1.5086
  258MOL0     H34765   0.202   6.295   6.335 -2.3167 -0.5895 -1.6688
  258MOL0     H34766   0.155   6.129   6.301  2.7778 -0.8877 -0.5850
  258MOL0     H34767   0.091   6.088   6.530 -2.7270 -0.4203 -0.8410
  258MOL0     H34768   0.143   6.261   6.575 -1.1577  0.7012 -0.9139
  258MOL0     H34769  -0.031   6.345   6.399  0.0301 -1.5405 -3.8072
  258MOL0     H34770  -0.058   6.195   6.349  0.9790 -0.6913 -0.0538
  258MOL0     H34771  -0.247   6.263   6.511  1.0447 -1.2059 -1.9879
  258MOL0     H34772  -0.176   6.143   6.605 -0.6014  1.5240  1.6271
  258MOL0     H34773  -0.029   6.307   6.723  1.3368  2.3006 -1.5305
  258MOL0     H34774  -0.096   6.433   6.622  1.1545 -0.1110 -0.0820
  258MOL0     H34775  -0.324   6.383   6.729  0.3048 -1.1125 -2.6030
  258MOL0     H34776  -0.248   6.238   6.805 -0.9478 -1.1322 -2.9404
  258MOL0     H34777  -0.269   6.402   6.978 -0.7159 -0.3507 -1.0244
  258MOL0     H34778  -0.098   6.402   6.926 -0.2949 -0.6473 -0.2390
  258MOL0     H34779  -0.170   6.605   6.776 -1.4448  2.0059 -0.5522
  258MOL0     H34780  -0.182   6.634   6.947 -4.1982  2.9930 -0.4162
  258MOL0     H34781  -0.404   6.658   6.650  1.7282  3.4150  1.2064
  258MOL0     H34782  -0.683   6.714   6.606  0.3777 -1.3286 -1.3607
  258MOL0     H34783  -0.731   6.553   6.668  1.5694 -0.3255  0.7706
  258MOL0     H34784  -0.869   6.790   6.718 -1.4606  0.4533  2.2554
  258MOL0     H34785  -0.774   6.789   6.848 -1.9720  0.7690 -1.0427
  258MOL0     H34786  -0.847   6.551   6.910  3.1367 -2.4967 -3.7810
  258MOL0     H34787  -0.945   6.555   6.763  0.7374  0.4643 -1.2591
  258MOL0     H34788  -0.977   6.732   7.012  0.2901  2.5279 -0.7058
  258MOL0     H34789  -1.072   6.589   6.954 -1.1873  1.0367  2.1938
  258MOL0     H34790  -1.275   6.905   6.732  3.0177 -1.3249  0.6284
  258MOL0     H34791  -1.443   7.074   6.699  0.4757 -0.3790  0.0619
  258MOL0     H34792  -1.581   6.966   6.764 -1.5964  1.2101  0.9424
  258MOL0     H34793  -1.549   7.128   6.818  1.2211  0.6797 -1.3220
  258MOL0     H34794  -1.808   6.997   7.207  0.2251 -0.3464 -1.8371
  258MOL0     H34795  -1.991   7.144   7.318 -2.9620  1.6040 -1.6198
  258MOL0     H34796  -2.155   7.277   7.316 -1.5905 -0.4923  0.4948
  258MOL0     H34797  -2.132   7.378   7.462 -1.2272  0.9546 -0.3561
  258MOL0     H34798  -2.180   7.580   7.298  0.7268 -0.0883  1.9547
  258MOL0     H34799  -2.255   7.472   7.201 -2.1948  1.1623  0.8298
  258MOL0     H34800  -2.336   7.532   7.495  0.3274 -2.8461  0.9511
  258MOL0     H34801  -2.385   7.380   7.407 -0.4408 -0.8558 -1.4940
  258MOL0     H34802  -2.430   7.668   7.330 -0.5026  0.7187  2.4588
  258MOL0     H34803  -2.486   7.536   7.224 -0.6827  1.4974 -0.9250
  258MOL0     H34804  -2.587   7.588   7.520 -0.7079 -3.3866  1.2712
  258MOL0     H34805  -2.648   7.466   7.409 -1.1987  0.2116  0.2070
  258MOL0     H34806  -2.629   7.772   7.346 -0.6119  0.7713  0.6314
  258MOL0     H34807  -2.736   7.665   7.258 -1.7724  2.5492  0.4947
  258MOL0     H34808  -2.776   7.710   7.553  1.4630  0.7104 -0.7482
  258MOL0     H34809  -2.892   7.649   7.441  0.0156 -0.2791  0.3189
  258MOL0     H34810  -2.858   7.884   7.302  1.2806  1.6450 -0.0771
  258MOL0     H34811  -2.756   7.939   7.437  0.2956  1.9987 -1.5583
  258MOL0     H34812  -1.827   7.494   7.127  2.4753  0.0627  1.2347
  258MOL0     H34813  -1.658   7.336   7.021  1.5893  2.1869  3.4983
  258MOL0     H34814  -1.326   6.945   7.209 -0.6968 -1.3534  0.8169
  258MOL0     H34815  -1.165   6.770   7.106  1.8005  0.1944 -1.2384
  258MOL0     H34816   0.524   6.115   6.600 -1.1859  0.7988 -0.0018
  258MOL0     H34817   0.735   6.217   6.576  0.7016 -2.0412 -0.1613
  258MOL0     H34818   0.943   6.612   6.352 -0.2563  1.0384  3.2238
  258MOL0     H34819   1.124   6.758   6.354 -1.5885 -0.3992  0.8217
  258MOL0     H34820   1.292   6.786   6.162 -0.3862  0.0353 -1.0249
  258MOL0     H34821   1.309   6.880   6.319 -0.0243  0.5836 -1.7652
  258MOL0     H34822   1.562   6.823   6.261  0.4881 -2.0780 -0.6314
  258MOL0     H34823   1.488   6.976   6.229  0.5678 -0.4839 -0.5878
  258MOL0     H34824   1.414   6.898   5.998  0.2771 -3.1818 -0.6956
  258MOL0     H34825   1.507   6.750   6.023  4.3093 -0.1140 -2.3176
  258MOL0     H34826   1.635   7.023   6.046  3.8309 -0.0940  0.3376
  258MOL0     H34827   1.631   6.933   5.893  1.1686  0.4925 -0.3601
  258MOL0     H34828   1.916   6.710   6.116 -0.1532 -0.1400 -0.0631
  258MOL0     H34829   1.407   6.438   6.344  1.1186 -0.3682  1.3962
  258MOL0     H34830   1.221   6.270   6.383 -1.7162 -1.5138 -2.7840
  259MOL0     O34831   3.207   3.299   5.618 -0.0152  0.1296 -0.0282
  259MOL0     C34832   3.261   3.403   5.578  0.6277  0.2997  0.1641
  259MOL0     O34833   3.209   3.484   5.481  0.5883  0.2732  0.2557
  259MOL0     C34834   3.077   3.461   5.455  0.0574 -0.8986  0.7374
  259MOL0     C34835   3.032   3.360   5.360  0.2366 -0.0877 -0.1813
  259MOL0     C34836   2.894   3.382   5.329  0.2640 -0.3743 -0.2234
  259MOL0     C34837   2.803   3.473   5.395 -0.2721 -0.6848  0.3044
  259MOL0     O34838   2.666   3.464   5.368 -0.1169 -0.1944 -0.3492
  259MOL0     C34839   2.629   3.488   5.232 -0.9209  0.1588 -0.8732
  259MOL0     C34840   2.500   3.563   5.222 -0.5918 -0.4105 -0.2077
  259MOL0     C34841   2.416   3.536   5.101 -0.6215 -0.2743  0.1230
  259MOL0     C34842   2.272   3.583   5.108 -0.0643 -0.1276  0.3318
  259MOL0     C34843   2.206   3.578   4.974 -0.5395  0.2303 -0.6990
  259MOL0     C34844   2.054   3.618   4.989  0.3290 -0.0006 -0.0686
  259MOL0     C34845   1.986   3.600   4.856 -1.2398 -0.9187 -0.1649
  259MOL0     C34846   1.845   3.648   4.858 -0.0585  0.5034  0.3227
  259MOL0     N34847   1.774   3.620   4.730  0.3263 -0.5601 -0.0731
  259MOL0     C34848   1.724   3.503   4.686 -0.2280 -0.5900 -0.5032
  259MOL0     C34849   1.656   3.535   4.570  0.3191 -0.4274 -0.6719
  259MOL0     C34850   1.576   3.443   4.484 -0.5368  0.9634  0.0922
  259MOL0     C34851   1.617   3.424   4.342 -0.4478  0.0103  0.2890
  259MOL0     C34852   1.627   3.555   4.248  0.5050 -1.4158  0.2573
  259MOL0     C34853   1.497   3.636   4.247 -0.2160  0.0937  0.4058
  259MOL0     O34854   1.530   3.757   4.182 -0.3867  0.3785 -0.0263
  259MOL0     C34855   1.429   3.842   4.145  0.0616  0.9741 -0.0304
  259MOL0     C34856   1.452   3.927   4.037 -1.0470 -0.2035 -0.2468
  259MOL0     C34857   1.353   4.012   3.985  1.1417 -0.5624 -0.7694
  259MOL0     C34858   1.391   4.085   3.864  0.2647  0.3164 -0.0537
  259MOL0     C34859   1.231   4.025   4.053 -0.9254 -0.1426 -0.5210
  259MOL0     C34860   1.122   4.124   4.026 -0.5255  0.1795  0.5314
  259MOL0     O34861   0.996   4.100   4.089  0.0742  0.2127  0.0423
  259MOL0     C34862   0.908   4.210   4.098  0.0521  0.0961  0.1137
  259MOL0     C34863   0.773   4.197   4.066  0.0023  0.1656  1.2030
  259MOL0     C34864   0.679   4.297   4.081  0.3496 -0.2612 -0.3901
  259MOL0     C34865   0.719   4.422   4.130 -0.0489 -0.7256 -0.4256
  259MOL0     O34866   0.629   4.524   4.136 -0.2216  0.6710  0.7633
  259MOL0     C34867   0.536   4.528   4.027 -0.8458 -0.1025 -0.2940
  259MOL0     C34868   0.549   4.658   3.954  0.0628  0.5485  1.3905
  259MOL0     C34869   0.489   4.778   4.027 -0.6119 -0.2420 -0.6969
  259MOL0     C34870   0.334   4.800   4.003  1.0320  0.2753 -0.1727
  259MOL0     C34871   0.294   4.869   3.881 -1.1344  0.3195 -0.0106
  259MOL0     C34872   0.342   5.007   3.881  0.5453  0.4667 -0.1226
  259MOL0     C34873   0.305   5.064   3.747 -0.1408 -0.4593 -0.4077
  259MOL0     C34874   0.371   5.199   3.738  0.4767 -0.1035 -0.1885
  259MOL0    Cl34875   0.284   5.327   3.829  0.1529  0.1674  0.3159
  259MOL0     C34876   0.853   4.441   4.172 -0.1950 -0.4082 -0.0556
  259MOL0     C34877   0.943   4.336   4.151 -0.0407 -0.2805 -0.1140
  259MOL0     O34878   1.145   4.223   3.952 -0.1301 -0.2424 -0.8821
  259MOL0     C34879   1.211   3.939   4.163 -0.3082  0.4690 -0.2897
  259MOL0     C34880   1.302   3.847   4.213  0.5327 -0.7241  0.5265
  259MOL0     N34881   1.665   3.671   4.552 -0.1254 -1.2822 -0.1602
  259MOL0     N34882   1.740   3.719   4.643 -0.1345 -0.0632  0.1012
  259MOL0     C34883   2.855   3.558   5.491 -0.0834 -0.0087 -0.3689
  259MOL0     C34884   2.992   3.555   5.518 -0.3539  0.0911  0.6188
  259MOL0     C34885   3.393   3.445   5.632  0.3933  0.2880 -0.9887
  259MOL0     C34886   3.456   3.561   5.594  0.1298 -0.2854 -0.1253
  259MOL0     C34887   3.563   3.610   5.648 -0.5201 -0.5981 -0.6914
  259MOL0     C34888   3.632   3.542   5.747 -1.2763 -0.0766 -1.0951
  259MOL0     O34889   3.758   3.595   5.777  0.4337 -0.2128 -0.5232
  259MOL0     C34890   3.869   3.506   5.788 -0.2560 -0.4343  0.5628
  259MOL0     C34891   3.934   3.511   5.649 -0.4148  0.0076  0.5923
  259MOL0     C34892   4.011   3.632   5.608  0.0241 -0.2043 -0.4299
  259MOL0     C34893   4.028   3.619   5.455  1.2173  0.9036  0.2518
  259MOL0     C34894   4.097   3.732   5.390 -0.5974  0.4188 -0.2874
  259MOL0     C34895   4.163   3.826   5.359  0.4405 -0.2097  0.0173
  259MOL0     C34896   3.576   3.413   5.781 -0.0762  0.0594  0.4754
  259MOL0     C34897   3.457   3.367   5.727  0.2952  0.5436  0.2429
  259MOL0     H34898   3.099   3.282   5.326  0.8819 -0.4540  1.7685
  259MOL0     H34899   2.851   3.325   5.247  1.8355  0.5736 -1.7683
  259MOL0     H34900   2.712   3.537   5.182  1.7526 -2.8804  0.2762
  259MOL0     H34901   2.611   3.389   5.189  1.5074 -1.2345  1.0893
  259MOL0     H34902   2.440   3.541   5.311  0.1008  0.7567  0.5671
  259MOL0     H34903   2.526   3.668   5.231 -0.3369 -0.0977 -3.4142
  259MOL0     H34904   2.462   3.595   5.021 -0.5133  0.2694  0.5793
  259MOL0     H34905   2.417   3.430   5.076 -0.4736  0.0250 -1.2606
  259MOL0     H34906   2.213   3.527   5.181 -2.1897  1.6764  0.0996
  259MOL0     H34907   2.255   3.686   5.141  1.1929 -0.1738  1.2235
  259MOL0     H34908   2.251   3.648   4.903  0.8155  0.9428  0.8029
  259MOL0     H34909   2.227   3.475   4.943  0.3340  0.4347 -0.8253
  259MOL0     H34910   2.006   3.546   5.055  1.1372 -0.0012  0.5427
  259MOL0     H34911   2.030   3.715   5.035 -1.7894 -0.0869 -0.8898
  259MOL0     H34912   2.026   3.660   4.773 -2.0493  1.6995  1.2208
  259MOL0     H34913   2.005   3.498   4.824  2.5196 -0.3377 -0.2839
  259MOL0     H34914   1.837   3.756   4.874 -1.4843  0.3663  0.6464
  259MOL0     H34915   1.789   3.599   4.938 -0.6029 -0.7235 -0.7798
  259MOL0     H34916   1.739   3.410   4.741 -1.7323  0.3150  1.5653
  259MOL0     H34917   1.582   3.341   4.522  2.1327  1.0047 -0.0809
  259MOL0     H34918   1.471   3.473   4.492 -1.1876 -0.7483 -1.4466
  259MOL0     H34919   1.552   3.352   4.291  1.9922 -1.8486 -0.4113
  259MOL0     H34920   1.715   3.375   4.333 -0.3184  0.2995  0.1165
  259MOL0     H34921   1.647   3.523   4.146 -1.2573  0.2449 -0.6859
  259MOL0     H34922   1.708   3.620   4.282 -0.8936 -0.4384  1.9010
  259MOL0     H34923   1.479   3.660   4.353  0.1351 -1.8155  0.9401
  259MOL0     H34924   1.414   3.585   4.198 -2.3735  2.6957  1.1266
  259MOL0     H34925   1.546   3.925   3.983 -1.0658 -0.8236 -0.2713
  259MOL0     H34926   1.449   4.174   3.889  0.3143  0.4302 -0.5701
  259MOL0     H34927   1.457   4.018   3.808  1.0943  1.0697  0.0001
  259MOL0     H34928   1.302   4.107   3.804  0.7402  0.0217 -0.8817
  259MOL0     H34929   0.738   4.105   4.019  0.2556  0.7039 -0.0902
  259MOL0     H34930   0.576   4.278   4.050  0.1208 -0.3951  0.4441
  259MOL0     H34931   0.545   4.453   3.948 -0.2079  0.1238 -0.4426
  259MOL0     H34932   0.432   4.515   4.058 -1.0040 -1.3238 -1.2807
  259MOL0     H34933   0.655   4.674   3.932 -0.5760  2.7571 -0.3966
  259MOL0     H34934   0.503   4.640   3.857  0.8895 -1.2428  1.2887
  259MOL0     H34935   0.543   4.870   4.001 -2.4037  0.5396 -1.7872
  259MOL0     H34936   0.515   4.762   4.132  3.2596  2.1764 -1.0882
  259MOL0     H34937   0.284   4.703   4.012  1.1271  0.2783  0.4680
  259MOL0     H34938   0.289   4.849   4.090 -2.5021  0.4381 -1.9333
  259MOL0     H34939   0.186   4.862   3.868 -1.5227  2.1725  1.6954
  259MOL0     H34940   0.342   4.816   3.799 -1.5256  1.6579 -1.1373
  259MOL0     H34941   0.293   5.056   3.966  2.8215  0.4433  1.2943
  259MOL0     H34942   0.449   5.018   3.899  0.6201 -0.1347 -0.1953
  259MOL0     H34943   0.197   5.081   3.743 -0.3065 -1.4369 -0.2950
  259MOL0     H34944   0.345   4.991   3.675  0.8669 -0.2955 -0.0359
  259MOL0     H34945   0.372   5.232   3.634  1.7655  0.6676  0.0545
  259MOL0     H34946   0.474   5.196   3.774  0.2854 -1.9947  0.3355
  259MOL0     H34947   0.893   4.534   4.212  1.8025  0.0391 -2.8149
  259MOL0     H34948   1.047   4.349   4.179  1.0557 -2.6110 -2.6707
  259MOL0     H34949   1.121   3.950   4.223 -0.2134 -2.3407  0.5068
  259MOL0     H34950   1.285   3.783   4.299  0.0995  2.1120  2.6818
  259MOL0     H34951   2.778   3.611   5.547  2.5767  0.6767  2.9845
  259MOL0     H34952   3.034   3.614   5.599 -1.2487 -0.2661  1.3534
  259MOL0     H34953   3.410   3.620   5.515  1.5486 -0.7293 -1.3308
  259MOL0     H34954   3.592   3.711   5.622  1.0612 -0.6396  0.7118
  259MOL0     H34955   3.945   3.532   5.862  0.8203 -3.2361  0.5714
  259MOL0     H34956   3.844   3.401   5.809  0.0844 -0.4762  0.7564
  259MOL0     H34957   3.853   3.490   5.578  0.1368  0.7193 -0.2659
  259MOL0     H34958   4.011   3.435   5.633  0.3779  0.7680  0.7252
  259MOL0     H34959   4.109   3.629   5.657 -1.1967  0.5983  2.2773
  259MOL0     H34960   3.950   3.719   5.631 -0.6868 -0.3377 -1.7580
  259MOL0     H34961   3.925   3.615   5.417  1.9351  0.5753 -1.7980
  259MOL0     H34962   4.078   3.525   5.430 -1.4659 -0.3442 -0.8288
  259MOL0     H34963   4.217   3.919   5.354 -3.8820  2.5309 -1.6980
  259MOL0     H34964   3.620   3.348   5.857  1.4464  1.3222  0.7416
  259MOL0     H34965   3.420   3.268   5.754  0.7247  0.0876 -0.7860
  260MOL0     O34966   0.801   6.619   5.841  0.2998  0.2866  0.4310
  260MOL0     C34967   0.859   6.672   5.937  0.0021  0.0544  0.0865
  260MOL0     O34968   0.987   6.702   5.945 -0.5320 -0.1748  0.4367
  260MOL0     C34969   1.082   6.664   5.850  0.2229  0.8306 -0.5855
  260MOL0     C34970   1.207   6.620   5.903  0.6558 -0.1094  1.0285
  260MOL0     C34971   1.313   6.593   5.810  1.0368  0.3221 -0.7698
  260MOL0     C34972   1.298   6.613   5.670  0.4987  0.0215 -0.9181
  260MOL0     O34973   1.393   6.586   5.581 -0.4158 -0.0937  0.4155
  260MOL0     C34974   1.488   6.483   5.607  0.3038 -0.3557  0.0081
  260MOL0     C34975   1.632   6.543   5.638 -0.1306 -0.4708  0.6109
  260MOL0     C34976   1.728   6.432   5.678  0.5998  0.0032 -0.6484
  260MOL0     C34977   1.768   6.336   5.564 -0.4395  0.1835  0.4906
  260MOL0     C34978   1.802   6.198   5.627 -0.1436  0.1529 -0.3381
  260MOL0     C34979   1.831   6.101   5.511  0.3534 -0.0851 -0.5683
  260MOL0     C34980   1.975   6.119   5.454 -0.2684  0.1652  0.3449
  260MOL0     C34981   2.094   6.108   5.539 -1.1049  0.4198 -0.5466
  260MOL0     N34982   2.218   6.098   5.461  0.6450  0.6479  0.2286
  260MOL0     C34983   2.275   5.980   5.424 -0.7743  0.2395  0.1528
  260MOL0     C34984   2.390   6.016   5.357  0.1526  0.8200  0.8339
  260MOL0     C34985   2.508   5.931   5.324 -0.2446 -0.6867  0.3948
  260MOL0     C34986   2.476   5.818   5.234  0.7929  0.3458  0.4814
  260MOL0     C34987   2.447   5.860   5.086 -0.2620 -0.7135  0.2223
  260MOL0     C34988   2.334   5.957   5.061  0.8538 -0.4344  0.6780
  260MOL0     O34989   2.207   5.899   5.111 -0.0797  0.0394  0.3946
  260MOL0     C34990   2.088   5.964   5.102  0.7601  0.1689  1.0991
  260MOL0     C34991   1.976   5.895   5.153  0.6001 -0.6794  0.0158
  260MOL0     C34992   1.853   5.951   5.157 -0.3718 -0.2290 -0.1838
  260MOL0     C34993   1.747   5.876   5.237  0.6461  0.6858 -0.0611
  260MOL0     C34994   1.829   6.076   5.104  0.2399 -0.0157  0.5632
  260MOL0     C34995   1.695   6.145   5.087 -0.7433  0.1707  0.3639
  260MOL0     O34996   1.683   6.248   4.996  0.6000  0.1059  0.3296
  260MOL0     C34997   1.560   6.295   4.960  0.0674 -0.2921 -0.0144
  260MOL0     C34998   1.427   6.255   4.975 -0.3039 -0.0964 -0.2546
  260MOL0     C34999   1.321   6.328   4.931  0.5016 -0.1058  0.4356
  260MOL0     C35000   1.337   6.443   4.844 -0.1075 -0.7480  0.1828
  260MOL0     O35001   1.231   6.519   4.804  0.6392  0.7696 -0.2961
  260MOL0     C35002   1.191   6.517   4.665  0.8666 -0.0451  0.1919
  260MOL0     C35003   1.111   6.639   4.624  0.1896  0.1594 -0.3869
  260MOL0     C35004   1.095   6.644   4.469  0.3742  0.1672 -0.1640
  260MOL0     C35005   1.071   6.792   4.428 -0.5132  0.3406  0.3475
  260MOL0     C35006   1.085   6.803   4.275 -0.0007  0.3861  0.1155
  260MOL0     C35007   0.990   6.703   4.207 -0.2695  0.4946  0.8823
  260MOL0     C35008   0.973   6.738   4.053  0.0708 -0.0531 -0.2085
  260MOL0     C35009   0.836   6.689   4.010  0.0794 -0.5804 -0.2924
  260MOL0    Cl35010   0.820   6.510   4.033 -0.2173 -0.2835 -0.0963
  260MOL0     C35011   1.467   6.477   4.810  0.2164 -0.1981  0.9096
  260MOL0     C35012   1.576   6.406   4.869  0.3556 -0.5418  0.4842
  260MOL0     O35013   1.603   6.111   5.166  0.2011 -0.0715 -0.2126
  260MOL0     C35014   1.939   6.142   5.040 -0.1976  0.4494  0.1467
  260MOL0     C35015   2.068   6.085   5.027 -0.3610  0.7478 -0.0857
  260MOL0     N35016   2.384   6.152   5.341 -0.4860 -0.2235  0.7260
  260MOL0     N35017   2.288   6.196   5.405  0.1969  0.3032  0.1869
  260MOL0     C35018   1.179   6.674   5.632  0.3005  0.5888 -0.0477
  260MOL0     C35019   1.079   6.711   5.721  0.4803  1.0386  0.1862
  260MOL0     C35020   0.777   6.720   6.051 -0.0220  0.1799 -0.0947
  260MOL0     C35021   0.832   6.770   6.173 -0.0269 -0.4933 -0.4157
  260MOL0     C35022   0.748   6.799   6.278 -0.1772  0.1007 -1.1441
  260MOL0     C35023   0.610   6.777   6.281  0.0214  0.0020  0.5878
  260MOL0     O35024   0.515   6.830   6.363  0.4097 -0.4710  0.4469
  260MOL0     C35025   0.442   6.733   6.444  0.8241 -0.0793  0.5692
  260MOL0     C35026   0.332   6.807   6.520  1.1965 -0.1454 -0.8835
  260MOL0     C35027   0.305   6.712   6.644 -0.5470  0.3652  0.1631
  260MOL0     C35028   0.276   6.562   6.616  0.0712  0.4077  0.3641
  260MOL0     C35029   0.221   6.505   6.738  0.0345  0.0702 -0.1087
  260MOL0     C35030   0.165   6.450   6.829 -0.5186 -0.2667  0.2243
  260MOL0     C35031   0.554   6.727   6.161  0.7982  0.2757  0.0134
  260MOL0     C35032   0.633   6.713   6.046 -0.1660 -0.0012  0.6640
  260MOL0     H35033   1.215   6.602   6.010  2.2345 -3.7321  0.4497
  260MOL0     H35034   1.411   6.555   5.837  0.7953  0.3996  0.2308
  260MOL0     H35035   1.458   6.417   5.689  2.7234 -1.3270  0.1927
  260MOL0     H35036   1.491   6.420   5.518 -0.6839  1.6351 -1.5216
  260MOL0     H35037   1.662   6.599   5.549 -0.2735  0.4620  1.1439
  260MOL0     H35038   1.635   6.621   5.715  2.3748  0.4505 -0.3072
  260MOL0     H35039   1.818   6.480   5.718  1.8068 -1.7494 -1.1653
  260MOL0     H35040   1.679   6.369   5.753 -0.3267 -0.0739 -1.3131
  260MOL0     H35041   1.688   6.331   5.490  0.7782 -0.5398 -0.8265
  260MOL0     H35042   1.852   6.378   5.509 -0.1898  1.3689  1.7293
  260MOL0     H35043   1.890   6.216   5.691  0.5364  1.0070 -1.4627
  260MOL0     H35044   1.719   6.156   5.684  0.0537  1.4917  1.0104
  260MOL0     H35045   1.824   6.003   5.560  1.5593  0.2632  0.3451
  260MOL0     H35046   1.748   6.115   5.441  0.6479 -2.6135 -1.5116
  260MOL0     H35047   2.003   6.040   5.383  1.1306  2.0276 -1.2892
  260MOL0     H35048   1.984   6.215   5.403 -0.0232 -1.3945 -2.8721
  260MOL0     H35049   2.074   6.022   5.605 -3.5695  1.9210  0.8343
  260MOL0     H35050   2.099   6.199   5.600  0.5938 -0.4378  0.6934
  260MOL0     H35051   2.241   5.883   5.460  0.3394  0.1596  1.0230
  260MOL0     H35052   2.585   5.995   5.280 -0.6069  2.3346  3.6917
  260MOL0     H35053   2.538   5.868   5.409  0.8606  0.5939  0.9892
  260MOL0     H35054   2.388   5.766   5.272  0.6346 -1.9798 -2.6877
  260MOL0     H35055   2.560   5.748   5.239  2.1736  1.6580 -2.0646
  260MOL0     H35056   2.409   5.775   5.028 -1.1495  0.3780 -0.8563
  260MOL0     H35057   2.534   5.904   5.036 -1.1057 -1.3169 -1.9103
  260MOL0     H35058   2.312   5.972   4.955 -0.9257  0.8611  1.1883
  260MOL0     H35059   2.347   6.055   5.106 -1.8551  1.0209 -1.4304
  260MOL0     H35060   1.989   5.800   5.204 -1.0031  0.0985  2.0571
  260MOL0     H35061   1.781   5.774   5.257 -0.2667  0.1397 -1.1996
  260MOL0     H35062   1.730   5.913   5.339 -0.6198  2.4386 -0.8727
  260MOL0     H35063   1.657   5.851   5.180  1.0176 -2.4839  0.5409
  260MOL0     H35064   1.408   6.175   5.046 -0.5105  0.4257  0.2791
  260MOL0     H35065   1.221   6.296   4.958  0.8563  0.1925  2.1922
  260MOL0     H35066   1.277   6.498   4.600  0.1157 -3.3554 -0.0389
  260MOL0     H35067   1.131   6.426   4.651  0.3986  0.4355 -1.0981
  260MOL0     H35068   1.007   6.639   4.659  0.5628  1.1214  0.7979
  260MOL0     H35069   1.153   6.736   4.655 -0.7273  1.1536 -2.0875
  260MOL0     H35070   1.015   6.577   4.438 -0.8417  1.1204  0.7824
  260MOL0     H35071   1.190   6.610   4.428  0.4761 -3.1883  2.4078
  260MOL0     H35072   0.977   6.836   4.464  0.1474  0.1671  2.4483
  260MOL0     H35073   1.150   6.850   4.477  0.6778 -1.7082  0.9516
  260MOL0     H35074   1.186   6.779   4.242  0.0442 -1.1015  1.2059
  260MOL0     H35075   1.068   6.907   4.246  0.6343  0.8873  1.4654
  260MOL0     H35076   1.038   6.605   4.205 -0.4436  0.0770  5.8232
  260MOL0     H35077   0.898   6.699   4.265 -0.0595  0.1299  1.1961
  260MOL0     H35078   1.047   6.681   3.997 -1.7622 -0.7955 -2.0178
  260MOL0     H35079   0.987   6.845   4.033  0.6537  0.1626  1.1875
  260MOL0     H35080   0.827   6.723   3.907 -0.0027  0.0719 -0.0781
  260MOL0     H35081   0.770   6.745   4.077 -0.5810 -1.5221 -0.1416
  260MOL0     H35082   1.480   6.552   4.733 -0.9413  1.8921  2.6097
  260MOL0     H35083   1.673   6.441   4.835 -0.5493 -0.0856 -1.7792
  260MOL0     H35084   1.929   6.241   4.996  0.8601 -0.9148 -3.5075
  260MOL0     H35085   2.141   6.115   4.952 -1.2047 -0.5666 -1.5153
  260MOL0     H35086   1.164   6.698   5.527  0.5775 -1.0147 -0.4752
  260MOL0     H35087   0.988   6.759   5.685 -0.6474 -2.3410 -1.9340
  260MOL0     H35088   0.939   6.787   6.181 -0.0534 -1.1320  2.4200
  260MOL0     H35089   0.790   6.859   6.358 -1.6897  0.0076 -0.2466
  260MOL0     H35090   0.389   6.658   6.385  0.1038  1.1397 -0.3927
  260MOL0     H35091   0.519   6.690   6.508  1.0074 -2.7549 -1.2817
  260MOL0     H35092   0.238   6.812   6.465 -0.0800 -0.6554  1.1316
  260MOL0     H35093   0.363   6.905   6.559  2.3417 -1.2602  1.2106
  260MOL0     H35094   0.220   6.754   6.699 -0.4267  0.1306  0.5332
  260MOL0     H35095   0.387   6.734   6.714  1.0408 -0.2672 -1.4205
  260MOL0     H35096   0.366   6.509   6.583 -0.8453 -0.9555 -0.0484
  260MOL0     H35097   0.198   6.551   6.540  0.0855 -2.7512  0.6527
  260MOL0     H35098   0.114   6.403   6.911 -0.4757  2.0662  1.6883
  260MOL0     H35099   0.446   6.718   6.159  0.8501 -0.1512 -1.5453
  260MOL0     H35100   0.582   6.687   5.954  0.1981  1.3934  0.0429
  261MOL0     O35101  10.558   0.870   6.498  0.3013  0.3769 -0.3194
  261MOL0     C35102  10.597   0.770   6.450  0.0763  0.4127  0.1712
  261MOL0     O35103  10.598   0.750   6.316 -0.1096 -0.2030  0.1655
  261MOL0     C35104  10.561   0.861   6.239 -0.8104  0.1651  0.2698
  261MOL0     C35105  10.446   0.869   6.176  0.2624  0.1524 -0.5176
  261MOL0     C35106  10.421   0.958   6.070 -0.0840 -0.1066  0.2268
  261MOL0     C35107  10.525   1.046   6.037 -0.1136  0.9551  0.0061
  261MOL0     O35108  10.493   1.145   5.945 -0.1873  0.9063 -0.4108
  261MOL0     C35109  10.602   1.187   5.862  0.4943  0.0480  0.2184
  261MOL0     C35110  10.531   1.237   5.735  0.3085 -0.9983  0.5107
  261MOL0     C35111  10.645   1.285   5.638  1.3193 -0.8254 -0.9853
  261MOL0     C35112  10.610   1.233   5.498 -0.0067 -0.8392 -0.0097
  261MOL0     C35113  10.722   1.274   5.396  0.9538  0.1177  0.4530
  261MOL0     C35114  10.700   1.250   5.249  0.0614 -0.0044  0.2216
  261MOL0     C35115  10.830   1.214   5.166  0.0802 -0.7820 -0.1295
  261MOL0     C35116  10.929   1.329   5.153 -0.2841  0.0636 -0.1142
  261MOL0     N35117  10.863   1.454   5.113  0.3201  1.0806  0.3021
  261MOL0     C35118  10.826   1.485   4.986  0.3499  0.9327  0.4667
  261MOL0     C35119  10.767   1.605   4.991  0.0978  0.5361  0.1254
  261MOL0     C35120  10.716   1.698   4.882  0.2194  1.1659 -0.6404
  261MOL0     C35121  10.584   1.649   4.808  0.3294 -0.1401  0.3383
  261MOL0     C35122  10.548   1.742   4.694  0.4549 -0.1800  0.2935
  261MOL0     C35123  10.401   1.775   4.717  0.3737 -0.3008 -0.2880
  261MOL0     O35124  10.331   1.649   4.732 -0.8046  0.4547  0.0301
  261MOL0     C35125  10.197   1.651   4.749 -0.0721  0.0876 -0.1910
  261MOL0     C35126  10.108   1.666   4.639 -0.1891 -0.0578 -0.3158
  261MOL0     C35127   9.975   1.670   4.657  0.8602 -0.5054 -0.1003
  261MOL0     C35128   9.893   1.674   4.531  0.7124 -0.5112  0.3631
  261MOL0     C35129   9.925   1.659   4.789  0.1004  0.1668  0.2859
  261MOL0     C35130   9.777   1.661   4.823 -0.0630 -0.3056 -0.0166
  261MOL0     O35131   9.683   1.688   4.719 -0.1570  0.1475  0.2210
  261MOL0     C35132   9.549   1.701   4.730  0.1532 -0.7005 -0.2127
  261MOL0     C35133   9.467   1.598   4.679  0.2077  0.0954  0.5454
  261MOL0     C35134   9.327   1.611   4.686 -0.7516  0.3371  1.0550
  261MOL0     C35135   9.268   1.733   4.743 -0.0230 -0.3786  0.6760
  261MOL0     O35136   9.136   1.761   4.739  0.0255 -1.1076 -0.0255
  261MOL0     C35137   9.048   1.663   4.678 -0.4835 -0.5188 -0.7282
  261MOL0     C35138   8.911   1.736   4.684  0.3613  0.0309  1.0281
  261MOL0     C35139   8.794   1.666   4.613 -0.3175 -0.2967  0.3678
  261MOL0     C35140   8.675   1.755   4.596  0.6142  1.1607  0.2323
  261MOL0     C35141   8.555   1.677   4.523  0.2986 -0.3127 -0.0968
  261MOL0     C35142   8.426   1.756   4.499  0.3502 -0.2860  0.4573
  261MOL0     C35143   8.342   1.670   4.404 -0.2172  0.6696 -0.0684
  261MOL0     C35144   8.227   1.756   4.358 -0.6041  0.5914  0.6873
  261MOL0    Cl35145   8.105   1.753   4.491  0.5028 -0.2596 -0.1257
  261MOL0     C35146   9.353   1.830   4.797 -0.5920 -0.4101 -0.1234
  261MOL0     C35147   9.497   1.816   4.793  0.2482  0.8142  0.0946
  261MOL0     O35148   9.745   1.631   4.937 -0.2309  0.0321  0.0990
  261MOL0     C35149  10.015   1.648   4.903 -0.1703  0.3886  0.6131
  261MOL0     C35150  10.151   1.645   4.874 -0.2138 -0.2845  0.8201
  261MOL0     N35151  10.767   1.652   5.121  0.8666 -0.2565 -0.1739
  261MOL0     N35152  10.817   1.561   5.192  0.1252  0.5748  0.3681
  261MOL0     C35153  10.654   1.027   6.091  0.7564  0.1977  0.1307
  261MOL0     C35154  10.675   0.934   6.191  0.7423  0.2096  0.1765
  261MOL0     C35155  10.607   0.644   6.524  0.2122  0.1347  0.6732
  261MOL0     C35156  10.650   0.529   6.458 -0.6763  0.2828  0.0185
  261MOL0     C35157  10.634   0.407   6.516 -0.0937  0.2005 -0.5875
  261MOL0     C35158  10.579   0.393   6.642 -0.0945 -0.7327  0.9628
  261MOL0     O35159  10.529   0.276   6.701  0.5165 -0.5102 -0.0563
  261MOL0     C35160  10.548   0.146   6.637 -0.6033  0.0924 -0.0898
  261MOL0     C35161  10.682   0.087   6.661  0.4536  0.3231 -0.1412
  261MOL0     C35162  10.688  -0.061   6.605  0.0001 -0.3817 -0.4058
  261MOL0     C35163  10.814  -0.142   6.635 -0.6175  0.3423  0.2513
  261MOL0     C35164  10.781  -0.282   6.660 -1.2516 -0.2786  0.2791
  261MOL0     C35165  10.758  -0.399   6.679  0.2110 -0.4118 -0.1035
  261MOL0     C35166  10.528   0.514   6.707 -0.3635 -0.1883  0.6490
  261MOL0     C35167  10.548   0.641   6.648 -0.1583  0.1743 -0.7981
  261MOL0     H35168  10.363   0.802   6.198  0.4267 -0.1596 -0.8413
  261MOL0     H35169  10.328   0.948   6.016 -0.2667  1.3391  0.2426
  261MOL0     H35170  10.659   1.261   5.919 -2.3625  1.8070  0.9852
  261MOL0     H35171  10.670   1.103   5.844  0.3774  0.1146 -0.5637
  261MOL0     H35172  10.464   1.163   5.690 -3.0494  0.6038  2.4784
  261MOL0     H35173  10.458   1.317   5.755  0.1399 -0.4112 -2.1395
  261MOL0     H35174  10.647   1.394   5.637 -1.1188 -0.6295  1.3792
  261MOL0     H35175  10.741   1.239   5.664  1.2070 -0.9210 -0.7342
  261MOL0     H35176  10.597   1.125   5.507 -2.7508 -0.6571 -0.8146
  261MOL0     H35177  10.509   1.268   5.475 -0.2246 -3.4207 -3.7820
  261MOL0     H35178  10.749   1.379   5.409 -1.2435  0.9930 -1.4113
  261MOL0     H35179  10.806   1.211   5.427  0.6392 -0.5421  0.0009
  261MOL0     H35180  10.636   1.162   5.248  1.8135 -1.3353 -0.8743
  261MOL0     H35181  10.648   1.328   5.192  0.6390 -1.7109 -2.8738
  261MOL0     H35182  10.878   1.129   5.216  1.9762 -0.4650 -1.2896
  261MOL0     H35183  10.801   1.187   5.064  2.6094 -0.7511 -0.9330
  261MOL0     H35184  11.017   1.311   5.090 -2.1307 -2.0606 -2.2953
  261MOL0     H35185  10.983   1.353   5.245  2.0975  2.9671 -2.0969
  261MOL0     H35186  10.838   1.416   4.903 -1.1345 -0.7368  1.5604
  261MOL0     H35187  10.702   1.794   4.933  2.3962  1.4720 -0.5466
  261MOL0     H35188  10.801   1.697   4.814  1.5192 -0.6215  0.9189
  261MOL0     H35189  10.507   1.631   4.883 -0.8730 -0.4145 -0.9243
  261MOL0     H35190  10.609   1.550   4.769 -0.5723 -0.0511 -0.5179
  261MOL0     H35191  10.554   1.692   4.596 -2.8100  0.5724 -0.4154
  261MOL0     H35192  10.618   1.826   4.688  1.3657 -0.9801 -0.8560
  261MOL0     H35193  10.359   1.831   4.633 -2.6040 -0.4596  0.9530
  261MOL0     H35194  10.394   1.829   4.812 -2.8937 -1.8109  0.4854
  261MOL0     H35195  10.150   1.671   4.539  2.4979 -2.3361  0.5782
  261MOL0     H35196   9.823   1.757   4.522  2.4179  0.9581  0.0453
  261MOL0     H35197   9.956   1.677   4.441  2.2078  0.7250  1.4060
  261MOL0     H35198   9.835   1.581   4.536 -0.3611  0.2029  1.9684
  261MOL0     H35199   9.518   1.510   4.641 -2.3526 -1.5242  0.6134
  261MOL0     H35200   9.275   1.527   4.641  0.3148 -0.5231  1.3699
  261MOL0     H35201   9.067   1.646   4.572  0.1082  3.4098 -1.3876
  261MOL0     H35202   9.033   1.574   4.741 -2.8356 -0.4115 -1.0581
  261MOL0     H35203   8.881   1.747   4.789  0.5606  1.8472  0.9264
  261MOL0     H35204   8.934   1.837   4.649  1.1694 -0.9107 -1.3722
  261MOL0     H35205   8.768   1.578   4.674  1.0182  0.4985  2.1858
  261MOL0     H35206   8.822   1.635   4.512 -0.5243  0.2348  0.1444
  261MOL0     H35207   8.647   1.793   4.694  0.6836  0.7717  0.4049
  261MOL0     H35208   8.697   1.848   4.543 -1.9222  0.7700 -1.6932
  261MOL0     H35209   8.537   1.587   4.582 -0.5316  0.5448  1.0019
  261MOL0     H35210   8.591   1.647   4.424 -0.0334 -0.3624 -0.2024
  261MOL0     H35211   8.381   1.759   4.599  0.4464 -1.0895  0.5346
  261MOL0     H35212   8.452   1.858   4.469  1.0921 -0.5853  0.0731
  261MOL0     H35213   8.322   1.572   4.448 -2.1155  0.2244 -1.7939
  261MOL0     H35214   8.403   1.651   4.316  1.5636  2.0818  0.7995
  261MOL0     H35215   8.179   1.719   4.267 -0.4336  0.9090  0.4681
  261MOL0     H35216   8.266   1.855   4.334  0.1697 -0.5532 -3.7045
  261MOL0     H35217   9.305   1.913   4.848  0.7760 -0.2061  0.9047
  261MOL0     H35218   9.576   1.880   4.831  0.2865  1.2026 -0.6188
  261MOL0     H35219   9.989   1.652   5.008  0.0317 -2.3172  0.8413
  261MOL0     H35220  10.223   1.637   4.954  1.1327  0.6488 -0.2470
  261MOL0     H35221  10.735   1.091   6.058  0.6136  0.6126  0.5702
  261MOL0     H35222  10.771   0.911   6.235  0.0344 -1.6471  0.8243
  261MOL0     H35223  10.682   0.524   6.354 -0.0654  1.1666  0.1569
  261MOL0     H35224  10.646   0.318   6.456 -2.1016 -0.8639  0.5001
  261MOL0     H35225  10.472   0.074   6.670 -1.1591 -0.3177 -2.1438
  261MOL0     H35226  10.534   0.178   6.534  0.7368 -0.7053 -0.5479
  261MOL0     H35227  10.707   0.082   6.767  0.4493  0.3598 -0.1382
  261MOL0     H35228  10.755   0.147   6.607 -0.4391 -1.3000 -3.4237
  261MOL0     H35229  10.676  -0.057   6.496  2.0902 -2.4372 -0.7759
  261MOL0     H35230  10.603  -0.109   6.654 -1.5060 -1.4667 -3.8053
  261MOL0     H35231  10.877  -0.104   6.716  2.1707  1.0259 -2.0866
  261MOL0     H35232  10.880  -0.145   6.549 -0.1696 -0.4280  0.6119
  261MOL0     H35233  10.738  -0.500   6.710 -0.0442 -0.0905  0.7964
  261MOL0     H35234  10.476   0.486   6.799 -2.6249 -0.0260 -0.5098
  261MOL0     H35235  10.510   0.729   6.699 -0.1582  0.6583 -1.6144
  262MOL0     O35236   2.078   6.754   7.499  0.2620 -0.4806 -0.4712
  262MOL0     C35237   2.068   6.741   7.379  0.6954  0.0227  0.0237
  262MOL0     O35238   1.956   6.679   7.319 -0.0233 -0.0848 -0.6366
  262MOL0     C35239   1.864   6.609   7.384  0.2989  0.0230  1.3454
  262MOL0     C35240   1.882   6.520   7.491  0.0834 -0.1704  0.8055
  262MOL0     C35241   1.776   6.443   7.541  0.4560  0.0520 -0.5120
  262MOL0     C35242   1.650   6.458   7.487  0.9693 -0.6100 -0.5765
  262MOL0     O35243   1.540   6.393   7.528  0.7834 -0.3821  0.2662
  262MOL0     C35244   1.488   6.459   7.656  0.1170  0.0084  0.7784
  262MOL0     C35245   1.378   6.377   7.725  1.1832 -0.3274 -0.6877
  262MOL0     C35246   1.343   6.425   7.864  0.2377  0.5651  0.0408
  262MOL0     C35247   1.243   6.543   7.867  0.4579 -0.0479  0.7612
  262MOL0     C35248   1.213   6.586   8.012  0.3784 -0.1204 -0.1759
  262MOL0     C35249   1.122   6.706   8.017 -0.0110  0.2080 -0.8048
  262MOL0     C35250   1.115   6.747   8.166  0.4180 -0.8243  0.5968
  262MOL0     C35251   1.052   6.882   8.188 -0.8145  0.1071  0.7946
  262MOL0     N35252   0.911   6.902   8.153 -0.2779  0.3262  0.9417
  262MOL0     C35253   0.864   6.955   8.035 -0.5534 -0.5736 -0.8785
  262MOL0     C35254   0.727   6.969   8.052  0.2385  0.4745  0.3502
  262MOL0     C35255   0.636   7.006   7.940  0.2064 -0.5676  0.3228
  262MOL0     C35256   0.486   6.989   7.966  0.3110 -0.1696  0.4451
  262MOL0     C35257   0.429   7.111   8.039 -0.3309  0.6440 -0.0230
  262MOL0     C35258   0.291   7.074   8.089 -0.2941 -0.2425 -0.0345
  262MOL0     O35259   0.231   7.183   8.151  0.0308 -0.2859 -0.2124
  262MOL0     C35260   0.121   7.240   8.104 -0.3090 -0.0389 -0.4899
  262MOL0     C35261   0.053   7.315   8.193 -0.4912 -0.1591  0.5644
  262MOL0     C35262  -0.067   7.373   8.154  0.4955 -0.6886 -0.4824
  262MOL0     C35263  -0.126   7.447   8.269  0.0247  0.3240  0.6489
  262MOL0     C35264  -0.124   7.350   8.030 -0.0011 -0.9343 -0.4811
  262MOL0     C35265  -0.258   7.402   7.980 -0.3130  0.8789  0.4537
  262MOL0     O35266  -0.298   7.349   7.861 -0.5775 -0.6088  0.3316
  262MOL0     C35267  -0.417   7.386   7.797  0.3448 -0.0490  0.0093
  262MOL0     C35268  -0.497   7.292   7.732 -0.3933  0.4195 -0.5149
  262MOL0     C35269  -0.619   7.332   7.667  0.1018  0.3030 -0.2291
  262MOL0     C35270  -0.665   7.467   7.667  0.3384 -0.3743 -0.3444
  262MOL0     O35271  -0.789   7.511   7.613 -0.0480 -0.4812  0.1694
  262MOL0     C35272  -0.901   7.419   7.625  0.3697  0.3906  1.0306
  262MOL0     C35273  -1.022   7.486   7.571 -0.4036 -0.6162 -0.7270
  262MOL0     C35274  -1.146   7.404   7.579 -0.7416  0.1019  0.8067
  262MOL0     C35275  -1.225   7.422   7.710  0.5071 -0.2488 -0.1661
  262MOL0     C35276  -1.357   7.332   7.714 -0.1448 -0.8502  0.4438
  262MOL0     C35277  -1.450   7.317   7.591 -0.0999  0.1365 -0.2734
  262MOL0     C35278  -1.584   7.252   7.625  0.3194  0.8522  0.7526
  262MOL0     C35279  -1.688   7.270   7.514  0.2731 -0.2781  0.3235
  262MOL0    Cl35280  -1.851   7.230   7.563 -0.2453  0.2368 -0.7293
  262MOL0     C35281  -0.577   7.561   7.720  0.4428 -0.2021 -0.3382
  262MOL0     C35282  -0.458   7.524   7.780 -0.0756  0.0406  0.8766
  262MOL0     O35283  -0.324   7.470   8.054 -0.1177  0.3314 -0.3860
  262MOL0     C35284  -0.058   7.265   7.938 -0.4845 -0.5888  0.7449
  262MOL0     C35285   0.075   7.222   7.969 -0.5691  0.5973 -0.7508
  262MOL0     N35286   0.696   6.922   8.175 -0.2968  0.2486  0.1386
  262MOL0     N35287   0.803   6.894   8.237 -0.7496 -0.3881 -0.3849
  262MOL0     C35288   1.634   6.551   7.384 -0.0257  0.1479 -0.3925
  262MOL0     C35289   1.738   6.629   7.332 -0.1199  0.3063 -0.1605
  262MOL0     C35290   2.180   6.808   7.298 -0.4118  0.3459 -0.1256
  262MOL0     C35291   2.171   6.804   7.152 -0.2119  0.0629 -0.1794
  262MOL0     C35292   2.279   6.846   7.077  0.3771 -0.2544 -0.9342
  262MOL0     C35293   2.393   6.906   7.140  0.1151 -0.4787  0.0429
  262MOL0     O35294   2.487   6.971   7.073 -0.1251 -0.4408 -0.0767
  262MOL0     C35295   2.623   6.920   7.084 -0.5047  0.3573  0.1371
  262MOL0     C35296   2.725   7.040   7.112 -0.4643  0.1319 -0.0254
  262MOL0     C35297   2.863   7.006   7.061  0.8199  0.2735 -0.3345
  262MOL0     C35298   2.948   6.915   7.150 -0.8019  0.7470  0.1493
  262MOL0     C35299   3.012   6.994   7.260  0.3490  0.0535 -0.7689
  262MOL0     C35300   3.055   7.045   7.358  0.3720 -0.9241  0.4502
  262MOL0     C35301   2.404   6.904   7.276  0.3503 -0.5485  0.4655
  262MOL0     C35302   2.302   6.861   7.357 -0.0199  1.0992 -0.2614
  262MOL0     H35303   1.976   6.480   7.530  1.7510  1.4904 -1.2815
  262MOL0     H35304   1.785   6.369   7.620  1.3922 -0.2935 -0.9191
  262MOL0     H35305   1.571   6.479   7.724  0.0900  0.7085  0.6098
  262MOL0     H35306   1.440   6.554   7.631  1.5769  1.2414  2.3968
  262MOL0     H35307   1.290   6.377   7.660  2.0445 -0.7942 -1.8901
  262MOL0     H35308   1.409   6.274   7.741 -0.7458 -0.6273  1.7614
  262MOL0     H35309   1.288   6.351   7.924  0.6660  2.1600  2.5486
  262MOL0     H35310   1.436   6.456   7.913  1.2150 -0.7971 -0.8737
  262MOL0     H35311   1.295   6.627   7.820  0.7299 -0.2050  0.7781
  262MOL0     H35312   1.149   6.523   7.814  0.9526  0.5105 -0.3811
  262MOL0     H35313   1.155   6.512   8.068 -3.3846  1.9545 -1.0120
  262MOL0     H35314   1.309   6.598   8.063  0.5689 -0.4151 -0.4609
  262MOL0     H35315   1.173   6.782   7.957  0.7104 -0.3636 -0.9344
  262MOL0     H35316   1.019   6.686   7.986 -0.7918  1.6327  0.7246
  262MOL0     H35317   1.063   6.668   8.221  0.1710  0.0922  1.7244
  262MOL0     H35318   1.217   6.753   8.207 -0.3570 -2.0190  2.9025
  262MOL0     H35319   1.112   6.968   8.158 -2.1914  1.7570  2.4987
  262MOL0     H35320   1.049   6.882   8.298 -3.7913 -0.8461  0.8086
  262MOL0     H35321   0.926   6.987   7.952 -0.3252  2.7095  0.4217
  262MOL0     H35322   0.653   7.108   7.906  0.0145 -1.1753 -1.8154
  262MOL0     H35323   0.663   6.945   7.852  0.0036  1.2180 -1.0367
  262MOL0     H35324   0.462   6.894   8.014  1.3927  0.2413  1.8862
  262MOL0     H35325   0.431   6.982   7.872 -1.8957 -1.3992  1.7496
  262MOL0     H35326   0.416   7.200   7.975 -1.9555  0.1528 -0.4114
  262MOL0     H35327   0.491   7.148   8.121 -0.0699  1.6329 -0.6365
  262MOL0     H35328   0.306   6.993   8.161  2.6561 -0.6233 -0.9559
  262MOL0     H35329   0.228   7.029   8.011  0.4778 -2.2695  0.4471
  262MOL0     H35330   0.094   7.327   8.293 -0.3638  0.3548  0.4539
  262MOL0     H35331  -0.170   7.538   8.227 -0.8890 -0.7764 -0.8705
  262MOL0     H35332  -0.206   7.385   8.310 -0.0592 -0.1215 -0.1851
  262MOL0     H35333  -0.051   7.480   8.342  2.8128 -0.3753 -1.7180
  262MOL0     H35334  -0.469   7.187   7.727  0.4734  0.7028 -3.4617
  262MOL0     H35335  -0.691   7.262   7.625 -0.7997  0.6816  0.6236
  262MOL0     H35336  -0.882   7.328   7.568 -1.2836  1.2921 -1.1079
  262MOL0     H35337  -0.913   7.395   7.731 -3.2535  1.8827  1.1006
  262MOL0     H35338  -1.020   7.578   7.631  3.9226  1.1583 -3.1367
  262MOL0     H35339  -1.009   7.526   7.470 -1.1080 -1.8043 -1.3039
  262MOL0     H35340  -1.112   7.301   7.564  0.1182  0.5291 -0.3453
  262MOL0     H35341  -1.209   7.413   7.489 -0.4026 -3.2036  0.0831
  262MOL0     H35342  -1.169   7.388   7.797  4.0163 -0.1870 -2.2190
  262MOL0     H35343  -1.254   7.527   7.721 -0.0573 -0.3494 -0.6399
  262MOL0     H35344  -1.407   7.370   7.804  1.3413 -1.6577  1.6563
  262MOL0     H35345  -1.328   7.233   7.750  2.5406 -0.3949 -0.2054
  262MOL0     H35346  -1.467   7.417   7.550 -0.9750  0.9112  1.8368
  262MOL0     H35347  -1.394   7.262   7.515  1.9721  2.4721 -0.5759
  262MOL0     H35348  -1.612   7.309   7.715  6.1902  1.6814  2.4916
  262MOL0     H35349  -1.579   7.144   7.642 -2.3000  0.5024 -0.3004
  262MOL0     H35350  -1.658   7.197   7.439 -3.1842 -4.2488  2.3777
  262MOL0     H35351  -1.678   7.374   7.482  1.4102 -0.2007  0.8877
  262MOL0     H35352  -0.602   7.666   7.703  0.9523  0.1944  1.2134
  262MOL0     H35353  -0.389   7.597   7.821  0.9197 -0.3121 -0.1126
  262MOL0     H35354  -0.097   7.231   7.843 -1.7839  0.2625  0.9355
  262MOL0     H35355   0.145   7.167   7.907  2.8910  3.1002  0.6727
  262MOL0     H35356   1.537   6.557   7.335  0.7965  0.3110 -2.0547
  262MOL0     H35357   1.724   6.688   7.242 -0.9305  2.9841  1.6040
  262MOL0     H35358   2.092   6.758   7.095 -0.0653 -1.1528  0.5743
  262MOL0     H35359   2.275   6.836   6.969 -1.6832 -1.2244 -0.8287
  262MOL0     H35360   2.635   6.849   7.166  0.2381  0.9593  0.5712
  262MOL0     H35361   2.651   6.864   6.994  1.2267  0.5965  0.4759
  262MOL0     H35362   2.732   7.064   7.218  0.7172 -0.5445  0.0706
  262MOL0     H35363   2.681   7.124   7.058  0.5121  1.7115  1.5332
  262MOL0     H35364   2.925   7.097   7.057  1.7412 -0.3866 -1.8352
  262MOL0     H35365   2.853   6.959   6.963 -1.0596 -0.6578  0.2540
  262MOL0     H35366   3.021   6.866   7.084 -2.8219 -1.7943 -0.3704
  262MOL0     H35367   2.894   6.837   7.205  0.5016 -0.1561  0.2106
  262MOL0     H35368   3.099   7.096   7.442 -0.8786 -0.6832  0.9736
  262MOL0     H35369   2.489   6.962   7.312  0.1892 -0.5228  0.8070
  262MOL0     H35370   2.315   6.859   7.465 -1.3290  1.0398 -0.0837
  263MOL0     O35371   3.693   0.034   7.702 -0.1756  0.2826 -0.1464
  263MOL0     C35372   3.735   0.092   7.602 -0.0574 -0.6267  0.5511
  263MOL0     O35373   3.670   0.195   7.540 -0.4270  0.4444  0.1885
  263MOL0     C35374   3.548   0.236   7.557  0.8295 -0.7414  0.0158
  263MOL0     C35375   3.445   0.176   7.636 -0.6590 -1.0049 -0.2818
  263MOL0     C35376   3.328   0.246   7.653  0.1510  0.4601  0.5120
  263MOL0     C35377   3.292   0.356   7.582  0.3951 -0.0787  0.6956
  263MOL0     O35378   3.154   0.403   7.584  0.3280  0.0458  0.9631
  263MOL0     C35379   3.136   0.546   7.572  0.6468 -0.0596  0.6222
  263MOL0     C35380   2.991   0.581   7.624 -0.1872  0.8449 -0.0185
  263MOL0     C35381   2.982   0.571   7.780  0.1358  0.0505  0.2130
  263MOL0     C35382   2.839   0.584   7.826  0.0063  0.1485 -1.2426
  263MOL0     C35383   2.837   0.604   7.979 -0.4351 -0.3737 -0.4355
  263MOL0     C35384   2.698   0.605   8.047  0.3675 -1.0173  0.8914
  263MOL0     C35385   2.706   0.621   8.200 -0.1150  0.7290  1.4161
  263MOL0     C35386   2.758   0.490   8.255 -0.1384  0.7201  0.5122
  263MOL0     N35387   2.716   0.482   8.392 -0.3503 -1.1800  0.6100
  263MOL0     C35388   2.794   0.535   8.499  0.5754 -0.9471  0.1020
  263MOL0     C35389   2.723   0.510   8.610 -0.3018 -0.3496 -0.1541
  263MOL0     C35390   2.763   0.557   8.748 -0.4860 -0.2407 -0.2981
  263MOL0     C35391   2.871   0.486   8.825 -0.3716 -0.3066 -0.3965
  263MOL0     C35392   2.847   0.478   8.978  0.6362  0.0237  0.5236
  263MOL0     C35393   2.728   0.389   9.024 -0.1227 -0.5705  0.2675
  263MOL0     O35394   2.735   0.255   8.983 -0.1471  0.6750 -0.1098
  263MOL0     C35395   2.628   0.194   8.914 -0.1528 -0.2133 -0.1101
  263MOL0     C35396   2.612   0.055   8.934  0.0148 -0.4599 -0.3026
  263MOL0     C35397   2.508  -0.020   8.876  0.2783 -0.0399 -0.2990
  263MOL0     C35398   2.494  -0.161   8.918  0.0565 -0.1812  0.4072
  263MOL0     C35399   2.416   0.049   8.795 -0.2828 -0.2945 -0.0200
  263MOL0     C35400   2.291  -0.025   8.746 -0.6465 -0.5966  0.0388
  263MOL0     O35401   2.173   0.044   8.759  0.3972  0.1094  0.1517
  263MOL0     C35402   2.047  -0.019   8.738  1.0934 -0.5223  0.3789
  263MOL0     C35403   1.938   0.050   8.803  1.3070  0.8855 -0.4256
  263MOL0     C35404   1.802   0.004   8.787  0.2922  1.2142 -1.3669
  263MOL0     C35405   1.781  -0.108   8.701 -0.1290  0.0922 -0.4232
  263MOL0     O35406   1.652  -0.146   8.677  0.1141  0.0546 -0.1353
  263MOL0     C35407   1.526  -0.076   8.713 -0.0074  1.0468  0.1078
  263MOL0     C35408   1.479  -0.148   8.840  0.0553  1.0027 -0.2875
  263MOL0     C35409   1.336  -0.100   8.861  0.0477  0.4012  0.7386
  263MOL0     C35410   1.269  -0.187   8.961  0.3338  0.5622  0.0790
  263MOL0     C35411   1.127  -0.160   8.977  0.0285 -0.0955  0.0920
  263MOL0     C35412   1.032  -0.227   8.875 -0.9299  0.3337 -0.1319
  263MOL0     C35413   0.885  -0.197   8.900  0.0461  0.5632  0.4846
  263MOL0     C35414   0.807  -0.251   8.775  0.5575  0.1570 -0.1791
  263MOL0    Cl35415   0.815  -0.140   8.641 -0.4923 -0.1035  0.7746
  263MOL0     C35416   1.887  -0.175   8.632  0.2452 -0.4114  0.4514
  263MOL0     C35417   2.018  -0.130   8.651  0.4151 -0.0200 -0.4768
  263MOL0     O35418   2.301  -0.135   8.693  0.8219  0.0755  0.0748
  263MOL0     C35419   2.425   0.185   8.782  0.6338  0.8476  0.5802
  263MOL0     C35420   2.540   0.258   8.826  0.2004 -0.3858  0.3084
  263MOL0     N35421   2.608   0.446   8.566  0.3069 -0.7563  0.3519
  263MOL0     N35422   2.596   0.438   8.439 -0.2082 -0.5713  1.3272
  263MOL0     C35423   3.391   0.419   7.507  0.7735 -0.5593  0.1859
  263MOL0     C35424   3.513   0.354   7.493  0.4998 -0.2280 -0.2348
  263MOL0     C35425   3.857   0.041   7.536 -0.1683  0.1666 -0.2986
  263MOL0     C35426   3.923  -0.072   7.582  0.0470 -0.0565 -0.0607
  263MOL0     C35427   4.039  -0.118   7.537  0.2126 -0.6157 -0.1780
  263MOL0     C35428   4.094  -0.052   7.432  0.3097  0.1854  0.4291
  263MOL0     O35429   4.205  -0.119   7.386 -0.4641 -0.0675 -0.1788
  263MOL0     C35430   4.260  -0.076   7.255  0.1167  0.6849  0.2427
  263MOL0     C35431   4.381  -0.160   7.208  0.6521 -0.3186  1.2632
  263MOL0     C35432   4.487  -0.142   7.315 -0.2842 -0.0584 -0.2776
  263MOL0     C35433   4.624  -0.192   7.276  0.0477 -0.7074 -0.2540
  263MOL0     C35434   4.691  -0.120   7.164 -0.1762 -0.8779  0.4732
  263MOL0     C35435   4.754  -0.059   7.084  0.1560  0.1071 -0.3087
  263MOL0     C35436   4.029   0.057   7.368 -0.7895 -0.5957 -1.2170
  263MOL0     C35437   3.912   0.106   7.428 -0.1723  0.4963 -0.6192
  263MOL0     H35438   3.463   0.084   7.692  1.6180 -0.0251  0.7189
  263MOL0     H35439   3.251   0.208   7.719  1.1205  0.9147  1.9613
  263MOL0     H35440   3.216   0.599   7.624  0.7508  1.3527 -0.9037
  263MOL0     H35441   3.130   0.573   7.466 -0.2784  1.3580  0.9986
  263MOL0     H35442   2.959   0.682   7.596  0.5894  0.8117 -1.1154
  263MOL0     H35443   2.931   0.511   7.566 -0.7511  0.5998  0.8547
  263MOL0     H35444   3.021   0.482   7.829 -0.3332 -0.1363  0.2505
  263MOL0     H35445   3.031   0.661   7.816 -2.3782  1.3508  0.6457
  263MOL0     H35446   2.796   0.676   7.785  1.3539 -0.1623 -3.5548
  263MOL0     H35447   2.777   0.501   7.790 -1.5013  0.9301 -0.5226
  263MOL0     H35448   2.885   0.513   8.017 -0.8379 -0.4528 -0.1103
  263MOL0     H35449   2.899   0.691   8.004  0.7863 -1.5111  0.6711
  263MOL0     H35450   2.655   0.697   8.008  0.5021 -1.6044 -0.6993
  263MOL0     H35451   2.635   0.521   8.016 -1.0218  0.9331 -1.8655
  263MOL0     H35452   2.782   0.698   8.217  1.1742 -0.0137 -0.5564
  263MOL0     H35453   2.614   0.648   8.252 -1.0388 -0.8873  0.6932
  263MOL0     H35454   2.867   0.492   8.252 -0.0668  3.3003  2.1282
  263MOL0     H35455   2.710   0.410   8.197 -2.3709  0.8845  2.0204
  263MOL0     H35456   2.887   0.591   8.499  1.6814 -2.3689 -3.9866
  263MOL0     H35457   2.800   0.659   8.733 -0.9710  0.0016  0.1219
  263MOL0     H35458   2.674   0.562   8.811 -0.7858  3.0265 -0.8072
  263MOL0     H35459   2.966   0.539   8.817 -0.7378  0.6606  1.1753
  263MOL0     H35460   2.881   0.380   8.797 -3.3652 -1.8719  3.3603
  263MOL0     H35461   2.829   0.577   9.021  0.2880 -0.4531  1.5226
  263MOL0     H35462   2.938   0.445   9.029  2.8281  0.2650 -2.9159
  263MOL0     H35463   2.633   0.431   8.991  0.1921 -0.1212 -0.0819
  263MOL0     H35464   2.715   0.403   9.132 -1.2068  1.5129 -0.0731
  263MOL0     H35465   2.665   0.013   9.019 -0.2945  0.6962  0.4909
  263MOL0     H35466   2.583  -0.196   8.971  1.2862  1.6280 -0.3620
  263MOL0     H35467   2.401  -0.172   8.974 -1.4959  1.8747 -1.5916
  263MOL0     H35468   2.484  -0.218   8.826  0.9805  2.5498 -1.5240
  263MOL0     H35469   1.942   0.146   8.855 -1.6032  0.4377  0.8350
  263MOL0     H35470   1.727   0.053   8.847  1.0410  1.0702 -0.2929
  263MOL0     H35471   1.545   0.031   8.719  0.8430  1.0747 -2.2228
  263MOL0     H35472   1.447  -0.086   8.638  1.5256  1.1763 -1.5602
  263MOL0     H35473   1.494  -0.254   8.817  2.0350  1.1794  0.0589
  263MOL0     H35474   1.534  -0.137   8.934  0.5493 -1.6967 -0.2074
  263MOL0     H35475   1.277  -0.111   8.769 -1.7402 -0.8322  1.9642
  263MOL0     H35476   1.338   0.004   8.895 -3.1177  0.0038  2.5239
  263MOL0     H35477   1.281  -0.289   8.924  3.0294  0.5425  0.7904
  263MOL0     H35478   1.319  -0.180   9.058  1.1797  0.4962 -0.3406
  263MOL0     H35479   1.115  -0.052   8.971  1.9435  0.0989 -1.0837
  263MOL0     H35480   1.098  -0.192   9.078  2.6633 -0.9283  0.6612
  263MOL0     H35481   1.068  -0.202   8.774 -3.2776 -0.7446 -1.3209
  263MOL0     H35482   1.048  -0.335   8.884  0.9279  0.5679 -0.2327
  263MOL0     H35483   0.863  -0.091   8.918  0.9605  1.5440 -3.3829
  263MOL0     H35484   0.848  -0.246   8.991  1.0670 -0.8682  0.1645
  263MOL0     H35485   0.700  -0.260   8.792  0.0537  2.0355 -2.0225
  263MOL0     H35486   0.843  -0.353   8.755  1.3068  0.4309 -0.2576
  263MOL0     H35487   1.865  -0.264   8.573  0.6321  0.0640 -0.4328
  263MOL0     H35488   2.093  -0.192   8.602 -0.9231 -2.3573  0.2662
  263MOL0     H35489   2.348   0.234   8.724 -0.4895 -2.9007 -1.4423
  263MOL0     H35490   2.552   0.361   8.796 -1.2375 -0.2744  0.0423
  263MOL0     H35491   3.363   0.511   7.457 -2.8280 -0.9836  1.1860
  263MOL0     H35492   3.591   0.389   7.426  0.9378  1.9212  1.2726
  263MOL0     H35493   3.870  -0.117   7.665 -2.0337  3.1813  0.5625
  263MOL0     H35494   4.096  -0.200   7.580  0.4488 -1.1167 -1.4041
  263MOL0     H35495   4.186  -0.079   7.175  1.2400 -0.2795 -0.8053
  263MOL0     H35496   4.297   0.026   7.270  1.3537  1.1154 -4.2309
  263MOL0     H35497   4.419  -0.110   7.118  1.5464  0.8688  2.2558
  263MOL0     H35498   4.363  -0.265   7.185 -1.8207 -0.0281  1.6188
  263MOL0     H35499   4.457  -0.202   7.402 -0.0412  0.6634  0.3080
  263MOL0     H35500   4.502  -0.038   7.345 -1.7531  0.2674 -0.5687
  263MOL0     H35501   4.619  -0.300   7.260  0.5910 -0.5879 -1.3505
  263MOL0     H35502   4.676  -0.180   7.371 -0.9541 -3.2826  0.7053
  263MOL0     H35503   4.806   0.011   7.022  1.0359  0.4879  0.8096
  263MOL0     H35504   4.085   0.099   7.285  2.0207 -0.8663  0.4061
  263MOL0     H35505   3.868   0.195   7.385  0.7013 -0.9385 -5.0352
  264MOL0     O35506   8.008   0.979   0.100 -0.2510  0.1091  0.1609
  264MOL0     C35507   8.064   1.045   0.180  1.1512 -0.5169 -1.3370
  264MOL0     O35508   8.001   1.121   0.274 -0.4285  0.3024 -0.2890
  264MOL0     C35509   7.864   1.141   0.263  0.9567 -0.9316 -0.1287
  264MOL0     C35510   7.811   1.250   0.193  0.0248 -0.8334 -0.3953
  264MOL0     C35511   7.677   1.274   0.194  0.2222 -0.5376 -0.0355
  264MOL0     C35512   7.585   1.174   0.235  0.6695  0.1692 -0.3103
  264MOL0     O35513   7.445   1.185   0.241 -0.3180  0.6162  0.6598
  264MOL0     C35514   7.383   1.295   0.187  0.1693  0.1852 -0.1533
  264MOL0     C35515   7.239   1.290   0.225 -1.5455 -0.0205  0.1305
  264MOL0     C35516   7.155   1.189   0.137 -0.7597  0.0101 -0.0549
  264MOL0     C35517   7.121   1.244   0.003  0.7265  0.5129  0.8459
  264MOL0     C35518   7.034   1.140  -0.088 -0.2183  0.1069 -0.2792
  264MOL0     C35519   6.986   1.215  -0.221 -0.3799  0.3116  0.1786
  264MOL0     C35520   6.906   1.109  -0.296  0.6210  0.5092 -0.4953
  264MOL0     C35521   6.764   1.077  -0.254 -0.0991  0.0076 -0.6574
  264MOL0     N35522   6.696   1.199  -0.200 -0.8509  0.2825 -0.3264
  264MOL0     C35523   6.663   1.306  -0.286  0.2192  0.2177  0.1378
  264MOL0     C35524   6.593   1.397  -0.213  0.4702 -0.3055  0.0902
  264MOL0     C35525   6.554   1.534  -0.269 -0.0110  0.4153 -0.3111
  264MOL0     C35526   6.443   1.505  -0.370 -0.1350  1.2181 -0.5417
  264MOL0     C35527   6.427   1.620  -0.468 -0.5353  0.3538 -0.5872
  264MOL0     C35528   6.316   1.578  -0.564 -0.4034  0.6202  0.0779
  264MOL0     O35529   6.181   1.577  -0.508  0.1937 -0.2088 -0.0162
  264MOL0     C35530   6.074   1.573  -0.597 -0.3648 -0.2579 -0.2141
  264MOL0     C35531   5.955   1.631  -0.549  0.4002 -0.0621  0.4510
  264MOL0     C35532   5.841   1.633  -0.627 -0.2806  0.6377  0.1915
  264MOL0     C35533   5.736   1.719  -0.573 -0.0963  0.0765  0.0931
  264MOL0     C35534   5.842   1.563  -0.751  0.6909  1.1801 -0.3520
  264MOL0     C35535   5.727   1.564  -0.842  0.5292  0.0712 -0.5235
  264MOL0     O35536   5.603   1.580  -0.788 -0.2252  0.0581 -0.4941
  264MOL0     C35537   5.489   1.572  -0.867  0.2833  0.8823  0.6049
  264MOL0     C35538   5.370   1.618  -0.807  0.1782 -0.2681 -0.7847
  264MOL0     C35539   5.247   1.633  -0.872 -0.5699 -0.5841 -0.2194
  264MOL0     C35540   5.234   1.597  -1.002 -0.4231  0.0106 -0.2057
  264MOL0     O35541   5.118   1.622  -1.063  0.0483 -0.6363  1.1073
  264MOL0     C35542   5.078   1.530  -1.158  0.6411  0.0720  0.6253
  264MOL0     C35543   4.930   1.534  -1.184  0.2881 -0.5661 -0.4068
  264MOL0     C35544   4.862   1.662  -1.215 -0.3718 -0.0119 -0.2583
  264MOL0     C35545   4.935   1.738  -1.315  0.4551  0.3783  0.1764
  264MOL0     C35546   4.877   1.876  -1.342 -0.9529  0.2572 -0.2629
  264MOL0     C35547   4.739   1.883  -1.403 -0.8755  0.1501  0.9626
  264MOL0     C35548   4.678   2.027  -1.399  0.0778 -0.3792  0.1001
  264MOL0     C35549   4.722   2.125  -1.518  0.8237  0.6066 -0.0627
  264MOL0    Cl35550   4.663   2.293  -1.477  0.0189  0.1498  0.4557
  264MOL0     C35551   5.340   1.534  -1.068  0.2295  0.1305 -0.2491
  264MOL0     C35552   5.461   1.509  -0.997 -0.6115 -0.5850 -1.0407
  264MOL0     O35553   5.751   1.565  -0.963  0.3273  0.1636  0.3138
  264MOL0     C35554   5.958   1.495  -0.788  0.0052 -0.3784  0.5185
  264MOL0     C35555   6.078   1.499  -0.717  0.5175 -0.7123 -0.5211
  264MOL0     N35556   6.589   1.340  -0.077  0.1833 -0.5795 -0.6070
  264MOL0     N35557   6.651   1.220  -0.076 -0.0552 -0.7759  0.8594
  264MOL0     C35558   7.637   1.055   0.290 -0.0277 -0.7877 -0.2249
  264MOL0     C35559   7.776   1.042   0.300 -0.4052 -0.3844 -0.8239
  264MOL0     C35560   8.213   1.029   0.178  0.6196 -0.1809 -0.0721
  264MOL0     C35561   8.301   1.061   0.289  0.4382 -0.0565  0.3520
  264MOL0     C35562   8.438   1.046   0.282  0.4704  0.0915  0.4335
  264MOL0     C35563   8.499   1.001   0.168  1.1249  0.0052  0.0790
  264MOL0     O35564   8.640   0.984   0.177  0.1114 -0.0676 -0.0766
  264MOL0     C35565   8.707   0.914   0.073 -0.7171  0.0501 -0.3745
  264MOL0     C35566   8.862   0.909   0.101  0.1869 -0.1086  0.6890
  264MOL0     C35567   8.937   1.044   0.051 -0.1629  0.9189 -0.2023
  264MOL0     C35568   9.090   1.014   0.056  0.3355 -0.9021  0.5268
  264MOL0     C35569   9.177   1.137   0.047 -0.0428  0.1602  0.2061
  264MOL0     C35570   9.277   1.205   0.015 -0.6539 -0.2949  0.6092
  264MOL0     C35571   8.429   0.979   0.049 -0.2956  0.2208 -0.6273
  264MOL0     C35572   8.283   0.987   0.060 -0.6784 -0.4185  0.1466
  264MOL0     H35573   7.883   1.322   0.155 -0.2591 -0.2364  0.1847
  264MOL0     H35574   7.638   1.368   0.156 -1.0778 -1.1496 -0.2720
  264MOL0     H35575   7.421   1.387   0.232  0.1565 -0.7667  1.9120
  264MOL0     H35576   7.395   1.301   0.079  2.2750 -0.2836  0.0195
  264MOL0     H35577   7.228   1.269   0.331  0.3662 -1.8707  0.0440
  264MOL0     H35578   7.201   1.391   0.205 -0.6649  0.2544 -0.2330
  264MOL0     H35579   7.216   1.099   0.125  0.7966  1.0821 -0.4940
  264MOL0     H35580   7.060   1.166   0.186 -1.4550 -0.6896 -1.6604
  264MOL0     H35581   7.073   1.343   0.008 -0.7627 -0.1391  0.0175
  264MOL0     H35582   7.213   1.263  -0.054 -1.4284  1.4505 -2.5937
  264MOL0     H35583   7.109   1.062  -0.109 -1.0112 -0.3745 -1.4184
  264MOL0     H35584   6.948   1.098  -0.035 -1.3044  1.8026 -0.6558
  264MOL0     H35585   6.916   1.296  -0.197 -0.7907 -0.1435  0.5258
  264MOL0     H35586   7.077   1.252  -0.269  0.2807  1.5564  2.2413
  264MOL0     H35587   6.906   1.128  -0.404  2.4238 -0.7579 -0.7605
  264MOL0     H35588   6.962   1.015  -0.289 -0.0698 -0.0237 -1.7546
  264MOL0     H35589   6.772   1.005  -0.172  0.3580 -1.0426 -1.5978
  264MOL0     H35590   6.700   1.027  -0.326 -2.6534  2.2857 -0.1482
  264MOL0     H35591   6.689   1.309  -0.392  0.1456 -1.3698  0.0461
  264MOL0     H35592   6.518   1.603  -0.193 -0.9025  1.5140 -1.6864
  264MOL0     H35593   6.642   1.569  -0.323  0.9629 -0.9738  0.3206
  264MOL0     H35594   6.348   1.494  -0.318 -1.4192  1.2560 -2.7712
  264MOL0     H35595   6.467   1.414  -0.426  0.6442 -0.1991  1.9326
  264MOL0     H35596   6.522   1.625  -0.521  1.0994 -1.4618  1.9123
  264MOL0     H35597   6.396   1.708  -0.412 -1.4646  0.2955 -0.9831
  264MOL0     H35598   6.346   1.481  -0.605  0.6305  1.5412 -1.4432
  264MOL0     H35599   6.323   1.644  -0.651 -0.1488  1.5586  0.7937
  264MOL0     H35600   5.979   1.697  -0.466  2.8763 -0.1020 -0.1595
  264MOL0     H35601   5.783   1.787  -0.502  3.2717  1.2074 -2.9541
  264MOL0     H35602   5.681   1.777  -0.648 -4.1734  0.0039  2.7107
  264MOL0     H35603   5.666   1.651  -0.523 -0.3166 -0.6690 -1.1721
  264MOL0     H35604   5.380   1.657  -0.707 -1.1584 -0.0539 -0.7183
  264MOL0     H35605   5.159   1.664  -0.816  0.1433 -4.5380  3.6307
  264MOL0     H35606   5.119   1.543  -1.259 -0.7751 -0.8701 -0.1050
  264MOL0     H35607   5.110   1.431  -1.124  3.7659  1.4417  1.9980
  264MOL0     H35608   4.917   1.462  -1.266  0.2485 -0.6770 -0.3048
  264MOL0     H35609   4.879   1.497  -1.095  0.6777 -0.5595 -0.1781
  264MOL0     H35610   4.854   1.708  -1.116  0.0404 -2.7881  1.1499
  264MOL0     H35611   4.766   1.632  -1.257  0.3952 -0.8301 -1.5022
  264MOL0     H35612   5.036   1.747  -1.276 -0.0589  0.9052  1.4342
  264MOL0     H35613   4.935   1.684  -1.410  2.7335  2.5559 -1.1665
  264MOL0     H35614   4.945   1.932  -1.406 -0.1755 -0.1085  0.2220
  264MOL0     H35615   4.874   1.919  -1.241  1.5279 -0.0658  0.0078
  264MOL0     H35616   4.738   1.847  -1.507 -0.9843  3.7183 -0.4210
  264MOL0     H35617   4.663   1.828  -1.347 -3.8496  1.7146 -1.2827
  264MOL0     H35618   4.703   2.074  -1.303 -0.3133 -0.6758  0.3496
  264MOL0     H35619   4.569   2.018  -1.403  0.0114  0.7591 -1.6756
  264MOL0     H35620   4.670   2.093  -1.608  1.5157  0.8421 -0.5516
  264MOL0     H35621   4.829   2.129  -1.539  0.4779  1.2245 -1.9011
  264MOL0     H35622   5.333   1.500  -1.170 -1.0365 -1.1536  0.2367
  264MOL0     H35623   5.541   1.461  -1.053  1.0442 -1.3648  1.7457
  264MOL0     H35624   5.964   1.434  -0.877 -0.0751 -0.3046  0.4635
  264MOL0     H35625   6.169   1.448  -0.749 -1.0338 -2.4732 -2.3864
  264MOL0     H35626   7.562   0.988   0.331 -0.1258 -0.1573  0.6367
  264MOL0     H35627   7.813   0.951   0.345 -0.2865  0.8248  1.6887
  264MOL0     H35628   8.258   1.082   0.386 -0.2509 -0.4281  0.1325
  264MOL0     H35629   8.493   1.072   0.372  1.6028 -1.3160  0.1855
  264MOL0     H35630   8.664   0.813   0.066 -0.5641  0.0037 -0.6245
  264MOL0     H35631   8.703   0.964  -0.023  1.1694  2.7053  0.8199
  264MOL0     H35632   8.910   0.824   0.054 -0.3124 -0.8017  1.4059
  264MOL0     H35633   8.885   0.903   0.208  0.1155  3.5587  1.0414
  264MOL0     H35634   8.898   1.124   0.115 -1.0396 -0.0532  0.5150
  264MOL0     H35635   8.904   1.057  -0.052  2.1237  0.1857 -1.0942
  264MOL0     H35636   9.106   0.945  -0.028 -3.8837 -0.9706 -0.4351
  264MOL0     H35637   9.127   0.971   0.149  2.4432 -0.5332 -0.0896
  264MOL0     H35638   9.367   1.261  -0.003  0.8383 -2.2624  1.4630
  264MOL0     H35639   8.474   0.949  -0.045  4.8187 -0.4985  1.7038
  264MOL0     H35640   8.223   0.949  -0.022  1.7857 -1.3142 -1.3479
  265MOL0     O35641   1.771   3.393   0.117  0.4954 -0.4299 -0.2475
  265MOL0     C35642   1.707   3.418   0.014  0.4656 -0.6534 -0.9976
  265MOL0     O35643   1.576   3.443   0.009 -0.5377 -0.2206  0.2790
  265MOL0     C35644   1.488   3.438   0.115  0.4752  0.5866 -0.1105
  265MOL0     C35645   1.366   3.490   0.078  1.0671  0.4401  0.0728
  265MOL0     C35646   1.264   3.507   0.163  0.4844  0.2080 -0.0823
  265MOL0     C35647   1.289   3.468   0.297  1.1803 -0.4044  0.2027
  265MOL0     O35648   1.180   3.504   0.374  0.9275 -0.0172 -0.0634
  265MOL0     C35649   1.189   3.468   0.513  0.2207 -0.4837 -0.4230
  265MOL0     C35650   1.142   3.321   0.545 -0.7084 -0.7948 -1.1531
  265MOL0     C35651   0.996   3.304   0.570  0.4353 -0.0140  0.1105
  265MOL0     C35652   0.904   3.301   0.443 -0.8367 -0.7661 -0.2035
  265MOL0     C35653   0.756   3.295   0.481 -0.4615  0.4039 -0.2531
  265MOL0     C35654   0.661   3.281   0.358 -0.2080  0.1834 -0.1976
  265MOL0     C35655   0.621   3.399   0.275  0.7755  0.1200 -0.4416
  265MOL0     C35656   0.525   3.363   0.159  0.3028  0.6957 -0.0332
  265MOL0     N35657   0.381   3.356   0.207  0.1940 -0.2528  0.7006
  265MOL0     C35658   0.336   3.242   0.264  0.6347  0.4343 -0.4640
  265MOL0     C35659   0.199   3.262   0.285 -0.1082 -0.2710  0.2123
  265MOL0     C35660   0.101   3.167   0.338  0.2744 -0.5404 -0.0743
  265MOL0     C35661  -0.044   3.211   0.295 -0.6564 -0.6741  0.5294
  265MOL0     C35662  -0.159   3.136   0.370 -0.1825  0.0020  0.1057
  265MOL0     C35663  -0.301   3.159   0.318  0.3590  0.4180  0.5802
  265MOL0     O35664  -0.361   3.277   0.372 -0.5590 -0.5985  0.1955
  265MOL0     C35665  -0.489   3.296   0.333 -0.1633 -0.3269  0.2529
  265MOL0     C35666  -0.568   3.223   0.233  0.1262 -0.4629  0.2112
  265MOL0     C35667  -0.702   3.249   0.213  0.5655  0.1972 -0.5679
  265MOL0     C35668  -0.765   3.194   0.080 -0.8154  0.0895 -0.2061
  265MOL0     C35669  -0.772   3.337   0.299  0.6638  0.4561  0.6366
  265MOL0     C35670  -0.917   3.369   0.281  0.3636 -0.0529 -0.3227
  265MOL0     O35671  -0.970   3.430   0.391 -0.6853  0.3216  0.3890
  265MOL0     C35672  -1.105   3.465   0.385 -0.1925  0.1194  0.3179
  265MOL0     C35673  -1.125   3.594   0.334 -1.5721  0.1783 -0.5789
  265MOL0     C35674  -1.253   3.643   0.317  0.4845 -0.4952  0.0234
  265MOL0     C35675  -1.366   3.568   0.361 -0.1403 -0.0168  0.3348
  265MOL0     O35676  -1.490   3.619   0.351  0.1404 -0.1681  0.4643
  265MOL0     C35677  -1.597   3.523   0.350 -0.3490  0.8811 -0.0733
  265MOL0     C35678  -1.730   3.573   0.304  0.4172  0.4301 -1.0897
  265MOL0     C35679  -1.842   3.466   0.334  0.4593 -0.5914  0.0161
  265MOL0     C35680  -1.986   3.513   0.331 -0.5917 -0.5893  0.6844
  265MOL0     C35681  -2.073   3.401   0.368  0.4556  0.9723  1.0628
  265MOL0     C35682  -2.222   3.449   0.379 -0.7685  0.1251 -1.1502
  265MOL0     C35683  -2.312   3.334   0.406 -0.0963 -1.0287 -0.5206
  265MOL0     C35684  -2.461   3.372   0.424 -0.0194 -0.4767  0.3883
  265MOL0    Cl35685  -2.568   3.229   0.431 -0.0848  0.2655  0.1553
  265MOL0     C35686  -1.334   3.436   0.419  1.4345 -0.5902  0.0744
  265MOL0     C35687  -1.206   3.390   0.428  0.2885  0.1165  0.3599
  265MOL0     O35688  -0.984   3.320   0.188 -0.1840  0.5294  0.4284
  265MOL0     C35689  -0.691   3.417   0.387 -0.1544  0.1942  0.9540
  265MOL0     C35690  -0.563   3.387   0.411 -0.8134  0.5299 -0.7975
  265MOL0     N35691   0.179   3.393   0.253  0.3530  0.0096  0.0727
  265MOL0     N35692   0.283   3.450   0.202  0.0685  0.8843  0.3539
  265MOL0     C35693   1.415   3.430   0.342 -0.2985  0.0403 -0.0128
  265MOL0     C35694   1.518   3.402   0.251 -0.4749 -0.0832 -0.3807
  265MOL0     C35695   1.778   3.412  -0.117 -0.4584  0.2863  0.3606
  265MOL0     C35696   1.901   3.348  -0.128 -0.1781 -0.1019 -0.4999
  265MOL0     C35697   1.973   3.339  -0.251 -0.1405  0.7579 -0.2090
  265MOL0     C35698   1.915   3.388  -0.368  0.0500  0.1058 -0.1335
  265MOL0     O35699   1.988   3.367  -0.488  0.0593  0.3492 -0.1317
  265MOL0     C35700   1.911   3.369  -0.608  0.5200 -0.9829  0.0496
  265MOL0     C35701   1.977   3.311  -0.729  0.5575 -0.6939 -0.7282
  265MOL0     C35702   2.084   3.205  -0.703 -0.5442  0.2469  0.6790
  265MOL0     C35703   2.132   3.134  -0.833  0.5510 -0.3659 -0.2733
  265MOL0     C35704   2.053   3.016  -0.863 -0.0767  0.0240  0.1858
  265MOL0     C35705   1.965   2.930  -0.866  0.5208 -1.2900  0.5982
  265MOL0     C35706   1.784   3.449  -0.357 -0.4886 -0.6390  0.1784
  265MOL0     C35707   1.718   3.463  -0.232  0.5743 -0.2649  0.4812
  265MOL0     H35708   1.362   3.537  -0.020  2.6563 -1.0092 -0.7326
  265MOL0     H35709   1.167   3.539   0.127  1.6755  2.8496 -1.1994
  265MOL0     H35710   1.291   3.480   0.551  0.4943 -0.6694 -1.0905
  265MOL0     H35711   1.136   3.546   0.569  0.6263  0.4211 -1.2695
  265MOL0     H35712   1.168   3.255   0.461 -1.9196 -1.3657 -1.0993
  265MOL0     H35713   1.202   3.281   0.627  0.6914  0.0445 -1.7351
  265MOL0     H35714   0.986   3.206   0.618 -2.6068 -0.4225 -1.1195
  265MOL0     H35715   0.951   3.385   0.628  0.4479  2.0035 -2.5355
  265MOL0     H35716   0.919   3.392   0.383 -0.5124 -0.4715  0.3150
  265MOL0     H35717   0.928   3.216   0.378  0.7486  0.5583 -1.4512
  265MOL0     H35718   0.752   3.207   0.547  0.8924  0.4750 -0.0377
  265MOL0     H35719   0.724   3.372   0.552 -1.4415  4.0929 -4.3203
  265MOL0     H35720   0.699   3.206   0.288  0.4092 -0.3329  0.6719
  265MOL0     H35721   0.571   3.247   0.409  1.9568 -1.4301  2.8710
  265MOL0     H35722   0.576   3.474   0.340 -0.2283 -1.5789  0.9113
  265MOL0     H35723   0.714   3.431   0.228 -0.0598  0.1653 -2.1594
  265MOL0     H35724   0.559   3.272   0.108  1.6163  1.4733 -0.5892
  265MOL0     H35725   0.536   3.446   0.089  1.6962  0.2771 -0.3378
  265MOL0     H35726   0.394   3.156   0.297 -1.5411 -0.3052  1.7306
  265MOL0     H35727   0.124   3.067   0.300  0.6946 -0.4728 -0.0055
  265MOL0     H35728   0.104   3.159   0.447 -1.1078 -2.4425 -0.1293
  265MOL0     H35729  -0.038   3.203   0.186 -1.3185  2.2187  0.1987
  265MOL0     H35730  -0.073   3.317   0.303 -0.2813 -0.3914 -1.2803
  265MOL0     H35731  -0.157   3.161   0.476  0.1900 -0.4908  0.2168
  265MOL0     H35732  -0.136   3.031   0.352 -0.9888 -0.5053  1.8593
  265MOL0     H35733  -0.370   3.075   0.333 -1.2569  1.9402  2.0649
  265MOL0     H35734  -0.309   3.162   0.209 -0.9904 -2.2878  0.5251
  265MOL0     H35735  -0.531   3.147   0.166 -0.5999 -2.5579  2.0615
  265MOL0     H35736  -0.809   3.268   0.013 -3.7851 -0.9263  0.4373
  265MOL0     H35737  -0.696   3.131   0.024 -0.3035 -0.9387  1.4825
  265MOL0     H35738  -0.849   3.129   0.107  2.4615 -4.4733  0.2778
  265MOL0     H35739  -1.044   3.661   0.309 -0.5480 -0.9016 -0.2320
  265MOL0     H35740  -1.274   3.743   0.281 -0.3605  0.5275  3.0617
  265MOL0     H35741  -1.563   3.431   0.301  1.9576  0.1549  2.6699
  265MOL0     H35742  -1.629   3.489   0.448 -2.0657 -1.8996 -1.4684
  265MOL0     H35743  -1.747   3.658   0.370  2.3462  0.1420 -0.1572
  265MOL0     H35744  -1.729   3.610   0.201  1.9879 -0.4816 -1.4388
  265MOL0     H35745  -1.829   3.419   0.432  0.1051  1.7345  1.2586
  265MOL0     H35746  -1.826   3.395   0.252 -0.9815 -2.3705  1.1853
  265MOL0     H35747  -1.987   3.594   0.404 -1.2182 -2.2474  2.6188
  265MOL0     H35748  -2.009   3.552   0.232  2.0146 -0.1439  0.2022
  265MOL0     H35749  -2.039   3.356   0.461  0.6945 -0.0579  0.4877
  265MOL0     H35750  -2.070   3.330   0.284  0.4690  2.3739 -0.1726
  265MOL0     H35751  -2.229   3.521   0.461 -2.1199  0.2075 -1.3156
  265MOL0     H35752  -2.248   3.492   0.282  0.1168  1.2406 -0.9090
  265MOL0     H35753  -2.279   3.278   0.494 -3.4807 -0.1873  1.4794
  265MOL0     H35754  -2.287   3.270   0.321  0.5371  0.4694 -1.5008
  265MOL0     H35755  -2.482   3.431   0.334  1.7165  0.0013  0.2704
  265MOL0     H35756  -2.476   3.438   0.510  1.1115  0.8445 -0.3944
  265MOL0     H35757  -1.420   3.374   0.444 -0.2630  1.6943  0.2865
  265MOL0     H35758  -1.181   3.293   0.468 -2.0233  0.7595  3.8289
  265MOL0     H35759  -0.741   3.488   0.452 -3.2439 -0.3599 -0.6241
  265MOL0     H35760  -0.507   3.441   0.488 -0.5546 -0.8626  0.0236
  265MOL0     H35761   1.443   3.401   0.443  0.2472 -0.0945 -0.1984
  265MOL0     H35762   1.608   3.352   0.288 -0.7386  1.0380  1.9557
  265MOL0     H35763   1.938   3.310  -0.033 -0.6320  0.5620 -0.0494
  265MOL0     H35764   2.071   3.293  -0.244 -0.2257  0.8176  1.8681
  265MOL0     H35765   1.827   3.302  -0.592 -0.3641 -0.4658 -2.1372
  265MOL0     H35766   1.876   3.469  -0.635  1.1218 -1.3524 -2.3010
  265MOL0     H35767   2.021   3.384  -0.797 -0.9764 -0.1399 -1.1586
  265MOL0     H35768   1.892   3.269  -0.783 -1.1445 -1.5046  2.3191
  265MOL0     H35769   2.041   3.130  -0.636 -0.8525 -0.8712 -0.7080
  265MOL0     H35770   2.168   3.250  -0.649 -0.7632 -0.2815  1.4823
  265MOL0     H35771   2.236   3.103  -0.816  1.2149  2.2719  0.9710
  265MOL0     H35772   2.131   3.198  -0.922  1.1259 -1.5477 -1.1611
  265MOL0     H35773   1.885   2.858  -0.871  0.1329 -1.0308  2.4301
  265MOL0     H35774   1.733   3.486  -0.446 -1.0582 -1.5689  0.1025
  265MOL0     H35775   1.621   3.510  -0.221  2.0576  3.1397  0.2063
  266MOL0     O35776  10.487   9.165   7.901 -0.1891 -0.0142  0.1444
  266MOL0     C35777  10.501   9.255   7.981  0.1203 -0.2335 -0.1992
  266MOL0     O35778  10.401   9.306   8.053  0.3585  0.4037  0.2074
  266MOL0     C35779  10.290   9.220   8.070 -0.6773 -0.4180 -0.4164
  266MOL0     C35780  10.172   9.270   8.019 -0.3214 -0.3546 -0.1505
  266MOL0     C35781  10.052   9.196   8.026 -0.6337  0.4529 -0.4155
  266MOL0     C35782  10.063   9.074   8.098  0.1881  0.2892 -0.2069
  266MOL0     O35783   9.959   8.980   8.106 -0.6337 -0.5635 -0.3339
  266MOL0     C35784   9.866   8.983   7.999  0.9592 -0.2987  0.0564
  266MOL0     C35785   9.783   8.859   7.996  0.3647  0.0667  0.0315
  266MOL0     C35786   9.822   8.743   7.901  0.3674 -0.2477 -0.6804
  266MOL0     C35787   9.706   8.639   7.872 -0.0503  0.4316 -0.3338
  266MOL0     C35788   9.758   8.528   7.777 -0.7908  0.0380  0.2059
  266MOL0     C35789   9.829   8.598   7.656  0.6869 -0.1882 -0.0100
  266MOL0     C35790   9.824   8.516   7.540 -0.6234 -0.0085  0.9920
  266MOL0     C35791   9.896   8.591   7.422 -0.2583 -0.0174  0.2279
  266MOL0     N35792   9.834   8.713   7.375  0.0001  0.0856  0.2131
  266MOL0     C35793   9.703   8.753   7.403 -0.4193  0.5394 -0.0436
  266MOL0     C35794   9.675   8.860   7.330 -0.3262  0.5097 -0.4225
  266MOL0     C35795   9.540   8.924   7.323 -0.5329 -0.5130  0.2501
  266MOL0     C35796   9.453   8.847   7.223  0.8074 -0.7031  0.4021
  266MOL0     C35797   9.319   8.921   7.203  0.9103  0.7098  1.1646
  266MOL0     C35798   9.234   8.866   7.083  0.6963 -0.3222 -0.8029
  266MOL0     O35799   9.188   8.731   7.106  0.5592  0.5992  0.7803
  266MOL0     C35800   9.055   8.726   7.146 -0.5857 -0.5985 -0.6052
  266MOL0     C35801   9.025   8.680   7.273 -0.3980  0.0452  0.0455
  266MOL0     C35802   8.894   8.660   7.304  0.2696  0.5235  0.3394
  266MOL0     C35803   8.869   8.610   7.438 -0.0577  0.1391  0.1145
  266MOL0     C35804   8.784   8.687   7.212  0.4218  0.5183 -0.3762
  266MOL0     C35805   8.640   8.644   7.229  0.8552 -0.6429  0.0891
  266MOL0     O35806   8.553   8.701   7.142 -0.0176 -0.1650  0.0061
  266MOL0     C35807   8.422   8.662   7.150 -0.3061  0.2540  0.5488
  266MOL0     C35808   8.334   8.671   7.262 -0.1028 -0.2803  0.2002
  266MOL0     C35809   8.196   8.675   7.240  0.7308  0.3396 -0.2330
  266MOL0     C35810   8.138   8.652   7.112  0.0038 -0.0809  1.1529
  266MOL0     O35811   8.001   8.637   7.081  0.4046 -0.4327 -0.1550
  266MOL0     C35812   7.907   8.649   7.185  0.4107  0.1419 -1.0541
  266MOL0     C35813   7.773   8.597   7.143 -0.5012 -0.1248 -0.5942
  266MOL0     C35814   7.711   8.675   7.022 -1.1750 -0.6004  0.1472
  266MOL0     C35815   7.556   8.696   7.041 -0.7973 -0.1776 -0.3490
  266MOL0     C35816   7.488   8.798   6.944 -0.4905 -0.2524  0.0189
  266MOL0     C35817   7.349   8.813   6.978 -0.2309  0.4514 -0.2789
  266MOL0     C35818   7.280   8.927   6.904 -0.5078 -0.3115 -0.1307
  266MOL0     C35819   7.143   8.943   6.966  0.2244 -0.6364  0.2601
  266MOL0    Cl35820   7.153   9.034   7.125 -0.8344  0.1220  0.2161
  266MOL0     C35821   8.226   8.639   7.006  0.5072  0.5013  0.7237
  266MOL0     C35822   8.363   8.641   7.025 -0.5973  0.5701  0.1657
  266MOL0     O35823   8.606   8.546   7.300 -0.1422  0.3957  0.0521
  266MOL0     C35824   8.818   8.741   7.094 -0.0108 -0.6388  0.4815
  266MOL0     C35825   8.955   8.763   7.056  0.1937  1.1195 -0.9706
  266MOL0     N35826   9.790   8.893   7.266  0.0551 -0.1869 -0.1928
  266MOL0     N35827   9.888   8.810   7.293 -0.3709  0.2829  0.4187
  266MOL0     C35828  10.186   9.025   8.149  0.1214  0.4243  0.0643
  266MOL0     C35829  10.298   9.101   8.144  0.5071 -0.7251  0.8492
  266MOL0     C35830  10.633   9.322   7.979  0.8756  0.0271  0.2245
  266MOL0     C35831  10.739   9.267   7.912 -0.1834  0.0718  0.5176
  266MOL0     C35832  10.864   9.326   7.912 -0.3733 -0.3780  0.3607
  266MOL0     C35833  10.875   9.445   7.980 -0.2445  0.3025 -0.3438
  266MOL0     O35834  10.993   9.505   8.010 -0.0009 -0.1236 -0.4305
  266MOL0     C35835  11.117   9.467   7.942  0.6408 -0.1092 -0.4434
  266MOL0     C35836  11.239   9.559   7.978 -0.0062 -0.6265  0.8196
  266MOL0     C35837  11.238   9.697   7.916  0.3911  0.0584 -0.2129
  266MOL0     C35838  11.117   9.796   7.914 -0.2960  0.3618  0.1453
  266MOL0     C35839  11.166   9.931   7.889  0.0736  0.0465 -0.0823
  266MOL0     C35840  11.217  10.031   7.868  0.0749  0.1873  0.8781
  266MOL0     C35841  10.765   9.506   8.046 -0.0002  0.1233 -0.1552
  266MOL0     C35842  10.644   9.446   8.043  0.9432  0.2910 -0.8714
  266MOL0     H35843  10.168   9.371   7.979  1.0626 -0.7783 -1.4421
  266MOL0     H35844   9.956   9.227   7.986 -1.7066 -2.5589 -0.4409
  266MOL0     H35845   9.802   9.071   8.011 -2.4387 -2.4197 -1.2533
  266MOL0     H35846   9.926   8.981   7.907 -1.8961  1.1720 -1.9881
  266MOL0     H35847   9.762   8.828   8.099 -0.7932 -0.3072 -0.3070
  266MOL0     H35848   9.680   8.880   7.967 -0.2821 -0.0982  2.0564
  266MOL0     H35849   9.873   8.792   7.817  1.7797  1.6417  1.1782
  266MOL0     H35850   9.899   8.682   7.951  0.8157  0.3358 -0.6489
  266MOL0     H35851   9.673   8.588   7.963 -0.2007 -1.0337 -1.1784
  266MOL0     H35852   9.619   8.695   7.839 -0.6877 -1.1037 -1.3760
  266MOL0     H35853   9.834   8.472   7.834 -1.0568 -0.1026  0.4295
  266MOL0     H35854   9.675   8.461   7.755 -0.4017  0.0768 -1.5100
  266MOL0     H35855   9.771   8.688   7.634  1.1444  0.7719  2.3214
  266MOL0     H35856   9.929   8.636   7.678  0.3187  1.8783 -1.5451
  266MOL0     H35857   9.884   8.426   7.554 -1.1242 -0.4350  0.4783
  266MOL0     H35858   9.720   8.484   7.522 -0.3283 -0.5898  0.2730
  266MOL0     H35859   9.907   8.528   7.333  0.0622  1.5574 -0.8879
  266MOL0     H35860   9.997   8.619   7.456  0.6312 -3.1756  0.5250
  266MOL0     H35861   9.641   8.695   7.469  0.0201 -2.4519 -2.0543
  266MOL0     H35862   9.487   8.943   7.417  1.6995  2.6644  1.0446
  266MOL0     H35863   9.551   9.026   7.285  2.3184  0.3459  2.9481
  266MOL0     H35864   9.443   8.745   7.259  1.3478 -0.4855  1.1801
  266MOL0     H35865   9.506   8.846   7.127  0.4436  1.4844  0.1203
  266MOL0     H35866   9.343   9.025   7.181  1.7876  0.2426 -0.2936
  266MOL0     H35867   9.252   8.923   7.289 -2.2842  2.0240 -1.1933
  266MOL0     H35868   9.292   8.874   6.990  0.6396  1.3955 -0.7089
  266MOL0     H35869   9.152   8.935   7.061  0.1373 -1.1509 -1.3898
  266MOL0     H35870   9.103   8.647   7.341  1.2070 -1.1748 -2.2797
  266MOL0     H35871   8.778   8.550   7.450  0.1137 -0.1736 -0.1655
  266MOL0     H35872   8.958   8.554   7.468  0.9448  2.2686  1.3986
  266MOL0     H35873   8.848   8.700   7.498 -2.1840  0.6996 -1.3353
  266MOL0     H35874   8.374   8.688   7.362  0.3594 -0.0230 -0.0230
  266MOL0     H35875   8.124   8.679   7.321 -3.9292 -2.1771 -3.7423
  266MOL0     H35876   7.947   8.603   7.276 -0.3958  0.3088 -0.6075
  266MOL0     H35877   7.887   8.755   7.200 -0.5548  0.2916 -3.1842
  266MOL0     H35878   7.781   8.491   7.119  1.7925 -0.5443  1.5407
  266MOL0     H35879   7.710   8.597   7.233 -0.1491 -0.8816 -0.3409
  266MOL0     H35880   7.739   8.607   6.941  2.2386 -2.6635  2.7611
  266MOL0     H35881   7.752   8.777   7.020 -0.9507 -0.6669  1.0679
  266MOL0     H35882   7.516   8.595   7.026  1.6984 -1.2657 -0.3223
  266MOL0     H35883   7.551   8.733   7.143  1.3082 -0.4250 -0.1047
  266MOL0     H35884   7.507   8.763   6.842  2.4936 -1.7359  0.9675
  266MOL0     H35885   7.548   8.889   6.942 -1.5954  0.5047  0.5257
  266MOL0     H35886   7.286   8.725   6.961 -1.4976  0.5583  3.2214
  266MOL0     H35887   7.346   8.831   7.086  0.4636 -1.4265  0.0878
  266MOL0     H35888   7.257   8.895   6.803 -4.3203 -0.9661  0.8089
  266MOL0     H35889   7.349   9.012   6.907 -2.3827  1.4961 -3.3389
  266MOL0     H35890   7.092   8.846   6.972 -2.7870 -0.1289 -6.7170
  266MOL0     H35891   7.084   9.009   6.902  1.9197  1.7750  1.0734
  266MOL0     H35892   8.184   8.622   6.907  2.4317  2.0164 -0.4383
  266MOL0     H35893   8.432   8.650   6.941 -1.3229  2.9197 -0.2520
  266MOL0     H35894   8.748   8.774   7.018  2.8876  1.8477 -1.3523
  266MOL0     H35895   8.977   8.806   6.959 -4.7968  2.5404 -1.7591
  266MOL0     H35896  10.183   8.923   8.184 -0.8617  0.2932 -0.3698
  266MOL0     H35897  10.396   9.076   8.183  1.8686  1.8162 -0.7188
  266MOL0     H35898  10.722   9.173   7.861 -3.9441  0.1505  1.3171
  266MOL0     H35899  10.951   9.291   7.859  0.7864  0.2203  1.8156
  266MOL0     H35900  11.128   9.365   7.982  0.0306 -0.6447 -1.5869
  266MOL0     H35901  11.103   9.456   7.834 -0.7397  0.0021 -0.2996
  266MOL0     H35902  11.330   9.501   7.957 -0.8804 -0.5020 -4.5459
  266MOL0     H35903  11.236   9.574   8.087  2.7069  1.0984  0.7625
  266MOL0     H35904  11.255   9.676   7.810 -2.1532 -0.7982 -0.5037
  266MOL0     H35905  11.321   9.753   7.960 -1.3392  2.9305 -0.3392
  266MOL0     H35906  11.054   9.792   8.004  1.0653 -0.0422  1.1108
  266MOL0     H35907  11.053   9.769   7.829  0.5703 -4.5416  0.7208
  266MOL0     H35908  11.259  10.126   7.842 -1.0473 -0.1085 -2.4768
  266MOL0     H35909  10.780   9.601   8.096  0.0214 -0.0339  0.1422
  266MOL0     H35910  10.560   9.490   8.097  2.2115 -1.0604  2.5057
  267MOL0     O35911   8.813   7.955   6.800 -0.1875  0.1801  0.1170
  267MOL0     C35912   8.756   8.063   6.767 -0.4039 -0.1677 -0.6782
  267MOL0     O35913   8.797   8.157   6.676  0.2248  0.3937 -0.3087
  267MOL0     C35914   8.895   8.122   6.592  1.0221  0.4026 -0.2005
  267MOL0     C35915   8.985   8.223   6.562  0.5282 -0.2176 -0.4455
  267MOL0     C35916   9.084   8.200   6.459  0.8953  0.0363  0.0274
  267MOL0     C35917   9.083   8.088   6.377 -1.5516 -0.4461 -0.2593
  267MOL0     O35918   9.168   8.087   6.271 -0.0657 -0.1739  0.3348
  267MOL0     C35919   9.165   7.999   6.157 -0.6126  0.1151 -0.1141
  267MOL0     C35920   9.126   8.081   6.032 -0.4096 -0.0156  0.5072
  267MOL0     C35921   8.972   8.113   6.029  0.1024 -0.3568  0.0223
  267MOL0     C35922   8.932   8.211   5.920  0.2967  0.1886  0.0830
  267MOL0     C35923   8.784   8.250   5.945  0.0213 -0.5194  0.1524
  267MOL0     C35924   8.693   8.126   5.914 -0.7884 -0.2405  0.4643
  267MOL0     C35925   8.543   8.165   5.903  0.1007  0.3317 -0.7060
  267MOL0     C35926   8.471   8.047   5.853 -0.1069 -0.2534 -0.1007
  267MOL0     N35927   8.334   8.080   5.815  0.0489 -0.6257 -0.7108
  267MOL0     C35928   8.269   8.061   5.691 -0.2078  0.3276 -0.1007
  267MOL0     C35929   8.147   8.107   5.708  0.5380 -0.1813  0.0901
  267MOL0     C35930   8.018   8.084   5.629  1.1825  0.1174 -0.7787
  267MOL0     C35931   7.939   7.971   5.699 -0.2959  0.3792  0.4992
  267MOL0     C35932   7.798   7.942   5.639 -0.5047 -0.4051 -0.6733
  267MOL0     C35933   7.732   7.852   5.742 -0.4841  0.5372 -0.1099
  267MOL0     O35934   7.613   7.797   5.679  0.5176 -0.4014  0.7320
  267MOL0     C35935   7.561   7.685   5.730  0.3166  0.9228 -0.0713
  267MOL0     C35936   7.589   7.640   5.857  0.1963 -0.1879  0.9906
  267MOL0     C35937   7.525   7.536   5.919  0.9064 -1.0710 -0.1603
  267MOL0     C35938   7.554   7.512   6.072 -0.3305 -0.3705  0.2725
  267MOL0     C35939   7.441   7.455   5.841 -0.2180 -0.5730 -0.4599
  267MOL0     C35940   7.365   7.335   5.890 -0.7030  0.5624  0.1016
  267MOL0     O35941   7.253   7.283   5.829  0.5996  0.3582 -0.5236
  267MOL0     C35942   7.192   7.185   5.894  0.2603 -0.2530 -0.6227
  267MOL0     C35943   7.085   7.211   5.966 -0.5441 -0.0452  0.3461
  267MOL0     C35944   7.010   7.112   6.027  0.2578  1.0959 -0.4739
  267MOL0     C35945   7.036   6.976   6.010 -0.2003  0.7351  1.6658
  267MOL0     O35946   6.964   6.871   6.063 -0.1139  0.7838  0.6543
  267MOL0     C35947   6.821   6.895   6.084 -0.6957 -0.4440 -0.0169
  267MOL0     C35948   6.746   6.769   6.115 -0.2471 -0.2799  0.3244
  267MOL0     C35949   6.670   6.722   5.993  0.3135 -0.1876  0.0825
  267MOL0     C35950   6.577   6.603   6.018  0.1446 -0.4059 -0.5355
  267MOL0     C35951   6.488   6.578   5.897 -1.0390 -0.4882 -0.5122
  267MOL0     C35952   6.377   6.479   5.923  0.3006 -0.5419 -0.7224
  267MOL0     C35953   6.281   6.487   5.799 -0.4133  0.6558  0.8878
  267MOL0     C35954   6.169   6.391   5.794 -0.0035 -0.5430 -0.4815
  267MOL0    Cl35955   6.060   6.403   5.938 -0.0541 -0.4037 -0.1283
  267MOL0     C35956   7.150   6.941   5.925  0.9146 -0.9107  1.3830
  267MOL0     C35957   7.225   7.050   5.869 -0.6995  0.1348 -0.8189
  267MOL0     O35958   7.409   7.287   5.993 -0.1103  0.2073 -0.0108
  267MOL0     C35959   7.401   7.506   5.710  0.7280 -0.1020  0.0873
  267MOL0     C35960   7.460   7.620   5.663  0.3520 -0.4376 -0.7317
  267MOL0     N35961   8.140   8.172   5.834  0.6153 -0.1627  0.4754
  267MOL0     N35962   8.249   8.158   5.899 -0.1323  0.1768 -0.0954
  267MOL0     C35963   8.996   7.986   6.405 -0.5141 -0.5336  0.7170
  267MOL0     C35964   8.905   8.004   6.504  0.3744 -0.0152 -0.6537
  267MOL0     C35965   8.637   8.100   6.855  0.6203  0.5329  0.3932
  267MOL0     C35966   8.563   8.009   6.932 -0.6046  0.2159 -0.5536
  267MOL0     C35967   8.455   8.041   6.997 -0.2153  0.5042 -0.3525
  267MOL0     C35968   8.411   8.171   7.003  0.1930  0.0038 -0.9647
  267MOL0     O35969   8.292   8.196   7.074 -0.7992 -0.0401 -0.3028
  267MOL0     C35970   8.299   8.290   7.184 -0.6480 -0.3907 -0.4086
  267MOL0     C35971   8.224   8.239   7.298  0.1027 -0.2554 -0.0988
  267MOL0     C35972   8.169   8.358   7.385  0.3844 -0.2390  0.1021
  267MOL0     C35973   8.115   8.312   7.519 -0.9017  0.2519 -0.2834
  267MOL0     C35974   8.088   8.430   7.606  1.0469 -0.2755  0.6132
  267MOL0     C35975   8.067   8.527   7.680  0.1044 -0.1381  0.0838
  267MOL0     C35976   8.480   8.269   6.931  0.1900  0.2564 -0.5450
  267MOL0     C35977   8.589   8.230   6.844 -0.0220  0.3349  0.1048
  267MOL0     H35978   8.998   8.314   6.620 -0.0972 -0.8419  0.7266
  267MOL0     H35979   9.160   8.275   6.435 -0.4935  0.8097 -2.3608
  267MOL0     H35980   9.268   7.963   6.146 -0.6509  0.1242 -0.5010
  267MOL0     H35981   9.105   7.908   6.162 -2.0980  1.1003  1.3512
  267MOL0     H35982   9.176   8.178   6.024 -0.2827 -0.1735 -0.7259
  267MOL0     H35983   9.159   8.020   5.948  1.4620  0.2699  0.9902
  267MOL0     H35984   8.912   8.022   6.024  1.2565 -1.0969 -1.0950
  267MOL0     H35985   8.960   8.168   6.123 -0.3631 -0.1156 -0.1802
  267MOL0     H35986   8.996   8.299   5.910  2.1114 -1.3232 -3.4118
  267MOL0     H35987   8.936   8.180   5.815  1.8949  2.6347 -0.6688
  267MOL0     H35988   8.770   8.296   6.043  2.6447 -0.2684  0.4768
  267MOL0     H35989   8.765   8.326   5.868 -0.2485 -2.3261 -1.6445
  267MOL0     H35990   8.719   8.089   5.815  0.0177  2.2747 -0.3135
  267MOL0     H35991   8.691   8.043   5.986  1.9461  0.6863  1.7469
  267MOL0     H35992   8.502   8.196   6.000  2.6913  3.3760 -0.4054
  267MOL0     H35993   8.523   8.248   5.834  2.7418  0.7473 -1.1083
  267MOL0     H35994   8.472   7.966   5.927  0.2868  0.3277  0.5406
  267MOL0     H35995   8.524   8.005   5.768  2.2844  0.7958  0.7930
  267MOL0     H35996   8.301   7.995   5.611 -0.1682  0.8692 -0.5328
  267MOL0     H35997   7.952   8.170   5.618 -0.2052 -0.9722 -1.3167
  267MOL0     H35998   8.046   8.052   5.528 -2.9832 -1.1821 -1.7316
  267MOL0     H35999   7.932   7.983   5.808  1.0788 -1.5472  0.8461
  267MOL0     H36000   8.000   7.882   5.682 -0.9780 -0.1548  0.7512
  267MOL0     H36001   7.785   7.915   5.533 -2.0350 -0.0914 -0.5907
  267MOL0     H36002   7.739   8.034   5.639  0.2764  0.1002 -0.5201
  267MOL0     H36003   7.703   7.903   5.834 -2.0539 -0.4152 -0.0342
  267MOL0     H36004   7.807   7.779   5.772  0.7292  1.6228 -0.4269
  267MOL0     H36005   7.657   7.696   5.920 -0.1607 -0.7074  1.8624
  267MOL0     H36006   7.611   7.420   6.091  0.2825 -0.0767 -0.1013
  267MOL0     H36007   7.608   7.597   6.115 -0.8721 -0.3470  0.9201
  267MOL0     H36008   7.458   7.507   6.124 -1.8627  3.2940 -1.8709
  267MOL0     H36009   7.063   7.312   5.997 -0.2784  0.0642  0.1793
  267MOL0     H36010   6.914   7.134   6.074 -0.9240 -2.0609 -1.1927
  267MOL0     H36011   6.797   6.957   6.170 -0.1581 -0.1340 -0.0879
  267MOL0     H36012   6.772   6.952   6.004  1.2336  1.0043 -0.2261
  267MOL0     H36013   6.821   6.695   6.143  0.2469 -0.1915 -0.7264
  267MOL0     H36014   6.677   6.786   6.199 -1.9363  0.5368 -1.1490
  267MOL0     H36015   6.743   6.684   5.921  1.5098 -2.6891  2.3975
  267MOL0     H36016   6.618   6.808   5.951 -2.0366 -0.7861  1.5218
  267MOL0     H36017   6.621   6.507   6.046  1.2128 -0.0309 -0.8978
  267MOL0     H36018   6.505   6.623   6.099  0.1800 -2.6498  0.1081
  267MOL0     H36019   6.557   6.536   5.824 -0.5742 -2.5355  0.9970
  267MOL0     H36020   6.439   6.670   5.862  0.0480  0.2673 -0.1086
  267MOL0     H36021   6.402   6.375   5.943  0.0888 -0.2601  1.1780
  267MOL0     H36022   6.320   6.507   6.012 -1.8277 -0.5097 -2.0018
  267MOL0     H36023   6.340   6.478   5.708 -0.7808  0.8199  0.6302
  267MOL0     H36024   6.233   6.586   5.801 -2.0742 -0.0050 -1.4179
  267MOL0     H36025   6.210   6.290   5.788  2.9539  0.6026 -1.7518
  267MOL0     H36026   6.106   6.422   5.711 -1.1823 -2.9681 -0.5673
  267MOL0     H36027   7.179   6.839   5.901  0.2014 -0.8493  0.1963
  267MOL0     H36028   7.306   7.028   5.800  1.8809  1.0434  1.7006
  267MOL0     H36029   7.329   7.459   5.644 -1.8273  3.3293  0.1577
  267MOL0     H36030   7.431   7.668   5.570 -0.8189  0.9948  0.3413
  267MOL0     H36031   9.001   7.900   6.339  1.2122  1.0758 -1.4411
  267MOL0     H36032   8.831   7.926   6.518  0.5489 -0.2013 -0.7660
  267MOL0     H36033   8.594   7.905   6.930  0.5558  0.4125  2.3729
  267MOL0     H36034   8.411   7.958   7.049  0.6476 -1.0980 -2.0570
  267MOL0     H36035   8.405   8.310   7.207 -1.7129  3.5875  2.1186
  267MOL0     H36036   8.248   8.381   7.151  0.9591  1.2363  1.3253
  267MOL0     H36037   8.294   8.180   7.357  1.3613  1.8162  0.5933
  267MOL0     H36038   8.134   8.182   7.276 -1.1552  1.5799  0.0714
  267MOL0     H36039   8.095   8.416   7.328  2.7480  2.6355 -0.2691
  267MOL0     H36040   8.261   8.415   7.403 -0.9765  1.6595  1.5224
  267MOL0     H36041   8.184   8.244   7.571 -1.4538  0.8381  1.2888
  267MOL0     H36042   8.023   8.254   7.507  1.1774 -3.8728  1.5372
  267MOL0     H36043   8.051   8.619   7.733 -0.9612 -0.0266 -0.4303
  267MOL0     H36044   8.459   8.374   6.944 -1.6736 -0.1442  0.0256
  267MOL0     H36045   8.636   8.309   6.785  1.2207  0.4128  1.1613
  268MOL0     O36046   6.556   8.390   4.696 -0.2390 -0.1045 -0.4803
  268MOL0     C36047   6.616   8.495   4.673 -0.5961 -0.0785 -0.2181
  268MOL0     O36048   6.555   8.610   4.638 -0.6331 -0.4505  0.5176
  268MOL0     C36049   6.429   8.612   4.595  0.5004 -0.2138  0.2028
  268MOL0     C36050   6.352   8.713   4.643 -0.9605 -0.5687 -0.3651
  268MOL0     C36051   6.222   8.716   4.599  0.4255 -0.0783 -0.3233
  268MOL0     C36052   6.163   8.642   4.496  0.1030  0.1566 -0.3019
  268MOL0     O36053   6.043   8.665   4.440  0.5325 -0.1628  0.0494
  268MOL0     C36054   5.931   8.688   4.541 -0.1634  0.2557  0.5945
  268MOL0     C36055   5.802   8.646   4.467  0.5636 -0.8980 -0.2065
  268MOL0     C36056   5.711   8.566   4.554  0.3181  0.6048  0.5713
  268MOL0     C36057   5.649   8.644   4.664 -0.0632  0.7707  0.4160
  268MOL0     C36058   5.586   8.541   4.770  0.0102  0.7957 -0.0792
  268MOL0     C36059   5.532   8.623   4.892 -0.1251 -1.0159  0.5449
  268MOL0     C36060   5.456   8.754   4.850  0.4227  0.0555 -0.5429
  268MOL0     C36061   5.387   8.815   4.978 -0.0748 -0.8030 -0.2814
  268MOL0     N36062   5.293   8.730   5.046  0.7576  0.1327  0.0934
  268MOL0     C36063   5.179   8.692   4.991 -0.5269 -1.3163 -0.2367
  268MOL0     C36064   5.110   8.625   5.085 -0.0595 -0.6372 -0.2724
  268MOL0     C36065   4.974   8.574   5.081  0.5947  0.2224 -0.0653
  268MOL0     C36066   4.959   8.446   5.173  0.0329  0.5852 -0.3680
  268MOL0     C36067   4.937   8.325   5.090  0.0726  0.8185  0.2640
  268MOL0     C36068   4.790   8.319   5.033 -0.3401  0.3991  0.0660
  268MOL0     O36069   4.689   8.322   5.137 -0.5626 -0.0998  0.3681
  268MOL0     C36070   4.559   8.300   5.105  0.3693  0.1967  0.3160
  268MOL0     C36071   4.471   8.334   5.205  0.1931 -0.4915 -0.3149
  268MOL0     C36072   4.328   8.326   5.186 -0.5217 -0.1798 -0.7933
  268MOL0     C36073   4.238   8.365   5.300  0.5807  0.9542 -0.0677
  268MOL0     C36074   4.277   8.277   5.061 -1.6149  0.7465  0.3696
  268MOL0     C36075   4.138   8.253   5.022 -0.4323  0.0532 -0.6615
  268MOL0     O36076   4.090   8.285   4.892 -0.1457 -0.2399 -0.4668
  268MOL0     C36077   3.954   8.276   4.870 -0.6317 -0.4712 -0.4746
  268MOL0     C36078   3.904   8.178   4.782 -0.3508  0.1304 -0.4967
  268MOL0     C36079   3.766   8.172   4.758 -0.4113  0.1817  0.1102
  268MOL0     C36080   3.676   8.263   4.817  0.0128  0.0127  0.7901
  268MOL0     O36081   3.542   8.277   4.781 -0.1398  0.1547  0.0031
  268MOL0     C36082   3.480   8.167   4.706 -0.9967  0.1898 -0.0200
  268MOL0     C36083   3.337   8.201   4.671 -0.3181 -0.1413  0.0233
  268MOL0     C36084   3.283   8.086   4.594 -0.6195 -0.0099 -0.0001
  268MOL0     C36085   3.128   8.086   4.594  0.7156  0.1142  0.4663
  268MOL0     C36086   3.072   7.983   4.497  0.0000 -0.0304 -0.7148
  268MOL0     C36087   2.918   7.966   4.517 -0.4328  0.4899 -0.6688
  268MOL0     C36088   2.825   8.070   4.438 -1.0011 -0.3484  0.6933
  268MOL0     C36089   2.685   8.072   4.499 -0.2093 -0.1342 -0.0063
  268MOL0    Cl36090   2.558   8.115   4.392  0.5309  0.1438 -0.4699
  268MOL0     C36091   3.731   8.362   4.908 -0.4970  0.4321  0.0508
  268MOL0     C36092   3.870   8.368   4.930  0.5263 -0.3054 -0.7984
  268MOL0     O36093   4.073   8.215   5.119 -0.2902  0.1918  0.0878
  268MOL0     C36094   4.375   8.244   4.959  0.0086  0.8525 -0.2644
  268MOL0     C36095   4.516   8.254   4.986  0.4072  0.2370 -0.0904
  268MOL0     N36096   5.188   8.626   5.200 -0.6488 -0.0284  0.5359
  268MOL0     N36097   5.293   8.697   5.175  0.1126 -0.4790  0.2717
  268MOL0     C36098   6.253   8.544   4.438  0.7528 -0.0237  0.4815
  268MOL0     C36099   6.380   8.520   4.494 -0.6625 -0.2148  0.3177
  268MOL0     C36100   6.761   8.496   4.696 -0.1541 -0.5853 -0.1858
  268MOL0     C36101   6.842   8.615   4.653 -0.5720 -0.0203  0.4177
  268MOL0     C36102   6.980   8.605   4.658 -0.2162 -0.0583 -0.0160
  268MOL0     C36103   7.050   8.496   4.717  0.1116  0.2847  0.4824
  268MOL0     O36104   7.189   8.492   4.710  0.6031  0.1200 -0.5877
  268MOL0     C36105   7.264   8.391   4.768  0.0919  0.8333 -0.3348
  268MOL0     C36106   7.392   8.373   4.699 -0.5013  0.1246 -0.0845
  268MOL0     C36107   7.503   8.325   4.801  0.6426 -0.2873 -0.5201
  268MOL0     C36108   7.633   8.324   4.727 -0.6322  0.3067  0.6142
  268MOL0     C36109   7.738   8.262   4.808 -0.2429  0.7943 -0.4176
  268MOL0     C36110   7.819   8.199   4.877 -0.1138  0.5131 -0.4582
  268MOL0     C36111   6.972   8.388   4.759  1.0286 -0.1653 -0.9754
  268MOL0     C36112   6.832   8.388   4.747 -0.3087 -0.1471  0.1554
  268MOL0     H36113   6.400   8.791   4.701 -1.8307  0.6126 -1.2068
  268MOL0     H36114   6.163   8.798   4.639  1.5624  1.4571 -1.6320
  268MOL0     H36115   5.945   8.643   4.640  1.1127  1.4734  0.9969
  268MOL0     H36116   5.921   8.794   4.567 -0.5567 -0.0033  1.5489
  268MOL0     H36117   5.739   8.731   4.439 -0.1236 -1.8035 -1.5742
  268MOL0     H36118   5.831   8.602   4.371 -0.4112 -2.4342  0.1604
  268MOL0     H36119   5.634   8.510   4.500 -2.1496  1.6527  2.8299
  268MOL0     H36120   5.775   8.485   4.590 -0.8387 -0.0304  1.2738
  268MOL0     H36121   5.723   8.698   4.725  1.9860 -2.1863  0.7209
  268MOL0     H36122   5.576   8.716   4.625  2.3903  2.8235 -0.6408
  268MOL0     H36123   5.505   8.478   4.733  1.6264 -2.0898  0.9254
  268MOL0     H36124   5.662   8.470   4.805 -1.0045  0.1364  0.8424
  268MOL0     H36125   5.475   8.557   4.958  0.6732 -0.8509  1.4312
  268MOL0     H36126   5.616   8.660   4.952  0.9782 -0.3678 -1.3116
  268MOL0     H36127   5.523   8.831   4.811  0.0090  1.0256  0.5983
  268MOL0     H36128   5.387   8.721   4.772 -3.4108  2.3200  1.5623
  268MOL0     H36129   5.320   8.896   4.945  0.1481  0.4048  2.0566
  268MOL0     H36130   5.461   8.857   5.047  0.1615 -1.4219 -0.1587
  268MOL0     H36131   5.148   8.717   4.890  1.6591 -1.7288 -1.0539
  268MOL0     H36132   4.911   8.661   5.102  0.8528  1.2140 -2.9185
  268MOL0     H36133   4.960   8.546   4.976  1.8962 -0.7620 -0.0011
  268MOL0     H36134   4.874   8.447   5.242  0.7859 -2.2094  0.7363
  268MOL0     H36135   5.044   8.428   5.239 -1.3864 -0.2483  1.2908
  268MOL0     H36136   4.939   8.233   5.149 -2.0615 -0.3986 -1.4089
  268MOL0     H36137   5.011   8.314   5.011 -1.1214 -1.1266 -0.6699
  268MOL0     H36138   4.782   8.226   4.975  0.7579  0.3791 -0.0741
  268MOL0     H36139   4.777   8.399   4.959  3.4099 -1.6330 -3.2197
  268MOL0     H36140   4.503   8.384   5.296  0.6707 -0.8153 -0.3002
  268MOL0     H36141   4.301   8.349   5.388 -2.0128  1.5263  2.0263
  268MOL0     H36142   4.204   8.469   5.294 -0.8201  0.4262 -1.6580
  268MOL0     H36143   4.160   8.293   5.325 -1.4438  4.1450  4.0542
  268MOL0     H36144   3.974   8.117   4.724  1.8450  2.7526 -0.8070
  268MOL0     H36145   3.728   8.088   4.700  0.3459 -0.3442  0.3505
  268MOL0     H36146   3.530   8.160   4.609 -0.2034 -1.1064  0.4557
  268MOL0     H36147   3.486   8.071   4.758 -3.5433 -0.7410 -1.2809
  268MOL0     H36148   3.283   8.208   4.766 -2.5229  0.2501 -1.1990
  268MOL0     H36149   3.324   8.296   4.619 -0.7558  0.3775  1.0583
  268MOL0     H36150   3.317   7.988   4.630  0.8091 -0.8608 -3.2872
  268MOL0     H36151   3.331   8.094   4.496 -0.8495  5.0108  0.0473
  268MOL0     H36152   3.093   8.059   4.694  1.5061 -3.6304 -0.1144
  268MOL0     H36153   3.098   8.188   4.568  3.4654  0.3536 -2.4524
  268MOL0     H36154   3.126   7.889   4.509 -1.0989 -0.6427 -0.4273
  268MOL0     H36155   3.093   8.016   4.395  0.0596 -0.5875 -0.8864
  268MOL0     H36156   2.887   7.866   4.485 -0.1122  0.1010  0.2050
  268MOL0     H36157   2.902   7.981   4.624  0.5228 -0.4829 -0.3743
  268MOL0     H36158   2.818   8.033   4.336 -1.1158  1.3241  0.0574
  268MOL0     H36159   2.877   8.167   4.443 -0.7850 -0.4880  1.2348
  268MOL0     H36160   2.705   8.137   4.585 -1.9229  0.1009  0.2640
  268MOL0     H36161   2.665   7.974   4.545 -0.1220 -0.0091  0.3010
  268MOL0     H36162   3.657   8.433   4.944 -0.6330 -0.3654  1.4077
  268MOL0     H36163   3.909   8.445   4.996  0.6039 -1.6121  0.7593
  268MOL0     H36164   4.353   8.205   4.860  0.8873  1.6283 -0.7779
  268MOL0     H36165   4.573   8.249   4.894 -1.7471  0.1820 -1.4926
  268MOL0     H36166   6.216   8.491   4.350 -0.7338  1.0860  0.3835
  268MOL0     H36167   6.439   8.440   4.450 -0.5129  0.2421 -0.3168
  268MOL0     H36168   6.800   8.699   4.599  1.5585 -0.4249 -2.0568
  268MOL0     H36169   7.041   8.680   4.610 -1.4786 -0.0791 -1.7551
  268MOL0     H36170   7.276   8.415   4.874  0.5474  1.3665 -0.5044
  268MOL0     H36171   7.222   8.290   4.767  0.1330  0.8180 -1.0245
  268MOL0     H36172   7.417   8.464   4.644 -0.3675 -0.6382 -1.3034
  268MOL0     H36173   7.379   8.296   4.624  1.3643  0.6686 -1.0016
  268MOL0     H36174   7.483   8.221   4.827  0.5097 -0.7154 -2.2265
  268MOL0     H36175   7.505   8.391   4.889 -1.4274  2.0241 -2.0839
  268MOL0     H36176   7.679   8.420   4.700 -1.1842  0.1384 -1.0260
  268MOL0     H36177   7.621   8.272   4.632 -0.0535 -2.9574  2.2060
  268MOL0     H36178   7.878   8.139   4.943 -1.8967  0.8744  1.5964
  268MOL0     H36179   7.007   8.295   4.802 -1.7555 -0.4027  1.0740
  268MOL0     H36180   6.775   8.298   4.769 -1.1564  0.3943  0.2233
  269MOL0     O36181   1.993   2.570   1.375  0.3943  0.6242 -0.1160
  269MOL0     C36182   2.066   2.616   1.459 -0.3431 -0.5387  0.1446
  269MOL0     O36183   2.044   2.610   1.589 -0.3107 -0.2921  0.3045
  269MOL0     C36184   1.933   2.546   1.642  0.5007  0.9261 -0.4894
  269MOL0     C36185   1.866   2.599   1.750 -0.2653 -0.2101 -1.9499
  269MOL0     C36186   1.752   2.545   1.812  0.1207 -0.0394  0.0104
  269MOL0     C36187   1.704   2.422   1.754 -0.3709 -0.3606  0.4093
  269MOL0     O36188   1.591   2.363   1.792  0.0315 -0.4446  0.0176
  269MOL0     C36189   1.555   2.384   1.933 -0.0498  0.4550  0.0290
  269MOL0     C36190   1.432   2.287   1.960 -0.4963  0.0578 -0.0957
  269MOL0     C36191   1.405   2.294   2.103  0.2464  0.3097 -0.3523
  269MOL0     C36192   1.280   2.212   2.149 -0.0055  0.5266 -0.2668
  269MOL0     C36193   1.304   2.062   2.186  0.9339  0.2987 -0.7274
  269MOL0     C36194   1.167   1.981   2.181  0.4886  0.3621 -0.6732
  269MOL0     C36195   1.058   2.057   2.263 -0.2412 -0.2984  0.1430
  269MOL0     C36196   0.932   1.988   2.233 -0.1666 -0.1389  0.0264
  269MOL0     N36197   0.818   2.039   2.314 -0.7343  0.4199 -0.2292
  269MOL0     C36198   0.828   2.088   2.437  0.3728 -0.0442  0.2041
  269MOL0     C36199   0.704   2.151   2.466  0.1227 -0.4380 -0.6117
  269MOL0     C36200   0.669   2.232   2.584 -0.1677 -0.7690 -0.1639
  269MOL0     C36201   0.522   2.195   2.623  0.1839  0.3222 -0.2129
  269MOL0     C36202   0.475   2.297   2.716  0.4286  0.7002  0.1731
  269MOL0     C36203   0.347   2.246   2.778  0.1822 -0.0792 -0.2832
  269MOL0     O36204   0.284   2.357   2.852 -0.6267 -0.2721 -0.3870
  269MOL0     C36205   0.164   2.325   2.908 -0.1461  0.0151 -0.0503
  269MOL0     C36206   0.079   2.432   2.936 -0.3899 -0.2368 -0.3582
  269MOL0     C36207  -0.046   2.424   3.000 -0.1115  0.4396 -0.2391
  269MOL0     C36208  -0.117   2.555   3.037 -0.7242  0.2549  0.5822
  269MOL0     C36209  -0.094   2.292   3.032 -0.2347 -0.4329 -0.4366
  269MOL0     C36210  -0.237   2.268   3.081 -0.2131  0.2496 -0.6438
  269MOL0     O36211  -0.275   2.134   3.093 -0.4731 -0.2255  0.6855
  269MOL0     C36212  -0.399   2.102   3.136  0.5279  0.0798  0.5270
  269MOL0     C36213  -0.473   2.013   3.058 -0.5926  0.1239  0.0634
  269MOL0     C36214  -0.602   1.973   3.087 -0.0028 -0.3425 -0.2763
  269MOL0     C36215  -0.655   2.015   3.206 -0.5019 -0.0516 -0.4659
  269MOL0     O36216  -0.786   1.978   3.236  0.2158 -0.4182 -0.3676
  269MOL0     C36217  -0.842   1.977   3.370  0.1965  0.0129  0.3226
  269MOL0     C36218  -0.980   1.912   3.365 -0.2997  1.0808  0.5157
  269MOL0     C36219  -1.092   1.992   3.296 -0.8182 -0.1124  0.1522
  269MOL0     C36220  -1.226   1.916   3.307 -0.7276 -0.1615 -0.4743
  269MOL0     C36221  -1.330   2.012   3.362 -0.2471 -0.5618 -0.2173
  269MOL0     C36222  -1.469   1.950   3.351 -0.0866  0.0495 -0.5055
  269MOL0     C36223  -1.506   1.925   3.211  1.2276 -0.2238  0.1272
  269MOL0     C36224  -1.663   1.924   3.193  0.4290  1.0755  0.5773
  269MOL0    Cl36225  -1.749   1.785   3.267 -0.0831  0.0275  0.3578
  269MOL0     C36226  -0.584   2.096   3.292 -0.1389  0.1194 -0.1403
  269MOL0     C36227  -0.459   2.142   3.255 -0.0820  0.4544 -0.6077
  269MOL0     O36228  -0.311   2.363   3.103  0.6340  0.5833 -0.2916
  269MOL0     C36229  -0.015   2.179   3.001 -0.0936  0.2006 -0.6125
  269MOL0     C36230   0.109   2.196   2.930  0.1906  1.0028  1.1784
  269MOL0     N36231   0.616   2.120   2.362  0.5665 -0.5268 -0.4436
  269MOL0     N36232   0.691   2.062   2.268  0.0302 -0.1727  1.4395
  269MOL0     C36233   1.775   2.351   1.651 -0.1171  0.5999 -0.2091
  269MOL0     C36234   1.886   2.420   1.591 -0.3473 -0.1504  0.4062
  269MOL0     C36235   2.199   2.670   1.425 -0.0137  0.4372 -0.4386
  269MOL0     C36236   2.274   2.746   1.512 -0.6528  0.0310  0.8793
  269MOL0     C36237   2.399   2.785   1.486  0.1908  0.1134  0.9052
  269MOL0     C36238   2.465   2.747   1.367  0.3576 -0.8805  0.5016
  269MOL0     O36239   2.590   2.790   1.340  0.4273 -0.8790  0.0483
  269MOL0     C36240   2.668   2.865   1.434  0.2636 -0.5384  1.0341
  269MOL0     C36241   2.787   2.905   1.351 -0.9001  0.2916 -0.4409
  269MOL0     C36242   2.868   2.784   1.290 -0.6228  0.0239  0.0603
  269MOL0     C36243   2.980   2.836   1.196 -0.1038  0.6853  0.3192
  269MOL0     C36244   3.065   2.725   1.144  0.1387 -0.3232 -0.9680
  269MOL0     C36245   3.128   2.627   1.102 -0.1549  0.4853 -0.1903
  269MOL0     C36246   2.399   2.657   1.279  0.7219  0.7925 -0.2576
  269MOL0     C36247   2.265   2.618   1.307 -0.2185 -0.1215 -0.7035
  269MOL0     H36248   1.904   2.698   1.776  4.0048 -1.7825 -1.4560
  269MOL0     H36249   1.697   2.596   1.891 -0.8066 -1.9841  0.6741
  269MOL0     H36250   1.638   2.358   1.998  1.5989  4.7289 -0.1191
  269MOL0     H36251   1.538   2.488   1.960  1.9692  0.8614 -0.1778
  269MOL0     H36252   1.344   2.315   1.900  0.2481  0.0434 -1.2168
  269MOL0     H36253   1.466   2.190   1.923  0.8778  0.5096 -0.0767
  269MOL0     H36254   1.499   2.265   2.150  0.5397  0.8886 -0.5730
  269MOL0     H36255   1.402   2.399   2.131  1.2175 -0.1671  1.7242
  269MOL0     H36256   1.245   2.270   2.235  2.6651  1.5484  0.2234
  269MOL0     H36257   1.206   2.209   2.068 -0.1787 -1.1756 -0.0867
  269MOL0     H36258   1.377   2.013   2.121  0.5153 -1.0153 -0.2425
  269MOL0     H36259   1.340   2.071   2.289 -2.8775  1.9975  0.6316
  269MOL0     H36260   1.128   1.974   2.079 -2.4331  3.1444  0.0737
  269MOL0     H36261   1.184   1.879   2.217 -4.3994  0.0735  1.6182
  269MOL0     H36262   1.092   2.051   2.367  1.6813 -0.9349 -0.4781
  269MOL0     H36263   1.060   2.158   2.222  3.5400 -1.3422 -2.8707
  269MOL0     H36264   0.938   1.879   2.243 -1.1703 -0.3023 -0.8966
  269MOL0     H36265   0.896   2.010   2.132 -0.5956 -0.5565  0.0836
  269MOL0     H36266   0.921   2.086   2.493  1.1190  1.6249 -0.8962
  269MOL0     H36267   0.727   2.205   2.673 -3.1429 -1.4065  1.7075
  269MOL0     H36268   0.672   2.336   2.551  1.5257 -1.7019 -3.3535
  269MOL0     H36269   0.519   2.098   2.674  3.0719 -0.7871 -1.8984
  269MOL0     H36270   0.459   2.193   2.534 -1.9024 -1.3968  1.1919
  269MOL0     H36271   0.449   2.387   2.660  2.9622  0.1609 -2.1234
  269MOL0     H36272   0.554   2.308   2.791  2.6367 -1.6269 -1.6300
  269MOL0     H36273   0.365   2.163   2.847  0.8037  0.8293  0.6543
  269MOL0     H36274   0.275   2.201   2.708 -1.7291  0.5007  1.2350
  269MOL0     H36275   0.114   2.531   2.911  0.9794 -0.9494 -1.3447
  269MOL0     H36276  -0.191   2.570   2.958 -0.8431 -3.8514 -0.3034
  269MOL0     H36277  -0.170   2.546   3.133 -2.0213 -1.3281 -0.2381
  269MOL0     H36278  -0.049   2.640   3.046  1.6805 -0.8353 -4.1428
  269MOL0     H36279  -0.430   1.970   2.968 -1.7262 -1.1630  0.0977
  269MOL0     H36280  -0.663   1.913   3.019  1.1865  0.6435 -2.3220
  269MOL0     H36281  -0.778   1.923   3.440 -1.7357 -1.3876  1.0923
  269MOL0     H36282  -0.861   2.074   3.417 -3.0925 -1.3044  2.0307
  269MOL0     H36283  -0.954   1.819   3.314  2.0826  2.1363 -0.3563
  269MOL0     H36284  -1.012   1.887   3.466 -1.3223  0.8572  0.1483
  269MOL0     H36285  -1.071   2.018   3.192  1.6789 -0.2710  0.5614
  269MOL0     H36286  -1.101   2.087   3.349  1.0017  0.6274 -0.8015
  269MOL0     H36287  -1.258   1.886   3.207 -0.4991  2.1222 -1.2881
  269MOL0     H36288  -1.213   1.832   3.377 -1.1469  1.6459  1.8993
  269MOL0     H36289  -1.323   2.104   3.304 -3.0513 -1.2272 -1.8102
  269MOL0     H36290  -1.305   2.036   3.466  1.6580 -3.0024 -0.0147
  269MOL0     H36291  -1.470   1.854   3.403  1.8723  0.6601  0.7659
  269MOL0     H36292  -1.545   2.011   3.401 -0.0911  1.3999 -2.0800
  269MOL0     H36293  -1.460   1.832   3.176 -1.1103 -1.5580  0.4345
  269MOL0     H36294  -1.467   2.007   3.150 -0.8252 -0.7549 -2.0521
  269MOL0     H36295  -1.682   1.907   3.087 -1.4415  0.4258  0.9814
  269MOL0     H36296  -1.708   2.018   3.226 -1.8377  0.5723 -0.9021
  269MOL0     H36297  -0.628   2.123   3.388 -2.2025 -3.3828  0.0479
  269MOL0     H36298  -0.406   2.212   3.319 -0.5009 -0.1814  0.4589
  269MOL0     H36299  -0.059   2.081   3.017  1.3033 -0.7221 -2.1429
  269MOL0     H36300   0.153   2.099   2.907 -1.5428  0.0853  1.5982
  269MOL0     H36301   1.728   2.259   1.617 -0.3273 -0.3783  2.4995
  269MOL0     H36302   1.945   2.382   1.508 -0.2468 -0.1417  0.4729
  269MOL0     H36303   2.239   2.771   1.612 -0.7019  2.2646  0.3732
  269MOL0     H36304   2.450   2.849   1.557  4.1388 -0.8567 -0.7964
  269MOL0     H36305   2.635   2.960   1.477  3.2703  1.0295  0.1666
  269MOL0     H36306   2.688   2.796   1.517  0.5134  0.6181  1.9528
  269MOL0     H36307   2.866   2.959   1.406 -0.9670  1.0727 -1.1049
  269MOL0     H36308   2.748   2.970   1.273  1.4812  1.3977 -0.8068
  269MOL0     H36309   2.809   2.707   1.239 -0.5310 -1.7103  2.4034
  269MOL0     H36310   2.918   2.725   1.368 -0.3733  0.1397 -0.0132
  269MOL0     H36311   3.044   2.908   1.247  0.6126 -0.1378  0.6195
  269MOL0     H36312   2.933   2.874   1.105  0.8053 -0.2338 -0.5619
  269MOL0     H36313   3.196   2.544   1.096  1.8409  2.1152 -1.3729
  269MOL0     H36314   2.454   2.622   1.192 -0.6945  0.5193 -1.0871
  269MOL0     H36315   2.211   2.550   1.241 -2.5396  1.2789 -0.3632
  270MOL0     O36316  11.054   3.802  10.550  0.9745  0.2950 -0.2468
  270MOL0     C36317  11.032   3.677  10.542 -0.3793  0.1986  0.3984
  270MOL0     O36318  10.925   3.611  10.602 -0.5771  0.2298  0.0909
  270MOL0     C36319  10.815   3.683  10.643 -0.6316 -0.5112  0.2271
  270MOL0     C36320  10.767   3.797  10.578  0.5693 -0.6745  0.5895
  270MOL0     C36321  10.665   3.874  10.631 -0.2296  0.1411 -0.0149
  270MOL0     C36322  10.604   3.832  10.744  0.6823  0.0518 -0.4608
  270MOL0     O36323  10.491   3.900  10.807 -0.2630 -0.0159  1.0070
  270MOL0     C36324  10.369   3.891  10.722  1.2308 -0.7020  0.0835
  270MOL0     C36325  10.247   3.936  10.804  0.1804 -0.2236  1.2733
  270MOL0     C36326  10.125   3.934  10.714  0.2309 -0.0044  0.1066
  270MOL0     C36327  10.003   3.917  10.806 -0.0754  0.2332  0.4790
  270MOL0     C36328   9.872   3.948  10.735  0.4448 -0.5589 -0.0061
  270MOL0     C36329   9.758   3.960  10.835 -0.5207  0.4645 -1.0832
  270MOL0     C36330   9.630   3.992  10.758  0.1903 -0.4854  0.3642
  270MOL0     C36331   9.511   3.926  10.836  0.0245  0.1248  0.0912
  270MOL0     N36332   9.383   3.984  10.794 -0.4962  0.3470 -0.0963
  270MOL0     C36333   9.290   4.057  10.859 -0.0024 -0.8087 -0.1276
  270MOL0     C36334   9.175   4.053  10.788  0.6425 -0.3200  0.4769
  270MOL0     C36335   9.048   4.126  10.830 -0.4627 -0.4360 -0.7909
  270MOL0     C36336   8.923   4.034  10.814  0.2976  0.2272  0.0384
  270MOL0     C36337   8.802   4.115  10.884  0.0812 -0.5431  0.2222
  270MOL0     C36338   8.668   4.090  10.826  0.2469 -0.2607  0.3138
  270MOL0     O36339   8.572   4.186  10.883 -0.5067 -0.8370  0.2303
  270MOL0     C36340   8.436   4.177  10.874 -0.2751  0.5927 -0.5784
  270MOL0     C36341   8.380   4.070  10.801 -0.0816  0.0726 -0.1721
  270MOL0     C36342   8.237   4.056  10.801  0.3585  0.0561  0.4938
  270MOL0     C36343   8.181   3.937  10.730  0.2761 -1.0596  0.5830
  270MOL0     C36344   8.152   4.135  10.879  0.4098 -0.5925 -0.3138
  270MOL0     C36345   8.006   4.124  10.907 -0.2112  0.3470  0.1359
  270MOL0     O36346   7.923   4.222  10.868 -0.1923  0.9997  0.5115
  270MOL0     C36347   7.786   4.201  10.889 -0.7699  0.2174  0.1224
  270MOL0     C36348   7.726   4.299  10.965 -0.7657  0.5694  0.4496
  270MOL0     C36349   7.592   4.281  10.991 -0.3501 -0.5198  0.8219
  270MOL0     C36350   7.511   4.178  10.932 -0.4763  0.8955  0.5133
  270MOL0     O36351   7.376   4.169  10.967  0.2705 -0.3286  0.1316
  270MOL0     C36352   7.323   4.043  10.980 -0.0630  0.3077  0.3017
  270MOL0     C36353   7.187   4.053  11.049  0.6313  0.5544  0.1909
  270MOL0     C36354   7.081   4.131  10.966 -0.8298  0.4897 -0.5582
  270MOL0     C36355   6.960   4.154  11.058 -1.0913  0.0477  0.0545
  270MOL0     C36356   6.840   4.225  10.991  0.5464 -0.3238 -0.1525
  270MOL0     C36357   6.780   4.156  10.872 -0.4612  0.6708  0.8083
  270MOL0     C36358   6.705   4.027  10.909 -0.0071 -0.3153 -0.0870
  270MOL0     C36359   6.677   3.933  10.788 -0.0663 -0.5484 -0.1942
  270MOL0    Cl36360   6.587   4.012  10.659 -0.1245  0.0522  0.2089
  270MOL0     C36361   7.580   4.092  10.842 -0.3346  0.7798  0.0208
  270MOL0     C36362   7.718   4.104  10.817  0.9231 -0.6230  0.0526
  270MOL0     O36363   7.976   4.019  10.963  0.5006  0.2776 -0.3240
  270MOL0     C36364   8.216   4.244  10.942  1.0961  0.0783  0.0640
  270MOL0     C36365   8.350   4.268  10.942  0.7406  0.2552  0.2923
  270MOL0     N36366   9.185   3.969  10.679  0.2522  0.8419 -0.8646
  270MOL0     N36367   9.305   3.927  10.692 -0.2634 -0.6722  0.0925
  270MOL0     C36368  10.654   3.721  10.817  0.0878 -0.4122  0.2107
  270MOL0     C36369  10.758   3.650  10.763  0.6151  1.0645 -0.3636
  270MOL0     C36370  11.137   3.604  10.472  0.3708  0.6626 -0.0697
  270MOL0     C36371  11.123   3.466  10.460 -0.1148  0.4807 -0.6100
  270MOL0     C36372  11.233   3.388  10.412  0.0849  0.1428  0.2066
  270MOL0     C36373  11.357   3.444  10.373  0.7213 -0.0733  0.3136
  270MOL0     O36374  11.455   3.353  10.348  0.6902  0.3027  0.0281
  270MOL0     C36375  11.589   3.389  10.318  0.1715  0.0845 -0.5646
  270MOL0     C36376  11.685   3.278  10.360  1.1655  0.4643  0.3314
  270MOL0     C36377  11.644   3.140  10.328 -0.1194 -0.4101 -0.3283
  270MOL0     C36378  11.657   3.106  10.181  0.8859  0.2599 -0.4563
  270MOL0     C36379  11.726   2.983  10.159  0.0021 -0.7365 -0.5308
  270MOL0     C36380  11.807   2.895  10.127 -0.2800  0.4760  0.5911
  270MOL0     C36381  11.360   3.584  10.371 -0.6708  0.0774  0.4182
  270MOL0     C36382  11.256   3.661  10.427 -0.2149 -0.3666  0.6415
  270MOL0     H36383  10.812   3.839  10.489 -2.2859 -1.3784 -1.3463
  270MOL0     H36384  10.635   3.966  10.583  2.4755 -0.4723 -3.2679
  270MOL0     H36385  10.380   3.948  10.630 -1.0832  0.5410  0.4846
  270MOL0     H36386  10.361   3.785  10.696  0.1578 -1.1330  1.9859
  270MOL0     H36387  10.224   3.864  10.882 -2.9543  0.0775  0.7667
  270MOL0     H36388  10.256   4.037  10.845  0.5800  0.9699 -1.5218
  270MOL0     H36389  10.113   4.027  10.658  0.3586  0.0868  0.2292
  270MOL0     H36390  10.134   3.846  10.650  2.2308 -0.0900  0.4554
  270MOL0     H36391  10.002   3.813  10.840 -0.6897  0.2851  0.6324
  270MOL0     H36392  10.009   3.985  10.890  1.2639 -0.5968  1.0909
  270MOL0     H36393   9.890   4.046  10.690 -0.6757 -0.1606  0.3742
  270MOL0     H36394   9.850   3.873  10.659 -0.2538 -0.9718  0.5904
  270MOL0     H36395   9.754   3.864  10.887  4.4786 -0.2652 -1.5379
  270MOL0     H36396   9.777   4.045  10.901  1.7681 -1.3534  0.7706
  270MOL0     H36397   9.610   4.100  10.766  1.1338 -0.3471  0.9866
  270MOL0     H36398   9.633   3.954  10.656 -1.1601  0.6963 -0.1590
  270MOL0     H36399   9.517   3.945  10.943 -1.5653  0.7705  0.0943
  270MOL0     H36400   9.513   3.817  10.825  0.2841  0.3175 -2.4045
  270MOL0     H36401   9.300   4.096  10.960 -1.1460  1.5573 -0.8720
  270MOL0     H36402   9.057   4.139  10.938 -4.0710  1.5984 -0.5699
  270MOL0     H36403   9.045   4.224  10.781 -3.5708 -0.0702 -0.0615
  270MOL0     H36404   8.936   3.943  10.874 -0.2111 -0.6523 -1.1485
  270MOL0     H36405   8.900   4.000  10.713 -2.6184  1.2392  0.2797
  270MOL0     H36406   8.810   4.223  10.873 -4.0410 -0.2188 -1.3914
  270MOL0     H36407   8.808   4.092  10.991 -0.7536  0.6506  0.5463
  270MOL0     H36408   8.635   3.988  10.847 -0.8064  0.3081  1.5240
  270MOL0     H36409   8.670   4.104  10.717 -1.2926  1.0919  0.4247
  270MOL0     H36410   8.439   3.989  10.758 -1.8722 -1.4584  0.0909
  270MOL0     H36411   8.082   3.958  10.688  0.2905 -1.1629  0.4971
  270MOL0     H36412   8.240   3.905  10.644  2.6537  0.7022  1.4564
  270MOL0     H36413   8.172   3.852  10.799  0.6935 -2.3590 -0.9084
  270MOL0     H36414   7.787   4.381  11.003  3.4501 -0.5645 -2.9669
  270MOL0     H36415   7.538   4.352  11.054  0.3850  0.7611  0.0363
  270MOL0     H36416   7.315   4.001  10.880  1.0987 -0.0160  0.3333
  270MOL0     H36417   7.398   3.991  11.040  1.3992  3.2000  1.1629
  270MOL0     H36418   7.155   3.950  11.069 -0.2609  0.9518  0.8928
  270MOL0     H36419   7.210   4.110  11.140  1.1851 -0.0688  0.4516
  270MOL0     H36420   7.062   4.067  10.879  2.4461 -1.5685  0.0232
  270MOL0     H36421   7.120   4.227  10.933 -1.6820  1.6320  1.5443
  270MOL0     H36422   6.930   4.050  11.074 -2.5606  0.5361  0.5596
  270MOL0     H36423   6.985   4.192  11.157 -3.7494  0.4017  0.6565
  270MOL0     H36424   6.859   4.330  10.968 -1.5427  0.1274 -0.0698
  270MOL0     H36425   6.759   4.226  11.065  1.0902 -2.3435  0.5281
  270MOL0     H36426   6.718   4.231  10.823 -0.7831  0.1347  0.4003
  270MOL0     H36427   6.859   4.131  10.800 -1.0316  1.1895 -0.0039
  270MOL0     H36428   6.609   4.057  10.951 -0.6401 -4.1904  1.6978
  270MOL0     H36429   6.770   3.974  10.980  0.2497 -1.7044 -1.3176
  270MOL0     H36430   6.779   3.906  10.762  1.1916  2.2621  1.3332
  270MOL0     H36431   6.627   3.844  10.827 -1.6564 -0.5668 -2.1468
  270MOL0     H36432   7.533   4.014  10.784  1.3826 -0.2535 -0.0641
  270MOL0     H36433   7.775   4.027  10.765 -3.2671 -2.0990 -2.8790
  270MOL0     H36434   8.154   4.321  10.986  1.1223  0.3004 -0.2849
  270MOL0     H36435   8.401   4.342  11.002  2.6671 -1.3158  0.7033
  270MOL0     H36436  10.607   3.696  10.911 -1.0514  2.7413  0.6060
  270MOL0     H36437  10.805   3.563  10.807 -0.7259  0.0581 -0.8414
  270MOL0     H36438  11.030   3.417  10.488  0.3150  0.0388  0.0672
  270MOL0     H36439  11.220   3.280  10.415 -0.6142  0.2548  2.3178
  270MOL0     H36440  11.589   3.403  10.209  1.9823  0.3565 -0.5555
  270MOL0     H36441  11.611   3.488  10.360 -3.7985 -0.0003  2.3305
  270MOL0     H36442  11.717   3.284  10.464 -0.9645 -0.8843  1.1267
  270MOL0     H36443  11.776   3.296  10.302 -1.1492 -0.5829 -4.0688
  270MOL0     H36444  11.543   3.129  10.370  0.5763  1.8743  2.1606
  270MOL0     H36445  11.700   3.069  10.389  0.0720 -1.2873 -1.4855
  270MOL0     H36446  11.704   3.193  10.135 -1.2869  1.8272  0.1272
  270MOL0     H36447  11.554   3.096  10.145  0.6933 -0.3605  0.2368
  270MOL0     H36448  11.885   2.825  10.105 -1.4868 -1.1770  1.3058
  270MOL0     H36449  11.456   3.621  10.335 -0.5886  1.3570  1.8342
  270MOL0     H36450  11.254   3.770  10.425  3.4385 -0.1826 -0.0153
  271MOL0     O36451   8.766   6.306   4.436  0.0048  0.2635  0.3133
  271MOL0     C36452   8.811   6.294   4.321  0.4036 -0.3545 -0.3308
  271MOL0     O36453   8.767   6.203   4.233  0.0139  0.0731 -0.3398
  271MOL0     C36454   8.660   6.125   4.264  0.1750 -0.9036 -0.3100
  271MOL0     C36455   8.677   5.997   4.321  0.3725  0.2025 -0.7726
  271MOL0     C36456   8.560   5.918   4.350 -0.1761  0.2597  0.0191
  271MOL0     C36457   8.429   5.971   4.321  0.2999 -0.0810 -0.0583
  271MOL0     O36458   8.327   5.882   4.344  0.6285  0.0463 -0.1271
  271MOL0     C36459   8.199   5.934   4.379  0.0679  0.2610 -0.0012
  271MOL0     C36460   8.113   5.808   4.406 -0.0574  0.3337 -0.3838
  271MOL0     C36461   8.096   5.777   4.564 -0.1352  0.0569  0.7590
  271MOL0     C36462   8.215   5.713   4.624 -0.3475  0.7001 -0.4856
  271MOL0     C36463   8.243   5.754   4.777  0.0520  0.2634  0.3442
  271MOL0     C36464   8.304   5.893   4.806 -0.3204  0.0777  0.9369
  271MOL0     C36465   8.434   5.910   4.727  0.3655 -0.0791  0.0982
  271MOL0     C36466   8.512   6.036   4.767 -0.0363  0.5731  0.3266
  271MOL0     N36467   8.446   6.157   4.720 -0.5245 -0.0844  0.5215
  271MOL0     C36468   8.481   6.218   4.602 -0.3031 -0.2713  0.0174
  271MOL0     C36469   8.409   6.335   4.609  0.1730  0.3154  0.7270
  271MOL0     C36470   8.419   6.451   4.520 -0.7584 -0.2785 -0.3274
  271MOL0     C36471   8.283   6.503   4.472  0.8994  0.5279 -0.0665
  271MOL0     C36472   8.315   6.626   4.395 -0.0387 -0.1868 -0.2671
  271MOL0     C36473   8.195   6.714   4.391  0.4225  0.0631  0.2566
  271MOL0     O36474   8.222   6.822   4.299  0.2662  0.0456  0.7976
  271MOL0     C36475   8.119   6.913   4.282 -1.0925 -0.0397 -0.1738
  271MOL0     C36476   8.128   6.982   4.164 -0.0912 -0.1607  0.8440
  271MOL0     C36477   8.033   7.084   4.142  0.7327  0.5149  0.1702
  271MOL0     C36478   8.054   7.177   4.033 -0.3714  0.2286 -0.1045
  271MOL0     C36479   7.916   7.076   4.219  0.6325  0.3642 -0.1521
  271MOL0     C36480   7.791   7.150   4.186 -0.2798 -1.6160 -1.0102
  271MOL0     O36481   7.760   7.165   4.054  0.0348  0.9850 -0.7113
  271MOL0     C36482   7.638   7.217   4.016 -0.5413 -0.4652 -0.4440
  271MOL0     C36483   7.639   7.322   3.927  0.1019 -0.5801 -0.7887
  271MOL0     C36484   7.516   7.373   3.882  0.4456  0.0428 -0.5826
  271MOL0     C36485   7.392   7.324   3.927  0.1946 -0.8597  0.5909
  271MOL0     O36486   7.275   7.383   3.904 -0.2516  0.7102 -0.8649
  271MOL0     C36487   7.268   7.491   3.807 -0.0704 -0.4592 -0.1318
  271MOL0     C36488   7.116   7.524   3.800 -0.1520  0.3612 -0.8111
  271MOL0     C36489   7.043   7.407   3.735 -0.3029 -0.0732 -0.8590
  271MOL0     C36490   6.894   7.415   3.734 -0.0991  0.3082  0.5278
  271MOL0     C36491   6.824   7.312   3.635 -0.5624 -0.4842  0.1605
  271MOL0     C36492   6.679   7.334   3.642  0.0206 -0.8219 -0.9651
  271MOL0     C36493   6.605   7.271   3.527 -0.2422  0.1643  0.4799
  271MOL0     C36494   6.455   7.303   3.532  0.3653  0.3093 -0.2738
  271MOL0    Cl36495   6.434   7.473   3.504 -0.1611 -0.1839  0.0588
  271MOL0     C36496   7.388   7.209   4.014 -0.2976 -0.9156  0.6376
  271MOL0     C36497   7.515   7.165   4.053  0.8779  0.1049 -0.2407
  271MOL0     O36498   7.729   7.195   4.283 -0.4071 -0.2874  0.6624
  271MOL0     C36499   7.898   6.996   4.327 -0.4922 -0.8288  0.4121
  271MOL0     C36500   8.010   6.928   4.366 -0.8004 -0.6211 -0.6681
  271MOL0     N36501   8.339   6.332   4.728  0.2844  0.2671 -0.2002
  271MOL0     N36502   8.356   6.228   4.790  0.1984  1.0309 -0.8590
  271MOL0     C36503   8.407   6.100   4.275  0.8303  0.4357 -0.3047
  271MOL0     C36504   8.529   6.176   4.251  0.1596 -0.1144  1.0813
  271MOL0     C36505   8.920   6.385   4.274 -0.4449 -0.1394  0.0304
  271MOL0     C36506   8.979   6.480   4.360  0.3812  0.7589 -0.1678
  271MOL0     C36507   9.096   6.546   4.320  0.4434 -0.2958  0.0257
  271MOL0     C36508   9.150   6.535   4.190  0.7561 -0.4794 -0.8590
  271MOL0     O36509   9.262   6.607   4.157  0.3214 -0.1750  0.2130
  271MOL0     C36510   9.361   6.627   4.260 -0.1510  0.6385 -0.0749
  271MOL0     C36511   9.495   6.632   4.199  0.0128  0.6059  0.8793
  271MOL0     C36512   9.617   6.627   4.296  0.5219 -0.7486 -0.7767
  271MOL0     C36513   9.615   6.714   4.412  0.3090  0.0468 -0.7814
  271MOL0     C36514   9.748   6.744   4.474  1.0008  0.1558 -0.5991
  271MOL0     C36515   9.857   6.744   4.523  0.0403  0.5625 -0.2313
  271MOL0     C36516   9.098   6.441   4.102 -0.3166  0.8304  0.0271
  271MOL0     C36517   8.991   6.367   4.145  0.2631 -0.0946 -0.0946
  271MOL0     H36518   8.776   5.976   4.360 -0.1674  0.3656  0.7281
  271MOL0     H36519   8.553   5.819   4.394  4.4926  0.3361  1.5485
  271MOL0     H36520   8.209   5.995   4.469 -3.5760 -1.8541  2.0862
  271MOL0     H36521   8.159   5.995   4.298  0.3784  0.1178 -0.2702
  271MOL0     H36522   8.014   5.818   4.361 -0.2033 -2.4507 -0.9055
  271MOL0     H36523   8.147   5.713   4.363  0.3718 -1.1717  2.9393
  271MOL0     H36524   8.064   5.872   4.606 -0.4146  0.0234  0.6265
  271MOL0     H36525   8.011   5.709   4.577  1.4818 -2.2925 -0.1243
  271MOL0     H36526   8.194   5.606   4.620  1.5482  0.3048 -0.5430
  271MOL0     H36527   8.309   5.732   4.572  0.8268 -2.8687  0.0550
  271MOL0     H36528   8.152   5.745   4.838 -0.8786  2.1210 -0.6805
  271MOL0     H36529   8.319   5.687   4.818 -0.6532 -1.2661 -0.7661
  271MOL0     H36530   8.237   5.967   4.762  0.3601  0.3048  0.2577
  271MOL0     H36531   8.327   5.911   4.912  3.9638  0.1618  0.1750
  271MOL0     H36532   8.497   5.824   4.753  0.4515  0.3561  1.4379
  271MOL0     H36533   8.415   5.920   4.620  1.0110  2.1370  0.1437
  271MOL0     H36534   8.614   6.022   4.729 -0.3855 -2.2361  0.2050
  271MOL0     H36535   8.531   6.045   4.874 -0.6894 -2.2772  0.7638
  271MOL0     H36536   8.541   6.186   4.518 -2.5918 -1.9588 -1.0694
  271MOL0     H36537   8.454   6.522   4.596 -1.0655 -2.4376  1.9557
  271MOL0     H36538   8.479   6.437   4.430 -1.9113 -2.2445 -0.8266
  271MOL0     H36539   8.219   6.515   4.560  1.8042 -0.7111  0.7927
  271MOL0     H36540   8.236   6.436   4.400  2.3796  0.2495 -0.8167
  271MOL0     H36541   8.339   6.594   4.293  2.1994 -2.4831  0.8478
  271MOL0     H36542   8.407   6.679   4.421 -0.1582 -0.2058  0.2015
  271MOL0     H36543   8.187   6.758   4.491 -1.1493  1.6135 -0.4884
  271MOL0     H36544   8.105   6.656   4.372 -0.4514  1.7041 -0.8645
  271MOL0     H36545   8.211   6.957   4.098  0.7695  0.1261  1.7810
  271MOL0     H36546   8.014   7.275   4.059  0.5531 -0.0732  2.8331
  271MOL0     H36547   8.162   7.186   4.018 -0.4780 -0.1886 -1.2080
  271MOL0     H36548   8.006   7.143   3.941  2.1117 -1.8886 -0.7478
  271MOL0     H36549   7.730   7.378   3.907  0.9786 -1.1454  1.3656
  271MOL0     H36550   7.526   7.453   3.809  3.2663  0.0268 -0.3100
  271MOL0     H36551   7.334   7.574   3.834 -0.8727 -0.0557  0.6544
  271MOL0     H36552   7.296   7.452   3.709  0.8750  1.3020 -0.6062
  271MOL0     H36553   7.074   7.548   3.898  0.5641  1.5847 -0.7936
  271MOL0     H36554   7.105   7.612   3.736 -4.3843 -0.6019 -1.7327
  271MOL0     H36555   7.067   7.320   3.798 -0.8182 -0.8103 -1.6523
  271MOL0     H36556   7.066   7.400   3.628  0.7885 -2.5559 -0.5429
  271MOL0     H36557   6.852   7.394   3.833  0.0827 -2.5969  0.0774
  271MOL0     H36558   6.866   7.516   3.702  1.9074  1.1724  1.3302
  271MOL0     H36559   6.857   7.209   3.652  1.4216 -0.4624 -2.7131
  271MOL0     H36560   6.854   7.332   3.531  3.5233 -0.3101  1.1997
  271MOL0     H36561   6.651   7.287   3.737  2.9292 -0.0968  0.3471
  271MOL0     H36562   6.657   7.441   3.651  4.3118  0.1983 -0.5497
  271MOL0     H36563   6.611   7.162   3.522  2.8323  0.2842 -0.6248
  271MOL0     H36564   6.645   7.311   3.434 -1.3815 -1.4959 -0.7957
  271MOL0     H36565   6.413   7.287   3.631 -1.1028  0.9720 -0.7696
  271MOL0     H36566   6.404   7.237   3.460 -1.4634 -0.0756  1.3051
  271MOL0     H36567   7.290   7.179   4.048 -1.3091  1.4821  0.0539
  271MOL0     H36568   7.521   7.085   4.126  3.5684 -0.8935 -1.4314
  271MOL0     H36569   7.810   6.996   4.391 -1.4802  1.7131 -0.7863
  271MOL0     H36570   8.003   6.870   4.457 -0.3347  0.2119 -0.0897
  271MOL0     H36571   8.308   6.144   4.265  0.6503 -0.3995 -3.4877
  271MOL0     H36572   8.526   6.277   4.210 -1.7933 -0.9041 -0.9142
  271MOL0     H36573   8.928   6.492   4.455  1.9591  1.8277  0.5893
  271MOL0     H36574   9.137   6.614   4.395 -0.3538  1.1698 -0.8049
  271MOL0     H36575   9.334   6.717   4.315  0.0401 -0.0288  1.1554
  271MOL0     H36576   9.366   6.542   4.329  0.4773  0.2958 -0.5309
  271MOL0     H36577   9.506   6.727   4.146  0.1356 -0.2654 -0.7222
  271MOL0     H36578   9.509   6.546   4.133 -0.7334  1.4610 -0.4362
  271MOL0     H36579   9.709   6.656   4.243 -0.2860  3.4563 -0.1957
  271MOL0     H36580   9.623   6.525   4.334  1.0534 -0.8839 -1.2011
  271MOL0     H36581   9.548   6.671   4.487 -1.0369  0.3100 -1.7893
  271MOL0     H36582   9.584   6.815   4.383  0.5454  0.3150 -0.1243
  271MOL0     H36583   9.953   6.744   4.571  1.3814 -2.5015 -2.5663
  271MOL0     H36584   9.151   6.415   4.011  0.7590  3.7536 -0.2643
  271MOL0     H36585   8.950   6.289   4.081 -1.6753 -1.0700  2.1762
  272MOL0     O36586   1.906   4.593   1.696  0.1871 -0.1562 -0.4668
  272MOL0     C36587   1.983   4.616   1.601  0.4256 -0.4802 -0.7783
  272MOL0     O36588   1.962   4.699   1.496 -0.4483  0.3822  0.0140
  272MOL0     C36589   1.840   4.757   1.484 -0.4461  0.2792  0.4786
  272MOL0     C36590   1.725   4.678   1.502  0.1786  0.3327 -0.3464
  272MOL0     C36591   1.595   4.747   1.484 -0.4385 -0.0766  0.0063
  272MOL0     C36592   1.589   4.891   1.458  0.7896 -0.1003  0.4431
  272MOL0     O36593   1.477   4.956   1.454  0.4864  0.1043 -0.2289
  272MOL0     C36594   1.356   4.885   1.491 -0.3936 -0.0525  0.3312
  272MOL0     C36595   1.235   4.980   1.477  0.2515 -0.1643 -0.2844
  272MOL0     C36596   1.121   4.940   1.558 -0.5680  0.6561  0.3485
  272MOL0     C36597   1.003   5.035   1.549  0.0047 -0.1348  0.3799
  272MOL0     C36598   0.879   4.983   1.624  0.0828 -0.0234 -0.3003
  272MOL0     C36599   0.894   4.996   1.779  0.9229  0.2483 -0.8361
  272MOL0     C36600   0.801   4.906   1.863  0.2903  0.0627 -0.5017
  272MOL0     C36601   0.650   4.949   1.864 -0.4419 -0.4104 -0.2890
  272MOL0     N36602   0.574   4.924   1.740  0.0609  0.0414 -0.2949
  272MOL0     C36603   0.538   4.798   1.693 -0.6858 -0.5955 -0.1783
  272MOL0     C36604   0.484   4.819   1.571 -1.0292 -0.0828 -0.3756
  272MOL0     C36605   0.439   4.713   1.483  0.5752 -0.1468 -0.1485
  272MOL0     C36606   0.540   4.657   1.382  0.0554 -0.2039  0.8820
  272MOL0     C36607   0.610   4.769   1.306 -0.9595  0.7672 -0.2002
  272MOL0     C36608   0.646   4.724   1.157  0.7269 -0.3072  1.2647
  272MOL0     O36609   0.737   4.610   1.145  0.0195 -0.4165 -0.7280
  272MOL0     C36610   0.866   4.631   1.188  0.5767  0.4893 -0.1008
  272MOL0     C36611   0.957   4.700   1.111 -0.1502  0.4341  0.0605
  272MOL0     C36612   1.091   4.691   1.124 -0.5170  0.0302 -0.0085
  272MOL0     C36613   1.170   4.791   1.047 -0.6405 -0.1357 -0.0625
  272MOL0     C36614   1.145   4.610   1.224  0.3024 -0.6337  0.8144
  272MOL0     C36615   1.286   4.582   1.242 -0.2881  0.2855  0.1726
  272MOL0     O36616   1.365   4.590   1.130 -0.0589  0.2906 -0.6796
  272MOL0     C36617   1.498   4.562   1.148 -0.1057 -0.3747 -0.4099
  272MOL0     C36618   1.592   4.667   1.146 -0.1026  0.5227 -0.3223
  272MOL0     C36619   1.724   4.632   1.186  0.2293 -0.4842  0.1153
  272MOL0     C36620   1.766   4.509   1.234  0.8586 -1.0847 -0.6456
  272MOL0     O36621   1.903   4.503   1.246  0.9843 -0.4659 -0.7471
  272MOL0     C36622   1.975   4.381   1.222  0.1972  0.3886 -1.2079
  272MOL0     C36623   2.132   4.405   1.241  0.6436  0.1056  0.5181
  272MOL0     C36624   2.198   4.266   1.250 -0.2936  0.2882 -0.1763
  272MOL0     C36625   2.345   4.291   1.256  0.6862  0.4583 -0.7093
  272MOL0     C36626   2.435   4.168   1.267  0.5234  0.0807 -0.0316
  272MOL0     C36627   2.570   4.217   1.308  0.3272  0.6118  0.6131
  272MOL0     C36628   2.658   4.098   1.338  0.3808  0.4571  0.4864
  272MOL0     C36629   2.805   4.134   1.355 -0.2207 -0.2278 -0.8113
  272MOL0    Cl36630   2.824   4.248   1.489 -0.1051  0.2879 -0.4077
  272MOL0     C36631   1.673   4.406   1.236  0.1398 -0.0843 -0.5017
  272MOL0     C36632   1.541   4.433   1.188  0.6793  0.5783 -0.0397
  272MOL0     O36633   1.325   4.552   1.358  0.6359 -0.5491 -0.5435
  272MOL0     C36634   1.060   4.543   1.305 -0.2343  0.3388 -0.0139
  272MOL0     C36635   0.917   4.554   1.286 -0.4221  0.5931 -0.1391
  272MOL0     N36636   0.472   4.953   1.547 -0.2189  0.5539  0.4897
  272MOL0     N36637   0.519   5.010   1.648  0.7099 -0.1866 -0.0990
  272MOL0     C36638   1.713   4.961   1.439 -0.1687  0.1409  0.1303
  272MOL0     C36639   1.834   4.893   1.453  0.1407  0.0248 -0.2660
  272MOL0     C36640   2.119   4.568   1.614 -0.0730 -0.2752 -0.5339
  272MOL0     C36641   2.220   4.632   1.543  1.0443 -0.6984 -0.5528
  272MOL0     C36642   2.350   4.598   1.571  0.1946  0.5153  0.1405
  272MOL0     C36643   2.386   4.497   1.666 -0.0240  0.1694  1.1315
  272MOL0     O36644   2.513   4.459   1.696 -0.6895  0.5711 -0.3618
  272MOL0     C36645   2.628   4.544   1.656 -0.0584 -0.4015 -0.3045
  272MOL0     C36646   2.736   4.547   1.769 -0.4041  0.8308 -0.0865
  272MOL0     C36647   2.806   4.403   1.771 -0.3739 -0.6956  0.1078
  272MOL0     C36648   2.844   4.339   1.897  0.2464  0.3618 -0.1786
  272MOL0     C36649   2.937   4.417   1.967 -0.1657  0.0147 -0.1320
  272MOL0     C36650   3.007   4.495   2.023 -0.3589 -0.7118  0.3267
  272MOL0     C36651   2.276   4.426   1.723  0.2686  0.6004  0.5178
  272MOL0     C36652   2.148   4.463   1.701  0.7800 -0.6819  0.0370
  272MOL0     H36653   1.734   4.570   1.506 -4.4813 -0.3856 -2.4629
  272MOL0     H36654   1.507   4.683   1.487  0.0840 -0.8026  0.2691
  272MOL0     H36655   1.334   4.800   1.426  0.1046 -1.6360  2.1263
  272MOL0     H36656   1.367   4.841   1.590  1.0227 -0.8106 -0.1286
  272MOL0     H36657   1.256   5.083   1.509 -2.4627  0.4341 -0.1770
  272MOL0     H36658   1.210   4.990   1.371 -1.3312  1.7831  0.2178
  272MOL0     H36659   1.095   4.840   1.520  0.4631 -1.3721  4.3772
  272MOL0     H36660   1.156   4.915   1.659  0.1926 -3.4366 -0.7204
  272MOL0     H36661   1.028   5.137   1.582  0.4586 -0.8889  2.5767
  272MOL0     H36662   0.974   5.038   1.444 -0.6763  2.3491  0.5643
  272MOL0     H36663   0.785   5.027   1.590 -1.6444 -2.6993  0.6930
  272MOL0     H36664   0.870   4.879   1.591  1.7028  0.1955 -1.5817
  272MOL0     H36665   0.991   4.963   1.816 -0.4659 -2.6446  0.5614
  272MOL0     H36666   0.884   5.101   1.810  0.2651  0.4744 -1.7497
  272MOL0     H36667   0.806   4.800   1.838 -1.3287 -0.4561  1.1791
  272MOL0     H36668   0.843   4.913   1.964  1.5912  0.3068 -1.0330
  272MOL0     H36669   0.655   5.057   1.883  2.2377 -0.4620 -0.3029
  272MOL0     H36670   0.587   4.906   1.941  1.0123 -2.8428 -0.3572
  272MOL0     H36671   0.565   4.698   1.726 -1.5705 -0.7934 -0.0360
  272MOL0     H36672   0.394   4.637   1.547 -0.3129 -0.3937 -1.0523
  272MOL0     H36673   0.352   4.756   1.433 -0.8496 -2.3420  0.3024
  272MOL0     H36674   0.497   4.587   1.310 -0.6849  1.0469  0.0590
  272MOL0     H36675   0.624   4.605   1.429  0.4424  0.1911  0.6373
  272MOL0     H36676   0.703   4.796   1.356 -3.1169  0.5535  4.5089
  272MOL0     H36677   0.561   4.866   1.301  0.4642  1.4945 -0.6153
  272MOL0     H36678   0.695   4.811   1.113  1.0534 -0.3091  1.6127
  272MOL0     H36679   0.549   4.706   1.111  0.4181  1.3834  1.2030
  272MOL0     H36680   0.913   4.760   1.032  2.1879  2.1832 -0.0432
  272MOL0     H36681   1.210   4.855   1.126  2.9046 -2.5481  0.3339
  272MOL0     H36682   1.249   4.736   0.994 -1.4110  0.0183 -1.4285
  272MOL0     H36683   1.118   4.848   0.970  1.2195  0.2685 -1.0693
  272MOL0     H36684   1.561   4.770   1.131  2.2280  1.0687 -1.9570
  272MOL0     H36685   1.797   4.712   1.182  0.1606 -0.1049  3.4285
  272MOL0     H36686   1.935   4.306   1.291 -0.9967  2.9459  1.0462
  272MOL0     H36687   1.948   4.345   1.122 -1.6062 -0.1890 -0.5626
  272MOL0     H36688   2.174   4.458   1.154  0.5054 -1.1728 -0.3548
  272MOL0     H36689   2.151   4.462   1.332  2.3824  1.2754 -0.5043
  272MOL0     H36690   2.182   4.199   1.165  2.2471 -0.9395  0.2120
  272MOL0     H36691   2.169   4.215   1.342 -0.9934  2.4438  0.8807
  272MOL0     H36692   2.378   4.358   1.176  0.2713  2.3627  0.6439
  272MOL0     H36693   2.352   4.348   1.350 -1.0163  2.6507 -1.7994
  272MOL0     H36694   2.441   4.107   1.176  1.8097 -0.3995  0.3470
  272MOL0     H36695   2.397   4.098   1.341 -1.6271 -2.4017 -3.2159
  272MOL0     H36696   2.613   4.284   1.233  1.1444 -1.5117 -0.9089
  272MOL0     H36697   2.556   4.270   1.403  3.6456  2.0952  0.4096
  272MOL0     H36698   2.661   4.028   1.255 -0.0742  1.0738 -0.0657
  272MOL0     H36699   2.626   4.049   1.431  2.6146 -0.4733  0.8283
  272MOL0     H36700   2.835   4.199   1.272 -4.0888  3.1396  0.0887
  272MOL0     H36701   2.869   4.046   1.370  2.0946  1.6759  1.3555
  272MOL0     H36702   1.714   4.312   1.270  1.7409  1.4305  2.1408
  272MOL0     H36703   1.469   4.353   1.177 -0.4992  1.6705 -0.6257
  272MOL0     H36704   1.091   4.479   1.387 -0.4990 -1.2227 -1.0971
  272MOL0     H36705   0.848   4.494   1.345  0.9632  0.8710  1.8475
  272MOL0     H36706   1.714   5.068   1.420 -1.8481  0.0430 -0.6128
  272MOL0     H36707   1.923   4.955   1.443 -0.5362  1.3172  1.2261
  272MOL0     H36708   2.205   4.726   1.491  2.5185  1.5594  2.7385
  272MOL0     H36709   2.420   4.658   1.514 -1.0144  0.9357 -0.9404
  272MOL0     H36710   2.671   4.510   1.562 -0.2160 -0.2550 -0.4314
  272MOL0     H36711   2.588   4.644   1.639  0.1641  0.5560  3.7125
  272MOL0     H36712   2.693   4.564   1.868 -0.6098 -1.0352  0.1901
  272MOL0     H36713   2.818   4.614   1.741  0.6147 -1.5394 -3.5002
  272MOL0     H36714   2.898   4.400   1.712  0.9052 -0.1089  1.9840
  272MOL0     H36715   2.736   4.334   1.723  0.3400  0.7901 -3.3642
  272MOL0     H36716   2.883   4.242   1.865 -2.0838 -0.5968 -0.3702
  272MOL0     H36717   2.747   4.321   1.944 -0.0834 -0.2619 -1.0557
  272MOL0     H36718   3.073   4.565   2.070 -1.7356  0.4715  0.5865
  272MOL0     H36719   2.285   4.339   1.787 -2.9116 -1.2923 -1.3306
  272MOL0     H36720   2.066   4.404   1.741  0.3794 -1.1861 -1.4356
  273MOL0     O36721  11.166  11.118  11.135 -0.3187 -0.1622  0.5340
  273MOL0     C36722  11.233  11.037  11.195 -0.1370  0.4198 -0.0408
  273MOL0     O36723  11.233  10.904  11.161 -0.0446 -0.1589  0.0179
  273MOL0     C36724  11.153  10.841  11.072 -0.0928 -0.8721 -0.8575
  273MOL0     C36725  11.183  10.711  11.029  0.5210  0.6531  0.8573
  273MOL0     C36726  11.112  10.630  10.943  0.7357 -0.4963 -0.1924
  273MOL0     C36727  10.987  10.689  10.891  0.0463 -0.5002  0.0314
  273MOL0     O36728  10.926  10.616  10.795  0.3266  0.8263 -0.2262
  273MOL0     C36729  10.822  10.664  10.713  0.5933  0.3913  0.3799
  273MOL0     C36730  10.881  10.724  10.579 -0.7329  0.2473  0.1819
  273MOL0     C36731  10.780  10.806  10.508  0.3233  0.1081  0.3806
  273MOL0     C36732  10.654  10.731  10.482  0.8962  0.7030 -0.2100
  273MOL0     C36733  10.551  10.809  10.400  0.3726  0.2650  0.1720
  273MOL0     C36734  10.426  10.731  10.361 -0.2723 -0.5170  0.0521
  273MOL0     C36735  10.445  10.689  10.204  0.1563 -0.1759 -0.2491
  273MOL0     C36736  10.415  10.546  10.191  0.3808  0.5509 -0.5179
  273MOL0     N36737  10.275  10.504  10.197  0.0623 -0.0842 -0.3414
  273MOL0     C36738  10.166  10.584  10.171  0.3647  0.3011  0.2721
  273MOL0     C36739  10.052  10.509  10.158 -0.7278 -0.1326 -0.4134
  273MOL0     C36740   9.922  10.568  10.140 -0.3674  0.6221 -0.2016
  273MOL0     C36741   9.862  10.541  10.003  0.1528 -0.2964 -0.8730
  273MOL0     C36742   9.789  10.404  10.009 -0.7736 -0.3159  0.7473
  273MOL0     C36743   9.696  10.379   9.886  0.4476 -0.8261 -0.0523
  273MOL0     O36744   9.650  10.242   9.878  0.0174  0.0606  0.2722
  273MOL0     C36745   9.534  10.203   9.948 -0.6381  0.3882 -0.1514
  273MOL0     C36746   9.443  10.294  10.019  0.0355 -0.1943  0.5694
  273MOL0     C36747   9.311  10.241  10.054 -0.6216  0.2802  0.5175
  273MOL0     C36748   9.208  10.334  10.118 -0.5930 -0.5904  0.0104
  273MOL0     C36749   9.290  10.106  10.029 -0.2586 -0.1088 -0.0973
  273MOL0     C36750   9.163  10.033  10.059  0.0021 -0.2650  0.2637
  273MOL0     O36751   9.161   9.896  10.082  0.4600 -0.3580 -0.0654
  273MOL0     C36752   9.037   9.840  10.095 -0.3820 -0.1327 -0.1831
  273MOL0     C36753   8.956   9.814   9.992 -0.7193  0.4105 -0.5100
  273MOL0     C36754   8.837   9.757  10.021  0.6412  0.3137  0.7681
  273MOL0     C36755   8.794   9.717  10.153 -0.0923 -0.4301  0.2602
  273MOL0     O36756   8.675   9.652  10.172 -0.0953  0.5607  0.5718
  273MOL0     C36757   8.574   9.748  10.153  0.3423 -0.0388 -0.0354
  273MOL0     C36758   8.464   9.673  10.065 -0.3749  0.8998 -1.1252
  273MOL0     C36759   8.389   9.750   9.952  0.0381 -0.6400  0.9013
  273MOL0     C36760   8.461   9.747   9.823 -0.2931  0.0437  0.4398
  273MOL0     C36761   8.389   9.825   9.711 -0.1556 -0.0221  0.1371
  273MOL0     C36762   8.351   9.963   9.756 -0.3419 -0.4719 -0.4584
  273MOL0     C36763   8.344  10.075   9.639 -0.3684  0.6295  0.7579
  273MOL0     C36764   8.238  10.181   9.655  0.3503 -0.4088 -0.8148
  273MOL0    Cl36765   8.074  10.107   9.643 -0.3228 -0.3393  0.3835
  273MOL0     C36766   8.876   9.744  10.259 -0.1930  0.4910 -0.9132
  273MOL0     C36767   8.999   9.804  10.228  0.6886  0.0504 -0.1091
  273MOL0     O36768   9.061  10.094  10.042 -0.3209  0.4411  0.0172
  273MOL0     C36769   9.384  10.021   9.977  0.2054 -0.4194 -0.1072
  273MOL0     C36770   9.503  10.065   9.936 -0.4216  0.1414  0.1904
  273MOL0     N36771  10.098  10.373  10.177 -0.0664 -0.2453  0.0955
  273MOL0     N36772  10.226  10.376  10.207 -0.3063 -0.3453 -0.5002
  273MOL0     C36773  10.944  10.819  10.937  1.1747  0.3633 -0.7456
  273MOL0     C36774  11.024  10.894  11.027  0.1695 -0.6657  0.1824
  273MOL0     C36775  11.340  11.087  11.281 -0.4513  0.3548  0.2105
  273MOL0     C36776  11.439  11.007  11.335  0.0924 -0.0311  1.7340
  273MOL0     C36777  11.542  11.064  11.402  0.1928 -0.7705 -1.0171
  273MOL0     C36778  11.546  11.201  11.427  0.4343 -1.1335 -0.1768
  273MOL0     O36779  11.647  11.272  11.487 -0.6244  0.6673 -1.0361
  273MOL0     C36780  11.697  11.214  11.609  0.2022 -0.1063 -0.0882
  273MOL0     C36781  11.830  11.269  11.651  0.0514  0.4529  0.7143
  273MOL0     C36782  11.928  11.259  11.532  0.1516  0.0785  0.0989
  273MOL0     C36783  12.062  11.316  11.568 -0.1386  0.1835  0.3772
  273MOL0     C36784  12.125  11.247  11.675 -0.5160  0.7788 -0.4202
  273MOL0     C36785  12.187  11.190  11.759  0.0290 -0.5340  0.2525
  273MOL0     C36786  11.442  11.282  11.384  0.4124 -0.2737  0.5116
  273MOL0     C36787  11.344  11.226  11.307  0.0230  0.1571  0.6059
  273MOL0     H36788  11.279  10.668  11.056  1.2373  2.8381  2.0736
  273MOL0     H36789  11.152  10.529  10.933  0.6635 -0.7398  1.5901
  273MOL0     H36790  10.750  10.583  10.698 -0.2702  1.3722 -1.0440
  273MOL0     H36791  10.762  10.743  10.759 -2.0063 -0.6640 -1.0056
  273MOL0     H36792  10.963  10.793  10.603  0.6121 -1.7834  1.8181
  273MOL0     H36793  10.925  10.646  10.516  0.1882 -2.6101  3.9673
  273MOL0     H36794  10.763  10.896  10.568  1.0249  0.2458  0.3804
  273MOL0     H36795  10.821  10.853  10.418  1.5183  3.8218  2.6358
  273MOL0     H36796  10.686  10.643  10.427  0.3771  0.0298  0.5446
  273MOL0     H36797  10.598  10.704  10.572 -0.0227 -0.9394 -1.2284
  273MOL0     H36798  10.511  10.885  10.468  1.2895  0.9159  0.0022
  273MOL0     H36799  10.596  10.852  10.310  1.5191  1.1382  1.1295
  273MOL0     H36800  10.427  10.644  10.428  1.8155 -0.0113  0.7548
  273MOL0     H36801  10.333  10.788  10.369 -0.9287 -1.4793 -0.4928
  273MOL0     H36802  10.376  10.751  10.147  0.1832  0.7729  0.7094
  273MOL0     H36803  10.543  10.711  10.163  1.0432 -2.3644  0.5731
  273MOL0     H36804  10.469  10.488  10.267  0.7825  0.9849 -0.4692
  273MOL0     H36805  10.444  10.532  10.087 -3.2687  0.3332 -1.6435
  273MOL0     H36806  10.173  10.691  10.156  0.1188  0.0388 -2.0743
  273MOL0     H36807   9.861  10.522  10.218 -2.0108 -0.8404 -2.2417
  273MOL0     H36808   9.919  10.677  10.145 -0.5391  0.6716 -1.2518
  273MOL0     H36809   9.936  10.557   9.923  1.1756  0.7768  0.2480
  273MOL0     H36810   9.791  10.622   9.982  0.7487  0.3219 -0.5440
  273MOL0     H36811   9.734  10.396  10.104  1.5412 -2.0877  2.0526
  273MOL0     H36812   9.867  10.327  10.005  0.1208  0.6278 -0.3368
  273MOL0     H36813   9.737  10.391   9.785  0.0220 -1.7221 -0.3375
  273MOL0     H36814   9.621  10.459   9.888  1.7303  0.4228 -0.0614
  273MOL0     H36815   9.476  10.395  10.039 -1.3880  0.1904  1.0685
  273MOL0     H36816   9.134  10.278  10.175 -2.0923  0.3533 -0.9646
  273MOL0     H36817   9.260  10.415  10.170 -0.3457 -1.1815  0.6907
  273MOL0     H36818   9.147  10.383  10.042 -1.3919  2.5013  2.4764
  273MOL0     H36819   8.992   9.839   9.892 -1.6153  1.4721 -0.5870
  273MOL0     H36820   8.774   9.730   9.937  1.3649  0.7786  0.0617
  273MOL0     H36821   8.530   9.774  10.251  0.6320 -0.2607  0.1538
  273MOL0     H36822   8.596   9.847  10.113 -1.0387  0.2534 -0.1530
  273MOL0     H36823   8.504   9.579  10.024 -1.2282  1.0048 -2.2334
  273MOL0     H36824   8.392   9.636  10.138 -0.8878  0.4157 -1.8693
  273MOL0     H36825   8.376   9.857   9.974 -3.2093 -0.4241 -1.3909
  273MOL0     H36826   8.295   9.700   9.927 -0.7086  1.8845 -1.8306
  273MOL0     H36827   8.554   9.798   9.849 -0.5169  0.1313  1.0800
  273MOL0     H36828   8.485   9.643   9.797  0.2305  0.4865 -0.9712
  273MOL0     H36829   8.296   9.780   9.675  0.2959 -0.7662 -0.1154
  273MOL0     H36830   8.457   9.837   9.626 -0.8446 -0.7784 -0.5355
  273MOL0     H36831   8.263   9.957   9.820  0.3004  0.6324  0.5825
  273MOL0     H36832   8.433  10.000   9.819 -0.5039 -0.5242 -0.2145
  273MOL0     H36833   8.343  10.027   9.541  1.5281 -2.0116  1.9133
  273MOL0     H36834   8.436  10.134   9.641  1.2608 -1.7747  1.5412
  273MOL0     H36835   8.255  10.258   9.579  3.4223 -0.0560  0.0965
  273MOL0     H36836   8.244  10.225   9.755 -1.5138  0.1836 -0.9127
  273MOL0     H36837   8.834   9.721  10.356 -2.3761 -1.6524 -2.2235
  273MOL0     H36838   9.054   9.839  10.315 -0.8281 -0.8220  1.2750
  273MOL0     H36839   9.360   9.917   9.957 -0.5778 -0.4346  0.7961
  273MOL0     H36840   9.569   9.996   9.884 -0.7231  0.3554 -0.4951
  273MOL0     H36841  10.844  10.857  10.923  0.1217 -2.2230 -0.9283
  273MOL0     H36842  10.975  10.984  11.061  1.6901 -0.1843  1.1601
  273MOL0     H36843  11.448  10.904  11.302  1.7171  1.3004 -2.6655
  273MOL0     H36844  11.618  11.001  11.448  0.1301  0.8501  1.4794
  273MOL0     H36845  11.625  11.234  11.689  1.0980 -0.1301  0.7535
  273MOL0     H36846  11.713  11.106  11.604 -0.6292 -0.3461  1.5112
  273MOL0     H36847  11.872  11.216  11.737  1.9543  0.7302  0.0040
  273MOL0     H36848  11.819  11.371  11.688 -0.0573  0.9276 -0.5874
  273MOL0     H36849  11.892  11.300  11.437  1.0452 -0.5467 -0.5325
  273MOL0     H36850  11.948  11.156  11.499  0.9604  0.4982 -0.7682
  273MOL0     H36851  12.058  11.424  11.588  2.1125  0.1047  1.5414
  273MOL0     H36852  12.122  11.303  11.478 -0.1237  1.4090  0.1870
  273MOL0     H36853  12.238  11.142  11.839 -2.8619 -1.8178  1.4697
  273MOL0     H36854  11.435  11.389  11.393  0.5359 -0.3161  1.1786
  273MOL0     H36855  11.272  11.295  11.262  0.0866 -0.2671 -0.1626
  274MOL0     O36856   3.882   8.215   7.373 -0.1044  0.5330 -0.3704
  274MOL0     C36857   3.907   8.112   7.439 -0.1133  0.3921  0.3098
  274MOL0     O36858   3.815   8.030   7.501 -0.1823  0.0513 -0.1833
  274MOL0     C36859   3.689   8.083   7.499 -0.4003 -0.3387  0.8718
  274MOL0     C36860   3.663   8.200   7.577  0.0151 -0.2802  0.0990
  274MOL0     C36861   3.537   8.261   7.567 -0.2846 -0.0896  0.5505
  274MOL0     C36862   3.441   8.196   7.493 -0.4043 -0.9039 -1.0581
  274MOL0     O36863   3.321   8.255   7.482 -0.0442  0.1686 -0.8269
  274MOL0     C36864   3.300   8.353   7.383 -0.5031 -0.1095  0.3001
  274MOL0     C36865   3.169   8.428   7.408 -0.5184 -0.3747  0.1588
  274MOL0     C36866   3.054   8.355   7.344 -0.2895  0.3766 -0.5083
  274MOL0     C36867   2.921   8.408   7.394 -0.1165 -0.2302  0.2222
  274MOL0     C36868   2.794   8.344   7.344 -0.3922  0.0034  0.1826
  274MOL0     C36869   2.671   8.365   7.432 -0.1992 -0.6819 -0.5351
  274MOL0     C36870   2.630   8.519   7.453 -0.3910  0.0503  0.1379
  274MOL0     C36871   2.559   8.594   7.337  0.5829  0.2695  0.2876
  274MOL0     N36872   2.470   8.501   7.267 -0.9621  0.2089  0.1192
  274MOL0     C36873   2.359   8.440   7.314  0.2747 -0.0101 -0.4638
  274MOL0     C36874   2.317   8.367   7.207  0.2611  0.0948 -0.0815
  274MOL0     C36875   2.192   8.281   7.188  0.0471 -0.5981 -0.2179
  274MOL0     C36876   2.171   8.241   7.038  0.4333  0.6891  0.0888
  274MOL0     C36877   2.041   8.146   7.020 -0.6634  0.0041 -0.2701
  274MOL0     C36878   1.916   8.216   7.040  0.2254  0.6520 -0.0965
  274MOL0     O36879   1.827   8.110   7.090  0.5481 -0.2907  0.5219
  274MOL0     C36880   1.732   8.062   7.000  0.1864 -0.5279  0.3605
  274MOL0     C36881   1.739   7.935   6.946  0.1515  0.5247 -0.5393
  274MOL0     C36882   1.629   7.887   6.867 -0.3313 -0.0061  0.3040
  274MOL0     C36883   1.640   7.747   6.806  0.5412 -0.5379 -0.3687
  274MOL0     C36884   1.512   7.971   6.853 -0.6248 -0.1359  0.5726
  274MOL0     C36885   1.386   7.932   6.786 -0.3048 -0.0788 -0.7210
  274MOL0     O36886   1.262   7.979   6.829  0.1079 -0.4332 -0.2026
  274MOL0     C36887   1.151   7.951   6.759  0.6763  0.6030 -0.5511
  274MOL0     C36888   1.056   8.054   6.751  0.4722 -0.2169 -0.2011
  274MOL0     C36889   0.929   8.031   6.694  0.1955 -0.0170  0.5991
  274MOL0     C36890   0.892   7.906   6.641  0.0546  0.1431  0.0334
  274MOL0     O36891   0.771   7.897   6.576  0.5274 -0.1051  0.2327
  274MOL0     C36892   0.721   7.767   6.538 -0.7576  0.0238  0.4103
  274MOL0     C36893   0.584   7.771   6.487  0.2476 -0.1448  0.4918
  274MOL0     C36894   0.533   7.637   6.458 -0.2033 -0.8385 -0.3008
  274MOL0     C36895   0.415   7.633   6.366 -0.3272 -0.2425 -0.3559
  274MOL0     C36896   0.401   7.493   6.314  0.7783  0.7012  0.4441
  274MOL0     C36897   0.250   7.483   6.248  0.7306 -0.2391 -0.3447
  274MOL0     C36898   0.226   7.346   6.188  0.4615  0.6000 -0.2706
  274MOL0     C36899   0.169   7.255   6.299 -0.0735  0.4336  0.5162
  274MOL0    Cl36900   0.117   7.081   6.251  0.0146  0.3998 -0.2914
  274MOL0     C36901   0.988   7.802   6.654 -0.0071 -0.9224  0.3905
  274MOL0     C36902   1.113   7.824   6.712  0.5771  1.0044  0.3828
  274MOL0     O36903   1.404   7.863   6.686 -0.5376 -0.0512 -0.1116
  274MOL0     C36904   1.522   8.097   6.911  0.1758 -0.0015 -0.7437
  274MOL0     C36905   1.629   8.147   6.975 -0.1953 -0.4146 -0.0416
  274MOL0     N36906   2.404   8.395   7.106 -0.2428 -0.0023  0.6239
  274MOL0     N36907   2.500   8.470   7.145  0.1457  0.1252 -1.1317
  274MOL0     C36908   3.464   8.075   7.424  0.0800 -0.7897 -0.1063
  274MOL0     C36909   3.595   8.019   7.417  0.4093  0.2103  0.4356
  274MOL0     C36910   4.051   8.082   7.470  0.4829  0.0453  0.3024
  274MOL0     C36911   4.080   8.006   7.584  0.0085  0.0471 -0.0034
  274MOL0     C36912   4.213   7.993   7.629 -0.6658  0.2273  0.5852
  274MOL0     C36913   4.319   8.057   7.561  0.3663 -0.0001  0.0528
  274MOL0     O36914   4.456   8.058   7.599 -0.3251 -0.5328  0.2209
  274MOL0     C36915   4.494   7.955   7.688 -0.1129 -0.7618 -0.0807
  274MOL0     C36916   4.640   7.945   7.704  0.0571 -0.2481 -0.9291
  274MOL0     C36917   4.701   8.083   7.728  0.4080 -0.0897 -0.2675
  274MOL0     C36918   4.631   8.156   7.851 -0.2802  0.6628  0.0849
  274MOL0     C36919   4.691   8.284   7.872 -0.3462  0.5929 -0.4440
  274MOL0     C36920   4.735   8.399   7.875  0.1285 -0.4259 -1.6182
  274MOL0     C36921   4.287   8.127   7.442 -0.4088 -0.2720  0.4525
  274MOL0     C36922   4.155   8.133   7.393  0.4822 -0.5153 -0.6440
  274MOL0     H36923   3.743   8.239   7.639 -1.4737 -0.2824  2.1060
  274MOL0     H36924   3.523   8.347   7.632 -3.5902 -0.8770  1.0278
  274MOL0     H36925   3.383   8.424   7.382  0.5394 -1.2945 -1.6127
  274MOL0     H36926   3.289   8.312   7.283  0.4990 -0.0156  0.1472
  274MOL0     H36927   3.166   8.436   7.517  2.5263 -0.0006  0.2991
  274MOL0     H36928   3.171   8.526   7.359 -0.1919 -1.1722 -1.5149
  274MOL0     H36929   3.056   8.371   7.236  0.8532 -0.2887 -0.6116
  274MOL0     H36930   3.064   8.247   7.361 -1.0128  0.3958  0.0621
  274MOL0     H36931   2.921   8.391   7.502 -0.1634 -1.3424  0.0591
  274MOL0     H36932   2.926   8.517   7.384  1.4537 -0.0413  2.2916
  274MOL0     H36933   2.786   8.362   7.237 -0.5982 -0.7703  0.0622
  274MOL0     H36934   2.821   8.237   7.346  1.0818  0.3549  0.9585
  274MOL0     H36935   2.590   8.301   7.396  1.0004 -1.6612 -1.5941
  274MOL0     H36936   2.696   8.337   7.534 -1.1937  3.6403  1.1195
  274MOL0     H36937   2.559   8.522   7.536  1.6796 -3.3825  2.2484
  274MOL0     H36938   2.712   8.585   7.483 -0.5601  0.6193 -0.6269
  274MOL0     H36939   2.626   8.636   7.260 -1.1216  2.0366 -0.3086
  274MOL0     H36940   2.504   8.675   7.386  0.6824  2.6841 -3.1774
  274MOL0     H36941   2.317   8.453   7.413 -0.7481  3.4648 -1.2019
  274MOL0     H36942   2.188   8.202   7.263 -2.1778  1.5772  2.1677
  274MOL0     H36943   2.106   8.347   7.207  3.1627  2.9461  3.2475
  274MOL0     H36944   2.258   8.185   7.003  0.4857  0.6178  0.3329
  274MOL0     H36945   2.163   8.330   6.974 -0.1405 -0.2659 -1.2398
  274MOL0     H36946   2.055   8.057   7.081 -0.3007 -0.2845 -0.7588
  274MOL0     H36947   2.043   8.100   6.920 -1.7692 -1.9310  0.5398
  274MOL0     H36948   1.891   8.267   6.946 -0.2527  2.6930  1.0753
  274MOL0     H36949   1.923   8.285   7.125 -1.2619  0.7297 -0.0086
  274MOL0     H36950   1.830   7.876   6.954 -0.5429 -0.4363  0.6565
  274MOL0     H36951   1.570   7.684   6.861  0.7238 -1.0720 -0.7491
  274MOL0     H36952   1.615   7.765   6.701 -0.9498  1.2576  0.2433
  274MOL0     H36953   1.739   7.706   6.823  1.1254  0.9355 -0.0208
  274MOL0     H36954   1.077   8.154   6.787 -2.0976 -0.1602  1.4502
  274MOL0     H36955   0.873   8.121   6.670 -0.0264  0.0419  1.3131
  274MOL0     H36956   0.786   7.718   6.465 -1.0038 -0.1091  0.2748
  274MOL0     H36957   0.710   7.710   6.631  1.6096  0.9683  1.3300
  274MOL0     H36958   0.511   7.817   6.554 -0.3144  1.7090 -1.3020
  274MOL0     H36959   0.588   7.834   6.398  1.6527 -1.3604 -0.3587
  274MOL0     H36960   0.507   7.578   6.546  0.3635 -1.3763 -0.4839
  274MOL0     H36961   0.610   7.578   6.407  1.7563  0.9413  0.4814
  274MOL0     H36962   0.334   7.658   6.434  0.4210  3.5299 -0.6488
  274MOL0     H36963   0.418   7.710   6.289  0.5481  3.3790  2.9918
  274MOL0     H36964   0.415   7.427   6.401 -0.4802 -1.4886 -0.8987
  274MOL0     H36965   0.477   7.478   6.237 -0.2711 -2.3718 -0.1567
  274MOL0     H36966   0.175   7.513   6.321  1.3651 -1.0795  0.7029
  274MOL0     H36967   0.244   7.559   6.170  1.3471  1.4850  1.2224
  274MOL0     H36968   0.316   7.300   6.146 -0.0511  0.4488 -1.2282
  274MOL0     H36969   0.154   7.361   6.107  1.5988  0.9421 -1.2382
  274MOL0     H36970   0.090   7.305   6.355 -0.3053  0.5334  0.1017
  274MOL0     H36971   0.257   7.235   6.361 -1.3270 -3.5468  1.2707
  274MOL0     H36972   0.981   7.709   6.599 -1.6728  0.4914 -1.9933
  274MOL0     H36973   1.188   7.746   6.717  1.2633  1.0885 -4.2424
  274MOL0     H36974   1.428   8.152   6.918 -0.3983 -1.1605  1.5941
  274MOL0     H36975   1.634   8.248   7.015  2.8561 -0.3369 -0.4105
  274MOL0     H36976   3.386   8.020   7.372 -0.2275  0.1367 -0.6532
  274MOL0     H36977   3.620   7.931   7.358  1.6466  1.6108 -1.2430
  274MOL0     H36978   4.006   7.951   7.641 -2.1413  0.3079 -2.3272
  274MOL0     H36979   4.237   7.925   7.710  0.8664  0.2322  0.1533
  274MOL0     H36980   4.460   7.981   7.789  3.8467  1.2349  0.9778
  274MOL0     H36981   4.456   7.859   7.654  1.9862 -1.3821 -0.8560
  274MOL0     H36982   4.685   7.898   7.617  1.1102  1.3341 -1.2995
  274MOL0     H36983   4.660   7.885   7.793  1.1548  1.0306 -0.2708
  274MOL0     H36984   4.696   8.145   7.638 -1.1202  2.3461  1.3707
  274MOL0     H36985   4.805   8.060   7.754 -0.2114 -1.7037  0.9818
  274MOL0     H36986   4.638   8.111   7.950  1.6148  2.2018  0.7239
  274MOL0     H36987   4.529   8.184   7.824 -0.1994 -0.1482 -1.1249
  274MOL0     H36988   4.769   8.500   7.883 -0.9751 -0.1912  1.3508
  274MOL0     H36989   4.363   8.178   7.383 -1.1892 -0.6591 -0.9311
  274MOL0     H36990   4.128   8.187   7.303  1.8886 -1.3662 -1.6175
  275MOL0     O36991  10.737   8.028   7.549 -0.4061 -0.5758  0.3584
  275MOL0     C36992  10.755   7.918   7.495  0.8074  0.3623 -0.2852
  275MOL0     O36993  10.663   7.849   7.418 -0.0197  0.3035 -0.1805
  275MOL0     C36994  10.539   7.898   7.400 -0.2216  0.6019  0.3014
  275MOL0     C36995  10.509   7.971   7.286  0.3450  0.1952  0.2085
  275MOL0     C36996  10.383   8.019   7.265 -0.1412  0.4443 -0.1978
  275MOL0     C36997  10.286   7.992   7.368 -0.2569 -0.3004  0.5017
  275MOL0     O36998  10.155   8.028   7.362 -0.4532 -0.0994  0.5261
  275MOL0     C36999  10.139   8.163   7.321  0.1947  0.2898  0.3312
  275MOL0     C37000  10.008   8.219   7.383 -0.0625 -0.1878 -0.5207
  275MOL0     C37001   9.890   8.133   7.338 -0.0124  0.1012 -0.6651
  275MOL0     C37002   9.756   8.191   7.389  0.5963  0.0316 -0.0838
  275MOL0     C37003   9.642   8.092   7.362  0.3041 -0.3471 -0.2884
  275MOL0     C37004   9.505   8.165   7.389  0.2854 -0.4909  0.2119
  275MOL0     C37005   9.381   8.075   7.375 -0.0895  0.3982 -0.0754
  275MOL0     C37006   9.261   8.157   7.334  0.1446 -0.2138  0.6697
  275MOL0     N37007   9.219   8.263   7.432 -0.4706  0.5358  0.5396
  275MOL0     C37008   9.144   8.258   7.548  0.5615 -0.2100 -0.2825
  275MOL0     C37009   9.138   8.386   7.595 -0.7722 -0.9457  0.6081
  275MOL0     C37010   9.046   8.436   7.703 -0.8414  1.2921  0.4519
  275MOL0     C37011   9.101   8.393   7.836 -0.4342  0.3100 -0.5397
  275MOL0     C37012   8.999   8.432   7.946 -0.4373 -0.5093 -0.0464
  275MOL0     C37013   9.028   8.343   8.067 -0.1552  0.5237  0.3506
  275MOL0     O37014   8.982   8.399   8.190  0.0016  0.2994 -0.7329
  275MOL0     C37015   8.850   8.368   8.228 -0.0521 -0.0801  0.2619
  275MOL0     C37016   8.753   8.471   8.219 -0.4292 -0.2903  0.2416
  275MOL0     C37017   8.625   8.458   8.262 -0.5844  0.2704 -0.4081
  275MOL0     C37018   8.536   8.570   8.234 -0.4642  0.2362 -0.4621
  275MOL0     C37019   8.579   8.332   8.309  0.2909 -0.0648 -0.2147
  275MOL0     C37020   8.451   8.302   8.366  0.6324  0.1129  0.3562
  275MOL0     O37021   8.412   8.392   8.467  0.0491 -0.1109  0.0116
  275MOL0     C37022   8.297   8.382   8.544 -1.1602  0.2861 -0.4998
  275MOL0     C37023   8.204   8.483   8.545  0.0413  0.1791  0.3555
  275MOL0     C37024   8.084   8.466   8.610 -0.1764  0.2653  0.2341
  275MOL0     C37025   8.048   8.337   8.669 -0.3368 -0.1950 -0.4300
  275MOL0     O37026   7.924   8.314   8.720 -0.1757 -0.2126 -0.0294
  275MOL0     C37027   7.838   8.427   8.747  0.4517 -0.2813  0.3887
  275MOL0     C37028   7.725   8.385   8.843  0.1503  0.0531 -0.1393
  275MOL0     C37029   7.630   8.505   8.863 -0.8882 -0.3309 -0.3002
  275MOL0     C37030   7.693   8.637   8.914  0.6812  0.1354 -0.0013
  275MOL0     C37031   7.589   8.726   8.984  0.5292 -0.2010  0.5156
  275MOL0     C37032   7.485   8.785   8.893 -0.5069 -0.3235  0.8005
  275MOL0     C37033   7.413   8.900   8.955 -0.3668  0.0004  0.8037
  275MOL0     C37034   7.299   8.935   8.863 -0.2311 -0.7931 -0.1349
  275MOL0    Cl37035   7.171   8.813   8.866 -0.1290  0.0965 -0.1438
  275MOL0     C37036   8.143   8.231   8.662  0.0219  0.1402 -0.7682
  275MOL0     C37037   8.271   8.255   8.600  0.9016  0.7801 -0.1664
  275MOL0     O37038   8.391   8.199   8.330 -0.0303  0.8669 -0.5487
  275MOL0     C37039   8.675   8.228   8.313 -1.0297  0.3882  0.4661
  275MOL0     C37040   8.807   8.244   8.269  0.2156 -0.2625 -0.1021
  275MOL0     N37041   9.207   8.468   7.503  0.5885  0.0277 -0.5923
  275MOL0     N37042   9.259   8.397   7.413  0.0059 -0.7118 -0.1285
  275MOL0     C37043  10.328   7.912   7.473  1.6545 -0.6920  1.4040
  275MOL0     C37044  10.444   7.860   7.492 -0.6834  0.3417  1.0279
  275MOL0     C37045  10.882   7.837   7.518  0.3743  0.5217  0.8457
  275MOL0     C37046  10.895   7.697   7.480  0.3498  0.7093 -0.1710
  275MOL0     C37047  11.019   7.634   7.509  0.2297  0.0388 -0.3070
  275MOL0     C37048  11.122   7.700   7.563  0.9680  0.4161  0.7316
  275MOL0     O37049  11.234   7.633   7.579 -0.5070 -0.9534 -0.3417
  275MOL0     C37050  11.277   7.606   7.712  0.2518 -0.7344 -0.4249
  275MOL0     C37051  11.353   7.471   7.717  0.2644  0.8076 -0.3800
  275MOL0     C37052  11.471   7.466   7.624  0.3945 -1.0875 -0.2716
  275MOL0     C37053  11.551   7.341   7.653 -0.1741 -0.8655 -0.7005
  275MOL0     C37054  11.672   7.353   7.574  0.9287  0.7252  0.5332
  275MOL0     C37055  11.764   7.363   7.500 -0.5940 -0.0599  0.0135
  275MOL0     C37056  11.102   7.833   7.602 -0.0547 -0.3870 -0.0903
  275MOL0     C37057  10.984   7.900   7.576  0.1474 -0.4349 -0.0352
  275MOL0     H37058  10.584   7.998   7.213  1.7533  1.3697  2.0219
  275MOL0     H37059  10.368   8.071   7.171  0.1458 -0.5153 -0.7928
  275MOL0     H37060  10.216   8.231   7.360  0.3697 -0.7789  1.9167
  275MOL0     H37061  10.130   8.170   7.212  3.0294  1.2340  0.0844
  275MOL0     H37062  10.003   8.222   7.492  0.3895  1.0128 -0.5178
  275MOL0     H37063   9.999   8.320   7.340  0.0490 -0.4267 -1.1184
  275MOL0     H37064   9.883   8.132   7.229 -3.4115  1.0738 -0.5665
  275MOL0     H37065   9.916   8.035   7.378  0.6467  1.4094  2.3674
  275MOL0     H37066   9.770   8.212   7.495  0.9199  3.2151 -0.6573
  275MOL0     H37067   9.745   8.288   7.340  4.2806  0.2600 -0.8101
  275MOL0     H37068   9.641   8.069   7.256  0.9809  2.2114 -0.9243
  275MOL0     H37069   9.635   7.998   7.418  0.2907 -1.1226 -1.5582
  275MOL0     H37070   9.510   8.216   7.485 -1.2122 -0.9456  0.5458
  275MOL0     H37071   9.502   8.243   7.312 -0.7736  2.0481  2.6716
  275MOL0     H37072   9.401   7.997   7.301 -0.6768  0.3574 -0.1966
  275MOL0     H37073   9.364   8.019   7.467  0.9904 -0.9734 -0.6832
  275MOL0     H37074   9.174   8.096   7.310 -1.7592  2.1774  1.1344
  275MOL0     H37075   9.275   8.210   7.240 -4.2120  1.7660  0.9386
  275MOL0     H37076   9.093   8.167   7.577  1.7506 -0.8776 -0.1884
  275MOL0     H37077   9.040   8.545   7.700  0.9960  1.4431  0.9888
  275MOL0     H37078   8.945   8.398   7.682 -0.6701  0.9774  0.1905
  275MOL0     H37079   9.193   8.444   7.867 -0.6709  0.1054  0.5543
  275MOL0     H37080   9.114   8.285   7.831 -0.2874  0.3838 -2.3044
  275MOL0     H37081   8.894   8.429   7.918 -0.2929 -2.0274 -0.4811
  275MOL0     H37082   9.034   8.534   7.968  2.0098 -1.0016 -1.2404
  275MOL0     H37083   9.134   8.316   8.069 -0.2270 -0.2215 -2.2515
  275MOL0     H37084   8.970   8.251   8.054 -0.0947  0.4794  0.4002
  275MOL0     H37085   8.796   8.562   8.177  2.5929 -1.3124  0.8684
  275MOL0     H37086   8.432   8.547   8.210 -1.2704  2.0677  1.0002
  275MOL0     H37087   8.529   8.627   8.328  1.2036  1.2377 -0.8915
  275MOL0     H37088   8.583   8.635   8.160 -0.5800  0.7024 -0.1362
  275MOL0     H37089   8.228   8.569   8.482 -3.6140 -0.1861 -1.8434
  275MOL0     H37090   8.013   8.547   8.621 -1.0422 -0.4377 -0.1130
  275MOL0     H37091   7.887   8.512   8.795 -1.9298  1.1239  0.4877
  275MOL0     H37092   7.795   8.473   8.658  2.6579  2.8933  0.8092
  275MOL0     H37093   7.673   8.301   8.796  1.0210 -1.2330  1.0882
  275MOL0     H37094   7.772   8.341   8.931 -0.9065 -1.1088 -0.1259
  275MOL0     H37095   7.553   8.468   8.931  1.1733 -1.0098  1.7933
  275MOL0     H37096   7.574   8.530   8.773 -0.4632 -1.7895 -1.0111
  275MOL0     H37097   7.767   8.608   8.990 -0.0044 -0.2740  0.5262
  275MOL0     H37098   7.745   8.700   8.841 -2.0864  2.0985 -0.4362
  275MOL0     H37099   7.625   8.816   9.034 -2.3521 -0.4358  3.3024
  275MOL0     H37100   7.541   8.666   9.062 -1.9818  1.7039  0.5656
  275MOL0     H37101   7.545   8.821   8.809 -0.3592  1.4093  1.6164
  275MOL0     H37102   7.415   8.705   8.866 -0.9505  0.1113  0.6466
  275MOL0     H37103   7.482   8.985   8.954 -3.3941  2.6387  0.5904
  275MOL0     H37104   7.383   8.877   9.057  1.5509 -0.9553  1.2091
  275MOL0     H37105   7.322   8.954   8.758  1.0848 -0.6031  0.1694
  275MOL0     H37106   7.265   9.032   8.899 -0.7403 -0.9381 -0.2242
  275MOL0     H37107   8.115   8.139   8.711 -0.6291  1.5347  1.6371
  275MOL0     H37108   8.347   8.178   8.590  1.5809  1.6200 -1.7530
  275MOL0     H37109   8.647   8.134   8.359 -0.3231  0.0640  0.2466
  275MOL0     H37110   8.865   8.153   8.284 -0.7470 -0.9491 -0.4328
  275MOL0     H37111  10.246   7.897   7.542 -2.0618  1.8017 -1.9795
  275MOL0     H37112  10.470   7.800   7.578 -0.0407 -0.7405  0.1060
  275MOL0     H37113  10.817   7.634   7.439  0.5593 -0.3384  0.9895
  275MOL0     H37114  11.020   7.537   7.462 -0.5647  0.4715 -1.2607
  275MOL0     H37115  11.347   7.676   7.759  0.2619 -1.8660  1.3172
  275MOL0     H37116  11.185   7.605   7.771 -0.6456  1.1976 -1.6934
  275MOL0     H37117  11.294   7.385   7.684  1.6430 -0.6426  0.8081
  275MOL0     H37118  11.386   7.458   7.821 -2.0084 -1.7435  0.1467
  275MOL0     H37119  11.524   7.560   7.640  0.6797 -1.2444 -0.3058
  275MOL0     H37120  11.434   7.471   7.522 -0.7882 -1.4970  0.1142
  275MOL0     H37121  11.485   7.261   7.618 -2.2494  0.1944  0.5933
  275MOL0     H37122  11.571   7.322   7.759 -0.5227  1.8978 -0.0605
  275MOL0     H37123  11.853   7.348   7.443 -1.2460 -0.9428 -0.8078
  275MOL0     H37124  11.179   7.895   7.645  1.0595 -1.1756 -0.8839
  275MOL0     H37125  10.967   8.005   7.596 -1.7714  0.2684 -4.2175
  276MOL0     O37126   8.491   9.243   1.570  0.1641  0.0765  0.7824
  276MOL0     C37127   8.524   9.216   1.448 -0.4112  0.3931 -0.4639
  276MOL0     O37128   8.628   9.282   1.376 -0.1931  0.3904  0.3155
  276MOL0     C37129   8.680   9.399   1.431 -0.3490  1.6557  0.3429
  276MOL0     C37130   8.819   9.419   1.443  0.3149  0.9633 -1.3968
  276MOL0     C37131   8.860   9.540   1.492 -0.0127 -0.9553  0.5782
  276MOL0     C37132   8.777   9.651   1.518 -0.0653  0.1344  0.5369
  276MOL0     O37133   8.825   9.770   1.565  0.0423  0.6115 -0.5334
  276MOL0     C37134   8.951   9.762   1.642 -0.1749  0.4024  0.5607
  276MOL0     C37135   8.993   9.902   1.672  0.5024 -0.5084  0.7308
  276MOL0     C37136   8.909   9.950   1.798 -0.5301  0.7368 -0.2592
  276MOL0     C37137   8.870  10.094   1.799 -0.2737 -0.6848  0.3111
  276MOL0     C37138   8.742  10.109   1.884 -0.1083 -0.4861 -0.8356
  276MOL0     C37139   8.766  10.078   2.037 -0.2512 -0.8319 -0.1754
  276MOL0     C37140   8.642  10.090   2.128 -0.5021  0.2113 -0.2999
  276MOL0     C37141   8.676  10.019   2.264  0.7660  0.0482 -0.4133
  276MOL0     N37142   8.598  10.069   2.376 -0.1841 -0.6164 -0.0662
  276MOL0     C37143   8.466  10.078   2.374  0.0724 -0.0999 -0.0286
  276MOL0     C37144   8.440  10.125   2.501  0.0750  0.2239 -0.0744
  276MOL0     C37145   8.305  10.125   2.563 -0.5565  0.0594 -0.1939
  276MOL0     C37146   8.253  10.274   2.553 -0.0478  0.3216  0.4211
  276MOL0     C37147   8.122  10.292   2.637 -0.1337  0.0814  0.7402
  276MOL0     C37148   8.002  10.253   2.547  0.1918  0.7362 -0.0967
  276MOL0     O37149   7.876  10.285   2.622  0.1808 -0.1492  0.4374
  276MOL0     C37150   7.756  10.253   2.562  0.8057  0.6201 -0.8311
  276MOL0     C37151   7.732  10.182   2.444  0.1202 -0.6127  0.9567
  276MOL0     C37152   7.602  10.146   2.393  0.8805 -0.4989  0.2904
  276MOL0     C37153   7.594  10.061   2.274 -0.0254 -0.7233 -0.6329
  276MOL0     C37154   7.484  10.184   2.469 -0.7201  0.0278  0.7461
  276MOL0     C37155   7.343  10.140   2.438 -0.3543 -0.5703  0.0552
  276MOL0     O37156   7.293  10.132   2.306 -0.3062  0.0775  0.3119
  276MOL0     C37157   7.156  10.123   2.298 -0.0569 -0.2201 -0.0929
  276MOL0     C37158   7.102   9.997   2.315 -1.0765  0.3525 -0.8487
  276MOL0     C37159   6.968   9.976   2.303 -0.0870  0.0736 -0.0747
  276MOL0     C37160   6.882  10.073   2.261 -0.6324  0.5791 -0.0748
  276MOL0     O37161   6.756  10.036   2.257 -0.0737  0.7190 -0.1556
  276MOL0     C37162   6.686  10.089   2.143  0.5193 -0.0122 -0.3869
  276MOL0     C37163   6.566  10.010   2.109 -0.4596 -1.2241 -0.4355
  276MOL0     C37164   6.476  10.064   1.994 -0.4465  0.5040 -0.5308
  276MOL0     C37165   6.538  10.178   1.918  0.1187 -0.0279  0.0901
  276MOL0     C37166   6.431  10.232   1.823  0.2574 -0.0728  0.8696
  276MOL0     C37167   6.487  10.340   1.737 -0.6189  0.5587 -0.2253
  276MOL0     C37168   6.588  10.287   1.621 -0.7561 -0.7329 -0.6944
  276MOL0     C37169   6.634  10.408   1.536  0.3109 -0.1800  0.0528
  276MOL0    Cl37170   6.776  10.344   1.448  0.2858 -0.3671 -0.0928
  276MOL0     C37171   6.932  10.200   2.240 -0.8394 -0.4197 -0.2529
  276MOL0     C37172   7.066  10.224   2.252 -0.2437  0.4064  0.2202
  276MOL0     O37173   7.275  10.133   2.543  0.6377  0.1848 -0.3128
  276MOL0     C37174   7.507  10.262   2.585 -0.6814 -0.0431 -0.2697
  276MOL0     C37175   7.640  10.291   2.629  0.2485 -0.5379 -0.5520
  276MOL0     N37176   8.563  10.135   2.575  0.2680 -0.3928  0.2414
  276MOL0     N37177   8.647  10.085   2.497 -0.7313 -0.2259  0.4790
  276MOL0     C37178   8.635   9.633   1.503  0.1652 -1.1708  0.4712
  276MOL0     C37179   8.587   9.502   1.469  0.1388  0.2745 -0.1315
  276MOL0     C37180   8.452   9.096   1.388 -0.6533 -0.0400  0.8623
  276MOL0     C37181   8.348   9.020   1.455  0.0760 -1.3265  0.1446
  276MOL0     C37182   8.282   8.921   1.389 -0.4026 -0.2620  0.3773
  276MOL0     C37183   8.305   8.894   1.256  0.9067  0.7840 -0.1987
  276MOL0     O37184   8.225   8.801   1.197 -0.1621 -0.5557 -0.6600
  276MOL0     C37185   8.221   8.783   1.054  0.8812  0.4808 -0.2233
  276MOL0     C37186   8.096   8.695   1.014 -0.4708  0.3069  0.8455
  276MOL0     C37187   7.967   8.760   1.047  0.1696  0.1278  0.6174
  276MOL0     C37188   7.838   8.682   1.021  0.6370  0.0993  0.0789
  276MOL0     C37189   7.850   8.570   0.925  0.1063 -0.0408 -0.8528
  276MOL0     C37190   7.866   8.481   0.841  0.7427  0.3740 -0.2328
  276MOL0     C37191   8.409   8.956   1.188  0.4757 -0.0196 -0.1130
  276MOL0     C37192   8.483   9.051   1.252  0.1756  0.1551 -0.3975
  276MOL0     H37193   8.882   9.333   1.423 -2.3496 -0.9715 -2.0895
  276MOL0     H37194   8.968   9.552   1.487 -0.0200 -1.0504  0.0774
  276MOL0     H37195   8.921   9.710   1.734 -1.8358  1.8047  0.8599
  276MOL0     H37196   9.032   9.710   1.592  0.4131  0.5787  1.3133
  276MOL0     H37197   9.101   9.906   1.690  0.5006  1.5780  0.4851
  276MOL0     H37198   8.978   9.960   1.580 -0.2855 -3.4234 -1.1223
  276MOL0     H37199   8.825   9.880   1.811  2.1276 -2.1870  3.0929
  276MOL0     H37200   8.969   9.936   1.888 -0.2267  3.4274  0.0308
  276MOL0     H37201   8.945  10.166   1.833  0.6734 -0.2138 -2.4795
  276MOL0     H37202   8.861  10.128   1.696  0.9682  2.5414  1.1238
  276MOL0     H37203   8.702  10.210   1.873  0.3589  0.2052  2.5863
  276MOL0     H37204   8.655  10.050   1.857 -0.4046 -2.1358  2.9967
  276MOL0     H37205   8.790   9.972   2.047  2.0378 -0.2683  0.7981
  276MOL0     H37206   8.844  10.139   2.083 -0.5317 -0.2806 -0.4175
  276MOL0     H37207   8.618  10.194   2.152 -0.1002  0.2707 -0.1409
  276MOL0     H37208   8.557  10.050   2.071  0.2523  0.0665 -1.3712
  276MOL0     H37209   8.781  10.036   2.288  0.1539  0.4773  2.2871
  276MOL0     H37210   8.658   9.911   2.253 -1.0193  0.4079 -1.4120
  276MOL0     H37211   8.409  10.035   2.293 -0.4364  0.9878 -0.2745
  276MOL0     H37212   8.236  10.070   2.499 -1.7535  0.3410  0.8062
  276MOL0     H37213   8.295  10.094   2.668 -0.7402 -1.6298 -0.6766
  276MOL0     H37214   8.221  10.284   2.449  1.0048 -1.4451 -0.1063
  276MOL0     H37215   8.326  10.348   2.588  0.2685 -1.4144  3.8773
  276MOL0     H37216   8.104  10.396   2.667 -0.8197 -0.2453  1.5012
  276MOL0     H37217   8.127  10.239   2.732  1.2860 -1.2748 -0.0393
  276MOL0     H37218   8.002  10.147   2.523  0.8249  0.7184 -0.0417
  276MOL0     H37219   7.997  10.308   2.452  1.1281  0.0094 -0.5851
  276MOL0     H37220   7.816  10.147   2.384  0.7241  1.3192  0.6184
  276MOL0     H37221   7.555   9.961   2.298 -0.7225 -0.6416 -1.3862
  276MOL0     H37222   7.536  10.111   2.197  0.2871 -1.8660 -1.6466
  276MOL0     H37223   7.687  10.032   2.225  0.7696 -2.1066  1.5151
  276MOL0     H37224   7.168   9.915   2.344  1.0312  1.1110 -3.1116
  276MOL0     H37225   6.923   9.878   2.319 -0.1936 -0.5734 -3.6805
  276MOL0     H37226   6.658  10.192   2.166 -0.5242 -0.5206  0.7111
  276MOL0     H37227   6.750  10.091   2.054 -0.1985  0.8790 -0.9112
  276MOL0     H37228   6.621   9.921   2.076  1.8057  1.2667 -4.2234
  276MOL0     H37229   6.515   9.986   2.203  0.1128  0.6164  0.3822
  276MOL0     H37230   6.378  10.099   2.028  0.5723  0.4096  2.9089
  276MOL0     H37231   6.452   9.980   1.928  0.7133 -2.0971  2.1196
  276MOL0     H37232   6.566  10.260   1.984  1.7236  1.2326 -2.0073
  276MOL0     H37233   6.632  10.147   1.871 -0.7938  1.0369 -2.6571
  276MOL0     H37234   6.338  10.261   1.873 -0.8385  0.5747 -1.4235
  276MOL0     H37235   6.397  10.150   1.759  0.8279  0.6613 -0.4256
  276MOL0     H37236   6.397  10.387   1.694 -1.0361 -0.6316 -0.6778
  276MOL0     H37237   6.544  10.410   1.799  2.7905 -2.7700  0.7291
  276MOL0     H37238   6.531  10.218   1.557 -1.4612 -2.1743  1.3679
  276MOL0     H37239   6.678  10.242   1.663 -0.8528 -0.1355  0.1860
  276MOL0     H37240   6.659  10.496   1.596  3.5662  0.8394 -2.4957
  276MOL0     H37241   6.558  10.452   1.470  3.4220  0.6437 -3.2832
  276MOL0     H37242   6.867  10.281   2.209  1.9820  2.5004  0.9095
  276MOL0     H37243   7.111  10.321   2.231 -0.0086  0.2483  0.0007
  276MOL0     H37244   7.423  10.297   2.645  1.9211  4.4963  1.1615
  276MOL0     H37245   7.656  10.348   2.721 -0.9995  0.5189 -0.9547
  276MOL0     H37246   8.566   9.716   1.515  1.5588  0.3080 -1.0567
  276MOL0     H37247   8.479   9.490   1.464 -0.0667  1.7144  0.4942
  276MOL0     H37248   8.323   9.035   1.559 -2.7751 -1.2535 -0.4617
  276MOL0     H37249   8.209   8.863   1.444 -0.1010  0.8465  2.0063
  276MOL0     H37250   8.208   8.881   1.007 -1.4945  0.5523  0.4125
  276MOL0     H37251   8.303   8.726   1.010 -0.8072 -1.6062 -0.8177
  276MOL0     H37252   8.103   8.596   1.062 -2.4225  0.1021  0.8071
  276MOL0     H37253   8.108   8.673   0.908  2.3783 -1.1145  1.3776
  276MOL0     H37254   7.967   8.860   1.003 -0.4655 -0.9962 -2.1701
  276MOL0     H37255   7.970   8.765   1.156 -0.1272 -0.1550  0.6404
  276MOL0     H37256   7.754   8.746   0.991 -0.4991 -0.7633  1.3078
  276MOL0     H37257   7.803   8.636   1.114  1.1008 -0.7805 -0.1751
  276MOL0     H37258   7.859   8.398   0.774  2.7506  2.0194 -2.6701
  276MOL0     H37259   8.426   8.937   1.082 -3.4035 -0.2727 -0.8382
  276MOL0     H37260   8.562   9.102   1.198  1.2707 -1.7950 -0.7404
  277MOL0     O37261   3.126   3.906   9.300  0.3763 -0.6291 -0.2211
  277MOL0     C37262   3.135   3.910   9.426  0.2637 -0.1266  0.0375
  277MOL0     O37263   3.033   3.911   9.520  0.2365 -0.1965  0.3253
  277MOL0     C37264   2.899   3.879   9.497 -0.2957 -0.2133  0.9654
  277MOL0     C37265   2.833   3.832   9.620  0.1908  0.1912 -0.3623
  277MOL0     C37266   2.693   3.799   9.622 -0.4684  0.3469  0.6711
  277MOL0     C37267   2.627   3.808   9.497 -0.6651 -0.1841  0.3721
  277MOL0     O37268   2.490   3.777   9.494 -0.9323 -0.0978 -1.0154
  277MOL0     C37269   2.425   3.680   9.411  0.3813 -0.2319 -0.1300
  277MOL0     C37270   2.318   3.738   9.314  0.2290  0.8610 -0.3151
  277MOL0     C37271   2.184   3.765   9.384 -0.5445  0.1688 -1.2871
  277MOL0     C37272   2.103   3.855   9.309  0.4379  0.1643  0.4281
  277MOL0     C37273   1.975   3.785   9.253 -0.6218  0.0039  0.4018
  277MOL0     C37274   1.872   3.767   9.365  0.4071  0.3021  0.6540
  277MOL0     C37275   1.732   3.757   9.315 -0.3672  0.3610 -1.2783
  277MOL0     C37276   1.706   3.617   9.248  0.4342 -0.2169 -0.4807
  277MOL0     N37277   1.573   3.577   9.205  0.0162  0.5805 -0.3712
  277MOL0     C37278   1.465   3.656   9.190  0.7288 -0.1987  0.3290
  277MOL0     C37279   1.353   3.581   9.177 -0.7728 -0.2070  0.9628
  277MOL0     C37280   1.209   3.619   9.139 -1.6623  0.3194  0.5574
  277MOL0     C37281   1.163   3.535   9.015  0.6542  0.4158  0.3349
  277MOL0     C37282   1.011   3.553   8.993  0.1553  0.2671 -0.1383
  277MOL0     C37283   0.950   3.477   8.877  0.9059  0.1220  1.0101
  277MOL0     O37284   0.833   3.553   8.829  0.9949  0.3098  0.3564
  277MOL0     C37285   0.713   3.511   8.862  1.0908  0.5812  0.4250
  277MOL0     C37286   0.603   3.576   8.794 -1.0842  0.0790 -0.3883
  277MOL0     C37287   0.465   3.548   8.811  0.2504  0.6221 -0.2958
  277MOL0     C37288   0.378   3.613   8.714  0.8692 -0.1043  0.0185
  277MOL0     C37289   0.429   3.449   8.903 -0.3213  0.3870  0.8484
  277MOL0     C37290   0.293   3.410   8.931  0.4526  0.4604  0.2994
  277MOL0     O37291   0.275   3.298   9.001  0.7007  0.5898 -0.2521
  277MOL0     C37292   0.153   3.263   9.047  0.3623 -0.4726  0.7090
  277MOL0     C37293   0.061   3.176   8.980 -0.0833  0.0026  0.2456
  277MOL0     C37294  -0.069   3.166   9.021 -0.0008  0.4701  0.5685
  277MOL0     C37295  -0.125   3.241   9.123  0.4894  0.3561  0.4562
  277MOL0     O37296  -0.259   3.244   9.155 -0.4579 -0.2477 -0.3706
  277MOL0     C37297  -0.318   3.120   9.153  0.2153  0.9376  0.0464
  277MOL0     C37298  -0.456   3.114   9.218  0.3121  0.1668  0.3819
  277MOL0     C37299  -0.552   3.230   9.177 -0.1700  0.3504 -0.4529
  277MOL0     C37300  -0.691   3.223   9.249 -0.4362  0.6254 -0.2509
  277MOL0     C37301  -0.784   3.311   9.185  0.1527  0.3995 -0.0449
  277MOL0     C37302  -0.922   3.305   9.258  0.6679  0.1785 -0.2510
  277MOL0     C37303  -0.995   3.175   9.242 -0.2012 -0.3815  0.0792
  277MOL0     C37304  -1.149   3.198   9.245  0.1673  0.2519 -0.8120
  277MOL0    Cl37305  -1.211   3.274   9.102 -0.3410  0.4472 -0.1107
  277MOL0     C37306  -0.037   3.326   9.184 -0.2694  0.3089 -0.5875
  277MOL0     C37307   0.097   3.341   9.149  1.4554 -0.5476  0.0568
  277MOL0     O37308   0.205   3.488   8.890  0.7293  0.2319  0.0813
  277MOL0     C37309   0.532   3.378   8.972 -0.2267 -0.1933  0.3684
  277MOL0     C37310   0.670   3.411   8.948  0.0188  0.6126 -0.5220
  277MOL0     N37311   1.397   3.449   9.193 -0.3723 -0.4314 -0.3397
  277MOL0     N37312   1.528   3.450   9.214  0.3541 -0.0225 -0.3102
  277MOL0     C37313   2.687   3.856   9.378 -0.0429  0.0672  0.4867
  277MOL0     C37314   2.827   3.887   9.374  0.1127  0.1654  0.5193
  277MOL0     C37315   3.275   3.901   9.484  1.1133 -0.1997 -0.2202
  277MOL0     C37316   3.294   3.906   9.629  0.6284  0.3241 -0.1916
  277MOL0     C37317   3.422   3.886   9.690 -0.6057 -0.3546  0.0170
  277MOL0     C37318   3.528   3.877   9.604  0.3090  0.4321 -0.9088
  277MOL0     O37319   3.645   3.820   9.649  0.5978 -0.2512 -0.6222
  277MOL0     C37320   3.674   3.855   9.788  0.0587  0.0842 -0.9296
  277MOL0     C37321   3.827   3.855   9.807  0.0584 -0.2384 -0.8148
  277MOL0     C37322   3.868   3.710   9.837 -0.2357 -1.0294  0.0910
  277MOL0     C37323   4.010   3.689   9.891 -0.4148  0.8563  0.2821
  277MOL0     C37324   4.032   3.547   9.924  0.7785 -0.2066  0.7972
  277MOL0     C37325   4.072   3.430   9.946 -0.2717 -0.2340  0.2856
  277MOL0     C37326   3.511   3.875   9.471  0.0290  0.5158  0.4285
  277MOL0     C37327   3.387   3.885   9.409 -0.1348 -0.2811  0.1395
  277MOL0     H37328   2.886   3.820   9.713  1.7537  2.2870 -0.9059
  277MOL0     H37329   2.643   3.761   9.710 -1.2900  1.5718  0.7606
  277MOL0     H37330   2.495   3.620   9.352 -0.1857 -1.1436  0.1065
  277MOL0     H37331   2.385   3.604   9.479  0.3929  2.3840  3.0561
  277MOL0     H37332   2.350   3.829   9.262 -1.9793  1.2997 -0.9951
  277MOL0     H37333   2.293   3.658   9.245  0.4070  0.0829  0.5019
  277MOL0     H37334   2.136   3.669   9.401 -0.7837  0.8463  2.6189
  277MOL0     H37335   2.192   3.800   9.487 -0.0791 -1.0265 -0.9083
  277MOL0     H37336   2.083   3.935   9.380  1.4056 -0.1693  1.1041
  277MOL0     H37337   2.152   3.893   9.219 -0.0732 -1.9632 -0.8183
  277MOL0     H37338   1.928   3.836   9.168 -0.4738 -0.5122  0.0013
  277MOL0     H37339   2.001   3.686   9.214 -3.0778 -0.4951 -0.2094
  277MOL0     H37340   1.902   3.679   9.423 -0.3078  1.4377  2.8208
  277MOL0     H37341   1.876   3.848   9.438 -1.1106  0.8608  0.1459
  277MOL0     H37342   1.671   3.762   9.406  0.9655 -0.7409 -0.2773
  277MOL0     H37343   1.710   3.845   9.253  0.8452  1.7932  0.2496
  277MOL0     H37344   1.746   3.536   9.309 -0.3054 -1.6326 -1.7997
  277MOL0     H37345   1.769   3.603   9.159  0.2725  0.4086 -0.6981
  277MOL0     H37346   1.460   3.765   9.183 -0.2554 -0.2978 -0.7802
  277MOL0     H37347   1.154   3.608   9.233 -0.6487  0.4500  1.1792
  277MOL0     H37348   1.207   3.725   9.114  0.3106 -0.1494 -1.9405
  277MOL0     H37349   1.178   3.433   9.052  2.1836  1.6654  3.5184
  277MOL0     H37350   1.220   3.556   8.924 -1.0009  2.3360 -0.3484
  277MOL0     H37351   0.993   3.659   8.971  1.4984  0.0264 -2.9046
  277MOL0     H37352   0.951   3.525   9.080 -2.5037  0.8040 -1.6857
  277MOL0     H37353   0.929   3.372   8.902  1.6677 -0.2666  0.0536
  277MOL0     H37354   1.018   3.484   8.792 -1.3900 -1.7045 -1.1646
  277MOL0     H37355   0.638   3.650   8.722 -0.4514 -1.3139 -1.5598
  277MOL0     H37356   0.437   3.639   8.626  1.1568 -1.2276 -0.1336
  277MOL0     H37357   0.296   3.545   8.687  0.1539  0.2470  1.2191
  277MOL0     H37358   0.337   3.705   8.758 -0.2290 -1.1011  1.1368
  277MOL0     H37359   0.101   3.124   8.894  0.2414 -0.1358  0.4805
  277MOL0     H37360  -0.126   3.092   8.967  0.5229  1.0953 -0.8799
  277MOL0     H37361  -0.332   3.079   9.053  2.1261 -0.0293  0.1394
  277MOL0     H37362  -0.252   3.048   9.203 -0.1951 -0.5619 -1.4971
  277MOL0     H37363  -0.509   3.021   9.195  2.7304 -1.6225  1.5927
  277MOL0     H37364  -0.428   3.108   9.324 -1.2065  1.0476  0.8658
  277MOL0     H37365  -0.568   3.208   9.071  0.7510 -1.0593 -0.3379
  277MOL0     H37366  -0.500   3.323   9.202 -2.0758  0.8865  1.8964
  277MOL0     H37367  -0.733   3.123   9.240 -4.2355  1.8928  1.0119
  277MOL0     H37368  -0.683   3.247   9.356  0.8897 -1.8210  0.2614
  277MOL0     H37369  -0.802   3.275   9.083  1.9775 -0.9894  0.0565
  277MOL0     H37370  -0.754   3.416   9.188 -0.7677  0.6684 -0.0317
  277MOL0     H37371  -0.920   3.325   9.365 -1.9429  0.3450 -0.1633
  277MOL0     H37372  -0.980   3.386   9.214 -0.9273  0.5642  2.3341
  277MOL0     H37373  -0.955   3.102   9.313  0.9424 -0.5644 -0.7365
  277MOL0     H37374  -0.973   3.145   9.140  0.6917  3.2231 -0.9557
  277MOL0     H37375  -1.184   3.252   9.333  1.3132 -1.3876  0.7268
  277MOL0     H37376  -1.195   3.100   9.255  3.4762 -1.2006  3.4861
  277MOL0     H37377  -0.073   3.395   9.260  0.4562 -1.6925  1.6827
  277MOL0     H37378   0.151   3.423   9.196 -1.8149  0.3075  2.6902
  277MOL0     H37379   0.503   3.318   9.058 -2.1135 -1.9561 -1.3855
  277MOL0     H37380   0.741   3.363   9.014  0.1742 -0.4243 -1.4204
  277MOL0     H37381   2.623   3.866   9.291  0.7354 -1.0593 -0.2343
  277MOL0     H37382   2.874   3.919   9.281 -1.8510 -0.4980 -0.7653
  277MOL0     H37383   3.205   3.929   9.688  1.0540  0.4490  0.4163
  277MOL0     H37384   3.443   3.880   9.796 -1.7893  0.1470  0.3052
  277MOL0     H37385   3.645   3.957   9.813  0.0295  0.1682 -1.3056
  277MOL0     H37386   3.623   3.778   9.848  0.0433 -0.8091 -2.0687
  277MOL0     H37387   3.850   3.918   9.894  0.2615  2.0462 -2.4509
  277MOL0     H37388   3.876   3.885   9.714 -0.0676 -1.2718 -1.2283
  277MOL0     H37389   3.863   3.653   9.743 -2.6388  0.9401 -1.0835
  277MOL0     H37390   3.803   3.662   9.910  1.5638 -0.5454  2.1028
  277MOL0     H37391   4.009   3.744   9.986 -0.1683 -0.1767  0.8880
  277MOL0     H37392   4.091   3.726   9.827 -1.1553  1.1059 -0.5418
  277MOL0     H37393   4.120   3.338   9.972 -0.6734 -0.8682 -1.1317
  277MOL0     H37394   3.593   3.864   9.400 -0.9195 -0.3041 -0.5910
  277MOL0     H37395   3.370   3.883   9.302 -2.7240 -1.1718  0.5088
  278MOL0     O37396  11.065   9.688   2.540  0.3786 -1.1409  0.2398
  278MOL0     C37397  11.151   9.690   2.447 -0.7055  0.4631 -0.1381
  278MOL0     O37398  11.153   9.775   2.338  0.5316 -0.0257  0.1607
  278MOL0     C37399  11.059   9.877   2.341  0.1723  0.0552 -0.1889
  278MOL0     C37400  10.973   9.883   2.233 -0.0747 -0.7790  0.4797
  278MOL0     C37401  10.878   9.979   2.238  0.1135  0.2311 -0.0210
  278MOL0     C37402  10.853  10.057   2.355 -0.4274  0.7937 -0.4377
  278MOL0     O37403  10.748  10.142   2.362 -0.2546 -1.0925  0.0658
  278MOL0     C37404  10.674  10.174   2.481 -0.1106  0.6990  0.2879
  278MOL0     C37405  10.544  10.248   2.456 -0.5521  0.2653  0.2167
  278MOL0     C37406  10.431  10.159   2.416  0.3919 -1.0766 -0.3178
  278MOL0     C37407  10.298  10.214   2.364 -0.4136 -0.0058  0.9511
  278MOL0     C37408  10.216  10.092   2.306 -0.4484  0.1282 -0.7066
  278MOL0     C37409  10.071  10.117   2.266  0.0246  0.0761  0.3031
  278MOL0     C37410  10.015   9.990   2.196  0.4619  0.7616 -0.7105
  278MOL0     C37411   9.874  10.008   2.142  0.0721  0.5845  0.4099
  278MOL0     N37412   9.823   9.892   2.064  0.4116 -0.1261 -0.5810
  278MOL0     C37413   9.724   9.895   1.964 -0.6894  0.3370  0.2344
  278MOL0     C37414   9.688   9.763   1.946 -0.2190  0.4756 -0.8910
  278MOL0     C37415   9.589   9.718   1.841 -0.8872  0.6470  1.0260
  278MOL0     C37416   9.493   9.611   1.894  0.0738  0.0350  0.2539
  278MOL0     C37417   9.348   9.622   1.833 -1.1343 -0.8158 -0.6223
  278MOL0     C37418   9.276   9.487   1.854 -0.4510 -0.4314  0.4500
  278MOL0     O37419   9.150   9.482   1.799  0.8626  0.2673 -0.7344
  278MOL0     C37420   9.099   9.352   1.778 -0.0351 -0.6148  0.3100
  278MOL0     C37421   9.163   9.225   1.804  0.2792 -0.4767 -0.4092
  278MOL0     C37422   9.104   9.097   1.786 -0.0979  0.1642  0.5595
  278MOL0     C37423   9.187   8.973   1.818 -0.3232 -0.1632 -0.1215
  278MOL0     C37424   8.971   9.098   1.743 -0.0971  0.2428  0.6399
  278MOL0     C37425   8.893   8.968   1.721  0.1073  0.5336  0.1893
  278MOL0     O37426   8.762   8.973   1.730 -0.8697  0.5163  0.2382
  278MOL0     C37427   8.696   8.854   1.707  0.0398  0.2064  0.0070
  278MOL0     C37428   8.719   8.735   1.778  0.0293  0.2053 -0.6137
  278MOL0     C37429   8.648   8.621   1.744 -0.2532  0.6857  0.6324
  278MOL0     C37430   8.546   8.620   1.652  0.0327 -0.2338  0.4578
  278MOL0     O37431   8.459   8.511   1.637  0.4496 -0.1698 -1.2200
  278MOL0     C37432   8.494   8.390   1.719 -0.2044 -0.3636 -0.2973
  278MOL0     C37433   8.377   8.284   1.714  0.4563 -0.0971  0.0011
  278MOL0     C37434   8.367   8.231   1.567  0.2211 -0.6664  0.1719
  278MOL0     C37435   8.279   8.102   1.568  0.5261 -0.0403  0.1540
  278MOL0     C37436   8.262   8.064   1.415 -0.9443 -0.7493  0.6438
  278MOL0     C37437   8.227   7.918   1.400 -0.5454  0.3103  0.8491
  278MOL0     C37438   8.074   7.885   1.386 -0.5335 -0.2852  1.1650
  278MOL0     C37439   8.018   7.949   1.256 -0.7054 -0.4022  1.0086
  278MOL0    Cl37440   7.851   7.885   1.242  0.4098  0.1235  0.3467
  278MOL0     C37441   8.524   8.739   1.588 -0.5517  0.2393 -0.0335
  278MOL0     C37442   8.599   8.849   1.609 -0.1107  1.0035 -0.5679
  278MOL0     O37443   8.959   8.874   1.679  0.6843  0.6425  0.1234
  278MOL0     C37444   8.894   9.219   1.731  0.2860  0.3893 -0.4079
  278MOL0     C37445   8.963   9.335   1.762  0.9512  0.0519  0.5626
  278MOL0     N37446   9.768   9.689   2.031  0.4424  0.7914  0.1755
  278MOL0     N37447   9.838   9.762   2.108  0.7423  0.0628 -1.1104
  278MOL0     C37448  10.947  10.054   2.461  0.3839  0.1375  0.0678
  278MOL0     C37449  11.056   9.960   2.453  0.4687 -0.2868 -0.9643
  278MOL0     C37450  11.259   9.596   2.458  0.3383 -0.0648 -0.8057
  278MOL0     C37451  11.262   9.522   2.574 -1.0707  0.2553  0.2734
  278MOL0     C37452  11.356   9.419   2.594  0.0663 -0.1686  0.2567
  278MOL0     C37453  11.450   9.392   2.492 -0.2367  0.3895  0.3889
  278MOL0     O37454  11.538   9.288   2.509  0.1368 -0.5619 -0.5252
  278MOL0     C37455  11.641   9.259   2.421  0.5502  0.0825  0.2195
  278MOL0     C37456  11.735   9.143   2.470 -0.1003 -0.4315 -0.4944
  278MOL0     C37457  11.663   9.007   2.458 -0.0672 -0.3986 -0.2344
  278MOL0     C37458  11.609   8.967   2.325 -0.2258 -0.4261  0.6324
  278MOL0     C37459  11.715   8.916   2.242 -0.6809 -0.2276  0.6633
  278MOL0     C37460  11.797   8.864   2.166 -0.5945 -0.5626 -0.6889
  278MOL0     C37461  11.454   9.480   2.382  0.3322  0.3675 -0.1929
  278MOL0     C37462  11.354   9.569   2.361  0.8460 -0.5272  0.4413
  278MOL0     H37463  10.990   9.817   2.149 -4.4788  0.7653 -1.9597
  278MOL0     H37464  10.808   9.992   2.156 -0.0931  0.5207  0.2019
  278MOL0     H37465  10.654  10.078   2.530  0.6426  0.9245  1.0711
  278MOL0     H37466  10.738  10.243   2.537  0.9094 -0.0567  0.0848
  278MOL0     H37467  10.521  10.297   2.550 -0.1478  2.3208 -0.6972
  278MOL0     H37468  10.558  10.331   2.387 -1.1348 -1.2427 -1.8376
  278MOL0     H37469  10.465  10.091   2.338 -0.0717 -3.1674  1.2301
  278MOL0     H37470  10.412  10.097   2.503 -1.2879  0.0861  0.1978
  278MOL0     H37471  10.238  10.269   2.437  0.5756  0.7052  1.2330
  278MOL0     H37472  10.313  10.288   2.285 -1.2753  0.8361  1.5455
  278MOL0     H37473  10.272  10.051   2.221 -1.8109 -2.0112 -0.6515
  278MOL0     H37474  10.207  10.015   2.383 -0.6888  0.5087 -0.3472
  278MOL0     H37475  10.015  10.149   2.354 -1.7891  1.6202 -1.3236
  278MOL0     H37476  10.054  10.202   2.199 -2.1597 -0.9684 -0.5697
  278MOL0     H37477  10.080   9.953   2.117  0.3876  0.1044 -0.4686
  278MOL0     H37478  10.000   9.914   2.273 -1.7230  0.1022 -1.6928
  278MOL0     H37479   9.864  10.106   2.094 -0.1752  0.3035 -0.1196
  278MOL0     H37480   9.801  10.024   2.222 -0.7351  0.0781 -0.2025
  278MOL0     H37481   9.702   9.984   1.905  1.4369  0.7976  0.0486
  278MOL0     H37482   9.538   9.805   1.798 -2.7495 -0.7269  0.3387
  278MOL0     H37483   9.647   9.673   1.760 -2.5209  1.0992 -0.4526
  278MOL0     H37484   9.495   9.599   2.002  0.2813  0.3259  0.2831
  278MOL0     H37485   9.534   9.516   1.860 -2.1032 -1.5806  1.8869
  278MOL0     H37486   9.342   9.646   1.726  2.9358 -2.0064 -1.2790
  278MOL0     H37487   9.303   9.707   1.884  2.8711  1.5976 -0.7427
  278MOL0     H37488   9.276   9.450   1.957  1.1914  0.1710  0.7067
  278MOL0     H37489   9.343   9.415   1.805 -0.9302 -0.4870 -0.1321
  278MOL0     H37490   9.259   9.222   1.853 -0.7059 -1.1000  1.5792
  278MOL0     H37491   9.273   9.007   1.876  0.4507 -3.4594  0.8544
  278MOL0     H37492   9.123   8.917   1.888 -1.2843  2.6094  1.3821
  278MOL0     H37493   9.219   8.910   1.735  2.7642  2.0287 -0.7568
  278MOL0     H37494   8.779   8.734   1.868  1.3850 -1.2358 -1.4713
  278MOL0     H37495   8.674   8.534   1.804  2.7760  0.8139 -0.3550
  278MOL0     H37496   8.582   8.347   1.671  0.9109 -0.6988  1.9034
  278MOL0     H37497   8.523   8.406   1.824 -0.7808  1.1058 -0.3356
  278MOL0     H37498   8.409   8.201   1.778 -2.3985 -2.3605 -1.3225
  278MOL0     H37499   8.289   8.345   1.737 -0.6981 -1.5988 -0.2864
  278MOL0     H37500   8.467   8.216   1.524 -0.4128  0.4946 -1.8358
  278MOL0     H37501   8.319   8.311   1.509  0.4253 -0.7620 -0.1317
  278MOL0     H37502   8.331   8.023   1.623  1.2906  0.8427  0.7155
  278MOL0     H37503   8.180   8.116   1.611 -0.3464 -2.7186 -0.7735
  278MOL0     H37504   8.360   8.075   1.368 -1.0108  0.6389  0.7908
  278MOL0     H37505   8.198   8.138   1.365  3.0273  2.1505 -0.6736
  278MOL0     H37506   8.273   7.870   1.313  1.0422  1.6391  0.8947
  278MOL0     H37507   8.269   7.862   1.485  3.8196  1.1751 -0.4621
  278MOL0     H37508   8.024   7.923   1.475  1.8027  1.8767  1.6600
  278MOL0     H37509   8.045   7.780   1.388  1.4593 -1.0069 -1.7191
  278MOL0     H37510   8.071   7.910   1.169  0.4622 -0.6454  1.8042
  278MOL0     H37511   8.023   8.058   1.256 -2.2232 -0.2742 -0.6911
  278MOL0     H37512   8.438   8.744   1.521 -1.1812 -2.3015  0.4726
  278MOL0     H37513   8.561   8.932   1.549  0.1846  0.5805 -1.3451
  278MOL0     H37514   8.793   9.220   1.690  0.1196 -0.8555 -0.0592
  278MOL0     H37515   8.901   9.424   1.766  2.7798  1.3320  2.8424
  278MOL0     H37516  10.942  10.113   2.552 -2.1787 -0.6216  0.5083
  278MOL0     H37517  11.125   9.944   2.535  0.5446  0.0079 -0.9701
  278MOL0     H37518  11.197   9.537   2.660  1.4373 -0.3329  2.3856
  278MOL0     H37519  11.355   9.367   2.690  0.2528  1.1219  0.9754
  278MOL0     H37520  11.606   9.243   2.319  0.2319  0.7999  0.2137
  278MOL0     H37521  11.707   9.346   2.416  1.7476 -0.8178 -0.2199
  278MOL0     H37522  11.769   9.168   2.571  1.2142 -0.0340 -1.0206
  278MOL0     H37523  11.826   9.146   2.410  0.3862 -1.1976  0.1923
  278MOL0     H37524  11.585   9.009   2.534  2.3250 -0.7900  2.3776
  278MOL0     H37525  11.730   8.934   2.504 -1.8036 -1.3705  0.8299
  278MOL0     H37526  11.555   9.044   2.269  0.7023 -1.2239 -1.4623
  278MOL0     H37527  11.540   8.883   2.337 -0.9899  0.3511  1.9183
  278MOL0     H37528  11.871   8.823   2.099  2.0251 -0.2208  1.7793
  278MOL0     H37529  11.523   9.462   2.300 -0.2516  1.1173 -0.8700
  278MOL0     H37530  11.363   9.622   2.267  3.3942 -2.0574 -0.2760
  279MOL0     O37531  10.269   7.231  10.105  0.5172  0.6313 -0.1835
  279MOL0     C37532  10.283   7.109  10.090  0.6279 -0.4307  0.0089
  279MOL0     O37533  10.183   7.017  10.113 -0.2453 -0.4642  0.4870
  279MOL0     C37534  10.056   7.060  10.115  0.0499 -1.1557 -0.4551
  279MOL0     C37535  10.000   7.145  10.216  1.2082 -0.2436  0.0226
  279MOL0     C37536   9.864   7.188  10.200 -0.1761 -0.4652 -0.1110
  279MOL0     C37537   9.787   7.138  10.106  1.0259  0.5541  0.6597
  279MOL0     O37538   9.662   7.186  10.088  0.3998 -0.1021  0.0453
  279MOL0     C37539   9.586   7.228  10.200  0.7323  0.4339 -1.5078
  279MOL0     C37540   9.440   7.257  10.176 -0.1732  0.2075  1.0182
  279MOL0     C37541   9.375   7.272  10.306 -0.2930 -0.0549 -1.2112
  279MOL0     C37542   9.225   7.297  10.278  1.1088 -0.5414 -0.1815
  279MOL0     C37543   9.132   7.342  10.400 -0.2684  0.0795  0.1074
  279MOL0     C37544   9.103   7.216  10.480 -0.0592  0.2083  0.4513
  279MOL0     C37545   9.014   7.235  10.600 -0.4685  1.0370 -0.9765
  279MOL0     C37546   9.009   7.111  10.681  0.6522  0.4152  0.4251
  279MOL0     N37547   8.934   7.129  10.801 -0.8213 -0.0646 -0.7523
  279MOL0     C37548   8.819   7.060  10.820  0.6331 -0.3269  0.3119
  279MOL0     C37549   8.778   7.095  10.946 -0.2486 -0.2095  0.2780
  279MOL0     C37550   8.653   7.059  11.000  0.2684  0.7052 -0.2296
  279MOL0     C37551   8.553   7.167  10.974  0.1623 -0.5259 -0.4537
  279MOL0     C37552   8.560   7.266  11.092 -0.5295 -0.2023 -0.1753
  279MOL0     C37553   8.470   7.391  11.072  0.2942  0.4701  0.3484
  279MOL0     O37554   8.327   7.364  11.086  0.2712  0.2173 -0.7334
  279MOL0     C37555   8.274   7.297  11.195  0.2945 -0.0284 -1.0096
  279MOL0     C37556   8.229   7.371  11.311 -0.3464 -0.2383 -0.1148
  279MOL0     C37557   8.163   7.309  11.421 -0.9491  0.3061  0.0677
  279MOL0     C37558   8.102   7.403  11.524  0.2693  0.7853  0.7449
  279MOL0     C37559   8.129   7.171  11.396  1.2202 -0.0347 -1.1744
  279MOL0     C37560   8.046   7.099  11.498  1.0210  0.9780  0.6241
  279MOL0     O37561   7.966   6.996  11.447  0.1807  0.6649  0.2587
  279MOL0     C37562   7.874   6.937  11.529 -0.1764 -0.7258 -0.9072
  279MOL0     C37563   7.913   6.881  11.661  0.4859  0.3274 -0.0832
  279MOL0     C37564   7.810   6.819  11.726 -0.4206  0.5523 -0.6140
  279MOL0     C37565   7.677   6.808  11.689  0.2593  0.5015 -0.4210
  279MOL0     O37566   7.585   6.743  11.779 -0.5815 -0.0485 -0.0519
  279MOL0     C37567   7.450   6.728  11.742 -0.0569 -0.5338 -0.0668
  279MOL0     C37568   7.360   6.656  11.841 -0.0201 -0.4243 -0.0452
  279MOL0     C37569   7.382   6.720  11.977  0.0581 -0.0061 -1.0258
  279MOL0     C37570   7.260   6.699  12.066  0.7069 -0.4119  0.1848
  279MOL0     C37571   7.260   6.790  12.182  0.5295 -0.4752 -0.5930
  279MOL0     C37572   7.141   6.766  12.270  0.4734 -0.2085 -0.6208
  279MOL0     C37573   7.021   6.843  12.213  0.3819 -0.4821 -0.6649
  279MOL0     C37574   6.910   6.854  12.320  0.0689  0.1067 -0.6185
  279MOL0    Cl37575   6.863   6.696  12.376 -0.1353 -0.5486 -0.1265
  279MOL0     C37576   7.650   6.859  11.559  0.0576 -0.2337 -0.0872
  279MOL0     C37577   7.751   6.910  11.475  0.0074 -0.6188  0.2329
  279MOL0     O37578   8.053   7.132  11.618 -0.3807  0.2867  0.6334
  279MOL0     C37579   8.178   7.098  11.286 -0.3250 -0.3402 -0.5385
  279MOL0     C37580   8.255   7.164  11.189 -0.0015  0.9440 -0.1059
  279MOL0     N37581   8.882   7.171  11.004 -0.2828  0.1242  0.3967
  279MOL0     N37582   8.976   7.190  10.919 -0.0821 -0.4664  0.0529
  279MOL0     C37583   9.842   7.037  10.015  0.4738 -0.3706 -0.2444
  279MOL0     C37584   9.977   7.009  10.018  0.3961 -0.3039 -0.3482
  279MOL0     C37585  10.426   7.062  10.082  0.1809  0.2951 -0.0530
  279MOL0     C37586  10.442   6.927  10.038  0.8218  0.0946 -0.0933
  279MOL0     C37587  10.571   6.879  10.035 -0.2622 -0.2281 -0.3776
  279MOL0     C37588  10.681   6.954  10.072 -0.4041 -0.4130  0.2006
  279MOL0     O37589  10.814   6.903  10.065 -0.1371 -0.3228 -0.0924
  279MOL0     C37590  10.829   6.763  10.028 -0.2306  0.3615 -0.1110
  279MOL0     C37591  10.979   6.730  10.045 -0.1808  0.7036  0.2584
  279MOL0     C37592  11.021   6.732  10.197 -0.2696 -0.3109 -0.3226
  279MOL0     C37593  11.118   6.635  10.229 -0.5935 -0.4550  0.4913
  279MOL0     C37594  11.240   6.627  10.147 -0.1852 -0.0839 -0.7876
  279MOL0     C37595  11.345   6.602  10.099  0.1151  0.5629 -0.1537
  279MOL0     C37596  10.654   7.091  10.096 -0.0263 -0.0794 -0.4036
  279MOL0     C37597  10.530   7.142  10.107 -0.6928  0.1930 -0.6500
  279MOL0     H37598  10.063   7.192  10.291  0.0874  0.8188  0.3211
  279MOL0     H37599   9.844   7.275  10.263 -1.1318  0.3950 -1.5394
  279MOL0     H37600   9.596   7.154  10.280  1.3689  0.6685 -1.3600
  279MOL0     H37601   9.624   7.326  10.232 -1.4265  0.7613  0.3595
  279MOL0     H37602   9.423   7.352  10.125  0.2264 -0.1997  0.1038
  279MOL0     H37603   9.398   7.171  10.123  2.1603 -0.8879  0.7969
  279MOL0     H37604   9.386   7.174  10.353 -0.9173 -0.0616 -1.0677
  279MOL0     H37605   9.406   7.354  10.372 -3.6078  0.7063 -0.4337
  279MOL0     H37606   9.227   7.384  10.212  0.8536 -0.2702  0.1652
  279MOL0     H37607   9.177   7.214  10.225  0.3292  0.1736 -0.6151
  279MOL0     H37608   9.185   7.409  10.469 -0.5870  1.5005 -0.9763
  279MOL0     H37609   9.047   7.397  10.360 -0.6391  3.1538  4.4730
  279MOL0     H37610   9.054   7.148  10.409 -0.2069 -0.1621  0.9008
  279MOL0     H37611   9.198   7.170  10.510 -1.7726 -3.9854  0.1941
  279MOL0     H37612   9.059   7.316  10.660 -1.0699  3.1503 -3.2164
  279MOL0     H37613   8.921   7.270  10.555 -0.3187  0.3496 -1.8576
  279MOL0     H37614   9.112   7.080  10.700  1.5764  1.9473 -1.7913
  279MOL0     H37615   8.954   7.036  10.623 -1.9911  2.5783 -0.0730
  279MOL0     H37616   8.768   6.999  10.747 -0.6725  0.4614  0.5415
  279MOL0     H37617   8.629   6.961  10.959  3.7768 -1.1164  1.5753
  279MOL0     H37618   8.665   7.049  11.109 -0.1600 -0.7931 -0.3066
  279MOL0     H37619   8.454   7.121  10.973 -0.5065  0.5291  3.1859
  279MOL0     H37620   8.570   7.228  10.885 -0.4391 -1.6689 -1.3636
  279MOL0     H37621   8.660   7.308  11.074 -1.0217 -0.3228 -3.9737
  279MOL0     H37622   8.543   7.212  11.185  0.6326  2.2175  1.5451
  279MOL0     H37623   8.499   7.422  10.971  0.1238  0.3297  0.2546
  279MOL0     H37624   8.493   7.473  11.141 -0.6442  2.2469 -1.3462
  279MOL0     H37625   8.252   7.477  11.314  0.7555 -0.4878  1.0664
  279MOL0     H37626   8.146   7.501  11.507  1.2409  0.1367 -0.6805
  279MOL0     H37627   7.993   7.412  11.514 -0.0744 -0.6442  2.6685
  279MOL0     H37628   8.108   7.370  11.628 -2.0474  0.4915  0.8514
  279MOL0     H37629   8.012   6.878  11.706  0.2253 -1.1353  0.4601
  279MOL0     H37630   7.822   6.777  11.826  2.0977 -0.3933 -1.2266
  279MOL0     H37631   7.415   6.828  11.715  1.7329  0.0277 -0.4995
  279MOL0     H37632   7.441   6.664  11.654  1.8114 -1.4859  0.3683
  279MOL0     H37633   7.256   6.676  11.813  0.7467 -1.3452 -4.3132
  279MOL0     H37634   7.371   6.547  11.843  1.0421 -0.4122 -2.1194
  279MOL0     H37635   7.412   6.825  11.974  0.3732  0.0352  1.3945
  279MOL0     H37636   7.462   6.665  12.028  0.6277  2.1244  0.5291
  279MOL0     H37637   7.169   6.725  12.011 -0.0462 -1.7371  0.7598
  279MOL0     H37638   7.254   6.595  12.098 -0.0749 -1.5462 -3.2362
  279MOL0     H37639   7.270   6.897  12.165  1.9633 -0.7097 -1.4015
  279MOL0     H37640   7.348   6.768  12.243 -0.2018  0.5212  0.8547
  279MOL0     H37641   7.123   6.658  12.275 -0.9310  0.0383 -0.0406
  279MOL0     H37642   7.170   6.806  12.367 -4.5317  0.0649  1.0452
  279MOL0     H37643   6.971   6.807  12.123  0.1740  0.5668 -0.9816
  279MOL0     H37644   7.053   6.944  12.187 -1.6686  0.3906 -0.0209
  279MOL0     H37645   6.819   6.902  12.283  0.4540  1.8076  0.5051
  279MOL0     H37646   6.954   6.922  12.393  1.2188  3.0895 -3.8460
  279MOL0     H37647   7.546   6.856  11.526 -0.6745 -0.2023  2.0330
  279MOL0     H37648   7.719   6.942  11.376 -1.1948  0.2740  0.8698
  279MOL0     H37649   8.164   6.991  11.276 -1.5554 -0.2954  0.4384
  279MOL0     H37650   8.278   7.104  11.101 -3.9726 -0.7088 -0.2109
  279MOL0     H37651   9.783   6.990   9.937  1.3479  0.0234 -1.1628
  279MOL0     H37652  10.019   6.940   9.946  2.1354 -0.2712  0.6022
  279MOL0     H37653  10.358   6.868  10.002  1.0596  0.7648 -1.8153
  279MOL0     H37654  10.573   6.773  10.009 -1.3663 -0.4138  0.2096
  279MOL0     H37655  10.769   6.691  10.083 -1.4919 -0.8641 -2.8688
  279MOL0     H37656  10.790   6.743   9.928 -2.6845  0.9065  0.6775
  279MOL0     H37657  11.034   6.800   9.981  1.9117 -0.5296  0.6247
  279MOL0     H37658  11.003   6.630  10.008  4.2239  1.5498  0.2826
  279MOL0     H37659  10.927   6.713  10.250 -1.1713  1.7578 -1.0654
  279MOL0     H37660  11.052   6.832  10.228 -1.1415 -0.4862  1.2414
  279MOL0     H37661  11.074   6.536  10.215 -0.2824 -0.5037 -0.1917
  279MOL0     H37662  11.145   6.653  10.333 -0.9915 -2.1915  0.9195
  279MOL0     H37663  11.435   6.577  10.048  1.1743 -0.1286  1.9249
  279MOL0     H37664  10.745   7.150  10.104 -0.1192  0.0254 -0.0972
  279MOL0     H37665  10.510   7.241  10.147 -0.1240 -0.2446  0.7615
  280MOL0     O37666   4.652   9.265   4.964  0.0940 -0.2464 -0.2006
  280MOL0     C37667   4.660   9.294   4.845 -0.3392  0.6281  0.6533
  280MOL0     O37668   4.582   9.236   4.748 -0.2542 -0.3741  0.2050
  280MOL0     C37669   4.476   9.158   4.790  0.5344  0.7871 -0.6352
  280MOL0     C37670   4.351   9.213   4.819 -0.4161  0.5441 -0.2344
  280MOL0     C37671   4.239   9.144   4.849 -0.8143 -0.0677 -0.1915
  280MOL0     C37672   4.249   9.006   4.860 -0.0533  0.3030  0.0564
  280MOL0     O37673   4.129   8.934   4.862 -0.4855  0.0872 -0.1268
  280MOL0     C37674   4.131   8.789   4.876 -0.6669  0.9137 -0.0921
  280MOL0     C37675   3.992   8.745   4.845  0.0754 -0.5242  0.5001
  280MOL0     C37676   3.904   8.797   4.964  0.3650  0.0452 -0.0944
  280MOL0     C37677   3.763   8.729   4.964 -0.1442  0.5215  0.7301
  280MOL0     C37678   3.662   8.803   5.042  0.1735  0.0962  0.2328
  280MOL0     C37679   3.531   8.718   5.040  0.4174 -0.1488 -0.2389
  280MOL0     C37680   3.433   8.764   5.158  0.3258 -0.8031 -0.2595
  280MOL0     C37681   3.390   8.908   5.153  0.6891  0.2141 -0.2955
  280MOL0     N37682   3.271   8.922   5.245  0.0958  0.7029 -0.6318
  280MOL0     C37683   3.283   8.985   5.365  0.4786 -0.1197  0.8256
  280MOL0     C37684   3.156   8.993   5.412  0.4778 -0.2819  0.2486
  280MOL0     C37685   3.105   9.054   5.540 -0.6334 -0.0297 -0.3352
  280MOL0     C37686   2.953   9.034   5.553 -0.5337  0.2595  0.2758
  280MOL0     C37687   2.918   8.888   5.603  0.2130  0.3089 -0.2064
  280MOL0     C37688   2.950   8.862   5.758 -0.4501 -0.8233  0.3906
  280MOL0     O37689   2.871   8.941   5.849 -0.4628  0.3629  0.0754
  280MOL0     C37690   2.738   8.919   5.858 -0.2977 -0.1902  0.0591
  280MOL0     C37691   2.667   9.002   5.952  0.0821 -0.0524 -0.7333
  280MOL0     C37692   2.529   8.985   5.967 -0.0358  0.0980  0.3274
  280MOL0     C37693   2.453   9.090   6.049 -0.1668 -0.0668 -0.1675
  280MOL0     C37694   2.453   8.883   5.895 -1.4870 -0.3399  0.1160
  280MOL0     C37695   2.316   8.850   5.909  0.5812 -0.5099  0.1740
  280MOL0     O37696   2.222   8.955   5.939  0.3085  0.6983 -0.4285
  280MOL0     C37697   2.088   8.928   5.938 -0.5762 -0.2671 -0.2982
  280MOL0     C37698   1.997   8.990   5.852  1.1303  0.0830  0.5013
  280MOL0     C37699   1.862   8.953   5.863 -0.1203  0.5939 -0.6101
  280MOL0     C37700   1.814   8.862   5.961  0.1139  1.0137  0.3460
  280MOL0     O37701   1.676   8.846   5.966 -0.2859  0.6835 -0.1974
  280MOL0     C37702   1.634   8.717   5.916 -0.5762  0.3069 -0.3414
  280MOL0     C37703   1.485   8.703   5.892 -0.3292  0.4912  0.4598
  280MOL0     C37704   1.408   8.622   5.992  0.4479 -0.1821  0.7006
  280MOL0     C37705   1.256   8.607   5.980 -0.7445 -0.0463 -0.4892
  280MOL0     C37706   1.190   8.505   6.070 -1.1586  0.0989  0.2443
  280MOL0     C37707   1.041   8.515   6.098  0.1269  0.2921  0.0730
  280MOL0     C37708   0.977   8.472   5.962  1.2951  1.3404 -0.7584
  280MOL0     C37709   0.820   8.473   5.987  0.7060 -1.2844  0.3670
  280MOL0    Cl37710   0.755   8.638   6.036  0.2754 -0.1624 -0.1006
  280MOL0     C37711   1.914   8.808   6.048 -0.1456  0.0654 -0.0486
  280MOL0     C37712   2.045   8.838   6.034  0.2221 -0.6440 -0.1854
  280MOL0     O37713   2.284   8.736   5.894  0.1077 -0.5014  0.2286
  280MOL0     C37714   2.530   8.796   5.810 -0.0293  0.4766 -0.5206
  280MOL0     C37715   2.664   8.817   5.791  0.0513  0.4781  0.3846
  280MOL0     N37716   3.076   8.930   5.319  0.0446  0.5197  0.3406
  280MOL0     N37717   3.143   8.908   5.214 -0.2927  0.3024  0.8095
  280MOL0     C37718   4.377   8.948   4.833 -0.2697 -0.0909  0.2605
  280MOL0     C37719   4.489   9.024   4.805  0.2813  0.2313 -0.0642
  280MOL0     C37720   4.781   9.365   4.787 -0.0139  0.1106 -0.8256
  280MOL0     C37721   4.826   9.354   4.658  0.2115  0.6642  0.3925
  280MOL0     C37722   4.947   9.412   4.617 -1.1807  1.1704 -0.3431
  280MOL0     C37723   5.013   9.487   4.705  0.0010  0.4860 -0.3114
  280MOL0     O37724   5.131   9.538   4.663 -0.4813  0.0085  0.4370
  280MOL0     C37725   5.207   9.625   4.750  0.3214 -0.4430  0.3870
  280MOL0     C37726   5.330   9.687   4.684 -0.5846 -0.3148 -0.2987
  280MOL0     C37727   5.437   9.582   4.659  0.2322 -0.1609 -0.0320
  280MOL0     C37728   5.569   9.655   4.620  0.7581  0.5043 -0.0526
  280MOL0     C37729   5.661   9.552   4.589  1.2839  1.0762  0.4698
  280MOL0     C37730   5.724   9.448   4.574  0.5828  0.7239 -0.1061
  280MOL0     C37731   4.968   9.503   4.838  0.5045 -0.5210 -0.2972
  280MOL0     C37732   4.848   9.442   4.876  0.1114 -0.5844 -1.3995
  280MOL0     H37733   4.355   9.322   4.825 -0.3910  0.5869 -0.9059
  280MOL0     H37734   4.142   9.191   4.853 -0.5564  0.5858 -1.1511
  280MOL0     H37735   4.197   8.751   4.797 -1.7249 -2.0303  0.2979
  280MOL0     H37736   4.161   8.749   4.974 -1.1451 -1.0174 -0.6785
  280MOL0     H37737   3.958   8.787   4.750  1.5070 -1.5331 -0.4986
  280MOL0     H37738   3.990   8.636   4.850  3.6594 -0.6636  0.9628
  280MOL0     H37739   3.953   8.776   5.059  1.2575  1.2699 -0.2582
  280MOL0     H37740   3.888   8.905   4.956 -2.6058 -0.3706 -1.0749
  280MOL0     H37741   3.727   8.711   4.863  1.4441  2.6902 -0.3003
  280MOL0     H37742   3.781   8.629   5.004 -1.4636  0.3045  0.8336
  280MOL0     H37743   3.690   8.824   5.146 -0.7606  0.6271  0.3927
  280MOL0     H37744   3.643   8.903   5.001  0.7741  0.9058  1.8153
  280MOL0     H37745   3.475   8.738   4.948  0.1230  0.1310  0.0003
  280MOL0     H37746   3.538   8.610   5.054 -2.6764 -0.0197  4.4239
  280MOL0     H37747   3.344   8.700   5.154 -0.5625  0.3369  0.6709
  280MOL0     H37748   3.479   8.744   5.255  0.5368  0.4434 -0.0844
  280MOL0     H37749   3.359   8.931   5.051  1.4843 -0.9052 -0.8131
  280MOL0     H37750   3.476   8.967   5.188  2.3603 -3.0575  1.6467
  280MOL0     H37751   3.370   9.030   5.413  1.3164 -1.5173  0.6561
  280MOL0     H37752   3.166   9.015   5.622  0.3515 -0.7464 -1.3806
  280MOL0     H37753   3.139   9.157   5.528  0.9088 -0.3210  1.1433
  280MOL0     H37754   2.901   9.064   5.461 -1.2134 -0.1708  0.5121
  280MOL0     H37755   2.910   9.095   5.633 -3.7608 -0.2433 -0.9435
  280MOL0     H37756   2.979   8.818   5.545  1.5533  1.9106 -0.7820
  280MOL0     H37757   2.812   8.875   5.579  0.6050 -0.1650 -1.8040
  280MOL0     H37758   3.051   8.901   5.770 -1.3488  1.4806  1.0118
  280MOL0     H37759   2.937   8.756   5.780 -1.8161 -0.7186  0.1640
  280MOL0     H37760   2.724   9.076   6.006 -0.0433 -0.0280 -0.6333
  280MOL0     H37761   2.522   9.173   6.068 -2.3312  1.7771  0.0669
  280MOL0     H37762   2.373   9.140   5.994 -1.4575 -1.2763  0.5508
  280MOL0     H37763   2.408   9.053   6.142 -2.2904  2.9384  0.1597
  280MOL0     H37764   2.019   9.055   5.767  0.4902 -0.1212  0.1731
  280MOL0     H37765   1.792   8.994   5.791 -1.7581 -1.4991 -0.3218
  280MOL0     H37766   1.676   8.705   5.815  0.7064 -2.0276  0.3914
  280MOL0     H37767   1.671   8.630   5.971 -3.1542  0.2525  1.4474
  280MOL0     H37768   1.428   8.796   5.886 -3.1575 -0.8923  2.9806
  280MOL0     H37769   1.484   8.653   5.794  3.1022  0.3750  0.3608
  280MOL0     H37770   1.419   8.669   6.090  3.6328 -0.8060  0.7402
  280MOL0     H37771   1.457   8.525   6.003 -2.7943 -1.7043  4.3376
  280MOL0     H37772   1.204   8.701   6.002 -0.1146  0.0510  0.7035
  280MOL0     H37773   1.233   8.582   5.876 -0.2188 -1.8777 -0.1968
  280MOL0     H37774   1.247   8.493   6.163 -0.8143 -1.1118 -0.1034
  280MOL0     H37775   1.204   8.412   6.014 -0.0065 -0.4760  1.4447
  280MOL0     H37776   1.027   8.444   6.180  2.2017  2.9519  2.9447
  280MOL0     H37777   1.007   8.614   6.131 -0.6396  0.4476 -1.0963
  280MOL0     H37778   0.997   8.368   5.937 -0.2344  0.1052  2.5755
  280MOL0     H37779   1.004   8.533   5.876 -2.0201  0.0837 -2.8531
  280MOL0     H37780   0.789   8.391   6.052 -2.8065 -0.5869 -0.1781
  280MOL0     H37781   0.771   8.445   5.893 -0.0998  0.0501  0.3530
  280MOL0     H37782   1.880   8.735   6.121 -1.4023  0.4871 -0.1945
  280MOL0     H37783   2.125   8.794   6.091 -1.6461 -0.1533  3.0474
  280MOL0     H37784   2.479   8.715   5.759 -1.2962 -0.8254  2.5439
  280MOL0     H37785   2.695   8.750   5.712 -1.8325 -0.5621  0.4631
  280MOL0     H37786   4.388   8.843   4.860  1.1551 -0.1753 -0.5371
  280MOL0     H37787   4.593   8.991   4.804  0.2154 -0.0216  0.6569
  280MOL0     H37788   4.773   9.310   4.575 -0.0755  1.0786  0.3558
  280MOL0     H37789   4.979   9.412   4.513 -0.9371  0.8868 -0.2721
  280MOL0     H37790   5.156   9.720   4.771  1.7233  1.3644 -3.3996
  280MOL0     H37791   5.249   9.574   4.837  2.3745  0.7678  0.1732
  280MOL0     H37792   5.371   9.766   4.748  0.1755  1.2099 -2.5525
  280MOL0     H37793   5.307   9.725   4.584 -1.0803 -2.2667 -0.9709
  280MOL0     H37794   5.417   9.508   4.581  1.7217 -0.1696 -0.4421
  280MOL0     H37795   5.451   9.530   4.754  1.0883  1.8579  1.0151
  280MOL0     H37796   5.620   9.717   4.695 -1.7356  1.2566  1.1462
  280MOL0     H37797   5.558   9.710   4.526  0.0512  1.8811  0.7897
  280MOL0     H37798   5.761   9.352   4.545  0.0976 -0.1725  2.0905
  280MOL0     H37799   5.025   9.557   4.914  1.9861 -2.5867  0.1606
  280MOL0     H37800   4.809   9.456   4.976  0.5769  0.3815 -1.3400
  281MOL0     O37801   7.892   8.926   8.615 -0.3195 -0.1693 -0.7198
  281MOL0     C37802   7.937   9.023   8.555  0.2909 -0.5860 -0.3000
  281MOL0     O37803   7.874   9.148   8.543 -0.1681 -0.2637 -0.7940
  281MOL0     C37804   7.736   9.159   8.566 -0.3538  0.6768  0.0559
  281MOL0     C37805   7.685   9.176   8.698 -0.2958  0.3407 -1.3445
  281MOL0     C37806   7.555   9.182   8.721 -0.2718 -0.1375 -0.5567
  281MOL0     C37807   7.458   9.188   8.619 -0.0528  0.2627  0.4358
  281MOL0     O37808   7.325   9.190   8.659  0.4130 -0.6833 -0.4462
  281MOL0     C37809   7.240   9.253   8.565 -0.4781 -0.7560 -0.1369
  281MOL0     C37810   7.097   9.267   8.629 -0.6500 -0.4000  0.4253
  281MOL0     C37811   7.031   9.138   8.672 -1.6032 -0.0429 -0.0284
  281MOL0     C37812   6.874   9.140   8.676 -0.0923 -0.6165  0.6617
  281MOL0     C37813   6.813   9.003   8.695  0.4463  0.2443 -0.0931
  281MOL0     C37814   6.809   8.908   8.578 -0.1017  0.5806 -0.6041
  281MOL0     C37815   6.713   8.953   8.464  0.0919  0.2152 -0.1834
  281MOL0     C37816   6.724   8.868   8.344  0.6736  1.0538 -0.8370
  281MOL0     N37817   6.661   8.942   8.237 -0.3243 -0.7371  0.5496
  281MOL0     C37818   6.716   9.043   8.159  0.7825  0.9310 -0.9707
  281MOL0     C37819   6.617   9.084   8.079 -0.0784  0.5899 -0.5177
  281MOL0     C37820   6.619   9.189   7.977  0.2636 -0.2079 -0.4582
  281MOL0     C37821   6.582   9.327   8.045 -0.3541  0.1487 -0.1418
  281MOL0     C37822   6.616   9.445   7.947  0.1711  0.3183  0.7530
  281MOL0     C37823   6.592   9.579   8.021  0.2402  0.3299 -0.4782
  281MOL0     O37824   6.466   9.579   8.088  0.0891 -0.1618  0.6137
  281MOL0     C37825   6.346   9.624   8.023 -1.2339 -0.6212 -0.4924
  281MOL0     C37826   6.330   9.668   7.893 -0.3988  1.3480 -1.3396
  281MOL0     C37827   6.202   9.703   7.837  0.1104  0.4303 -0.2696
  281MOL0     C37828   6.194   9.736   7.677 -0.7670  0.5600  0.1025
  281MOL0     C37829   6.093   9.694   7.924 -0.1078 -0.6989  0.5830
  281MOL0     C37830   5.961   9.750   7.882 -0.3474 -1.0094  0.2456
  281MOL0     O37831   5.924   9.758   7.748 -0.2355 -0.4063  0.0696
  281MOL0     C37832   5.803   9.778   7.693  0.0047 -0.4064 -0.2028
  281MOL0     C37833   5.798   9.810   7.556  0.5774  0.0354  0.0821
  281MOL0     C37834   5.677   9.851   7.499 -0.0991  0.8998 -0.0311
  281MOL0     C37835   5.556   9.826   7.569 -0.0292  0.1197  0.7274
  281MOL0     O37836   5.436   9.865   7.512  0.2781 -0.3313 -0.1701
  281MOL0     C37837   5.328   9.777   7.543 -0.9132  0.5303 -0.8788
  281MOL0     C37838   5.214   9.779   7.455  0.6484 -0.4324  0.5665
  281MOL0     C37839   5.137   9.645   7.441  0.7784  0.2152  0.2764
  281MOL0     C37840   5.012   9.671   7.365  0.2640 -0.5364  0.0112
  281MOL0     C37841   4.937   9.534   7.348  0.2809  0.7231  0.3870
  281MOL0     C37842   4.818   9.536   7.251 -0.8664 -0.4333 -0.2856
  281MOL0     C37843   4.735   9.413   7.272  0.0910  0.3661 -0.3437
  281MOL0     C37844   4.642   9.400   7.399 -0.4979 -0.0479  0.4823
  281MOL0    Cl37845   4.506   9.525   7.394 -0.3935 -0.0518  0.2227
  281MOL0     C37846   5.562   9.785   7.705 -0.4856  0.2405 -0.0538
  281MOL0     C37847   5.680   9.760   7.767 -0.3668 -0.1970  0.0740
  281MOL0     O37848   5.900   9.800   7.976  0.3707 -1.1633  0.1310
  281MOL0     C37849   6.108   9.658   8.057  0.3098  0.2691  0.1326
  281MOL0     C37850   6.237   9.623   8.104  0.1852 -0.0610  0.4412
  281MOL0     N37851   6.512   9.005   8.109 -0.5350  0.6883  1.0184
  281MOL0     N37852   6.528   8.919   8.199 -0.6484 -0.7454 -0.5557
  281MOL0     C37853   7.504   9.171   8.485 -0.4587  0.0082  0.5864
  281MOL0     C37854   7.650   9.170   8.459  0.1547 -0.7564  0.4991
  281MOL0     C37855   8.065   9.003   8.477  0.4229 -0.8821 -0.0445
  281MOL0     C37856   8.118   8.874   8.468 -0.6242  0.8915 -0.2026
  281MOL0     C37857   8.250   8.861   8.424  0.2793 -1.0871 -0.1951
  281MOL0     C37858   8.319   8.963   8.359 -0.6632 -0.0830 -0.6710
  281MOL0     O37859   8.448   8.932   8.325 -0.5901  1.1629  0.1568
  281MOL0     C37860   8.502   9.031   8.237 -0.2336  0.1530 -0.4226
  281MOL0     C37861   8.629   8.981   8.156 -0.1036  0.3338 -0.0749
  281MOL0     C37862   8.598   8.900   8.032 -0.6411 -0.0418 -0.8588
  281MOL0     C37863   8.729   8.860   7.963 -0.3395  0.1992 -0.8880
  281MOL0     C37864   8.704   8.741   7.881 -0.1230 -1.1512  0.0520
  281MOL0     C37865   8.696   8.641   7.815 -0.4773  1.1748 -0.4494
  281MOL0     C37866   8.258   9.084   8.343  0.7567 -0.1792  1.2793
  281MOL0     C37867   8.138   9.111   8.413  0.0717  0.4314 -0.5350
  281MOL0     H37868   7.752   9.181   8.783 -2.2072  0.0371  0.2421
  281MOL0     H37869   7.529   9.191   8.825  1.2385 -0.3218 -0.1364
  281MOL0     H37870   7.292   9.345   8.538 -1.1487 -0.5327 -0.7003
  281MOL0     H37871   7.226   9.192   8.475 -1.5342  0.5951 -0.9360
  281MOL0     H37872   7.117   9.331   8.715 -0.9503  0.2612  0.0105
  281MOL0     H37873   7.042   9.333   8.561 -3.2235 -0.0600  2.6976
  281MOL0     H37874   7.065   9.064   8.599  0.2831  0.5418  0.1935
  281MOL0     H37875   7.061   9.105   8.772  0.0654 -0.6428 -0.6918
  281MOL0     H37876   6.835   9.211   8.748 -0.0491  1.0632 -0.9026
  281MOL0     H37877   6.852   9.174   8.575 -1.2142  1.4053  1.5454
  281MOL0     H37878   6.859   8.950   8.778  0.3283 -0.3642 -0.4115
  281MOL0     H37879   6.709   9.016   8.727  0.4801 -2.3667  1.2961
  281MOL0     H37880   6.911   8.924   8.542  0.4434  2.3636  1.4989
  281MOL0     H37881   6.787   8.804   8.604 -1.0758  0.4755 -1.7244
  281MOL0     H37882   6.610   8.955   8.499 -0.2060 -1.3096 -0.9082
  281MOL0     H37883   6.738   9.059   8.448 -0.0491  0.1535 -0.8434
  281MOL0     H37884   6.664   8.779   8.363  1.0993  0.5739 -1.6820
  281MOL0     H37885   6.827   8.840   8.318  1.0844  2.0232 -0.3388
  281MOL0     H37886   6.819   9.074   8.170  0.7961  0.3467  0.9491
  281MOL0     H37887   6.718   9.199   7.933  0.8753  2.9988  1.3208
  281MOL0     H37888   6.549   9.164   7.897 -0.8662 -1.8864  0.9635
  281MOL0     H37889   6.649   9.329   8.132 -0.5865 -0.6180  0.0651
  281MOL0     H37890   6.475   9.330   8.068 -0.7740 -2.3284 -1.4349
  281MOL0     H37891   6.553   9.443   7.858  1.5756  0.8419 -0.2915
  281MOL0     H37892   6.715   9.429   7.905  0.7356 -0.6551  2.3448
  281MOL0     H37893   6.620   9.663   7.957  3.4119 -1.1331 -1.2261
  281MOL0     H37894   6.671   9.576   8.096  2.1126 -1.0709 -2.3836
  281MOL0     H37895   6.418   9.670   7.829 -0.3326 -1.2895 -1.4623
  281MOL0     H37896   6.137   9.828   7.659 -0.6209  1.0879  2.0936
  281MOL0     H37897   6.293   9.747   7.633 -0.5103 -0.7728  0.3077
  281MOL0     H37898   6.142   9.656   7.624  0.8554 -0.3820 -0.1134
  281MOL0     H37899   5.882   9.809   7.487 -0.9150  0.4028 -1.8344
  281MOL0     H37900   5.665   9.897   7.402 -0.5322 -0.8759 -0.8598
  281MOL0     H37901   5.366   9.674   7.552 -1.1406  0.4365 -0.9815
  281MOL0     H37902   5.281   9.799   7.639  1.5456 -3.2574  1.4777
  281MOL0     H37903   5.152   9.857   7.500  1.3476  0.0621  0.7031
  281MOL0     H37904   5.253   9.822   7.362  1.3040  2.4856  2.0715
  281MOL0     H37905   5.107   9.604   7.538 -2.7358 -0.2724 -0.8955
  281MOL0     H37906   5.197   9.572   7.386 -2.7093 -2.9431  0.2647
  281MOL0     H37907   4.954   9.738   7.430 -1.2041 -2.8169  1.1699
  281MOL0     H37908   5.026   9.726   7.272 -1.9565  0.8893  0.4494
  281MOL0     H37909   4.906   9.502   7.448 -0.5178 -3.4929 -0.9946
  281MOL0     H37910   5.012   9.463   7.310  1.5357  2.0391  0.2968
  281MOL0     H37911   4.756   9.624   7.267  1.1754  0.7690  1.5832
  281MOL0     H37912   4.868   9.530   7.154 -1.1279  0.5790 -0.4924
  281MOL0     H37913   4.805   9.328   7.278 -0.2764  0.0773 -0.0852
  281MOL0     H37914   4.681   9.401   7.178  0.2085  0.7672 -0.4642
  281MOL0     H37915   4.692   9.411   7.495 -0.1423 -2.5174  0.6663
  281MOL0     H37916   4.601   9.298   7.403  0.9671 -0.6960 -0.3109
  281MOL0     H37917   5.471   9.780   7.763  0.8573 -0.6276  2.1119
  281MOL0     H37918   5.679   9.721   7.869  1.0975 -1.3082 -0.3193
  281MOL0     H37919   6.029   9.665   8.130  0.0082 -1.2665 -0.0150
  281MOL0     H37920   6.257   9.588   8.205  0.9117 -2.9797 -0.6129
  281MOL0     H37921   7.444   9.165   8.395 -1.6050 -1.9103  1.4081
  281MOL0     H37922   7.689   9.170   8.357 -0.7688 -1.0154  0.1379
  281MOL0     H37923   8.073   8.780   8.497 -0.1314  0.9044  0.6318
  281MOL0     H37924   8.311   8.773   8.441  0.2234 -0.8166  1.5504
  281MOL0     H37925   8.429   9.064   8.161  1.2635  0.4037 -1.7992
  281MOL0     H37926   8.531   9.117   8.298 -1.3245 -0.5439  1.1417
  281MOL0     H37927   8.692   8.919   8.221 -0.2508  0.5446  0.2714
  281MOL0     H37928   8.692   9.065   8.127  2.7844 -2.1391 -1.4923
  281MOL0     H37929   8.559   8.974   7.961  0.6899  0.6228 -0.9342
  281MOL0     H37930   8.536   8.812   8.051 -1.1884  0.6669  0.9007
  281MOL0     H37931   8.804   8.826   8.035 -0.2051  0.1263 -1.0622
  281MOL0     H37932   8.763   8.941   7.898 -1.5974 -0.8660 -2.9888
  281MOL0     H37933   8.679   8.561   7.746 -2.1440 -0.9178  2.2299
  281MOL0     H37934   8.285   9.177   8.294 -2.6076  0.7558  0.9660
  281MOL0     H37935   8.093   9.210   8.407 -1.1497  0.1501  2.2191
  282MOL0     O37936   4.344   3.307   1.177  0.0052  0.1710  0.2223
  282MOL0     C37937   4.304   3.311   1.064 -0.3469 -0.0234 -0.5210
  282MOL0     O37938   4.385   3.319   0.952 -0.2555  0.1609  0.4783
  282MOL0     C37939   4.517   3.281   0.962 -0.1262  0.6604 -0.4509
  282MOL0     C37940   4.611   3.352   0.882 -0.5028 -0.2201  0.8116
  282MOL0     C37941   4.748   3.315   0.911  1.0870  0.2645 -0.0714
  282MOL0     C37942   4.792   3.219   0.997 -0.2027  0.3976 -0.4370
  282MOL0     O37943   4.926   3.171   1.011  0.2831 -0.8313  0.0387
  282MOL0     C37944   5.010   3.271   1.067 -0.3802 -0.5287 -0.0333
  282MOL0     C37945   5.101   3.195   1.159  1.0901  0.6900  0.3050
  282MOL0     C37946   5.037   3.171   1.296  0.0516 -0.4981  0.0469
  282MOL0     C37947   5.133   3.184   1.422 -0.3966  0.4271 -0.1400
  282MOL0     C37948   5.056   3.181   1.556 -0.2817 -0.3252  0.4069
  282MOL0     C37949   5.149   3.240   1.660 -0.0313  0.1063 -0.5049
  282MOL0     C37950   5.097   3.230   1.811  0.4149 -0.1581  0.1818
  282MOL0     C37951   5.202   3.306   1.905  0.1476 -0.9689 -0.1105
  282MOL0     N37952   5.129   3.339   2.030  0.1099  0.0348 -0.5726
  282MOL0     C37953   5.131   3.278   2.157 -0.1898 -0.0347  0.7221
  282MOL0     C37954   5.058   3.373   2.224  0.5641 -0.3600 -0.7060
  282MOL0     C37955   4.996   3.365   2.361 -0.0054 -0.3648  0.2382
  282MOL0     C37956   4.859   3.292   2.375  0.3923  0.3373  0.7157
  282MOL0     C37957   4.853   3.203   2.496  0.4239 -0.0175 -0.2780
  282MOL0     C37958   4.703   3.176   2.532  0.1546 -0.4783  0.1447
  282MOL0     O37959   4.627   3.113   2.433  0.0284  0.5043 -0.3091
  282MOL0     C37960   4.497   3.126   2.438  0.8111 -0.3650 -0.7251
  282MOL0     C37961   4.408   3.142   2.544 -0.2321  0.1340 -0.1938
  282MOL0     C37962   4.274   3.138   2.532 -0.2638  0.3532 -0.1263
  282MOL0     C37963   4.194   3.180   2.658 -1.1157 -0.5417 -0.3272
  282MOL0     C37964   4.212   3.118   2.407  0.5668 -0.5225  0.4974
  282MOL0     C37965   4.071   3.118   2.380  0.2383 -0.0841  0.5395
  282MOL0     O37966   4.035   3.149   2.250 -0.3979 -0.1190  0.6757
  282MOL0     C37967   3.914   3.123   2.194 -0.4833  0.0675  0.3143
  282MOL0     C37968   3.802   3.196   2.249  0.3835  0.1437  0.5727
  282MOL0     C37969   3.674   3.176   2.203  0.6232  1.2275 -0.1569
  282MOL0     C37970   3.649   3.081   2.103  0.0150  0.0818  0.0212
  282MOL0     O37971   3.518   3.068   2.067  0.0877 -0.4926 -0.1932
  282MOL0     C37972   3.480   2.935   2.035  0.4927 -0.7817  0.2306
  282MOL0     C37973   3.346   2.926   1.964 -0.2337 -0.7500  0.1038
  282MOL0     C37974   3.232   2.978   2.045 -0.1479  1.1519  0.1685
  282MOL0     C37975   3.102   2.954   1.975  0.0311  1.3173 -0.4205
  282MOL0     C37976   3.028   2.817   1.986  0.0620 -0.6662 -0.6076
  282MOL0     C37977   2.904   2.801   1.904  0.2733  0.2648  0.1203
  282MOL0     C37978   2.843   2.662   1.907 -0.4311  0.2540 -0.2948
  282MOL0     C37979   2.765   2.629   1.777 -0.0022  0.0620 -1.1375
  282MOL0    Cl37980   2.613   2.726   1.763 -0.5254 -0.4340  0.1318
  282MOL0     C37981   3.754   3.006   2.053 -0.9124  0.4289  0.2768
  282MOL0     C37982   3.884   3.031   2.094  0.2488  0.7090  0.0306
  282MOL0     O37983   3.990   3.064   2.461 -0.2503 -0.1144 -0.1777
  282MOL0     C37984   4.300   3.095   2.298 -0.4311  0.7024 -0.2183
  282MOL0     C37985   4.443   3.098   2.310  0.1930 -0.0694 -0.6584
  282MOL0     N37986   5.011   3.470   2.137 -0.2428  0.4793  0.2595
  282MOL0     N37987   5.048   3.448   2.020 -0.0830  0.3460 -0.0748
  282MOL0     C37988   4.690   3.138   1.058  0.0377 -0.3017  0.4060
  282MOL0     C37989   4.553   3.176   1.050  0.4876  0.7703  0.5019
  282MOL0     C37990   4.159   3.322   1.047 -0.5568 -0.2251  0.1613
  282MOL0     C37991   4.068   3.331   1.157  0.3274 -0.2594 -0.1199
  282MOL0     C37992   3.930   3.337   1.140 -0.2924 -0.2475 -0.1498
  282MOL0     C37993   3.874   3.353   1.013  0.1685 -0.2850 -0.3136
  282MOL0     O37994   3.736   3.366   1.011  0.1148  0.0829 -0.3382
  282MOL0     C37995   3.662   3.376   0.891 -0.1010 -0.0829  0.5878
  282MOL0     C37996   3.516   3.399   0.931  0.9533  0.1944 -0.8700
  282MOL0     C37997   3.421   3.444   0.829 -0.8695  0.4671  0.1875
  282MOL0     C37998   3.297   3.522   0.870  0.4784  0.4380 -0.0548
  282MOL0     C37999   3.229   3.598   0.764  0.0868  0.3808  0.4697
  282MOL0     C38000   3.164   3.670   0.685 -0.1186 -0.8593  0.3984
  282MOL0     C38001   3.968   3.341   0.901  0.5885 -0.6304 -0.4281
  282MOL0     C38002   4.104   3.324   0.914  0.2872 -0.7069 -0.2976
  282MOL0     H38003   4.579   3.415   0.800 -0.1899  0.8405  1.4780
  282MOL0     H38004   4.823   3.361   0.847 -0.4811 -0.0982 -2.2618
  282MOL0     H38005   5.061   3.320   0.984  0.3803 -1.6654 -0.2522
  282MOL0     H38006   4.957   3.352   1.119  0.5891  0.2429 -0.2233
  282MOL0     H38007   5.125   3.096   1.118 -0.7858  0.6932 -0.9202
  282MOL0     H38008   5.191   3.250   1.188  2.0969 -2.8293  5.1342
  282MOL0     H38009   4.965   3.254   1.307  0.2825 -0.3157  0.1987
  282MOL0     H38010   4.989   3.073   1.292  2.3009 -1.6727  0.3407
  282MOL0     H38011   5.201   3.099   1.413 -0.1418  0.8928 -4.4549
  282MOL0     H38012   5.186   3.279   1.416  0.9734 -0.2393  0.8840
  282MOL0     H38013   4.962   3.236   1.549 -0.2864 -0.0563  2.1208
  282MOL0     H38014   5.036   3.078   1.590  1.0978 -0.8219 -0.2160
  282MOL0     H38015   5.239   3.178   1.658 -1.7419 -2.5934  0.2308
  282MOL0     H38016   5.178   3.343   1.640 -0.5509  0.2340 -0.6268
  282MOL0     H38017   5.002   3.285   1.814 -1.2355 -2.8294  2.2097
  282MOL0     H38018   5.075   3.132   1.855 -0.1362  1.5499  4.2139
  282MOL0     H38019   5.229   3.403   1.864 -2.7202  0.8602  1.9166
  282MOL0     H38020   5.283   3.233   1.909 -0.9907 -2.4023 -1.5542
  282MOL0     H38021   5.169   3.178   2.179 -2.3094 -0.3718  3.3514
  282MOL0     H38022   5.078   3.333   2.426  0.7697  1.7552  0.3840
  282MOL0     H38023   4.970   3.467   2.390 -2.0612 -0.6177 -0.5500
  282MOL0     H38024   4.846   3.239   2.281 -0.7921  0.5774  0.7260
  282MOL0     H38025   4.780   3.367   2.364  1.4679  1.0956 -3.5170
  282MOL0     H38026   4.911   3.238   2.583  1.3648 -0.9345 -0.5216
  282MOL0     H38027   4.904   3.108   2.480  2.3127  0.9553 -0.3326
  282MOL0     H38028   4.654   3.273   2.546  0.7424 -0.5865  4.2924
  282MOL0     H38029   4.706   3.120   2.626  1.4593 -1.8613 -0.6789
  282MOL0     H38030   4.452   3.168   2.640 -1.8464  0.4680  0.4851
  282MOL0     H38031   4.245   3.264   2.704  2.3441 -2.5968 -0.0617
  282MOL0     H38032   4.088   3.195   2.634 -0.8901 -1.7703 -2.3956
  282MOL0     H38033   4.186   3.103   2.735  3.2690 -1.9798 -1.0159
  282MOL0     H38034   3.817   3.259   2.336  1.1599 -1.8295  1.9194
  282MOL0     H38035   3.593   3.230   2.251 -1.2891 -1.6289  0.1005
  282MOL0     H38036   3.548   2.890   1.962  0.5818  0.6704 -0.6429
  282MOL0     H38037   3.480   2.875   2.126  1.1779 -0.7544  0.2526
  282MOL0     H38038   3.362   2.980   1.870 -1.3091 -0.6700 -0.0416
  282MOL0     H38039   3.335   2.818   1.952 -1.1698 -0.7412  0.7552
  282MOL0     H38040   3.251   3.085   2.036 -1.6751  1.5172  0.9195
  282MOL0     H38041   3.227   2.955   2.152  2.9851  1.1502  0.3917
  282MOL0     H38042   3.024   3.021   2.013 -0.9185  1.4990 -2.5025
  282MOL0     H38043   3.119   2.987   1.872  2.2697  3.5676  0.5770
  282MOL0     H38044   3.011   2.792   2.091  2.6532 -3.0814 -0.6299
  282MOL0     H38045   3.104   2.747   1.950  0.3181 -1.0478  0.6186
  282MOL0     H38046   2.827   2.868   1.946  2.1621  2.4461  0.3114
  282MOL0     H38047   2.928   2.836   1.803  2.8263 -0.4368  0.4368
  282MOL0     H38048   2.781   2.650   1.997  0.3754 -1.9367  0.0202
  282MOL0     H38049   2.927   2.592   1.911 -1.1359 -0.9205 -3.4247
  282MOL0     H38050   2.736   2.523   1.784  0.7296 -0.0317  1.6148
  282MOL0     H38051   2.830   2.643   1.690  3.0990 -1.7477  0.6924
  282MOL0     H38052   3.738   2.932   1.975 -0.7439 -0.8522  1.4233
  282MOL0     H38053   3.966   2.972   2.054 -0.1750  1.3143 -1.8323
  282MOL0     H38054   4.265   3.069   2.199  0.3519 -3.0216  0.3541
  282MOL0     H38055   4.511   3.083   2.226  1.0430 -0.3397  0.0634
  282MOL0     H38056   4.710   3.050   1.119 -1.7498  0.1841  1.7937
  282MOL0     H38057   4.476   3.110   1.091 -0.5755  1.5246 -0.2456
  282MOL0     H38058   4.114   3.309   1.252  0.5589 -1.7830 -0.5568
  282MOL0     H38059   3.864   3.333   1.226  0.6848  1.0213  0.6983
  282MOL0     H38060   3.694   3.465   0.836  0.8405 -0.6797  0.1491
  282MOL0     H38061   3.678   3.288   0.828 -1.7217 -0.5800  0.8198
  282MOL0     H38062   3.515   3.465   1.018 -0.9122 -2.2532  1.1141
  282MOL0     H38063   3.473   3.303   0.959  1.8517 -0.1729 -0.6991
  282MOL0     H38064   3.384   3.355   0.778  2.5667 -2.9951  3.1009
  282MOL0     H38065   3.473   3.510   0.758 -1.4144  0.8601  0.1442
  282MOL0     H38066   3.334   3.599   0.938  1.5041 -0.3058  0.2501
  282MOL0     H38067   3.225   3.453   0.913 -1.7822  0.7580 -2.9822
  282MOL0     H38068   3.116   3.745   0.626 -1.1204 -2.0728 -0.3888
  282MOL0     H38069   3.930   3.355   0.800 -0.2269 -3.3499 -0.5831
  282MOL0     H38070   4.176   3.337   0.833  1.4294  2.3142  1.0738
  283MOL0     O38071   0.157   1.851   5.248 -0.2460  0.2253  0.4465
  283MOL0     C38072   0.089   1.869   5.348  0.1682 -0.2769 -0.3476
  283MOL0     O38073  -0.044   1.916   5.345  0.4445  0.2579  0.1210
  283MOL0     C38074  -0.089   1.931   5.212  0.0214 -0.3260 -0.2812
  283MOL0     C38075  -0.146   1.818   5.162  0.4766  0.4912  1.4266
  283MOL0     C38076  -0.178   1.818   5.021 -0.1196 -0.2707 -0.6094
  283MOL0     C38077  -0.143   1.918   4.935 -0.0463 -0.4471  1.2521
  283MOL0     O38078  -0.149   1.921   4.795  0.0299  0.4532  0.2782
  283MOL0     C38079  -0.287   1.898   4.740 -0.5618  0.3378 -0.3747
  283MOL0     C38080  -0.355   2.036   4.727  0.6052  0.3248  1.1140
  283MOL0     C38081  -0.487   2.033   4.650 -0.2571  0.5572 -1.0001
  283MOL0     C38082  -0.468   2.107   4.519 -1.3272 -0.3524 -0.2176
  283MOL0     C38083  -0.601   2.121   4.449 -0.1277 -0.0940  0.4762
  283MOL0     C38084  -0.581   2.139   4.302 -0.2819 -0.3814  0.8834
  283MOL0     C38085  -0.713   2.102   4.231 -0.5442  0.7352 -0.2448
  283MOL0     C38086  -0.728   2.152   4.090 -0.6931  0.2225  0.0881
  283MOL0     N38087  -0.869   2.143   4.049 -0.0089  0.3869 -0.5464
  283MOL0     C38088  -0.924   2.045   3.970  0.0922  0.4753 -0.6265
  283MOL0     C38089  -1.043   2.103   3.922 -0.0033  0.3212 -0.5868
  283MOL0     C38090  -1.150   2.060   3.822 -1.0931 -0.2911 -0.4559
  283MOL0     C38091  -1.244   1.949   3.872 -0.2285 -0.0759 -0.5396
  283MOL0     C38092  -1.313   1.887   3.744 -1.0316 -0.3120 -0.7524
  283MOL0     C38093  -1.450   1.825   3.791  0.0823 -0.4247 -0.0262
  283MOL0     O38094  -1.536   1.926   3.822  0.6265 -0.1069 -0.1466
  283MOL0     C38095  -1.613   1.972   3.719  1.1185 -0.8957  0.1764
  283MOL0     C38096  -1.619   2.113   3.699 -0.1088  0.9691 -0.4633
  283MOL0     C38097  -1.698   2.159   3.600  0.8812 -0.4387 -0.0281
  283MOL0     C38098  -1.689   2.308   3.569  0.5153  0.4858 -0.7079
  283MOL0     C38099  -1.791   2.081   3.533  0.8372  0.1344  0.0381
  283MOL0     C38100  -1.904   2.120   3.444  0.5812 -0.0939  0.0848
  283MOL0     O38101  -1.970   2.031   3.368  0.4756 -1.0002  0.0103
  283MOL0     C38102  -2.106   2.063   3.333 -0.4918  0.1576  0.0395
  283MOL0     C38103  -2.186   2.164   3.389  0.1639  0.1727  0.4635
  283MOL0     C38104  -2.313   2.191   3.345 -0.0772  0.5229 -0.2425
  283MOL0     C38105  -2.365   2.119   3.232  0.4694  0.7874 -0.5462
  283MOL0     O38106  -2.491   2.138   3.176 -0.5720  0.8266 -0.6113
  283MOL0     C38107  -2.539   2.267   3.187  0.4826 -1.2912  0.4826
  283MOL0     C38108  -2.652   2.276   3.078  0.0968  0.9551  0.6827
  283MOL0     C38109  -2.782   2.204   3.120 -0.1059 -0.5448  0.9453
  283MOL0     C38110  -2.881   2.179   3.005  0.2126 -0.2170  1.1035
  283MOL0     C38111  -3.014   2.111   3.039  0.1402  0.2289  0.7221
  283MOL0     C38112  -3.094   2.077   2.917  0.5741 -0.5819 -0.5160
  283MOL0     C38113  -3.029   1.947   2.845  0.7423 -0.2102 -0.2114
  283MOL0     C38114  -3.123   1.910   2.726  0.2635 -0.2269 -0.1453
  283MOL0    Cl38115  -3.255   1.806   2.798 -0.2162  0.2755 -0.2291
  283MOL0     C38116  -2.280   2.035   3.164  0.1352  0.1893  0.4484
  283MOL0     C38117  -2.156   2.005   3.217  0.2457  0.6900  0.0617
  283MOL0     O38118  -1.920   2.240   3.437 -0.1183 -0.6939  0.3155
  283MOL0     C38119  -1.791   1.941   3.557  0.1736  0.3546 -0.1358
  283MOL0     C38120  -1.705   1.883   3.653 -0.8786 -0.4960  0.6083
  283MOL0     N38121  -1.057   2.228   3.981  0.1128  0.3538 -0.2363
  283MOL0     N38122  -0.955   2.249   4.062 -1.0050  0.0507 -0.5545
  283MOL0     C38123  -0.094   2.030   4.994  0.1438 -0.5234 -0.6220
  283MOL0     C38124  -0.062   2.041   5.133  0.9009 -0.1342 -0.6195
  283MOL0     C38125   0.164   1.845   5.473 -0.1968  0.2271 -1.4453
  283MOL0     C38126   0.100   1.870   5.595  0.5016 -0.5938  0.4967
  283MOL0     C38127   0.166   1.832   5.707  0.0546  0.3896 -0.0123
  283MOL0     C38128   0.295   1.782   5.706  0.1936 -0.2119 -0.2011
  283MOL0     O38129   0.356   1.757   5.822  0.7007  0.3323 -0.4409
  283MOL0     C38130   0.339   1.855   5.925 -0.4239  0.5937  0.1567
  283MOL0     C38131   0.476   1.870   6.002  0.4698  0.1491  0.1440
  283MOL0     C38132   0.569   1.991   5.952  0.7407  0.5055 -1.0708
  283MOL0     C38133   0.610   1.983   5.806  0.2716  0.5303 -0.3703
  283MOL0     C38134   0.716   1.874   5.789 -0.0409 -0.7574 -0.9606
  283MOL0     C38135   0.801   1.793   5.778 -0.4781  0.2234  0.1410
  283MOL0     C38136   0.361   1.763   5.591 -0.7243  0.8490  0.1262
  283MOL0     C38137   0.300   1.792   5.474  0.0280  0.1021  0.1736
  283MOL0     H38138  -0.172   1.729   5.217 -2.1369  0.7550  0.7702
  283MOL0     H38139  -0.228   1.731   4.980  0.6932 -0.6441 -0.8395
  283MOL0     H38140  -0.270   1.862   4.638  0.3874  0.4906 -0.2786
  283MOL0     H38141  -0.350   1.833   4.802 -0.5071  1.7316  1.2017
  283MOL0     H38142  -0.377   2.072   4.827 -1.0679 -0.8527  1.1991
  283MOL0     H38143  -0.284   2.106   4.682 -0.4409  0.5250 -0.3079
  283MOL0     H38144  -0.520   1.929   4.637 -1.3544  0.6996  0.3914
  283MOL0     H38145  -0.568   2.075   4.710 -0.6043 -1.5248  0.1129
  283MOL0     H38146  -0.420   2.205   4.516  0.9121 -1.4052 -0.8173
  283MOL0     H38147  -0.399   2.038   4.469 -1.7035  0.4674 -1.9406
  283MOL0     H38148  -0.666   2.034   4.467 -2.8875  2.2002  2.6313
  283MOL0     H38149  -0.652   2.210   4.487 -1.2975 -0.5774  0.0798
  283MOL0     H38150  -0.541   2.239   4.282  0.1112 -0.4760  1.1715
  283MOL0     H38151  -0.499   2.075   4.268  1.3424  2.2279 -0.4578
  283MOL0     H38152  -0.719   1.994   4.217  0.0256  0.8546 -1.5684
  283MOL0     H38153  -0.794   2.152   4.285 -1.2572 -0.9758  0.3259
  283MOL0     H38154  -0.659   2.104   4.019 -0.0914  3.5657 -1.8047
  283MOL0     H38155  -0.693   2.256   4.083  0.1244 -0.0925 -0.7624
  283MOL0     H38156  -0.880   1.954   3.930  0.5632  0.8969 -1.0873
  283MOL0     H38157  -1.188   2.151   3.776  1.0246  0.3766 -1.0216
  283MOL0     H38158  -1.088   2.014   3.744  1.3598 -0.2740  1.3603
  283MOL0     H38159  -1.319   1.995   3.936  1.3209 -0.1178  1.3783
  283MOL0     H38160  -1.215   1.872   3.943 -2.3026 -0.0281  0.4290
  283MOL0     H38161  -1.245   1.816   3.695  0.1481  0.6278 -0.5415
  283MOL0     H38162  -1.323   1.969   3.672 -0.7471  0.6619  0.2875
  283MOL0     H38163  -1.432   1.768   3.882  0.9485 -1.4125 -0.7785
  283MOL0     H38164  -1.473   1.758   3.707  0.8161  0.4658 -0.9734
  283MOL0     H38165  -1.555   2.181   3.754 -0.5337  1.5166 -0.6251
  283MOL0     H38166  -1.615   2.357   3.633 -1.0894 -0.0094  1.6351
  283MOL0     H38167  -1.658   2.328   3.466 -1.3471  1.5566 -1.0961
  283MOL0     H38168  -1.781   2.365   3.582  2.0432  3.0323 -0.4430
  283MOL0     H38169  -2.150   2.224   3.472  0.6030 -0.2839  0.6076
  283MOL0     H38170  -2.357   2.274   3.400  2.2201  2.6249 -1.3831
  283MOL0     H38171  -2.575   2.297   3.286  1.5487  2.2504 -0.0659
  283MOL0     H38172  -2.461   2.340   3.164  0.0923 -0.9110  0.3402
  283MOL0     H38173  -2.680   2.381   3.066  3.0572  1.6683 -0.8941
  283MOL0     H38174  -2.623   2.242   2.979 -0.5032  1.5954  0.2763
  283MOL0     H38175  -2.837   2.257   3.199 -2.8336  0.5579 -1.4869
  283MOL0     H38176  -2.757   2.105   3.158 -3.6227 -2.6567 -1.6098
  283MOL0     H38177  -2.901   2.279   2.964 -1.2432 -0.5339  0.9775
  283MOL0     H38178  -2.818   2.120   2.938  0.1615 -0.2820  1.1127
  283MOL0     H38179  -3.072   2.179   3.101 -0.7716  0.8610 -0.7740
  283MOL0     H38180  -2.985   2.020   3.093  2.2654 -0.9202 -2.0642
  283MOL0     H38181  -3.190   2.042   2.956 -0.2476  1.5635 -0.4945
  283MOL0     H38182  -3.111   2.162   2.850 -1.3569 -0.4041  0.1605
  283MOL0     H38183  -3.011   1.861   2.910  0.6131  0.3894  0.6230
  283MOL0     H38184  -2.932   1.962   2.797  1.1017  1.6454  1.0340
  283MOL0     H38185  -3.069   1.844   2.658 -1.4808 -0.6043 -1.2313
  283MOL0     H38186  -3.153   2.001   2.673  0.7815  1.0586  1.6728
  283MOL0     H38187  -2.310   1.987   3.071  2.3133 -0.8720  0.2216
  283MOL0     H38188  -2.088   1.940   3.162 -1.5892  0.2790 -1.8253
  283MOL0     H38189  -1.857   1.877   3.498  0.3544 -2.3905  2.4084
  283MOL0     H38190  -1.697   1.775   3.659  2.9529 -0.3046  1.6230
  283MOL0     H38191  -0.076   2.118   4.932  1.8011  0.8636  1.6706
  283MOL0     H38192  -0.022   2.132   5.175  1.8001 -0.1290 -1.4619
  283MOL0     H38193  -0.008   1.885   5.599  0.4015 -1.1001 -0.1101
  283MOL0     H38194   0.112   1.816   5.800 -0.2883 -1.6830 -0.5231
  283MOL0     H38195   0.308   1.952   5.885  3.3144  2.9357  2.3292
  283MOL0     H38196   0.264   1.823   5.998 -0.2895  0.5158  0.2612
  283MOL0     H38197   0.527   1.774   6.007  0.7692  0.3617  3.4883
  283MOL0     H38198   0.457   1.887   6.108  1.3725 -0.9328  0.4902
  283MOL0     H38199   0.660   1.987   6.012  1.0395  0.8787 -1.4986
  283MOL0     H38200   0.532   2.092   5.968 -0.5601 -0.2110  0.7448
  283MOL0     H38201   0.659   2.080   5.788 -1.1642  1.4379  0.3784
  283MOL0     H38202   0.523   1.979   5.740 -1.7977  0.2762  2.2390
  283MOL0     H38203   0.885   1.726   5.773 -1.0826 -0.5324 -0.0407
  283MOL0     H38204   0.467   1.740   5.595 -0.5285  1.8938  1.3495
  283MOL0     H38205   0.360   1.772   5.386  1.2587 -0.3638  1.0846
  284MOL0     O38206  10.561   6.764   1.050 -0.6792  0.5079  0.3504
  284MOL0     C38207  10.539   6.700   0.947 -0.0513  0.4504  0.8141
  284MOL0     O38208  10.617   6.604   0.893  0.3527  0.3643  0.8963
  284MOL0     C38209  10.734   6.570   0.951  0.3860  0.5171 -0.9582
  284MOL0     C38210  10.848   6.544   0.874 -1.0728 -0.6591  0.2758
  284MOL0     C38211  10.958   6.485   0.923 -1.0461  0.1259  0.0015
  284MOL0     C38212  10.961   6.441   1.059  0.3907  0.1689  0.9877
  284MOL0     O38213  11.068   6.369   1.113 -0.4152  0.4426  0.1332
  284MOL0     C38214  11.193   6.383   1.040 -1.0382 -0.0571 -0.7468
  284MOL0     C38215  11.308   6.332   1.121  0.7409  0.0683  0.4375
  284MOL0     C38216  11.304   6.375   1.268  0.1084  0.9078  0.1353
  284MOL0     C38217  11.334   6.523   1.300  0.1312 -0.5589  0.2225
  284MOL0     C38218  11.307   6.543   1.452 -0.6809 -0.5629  0.7140
  284MOL0     C38219  11.368   6.673   1.494  0.2687  0.0191 -0.3306
  284MOL0     C38220  11.371   6.677   1.652  1.3629 -0.3185  0.1122
  284MOL0     C38221  11.466   6.779   1.703  0.1576 -0.3970 -0.3212
  284MOL0     N38222  11.415   6.912   1.663  0.2009 -0.0062 -0.0121
  284MOL0     C38223  11.425   6.979   1.542  0.0183  0.6268  0.1808
  284MOL0     C38224  11.372   7.096   1.555  0.3556 -0.2096 -0.5030
  284MOL0     C38225  11.366   7.208   1.462  0.6854  0.0140  0.2971
  284MOL0     C38226  11.225   7.211   1.390  0.3801  0.1346 -0.3663
  284MOL0     C38227  11.195   7.089   1.301  0.6438  0.0110  0.2610
  284MOL0     C38228  11.263   7.093   1.161 -0.1580 -0.0344 -0.3961
  284MOL0     O38229  11.257   7.228   1.108  0.1819 -0.6075 -0.0231
  284MOL0     C38230  11.144   7.258   1.039  0.6913  0.2072  0.3248
  284MOL0     C38231  11.128   7.397   1.017 -0.1705 -0.5149  0.0825
  284MOL0     C38232  11.023   7.447   0.943  0.6678 -0.5714  0.1414
  284MOL0     C38233  11.013   7.599   0.931 -0.2957  0.0680 -0.3673
  284MOL0     C38234  10.933   7.350   0.883  0.0701  0.9332  0.1141
  284MOL0     C38235  10.815   7.387   0.801 -0.6132  0.4872 -0.5583
  284MOL0     O38236  10.770   7.298   0.702 -0.2351  1.0730  0.1534
  284MOL0     C38237  10.667   7.341   0.618  0.0112  0.2563 -0.6678
  284MOL0     C38238  10.657   7.462   0.539  0.3333  0.4170 -1.5220
  284MOL0     C38239  10.543   7.486   0.464  0.4577 -0.4855  0.2939
  284MOL0     C38240  10.429   7.395   0.463  0.9524 -0.0075 -0.7836
  284MOL0     O38241  10.310   7.437   0.404  0.5415 -0.1429 -0.2872
  284MOL0     C38242  10.260   7.551   0.470 -0.2831 -0.1195  0.1049
  284MOL0     C38243  10.115   7.579   0.439 -0.9686 -0.6043 -0.7011
  284MOL0     C38244  10.056   7.683   0.535  0.2064 -0.2946  0.8394
  284MOL0     C38245   9.920   7.736   0.475 -0.0151 -0.8314 -0.7146
  284MOL0     C38246   9.937   7.847   0.390 -0.2135  0.3443  0.4203
  284MOL0     C38247   9.983   7.966   0.488 -0.2765 -0.6754  0.1235
  284MOL0     C38248   9.950   8.102   0.420  0.1751  0.5146 -0.0149
  284MOL0     C38249  10.022   8.226   0.482  0.1010  0.5670  1.1388
  284MOL0    Cl38250   9.981   8.213   0.653  0.0811 -0.1298 -0.4603
  284MOL0     C38251  10.450   7.280   0.532  0.6414  0.4723  0.2782
  284MOL0     C38252  10.563   7.253   0.602 -0.0757 -0.6427 -0.3074
  284MOL0     O38253  10.754   7.494   0.828 -0.3503 -0.1595  0.9638
  284MOL0     C38254  10.964   7.212   0.892 -0.2222  0.7344  0.1804
  284MOL0     C38255  11.062   7.164   0.968  0.0681 -0.6585 -0.6698
  284MOL0     N38256  11.316   7.103   1.683  0.2379 -0.5543  0.7512
  284MOL0     N38257  11.354   6.999   1.747 -0.1867  0.1115  0.1584
  284MOL0     C38258  10.847   6.463   1.138 -0.7403  0.4366  0.0007
  284MOL0     C38259  10.736   6.532   1.086 -1.0264  0.9842 -0.6388
  284MOL0     C38260  10.411   6.731   0.868 -0.4759  0.4261  0.4945
  284MOL0     C38261  10.331   6.848   0.895  1.3032  0.2804 -1.7847
  284MOL0     C38262  10.217   6.864   0.822  0.0243  0.4445  0.3367
  284MOL0     C38263  10.177   6.765   0.731 -0.0123  0.2329  0.5127
  284MOL0     O38264  10.051   6.789   0.674 -0.3745  0.0592 -0.5032
  284MOL0     C38265   9.983   6.679   0.598 -0.6554 -0.4120 -0.3871
  284MOL0     C38266   9.904   6.578   0.687  0.2768 -0.0230  0.0445
  284MOL0     C38267   9.816   6.666   0.783  0.5691 -0.3303 -0.6347
  284MOL0     C38268   9.720   6.578   0.866 -1.0847  0.0837  0.0216
  284MOL0     C38269   9.602   6.548   0.787  0.1940  0.5412 -0.2990
  284MOL0     C38270   9.515   6.519   0.712 -0.0009  0.4819  0.3034
  284MOL0     C38271  10.263   6.656   0.704  0.2133 -0.6983  0.4007
  284MOL0     C38272  10.377   6.640   0.775 -0.5149  0.1795  0.0487
  284MOL0     H38273  10.844   6.569   0.768  1.2389 -0.8022  0.0959
  284MOL0     H38274  11.041   6.470   0.854 -1.8408 -0.3535 -0.8655
  284MOL0     H38275  11.205   6.332   0.944  2.8883 -0.6383 -0.0955
  284MOL0     H38276  11.210   6.489   1.019  1.7083 -0.3860 -0.4490
  284MOL0     H38277  11.298   6.223   1.113 -1.1321  0.0504  2.2122
  284MOL0     H38278  11.404   6.364   1.079 -0.2055  3.1046  0.3791
  284MOL0     H38279  11.204   6.350   1.304 -0.0658 -2.2587 -2.1016
  284MOL0     H38280  11.372   6.312   1.326 -0.7666 -1.5304 -1.3253
  284MOL0     H38281  11.436   6.551   1.272 -0.2718 -1.7405 -2.7506
  284MOL0     H38282  11.267   6.590   1.245  2.2191  0.2370 -1.4748
  284MOL0     H38283  11.200   6.547   1.474 -0.4637  0.6382  1.6322
  284MOL0     H38284  11.363   6.461   1.499  1.2221 -0.1043 -0.6231
  284MOL0     H38285  11.471   6.671   1.457  0.3577 -2.2328 -0.1102
  284MOL0     H38286  11.319   6.762   1.454  1.7208 -0.4080 -3.3231
  284MOL0     H38287  11.272   6.706   1.690  1.4886  2.0331 -1.1842
  284MOL0     H38288  11.395   6.581   1.699 -0.2219 -0.1599  1.3238
  284MOL0     H38289  11.567   6.752   1.671  0.0022 -1.8429  0.3597
  284MOL0     H38290  11.465   6.781   1.812 -1.6290 -0.7851 -0.2985
  284MOL0     H38291  11.461   6.938   1.447 -3.5858 -0.2643 -0.9555
  284MOL0     H38292  11.390   7.298   1.519 -1.4697  0.0422  1.2557
  284MOL0     H38293  11.438   7.188   1.383 -0.3452  1.9491 -1.2401
  284MOL0     H38294  11.211   7.307   1.340  1.2340 -0.5351 -1.9599
  284MOL0     H38295  11.156   7.207   1.475 -0.4998 -2.0577 -1.1100
  284MOL0     H38296  11.089   7.065   1.288  0.3823 -1.9936  4.4503
  284MOL0     H38297  11.222   6.999   1.356  0.7382 -0.2198 -0.1596
  284MOL0     H38298  11.217   7.013   1.104  0.4496 -2.1801  1.9411
  284MOL0     H38299  11.368   7.068   1.177  0.0388 -0.7264 -2.5268
  284MOL0     H38300  11.195   7.464   1.071  0.1585 -1.3725  0.7607
  284MOL0     H38301  10.913   7.642   0.941 -0.1190  0.4420 -0.1808
  284MOL0     H38302  11.075   7.649   1.005  0.9789 -0.6820 -0.8968
  284MOL0     H38303  11.057   7.619   0.833  0.4272 -0.4144 -0.1446
  284MOL0     H38304  10.736   7.536   0.528  0.7528 -0.1967 -2.9266
  284MOL0     H38305  10.533   7.574   0.401  2.1434  1.7443  2.9052
  284MOL0     H38306  10.274   7.545   0.578  0.6332 -0.3501 -0.0185
  284MOL0     H38307  10.314   7.635   0.426 -0.3294 -0.3662 -0.4344
  284MOL0     H38308  10.107   7.606   0.333  2.0351 -2.6785 -1.5721
  284MOL0     H38309  10.062   7.484   0.454 -1.9996 -0.1613 -1.3958
  284MOL0     H38310  10.129   7.763   0.551  3.0094 -3.0284  2.7441
  284MOL0     H38311  10.051   7.642   0.636  1.0484  0.0365  1.0259
  284MOL0     H38312   9.870   7.655   0.421 -1.6498 -0.6719  0.4620
  284MOL0     H38313   9.850   7.765   0.554  1.1662  1.1744 -0.3488
  284MOL0     H38314   9.844   7.871   0.338  0.8893  0.4336 -1.5914
  284MOL0     H38315  10.015   7.816   0.320  0.8785  1.3427  1.1468
  284MOL0     H38316   9.946   7.946   0.588  0.4450 -1.3649  0.2634
  284MOL0     H38317  10.092   7.963   0.498 -0.3894 -1.9595  1.1449
  284MOL0     H38318   9.841   8.111   0.426  0.1984  1.8900 -1.0555
  284MOL0     H38319   9.968   8.100   0.312 -0.9948  1.2240 -0.2446
  284MOL0     H38320   9.988   8.319   0.437  1.0106  1.2446  1.8219
  284MOL0     H38321  10.130   8.225   0.465 -0.0877 -1.1518 -0.3163
  284MOL0     H38322  10.357   7.225   0.542  0.2871  1.0544  0.2296
  284MOL0     H38323  10.576   7.152   0.640 -3.7992 -1.1688  0.0082
  284MOL0     H38324  10.888   7.145   0.853 -1.6917  1.3410  1.8534
  284MOL0     H38325  11.070   7.056   0.979  0.3481 -0.7836 -1.8758
  284MOL0     H38326  10.837   6.438   1.243  0.6543 -1.3968 -0.2454
  284MOL0     H38327  10.666   6.557   1.165  0.5261 -0.1201  1.1760
  284MOL0     H38328  10.362   6.926   0.963 -0.9572 -0.0544 -0.2660
  284MOL0     H38329  10.147   6.946   0.838 -0.6734 -0.3580  1.6200
  284MOL0     H38330   9.927   6.740   0.527  1.8980 -1.1533 -3.2767
  284MOL0     H38331  10.056   6.627   0.535  1.5916  4.1940 -2.0826
  284MOL0     H38332   9.972   6.516   0.746  1.8892 -0.1324 -1.8698
  284MOL0     H38333   9.848   6.517   0.616  0.0916  0.9248 -0.6393
  284MOL0     H38334   9.753   6.738   0.729 -1.5551 -0.8989  0.9597
  284MOL0     H38335   9.880   6.705   0.863 -0.8478 -1.9913  1.3981
  284MOL0     H38336   9.695   6.637   0.955  1.6925  2.7559 -0.7940
  284MOL0     H38337   9.764   6.483   0.897  2.3231  1.2810 -0.7329
  284MOL0     H38338   9.459   6.494   0.624  0.2489 -3.0932  1.0202
  284MOL0     H38339  10.236   6.576   0.635 -0.4901 -0.6222  0.5822
  284MOL0     H38340  10.442   6.555   0.755  1.2465  1.7070 -1.0588
  285MOL0     O38341   1.181   6.252   7.251  0.1362 -0.7404 -0.6541
  285MOL0     C38342   1.205   6.136   7.229 -0.2055  0.8945 -0.8298
  285MOL0     O38343   1.111   6.039   7.256  0.3908  0.4069  0.4237
  285MOL0     C38344   0.996   6.087   7.311  0.5265  0.0472  0.2722
  285MOL0     C38345   0.979   6.075   7.453 -0.0878  1.5100 -0.9695
  285MOL0     C38346   0.852   6.100   7.512 -0.5452 -0.9203 -0.1021
  285MOL0     C38347   0.740   6.138   7.434 -0.2853  0.0135 -0.1433
  285MOL0     O38348   0.604   6.147   7.487 -0.0004 -0.1208 -0.0559
  285MOL0     C38349   0.592   6.188   7.630 -0.7028  0.0741 -0.2218
  285MOL0     C38350   0.450   6.214   7.665  0.7869 -0.3060 -0.0269
  285MOL0     C38351   0.408   6.250   7.807 -0.0060 -0.6070  0.5540
  285MOL0     C38352   0.269   6.312   7.810  0.7736 -0.6581  0.1330
  285MOL0     C38353   0.219   6.340   7.949 -0.5064  0.1704  0.6425
  285MOL0     C38354   0.195   6.205   8.025 -0.0047  0.1400  0.8994
  285MOL0     C38355   0.098   6.224   8.133  1.4019  0.1584 -0.1464
  285MOL0     C38356   0.168   6.301   8.244 -0.8400 -0.0163  0.0422
  285MOL0     N38357   0.076   6.349   8.347 -0.9571 -0.1816 -0.2386
  285MOL0     C38358  -0.028   6.437   8.329 -0.3644 -0.3330 -0.3197
  285MOL0     C38359  -0.086   6.427   8.454 -0.4256 -1.3116 -0.7846
  285MOL0     C38360  -0.223   6.481   8.494 -0.1809  0.5853 -0.9304
  285MOL0     C38361  -0.222   6.555   8.622 -0.0126 -0.1065 -0.0599
  285MOL0     C38362  -0.347   6.626   8.661 -0.4045  0.3773 -0.3972
  285MOL0     C38363  -0.465   6.541   8.711 -0.2944  0.0476 -0.1821
  285MOL0     O38364  -0.540   6.508   8.594 -0.1410 -0.4682  0.0169
  285MOL0     C38365  -0.679   6.509   8.596 -0.3489 -0.5353  1.2864
  285MOL0     C38366  -0.748   6.614   8.647  0.4396  0.3690 -0.4703
  285MOL0     C38367  -0.890   6.618   8.670  0.2154  0.4063  0.5750
  285MOL0     C38368  -0.940   6.736   8.750 -0.1664 -0.2738  0.2444
  285MOL0     C38369  -0.967   6.518   8.604  0.3072  0.3346  0.5019
  285MOL0     C38370  -1.122   6.515   8.601 -0.4350  0.4822 -0.3686
  285MOL0     O38371  -1.172   6.402   8.537  0.2083 -0.7466 -0.3549
  285MOL0     C38372  -1.307   6.381   8.568 -1.4938 -0.4773  0.2472
  285MOL0     C38373  -1.336   6.274   8.649 -0.3262 -0.1413 -0.3447
  285MOL0     C38374  -1.472   6.236   8.676  0.1722 -0.6603  0.3131
  285MOL0     C38375  -1.578   6.318   8.641  0.8068 -0.2698 -0.0493
  285MOL0     O38376  -1.711   6.300   8.686 -0.0324  0.0652 -0.6274
  285MOL0     C38377  -1.814   6.326   8.587 -0.2149  0.2226  0.8927
  285MOL0     C38378  -1.914   6.216   8.606  0.1806 -0.5043  0.2859
  285MOL0     C38379  -2.049   6.239   8.543 -0.3328 -0.5123 -0.3642
  285MOL0     C38380  -2.127   6.358   8.610  0.0607 -0.1619  0.3363
  285MOL0     C38381  -2.253   6.309   8.690  0.0574  0.0163  0.5991
  285MOL0     C38382  -2.369   6.315   8.598  0.7422  0.2862 -0.0700
  285MOL0     C38383  -2.499   6.287   8.678  0.2448  0.9345 -0.6489
  285MOL0     C38384  -2.635   6.297   8.593 -0.8872 -0.7478  0.0006
  285MOL0    Cl38385  -2.639   6.174   8.465 -0.3055 -0.3750 -0.0228
  285MOL0     C38386  -1.542   6.428   8.566  0.5955  1.2892 -0.0074
  285MOL0     C38387  -1.412   6.460   8.525 -0.1948  0.0775 -0.7150
  285MOL0     O38388  -1.179   6.609   8.641 -0.5491 -0.7159  0.2999
  285MOL0     C38389  -0.888   6.414   8.536  0.0101  0.1156  0.5832
  285MOL0     C38390  -0.747   6.412   8.528 -0.5602  0.4905 -0.3898
  285MOL0     N38391  -0.022   6.336   8.533 -0.3224  0.4217  0.0495
  285MOL0     N38392   0.074   6.292   8.470 -0.1697 -0.3698 -0.3399
  285MOL0     C38393   0.759   6.146   7.299  0.6478 -0.7747 -0.4925
  285MOL0     C38394   0.887   6.134   7.235  0.4140  0.2728  0.2252
  285MOL0     C38395   1.341   6.088   7.208 -0.8505 -0.7456 -0.0252
  285MOL0     C38396   1.378   5.968   7.152  0.4009 -0.6183 -0.2557
  285MOL0     C38397   1.508   5.945   7.103  0.0646  0.1408 -0.3596
  285MOL0     C38398   1.607   6.039   7.121 -0.7692 -0.1618  0.4990
  285MOL0     O38399   1.735   6.038   7.065 -0.3864  0.8164  0.3010
  285MOL0     C38400   1.764   5.959   6.942  1.1224  0.2899 -0.2881
  285MOL0     C38401   1.898   6.008   6.876 -0.5608  0.6080 -0.8735
  285MOL0     C38402   1.893   6.142   6.809 -1.0020  0.2728  0.1025
  285MOL0     C38403   2.031   6.203   6.770  0.0874  0.4722  0.1202
  285MOL0     C38404   2.103   6.109   6.679  0.9226 -0.9149  0.3657
  285MOL0     C38405   2.150   6.028   6.607 -0.6687 -0.6902 -1.0333
  285MOL0     C38406   1.578   6.154   7.203  0.1680  1.3648  0.1427
  285MOL0     C38407   1.451   6.172   7.245 -0.4181  1.0599 -0.2143
  285MOL0     H38408   1.055   6.040   7.522 -4.2657 -1.5437  2.6596
  285MOL0     H38409   0.850   6.103   7.621  0.6881 -1.4935 -0.0459
  285MOL0     H38410   0.622   6.104   7.693  2.4553  1.1185 -0.1836
  285MOL0     H38411   0.647   6.271   7.675 -1.4134 -0.6770  2.1343
  285MOL0     H38412   0.419   6.289   7.591 -0.0622  0.7763  1.3763
  285MOL0     H38413   0.407   6.116   7.644  0.4459  0.0347 -0.9723
  285MOL0     H38414   0.405   6.153   7.858  0.7509 -1.7110 -1.3950
  285MOL0     H38415   0.478   6.315   7.860 -2.7314  1.4016  1.9004
  285MOL0     H38416   0.272   6.404   7.749 -0.5361 -2.4769 -2.9476
  285MOL0     H38417   0.201   6.244   7.757  1.3764 -0.6704 -0.6348
  285MOL0     H38418   0.289   6.410   7.995 -1.2812  0.1962  1.8225
  285MOL0     H38419   0.120   6.385   7.941 -0.9604 -0.8782  0.1784
  285MOL0     H38420   0.159   6.130   7.954  1.4895  1.3371 -1.2358
  285MOL0     H38421   0.292   6.171   8.062  0.7853  1.6454  0.2917
  285MOL0     H38422   0.008   6.268   8.090  2.0017  0.6862 -0.8882
  285MOL0     H38423   0.062   6.124   8.161 -1.0880  0.8250 -0.7736
  285MOL0     H38424   0.215   6.391   8.205  4.6290 -1.3977  2.5058
  285MOL0     H38425   0.245   6.237   8.288  0.8946  0.4246 -2.1897
  285MOL0     H38426  -0.069   6.488   8.242  2.0295  3.8337  0.7002
  285MOL0     H38427  -0.274   6.525   8.409  1.0987  2.5528 -0.7472
  285MOL0     H38428  -0.293   6.398   8.507 -0.0518  0.9496  3.7920
  285MOL0     H38429  -0.134   6.619   8.631 -0.0146 -0.3913  2.7532
  285MOL0     H38430  -0.214   6.467   8.686 -2.5309 -0.6974 -0.4525
  285MOL0     H38431  -0.373   6.690   8.576  3.1284  1.7937 -0.5734
  285MOL0     H38432  -0.320   6.686   8.748 -0.4013  1.1243 -0.9095
  285MOL0     H38433  -0.526   6.600   8.780 -2.2687  1.0285 -2.6131
  285MOL0     H38434  -0.435   6.451   8.766 -2.5201  0.5887  2.1416
  285MOL0     H38435  -0.706   6.703   8.693 -0.7184  0.4013  0.6010
  285MOL0     H38436  -0.866   6.787   8.812 -0.0273 -2.0286  1.6135
  285MOL0     H38437  -0.972   6.814   8.680  1.2850  1.5995  1.5933
  285MOL0     H38438  -1.017   6.702   8.821  1.9027 -1.1224  2.1833
  285MOL0     H38439  -1.269   6.207   8.701 -0.0541  1.6061  1.7036
  285MOL0     H38440  -1.489   6.149   8.739 -1.6959 -1.9800 -1.8604
  285MOL0     H38441  -1.849   6.428   8.604  0.8448  0.6781  0.4393
  285MOL0     H38442  -1.778   6.313   8.484  0.4024 -4.8328  1.5011
  285MOL0     H38443  -1.888   6.124   8.553  0.5603 -0.0883 -0.2651
  285MOL0     H38444  -1.928   6.196   8.713 -0.8922 -2.4270 -0.1626
  285MOL0     H38445  -2.114   6.152   8.556 -0.7631 -0.0025  1.0780
  285MOL0     H38446  -2.033   6.251   8.435  2.2945  1.5703  0.1375
  285MOL0     H38447  -2.058   6.405   8.681  1.1893 -1.4877  0.1514
  285MOL0     H38448  -2.162   6.425   8.531  0.2197 -1.2692 -0.6992
  285MOL0     H38449  -2.280   6.387   8.762  0.3852 -0.2459  1.0118
  285MOL0     H38450  -2.251   6.215   8.746 -0.3467 -0.0661  0.4779
  285MOL0     H38451  -2.378   6.410   8.544 -1.7630 -0.3795 -0.9982
  285MOL0     H38452  -2.358   6.235   8.524 -0.4065  2.5665 -2.9117
  285MOL0     H38453  -2.504   6.353   8.764  0.4437 -1.0983  1.0200
  285MOL0     H38454  -2.488   6.188   8.724  0.1111  1.2373  0.0444
  285MOL0     H38455  -2.643   6.393   8.541  3.2985  0.4800  1.2137
  285MOL0     H38456  -2.717   6.279   8.664  1.2882 -1.7503  2.4468
  285MOL0     H38457  -1.617   6.495   8.524  0.5994  1.4184  0.1881
  285MOL0     H38458  -1.390   6.550   8.469  0.0546  2.1790  2.4600
  285MOL0     H38459  -0.951   6.339   8.489 -0.1305  0.8991 -0.5299
  285MOL0     H38460  -0.690   6.338   8.471 -0.5555 -0.6649  1.0465
  285MOL0     H38461   0.669   6.153   7.239  0.9612  0.0839 -0.8859
  285MOL0     H38462   0.887   6.134   7.126 -2.6032  0.9667  0.1330
  285MOL0     H38463   1.304   5.894   7.122  0.5424 -0.4958 -0.9362
  285MOL0     H38464   1.524   5.861   7.037 -2.5349 -0.7688  0.0457
  285MOL0     H38465   1.783   5.858   6.978  1.7875  1.2470  2.2377
  285MOL0     H38466   1.679   5.959   6.873  1.5421  1.3716 -0.8276
  285MOL0     H38467   1.913   5.922   6.811 -1.5706 -0.6329  0.4383
  285MOL0     H38468   1.973   6.012   6.955  0.7629 -0.8825 -2.0012
  285MOL0     H38469   1.851   6.211   6.883  0.2988 -0.0545  1.1968
  285MOL0     H38470   1.830   6.127   6.721 -2.6193 -1.4509  1.4865
  285MOL0     H38471   2.090   6.234   6.856 -2.4340  2.7831  1.1506
  285MOL0     H38472   2.006   6.294   6.716  1.1753  0.4187 -0.5152
  285MOL0     H38473   2.213   5.970   6.542  0.2463 -0.5699 -0.2896
  285MOL0     H38474   1.660   6.221   7.224  1.7941 -0.3370 -0.5463
  285MOL0     H38475   1.438   6.263   7.304  1.3896  0.9593  0.3807
  286MOL0     O38476   9.103   7.031   3.442  0.3202 -0.0573  0.2857
  286MOL0     C38477   9.201   7.042   3.369 -0.1925 -0.6463  0.3675
  286MOL0     O38478   9.203   7.029   3.237 -0.0215  0.0281  0.4553
  286MOL0     C38479   9.106   6.978   3.154  0.0710 -0.5563  0.6654
  286MOL0     C38480   9.138   6.998   3.019  0.7627 -1.0375  0.3329
  286MOL0     C38481   9.039   6.959   2.918  0.8698  0.2454  0.2477
  286MOL0     C38482   8.922   6.892   2.961 -0.1239 -0.2720  0.3454
  286MOL0     O38483   8.845   6.844   2.859 -0.1097  0.6068  0.3695
  286MOL0     C38484   8.701   6.860   2.877 -0.3067 -0.7088  0.0814
  286MOL0     C38485   8.635   6.975   2.798 -0.2817 -0.2924 -0.3247
  286MOL0     C38486   8.480   6.996   2.818  0.2156 -0.4882  0.6782
  286MOL0     C38487   8.396   6.867   2.832  0.1259  0.3013 -0.2714
  286MOL0     C38488   8.410   6.773   2.708 -0.0198 -0.2296  0.4628
  286MOL0     C38489   8.327   6.644   2.721  0.5518  0.0231  0.3659
  286MOL0     C38490   8.176   6.676   2.713  0.5501  0.9290  0.1977
  286MOL0     C38491   8.114   6.532   2.697  0.8422 -0.2730 -0.6379
  286MOL0     N38492   7.967   6.543   2.721 -0.2178  0.3842  0.5600
  286MOL0     C38493   7.906   6.486   2.827  0.4870 -0.5092 -0.5257
  286MOL0     C38494   7.775   6.488   2.787 -0.1147  0.6703 -0.8023
  286MOL0     C38495   7.654   6.449   2.869  0.3746 -0.2064  0.2062
  286MOL0     C38496   7.583   6.328   2.818 -1.0031  0.6838  0.0648
  286MOL0     C38497   7.484   6.350   2.709 -0.4327 -0.5319  0.4065
  286MOL0     C38498   7.422   6.226   2.653  0.0974  0.2008 -0.3473
  286MOL0     O38499   7.336   6.172   2.759  0.1457 -0.1338  0.0400
  286MOL0     C38500   7.230   6.102   2.726 -0.2538 -0.3448  0.0106
  286MOL0     C38501   7.134   6.145   2.631 -0.1333  0.3145  0.2427
  286MOL0     C38502   7.038   6.061   2.586  0.2867  0.6163  0.2435
  286MOL0     C38503   6.940   6.122   2.480 -0.0853  0.1882 -0.5269
  286MOL0     C38504   7.024   5.932   2.649  0.0297 -0.3874 -0.9044
  286MOL0     C38505   6.913   5.843   2.608  0.1775 -0.2207  0.0035
  286MOL0     O38506   6.879   5.748   2.694  0.0880  0.4294 -1.1879
  286MOL0     C38507   6.754   5.687   2.686 -0.7843  0.3261 -0.3495
  286MOL0     C38508   6.756   5.544   2.697  0.5229 -0.4173  0.0790
  286MOL0     C38509   6.642   5.466   2.703 -0.0946  0.1724 -0.3539
  286MOL0     C38510   6.516   5.528   2.691 -0.0295  1.0755 -0.1555
  286MOL0     O38511   6.399   5.457   2.680 -0.2035 -0.1436  0.2390
  286MOL0     C38512   6.338   5.471   2.552 -0.8206  0.3194 -0.5957
  286MOL0     C38513   6.241   5.358   2.533  0.9172 -1.0692  0.7491
  286MOL0     C38514   6.140   5.334   2.650  0.4769  0.4347  0.5193
  286MOL0     C38515   6.023   5.248   2.605  0.3844  0.6821  0.3637
  286MOL0     C38516   5.945   5.196   2.724 -0.5224 -0.3089 -0.6997
  286MOL0     C38517   5.844   5.096   2.701  0.0261  0.0517  0.2930
  286MOL0     C38518   5.724   5.135   2.616 -0.2030  0.3010 -0.0917
  286MOL0     C38519   5.645   5.243   2.681 -0.2347  0.1289 -1.2055
  286MOL0    Cl38520   5.551   5.193   2.825 -0.2906 -0.0930  0.2219
  286MOL0     C38521   6.514   5.670   2.683  0.1811  0.2336  0.0480
  286MOL0     C38522   6.632   5.757   2.679 -0.0663  0.2047  0.9850
  286MOL0     O38523   6.851   5.865   2.505 -0.2277 -0.7010 -0.0545
  286MOL0     C38524   7.119   5.889   2.738 -0.8047  0.5601  0.1509
  286MOL0     C38525   7.221   5.981   2.783  0.5687  0.9965 -0.7422
  286MOL0     N38526   7.759   6.540   2.659 -0.7960 -0.4058  0.1012
  286MOL0     N38527   7.876   6.584   2.625 -0.4675  0.1011 -0.0469
  286MOL0     C38528   8.901   6.868   3.098 -0.3029 -0.0377  0.9422
  286MOL0     C38529   8.989   6.913   3.191  0.3215  0.2282 -0.9132
  286MOL0     C38530   9.332   7.092   3.435  0.7750  0.1187 -0.1835
  286MOL0     C38531   9.452   7.103   3.361  0.4130 -0.9490  0.0608
  286MOL0     C38532   9.571   7.146   3.430  0.7086  0.3720 -0.1181
  286MOL0     C38533   9.568   7.160   3.572 -0.2106 -0.2036  0.3394
  286MOL0     O38534   9.687   7.171   3.645  0.5035 -0.2854 -0.4706
  286MOL0     C38535   9.809   7.178   3.570 -0.6574  0.4318  0.2446
  286MOL0     C38536   9.917   7.227   3.669 -0.6061 -0.6345  0.0398
  286MOL0     C38537  10.004   7.117   3.737 -0.1883 -0.6749 -0.6941
  286MOL0     C38538  10.106   7.168   3.830 -1.1275 -0.1450  0.3650
  286MOL0     C38539  10.192   7.059   3.875 -0.8190 -0.6159  0.5819
  286MOL0     C38540  10.268   6.974   3.915 -0.3334  0.2729 -0.0331
  286MOL0     C38541   9.451   7.153   3.642  1.0049  0.4626 -0.4145
  286MOL0     C38542   9.329   7.128   3.574 -0.4066 -0.2058  0.7090
  286MOL0     H38543   9.229   7.052   2.996  0.2384  0.5558  1.7619
  286MOL0     H38544   9.047   6.967   2.810 -0.9099 -0.3151  0.0359
  286MOL0     H38545   8.657   6.767   2.841  0.5525 -1.9508  2.0563
  286MOL0     H38546   8.675   6.870   2.983  2.0878 -0.6978  0.7427
  286MOL0     H38547   8.691   7.066   2.820 -1.3745  0.4991 -0.6912
  286MOL0     H38548   8.644   6.952   2.691  2.7751  0.1459 -0.2464
  286MOL0     H38549   8.469   7.062   2.905 -0.3967  1.4268 -0.7826
  286MOL0     H38550   8.437   7.060   2.741 -0.8763  0.4493  2.0137
  286MOL0     H38551   8.446   6.831   2.922 -0.1666  0.6488  0.0322
  286MOL0     H38552   8.290   6.878   2.860  0.3111 -1.2910  1.2687
  286MOL0     H38553   8.372   6.818   2.616 -0.2893  0.1414  0.7516
  286MOL0     H38554   8.514   6.746   2.688 -0.1396 -0.7980  0.5911
  286MOL0     H38555   8.354   6.576   2.640 -1.2356 -1.1592  0.7165
  286MOL0     H38556   8.359   6.600   2.816  1.9348 -0.9546 -0.5163
  286MOL0     H38557   8.146   6.728   2.805  0.0604 -0.0765  0.6266
  286MOL0     H38558   8.154   6.740   2.628 -0.4144  0.8552  0.3735
  286MOL0     H38559   8.153   6.465   2.773 -0.4200  0.9596  1.1805
  286MOL0     H38560   8.134   6.495   2.596 -0.8706  1.7434 -1.8126
  286MOL0     H38561   7.943   6.460   2.926 -1.0206 -0.3213  0.1203
  286MOL0     H38562   7.687   6.434   2.972 -1.1036  1.3968  0.9611
  286MOL0     H38563   7.598   6.543   2.865  1.7379  0.7362 -4.8079
  286MOL0     H38564   7.528   6.282   2.900 -2.6493 -0.6425 -1.6935
  286MOL0     H38565   7.654   6.258   2.772  0.3601  1.0011  1.5909
  286MOL0     H38566   7.542   6.395   2.627  1.0874 -2.0749  0.5813
  286MOL0     H38567   7.409   6.421   2.746 -0.1756  1.3217 -2.2649
  286MOL0     H38568   7.495   6.145   2.644  0.1213 -0.4965  3.8703
  286MOL0     H38569   7.374   6.243   2.556  1.7570  1.6920 -0.9600
  286MOL0     H38570   7.153   6.241   2.585 -0.5788  0.7788  1.0071
  286MOL0     H38571   6.915   6.061   2.393 -1.1024  0.7630 -0.6534
  286MOL0     H38572   6.847   6.158   2.524  0.6982  2.9318 -0.9032
  286MOL0     H38573   6.980   6.211   2.432 -1.5229  0.8359 -0.5624
  286MOL0     H38574   6.857   5.506   2.700  0.5125 -0.5304 -0.9229
  286MOL0     H38575   6.656   5.358   2.702  4.0809  0.5282 -2.5507
  286MOL0     H38576   6.292   5.570   2.547 -1.5934  0.1468  1.8504
  286MOL0     H38577   6.414   5.442   2.478  0.3709 -0.3510  0.8309
  286MOL0     H38578   6.188   5.385   2.440  2.2612 -0.0328  0.2603
  286MOL0     H38579   6.289   5.264   2.505 -0.3593 -1.0922 -1.7452
  286MOL0     H38580   6.103   5.428   2.693  0.2749  0.2533  0.7459
  286MOL0     H38581   6.200   5.283   2.727  1.6022  0.4791 -0.3095
  286MOL0     H38582   5.970   5.303   2.527 -1.1092 -1.2813 -0.1038
  286MOL0     H38583   6.063   5.158   2.557  0.0403  0.2138  0.9342
  286MOL0     H38584   5.896   5.279   2.775  0.0921 -1.1843  1.4472
  286MOL0     H38585   6.018   5.147   2.789 -0.6281  0.4458 -0.0108
  286MOL0     H38586   5.879   5.008   2.646 -1.3115 -0.0139 -0.4877
  286MOL0     H38587   5.806   5.054   2.794  1.3704 -0.3948  0.6622
  286MOL0     H38588   5.659   5.047   2.619 -0.0910  0.1639 -1.3484
  286MOL0     H38589   5.747   5.170   2.515  1.7742  1.0779  0.5680
  286MOL0     H38590   5.568   5.283   2.614 -1.9769 -1.7740 -0.4587
  286MOL0     H38591   5.710   5.327   2.706  0.4227 -0.8847  0.7350
  286MOL0     H38592   6.423   5.723   2.660  0.2045  0.7559  1.0859
  286MOL0     H38593   6.635   5.866   2.679  1.8197  0.3278 -2.6406
  286MOL0     H38594   7.132   5.788   2.776 -0.1281 -0.5513 -2.7567
  286MOL0     H38595   7.294   5.953   2.858 -1.4143 -0.9913  0.5923
  286MOL0     H38596   8.820   6.807   3.137  0.7064 -0.3246  2.7004
  286MOL0     H38597   8.975   6.885   3.295 -1.3663  1.1346 -0.8671
  286MOL0     H38598   9.463   7.075   3.256  1.6269 -0.1039 -0.0518
  286MOL0     H38599   9.655   7.156   3.362 -2.0230  2.3877 -3.5174
  286MOL0     H38600   9.826   7.087   3.512  0.3957  0.6133  0.2561
  286MOL0     H38601   9.792   7.258   3.497 -1.8485  0.7863  0.8767
  286MOL0     H38602   9.864   7.296   3.736 -0.9908  1.2340 -2.0592
  286MOL0     H38603   9.988   7.290   3.615 -0.9208 -0.7719 -0.5370
  286MOL0     H38604  10.064   7.076   3.656  2.5768  0.5609  0.6005
  286MOL0     H38605   9.936   7.044   3.781  1.8601 -0.6309  2.9150
  286MOL0     H38606  10.056   7.209   3.919 -0.5402  1.1422  0.1329
  286MOL0     H38607  10.166   7.246   3.782 -2.8297  1.1171  0.2020
  286MOL0     H38608  10.334   6.903   3.961 -0.7649 -0.0948  0.0305
  286MOL0     H38609   9.453   7.167   3.750  2.2221 -1.9396 -0.0475
  286MOL0     H38610   9.241   7.122   3.637 -0.4985 -3.5889  0.4498
  287MOL0     O38611   9.387   3.315   5.468 -0.1636  0.1549 -0.1219
  287MOL0     C38612   9.505   3.276   5.487 -0.0570  0.6998 -0.8523
  287MOL0     O38613   9.566   3.249   5.612 -0.3989  0.3089  0.3109
  287MOL0     C38614   9.488   3.211   5.715 -0.1170  0.4707  0.2573
  287MOL0     C38615   9.391   3.302   5.770  0.9853 -0.4228 -0.9177
  287MOL0     C38616   9.312   3.263   5.880  0.2092  0.8030  0.4407
  287MOL0     C38617   9.318   3.133   5.931  0.0647  0.0152  0.4861
  287MOL0     O38618   9.232   3.106   6.035  0.0590  0.3039  0.7324
  287MOL0     C38619   9.202   2.966   6.063  0.8013 -0.0420  0.1349
  287MOL0     C38620   9.132   2.951   6.200 -0.1831  0.7749  0.1210
  287MOL0     C38621   8.984   2.987   6.173 -0.4168  0.5745  0.5399
  287MOL0     C38622   8.910   2.945   6.299  0.4020  0.2206  0.1869
  287MOL0     C38623   8.762   3.003   6.320 -0.1350 -0.5386  0.6284
  287MOL0     C38624   8.657   2.984   6.201 -0.1125  0.4401 -0.1844
  287MOL0     C38625   8.525   2.918   6.240 -0.3256  0.9676  0.3337
  287MOL0     C38626   8.455   2.999   6.352 -0.8490 -0.3673  0.1900
  287MOL0     N38627   8.313   2.976   6.347  0.3591  0.9274  0.2497
  287MOL0     C38628   8.218   3.073   6.310  0.5176  1.1786 -0.0308
  287MOL0     C38629   8.099   3.006   6.301 -0.3051  0.5771 -0.4371
  287MOL0     C38630   7.978   3.067   6.241 -0.5099  0.1580  0.7152
  287MOL0     C38631   7.887   3.132   6.338 -0.0307 -0.2447 -0.0200
  287MOL0     C38632   7.804   3.251   6.278  0.7970 -0.4750 -0.3397
  287MOL0     C38633   7.750   3.324   6.408  0.4599 -0.3779 -0.1229
  287MOL0     O38634   7.679   3.445   6.370 -0.4973  0.2595 -0.4718
  287MOL0     C38635   7.540   3.449   6.343  0.0160  0.4034  0.0408
  287MOL0     C38636   7.488   3.574   6.323 -0.1767 -0.1324  0.3385
  287MOL0     C38637   7.351   3.596   6.302 -0.9986 -0.0474  0.9225
  287MOL0     C38638   7.308   3.739   6.272  0.7727  0.7245 -0.0741
  287MOL0     C38639   7.260   3.487   6.320 -0.3521 -0.4244  0.4316
  287MOL0     C38640   7.112   3.505   6.333  0.0809  0.8429 -0.8879
  287MOL0     O38641   7.038   3.387   6.342 -0.0097 -0.3283  0.8473
  287MOL0     C38642   6.900   3.390   6.351 -0.2513  0.0421  0.1238
  287MOL0     C38643   6.824   3.468   6.270 -0.9390  0.2728  0.5992
  287MOL0     C38644   6.687   3.466   6.282  1.0968  0.8780  0.0723
  287MOL0     C38645   6.630   3.403   6.389 -1.1157  0.0327 -0.1768
  287MOL0     O38646   6.501   3.438   6.405 -0.3831  0.4633  0.0667
  287MOL0     C38647   6.420   3.334   6.459 -0.4838 -0.1849  0.4199
  287MOL0     C38648   6.277   3.373   6.446  0.2133 -0.4083  0.1137
  287MOL0     C38649   6.183   3.268   6.512  0.4974 -0.7368  0.4795
  287MOL0     C38650   6.037   3.314   6.492  0.1486 -0.0417  0.1050
  287MOL0     C38651   5.933   3.218   6.531  0.2686  0.2353  0.6729
  287MOL0     C38652   5.792   3.279   6.555 -0.0293 -0.2518 -0.5246
  287MOL0     C38653   5.701   3.159   6.606  0.0371 -0.3214 -0.6985
  287MOL0     C38654   5.557   3.217   6.625  0.3767 -0.3274 -0.4031
  287MOL0    Cl38655   5.481   3.219   6.464 -0.6120 -0.3280 -0.5793
  287MOL0     C38656   6.707   3.320   6.477 -0.3769 -0.3578 -0.2393
  287MOL0     C38657   6.840   3.312   6.449 -0.1598 -0.6044  0.1820
  287MOL0     O38658   7.069   3.620   6.345  0.3086 -0.0779  0.0960
  287MOL0     C38659   7.315   3.360   6.343  1.0717 -0.0627 -0.1414
  287MOL0     C38660   7.451   3.338   6.353  0.6598  0.4231 -0.0880
  287MOL0     N38661   8.124   2.873   6.335  0.7550 -0.6506  0.5872
  287MOL0     N38662   8.252   2.855   6.375  0.6743 -0.6668  0.2753
  287MOL0     C38663   9.418   3.049   5.875  0.2012 -0.0618 -0.7943
  287MOL0     C38664   9.494   3.081   5.770 -0.0672  0.0383  0.4067
  287MOL0     C38665   9.597   3.273   5.368  0.5026  0.7637  0.1976
  287MOL0     C38666   9.737   3.246   5.387  0.3959  0.2005  0.0291
  287MOL0     C38667   9.820   3.240   5.267 -0.4270 -0.0785  0.4356
  287MOL0     C38668   9.762   3.250   5.136  0.1263  0.1931 -0.0360
  287MOL0     O38669   9.848   3.227   5.035 -0.7524  0.4527  0.4352
  287MOL0     C38670   9.799   3.208   4.900 -0.1451 -0.2983 -0.0229
  287MOL0     C38671   9.749   3.066   4.876  0.2249  0.2584  0.1255
  287MOL0     C38672   9.709   3.023   4.739 -0.1200 -0.0631  0.1104
  287MOL0     C38673   9.586   3.104   4.688  0.1149  0.3032  0.0209
  287MOL0     C38674   9.548   3.053   4.556 -1.0031 -0.2172 -0.7413
  287MOL0     C38675   9.517   2.996   4.451  0.2303  0.2285 -0.5408
  287MOL0     C38676   9.628   3.297   5.129  0.0260 -0.8948 -0.0640
  287MOL0     C38677   9.551   3.299   5.241 -0.0095 -0.0109 -0.4504
  287MOL0     H38678   9.378   3.402   5.730 -0.9518 -1.4983 -3.2315
  287MOL0     H38679   9.256   3.341   5.929 -2.3457 -0.9500  0.5158
  287MOL0     H38680   9.147   2.913   5.985 -2.9854  0.8413  1.9503
  287MOL0     H38681   9.295   2.910   6.079  1.5013  1.1167  0.1855
  287MOL0     H38682   9.132   2.845   6.226  1.0894  0.8658  0.5285
  287MOL0     H38683   9.178   3.000   6.286  1.8048 -2.0402  0.7797
  287MOL0     H38684   8.974   3.095   6.155 -2.1365  0.3817  0.1659
  287MOL0     H38685   8.944   2.933   6.087  0.7360  3.4955 -2.0143
  287MOL0     H38686   8.897   2.836   6.306  1.1020  0.0281 -1.2291
  287MOL0     H38687   8.963   2.986   6.386 -1.5886 -3.2590  3.3686
  287MOL0     H38688   8.717   2.965   6.412  2.2724 -1.0410  1.6804
  287MOL0     H38689   8.770   3.110   6.339  1.6679 -0.2285 -1.4483
  287MOL0     H38690   8.642   3.088   6.170 -0.4309  0.9382  1.5111
  287MOL0     H38691   8.702   2.926   6.120  0.6315  0.9932 -0.1868
  287MOL0     H38692   8.464   2.911   6.149 -4.0921  1.6555  2.5787
  287MOL0     H38693   8.541   2.812   6.265 -1.1687  0.0443 -2.5630
  287MOL0     H38694   8.486   3.103   6.338  0.7118 -0.8916 -0.6016
  287MOL0     H38695   8.498   2.964   6.447  1.2600 -0.3395 -0.6908
  287MOL0     H38696   8.243   3.175   6.286  1.0132  1.4301  1.4617
  287MOL0     H38697   8.023   3.132   6.165  2.6748 -2.5635  0.0439
  287MOL0     H38698   7.927   2.978   6.204  0.1800 -0.6615  1.6708
  287MOL0     H38699   7.952   3.166   6.420  1.1092 -1.8631 -0.2160
  287MOL0     H38700   7.816   3.062   6.384 -0.5111  0.1170 -0.1921
  287MOL0     H38701   7.720   3.222   6.214 -1.9968  1.7733  2.0321
  287MOL0     H38702   7.862   3.325   6.223  0.7876  0.0178  0.3047
  287MOL0     H38703   7.831   3.354   6.475  0.5172  2.2197 -1.2793
  287MOL0     H38704   7.677   3.259   6.458 -0.9696  1.8925  0.8595
  287MOL0     H38705   7.564   3.651   6.313 -0.4968 -0.1084 -2.6655
  287MOL0     H38706   7.270   3.783   6.364  3.0177 -1.2984  1.9472
  287MOL0     H38707   7.388   3.806   6.239  3.0709 -2.2066 -0.8838
  287MOL0     H38708   7.225   3.731   6.201 -1.7706  1.9326  2.5561
  287MOL0     H38709   6.873   3.523   6.190 -2.1492 -0.5829 -0.7860
  287MOL0     H38710   6.613   3.517   6.220 -2.6604 -3.0686  0.8684
  287MOL0     H38711   6.430   3.238   6.407  0.4373  0.5577 -0.8163
  287MOL0     H38712   6.434   3.326   6.567 -2.0968 -1.3897  0.5840
  287MOL0     H38713   6.255   3.468   6.497  1.9682 -0.0092  0.1673
  287MOL0     H38714   6.251   3.389   6.341  0.5725 -1.8057 -0.2013
  287MOL0     H38715   6.205   3.263   6.619  0.7984  0.5605  0.4834
  287MOL0     H38716   6.201   3.165   6.479  1.2986 -1.0606  1.8513
  287MOL0     H38717   6.042   3.394   6.566  0.2918  0.0529 -0.0075
  287MOL0     H38718   6.017   3.351   6.391  1.0985  0.3609  0.0539
  287MOL0     H38719   5.958   3.174   6.628 -2.8866 -2.3996  0.4693
  287MOL0     H38720   5.936   3.136   6.458 -2.2715  1.5441 -1.0458
  287MOL0     H38721   5.817   3.355   6.630 -1.0850 -0.3366 -0.0687
  287MOL0     H38722   5.755   3.340   6.472  1.6748  0.9742 -0.4398
  287MOL0     H38723   5.732   3.110   6.699 -1.9111 -1.4544 -0.6003
  287MOL0     H38724   5.700   3.076   6.534 -2.0888  1.0727 -2.4031
  287MOL0     H38725   5.541   3.311   6.679 -0.3211 -0.9235  0.4638
  287MOL0     H38726   5.502   3.155   6.697 -1.4645  2.7554  1.1014
  287MOL0     H38727   6.666   3.257   6.556 -2.0927  1.9955  0.8670
  287MOL0     H38728   6.901   3.247   6.511 -0.2480 -1.2225 -0.3733
  287MOL0     H38729   7.250   3.274   6.358  1.7698 -0.5822 -0.0257
  287MOL0     H38730   7.490   3.238   6.367 -0.3120  0.0314 -0.1079
  287MOL0     H38731   9.422   2.948   5.914 -1.5693  0.7046  1.6029
  287MOL0     H38732   9.564   3.009   5.729  0.4387  1.1048 -0.6783
  287MOL0     H38733   9.783   3.230   5.484 -0.1486 -0.3853  0.2062
  287MOL0     H38734   9.922   3.205   5.279 -0.4786 -0.2572  0.3531
  287MOL0     H38735   9.721   3.282   4.878 -0.3611 -0.1234  1.2891
  287MOL0     H38736   9.886   3.224   4.836 -0.6097  0.6452 -0.4373
  287MOL0     H38737   9.669   3.037   4.945 -1.1786  1.7261 -0.8221
  287MOL0     H38738   9.832   2.999   4.899 -2.0247 -2.2250  1.6950
  287MOL0     H38739   9.681   2.917   4.732  1.7501 -0.4910 -2.1225
  287MOL0     H38740   9.793   3.033   4.670 -0.0161 -0.7613  0.1307
  287MOL0     H38741   9.618   3.208   4.687 -1.3844  0.7915 -1.3260
  287MOL0     H38742   9.507   3.101   4.764 -0.7425  2.6758 -0.6839
  287MOL0     H38743   9.484   2.960   4.356 -0.0147 -0.1780 -0.3071
  287MOL0     H38744   9.585   3.323   5.033 -0.5285  1.7877  0.8354
  287MOL0     H38745   9.454   3.346   5.229  0.7507  1.3678 -1.5119
  288MOL0     O38746   3.555   2.714   8.164 -0.7522  0.9995  0.7314
  288MOL0     C38747   3.601   2.598   8.191 -0.4622 -0.0273  0.8018
  288MOL0     O38748   3.535   2.491   8.237 -0.5628 -0.2184 -0.4257
  288MOL0     C38749   3.395   2.494   8.234 -0.0898 -1.8856 -0.2344
  288MOL0     C38750   3.325   2.508   8.116 -0.6932 -0.8475 -0.1030
  288MOL0     C38751   3.187   2.499   8.115  1.1704  0.8691 -0.5388
  288MOL0     C38752   3.113   2.483   8.234 -0.3177 -0.6585 -0.2201
  288MOL0     O38753   2.980   2.468   8.235 -0.3767  0.2938  0.0309
  288MOL0     C38754   2.900   2.541   8.139  0.1088  0.1512  0.2919
  288MOL0     C38755   2.753   2.562   8.181  0.3953 -0.5105 -0.1330
  288MOL0     C38756   2.741   2.625   8.319 -0.0922 -0.6110 -0.1674
  288MOL0     C38757   2.601   2.655   8.367 -0.9385 -0.6489 -0.1036
  288MOL0     C38758   2.512   2.537   8.402  0.4686 -1.6881  1.1481
  288MOL0     C38759   2.383   2.574   8.474 -0.0959 -0.2687 -0.5608
  288MOL0     C38760   2.338   2.454   8.560  0.0803  1.0356  0.3171
  288MOL0     C38761   2.189   2.469   8.596  0.5316 -0.4293 -0.5591
  288MOL0     N38762   2.156   2.554   8.705 -0.3526  0.0630  0.5177
  288MOL0     C38763   2.220   2.551   8.827  0.3388  0.2642 -0.3042
  288MOL0     C38764   2.197   2.670   8.879  0.4824  0.2966 -0.5906
  288MOL0     C38765   2.261   2.729   9.008 -0.0256  0.2812 -0.3067
  288MOL0     C38766   2.371   2.830   8.978 -0.4904  0.1302 -0.3290
  288MOL0     C38767   2.452   2.868   9.097  0.3050 -0.1959  0.3424
  288MOL0     C38768   2.388   2.981   9.175  0.5448 -0.1105  0.1810
  288MOL0     O38769   2.276   2.933   9.250  0.0568 -0.5581 -0.0815
  288MOL0     C38770   2.199   3.022   9.320 -0.5110 -0.5096 -0.3069
  288MOL0     C38771   2.231   3.162   9.345 -0.2842 -0.2868 -0.3430
  288MOL0     C38772   2.138   3.244   9.409 -0.0409  0.3273  0.2229
  288MOL0     C38773   2.177   3.394   9.421 -0.9624  0.5078 -0.1243
  288MOL0     C38774   2.022   3.196   9.460  0.4109 -0.2041 -1.2319
  288MOL0     C38775   1.908   3.273   9.520  0.5418 -0.0317  0.3407
  288MOL0     O38776   1.825   3.194   9.592 -0.6243 -0.1224 -0.1055
  288MOL0     C38777   1.736   3.247   9.669 -0.6255 -1.1172 -0.8232
  288MOL0     C38778   1.608   3.284   9.625 -0.2906 -1.0351  0.4060
  288MOL0     C38779   1.505   3.317   9.714  0.6963 -0.6907  0.9173
  288MOL0     C38780   1.529   3.334   9.844 -0.0315  0.5588 -0.8101
  288MOL0     O38781   1.430   3.373   9.930  1.0216  0.3753 -0.2388
  288MOL0     C38782   1.462   3.443  10.055  0.4445  0.7845 -0.1864
  288MOL0     C38783   1.336   3.503  10.110  1.2843 -0.0168  0.1161
  288MOL0     C38784   1.224   3.564  10.006  0.0911 -0.0705 -0.2712
  288MOL0     C38785   1.089   3.581  10.085 -0.1761 -0.2775 -0.7742
  288MOL0     C38786   1.082   3.709  10.169  0.5099  0.2998 -0.8512
  288MOL0     C38787   0.960   3.720  10.261 -0.7501 -0.1193  1.3934
  288MOL0     C38788   0.953   3.841  10.349 -0.5045  0.8068 -0.4214
  288MOL0     C38789   1.029   3.816  10.485  0.7244  0.0124  0.7645
  288MOL0    Cl38790   0.960   3.677  10.577  0.3255  0.2327  0.1087
  288MOL0     C38791   1.658   3.291   9.892 -0.4648 -0.0217 -0.1245
  288MOL0     C38792   1.765   3.254   9.805  0.4964 -0.0630 -0.7617
  288MOL0     O38793   1.891   3.390   9.497 -0.0115 -0.0709  0.2553
  288MOL0     C38794   2.004   3.056   9.441 -0.2432  0.3708 -0.0453
  288MOL0     C38795   2.088   2.969   9.367 -0.0022 -0.4165  0.7543
  288MOL0     N38796   2.135   2.750   8.790 -0.4431 -0.1069 -0.5469
  288MOL0     N38797   2.100   2.677   8.692 -0.1640 -0.1527  0.9494
  288MOL0     C38798   3.184   2.478   8.353 -0.9248 -0.7554 -0.0775
  288MOL0     C38799   3.326   2.482   8.355 -0.4320 -0.1648  0.6362
  288MOL0     C38800   3.750   2.587   8.184 -0.1552  0.7726  0.6456
  288MOL0     C38801   3.820   2.702   8.155 -0.3167 -0.5946 -0.8201
  288MOL0     C38802   3.963   2.699   8.157  0.2102 -0.2621 -0.9618
  288MOL0     C38803   4.025   2.573   8.184 -0.3981 -0.1039  0.0207
  288MOL0     O38804   4.162   2.549   8.197 -0.4889  0.3512 -0.2750
  288MOL0     C38805   4.250   2.667   8.199  0.3395 -0.2026  0.0132
  288MOL0     C38806   4.395   2.623   8.229 -0.1317 -0.4226  0.5081
  288MOL0     C38807   4.488   2.750   8.211 -0.3360 -0.3434  0.5781
  288MOL0     C38808   4.640   2.724   8.238  0.1730 -0.6082  1.5891
  288MOL0     C38809   4.715   2.848   8.242  0.1289  0.2320 -0.3910
  288MOL0     C38810   4.774   2.956   8.222  0.0467 -0.3260  0.3979
  288MOL0     C38811   3.942   2.456   8.199  0.2952 -0.6066 -0.5365
  288MOL0     C38812   3.810   2.467   8.199 -0.1661 -0.3277  0.5673
  288MOL0     H38813   3.371   2.520   8.018 -1.5024 -3.4756 -0.9096
  288MOL0     H38814   3.145   2.513   8.016 -1.4799  0.3187  0.4432
  288MOL0     H38815   2.947   2.638   8.120  0.1323  0.7491  3.0052
  288MOL0     H38816   2.902   2.478   8.050  0.4304  1.5983 -0.7507
  288MOL0     H38817   2.703   2.626   8.108 -0.8673 -0.5714  0.6378
  288MOL0     H38818   2.694   2.470   8.183 -0.2950 -0.0753  2.0773
  288MOL0     H38819   2.795   2.561   8.390 -0.8220  0.1405  1.1013
  288MOL0     H38820   2.802   2.716   8.321 -0.0340 -0.6575  0.4136
  288MOL0     H38821   2.611   2.701   8.466 -1.4740 -0.1086 -0.2898
  288MOL0     H38822   2.541   2.716   8.298  0.4418  0.7317 -0.1377
  288MOL0     H38823   2.492   2.481   8.310 -0.3642 -1.6712  1.3065
  288MOL0     H38824   2.565   2.468   8.469 -0.0188 -0.6858  2.6320
  288MOL0     H38825   2.398   2.659   8.541 -2.3413 -0.0771 -0.2384
  288MOL0     H38826   2.306   2.595   8.399  0.8913  0.0128 -1.5209
  288MOL0     H38827   2.357   2.357   8.512 -0.6400  1.5133 -0.9840
  288MOL0     H38828   2.381   2.450   8.660 -1.4522 -3.8269  1.0442
  288MOL0     H38829   2.174   2.368   8.636 -0.5254 -0.3598 -0.7534
  288MOL0     H38830   2.118   2.472   8.513 -0.2874 -1.6662  0.0658
  288MOL0     H38831   2.273   2.468   8.872 -0.4960 -1.6642 -2.6342
  288MOL0     H38832   2.179   2.773   9.065 -1.5786 -0.9126 -1.5361
  288MOL0     H38833   2.308   2.648   9.064  0.8298  2.4920  2.3947
  288MOL0     H38834   2.323   2.910   8.921 -0.5117 -2.6186 -4.6857
  288MOL0     H38835   2.436   2.784   8.902  2.2792  2.8778  0.1641
  288MOL0     H38836   2.545   2.915   9.062  1.1767  0.7476  3.5366
  288MOL0     H38837   2.487   2.782   9.155  1.1893 -0.3751 -0.4322
  288MOL0     H38838   2.361   3.052   9.097 -0.8617 -0.3188  0.4639
  288MOL0     H38839   2.459   3.023   9.248  0.5918 -0.0550  0.1035
  288MOL0     H38840   2.331   3.196   9.318  1.4007 -3.8345  0.8406
  288MOL0     H38841   2.177   3.420   9.527 -1.3535 -1.4069  0.3964
  288MOL0     H38842   2.279   3.412   9.386 -0.2919  0.2793  1.6333
  288MOL0     H38843   2.103   3.464   9.381  0.4450  2.3597  0.3709
  288MOL0     H38844   1.588   3.291   9.519  0.0583  0.3698  0.4169
  288MOL0     H38845   1.407   3.351   9.682  1.3593 -1.3325 -2.0094
  288MOL0     H38846   1.503   3.373  10.128 -0.1628  1.2889  0.6621
  288MOL0     H38847   1.540   3.517  10.034  2.2956 -0.8986  0.4693
  288MOL0     H38848   1.274   3.439  10.173 -1.4087  2.7945  0.5505
  288MOL0     H38849   1.370   3.584  10.175  0.3551  1.5124 -1.2466
  288MOL0     H38850   1.211   3.504   9.916  2.4201  0.3306 -0.9306
  288MOL0     H38851   1.259   3.664   9.979  1.3767 -1.0372 -2.4480
  288MOL0     H38852   1.017   3.588  10.004  0.3428 -0.3886 -1.2553
  288MOL0     H38853   1.066   3.483  10.127 -2.3644  0.5465  0.0839
  288MOL0     H38854   1.094   3.801  10.111  2.4797  0.9710  0.4914
  288MOL0     H38855   1.160   3.703  10.246 -0.6830 -4.2950  0.3262
  288MOL0     H38856   0.873   3.726  10.195  0.6328  0.0970 -0.4950
  288MOL0     H38857   0.960   3.629  10.322  0.7382 -0.4875  0.9023
  288MOL0     H38858   0.848   3.862  10.371 -0.3329  1.6920 -0.3896
  288MOL0     H38859   0.981   3.929  10.291 -1.3511  0.2361 -1.7425
  288MOL0     H38860   0.996   3.902  10.545  2.1169  2.4272 -1.7046
  288MOL0     H38861   1.136   3.806  10.468  0.3060 -2.8367 -0.7946
  288MOL0     H38862   1.676   3.321   9.995 -0.2502 -0.6808  0.0398
  288MOL0     H38863   1.866   3.237   9.842  0.0009 -0.0660  0.6503
  288MOL0     H38864   1.915   3.004   9.476 -0.5720 -1.9806 -3.7511
  288MOL0     H38865   2.074   2.862   9.362  6.6452 -1.7556  0.7906
  288MOL0     H38866   3.129   2.470   8.446  1.4486  1.4526  1.7059
  288MOL0     H38867   3.376   2.475   8.451  1.0866  0.1053 -0.1027
  288MOL0     H38868   3.770   2.798   8.153  1.0919  0.2891  1.6467
  288MOL0     H38869   4.010   2.797   8.151  0.1525  0.0839  2.3222
  288MOL0     H38870   4.247   2.723   8.105 -2.1084 -1.2244 -0.5863
  288MOL0     H38871   4.218   2.734   8.279 -0.0781 -0.8529  0.3932
  288MOL0     H38872   4.433   2.549   8.158  1.3277  1.0537 -0.3167
  288MOL0     H38873   4.401   2.569   8.324  0.1079  0.2164  0.8594
  288MOL0     H38874   4.458   2.836   8.271  0.4773  1.7226 -1.7999
  288MOL0     H38875   4.479   2.778   8.105  0.4869  0.2592  0.6550
  288MOL0     H38876   4.679   2.666   8.154 -0.7269  0.4159  0.4145
  288MOL0     H38877   4.654   2.666   8.330  0.5503 -2.2632  0.5363
  288MOL0     H38878   4.818   3.051   8.201 -1.3407  0.1482 -0.5065
  288MOL0     H38879   3.988   2.359   8.215  0.1729 -0.4735  0.6733
  288MOL0     H38880   3.749   2.379   8.216 -2.5908  1.4530  1.5918
  289MOL0     O38881   8.615   5.628   7.097  0.4360 -0.0419  0.4368
  289MOL0     C38882   8.613   5.552   7.188  0.7441 -0.1155 -0.2331
  289MOL0     O38883   8.510   5.474   7.220  0.2673  0.0888 -0.0984
  289MOL0     C38884   8.392   5.496   7.150  0.6490 -0.3845  0.1820
  289MOL0     C38885   8.316   5.609   7.161 -0.4676 -0.3330  0.0192
  289MOL0     C38886   8.215   5.626   7.073  0.7622  0.3139 -0.2314
  289MOL0     C38887   8.162   5.519   6.995  0.1412 -0.2844  1.1293
  289MOL0     O38888   8.056   5.528   6.905  0.1573  0.5417  1.2435
  289MOL0     C38889   7.959   5.631   6.926  0.2597 -0.2008 -0.2421
  289MOL0     C38890   7.856   5.617   6.817  0.0288 -0.3221 -0.5543
  289MOL0     C38891   7.753   5.732   6.825  0.7118 -0.2885  0.5880
  289MOL0     C38892   7.607   5.704   6.795 -0.2157 -0.2653  0.0171
  289MOL0     C38893   7.524   5.831   6.788 -0.1741 -0.3383 -0.1784
  289MOL0     C38894   7.485   5.906   6.926 -0.0998  0.1723  1.4407
  289MOL0     C38895   7.380   6.016   6.899 -0.2533  0.3208  0.2972
  289MOL0     C38896   7.244   5.968   6.846  0.6527 -0.1202 -0.4276
  289MOL0     N38897   7.130   6.057   6.858 -0.0931 -0.1247 -0.0704
  289MOL0     C38898   6.995   6.021   6.855 -0.0326  0.2058 -0.7549
  289MOL0     C38899   6.933   6.146   6.849  0.1504  0.0124 -0.4141
  289MOL0     C38900   6.779   6.178   6.828  0.1814  0.2215 -0.2987
  289MOL0     C38901   6.744   6.208   6.686  1.1119 -0.1400  1.0206
  289MOL0     C38902   6.597   6.255   6.687  0.2138 -0.1563  0.6362
  289MOL0     C38903   6.486   6.146   6.692  0.2191  0.5658 -0.5588
  289MOL0     O38904   6.455   6.104   6.832  0.1270  0.0030 -0.9957
  289MOL0     C38905   6.336   6.052   6.844 -0.1732  0.0301 -1.1726
  289MOL0     C38906   6.278   5.959   6.753  0.2588 -0.2141  0.4556
  289MOL0     C38907   6.144   5.922   6.766 -0.1630  1.1027 -1.0101
  289MOL0     C38908   6.097   5.824   6.667 -0.0812 -0.9497 -0.3197
  289MOL0     C38909   6.065   5.970   6.879  0.3473  0.1595 -0.2169
  289MOL0     C38910   5.923   5.938   6.898  0.7189 -0.3946 -0.1487
  289MOL0     O38911   5.867   6.019   6.977  1.3408 -0.0739 -0.0493
  289MOL0     C38912   5.734   5.996   7.000 -0.7071 -0.0426 -0.5777
  289MOL0     C38913   5.690   5.930   7.111 -0.5132  0.4245  0.0440
  289MOL0     C38914   5.552   5.914   7.133 -0.5297 -0.0278 -0.1851
  289MOL0     C38915   5.457   5.958   7.044  0.2660  0.2103  0.8747
  289MOL0     O38916   5.315   5.952   7.050 -0.8577  0.0125 -0.0513
  289MOL0     C38917   5.263   5.893   7.170 -0.2748  0.2277  0.5258
  289MOL0     C38918   5.120   5.938   7.178  0.4471 -0.8071  0.4030
  289MOL0     C38919   5.052   5.925   7.306 -0.3628 -0.5121  0.3355
  289MOL0     C38920   5.008   5.778   7.328  0.5311  0.0879  0.3206
  289MOL0     C38921   4.918   5.762   7.452  0.6358 -0.0967 -0.3022
  289MOL0     C38922   4.785   5.836   7.475 -0.6347 -0.1051 -0.4948
  289MOL0     C38923   4.694   5.835   7.357  0.5661 -1.3609 -0.2422
  289MOL0     C38924   4.588   5.948   7.379 -0.0606 -0.2357 -0.1356
  289MOL0    Cl38925   4.647   6.110   7.333  0.1408  0.2138 -0.2159
  289MOL0     C38926   5.507   6.025   6.929  0.3944 -0.0072 -0.2538
  289MOL0     C38927   5.641   6.047   6.911  0.2773 -0.0676  0.8919
  289MOL0     O38928   5.876   5.833   6.856  0.0954 -0.7839  0.5917
  289MOL0     C38929   6.133   6.066   6.966 -0.0770  0.4793  0.6087
  289MOL0     C38930   6.261   6.104   6.950  0.9357 -0.1297 -0.7541
  289MOL0     N38931   7.024   6.242   6.858  0.1316  0.5196 -0.2085
  289MOL0     N38932   7.136   6.192   6.861 -0.8447 -0.1490  0.1224
  289MOL0     C38933   8.227   5.396   7.005 -0.6282 -0.5417  0.3101
  289MOL0     C38934   8.340   5.388   7.079 -0.3143  0.3028 -0.1001
  289MOL0     C38935   8.738   5.539   7.273  0.4795  0.0244 -0.3721
  289MOL0     C38936   8.727   5.501   7.408  0.1085 -0.1816  0.0028
  289MOL0     C38937   8.842   5.478   7.478 -0.6911  0.5669  0.2719
  289MOL0     C38938   8.964   5.483   7.417  0.3632 -0.9261  0.2686
  289MOL0     O38939   9.084   5.474   7.488 -1.3008  0.7423  0.7681
  289MOL0     C38940   9.103   5.402   7.610  1.0546  0.0679 -0.8771
  289MOL0     C38941   9.237   5.448   7.658 -1.0027 -0.0045 -0.4273
  289MOL0     C38942   9.293   5.342   7.755 -0.2095  0.3333  0.5340
  289MOL0     C38943   9.447   5.348   7.760 -0.2122 -0.1967  0.1510
  289MOL0     C38944   9.521   5.270   7.656  0.6317  0.0904  0.2644
  289MOL0     C38945   9.577   5.224   7.560 -0.5890 -0.6536 -0.6301
  289MOL0     C38946   8.976   5.518   7.285  0.0713 -0.0445 -0.8956
  289MOL0     C38947   8.863   5.549   7.209 -0.7883 -0.6808 -0.7103
  289MOL0     H38948   8.348   5.686   7.230 -0.0994 -1.7122  1.4463
  289MOL0     H38949   8.168   5.724   7.074  1.3433  0.7016  3.6796
  289MOL0     H38950   7.930   5.621   7.031 -0.2684 -0.0473 -0.3717
  289MOL0     H38951   8.003   5.731   6.923 -0.1095  0.0317  1.3390
  289MOL0     H38952   7.898   5.604   6.717  1.5705 -1.3196  0.1646
  289MOL0     H38953   7.804   5.527   6.851  1.2849 -0.4801  1.0614
  289MOL0     H38954   7.757   5.764   6.930  0.1656  0.4246  0.3939
  289MOL0     H38955   7.794   5.805   6.755  0.4561 -1.2944 -0.6391
  289MOL0     H38956   7.598   5.648   6.701  0.6929 -1.8222  0.8218
  289MOL0     H38957   7.578   5.644   6.882  0.7148 -1.0154 -0.1756
  289MOL0     H38958   7.580   5.901   6.725 -0.0788 -0.8994 -0.7221
  289MOL0     H38959   7.431   5.813   6.735 -0.9402  0.7683  0.7460
  289MOL0     H38960   7.433   5.843   6.998  0.4043  0.0672  1.7194
  289MOL0     H38961   7.567   5.957   6.977  0.4715  0.2251  0.4999
  289MOL0     H38962   7.360   6.069   6.992 -0.4491  0.2600  0.2907
  289MOL0     H38963   7.429   6.088   6.833  0.6188  0.1839  0.7872
  289MOL0     H38964   7.212   5.874   6.891 -1.0988  0.9979  0.7702
  289MOL0     H38965   7.262   5.954   6.739 -0.1388  0.1915 -0.6085
  289MOL0     H38966   6.950   5.923   6.845  0.6637 -0.0244 -1.8190
  289MOL0     H38967   6.715   6.093   6.854 -0.7250  0.7151 -0.8901
  289MOL0     H38968   6.750   6.261   6.892 -4.0152 -0.9396 -0.3988
  289MOL0     H38969   6.760   6.122   6.621  1.3514  2.6114 -2.9853
  289MOL0     H38970   6.813   6.289   6.658 -0.4636  1.0712  0.4200
  289MOL0     H38971   6.567   6.297   6.591 -0.7825  0.1246  1.0567
  289MOL0     H38972   6.588   6.334   6.763  1.4403  1.4226 -0.7896
  289MOL0     H38973   6.519   6.053   6.644  1.5873  1.3189 -1.1376
  289MOL0     H38974   6.395   6.185   6.644 -0.7068 -0.8942 -0.0605
  289MOL0     H38975   6.332   5.918   6.668 -0.6393 -0.7044  0.1168
  289MOL0     H38976   6.067   5.728   6.710 -1.1208 -0.2446  0.5736
  289MOL0     H38977   6.004   5.856   6.620  0.8080  0.2544 -1.3103
  289MOL0     H38978   6.172   5.817   6.588  0.5210  2.6521 -0.2178
  289MOL0     H38979   5.764   5.892   7.180 -1.5810  1.2379  1.7181
  289MOL0     H38980   5.519   5.875   7.229  2.4861  0.5754  1.2071
  289MOL0     H38981   5.272   5.784   7.168  1.6123  0.2658  2.3147
  289MOL0     H38982   5.327   5.926   7.253 -0.3251 -2.8126  1.9178
  289MOL0     H38983   5.120   6.044   7.150 -2.3945 -0.6928  0.5043
  289MOL0     H38984   5.061   5.887   7.101 -1.2643  1.2866  0.2366
  289MOL0     H38985   4.965   5.991   7.295 -0.9249 -0.8468  2.3621
  289MOL0     H38986   5.107   5.959   7.394 -2.6692  0.8866  1.3567
  289MOL0     H38987   4.952   5.748   7.239 -0.5252  3.4138 -0.2405
  289MOL0     H38988   5.097   5.716   7.344  0.9853  1.1214  1.9277
  289MOL0     H38989   4.982   5.783   7.538 -0.4683 -0.6020  0.6704
  289MOL0     H38990   4.890   5.658   7.467  0.1058  0.0746 -0.0749
  289MOL0     H38991   4.741   5.785   7.562  1.0131 -2.4766 -0.9532
  289MOL0     H38992   4.807   5.940   7.501  3.1552 -0.5742 -1.3561
  289MOL0     H38993   4.654   5.733   7.355  1.5422 -1.8142  1.3217
  289MOL0     H38994   4.752   5.847   7.265 -0.5473  3.0062 -0.5891
  289MOL0     H38995   4.554   5.955   7.483 -2.3440  2.7016 -0.9353
  289MOL0     H38996   4.500   5.929   7.316 -1.0219  0.3330  1.0010
  289MOL0     H38997   5.436   6.058   6.854 -0.9686  1.0331  1.3974
  289MOL0     H38998   5.657   6.096   6.816 -6.4997  0.3541 -0.5049
  289MOL0     H38999   6.077   6.113   7.046 -0.0331  1.1419  0.2538
  289MOL0     H39000   6.301   6.186   7.009 -0.9187 -0.3194  0.8774
  289MOL0     H39001   8.193   5.305   6.956  1.6343 -0.7794 -0.9922
  289MOL0     H39002   8.385   5.289   7.086 -0.0619  0.4436  0.3199
  289MOL0     H39003   8.625   5.495   7.446  0.1737  2.1301  0.7056
  289MOL0     H39004   8.844   5.477   7.586 -1.7933 -0.7386  0.3005
  289MOL0     H39005   9.036   5.426   7.693  0.9116 -0.1749 -0.9245
  289MOL0     H39006   9.094   5.296   7.589  1.0688  0.3004 -2.1164
  289MOL0     H39007   9.222   5.540   7.715 -1.0773 -1.9904  3.0759
  289MOL0     H39008   9.314   5.460   7.582 -0.7096  0.5970 -0.0458
  289MOL0     H39009   9.263   5.242   7.725 -2.2785  0.6249  1.4818
  289MOL0     H39010   9.249   5.353   7.854  0.8464  0.6155  0.9916
  289MOL0     H39011   9.478   5.328   7.863 -0.1226  0.2116  0.2048
  289MOL0     H39012   9.479   5.449   7.735  0.5290 -0.7270 -1.0980
  289MOL0     H39013   9.642   5.179   7.488  0.0345  0.7632 -0.9859
  289MOL0     H39014   9.072   5.544   7.243  0.5226 -0.8730 -0.4033
  289MOL0     H39015   8.863   5.568   7.102 -0.1742  1.3980 -0.3957
  290MOL0     O39016   9.649   8.264  10.679  0.4929  0.3213 -0.4156
  290MOL0     C39017   9.751   8.305  10.614 -0.1529  0.0271 -0.3768
  290MOL0     O39018   9.756   8.353  10.485 -0.4915  0.2080 -0.3890
  290MOL0     C39019   9.638   8.368  10.413  0.9327 -0.4816  0.7558
  290MOL0     C39020   9.528   8.433  10.471  0.2165  0.4372 -0.3585
  290MOL0     C39021   9.410   8.431  10.397  0.6948 -0.2941 -0.5739
  290MOL0     C39022   9.394   8.382  10.271 -0.7109  0.6591  0.9600
  290MOL0     O39023   9.286   8.393  10.197 -0.0654 -0.6235 -0.5444
  290MOL0     C39024   9.155   8.413  10.244  0.0531 -0.1453 -0.3237
  290MOL0     C39025   9.056   8.390  10.126  0.5118 -0.1256  0.2473
  290MOL0     C39026   8.920   8.339  10.183  0.1067  0.9241 -0.6396
  290MOL0     C39027   8.809   8.373  10.079  0.1103 -0.5428  0.1527
  290MOL0     C39028   8.740   8.502  10.138 -0.1660  0.5430  0.9288
  290MOL0     C39029   8.613   8.536  10.062  0.0411  0.6620 -0.7688
  290MOL0     C39030   8.639   8.562   9.912  0.0979 -0.9597  0.1336
  290MOL0     C39031   8.521   8.622   9.839 -0.6724  0.6613  0.3252
  290MOL0     N39032   8.438   8.503   9.789 -0.1545 -0.4563  0.7340
  290MOL0     C39033   8.439   8.367   9.816 -0.5338  0.0193 -0.1711
  290MOL0     C39034   8.365   8.304   9.724 -0.8158 -0.0592 -0.0789
  290MOL0     C39035   8.333   8.151   9.719 -0.6003  0.0960 -0.8585
  290MOL0     C39036   8.194   8.124   9.664  0.4087  0.4604 -1.3958
  290MOL0     C39037   8.138   7.980   9.704  0.7299  0.5572 -0.6495
  290MOL0     C39038   8.002   7.962   9.640 -0.5114 -0.4272 -0.1239
  290MOL0     O39039   8.028   7.966   9.498 -0.1419 -0.3281  0.7040
  290MOL0     C39040   7.920   7.968   9.402 -0.5651 -0.1068 -0.1908
  290MOL0     C39041   7.950   8.012   9.275  0.0237  1.0796  0.6508
  290MOL0     C39042   7.860   8.015   9.176 -0.1628  1.3459 -0.2647
  290MOL0     C39043   7.919   8.045   9.042  0.6374 -0.1810 -0.0637
  290MOL0     C39044   7.725   7.973   9.201 -0.3384  0.0613 -1.2669
  290MOL0     C39045   7.614   7.980   9.099  0.2575 -0.3305  0.3933
  290MOL0     O39046   7.511   7.889   9.124  0.1153  0.0848 -0.4824
  290MOL0     C39047   7.400   7.885   9.048  0.0852 -0.5118 -0.5145
  290MOL0     C39048   7.270   7.899   9.108 -0.3361  0.4934  0.6239
  290MOL0     C39049   7.161   7.890   9.026 -0.2386 -0.5836  0.9126
  290MOL0     C39050   7.175   7.867   8.890 -0.1165  0.6620  0.3834
  290MOL0     O39051   7.074   7.853   8.795 -0.2938 -0.8976 -0.0873
  290MOL0     C39052   6.944   7.836   8.844 -0.6644  0.2037 -0.1360
  290MOL0     C39053   6.864   7.793   8.726  0.3650  0.2532  0.4143
  290MOL0     C39054   6.721   7.756   8.744  0.2414  0.2791 -0.8321
  290MOL0     C39055   6.676   7.712   8.612  0.3493  0.1000  0.2174
  290MOL0     C39056   6.530   7.675   8.611 -0.3999 -0.1051 -0.0218
  290MOL0     C39057   6.493   7.601   8.473  0.3748  0.2620  0.1739
  290MOL0     C39058   6.338   7.588   8.457 -0.3273 -0.5268 -0.7212
  290MOL0     C39059   6.285   7.625   8.316  0.5960  0.1695 -1.1115
  290MOL0    Cl39060   6.328   7.800   8.274  0.7461 -0.1026  0.1015
  290MOL0     C39061   7.304   7.852   8.841  0.6766 -0.2888  0.1140
  290MOL0     C39062   7.413   7.859   8.915 -0.5163 -0.0824 -0.2299
  290MOL0     O39063   7.623   8.061   9.006  0.6841  0.1711 -0.5182
  290MOL0     C39064   7.692   7.924   9.332 -0.3963  0.3931 -0.0847
  290MOL0     C39065   7.797   7.925   9.428 -0.1668  0.1206 -0.2550
  290MOL0     N39066   8.300   8.407   9.652 -0.4765 -0.5865 -0.1333
  290MOL0     N39067   8.347   8.525   9.687 -0.2957  0.5463 -0.9568
  290MOL0     C39068   9.503   8.323  10.212 -0.0911 -1.0233 -0.0042
  290MOL0     C39069   9.626   8.315  10.279  0.9297 -0.0250 -0.0558
  290MOL0     C39070   9.878   8.278  10.686 -0.2458  0.4774 -0.0019
  290MOL0     C39071   9.995   8.307  10.611  0.2394 -0.2449 -0.0620
  290MOL0     C39072  10.123   8.264  10.660 -0.6689  0.0713 -0.2745
  290MOL0     C39073  10.131   8.201  10.789  0.5415  0.5653  0.5879
  290MOL0     O39074  10.256   8.174  10.837  0.2546 -0.0157  0.1392
  290MOL0     C39075  10.305   8.267  10.928 -0.0331 -0.5495  0.8535
  290MOL0     C39076  10.458   8.280  10.910  0.3745  0.2209  0.1718
  290MOL0     C39077  10.521   8.141  10.952  0.0940  0.4869 -0.9604
  290MOL0     C39078  10.655   8.124  10.883  0.0495 -0.5146 -0.1383
  290MOL0     C39079  10.646   8.110  10.737  0.3263 -0.5537  0.0978
  290MOL0     C39080  10.627   8.101  10.616  1.0284  0.0918 -0.6267
  290MOL0     C39081  10.013   8.170  10.858 -0.5567  1.1501 -0.1846
  290MOL0     C39082   9.890   8.206  10.811  0.0624 -0.3267 -0.6158
  290MOL0     H39083   9.529   8.470  10.573 -2.2979 -1.0382  0.2721
  290MOL0     H39084   9.322   8.478  10.441 -0.2380 -1.5653 -1.0082
  290MOL0     H39085   9.139   8.340  10.323 -0.3579 -1.0749 -1.2331
  290MOL0     H39086   9.149   8.515  10.284  0.7686 -0.2963  0.1930
  290MOL0     H39087   9.044   8.481  10.067 -0.5706  0.5874  1.5179
  290MOL0     H39088   9.100   8.322  10.053  1.5706  1.3195 -0.5102
  290MOL0     H39089   8.918   8.230  10.178 -0.1925  0.9844 -2.5419
  290MOL0     H39090   8.901   8.384  10.281 -0.7225  1.0475 -0.8517
  290MOL0     H39091   8.839   8.377   9.974  0.4132  0.4627  0.2657
  290MOL0     H39092   8.740   8.288  10.079  0.6475 -0.9790 -0.0035
  290MOL0     H39093   8.710   8.485  10.241  0.4213 -2.1511  0.7212
  290MOL0     H39094   8.810   8.586  10.150 -0.1365  0.7339 -0.3689
  290MOL0     H39095   8.534   8.462  10.079 -0.1587  1.2839  1.3160
  290MOL0     H39096   8.589   8.629  10.114 -0.7853  0.7014 -1.1908
  290MOL0     H39097   8.716   8.640   9.917  2.2036 -2.7297 -2.1736
  290MOL0     H39098   8.695   8.487   9.856  0.4467  0.2685 -1.2068
  290MOL0     H39099   8.561   8.687   9.761  0.9211  2.0805  2.2195
  290MOL0     H39100   8.464   8.689   9.903  0.0323  1.3201  0.2764
  290MOL0     H39101   8.479   8.322   9.906  1.0293  0.8300 -0.4233
  290MOL0     H39102   8.406   8.095   9.660  0.4260  0.4095  0.0717
  290MOL0     H39103   8.347   8.112   9.820  0.3251  1.0040 -0.6153
  290MOL0     H39104   8.210   8.127   9.555  2.7149  1.8641 -1.0858
  290MOL0     H39105   8.134   8.203   9.711 -0.4894 -0.6210 -0.6884
  290MOL0     H39106   8.131   7.974   9.813 -3.2392 -0.3757 -0.8229
  290MOL0     H39107   8.210   7.904   9.674  1.5195 -1.7026  5.6141
  290MOL0     H39108   7.929   8.038   9.670 -3.1221 -3.3614  1.6114
  290MOL0     H39109   7.969   7.861   9.666  1.8108 -1.0820  0.4667
  290MOL0     H39110   8.052   8.037   9.251  1.2655 -3.8525 -0.1455
  290MOL0     H39111   7.877   8.137   9.000  2.1539  0.3994 -0.3837
  290MOL0     H39112   8.028   8.044   9.048  0.6541  1.9092  1.2471
  290MOL0     H39113   7.894   7.964   8.973 -1.4993  2.0056 -2.0792
  290MOL0     H39114   7.255   7.910   9.215 -0.7483 -0.0549  0.6268
  290MOL0     H39115   7.066   7.892   9.079 -1.1176 -2.4046 -0.4668
  290MOL0     H39116   6.945   7.758   8.921  1.6941  1.0212  0.7739
  290MOL0     H39117   6.895   7.919   8.896  0.7478 -0.1933  1.9569
  290MOL0     H39118   6.855   7.878   8.657  1.3856 -0.2855 -0.4206
  290MOL0     H39119   6.922   7.711   8.682  1.7792  1.7606 -0.6575
  290MOL0     H39120   6.663   7.843   8.775  0.9761  0.5857 -0.2695
  290MOL0     H39121   6.710   7.674   8.815  0.5660 -1.5280 -2.7572
  290MOL0     H39122   6.696   7.783   8.531  0.4405 -0.6661 -0.4420
  290MOL0     H39123   6.730   7.623   8.580  0.7607  0.8838 -1.3925
  290MOL0     H39124   6.472   7.767   8.623  0.5528  0.9770 -2.7061
  290MOL0     H39125   6.514   7.606   8.694 -1.4227 -0.2363 -0.3197
  290MOL0     H39126   6.544   7.641   8.384  1.9970  1.8982  1.7580
  290MOL0     H39127   6.521   7.495   8.481 -2.7204 -0.5022  3.0397
  290MOL0     H39128   6.296   7.655   8.532 -1.6126 -1.0675 -0.9368
  290MOL0     H39129   6.314   7.484   8.482  0.3145  0.2540  4.1878
  290MOL0     H39130   6.177   7.620   8.329  0.8272 -0.2814  1.0283
  290MOL0     H39131   6.320   7.552   8.243  2.2146 -0.8489  0.5850
  290MOL0     H39132   7.310   7.821   8.737 -2.5939  1.2797 -0.6712
  290MOL0     H39133   7.512   7.843   8.875 -0.0074 -0.7556  1.2468
  290MOL0     H39134   7.591   7.894   9.358 -0.4804 -1.9425 -2.6165
  290MOL0     H39135   7.773   7.902   9.532 -0.4950  1.2865 -0.0583
  290MOL0     H39136   9.506   8.288  10.109 -0.3839  2.6207 -1.4226
  290MOL0     H39137   9.709   8.260  10.236  0.1723 -0.4274 -1.0250
  290MOL0     H39138  10.001   8.363  10.519  2.0808  0.4945  0.4631
  290MOL0     H39139  10.211   8.290  10.602 -2.8887  0.9417 -3.5426
  290MOL0     H39140  10.264   8.366  10.906 -0.7353 -0.8824  0.6405
  290MOL0     H39141  10.288   8.241  11.033 -0.6416 -5.4738 -0.1999
  290MOL0     H39142  10.492   8.366  10.969  3.0276  0.2624 -1.2347
  290MOL0     H39143  10.486   8.299  10.806  0.8165 -2.2200 -0.2220
  290MOL0     H39144  10.460   8.054  10.925  0.1607 -0.3633  1.4434
  290MOL0     H39145  10.533   8.136  11.060 -3.2421  0.4685 -0.4715
  290MOL0     H39146  10.716   8.046  10.929  1.8673  0.5894 -0.5629
  290MOL0     H39147  10.703   8.219  10.909 -2.7833  0.7926  0.6754
  290MOL0     H39148  10.601   8.090  10.513 -3.3042 -0.6050  0.3172
  290MOL0     H39149  10.017   8.121  10.955 -0.0909  1.0199 -0.2703
  290MOL0     H39150   9.804   8.158  10.857 -2.2286  2.3771 -1.8088
  291MOL0     O39151   9.104  11.156   8.927  0.2629 -0.1339 -0.2325
  291MOL0     C39152   9.134  11.039   8.960  1.0592 -0.8009 -0.3008
  291MOL0     O39153   9.053  10.937   8.996  0.4111 -0.0884  0.1797
  291MOL0     C39154   8.920  10.958   9.037 -0.8762 -0.1880 -0.2667
  291MOL0     C39155   8.869  11.072   9.114 -0.7160  0.0477  0.2744
  291MOL0     C39156   8.739  11.085   9.150 -0.2816 -0.6470 -0.2511
  291MOL0     C39157   8.647  10.992   9.107 -0.8291 -0.1215 -0.2277
  291MOL0     O39158   8.512  11.001   9.122 -0.4512 -0.3463 -1.3148
  291MOL0     C39159   8.452  11.115   9.181  0.6427  0.2942 -0.4368
  291MOL0     C39160   8.303  11.087   9.194 -0.4083  0.3121 -0.2461
  291MOL0     C39161   8.274  10.984   9.302 -0.3519  0.6771 -0.7635
  291MOL0     C39162   8.130  10.978   9.339 -0.1036 -0.9190 -0.0687
  291MOL0     C39163   8.088  10.851   9.417  0.3421  0.0921 -0.2700
  291MOL0     C39164   7.934  10.855   9.456  1.0577 -0.0467 -0.5268
  291MOL0     C39165   7.867  10.719   9.465 -0.2914 -0.3942 -0.1860
  291MOL0     C39166   7.940  10.640   9.575  0.5581 -0.1960 -0.8611
  291MOL0     N39167   7.849  10.526   9.619 -0.2582 -1.2119  0.0383
  291MOL0     C39168   7.855  10.395   9.584  0.6294 -1.0138 -1.2949
  291MOL0     C39169   7.766  10.330   9.665 -0.0903 -0.3150  0.1072
  291MOL0     C39170   7.725  10.187   9.654  0.3333 -0.1395  0.5979
  291MOL0     C39171   7.577  10.174   9.610 -0.7153  0.1102 -0.0809
  291MOL0     C39172   7.551  10.036   9.564 -0.6349 -0.9303 -0.2739
  291MOL0     C39173   7.410  10.030   9.495 -0.2073  0.3084 -0.3327
  291MOL0     O39174   7.305  10.053   9.599  0.2426 -0.1412  1.4235
  291MOL0     C39175   7.189  10.083   9.534  0.0899 -0.4234  0.2640
  291MOL0     C39176   7.076  10.009   9.560  0.6134  0.4236  0.1764
  291MOL0     C39177   6.948  10.053   9.509 -1.6993 -0.2812 -0.0413
  291MOL0     C39178   6.834   9.964   9.547 -0.3176  0.2485  0.1101
  291MOL0     C39179   6.937  10.171   9.432 -0.0664  0.2425 -0.0645
  291MOL0     C39180   6.813  10.220   9.370 -0.0428  0.9280 -0.0247
  291MOL0     O39181   6.811  10.349   9.346 -0.1168  0.3393 -0.4732
  291MOL0     C39182   6.713  10.409   9.277 -0.2804 -0.1967  1.1869
  291MOL0     C39183   6.748  10.510   9.182  0.6806 -0.2313 -0.2871
  291MOL0     C39184   6.643  10.580   9.127  1.0126 -0.9472  0.5178
  291MOL0     C39185   6.503  10.561   9.176 -1.7355  0.7493  0.2048
  291MOL0     O39186   6.408  10.631   9.103 -0.4294 -0.4029 -0.2975
  291MOL0     C39187   6.278  10.654   9.166  0.9190 -0.6511  0.0095
  291MOL0     C39188   6.193  10.714   9.057  0.6374 -0.8201 -0.3731
  291MOL0     C39189   6.049  10.761   9.091 -0.6935  0.2653  0.2064
  291MOL0     C39190   5.956  10.646   9.143  0.2700 -0.8601  0.2969
  291MOL0     C39191   5.869  10.700   9.255 -0.7112  0.4626  0.0683
  291MOL0     C39192   5.744  10.610   9.276  0.2637  0.4676 -0.1683
  291MOL0     C39193   5.630  10.632   9.169 -0.1398  0.3420 -0.3519
  291MOL0     C39194   5.499  10.571   9.214  0.8252  0.3149  0.0371
  291MOL0    Cl39195   5.530  10.402   9.272  0.2220  0.1129  0.2678
  291MOL0     C39196   6.475  10.464   9.269 -0.3527 -0.3634 -0.2762
  291MOL0     C39197   6.583  10.388   9.315  0.8196 -0.3167 -0.2780
  291MOL0     O39198   6.741  10.134   9.322 -0.4974 -0.7468  0.0615
  291MOL0     C39199   7.052  10.247   9.415 -0.0532 -0.4872 -0.0049
  291MOL0     C39200   7.173  10.208   9.465 -0.5774  0.6208 -0.3499
  291MOL0     N39201   7.691  10.427   9.715 -0.1441 -0.3728 -0.0395
  291MOL0     N39202   7.746  10.546   9.704 -0.1082 -0.0072  0.6122
  291MOL0     C39203   8.692  10.877   9.035 -0.4261  0.0137 -0.9507
  291MOL0     C39204   8.834  10.863   9.003  0.7042 -0.1271 -1.3256
  291MOL0     C39205   9.270  11.015   8.939 -0.1655 -0.2375  0.6178
  291MOL0     C39206   9.305  10.881   8.940 -0.2376 -0.4484  0.1838
  291MOL0     C39207   9.442  10.847   8.931 -0.1412  0.3392 -0.7897
  291MOL0     C39208   9.543  10.942   8.928  0.4167  0.0787  0.2796
  291MOL0     O39209   9.675  10.920   8.926  0.4911 -0.0130  0.0151
  291MOL0     C39210   9.723  10.805   8.852  1.0781 -1.3091 -0.5732
  291MOL0     C39211   9.869  10.792   8.865  0.1665 -0.6402 -0.7277
  291MOL0     C39212   9.925  10.674   8.798  0.6025  0.7353  1.2749
  291MOL0     C39213  10.075  10.680   8.769 -0.0815  0.6016  0.1482
  291MOL0     C39214  10.125  10.567   8.683  0.0102  0.1464  0.1421
  291MOL0     C39215  10.170  10.474   8.618 -0.3930 -0.8182  0.0660
  291MOL0     C39216   9.502  11.072   8.917  0.8477  0.1129  0.1891
  291MOL0     C39217   9.372  11.117   8.932  0.1868 -0.0742 -0.5325
  291MOL0     H39218   8.939  11.150   9.142  2.4846 -2.8119  0.8456
  291MOL0     H39219   8.713  11.169   9.214 -1.0955 -0.2587 -1.0736
  291MOL0     H39220   8.490  11.141   9.280 -2.1851 -0.0929  0.8523
  291MOL0     H39221   8.476  11.211   9.132  1.6739  0.9656  1.3001
  291MOL0     H39222   8.258  11.182   9.227  2.8098  1.9127 -0.0622
  291MOL0     H39223   8.262  11.061   9.096  2.4877  0.0019 -1.4762
  291MOL0     H39224   8.310  10.888   9.264 -1.9871  0.4339 -1.8115
  291MOL0     H39225   8.327  11.008   9.395 -0.1054 -0.6717 -0.5268
  291MOL0     H39226   8.107  11.061   9.407 -2.8259 -1.1032 -0.6314
  291MOL0     H39227   8.067  10.989   9.251 -2.6842  0.2584  1.7779
  291MOL0     H39228   8.125  10.762   9.366  0.6656 -0.6007  1.1235
  291MOL0     H39229   8.138  10.854   9.514 -2.0340 -0.2770  1.0479
  291MOL0     H39230   7.923  10.914   9.548  0.2031  2.1764 -1.9836
  291MOL0     H39231   7.877  10.910   9.381 -2.0864 -0.0014  1.6895
  291MOL0     H39232   7.765  10.739   9.500  0.4585  0.4070  1.7177
  291MOL0     H39233   7.859  10.673   9.366 -1.7681  4.9942 -2.9511
  291MOL0     H39234   7.957  10.686   9.673 -2.5411 -2.7451  1.0933
  291MOL0     H39235   8.033  10.595   9.538  0.4772 -1.3382  0.2431
  291MOL0     H39236   7.919  10.348   9.510 -0.3732 -0.5441 -2.4857
  291MOL0     H39237   7.790  10.131   9.586 -1.3355 -1.3662 -0.0660
  291MOL0     H39238   7.722  10.154   9.758 -5.1994  3.0300  1.8411
  291MOL0     H39239   7.568  10.237   9.521 -3.1297  3.0241  2.0061
  291MOL0     H39240   7.507  10.213   9.684 -1.3227  4.2358 -2.5315
  291MOL0     H39241   7.563   9.964   9.645  1.7897  1.4387  1.6796
  291MOL0     H39242   7.625  10.012   9.487  0.4924 -0.3832  0.6144
  291MOL0     H39243   7.395   9.928   9.458 -1.3548  0.8672 -1.4914
  291MOL0     H39244   7.401  10.103   9.414  0.5507  1.2869  0.4244
  291MOL0     H39245   7.079   9.929   9.633 -1.9773 -0.0430 -0.1259
  291MOL0     H39246   6.814   9.990   9.651 -0.9787  0.7297 -0.1331
  291MOL0     H39247   6.743   9.959   9.487 -0.5221 -2.1341  0.5013
  291MOL0     H39248   6.871   9.861   9.549 -0.5333  0.1412 -1.0614
  291MOL0     H39249   6.851  10.536   9.157  0.6240  0.4291  0.1451
  291MOL0     H39250   6.659  10.651   9.046 -0.1319 -1.3223 -0.0535
  291MOL0     H39251   6.242  10.553   9.185  2.7594 -1.6220 -1.2876
  291MOL0     H39252   6.277  10.726   9.248 -2.2352  0.3312 -0.7721
  291MOL0     H39253   6.237  10.804   9.014 -2.2111 -0.9950 -4.2001
  291MOL0     H39254   6.183  10.645   8.972  3.5417 -1.4837 -0.2570
  291MOL0     H39255   5.997  10.798   9.002 -1.1101  0.7152  0.6320
  291MOL0     H39256   6.055  10.850   9.155 -1.5842  2.3305 -2.3910
  291MOL0     H39257   5.898  10.602   9.061  1.5785 -2.3190  0.1058
  291MOL0     H39258   6.022  10.569   9.185 -0.8098 -1.8711  0.2073
  291MOL0     H39259   5.839  10.805   9.246 -0.6432  0.4573 -0.2124
  291MOL0     H39260   5.936  10.697   9.342  1.4023 -1.2437 -1.5227
  291MOL0     H39261   5.778  10.507   9.285 -1.1497  0.0478  0.6169
  291MOL0     H39262   5.700  10.634   9.373 -1.0726  0.3888 -0.7357
  291MOL0     H39263   5.662  10.587   9.075 -1.9868 -0.9956 -0.3908
  291MOL0     H39264   5.623  10.741   9.159  0.7642  0.4275 -0.0981
  291MOL0     H39265   5.424  10.578   9.135 -0.1706 -2.1915  0.6629
  291MOL0     H39266   5.463  10.622   9.305 -0.5984 -0.2654 -0.1782
  291MOL0     H39267   6.373  10.435   9.292  0.7412 -3.3117  1.4440
  291MOL0     H39268   6.567  10.294   9.367  1.6037 -1.4462 -2.0026
  291MOL0     H39269   7.046  10.343   9.365 -3.6452  0.5701  2.1525
  291MOL0     H39270   7.262  10.269   9.456 -0.0761 -0.0132  0.2148
  291MOL0     H39271   8.625  10.802   8.995  0.4011 -0.4462 -1.5104
  291MOL0     H39272   8.868  10.776   8.948  0.3090 -0.6662 -0.7353
  291MOL0     H39273   9.233  10.802   8.960 -0.8979 -0.2782 -1.3948
  291MOL0     H39274   9.467  10.742   8.943  1.5757  0.8861  1.0058
  291MOL0     H39275   9.671  10.717   8.891 -4.8380  2.8479  2.4301
  291MOL0     H39276   9.686  10.823   8.751 -1.1576  0.4717  0.4821
  291MOL0     H39277   9.889  10.791   8.973  0.1098  2.6907 -0.5628
  291MOL0     H39278   9.915  10.887   8.836  0.0067 -0.6689 -1.0839
  291MOL0     H39279   9.868  10.669   8.704 -0.7568  0.7927  2.0586
  291MOL0     H39280   9.897  10.589   8.861 -1.4027 -0.8087 -1.4870
  291MOL0     H39281  10.119  10.680   8.869 -0.6478 -1.9405  0.4529
  291MOL0     H39282  10.087  10.774   8.715  0.3326 -0.2431 -1.2773
  291MOL0     H39283  10.203  10.400   8.548  1.3122  0.0824 -0.1370
  291MOL0     H39284   9.580  11.148   8.924  2.6547 -1.4546 -1.6761
  291MOL0     H39285   9.351  11.224   8.935 -0.3270 -0.1846  0.0237
  292MOL0     O39286   0.758  10.492   2.281 -0.0815  0.5437  0.2598
  292MOL0     C39287   0.845  10.521   2.362  1.0600  1.1141  0.0351
  292MOL0     O39288   0.831  10.622   2.453 -0.4579  0.7752 -0.2231
  292MOL0     C39289   0.718  10.695   2.479 -0.0905  0.4083 -0.6942
  292MOL0     C39290   0.746  10.814   2.541  0.1612  0.2056  0.2150
  292MOL0     C39291   0.643  10.911   2.557  0.5687  0.3132  0.2360
  292MOL0     C39292   0.505  10.873   2.533 -0.0160  0.0407  0.5398
  292MOL0     O39293   0.404  10.967   2.539  0.1612 -0.0449 -0.3488
  292MOL0     C39294   0.437  11.098   2.505  0.3617  0.1336 -0.7261
  292MOL0     C39295   0.310  11.175   2.509 -0.9570  0.2685  0.0414
  292MOL0     C39296   0.193  11.114   2.430 -0.7624 -0.0673 -0.3257
  292MOL0     C39297   0.082  11.213   2.399  0.7348 -0.3319  0.7602
  292MOL0     C39298  -0.033  11.140   2.327  0.1672 -0.3228  0.7481
  292MOL0     C39299  -0.169  11.209   2.344  0.0296 -0.0229  0.9545
  292MOL0     C39300  -0.286  11.137   2.265  0.4357 -0.4436 -0.0538
  292MOL0     C39301  -0.399  11.235   2.264  1.2347 -0.0832  0.3286
  292MOL0     N39302  -0.528  11.184   2.209 -0.9537 -0.1217  0.2516
  292MOL0     C39303  -0.522  11.118   2.089 -0.2992 -0.4461 -0.3672
  292MOL0     C39304  -0.647  11.095   2.053 -0.5840 -0.2227  0.6416
  292MOL0     C39305  -0.692  11.021   1.929  0.2210 -0.4456  0.8790
  292MOL0     C39306  -0.626  10.883   1.895  0.3827 -0.6608  0.3201
  292MOL0     C39307  -0.679  10.824   1.770 -0.2623  0.2293  0.1593
  292MOL0     C39308  -0.824  10.788   1.780  0.0298  0.6368 -0.0270
  292MOL0     O39309  -0.869  10.766   1.910  0.4307  1.1768 -0.9928
  292MOL0     C39310  -0.994  10.720   1.935 -0.6749  0.4326 -0.5949
  292MOL0     C39311  -1.109  10.713   1.851 -1.1813 -0.1203  1.0675
  292MOL0     C39312  -1.224  10.650   1.888  0.3201  0.2454  0.7752
  292MOL0     C39313  -1.331  10.644   1.776 -0.3137 -0.8216 -0.3611
  292MOL0     C39314  -1.246  10.605   2.016 -0.3707 -1.1443 -0.4184
  292MOL0     C39315  -1.371  10.542   2.071 -0.0837 -0.1775 -1.1108
  292MOL0     O39316  -1.389  10.527   2.205  0.0663 -0.8400  0.2324
  292MOL0     C39317  -1.511  10.483   2.249  0.4309 -0.9978 -1.2064
  292MOL0     C39318  -1.538  10.352   2.279 -0.8274  0.1483  0.6919
  292MOL0     C39319  -1.664  10.306   2.313 -0.1449  0.5644  1.1596
  292MOL0     C39320  -1.773  10.391   2.324  0.2727 -0.6994  0.0109
  292MOL0     O39321  -1.893  10.337   2.367 -0.1926  0.0500  0.1219
  292MOL0     C39322  -2.009  10.394   2.309  0.0005 -0.5184 -0.1169
  292MOL0     C39323  -2.117  10.279   2.337  0.7374  0.5795  0.0697
  292MOL0     C39324  -2.258  10.315   2.278 -0.0039 -0.4931  0.4212
  292MOL0     C39325  -2.319  10.434   2.340 -0.5526  0.4701  0.7247
  292MOL0     C39326  -2.451  10.462   2.267 -0.2144  0.2029 -0.6409
  292MOL0     C39327  -2.530  10.582   2.339 -0.8003  0.2084 -0.1335
  292MOL0     C39328  -2.676  10.588   2.309 -0.5040 -0.0439 -0.3959
  292MOL0     C39329  -2.748  10.475   2.397  0.4996 -0.0804  0.2934
  292MOL0    Cl39330  -2.923  10.474   2.360  0.6773  0.4390 -0.0316
  292MOL0     C39331  -1.747  10.532   2.306  0.1468 -0.3970  0.1518
  292MOL0     C39332  -1.621  10.572   2.260 -0.7283 -1.2266  0.3646
  292MOL0     O39333  -1.457  10.514   1.991 -0.3349 -0.2767  0.1675
  292MOL0     C39334  -1.136  10.621   2.107 -0.4643 -0.5105 -0.2490
  292MOL0     C39335  -1.015  10.681   2.069  0.1133  0.0629  0.7139
  292MOL0     N39336  -0.724  11.146   2.152  0.4520  0.6627 -0.2502
  292MOL0     N39337  -0.654  11.199   2.248 -0.5614  0.7950  0.0777
  292MOL0     C39338   0.477  10.743   2.483 -0.2278 -0.3432  0.0281
  292MOL0     C39339   0.581  10.656   2.447 -0.3544  0.4602 -0.1010
  292MOL0     C39340   0.967  10.433   2.359 -0.0185 -0.5791  0.6173
  292MOL0     C39341   1.063  10.457   2.459 -0.0527 -0.2768  0.5166
  292MOL0     C39342   1.176  10.365   2.465  0.5461 -0.9802  0.1550
  292MOL0     C39343   1.185  10.257   2.383 -0.0175 -0.1293  0.3134
  292MOL0     O39344   1.294  10.172   2.401 -0.7597  0.7841 -0.3760
  292MOL0     C39345   1.319  10.051   2.323  0.8483 -0.2795 -0.2854
  292MOL0     C39346   1.420   9.960   2.379  0.6112 -0.2338 -0.0397
  292MOL0     C39347   1.556  10.013   2.411  0.0614  0.1128  0.2611
  292MOL0     C39348   1.653  10.054   2.290 -0.7582  0.5251 -0.0601
  292MOL0     C39349   1.787  10.082   2.339  0.3419  0.5413 -0.1015
  292MOL0     C39350   1.896  10.115   2.381 -0.2068 -0.1680  0.5605
  292MOL0     C39351   1.087  10.235   2.288  0.5912  0.3533  0.3040
  292MOL0     C39352   0.980  10.324   2.272 -0.0485  0.2864 -0.2143
  292MOL0     H39353   0.843  10.847   2.577  0.7231 -1.3797  0.2108
  292MOL0     H39354   0.672  11.014   2.575 -0.3168  0.9485 -1.6865
  292MOL0     H39355   0.500  11.140   2.584 -1.2032 -0.3396  0.8301
  292MOL0     H39356   0.483  11.103   2.406  0.1683  2.7325 -0.7632
  292MOL0     H39357   0.300  11.179   2.618  0.6110  2.9339  0.1745
  292MOL0     H39358   0.330  11.276   2.472 -0.7897  1.3548  2.8845
  292MOL0     H39359   0.243  11.071   2.342 -1.8679 -0.8547 -0.5860
  292MOL0     H39360   0.150  11.036   2.493  0.8449  2.0625  3.7687
  292MOL0     H39361   0.058  11.270   2.490  1.5297  2.4757 -0.6752
  292MOL0     H39362   0.124  11.286   2.329 -2.6733  2.7135  1.5641
  292MOL0     H39363  -0.019  11.131   2.219 -0.6442 -0.1155  0.6217
  292MOL0     H39364  -0.044  11.041   2.372 -0.6998 -2.0512 -2.8865
  292MOL0     H39365  -0.197  11.207   2.450 -0.0647 -3.7871  1.0150
  292MOL0     H39366  -0.163  11.310   2.303 -0.1042 -0.9579 -1.5347
  292MOL0     H39367  -0.253  11.101   2.167 -0.8323 -2.1724  0.1191
  292MOL0     H39368  -0.318  11.051   2.324  1.1074 -0.6978 -0.0421
  292MOL0     H39369  -0.376  11.317   2.195 -0.9066  0.5089  0.2524
  292MOL0     H39370  -0.415  11.277   2.363 -2.9558  0.1912 -0.2893
  292MOL0     H39371  -0.436  11.096   2.027  0.8259 -1.2664  1.4118
  292MOL0     H39372  -0.800  11.007   1.939 -0.0792  0.7764 -0.3008
  292MOL0     H39373  -0.674  11.076   1.836  1.3115 -3.5988 -0.9185
  292MOL0     H39374  -0.645  10.825   1.986 -2.8283  0.1230  0.2672
  292MOL0     H39375  -0.520  10.901   1.877 -0.3461  1.3492 -2.6276
  292MOL0     H39376  -0.621  10.732   1.759 -3.0539 -1.9543  2.1976
  292MOL0     H39377  -0.676  10.901   1.693 -1.2741  2.3975  2.1469
  292MOL0     H39378  -0.837  10.703   1.712 -0.2868  0.6978 -0.0476
  292MOL0     H39379  -0.884  10.870   1.739 -0.4500  0.1597 -0.3090
  292MOL0     H39380  -1.101  10.752   1.750 -2.5732  2.4726  1.8714
  292MOL0     H39381  -1.430  10.668   1.817  0.1156  1.7681 -0.6731
  292MOL0     H39382  -1.307  10.718   1.699 -2.6172  1.0861  0.6099
  292MOL0     H39383  -1.323  10.540   1.745  2.6364 -0.9207  0.5003
  292MOL0     H39384  -1.446  10.296   2.266 -1.3438 -0.3527 -0.9778
  292MOL0     H39385  -1.666  10.198   2.315 -1.3445  0.5452  0.2396
  292MOL0     H39386  -2.033  10.493   2.349  1.3958 -0.7934  1.5352
  292MOL0     H39387  -1.982  10.407   2.203 -0.3104 -0.9444 -0.2480
  292MOL0     H39388  -2.085  10.182   2.297  2.8488  0.5479  1.7182
  292MOL0     H39389  -2.130  10.255   2.442 -1.0287 -1.0396 -0.4540
  292MOL0     H39390  -2.328  10.231   2.284 -0.5652  0.0027  1.0630
  292MOL0     H39391  -2.248  10.339   2.172  1.3712  0.9870  0.8497
  292MOL0     H39392  -2.327  10.419   2.448 -1.2615 -0.8022  0.5062
  292MOL0     H39393  -2.246  10.516   2.338 -2.6745  2.4608 -0.0834
  292MOL0     H39394  -2.515  10.373   2.271  1.0177 -0.9743 -3.8819
  292MOL0     H39395  -2.425  10.497   2.167 -1.7204  0.5678 -0.9392
  292MOL0     H39396  -2.510  10.572   2.446  2.9084 -0.9656 -0.7871
  292MOL0     H39397  -2.474  10.674   2.319  1.9361 -0.4470  3.3573
  292MOL0     H39398  -2.703  10.577   2.203 -4.8205 -1.8204  0.6672
  292MOL0     H39399  -2.715  10.679   2.354 -0.6754 -0.0055 -0.6183
  292MOL0     H39400  -2.719  10.477   2.502  3.4461 -1.3502 -0.4082
  292MOL0     H39401  -2.718  10.379   2.354 -1.9778  0.2018 -2.3962
  292MOL0     H39402  -1.831  10.599   2.320 -0.3596 -1.0659  0.3778
  292MOL0     H39403  -1.614  10.678   2.239  1.2766 -0.7380  3.0405
  292MOL0     H39404  -1.141  10.585   2.209  0.7401  1.5707  0.6080
  292MOL0     H39405  -0.929  10.681   2.135  1.2455 -0.7490 -0.7159
  292MOL0     H39406   0.374  10.718   2.458 -0.0669 -0.3666 -0.6461
  292MOL0     H39407   0.555  10.564   2.396  0.0022  0.2763  0.0407
  292MOL0     H39408   1.059  10.541   2.527  0.8477  1.3123 -1.2856
  292MOL0     H39409   1.254  10.375   2.540  1.5583 -0.1150 -0.9892
  292MOL0     H39410   1.223  10.000   2.307  0.5554  0.7587 -2.1525
  292MOL0     H39411   1.361  10.091   2.230 -0.9717 -0.6832 -1.3273
  292MOL0     H39412   1.437   9.874   2.313  0.9248  0.0220 -0.2997
  292MOL0     H39413   1.380   9.932   2.477  1.8778  0.4580  0.7005
  292MOL0     H39414   1.616   9.935   2.459 -0.7155  0.7416  2.3705
  292MOL0     H39415   1.549  10.094   2.484  0.8672  0.9158 -0.5352
  292MOL0     H39416   1.606  10.142   2.243 -0.4387  0.3432 -0.7280
  292MOL0     H39417   1.673   9.977   2.216  0.3442 -0.8107  1.5584
  292MOL0     H39418   1.995  10.146   2.405  0.6952 -1.8824 -0.7012
  292MOL0     H39419   1.098  10.156   2.215  0.4424  0.2728  0.3702
  292MOL0     H39420   0.916  10.305   2.187  3.2628  1.6589 -3.2724
  293MOL0     O39421   5.340   0.848   2.033  0.0946  0.4016 -0.1976
  293MOL0     C39422   5.387   0.901   2.132 -0.2435  0.4368  0.5707
  293MOL0     O39423   5.349   1.017   2.182 -0.1585  0.0545 -0.7792
  293MOL0     C39424   5.243   1.088   2.133 -0.3381  1.1625 -0.2688
  293MOL0     C39425   5.265   1.222   2.105 -0.3707  1.0686 -0.4545
  293MOL0     C39426   5.162   1.295   2.053  0.2631  0.2279  0.0085
  293MOL0     C39427   5.040   1.238   2.020 -1.0477  0.1992 -0.5792
  293MOL0     O39428   4.938   1.308   1.968  0.0759  0.5710  0.2235
  293MOL0     C39429   4.805   1.314   2.023 -0.4389 -0.7777 -0.8535
  293MOL0     C39430   4.768   1.465   2.047 -0.0978  0.7492  0.5352
  293MOL0     C39431   4.610   1.473   2.083 -0.9232  0.4338  0.5896
  293MOL0     C39432   4.563   1.610   2.103 -0.7452 -0.1087  0.2472
  293MOL0     C39433   4.410   1.608   2.126 -0.2230 -0.2452  0.3008
  293MOL0     C39434   4.373   1.753   2.172 -1.2436 -0.1906 -0.1230
  293MOL0     C39435   4.233   1.747   2.243  0.5261 -0.3762 -1.1901
  293MOL0     C39436   4.225   1.657   2.371  0.6201 -0.0020  0.3927
  293MOL0     N39437   4.095   1.673   2.432 -0.3403  0.1958 -0.0491
  293MOL0     C39438   4.039   1.779   2.500 -0.0743 -0.0203 -0.9791
  293MOL0     C39439   3.924   1.745   2.553 -0.0582 -0.4766 -0.3847
  293MOL0     C39440   3.830   1.823   2.630  0.1422 -0.8691 -1.4177
  293MOL0     C39441   3.691   1.810   2.579 -0.0958  0.0994 -0.1298
  293MOL0     C39442   3.591   1.862   2.676  0.4199 -0.2162  0.5637
  293MOL0     C39443   3.453   1.853   2.619 -0.4137 -0.0978  0.4249
  293MOL0     O39444   3.376   1.908   2.724 -0.0350 -0.0515  0.0544
  293MOL0     C39445   3.244   1.940   2.714  0.2775 -0.5825  0.6538
  293MOL0     C39446   3.188   2.017   2.811 -0.9155  0.6776  0.3428
  293MOL0     C39447   3.055   2.032   2.821  0.9716 -0.3956 -0.7183
  293MOL0     C39448   2.995   2.081   2.958 -0.4410  0.3306  0.2383
  293MOL0     C39449   2.972   1.986   2.714  0.9435 -0.1526  0.4156
  293MOL0     C39450   2.831   2.016   2.704  0.2160  0.1705 -0.1810
  293MOL0     O39451   2.765   1.958   2.598  0.4651 -0.0662 -0.1895
  293MOL0     C39452   2.628   1.983   2.569  0.0429 -0.3262 -0.5466
  293MOL0     C39453   2.579   1.923   2.451  0.2142 -0.1861  0.1599
  293MOL0     C39454   2.447   1.929   2.414 -0.6412  0.0597  0.2479
  293MOL0     C39455   2.357   2.014   2.480 -0.3771 -0.3318 -0.2858
  293MOL0     O39456   2.233   2.034   2.428  0.0835  0.1656 -0.5437
  293MOL0     C39457   2.166   1.924   2.366  0.6528  0.4237  1.1485
  293MOL0     C39458   2.022   1.967   2.328  0.6607  0.5653 -0.0561
  293MOL0     C39459   1.931   1.930   2.450  1.0556 -0.0337  0.7177
  293MOL0     C39460   1.783   1.945   2.402  0.0607 -0.7168 -0.1482
  293MOL0     C39461   1.697   1.932   2.525  0.5392 -0.0620 -0.4976
  293MOL0     C39462   1.680   1.782   2.555 -0.2638 -0.2493 -0.1307
  293MOL0     C39463   1.568   1.759   2.656 -0.2617 -0.2064 -0.1698
  293MOL0     C39464   1.578   1.619   2.692  0.1875  0.5871 -0.3163
  293MOL0    Cl39465   1.436   1.559   2.784 -0.2214  0.3986 -0.1927
  293MOL0     C39466   2.401   2.073   2.593 -0.4220 -0.8425 -0.3170
  293MOL0     C39467   2.529   2.050   2.646 -0.3959 -0.1471  0.2981
  293MOL0     O39468   2.774   2.098   2.781  1.0409  0.3055 -0.2673
  293MOL0     C39469   3.030   1.908   2.609 -0.3318  1.0501  0.1657
  293MOL0     C39470   3.166   1.882   2.608 -0.2858 -0.5031 -0.7016
  293MOL0     N39471   3.911   1.609   2.528  0.1768  0.5453  0.1217
  293MOL0     N39472   4.010   1.569   2.453  0.7190 -0.0616  0.5503
  293MOL0     C39473   5.020   1.106   2.032 -0.2955  0.3395  0.1082
  293MOL0     C39474   5.117   1.027   2.093  0.4250  0.2322 -0.1326
  293MOL0     C39475   5.512   0.844   2.188  0.7376  0.8137 -0.2084
  293MOL0     C39476   5.524   0.815   2.324 -0.6773  0.6482  0.1265
  293MOL0     C39477   5.644   0.775   2.379 -0.2811 -0.3417 -0.0129
  293MOL0     C39478   5.757   0.767   2.289  0.4045  0.5084 -0.1769
  293MOL0     O39479   5.879   0.715   2.329  0.3716 -0.1513 -0.5686
  293MOL0     C39480   5.943   0.744   2.461  0.4720 -0.3344  0.1056
  293MOL0     C39481   6.092   0.680   2.476 -0.8401  0.3508 -0.2991
  293MOL0     C39482   6.073   0.539   2.518  0.0216  0.2368 -0.6290
  293MOL0     C39483   6.197   0.459   2.526 -0.5368  0.2805  0.3427
  293MOL0     C39484   6.179   0.327   2.474  0.7888 -0.1381  0.1223
  293MOL0     C39485   6.163   0.228   2.409 -0.1814 -0.3362  0.2207
  293MOL0     C39486   5.740   0.797   2.150  0.1658  1.0348  0.3442
  293MOL0     C39487   5.615   0.832   2.100 -0.1631 -0.0915  0.2085
  293MOL0     H39488   5.359   1.271   2.127 -0.8359  1.4708  0.7053
  293MOL0     H39489   5.173   1.403   2.048  1.5337  0.0790 -0.9418
  293MOL0     H39490   4.741   1.260   1.952 -0.2944 -2.6046  0.3386
  293MOL0     H39491   4.807   1.261   2.118  3.0962 -0.1797 -0.4517
  293MOL0     H39492   4.820   1.512   2.131  1.3527  1.2437 -0.6165
  293MOL0     H39493   4.798   1.516   1.955 -0.3245  2.0390  1.1461
  293MOL0     H39494   4.563   1.442   1.989  1.4024 -2.2165  0.2003
  293MOL0     H39495   4.573   1.409   2.163  0.7892  0.7676  1.7075
  293MOL0     H39496   4.619   1.632   2.194  2.5937 -1.9324 -1.1739
  293MOL0     H39497   4.597   1.670   2.018 -0.5626  2.0869  1.7819
  293MOL0     H39498   4.355   1.589   2.033 -0.1409  1.4039 -0.1176
  293MOL0     H39499   4.383   1.534   2.203 -2.0508 -1.2270 -1.1855
  293MOL0     H39500   4.447   1.784   2.246 -0.2437 -2.9580  0.1602
  293MOL0     H39501   4.373   1.814   2.082 -2.0178  1.1391  0.7510
  293MOL0     H39502   4.216   1.850   2.273  1.3383 -1.0930  2.1380
  293MOL0     H39503   4.151   1.712   2.178 -1.3716  0.8843  0.4041
  293MOL0     H39504   4.307   1.686   2.438 -0.9305  1.6029  1.6787
  293MOL0     H39505   4.245   1.553   2.342 -1.8505 -1.0953  2.2880
  293MOL0     H39506   4.094   1.871   2.521  3.3318 -1.6400 -2.0799
  293MOL0     H39507   3.839   1.793   2.735  0.3744 -0.9009 -1.4470
  293MOL0     H39508   3.858   1.929   2.634  2.2265 -1.3579  2.8666
  293MOL0     H39509   3.660   1.708   2.554  0.3604 -0.6464  2.1005
  293MOL0     H39510   3.693   1.866   2.485  3.1901  0.8558  0.2665
  293MOL0     H39511   3.619   1.967   2.694  0.1826  0.0077 -0.3120
  293MOL0     H39512   3.591   1.807   2.770  2.0575  1.6341  1.7232
  293MOL0     H39513   3.426   1.752   2.589 -4.3800  0.4321  1.5809
  293MOL0     H39514   3.442   1.909   2.526 -2.3179  0.1297  0.7383
  293MOL0     H39515   3.242   2.060   2.895  0.2029 -2.4498  1.3578
  293MOL0     H39516   2.920   2.010   2.993  2.3283 -1.6062  2.7805
  293MOL0     H39517   3.067   2.091   3.040  1.6205 -3.1124 -0.9176
  293MOL0     H39518   2.947   2.178   2.943 -0.6642 -0.0505 -1.8088
  293MOL0     H39519   2.652   1.867   2.394 -1.2824 -0.0519 -1.9990
  293MOL0     H39520   2.417   1.882   2.322 -2.3785  1.1354  0.2222
  293MOL0     H39521   2.210   1.908   2.267 -0.5527 -0.0037  0.6702
  293MOL0     H39522   2.162   1.829   2.419 -0.1821  0.5455  1.3155
  293MOL0     H39523   2.001   2.064   2.284 -0.6265 -1.8175 -5.5888
  293MOL0     H39524   1.987   1.904   2.246 -1.1675  2.2692 -0.6555
  293MOL0     H39525   1.944   1.995   2.538  0.7450  1.8092 -0.5289
  293MOL0     H39526   1.953   1.831   2.489 -0.9525  0.7349  4.2374
  293MOL0     H39527   1.764   2.042   2.355 -0.5618 -0.4065  0.7214
  293MOL0     H39528   1.753   1.877   2.322  1.1293  0.1355 -1.3184
  293MOL0     H39529   1.597   1.971   2.501  1.2266  1.1721 -1.4948
  293MOL0     H39530   1.743   1.982   2.610 -0.2963  0.9512 -0.6226
  293MOL0     H39531   1.648   1.743   2.458 -0.8172  2.5664 -1.1908
  293MOL0     H39532   1.772   1.740   2.598 -1.4975 -1.1594  1.7712
  293MOL0     H39533   1.475   1.794   2.611 -1.3409 -0.8875  1.4316
  293MOL0     H39534   1.596   1.815   2.746  0.5124  0.7380 -0.9722
  293MOL0     H39535   1.657   1.600   2.765 -2.0262 -1.8433  1.6684
  293MOL0     H39536   1.597   1.558   2.603 -1.0974 -1.3452  0.6421
  293MOL0     H39537   2.341   2.143   2.651 -0.7778  0.5095 -2.1938
  293MOL0     H39538   2.565   2.102   2.734  0.0916 -2.1087  1.3161
  293MOL0     H39539   2.968   1.863   2.532  0.6367 -1.3236  0.6835
  293MOL0     H39540   3.211   1.818   2.532  1.4523  0.8501 -0.8715
  293MOL0     H39541   4.924   1.060   2.008 -0.3301  0.0735  0.7554
  293MOL0     H39542   5.096   0.921   2.102  1.1050  0.2416  1.9998
  293MOL0     H39543   5.430   0.813   2.377  0.2914 -0.5100  1.9095
  293MOL0     H39544   5.661   0.752   2.483  1.7959  0.0062 -0.2238
  293MOL0     H39545   5.946   0.852   2.477 -1.5598 -0.2272  0.0444
  293MOL0     H39546   5.892   0.704   2.549  0.5069 -0.5799  0.0165
  293MOL0     H39547   6.142   0.738   2.555  1.2622  0.1500 -1.4033
  293MOL0     H39548   6.144   0.691   2.381  0.7431  4.9500  0.8243
  293MOL0     H39549   6.000   0.481   2.461 -1.9983  1.5954  0.4364
  293MOL0     H39550   6.018   0.534   2.612 -2.0226  3.7293 -1.4162
  293MOL0     H39551   6.227   0.468   2.631  0.0134  1.1793  0.1230
  293MOL0     H39552   6.285   0.492   2.470  0.6954  0.0677  2.0514
  293MOL0     H39553   6.142   0.157   2.332  1.0294  0.7160 -1.1277
  293MOL0     H39554   5.823   0.779   2.083 -0.0079 -0.1787  0.4353
  293MOL0     H39555   5.595   0.843   1.994  1.4106 -0.4191 -0.1529
  294MOL0     O39556   1.134   4.186   7.823 -0.9511  0.7102 -0.0593
  294MOL0     C39557   1.236   4.212   7.760 -0.4418  1.3519  0.9593
  294MOL0     O39558   1.245   4.286   7.650  0.2075  0.3093  0.0336
  294MOL0     C39559   1.136   4.336   7.595 -0.6530 -0.7115 -0.8154
  294MOL0     C39560   1.079   4.456   7.635 -0.1607 -0.7317 -0.3058
  294MOL0     C39561   0.967   4.508   7.564  0.2985  0.8143  0.3299
  294MOL0     C39562   0.908   4.428   7.465  0.5329  0.4625 -0.0328
  294MOL0     O39563   0.792   4.467   7.412  0.2836  0.6645  0.1962
  294MOL0     C39564   0.723   4.356   7.342  0.1447 -0.4290  0.8144
  294MOL0     C39565   0.570   4.389   7.332 -0.8987  1.0435  0.5410
  294MOL0     C39566   0.509   4.417   7.471 -0.0500 -0.4980  0.6563
  294MOL0     C39567   0.360   4.405   7.447  0.2962  0.7606 -0.0635
  294MOL0     C39568   0.289   4.410   7.588  0.4983  0.6387 -0.1158
  294MOL0     C39569   0.299   4.546   7.655  0.2904  0.4675  1.1102
  294MOL0     C39570   0.234   4.544   7.783  0.7931 -0.0994  0.5564
  294MOL0     C39571   0.115   4.644   7.791 -0.2571  0.0300  0.1313
  294MOL0     N39572  -0.007   4.617   7.712  1.5334 -0.4067  0.2319
  294MOL0     C39573  -0.074   4.694   7.620  0.1803  0.2164 -0.5029
  294MOL0     C39574  -0.172   4.612   7.566  0.6612 -0.3227 -0.4121
  294MOL0     C39575  -0.278   4.651   7.462  0.5977  0.0440 -1.1543
  294MOL0     C39576  -0.283   4.800   7.441  0.8454 -0.1933 -0.9455
  294MOL0     C39577  -0.414   4.838   7.362 -0.1043  0.2801  0.2508
  294MOL0     C39578  -0.537   4.850   7.459  0.2612 -0.2901 -0.3904
  294MOL0     O39579  -0.642   4.907   7.369  0.0516 -0.1771  0.1166
  294MOL0     C39580  -0.770   4.917   7.421  0.1048  0.6474  0.8820
  294MOL0     C39581  -0.869   4.979   7.337 -0.2846 -0.3081 -0.1244
  294MOL0     C39582  -1.002   5.008   7.374 -1.1304 -0.8681  0.5894
  294MOL0     C39583  -1.069   5.092   7.276  0.7961  0.3149  0.9273
  294MOL0     C39584  -1.047   4.961   7.496  0.5241 -0.0314 -1.0858
  294MOL0     C39585  -1.184   4.979   7.556 -0.6862  0.4060 -1.3729
  294MOL0     O39586  -1.201   4.947   7.682  0.2775  0.1816  0.4059
  294MOL0     C39587  -1.316   4.943   7.753  0.8709  0.5527 -0.4310
  294MOL0     C39588  -1.303   4.955   7.890 -0.4852 -0.0173 -0.0673
  294MOL0     C39589  -1.420   4.965   7.966 -0.2142 -0.5993  0.2990
  294MOL0     C39590  -1.551   4.965   7.916  0.2460  0.3485  0.3914
  294MOL0     O39591  -1.671   4.991   7.987  0.5272  0.0254 -0.7092
  294MOL0     C39592  -1.690   4.912   8.112 -0.7723 -0.4873 -0.3557
  294MOL0     C39593  -1.822   4.958   8.175 -0.3410 -0.2208 -0.1044
  294MOL0     C39594  -1.932   4.963   8.076  0.0269 -0.3979  0.0550
  294MOL0     C39595  -2.060   5.008   8.146 -0.2987 -0.6239  0.3121
  294MOL0     C39596  -2.188   5.015   8.053 -0.6088 -0.1707 -1.4125
  294MOL0     C39597  -2.189   5.141   7.965 -0.3880  0.2190 -0.3852
  294MOL0     C39598  -2.327   5.197   7.949 -0.3460  0.0487 -1.0582
  294MOL0     C39599  -2.417   5.103   7.873  0.5216  0.0504  0.7663
  294MOL0    Cl39600  -2.351   5.076   7.704  0.0655  0.2813  0.2003
  294MOL0     C39601  -1.569   4.941   7.780  0.6609  0.0526  0.4649
  294MOL0     C39602  -1.452   4.927   7.697 -0.2929 -1.3284  0.1898
  294MOL0     O39603  -1.266   5.019   7.478 -0.1974 -0.4994  0.5670
  294MOL0     C39604  -0.945   4.894   7.582 -0.0484 -0.7730  0.3663
  294MOL0     C39605  -0.811   4.872   7.547 -0.0621  0.5452 -0.0944
  294MOL0     N39606  -0.166   4.491   7.623  0.0099 -0.6215 -0.4347
  294MOL0     N39607  -0.069   4.493   7.702 -0.4683  0.1030 -0.2677
  294MOL0     C39608   0.977   4.314   7.419 -0.8255 -0.1741 -0.2285
  294MOL0     C39609   1.089   4.269   7.488  0.6494 -0.3507  0.2062
  294MOL0     C39610   1.377   4.161   7.818  0.8008  0.8998 -0.1385
  294MOL0     C39611   1.497   4.193   7.753  0.3022 -0.2482 -0.9546
  294MOL0     C39612   1.618   4.146   7.807 -0.6326  0.0842 -0.3850
  294MOL0     C39613   1.625   4.071   7.920  0.1439  0.2634 -1.4227
  294MOL0     O39614   1.753   4.027   7.951 -0.7546  0.2533 -0.5449
  294MOL0     C39615   1.780   3.951   8.064 -0.4957  0.9854 -0.4620
  294MOL0     C39616   1.930   3.928   8.077 -0.5086 -0.0464  0.0126
  294MOL0     C39617   2.001   4.053   8.126 -0.6947 -0.2057 -0.5615
  294MOL0     C39618   2.147   4.014   8.154  0.6983  0.4198 -0.2225
  294MOL0     C39619   2.160   3.964   8.297 -0.4967  0.1984  0.4202
  294MOL0     C39620   2.165   3.937   8.408 -0.0477 -0.4705 -0.4265
  294MOL0     C39621   1.507   4.047   8.004 -0.3804  0.7248  1.0388
  294MOL0     C39622   1.387   4.089   7.942 -0.1457 -0.3417 -0.3995
  294MOL0     H39623   1.108   4.517   7.720 -1.8056 -1.0921  0.5508
  294MOL0     H39624   0.926   4.606   7.586  2.2503  2.0270 -1.0827
  294MOL0     H39625   0.760   4.342   7.240 -0.8941 -1.8266  0.6081
  294MOL0     H39626   0.733   4.259   7.391 -1.2980 -0.6816  0.6380
  294MOL0     H39627   0.562   4.474   7.263 -0.3977 -0.9120 -2.0654
  294MOL0     H39628   0.528   4.301   7.284  0.6123  0.6221 -0.0921
  294MOL0     H39629   0.549   4.332   7.526  0.8568 -1.6407 -1.6289
  294MOL0     H39630   0.535   4.505   7.530  0.2926 -0.7009  0.8143
  294MOL0     H39631   0.332   4.504   7.408  1.7835  1.5528  0.8247
  294MOL0     H39632   0.312   4.325   7.390 -1.1292  1.6596 -0.1807
  294MOL0     H39633   0.181   4.404   7.572  0.3924  0.2266  0.7345
  294MOL0     H39634   0.322   4.330   7.655  1.8039  1.9662  0.8889
  294MOL0     H39635   0.403   4.564   7.684  0.8294 -0.5489 -0.0867
  294MOL0     H39636   0.268   4.620   7.580  0.4167 -1.1420 -0.6144
  294MOL0     H39637   0.201   4.441   7.800  1.7873 -0.5489 -0.1364
  294MOL0     H39638   0.302   4.568   7.865 -1.0255  2.3503  1.4504
  294MOL0     H39639   0.151   4.743   7.760  0.2225 -0.1186  0.2088
  294MOL0     H39640   0.085   4.639   7.896 -1.6207 -0.4125 -0.2569
  294MOL0     H39641  -0.054   4.797   7.591 -2.4082  0.9425  0.0377
  294MOL0     H39642  -0.270   4.603   7.364 -3.1507 -2.5549 -0.4062
  294MOL0     H39643  -0.370   4.618   7.511  2.3759  0.3348  2.7654
  294MOL0     H39644  -0.191   4.841   7.397  0.4328 -0.7905 -2.4277
  294MOL0     H39645  -0.289   4.854   7.536  0.3677 -1.6063 -0.1543
  294MOL0     H39646  -0.434   4.758   7.290  1.1264 -1.1908  1.4761
  294MOL0     H39647  -0.402   4.934   7.310 -3.4557  1.1226  0.7708
  294MOL0     H39648  -0.520   4.911   7.548 -1.2141 -2.4802  1.4917
  294MOL0     H39649  -0.565   4.748   7.488  0.2590 -1.7811 -4.8546
  294MOL0     H39650  -0.839   4.998   7.235 -0.4431 -1.3300 -0.3717
  294MOL0     H39651  -1.123   5.177   7.318 -1.4952 -0.3555 -0.5083
  294MOL0     H39652  -1.004   5.125   7.194  0.1039 -1.7055 -0.5038
  294MOL0     H39653  -1.147   5.041   7.219  1.0359 -3.0012  3.3058
  294MOL0     H39654  -1.208   4.958   7.943 -1.1456 -0.2328  1.1531
  294MOL0     H39655  -1.416   4.969   8.075 -1.2832 -1.3462  0.3744
  294MOL0     H39656  -1.683   4.803   8.098 -0.4058 -0.9305  2.6258
  294MOL0     H39657  -1.618   4.935   8.191 -2.8537  1.0757  1.2303
  294MOL0     H39658  -1.844   4.887   8.256  2.1466 -1.7335 -0.6474
  294MOL0     H39659  -1.800   5.050   8.230  1.3327  0.8701 -2.4529
  294MOL0     H39660  -1.950   4.866   8.029 -3.6527  1.4447 -2.8234
  294MOL0     H39661  -1.905   5.032   7.996  0.4922 -0.7388 -0.0855
  294MOL0     H39662  -2.076   4.929   8.219 -1.9353  0.3987  1.1361
  294MOL0     H39663  -2.041   5.099   8.205 -2.5459  0.5270 -0.6065
  294MOL0     H39664  -2.281   5.010   8.111  1.1361 -3.2905  1.4697
  294MOL0     H39665  -2.180   4.923   7.995  1.1707  0.4500 -2.2144
  294MOL0     H39666  -2.130   5.219   8.014 -0.0858 -0.8504  0.9837
  294MOL0     H39667  -2.140   5.116   7.871  0.7146 -0.0761  0.2559
  294MOL0     H39668  -2.317   5.294   7.901 -3.1661  0.2235 -1.4659
  294MOL0     H39669  -2.368   5.222   8.047 -0.3394 -0.2376 -0.9819
  294MOL0     H39670  -2.511   5.154   7.854  0.6481 -0.6310 -2.0412
  294MOL0     H39671  -2.440   5.001   7.904 -0.8953 -1.2395 -3.8509
  294MOL0     H39672  -1.667   4.930   7.736  0.7352 -1.2031  0.5635
  294MOL0     H39673  -1.456   4.918   7.589  1.5660 -0.7611  0.0423
  294MOL0     H39674  -0.978   4.864   7.681 -1.7407  0.3892  0.2042
  294MOL0     H39675  -0.754   4.811   7.616  0.2123  3.0694  2.0863
  294MOL0     H39676   0.942   4.247   7.341  0.2260 -0.3185 -0.5971
  294MOL0     H39677   1.139   4.182   7.446 -0.1117 -1.1469  0.9089
  294MOL0     H39678   1.488   4.257   7.666  1.6431  0.5172 -0.5672
  294MOL0     H39679   1.704   4.173   7.745 -0.5781  1.7941  0.3771
  294MOL0     H39680   1.751   4.003   8.156 -0.7116 -0.8398  0.5651
  294MOL0     H39681   1.736   3.851   8.058 -2.1994  1.7792 -2.8100
  294MOL0     H39682   1.973   3.901   7.980  2.0431  0.2314  0.9869
  294MOL0     H39683   1.947   3.842   8.143 -2.0070 -0.0654  0.4104
  294MOL0     H39684   1.953   4.097   8.214  1.4292  2.4352 -0.5795
  294MOL0     H39685   2.003   4.112   8.033  1.8854 -1.4175 -1.3604
  294MOL0     H39686   2.216   4.096   8.132  0.1827  0.4203 -1.9965
  294MOL0     H39687   2.175   3.928   8.091  0.9165 -0.2994  0.8327
  294MOL0     H39688   2.166   3.919   8.514 -0.6014  0.1124 -0.3127
  294MOL0     H39689   1.503   3.971   8.082 -0.5870 -0.6272 -0.2417
  294MOL0     H39690   1.295   4.060   7.992  1.5945  0.4773  3.6310
  295MOL0     O39691   6.770   0.030   7.119  0.9260  0.7055 -0.2790
  295MOL0     C39692   6.799   0.012   7.002 -0.1735  0.8507  0.1870
  295MOL0     O39693   6.719  -0.012   6.898 -1.1323 -0.4249  0.1894
  295MOL0     C39694   6.583  -0.028   6.915  0.2915 -0.9912 -0.4256
  295MOL0     C39695   6.503   0.067   6.984 -0.4823  0.8704  0.7448
  295MOL0     C39696   6.362   0.045   6.999  0.4567 -0.6263  0.5456
  295MOL0     C39697   6.310  -0.073   6.935 -0.3662 -0.0776 -0.6013
  295MOL0     O39698   6.172  -0.090   6.945  0.1289  0.0733 -0.1250
  295MOL0     C39699   6.117  -0.228   6.945 -0.4368  0.5358  0.0603
  295MOL0     C39700   5.964  -0.226   6.934  0.1152 -0.6002  0.0885
  295MOL0     C39701   5.883  -0.203   7.059  0.5574  0.1199 -0.2799
  295MOL0     C39702   5.738  -0.185   7.013  0.5580  0.0784 -0.7730
  295MOL0     C39703   5.633  -0.196   7.126 -0.8960 -0.0978 -0.6380
  295MOL0     C39704   5.505  -0.141   7.065  0.7241  0.3353 -0.8020
  295MOL0     C39705   5.381  -0.176   7.150 -0.1672 -0.2031  0.3920
  295MOL0     C39706   5.260  -0.076   7.141 -0.1193 -0.1062 -0.0348
  295MOL0     N39707   5.207  -0.061   7.006  0.2629  0.2284  0.0230
  295MOL0     C39708   5.260   0.015   6.905 -0.1755 -0.3883 -0.3554
  295MOL0     C39709   5.159   0.030   6.822 -0.5473  0.1870 -0.0355
  295MOL0     C39710   5.162   0.121   6.702  0.1248  0.1019 -0.5193
  295MOL0     C39711   5.081   0.247   6.747  0.5349  0.9798 -0.2265
  295MOL0     C39712   4.930   0.232   6.725  0.2936  0.1183 -0.2306
  295MOL0     C39713   4.854   0.300   6.842 -0.4303 -0.1235 -1.0917
  295MOL0     O39714   4.727   0.242   6.847 -0.7155  0.9670 -0.3746
  295MOL0     C39715   4.634   0.271   6.748  0.2280  0.1251  0.0751
  295MOL0     C39716   4.649   0.374   6.648  0.1254 -0.2855  0.2482
  295MOL0     C39717   4.532   0.399   6.574  0.1201 -0.7603 -0.5356
  295MOL0     C39718   4.535   0.510   6.473  0.9389  0.4701  0.4191
  295MOL0     C39719   4.411   0.324   6.592  0.8376  0.2830  0.6179
  295MOL0     C39720   4.287   0.331   6.497  0.1539  0.4117  0.3406
  295MOL0     O39721   4.177   0.259   6.540 -0.0258  0.9800 -0.7958
  295MOL0     C39722   4.074   0.226   6.460  0.2730  0.5402 -0.9774
  295MOL0     C39723   4.080   0.190   6.327  0.0217  0.1358 -0.0625
  295MOL0     C39724   3.978   0.138   6.252 -0.6226  0.5516  0.1174
  295MOL0     C39725   3.850   0.133   6.311  0.1497  0.3162  0.4088
  295MOL0     O39726   3.759   0.098   6.221 -0.0407  0.3765 -1.1854
  295MOL0     C39727   3.629   0.062   6.265  0.8356  0.3059  0.0442
  295MOL0     C39728   3.547   0.035   6.145  0.6608 -0.8392  0.1067
  295MOL0     C39729   3.403  -0.007   6.166  0.9661 -0.0036  0.0040
  295MOL0     C39730   3.315  -0.018   6.043 -0.5540  0.0059  0.8268
  295MOL0     C39731   3.157  -0.025   6.049  0.2381 -0.3136 -0.3080
  295MOL0     C39732   3.084   0.015   5.923  0.3615  1.1585  0.5121
  295MOL0     C39733   3.106  -0.082   5.799 -0.8171 -0.4767  0.2501
  295MOL0     C39734   3.003  -0.057   5.682  0.4848  0.3976  0.7966
  295MOL0    Cl39735   2.837  -0.088   5.728  0.0281  0.5653  0.0461
  295MOL0     C39736   3.831   0.170   6.441  0.4183  0.0106 -0.0877
  295MOL0     C39737   3.943   0.215   6.509  0.3285  0.7549 -0.6895
  295MOL0     O39738   4.285   0.409   6.403  0.1958 -0.5434 -0.1328
  295MOL0     C39739   4.411   0.224   6.681 -0.3810  0.3650 -0.7323
  295MOL0     C39740   4.519   0.198   6.759  0.1467  0.3470 -0.6811
  295MOL0     N39741   5.053  -0.056   6.856 -0.4677  0.0851 -0.4039
  295MOL0     N39742   5.084  -0.098   6.976  0.2652 -0.2202  0.0100
  295MOL0     C39743   6.398  -0.159   6.870  0.6603 -0.9703  0.7510
  295MOL0     C39744   6.528  -0.137   6.855  0.0798 -0.9551  0.4326
  295MOL0     C39745   6.940  -0.016   6.971 -0.0411  0.1067  0.0466
  295MOL0     C39746   7.039  -0.033   7.075 -0.5559  0.3012 -0.8968
  295MOL0     C39747   7.168  -0.067   7.038  0.2356  0.8747 -0.0493
  295MOL0     C39748   7.217  -0.079   6.910  0.5421  0.1783  0.1439
  295MOL0     O39749   7.347  -0.104   6.871  0.6404 -0.6508  0.1179
  295MOL0     C39750   7.406  -0.217   6.927  0.2240  0.3332 -0.4011
  295MOL0     C39751   7.551  -0.193   6.932 -0.8376 -0.3011  0.0605
  295MOL0     C39752   7.605  -0.063   7.003 -0.0546  0.1270  0.4478
  295MOL0     C39753   7.759  -0.045   6.974  0.0845  0.3569  0.1292
  295MOL0     C39754   7.798  -0.050   6.835  0.3340 -0.2845  0.0943
  295MOL0     C39755   7.813  -0.056   6.718  0.4629 -0.0047  0.6874
  295MOL0     C39756   7.115  -0.078   6.811 -0.1169 -0.6920 -1.2879
  295MOL0     C39757   6.983  -0.036   6.843  0.1775  0.1380 -0.0307
  295MOL0     H39758   6.545   0.158   7.026  2.9551 -0.4993  0.6279
  295MOL0     H39759   6.296   0.116   7.048  2.7281  2.2717 -0.3626
  295MOL0     H39760   6.160  -0.282   6.861  0.9369  2.5198 -0.5744
  295MOL0     H39761   6.155  -0.271   7.038  0.3229 -1.5170 -1.1477
  295MOL0     H39762   5.940  -0.156   6.853 -1.1603 -0.9617  0.1309
  295MOL0     H39763   5.952  -0.329   6.898  0.4089  0.4675 -3.5439
  295MOL0     H39764   5.870  -0.294   7.120 -0.2854  2.7130  3.8329
  295MOL0     H39765   5.922  -0.126   7.127  0.2606 -0.3348  0.4211
  295MOL0     H39766   5.726  -0.086   6.968  2.2566  0.6011 -0.1671
  295MOL0     H39767   5.713  -0.268   6.945 -0.2456 -0.1106 -0.2570
  295MOL0     H39768   5.620  -0.298   7.164  2.0328 -0.3277 -0.0517
  295MOL0     H39769   5.673  -0.137   7.209 -0.4262 -0.2452 -0.7589
  295MOL0     H39770   5.516  -0.034   7.044  1.1351  0.2254 -1.1557
  295MOL0     H39771   5.483  -0.187   6.968 -0.6411 -2.2561  0.6288
  295MOL0     H39772   5.349  -0.277   7.123 -0.1355 -0.1324  0.0984
  295MOL0     H39773   5.412  -0.183   7.255 -0.3339  1.9856  0.6311
  295MOL0     H39774   5.294   0.020   7.181 -0.3810 -0.4582  1.0739
  295MOL0     H39775   5.184  -0.123   7.205 -0.1536 -1.3967 -0.9755
  295MOL0     H39776   5.358   0.062   6.898  0.1905 -1.3798 -2.4680
  295MOL0     H39777   5.262   0.153   6.672 -0.1211  1.0217 -0.3926
  295MOL0     H39778   5.117   0.070   6.616 -1.0014 -1.2136  0.7945
  295MOL0     H39779   5.118   0.330   6.686 -1.4605  1.6049 -0.6532
  295MOL0     H39780   5.109   0.267   6.851 -1.8649  0.9822  0.4731
  295MOL0     H39781   4.901   0.127   6.720 -0.2619  0.2508  0.1605
  295MOL0     H39782   4.898   0.281   6.632 -2.4656 -0.6471  0.2359
  295MOL0     H39783   4.852   0.409   6.825 -2.5102 -0.0348 -0.5415
  295MOL0     H39784   4.908   0.271   6.933 -2.7098 -0.5812  0.1876
  295MOL0     H39785   4.727   0.450   6.641 -1.2010  1.9494  5.0044
  295MOL0     H39786   4.620   0.576   6.493  0.0526  1.2634  1.8002
  295MOL0     H39787   4.530   0.473   6.370 -0.7047  1.5959  0.0609
  295MOL0     H39788   4.452   0.579   6.492  0.2992  0.4022 -1.8768
  295MOL0     H39789   4.178   0.187   6.281 -0.5994 -3.2233 -1.4838
  295MOL0     H39790   3.990   0.090   6.155 -2.6903 -3.0825  1.4567
  295MOL0     H39791   3.643  -0.028   6.325  0.7108  1.1824  1.4306
  295MOL0     H39792   3.579   0.140   6.323 -0.6845 -0.2356 -0.4947
  295MOL0     H39793   3.559   0.132   6.096  1.4678  0.3653  2.4945
  295MOL0     H39794   3.589  -0.041   6.079  0.7197 -0.3036 -0.4852
  295MOL0     H39795   3.354   0.064   6.233 -1.7157 -0.6550 -1.1320
  295MOL0     H39796   3.405  -0.107   6.210  0.3862  0.6045  1.4629
  295MOL0     H39797   3.341   0.076   5.992  1.6238 -1.3074 -0.6825
  295MOL0     H39798   3.345  -0.091   5.967  2.2304  1.8818 -0.0547
  295MOL0     H39799   3.127   0.044   6.129  1.0815  0.3191 -0.5202
  295MOL0     H39800   3.128  -0.122   6.091 -0.9984  0.0922 -0.1789
  295MOL0     H39801   2.977   0.015   5.947 -0.1653 -2.9656 -1.0198
  295MOL0     H39802   3.110   0.118   5.895  2.0865  0.2430 -1.5100
  295MOL0     H39803   3.099  -0.185   5.833  0.0549 -0.0885  1.7116
  295MOL0     H39804   3.206  -0.061   5.763 -0.5546 -0.5808  0.8982
  295MOL0     H39805   3.030  -0.130   5.605 -0.4210  0.4365  0.4207
  295MOL0     H39806   3.018   0.037   5.628  0.6943  0.5433  1.1127
  295MOL0     H39807   3.738   0.145   6.491  1.2664 -1.7845  0.6900
  295MOL0     H39808   3.937   0.246   6.613  1.3303  0.3333 -0.4927
  295MOL0     H39809   4.326   0.158   6.699  0.8609 -1.0222  0.2931
  295MOL0     H39810   4.505   0.123   6.836 -2.5334  2.1398  0.7479
  295MOL0     H39811   6.355  -0.247   6.823  0.9232 -1.7712  1.9764
  295MOL0     H39812   6.588  -0.201   6.790 -0.6112 -0.6578 -0.5280
  295MOL0     H39813   7.022  -0.026   7.182 -0.0871  0.8992 -0.8562
  295MOL0     H39814   7.238  -0.079   7.120  2.2474  0.2052 -1.7650
  295MOL0     H39815   7.362  -0.253   7.021  3.2038  0.1591  1.0526
  295MOL0     H39816   7.393  -0.301   6.858 -0.2434  0.9206 -1.0345
  295MOL0     H39817   7.580  -0.199   6.827 -3.1027 -1.6500 -0.5557
  295MOL0     H39818   7.592  -0.278   6.988  0.7522 -1.2701 -2.4076
  295MOL0     H39819   7.583  -0.069   7.110 -0.3699  0.2434  0.3892
  295MOL0     H39820   7.553   0.018   6.950 -1.3064 -3.2645 -4.0946
  295MOL0     H39821   7.809  -0.127   7.026  2.0987  0.4534 -1.5117
  295MOL0     H39822   7.798   0.044   7.022  2.3109 -0.9491  0.8751
  295MOL0     H39823   7.826  -0.070   6.613  3.7867 -1.0129  1.1223
  295MOL0     H39824   7.145  -0.093   6.707 -0.3495  0.8094 -1.5906
  295MOL0     H39825   6.922  -0.018   6.755 -0.5626  0.2194  0.4900
  296MOL0     O39826   0.390   5.665  10.470  0.0893  0.6937 -0.3377
  296MOL0     C39827   0.395   5.568  10.546  0.4631 -0.1111 -0.6025
  296MOL0     O39828   0.283   5.504  10.588 -0.1129 -0.2195  0.3522
  296MOL0     C39829   0.155   5.543  10.554  0.6153 -0.4557 -0.3374
  296MOL0     C39830   0.110   5.641  10.471 -1.1471 -0.1469 -0.5980
  296MOL0     C39831  -0.022   5.667  10.455 -0.0129 -0.0755  0.6075
  296MOL0     C39832  -0.117   5.599  10.532 -0.0795 -0.1514 -0.0544
  296MOL0     O39833  -0.250   5.604  10.514  0.6679 -0.5334 -0.5671
  296MOL0     C39834  -0.312   5.674  10.410 -0.3382 -1.1104  0.7229
  296MOL0     C39835  -0.468   5.664  10.430 -0.6122  0.6457  0.2472
  296MOL0     C39836  -0.524   5.532  10.391 -0.2936 -0.4629 -0.0452
  296MOL0     C39837  -0.676   5.532  10.418 -0.9544  0.0480 -0.0593
  296MOL0     C39838  -0.745   5.454  10.306 -0.7445 -0.4176 -0.3074
  296MOL0     C39839  -0.881   5.402  10.356  0.6005  0.0287  0.7486
  296MOL0     C39840  -0.994   5.500  10.322 -0.4558 -0.0947 -0.0132
  296MOL0     C39841  -1.131   5.469  10.399 -0.5000  1.0505 -0.0862
  296MOL0     N39842  -1.221   5.578  10.408  0.3839  0.2768  0.1189
  296MOL0     C39843  -1.292   5.625  10.297  0.4465  0.1869  0.4554
  296MOL0     C39844  -1.340   5.747  10.342  0.2058  0.6807  0.2727
  296MOL0     C39845  -1.407   5.857  10.275  0.0838  0.5404  0.3925
  296MOL0     C39846  -1.554   5.824  10.244  0.5224 -0.2702 -0.2719
  296MOL0     C39847  -1.610   5.939  10.164  0.6189  0.3734  0.6995
  296MOL0     C39848  -1.753   5.899  10.129  1.2039 -0.7446  0.6583
  296MOL0     O39849  -1.848   5.939  10.234 -0.0614  0.3422 -0.0097
  296MOL0     C39850  -1.973   5.882  10.248 -0.2699  0.5694  0.9711
  296MOL0     C39851  -2.074   5.962  10.292  0.5326  0.3516 -0.1906
  296MOL0     C39852  -2.208   5.912  10.319  0.2596 -0.5427  1.1354
  296MOL0     C39853  -2.308   6.014  10.368  1.0008  0.1239  0.0595
  296MOL0     C39854  -2.244   5.782  10.291 -1.1073  0.0727 -0.3538
  296MOL0     C39855  -2.382   5.733  10.321  0.1424  0.6384 -0.7696
  296MOL0     O39856  -2.463   5.792  10.415  0.1654  0.7947  0.1239
  296MOL0     C39857  -2.563   5.731  10.476  0.6080  0.0245 -0.9908
  296MOL0     C39858  -2.564   5.603  10.530  0.1138 -0.1814  0.2953
  296MOL0     C39859  -2.680   5.555  10.592 -0.6608 -0.0346  0.2529
  296MOL0     C39860  -2.794   5.631  10.617  0.2582 -0.9500  0.3768
  296MOL0     O39861  -2.889   5.577  10.699  0.0005 -0.6487  0.3549
  296MOL0     C39862  -2.899   5.623  10.839 -0.0716  1.1055 -0.7511
  296MOL0     C39863  -3.038   5.591  10.891 -0.3323  0.2653 -0.3769
  296MOL0     C39864  -3.148   5.664  10.825  0.0746 -0.1724  0.5029
  296MOL0     C39865  -3.282   5.639  10.887  0.1613 -0.7219  0.4313
  296MOL0     C39866  -3.396   5.706  10.817  0.5968 -0.3430  1.2475
  296MOL0     C39867  -3.539   5.675  10.880 -0.3505 -1.3966  0.8227
  296MOL0     C39868  -3.582   5.532  10.842  0.2549 -0.8887 -0.5915
  296MOL0     C39869  -3.732   5.530  10.874 -0.6621 -0.1403  0.8377
  296MOL0    Cl39870  -3.786   5.377  10.813 -0.1102 -0.1771  0.6907
  296MOL0     C39871  -2.792   5.766  10.574 -0.7998 -0.0970 -0.4759
  296MOL0     C39872  -2.680   5.810  10.499  0.0966 -0.2180 -0.4654
  296MOL0     O39873  -2.404   5.627  10.265  0.6630  0.6736  0.1780
  296MOL0     C39874  -2.141   5.706  10.231  0.1994  0.3892  1.1528
  296MOL0     C39875  -2.014   5.754  10.208 -0.0092  0.1074  0.8944
  296MOL0     N39876  -1.308   5.772  10.471 -0.5736  0.3105 -0.7238
  296MOL0     N39877  -1.234   5.670  10.514 -0.2544 -0.0441  0.2924
  296MOL0     C39878  -0.079   5.491  10.612  0.3733 -0.5571 -1.0466
  296MOL0     C39879   0.059   5.466  10.631  0.1158  0.4254 -0.6909
  296MOL0     C39880   0.535   5.531  10.595 -0.7455  0.3484  0.0178
  296MOL0     C39881   0.648   5.598  10.561  0.4898  0.2048 -0.7458
  296MOL0     C39882   0.769   5.572  10.624 -0.0231 -0.2262  0.3134
  296MOL0     C39883   0.775   5.483  10.729 -0.3610  0.1580  0.7560
  296MOL0     O39884   0.900   5.464  10.789  0.5620 -0.1069  0.4526
  296MOL0     C39885   0.897   5.373  10.897 -0.0887 -0.2764  0.0697
  296MOL0     C39886   1.037   5.360  10.949  0.6480  0.2729  0.7437
  296MOL0     C39887   1.130   5.274  10.847 -0.2801  1.1370  0.2659
  296MOL0     C39888   1.205   5.359  10.743 -0.6150 -0.3334 -0.6192
  296MOL0     C39889   1.304   5.444  10.807  0.0797 -0.1228  0.1623
  296MOL0     C39890   1.373   5.524  10.869  0.1180 -0.0326 -0.8048
  296MOL0     C39891   0.654   5.416  10.767 -0.6190  0.1362 -0.2184
  296MOL0     C39892   0.537   5.432  10.696 -0.5888 -0.0715 -0.0124
  296MOL0     H39893   0.173   5.710  10.416 -1.6395  1.1520  0.3935
  296MOL0     H39894  -0.052   5.740  10.380  1.7911  3.8759  3.3597
  296MOL0     H39895  -0.285   5.780  10.411  1.3271 -1.5014  0.3287
  296MOL0     H39896  -0.286   5.635  10.311  0.8439  3.5995 -1.0902
  296MOL0     H39897  -0.491   5.687  10.534 -0.4066  1.1102  0.1882
  296MOL0     H39898  -0.500   5.745  10.364 -1.7845 -0.2429 -0.3132
  296MOL0     H39899  -0.501   5.504  10.288  0.3749  0.9699 -0.3170
  296MOL0     H39900  -0.470   5.454  10.445  0.8477  2.0944  2.8732
  296MOL0     H39901  -0.693   5.480  10.512  2.2734  1.5900  1.5378
  296MOL0     H39902  -0.710   5.636  10.424  1.6274  1.0133 -0.6856
  296MOL0     H39903  -0.756   5.517  10.217 -0.2262 -1.1698 -0.9129
  296MOL0     H39904  -0.683   5.369  10.277 -1.0585 -0.6345 -0.3482
  296MOL0     H39905  -0.897   5.307  10.303  1.1328 -1.2622  2.7815
  296MOL0     H39906  -0.881   5.384  10.464 -1.4834  1.2257  0.9907
  296MOL0     H39907  -0.965   5.599  10.359 -0.5851  0.4990 -1.4422
  296MOL0     H39908  -0.995   5.498  10.213  0.2696  1.0422 -0.0668
  296MOL0     H39909  -1.114   5.442  10.504  0.2556 -0.9250 -0.6680
  296MOL0     H39910  -1.177   5.373  10.377 -1.6856  1.5359  0.1835
  296MOL0     H39911  -1.323   5.584  10.201 -0.4184  1.8078  0.0070
  296MOL0     H39912  -1.400   5.945  10.339  1.6671  0.5598  0.2247
  296MOL0     H39913  -1.350   5.882  10.185  0.7008 -2.3008 -0.0890
  296MOL0     H39914  -1.611   5.806  10.335 -1.4439 -0.9532 -1.5659
  296MOL0     H39915  -1.556   5.731  10.187  1.5694  0.3596 -1.3915
  296MOL0     H39916  -1.555   5.939  10.069 -0.3176 -2.4159  0.0532
  296MOL0     H39917  -1.606   6.033  10.219  0.7416  0.9306 -0.2444
  296MOL0     H39918  -1.764   5.792  10.108 -2.4174  0.0272 -2.4946
  296MOL0     H39919  -1.785   5.949  10.037  0.4144 -3.3106 -0.5528
  296MOL0     H39920  -2.042   6.065  10.300  3.7209 -0.6275  1.0533
  296MOL0     H39921  -2.398   6.022  10.306 -0.6531 -2.4167  1.9199
  296MOL0     H39922  -2.347   5.978  10.463 -1.5785  0.6754 -0.7177
  296MOL0     H39923  -2.261   6.110  10.389 -0.2435 -0.0293  4.4773
  296MOL0     H39924  -2.485   5.534  10.503  1.7397  1.3387  1.0310
  296MOL0     H39925  -2.691   5.452  10.624 -0.9613 -0.0966 -0.0355
  296MOL0     H39926  -2.822   5.568  10.894 -2.2329 -2.1287 -0.7046
  296MOL0     H39927  -2.882   5.730  10.856  2.1190  0.6128  0.4961
  296MOL0     H39928  -3.064   5.488  10.865 -2.3431  0.0876  1.9970
  296MOL0     H39929  -3.038   5.598  11.001  2.7653 -0.2766 -0.2613
  296MOL0     H39930  -3.148   5.640  10.718 -0.2838 -0.7241  0.6241
  296MOL0     H39931  -3.127   5.772  10.823 -0.8679  0.0838 -3.3225
  296MOL0     H39932  -3.300   5.531  10.887  1.6406 -0.9840  0.0065
  296MOL0     H39933  -3.279   5.670  10.992  2.7433 -1.7117  0.7116
  296MOL0     H39934  -3.390   5.675  10.712  2.4405 -1.4120  1.6233
  296MOL0     H39935  -3.396   5.815  10.823 -1.3145 -0.2320  0.1840
  296MOL0     H39936  -3.536   5.694  10.988  1.3189  0.6333  0.4677
  296MOL0     H39937  -3.599   5.753  10.833  1.9937  1.4874  2.2910
  296MOL0     H39938  -3.526   5.463  10.906  0.9862 -0.2599 -0.5536
  296MOL0     H39939  -3.561   5.512  10.737  2.9665 -0.9168 -0.1087
  296MOL0     H39940  -3.787   5.607  10.819 -3.3889 -1.5760  1.3945
  296MOL0     H39941  -3.755   5.537  10.980 -1.5092 -0.3710  0.6762
  296MOL0     H39942  -2.877   5.833  10.579 -1.6762 -1.1802 -0.2692
  296MOL0     H39943  -2.666   5.912  10.467  3.6809 -1.0293 -1.9407
  296MOL0     H39944  -2.161   5.601  10.210 -2.9585  0.8411  1.4328
  296MOL0     H39945  -1.953   5.675  10.164 -3.5103 -1.2884 -1.9199
  296MOL0     H39946  -0.152   5.437  10.672 -1.0415  2.6767  0.3539
  296MOL0     H39947   0.097   5.392  10.700  0.9996  0.9584 -0.5965
  296MOL0     H39948   0.640   5.667  10.478  2.0313  2.7062  1.0680
  296MOL0     H39949   0.857   5.628  10.594 -1.3993  1.4745 -0.7471
  296MOL0     H39950   0.823   5.418  10.964 -0.9355  0.1385 -1.0911
  296MOL0     H39951   0.863   5.272  10.873  2.1543 -0.9436 -0.4670
  296MOL0     H39952   1.033   5.299  11.040  1.0557  0.0488  0.6169
  296MOL0     H39953   1.079   5.456  10.981  3.0709 -0.0629 -1.1296
  296MOL0     H39954   1.070   5.204  10.788  0.7093  0.0366  0.5300
  296MOL0     H39955   1.208   5.208  10.885  0.7261  0.3392 -2.8198
  296MOL0     H39956   1.129   5.409  10.683 -0.5348  0.0648 -0.3908
  296MOL0     H39957   1.266   5.295  10.678  1.2717  1.1330 -0.3949
  296MOL0     H39958   1.436   5.591  10.925  1.5376 -2.1090  0.2216
  296MOL0     H39959   0.656   5.343  10.848 -0.5325 -1.8266 -1.9213
  296MOL0     H39960   0.446   5.380  10.725 -1.0096  1.0120  0.6921
  297MOL0     O39961   3.006   1.365   6.381  0.0858  0.0216 -0.3544
  297MOL0     C39962   3.058   1.340   6.271 -0.6231 -0.4108  0.3842
  297MOL0     O39963   3.001   1.295   6.160  0.1040 -0.4201 -0.5025
  297MOL0     C39964   2.861   1.273   6.170  0.2611 -0.5328  0.6270
  297MOL0     C39965   2.826   1.144   6.151 -0.3762 -0.8764  0.9661
  297MOL0     C39966   2.693   1.117   6.163 -0.5053 -0.1059  0.6809
  297MOL0     C39967   2.595   1.214   6.188  0.1196 -0.0615 -0.3845
  297MOL0     O39968   2.460   1.181   6.193  1.4078  0.9692 -0.2474
  297MOL0     C39969   2.403   1.136   6.070 -0.7153 -0.0988 -0.0816
  297MOL0     C39970   2.405   0.984   6.049 -0.5470 -0.2981  0.2408
  297MOL0     C39971   2.275   0.940   5.995  0.4309  0.0739  0.8312
  297MOL0     C39972   2.154   0.940   6.092 -0.7657  0.3547  1.1234
  297MOL0     C39973   2.038   0.860   6.028  0.1274 -0.0697  0.7952
  297MOL0     C39974   1.905   0.899   6.111 -0.2239  0.6951 -0.3099
  297MOL0     C39975   1.782   0.840   6.046  0.7545  0.3208  0.5206
  297MOL0     C39976   1.654   0.919   6.070  0.3802 -0.2348  0.1688
  297MOL0     N39977   1.535   0.851   5.999 -0.3088  0.4675 -0.0280
  297MOL0     C39978   1.466   0.738   6.030 -0.7474 -0.0164  0.9617
  297MOL0     C39979   1.362   0.722   5.947 -0.2231 -0.1864  0.0899
  297MOL0     C39980   1.242   0.629   5.974 -0.2612 -0.8928 -0.2556
  297MOL0     C39981   1.246   0.492   5.895 -0.2432 -0.1915 -0.1321
  297MOL0     C39982   1.345   0.401   5.959 -1.2653  0.5584 -0.0534
  297MOL0     C39983   1.332   0.262   5.898 -0.2680  1.0473  0.1165
  297MOL0     O39984   1.453   0.183   5.905  0.1789 -0.3420  0.1874
  297MOL0     C39985   1.535   0.190   5.794 -0.4218 -0.0603  0.4502
  297MOL0     C39986   1.643   0.112   5.822 -0.2661  0.6563 -0.0751
  297MOL0     C39987   1.750   0.114   5.736 -0.3852  0.4521 -0.7165
  297MOL0     C39988   1.877   0.043   5.778 -0.5950 -0.0225  0.5165
  297MOL0     C39989   1.740   0.179   5.606  0.5098  0.1173 -0.7734
  297MOL0     C39990   1.852   0.181   5.517 -0.1951 -0.5690 -0.4334
  297MOL0     O39991   1.824   0.178   5.384  0.1601  0.1579 -0.0822
  297MOL0     C39992   1.934   0.187   5.297  0.5998  0.1283  0.0112
  297MOL0     C39993   2.046   0.105   5.290  0.3833 -0.0051 -0.3616
  297MOL0     C39994   2.140   0.121   5.189 -0.0981  0.0170 -0.0339
  297MOL0     C39995   2.121   0.219   5.093 -0.1067 -0.4440 -0.5855
  297MOL0     O39996   2.207   0.235   4.987  0.8071 -0.9197 -0.1137
  297MOL0     C39997   2.329   0.147   4.969  1.1271  0.1635  0.0056
  297MOL0     C39998   2.453   0.193   5.050 -0.7599  0.7869 -0.5106
  297MOL0     C39999   2.567   0.086   5.033 -0.0695 -0.7129 -0.4445
  297MOL0     C40000   2.553  -0.021   5.138 -0.2147  0.3090 -0.0549
  297MOL0     C40001   2.682  -0.099   5.145 -0.8145 -0.1638  0.1579
  297MOL0     C40002   2.691  -0.203   5.262 -0.7012 -0.6480 -0.4296
  297MOL0     C40003   2.841  -0.229   5.288 -0.3447  0.1861 -0.3884
  297MOL0     C40004   2.863  -0.335   5.399 -0.2320  0.7867  0.1135
  297MOL0    Cl40005   3.027  -0.367   5.452  0.2589  0.3244  0.0237
  297MOL0     C40006   2.021   0.309   5.105 -0.8567 -0.4484 -0.6326
  297MOL0     C40007   1.925   0.295   5.209  0.8183  0.4872 -0.2855
  297MOL0     O40008   1.967   0.187   5.565  0.2046 -0.9618 -0.3036
  297MOL0     C40009   1.619   0.246   5.573  0.0518  0.3084  0.4150
  297MOL0     C40010   1.517   0.260   5.677 -0.2751  0.4240 -0.1737
  297MOL0     N40011   1.373   0.833   5.867 -0.2653  0.3270  0.3206
  297MOL0     N40012   1.475   0.906   5.895 -0.1770 -0.4609 -0.0375
  297MOL0     C40013   2.628   1.345   6.220  0.8091 -0.0106  0.1328
  297MOL0     C40014   2.764   1.374   6.210  0.5574 -0.1083 -0.7340
  297MOL0     C40015   3.205   1.370   6.267  0.7461 -0.6765 -0.0492
  297MOL0     C40016   3.263   1.463   6.357  0.3068 -0.1191  0.0626
  297MOL0     C40017   3.389   1.500   6.340  0.1513  1.1193  0.4707
  297MOL0     C40018   3.473   1.430   6.244  0.2934  0.3827  0.1528
  297MOL0     O40019   3.610   1.441   6.235  0.1389  0.0263  0.4218
  297MOL0     C40020   3.684   1.487   6.350  0.2979  0.0239  0.9598
  297MOL0     C40021   3.830   1.498   6.335  0.9361 -0.7194 -0.4940
  297MOL0     C40022   3.864   1.546   6.199  0.8570  0.1358 -0.1412
  297MOL0     C40023   4.007   1.587   6.178  0.2546  0.4347 -1.0437
  297MOL0     C40024   4.042   1.710   6.254 -0.0698  0.1744 -0.2702
  297MOL0     C40025   4.106   1.801   6.303 -0.6954  0.6104 -0.3741
  297MOL0     C40026   3.422   1.331   6.166  0.7684  0.8479  0.9160
  297MOL0     C40027   3.283   1.297   6.180 -0.5001 -0.3828 -0.9710
  297MOL0     H40028   2.903   1.073   6.124  1.4086  1.4397 -0.4673
  297MOL0     H40029   2.679   1.010   6.159  2.2407 -0.5174 -0.9921
  297MOL0     H40030   2.306   1.185   6.075 -0.2531  1.2103 -2.3649
  297MOL0     H40031   2.465   1.182   5.991  0.2497  1.3488  1.4511
  297MOL0     H40032   2.476   0.952   5.972 -0.1264  0.3089  0.3651
  297MOL0     H40033   2.445   0.942   6.141  2.2496  0.8471 -0.3440
  297MOL0     H40034   2.243   0.998   5.908  0.5158  0.4365  1.0397
  297MOL0     H40035   2.295   0.836   5.968  0.1151 -0.3474  2.1693
  297MOL0     H40036   2.176   0.902   6.192 -2.9256 -0.9597  1.1613
  297MOL0     H40037   2.124   1.045   6.092  1.4509  1.4021 -4.8409
  297MOL0     H40038   2.015   0.887   5.924 -0.3153 -0.5148  0.7767
  297MOL0     H40039   2.065   0.754   6.026 -2.9506 -1.0082 -2.2515
  297MOL0     H40040   1.906   0.861   6.214 -0.4012  0.5853 -0.3476
  297MOL0     H40041   1.896   1.008   6.118 -0.2948  0.6637  0.1434
  297MOL0     H40042   1.791   0.831   5.937  0.5352  0.0816  0.5201
  297MOL0     H40043   1.770   0.741   6.092 -0.6858  0.3741  0.3004
  297MOL0     H40044   1.674   1.018   6.028  2.3350  0.5416  2.6493
  297MOL0     H40045   1.617   0.926   6.173 -1.8833 -1.3897 -0.4982
  297MOL0     H40046   1.493   0.674   6.113  1.4901  0.4492  0.6612
  297MOL0     H40047   1.238   0.622   6.083 -1.0480  1.0280 -0.1208
  297MOL0     H40048   1.153   0.685   5.945  0.8405  0.7732 -0.5542
  297MOL0     H40049   1.267   0.516   5.790  1.7808 -0.2975  0.2068
  297MOL0     H40050   1.145   0.449   5.899  0.3501 -1.5155  1.7971
  297MOL0     H40051   1.330   0.400   6.067 -2.7310 -0.6620 -0.2401
  297MOL0     H40052   1.444   0.440   5.933 -1.1418 -0.2447 -0.8492
  297MOL0     H40053   1.290   0.270   5.797 -0.3877  1.1168  0.1717
  297MOL0     H40054   1.261   0.211   5.963 -0.4566  2.7244  1.2853
  297MOL0     H40055   1.639   0.047   5.909  2.8326 -0.2107 -0.4620
  297MOL0     H40056   1.963   0.109   5.794 -0.2383 -1.0107  3.0937
  297MOL0     H40057   1.859  -0.020   5.866 -2.5229 -0.7345 -0.3253
  297MOL0     H40058   1.919  -0.016   5.696  0.4490  1.0476  0.2426
  297MOL0     H40059   2.063   0.026   5.362  0.3235 -0.6929 -1.0861
  297MOL0     H40060   2.217   0.045   5.187 -2.1623 -2.1634  0.3015
  297MOL0     H40061   2.313   0.040   4.985  1.0054  0.1354 -0.3001
  297MOL0     H40062   2.355   0.149   4.863  0.3058 -1.7352 -0.2722
  297MOL0     H40063   2.489   0.288   5.010  0.7341  0.3632 -0.2467
  297MOL0     H40064   2.439   0.205   5.158  0.9199  3.4497 -0.5046
  297MOL0     H40065   2.658   0.144   5.052 -0.2163 -0.2944 -0.9753
  297MOL0     H40066   2.571   0.041   4.933 -0.0779 -2.5609  0.3543
  297MOL0     H40067   2.523   0.011   5.238  0.5484  1.5082 -0.1897
  297MOL0     H40068   2.479  -0.091   5.098  0.6913 -0.4684 -0.3881
  297MOL0     H40069   2.754  -0.018   5.158 -1.9442  0.6013  2.0928
  297MOL0     H40070   2.687  -0.158   5.053 -2.0546  0.6974 -0.4981
  297MOL0     H40071   2.641  -0.164   5.351 -0.6531 -0.6114 -0.4187
  297MOL0     H40072   2.637  -0.294   5.233  0.2935 -0.7823 -1.9612
  297MOL0     H40073   2.890  -0.137   5.321 -1.0052 -0.2943  2.0787
  297MOL0     H40074   2.871  -0.279   5.195 -0.2626  0.8673 -0.7354
  297MOL0     H40075   2.827  -0.430   5.358  3.5875 -0.8121  0.0321
  297MOL0     H40076   2.799  -0.307   5.483 -2.5805 -0.8072 -1.0242
  297MOL0     H40077   2.007   0.396   5.042  2.1608  2.0306  1.7916
  297MOL0     H40078   1.842   0.364   5.225 -1.0387 -1.2902 -1.7507
  297MOL0     H40079   1.613   0.302   5.481  2.3608  0.7868  0.5017
  297MOL0     H40080   1.429   0.317   5.653 -2.0818 -2.5560 -1.2243
  297MOL0     H40081   2.549   1.416   6.240 -0.3550 -1.3729  0.5232
  297MOL0     H40082   2.801   1.474   6.231 -1.9377  1.6028 -3.7217
  297MOL0     H40083   3.205   1.522   6.427 -0.1870  0.2235 -0.6166
  297MOL0     H40084   3.427   1.576   6.407  0.5622  0.8097  0.5961
  297MOL0     H40085   3.648   1.589   6.370  1.7387  0.9778 -0.9177
  297MOL0     H40086   3.659   1.428   6.439  0.8182 -0.7735  0.5864
  297MOL0     H40087   3.881   1.403   6.354  0.9793 -0.8175 -1.1002
  297MOL0     H40088   3.866   1.567   6.412 -2.8195 -0.8535  1.6123
  297MOL0     H40089   3.795   1.628   6.177  0.2920  0.4251  2.3841
  297MOL0     H40090   3.849   1.464   6.128 -0.8260  0.8252 -0.6234
  297MOL0     H40091   4.029   1.588   6.071 -0.3696 -0.6058 -1.2046
  297MOL0     H40092   4.057   1.501   6.223  2.0783  0.9785 -1.9317
  297MOL0     H40093   4.165   1.883   6.337 -1.4545  1.0170  0.0003
  297MOL0     H40094   3.481   1.282   6.089 -3.6962  0.6557 -2.8299
  297MOL0     H40095   3.239   1.224   6.113 -0.5775 -0.2977 -1.0133
  298MOL0     O40096  10.276   7.526   9.644 -0.0286 -0.0609 -0.3814
  298MOL0     C40097  10.349   7.521   9.745  0.4356  0.1245  0.2183
  298MOL0     O40098  10.322   7.582   9.857  0.2031 -0.7792 -0.1616
  298MOL0     C40099  10.210   7.665   9.859 -0.0330  0.1099  0.5514
  298MOL0     C40100  10.095   7.622   9.924  0.9707  0.4311  0.2142
  298MOL0     C40101   9.986   7.711   9.923  0.0311 -0.8102  0.5298
  298MOL0     C40102   9.998   7.838   9.862  0.5014 -0.0129  0.2965
  298MOL0     O40103   9.887   7.922   9.849  0.0505  0.2263 -0.2964
  298MOL0     C40104   9.752   7.887   9.885 -0.0118 -0.3100 -0.9497
  298MOL0     C40105   9.665   8.020   9.878  0.5492 -0.0469  0.3888
  298MOL0     C40106   9.520   7.991   9.888  0.1613  0.4229 -0.1942
  298MOL0     C40107   9.428   8.107   9.858 -0.0041  0.2947 -0.6397
  298MOL0     C40108   9.290   8.063   9.811 -0.1213 -0.1056 -0.1912
  298MOL0     C40109   9.195   8.177   9.760  0.2875  0.4884 -0.6319
  298MOL0     C40110   9.051   8.116   9.732  0.0682  0.5101  0.6993
  298MOL0     C40111   8.969   8.085   9.852 -0.1518  0.1231 -0.4606
  298MOL0     N40112   8.837   8.021   9.821  0.0779 -0.2142  0.7696
  298MOL0     C40113   8.807   7.891   9.773  0.6145  0.5208 -0.6374
  298MOL0     C40114   8.672   7.901   9.750  0.0846  0.5430 -0.7972
  298MOL0     C40115   8.592   7.784   9.690 -0.4373 -0.6602  0.0533
  298MOL0     C40116   8.658   7.732   9.560 -0.5898 -0.3931  0.2583
  298MOL0     C40117   8.584   7.613   9.502  0.6176  0.3331 -0.4272
  298MOL0     C40118   8.607   7.597   9.346  0.5250  0.9574 -0.2623
  298MOL0     O40119   8.538   7.705   9.275 -0.5489 -0.2326 -0.3877
  298MOL0     C40120   8.408   7.680   9.243  0.3289  0.1483 -0.0913
  298MOL0     C40121   8.392   7.579   9.150 -0.7207  0.4133  0.5512
  298MOL0     C40122   8.263   7.549   9.098 -0.1824  0.1948 -0.4145
  298MOL0     C40123   8.262   7.433   9.006 -0.4892 -0.0085  0.7773
  298MOL0     C40124   8.148   7.609   9.145  0.5156  0.4927  0.3553
  298MOL0     C40125   8.011   7.588   9.083 -0.1151 -0.0960  0.0918
  298MOL0     O40126   7.993   7.490   8.986 -0.1761  0.3005  0.4679
  298MOL0     C40127   7.872   7.465   8.920  0.1389  0.0565  0.0430
  298MOL0     C40128   7.874   7.340   8.861  0.3660  0.2939 -0.0284
  298MOL0     C40129   7.779   7.312   8.760 -0.2403  0.1860  0.5001
  298MOL0     C40130   7.677   7.396   8.732 -0.5994  0.4254 -0.5753
  298MOL0     O40131   7.574   7.383   8.637 -0.1875 -0.7735  0.4868
  298MOL0     C40132   7.581   7.275   8.545  0.2873 -0.7691 -0.0564
  298MOL0     C40133   7.490   7.298   8.422 -0.0022 -0.0452 -0.3099
  298MOL0     C40134   7.531   7.422   8.344 -0.4258  0.0251 -0.0656
  298MOL0     C40135   7.464   7.431   8.211  0.5203  0.3939  0.1903
  298MOL0     C40136   7.507   7.548   8.128  0.5894 -0.1805  0.1047
  298MOL0     C40137   7.406   7.576   8.013 -0.1660 -0.6732  0.0181
  298MOL0     C40138   7.479   7.657   7.905 -0.0094 -1.1056 -0.6191
  298MOL0     C40139   7.392   7.668   7.780 -0.1929 -0.2202  0.0507
  298MOL0    Cl40140   7.235   7.751   7.822 -0.0061  0.0917  0.1402
  298MOL0     C40141   7.668   7.515   8.812 -0.3622 -0.2755  0.8361
  298MOL0     C40142   7.768   7.548   8.906  0.0616  0.4854  0.6290
  298MOL0     O40143   7.922   7.658   9.132 -0.1942  0.2637 -0.1741
  298MOL0     C40144   8.163   7.713   9.232 -0.7235 -0.5030 -0.2994
  298MOL0     C40145   8.292   7.748   9.285  1.0653 -0.2583  0.7497
  298MOL0     N40146   8.624   8.018   9.792  0.4359 -0.2177 -0.2675
  298MOL0     N40147   8.718   8.099   9.829  0.2194 -0.2929  0.0711
  298MOL0     C40148  10.115   7.884   9.819 -0.0305  0.5011  0.5139
  298MOL0     C40149  10.225   7.798   9.814  0.9339  0.1206  0.0320
  298MOL0     C40150  10.480   7.454   9.731 -0.0117  0.2213  1.4466
  298MOL0     C40151  10.556   7.410   9.839  1.0917  0.8573 -0.1122
  298MOL0     C40152  10.685   7.359   9.828  0.6386  0.5325  0.9864
  298MOL0     C40153  10.743   7.340   9.704 -0.3035 -0.1157 -0.2891
  298MOL0     O40154  10.868   7.288   9.691 -0.8126  0.4362  0.3857
  298MOL0     C40155  10.904   7.240   9.565  0.2455  1.0390  0.7723
  298MOL0     C40156  10.985   7.336   9.477 -0.0700  0.7015  0.2864
  298MOL0     C40157  11.096   7.419   9.546  0.6132 -0.0172  0.5799
  298MOL0     C40158  11.171   7.497   9.442 -0.5183 -0.3266 -0.1192
  298MOL0     C40159  11.279   7.580   9.502  0.2776 -0.4788 -0.1018
  298MOL0     C40160  11.367   7.625   9.575 -0.3690 -0.1018  0.5150
  298MOL0     C40161  10.673   7.383   9.590  0.5210 -0.2537 -0.2606
  298MOL0     C40162  10.544   7.449   9.603 -0.9979 -0.0275 -0.6339
  298MOL0     H40163  10.083   7.522   9.964 -4.1674  0.4214 -0.6091
  298MOL0     H40164   9.904   7.672   9.982  2.1553 -1.9590  2.9514
  298MOL0     H40165   9.713   7.817   9.811 -1.8579 -1.8762  1.3447
  298MOL0     H40166   9.752   7.845   9.987 -0.0874 -1.2468 -1.3246
  298MOL0     H40167   9.687   8.086   9.963  1.7977  0.0213  0.0414
  298MOL0     H40168   9.688   8.074   9.786  0.1984  1.3994  1.1088
  298MOL0     H40169   9.497   7.906   9.823  0.7517 -0.1628  0.3474
  298MOL0     H40170   9.491   7.953   9.986  2.6753  1.7170  1.1369
  298MOL0     H40171   9.422   8.158   9.955  1.9369 -0.4073 -0.1124
  298MOL0     H40172   9.467   8.176   9.783 -1.9666  0.8962 -1.1828
  298MOL0     H40173   9.289   7.985   9.735  2.4529 -1.1159  0.7027
  298MOL0     H40174   9.250   8.008   9.896 -0.3807 -1.7184 -1.3067
  298MOL0     H40175   9.184   8.248   9.843 -3.3823 -1.3120  0.6355
  298MOL0     H40176   9.255   8.216   9.678  1.5591  0.1630  0.1111
  298MOL0     H40177   8.990   8.187   9.674 -0.5986 -0.7209 -0.1523
  298MOL0     H40178   9.062   8.025   9.673 -0.5910 -0.6423  2.2952
  298MOL0     H40179   8.966   8.170   9.921  1.8411 -0.2317  0.1394
  298MOL0     H40180   9.025   8.020   9.919  1.0690  1.0457 -0.5412
  298MOL0     H40181   8.871   7.807   9.751 -1.5512 -1.0143 -1.4695
  298MOL0     H40182   8.585   7.705   9.766  0.4322  0.0453  0.8921
  298MOL0     H40183   8.492   7.821   9.671  0.3972  1.6726 -0.0897
  298MOL0     H40184   8.761   7.703   9.581 -1.7064 -3.0092  3.0027
  298MOL0     H40185   8.662   7.797   9.472  0.8684 -0.6105  0.1378
  298MOL0     H40186   8.477   7.621   9.523  0.3720 -2.6470 -0.1087
  298MOL0     H40187   8.617   7.522   9.552 -1.7114 -0.6522 -0.5344
  298MOL0     H40188   8.567   7.500   9.315 -0.0929  0.9111  0.6470
  298MOL0     H40189   8.715   7.596   9.328  0.4303 -2.6629 -1.3161
  298MOL0     H40190   8.477   7.524   9.111 -3.4895 -2.5317 -1.9410
  298MOL0     H40191   8.357   7.383   8.984 -0.1800 -0.1091  2.2175
  298MOL0     H40192   8.212   7.342   9.040  0.8450 -0.1724  2.4660
  298MOL0     H40193   8.216   7.466   8.913 -1.8982 -1.8471  0.7726
  298MOL0     H40194   7.962   7.280   8.881  0.2482  1.1284  3.5747
  298MOL0     H40195   7.786   7.218   8.705 -1.8350  1.1981 -1.5568
  298MOL0     H40196   7.683   7.271   8.507  0.4199  0.7004  0.0838
  298MOL0     H40197   7.555   7.195   8.616  0.8791  1.1669  2.4948
  298MOL0     H40198   7.516   7.206   8.368 -1.2849 -0.3798 -0.3835
  298MOL0     H40199   7.383   7.300   8.446  0.2390  0.5810  0.7990
  298MOL0     H40200   7.640   7.426   8.340 -0.4163  3.4093  0.3369
  298MOL0     H40201   7.507   7.513   8.400  2.0930 -0.0542  1.2763
  298MOL0     H40202   7.479   7.338   8.155 -3.5948  0.0672 -0.7163
  298MOL0     H40203   7.355   7.435   8.223  0.3174 -1.7069 -0.4456
  298MOL0     H40204   7.607   7.523   8.092  0.8805  0.7939  0.2016
  298MOL0     H40205   7.509   7.640   8.187 -0.3520  0.6237 -1.0481
  298MOL0     H40206   7.368   7.481   7.973 -1.3779  0.5985 -2.0247
  298MOL0     H40207   7.316   7.625   8.051 -2.5796 -3.9929 -0.9066
  298MOL0     H40208   7.570   7.612   7.865  1.7305  0.4631  1.3331
  298MOL0     H40209   7.508   7.753   7.948  1.1402 -0.5245 -2.5584
  298MOL0     H40210   7.364   7.567   7.750 -1.2174 -0.0323  0.3097
  298MOL0     H40211   7.450   7.712   7.698  0.9603 -0.9251  0.4760
  298MOL0     H40212   7.584   7.583   8.802 -1.9073 -2.3721 -2.1549
  298MOL0     H40213   7.752   7.639   8.962 -1.2756 -0.1556  1.3586
  298MOL0     H40214   8.075   7.765   9.267 -0.7757  0.4541 -1.7764
  298MOL0     H40215   8.311   7.838   9.343  1.6599  1.5927 -2.1067
  298MOL0     H40216  10.130   7.983   9.776  4.2237 -0.1576  0.0010
  298MOL0     H40217  10.321   7.834   9.779  0.9781 -0.5947 -0.6042
  298MOL0     H40218  10.507   7.418   9.936 -0.9733 -0.8568 -0.9288
  298MOL0     H40219  10.742   7.337   9.917  0.2726  1.0847  1.3640
  298MOL0     H40220  10.971   7.155   9.581 -1.0277 -0.5858 -1.8961
  298MOL0     H40221  10.817   7.193   9.519  0.4266  0.1260  1.3324
  298MOL0     H40222  10.909   7.404   9.437 -1.2208 -0.4293  0.5045
  298MOL0     H40223  11.031   7.287   9.391 -1.2462  1.9238 -1.0806
  298MOL0     H40224  11.159   7.341   9.592  1.8474 -0.7280 -2.1124
  298MOL0     H40225  11.057   7.492   9.617  1.4706 -0.4751  1.5680
  298MOL0     H40226  11.107   7.557   9.377 -0.3794 -0.1215 -0.0702
  298MOL0     H40227  11.235   7.438   9.377  0.9929  2.1167 -0.9779
  298MOL0     H40228  11.451   7.661   9.630 -0.6532  0.6709  0.4628
  298MOL0     H40229  10.721   7.389   9.493 -1.3788 -2.4101 -1.4403
  298MOL0     H40230  10.488   7.490   9.520 -2.8433  0.5530  0.8312
  299MOL0     O40231  10.639   4.188   4.950  0.7733 -0.3310 -0.2911
  299MOL0     C40232  10.702   4.098   4.894 -0.7698  0.1846  0.0040
  299MOL0     O40233  10.658   4.011   4.801  0.2833  0.2825  0.1254
  299MOL0     C40234  10.526   4.009   4.768 -0.8950 -0.2995  0.1667
  299MOL0     C40235  10.462   4.122   4.724 -0.0350  0.2694 -0.3800
  299MOL0     C40236  10.325   4.114   4.686  0.2814  0.3206  0.0311
  299MOL0     C40237  10.259   3.994   4.694  0.7615  0.0574  0.4221
  299MOL0     O40238  10.132   3.978   4.646  0.3010  0.8041  0.7417
  299MOL0     C40239  10.042   4.088   4.643  0.2647  0.3372 -0.0199
  299MOL0     C40240   9.902   4.052   4.590  0.1640  0.3296 -0.0811
  299MOL0     C40241   9.840   3.940   4.679 -0.2635 -0.1001 -1.0196
  299MOL0     C40242   9.706   3.887   4.625 -0.2557 -0.6945  0.6005
  299MOL0     C40243   9.631   3.824   4.736  0.8737 -0.4899 -0.7096
  299MOL0     C40244   9.478   3.786   4.690  0.0510 -0.6382  0.3346
  299MOL0     C40245   9.489   3.678   4.579  0.3117 -0.8440 -0.5026
  299MOL0     C40246   9.358   3.599   4.579 -0.0381  0.4349 -0.0581
  299MOL0     N40247   9.336   3.526   4.704 -1.3063 -0.1905 -0.1568
  299MOL0     C40248   9.211   3.505   4.766 -0.0363 -0.0413  0.2031
  299MOL0     C40249   9.241   3.415   4.865  0.3063  0.5912 -0.3978
  299MOL0     C40250   9.154   3.354   4.981 -0.0153  0.5192 -0.6500
  299MOL0     C40251   9.087   3.225   4.933 -0.7580  0.1878 -0.5063
  299MOL0     C40252   9.194   3.125   4.868  1.3790  0.3194 -0.3286
  299MOL0     C40253   9.141   2.984   4.858 -0.0018  0.2858 -0.3428
  299MOL0     O40254   9.028   2.977   4.776  0.5851  0.9647 -0.4873
  299MOL0     C40255   8.899   2.956   4.829 -0.0283  0.7102  0.7726
  299MOL0     C40256   8.867   2.923   4.968  0.1514  1.2015  0.3149
  299MOL0     C40257   8.736   2.888   5.007 -0.4725  1.0546 -0.0186
  299MOL0     C40258   8.723   2.846   5.155  0.1566  0.6516  0.0400
  299MOL0     C40259   8.633   2.881   4.910 -0.2577  0.2736  0.1602
  299MOL0     C40260   8.490   2.852   4.947  0.1375 -0.0044 -0.8488
  299MOL0     O40261   8.399   2.891   4.854  0.3706 -0.3978 -0.0452
  299MOL0     C40262   8.256   2.866   4.869  1.2089  0.1941 -0.3457
  299MOL0     C40263   8.181   2.775   4.796 -0.4509  0.6404 -0.1048
  299MOL0     C40264   8.048   2.759   4.820  0.4275 -0.1011  0.0971
  299MOL0     C40265   7.977   2.852   4.886  0.6831  0.1628  0.0922
  299MOL0     O40266   7.839   2.840   4.883  0.6807  0.0365 -0.0948
  299MOL0     C40267   7.761   2.934   4.962  0.1512  0.2299 -0.7753
  299MOL0     C40268   7.610   2.916   4.925 -0.0011  0.3146 -0.5740
  299MOL0     C40269   7.518   2.991   5.024  0.2706 -0.3590  0.1928
  299MOL0     C40270   7.380   3.023   4.982 -0.2523  0.0624  0.3606
  299MOL0     C40271   7.300   2.918   4.899 -0.0177  0.0694  0.1643
  299MOL0     C40272   7.157   2.963   4.861  0.2995  0.1455  0.6797
  299MOL0     C40273   7.073   2.855   4.795  0.2485 -0.0385  0.2319
  299MOL0     C40274   6.927   2.902   4.758 -0.5905 -0.0674 -0.2569
  299MOL0    Cl40275   6.944   3.014   4.617 -0.1963  0.0457  0.0865
  299MOL0     C40276   8.048   2.927   4.977  0.2429 -0.0901  0.1374
  299MOL0     C40277   8.186   2.938   4.967 -0.3366  0.3819  0.0633
  299MOL0     O40278   8.464   2.794   5.060 -0.2101 -0.8897  0.5530
  299MOL0     C40279   8.665   2.905   4.772 -0.0540  0.1681 -0.2023
  299MOL0     C40280   8.791   2.946   4.732  0.2738 -0.1084 -0.5664
  299MOL0     N40281   9.368   3.366   4.836  0.7651  0.0422  0.5144
  299MOL0     N40282   9.429   3.444   4.754 -1.0912 -0.1015  0.4471
  299MOL0     C40283  10.329   3.881   4.726 -0.2009  0.6131 -0.0285
  299MOL0     C40284  10.463   3.887   4.761 -0.7496 -0.3192  0.0903
  299MOL0     C40285  10.840   4.069   4.942  0.4665 -1.2541  0.4190
  299MOL0     C40286  10.881   4.133   5.062 -0.1452 -0.1794  1.1680
  299MOL0     C40287  11.001   4.098   5.125 -0.2704 -0.3943 -0.2005
  299MOL0     C40288  11.086   4.008   5.073 -0.6939 -1.2087  1.0545
  299MOL0     O40289  11.198   3.980   5.137  0.0232 -0.3150 -0.4279
  299MOL0     C40290  11.300   3.902   5.069  1.1106 -0.0291  0.5989
  299MOL0     C40291  11.424   3.913   5.159  0.0247 -0.4622  0.2319
  299MOL0     C40292  11.446   3.802   5.265  0.2682 -0.3502 -0.9171
  299MOL0     C40293  11.553   3.833   5.375  0.1690  0.8230  0.1202
  299MOL0     C40294  11.687   3.871   5.340  0.8171 -0.6957  0.1386
  299MOL0     C40295  11.804   3.889   5.326 -0.3094  0.2615 -0.2028
  299MOL0     C40296  11.048   3.940   4.950  0.4092 -0.6582 -0.1266
  299MOL0     C40297  10.927   3.977   4.887 -0.7524 -0.0040  0.3988
  299MOL0     H40298  10.528   4.208   4.729  0.9092 -0.4914  0.5574
  299MOL0     H40299  10.278   4.197   4.633  2.4512  0.1195 -2.4045
  299MOL0     H40300  10.026   4.124   4.745  0.3850 -1.6538  0.7349
  299MOL0     H40301  10.065   4.168   4.571 -1.5778  2.4921  1.6576
  299MOL0     H40302   9.829   4.133   4.592  0.5316  0.6603  0.2395
  299MOL0     H40303   9.914   4.015   4.488  2.9755  0.5685  0.0613
  299MOL0     H40304   9.912   3.860   4.697 -1.7729 -1.3557 -0.3028
  299MOL0     H40305   9.809   3.986   4.773 -2.2326 -1.5847 -0.8794
  299MOL0     H40306   9.647   3.969   4.582  0.5801 -1.4000 -2.1493
  299MOL0     H40307   9.729   3.824   4.539 -0.3654  0.0284  0.0254
  299MOL0     H40308   9.686   3.745   4.787 -0.8461 -0.7491  0.8268
  299MOL0     H40309   9.623   3.896   4.818  3.2926  0.2136 -1.0083
  299MOL0     H40310   9.421   3.757   4.779 -0.2923 -1.4519 -0.1477
  299MOL0     H40311   9.439   3.880   4.651  2.0597 -0.4600 -1.4116
  299MOL0     H40312   9.510   3.724   4.483  1.1679 -1.0456 -0.4210
  299MOL0     H40313   9.573   3.610   4.598  1.7461  1.1620  0.7912
  299MOL0     H40314   9.370   3.531   4.494  0.1965  1.7754 -1.1426
  299MOL0     H40315   9.272   3.663   4.557  0.6027  0.5280 -2.6230
  299MOL0     H40316   9.123   3.567   4.752  0.3361  0.9011  1.7862
  299MOL0     H40317   9.215   3.338   5.070 -0.6972  0.8175 -0.1235
  299MOL0     H40318   9.075   3.425   5.005 -1.3220 -0.6777 -1.2899
  299MOL0     H40319   9.008   3.244   4.859 -0.3719 -1.1162 -1.2704
  299MOL0     H40320   9.046   3.179   5.024 -1.1434 -1.0916 -1.3074
  299MOL0     H40321   9.291   3.117   4.918  1.2568 -1.1770 -0.2705
  299MOL0     H40322   9.218   3.170   4.771  1.5582  0.5757 -0.1664
  299MOL0     H40323   9.124   2.937   4.955 -0.4617 -0.8672 -0.9659
  299MOL0     H40324   9.224   2.924   4.821 -0.1364  1.0712 -2.0346
  299MOL0     H40325   8.946   2.917   5.042  1.7254  2.6660 -1.1365
  299MOL0     H40326   8.705   2.738   5.158 -1.5415  0.8986 -0.3668
  299MOL0     H40327   8.817   2.861   5.209  0.9200 -0.1380 -1.0092
  299MOL0     H40328   8.650   2.907   5.208 -0.8362 -0.4126 -0.0622
  299MOL0     H40329   8.230   2.717   4.717  0.4861  1.9877 -0.5462
  299MOL0     H40330   8.002   2.680   4.761 -0.2684  0.7546 -0.5437
  299MOL0     H40331   7.774   2.901   5.065  0.0875 -0.2100 -0.9088
  299MOL0     H40332   7.795   3.037   4.946 -2.5646  2.3194  4.4434
  299MOL0     H40333   7.595   2.963   4.827 -0.0106  0.4461 -0.5096
  299MOL0     H40334   7.584   2.811   4.916  2.1033 -0.2060 -1.3173
  299MOL0     H40335   7.560   3.089   5.048 -1.2817  0.4132 -0.1341
  299MOL0     H40336   7.516   2.935   5.118  0.0101  1.2832  1.1948
  299MOL0     H40337   7.312   3.044   5.066  0.9752 -0.4720  1.5352
  299MOL0     H40338   7.382   3.105   4.910  1.8840  0.7379  1.1196
  299MOL0     H40339   7.300   2.818   4.942  1.2631  1.1852  3.0070
  299MOL0     H40340   7.364   2.916   4.810  1.4388 -0.4258  1.1845
  299MOL0     H40341   7.115   3.002   4.954  1.0534  0.1791  1.0075
  299MOL0     H40342   7.157   3.047   4.790  2.5251 -0.3100  0.0729
  299MOL0     H40343   7.071   2.765   4.858  3.5993 -0.7739 -0.5415
  299MOL0     H40344   7.119   2.833   4.699 -2.1585 -0.9953 -0.7749
  299MOL0     H40345   6.879   2.946   4.846  0.8396 -1.7331  1.4372
  299MOL0     H40346   6.865   2.815   4.733 -1.9777  1.3185 -1.8914
  299MOL0     H40347   7.999   2.992   5.049 -0.6409 -1.0706  0.4443
  299MOL0     H40348   8.244   3.005   5.031 -0.0137 -2.3821  2.9659
  299MOL0     H40349   8.586   2.896   4.698  0.6746  1.9630 -1.2619
  299MOL0     H40350   8.806   2.966   4.627 -1.1284  1.5358 -0.4978
  299MOL0     H40351  10.289   3.781   4.733 -0.0568  0.6944  2.8370
  299MOL0     H40352  10.513   3.791   4.766  0.3280  0.2241  0.0661
  299MOL0     H40353  10.816   4.208   5.105 -1.8200 -1.1541  0.4466
  299MOL0     H40354  11.021   4.147   5.219 -2.3035  0.5379 -0.2159
  299MOL0     H40355  11.271   3.798   5.051  0.5606 -0.7218  4.5195
  299MOL0     H40356  11.334   3.944   4.974 -0.1136  0.1050  0.2105
  299MOL0     H40357  11.431   4.017   5.194 -2.4953  0.2893 -1.2488
  299MOL0     H40358  11.513   3.907   5.096 -2.3470 -0.0620 -3.4535
  299MOL0     H40359  11.481   3.717   5.205 -1.6239  0.1550 -2.8686
  299MOL0     H40360  11.352   3.767   5.309  1.4171 -3.0013 -0.3972
  299MOL0     H40361  11.551   3.754   5.451 -0.1984  1.9147  1.2819
  299MOL0     H40362  11.522   3.927   5.421  1.4935  1.0218  0.6686
  299MOL0     H40363  11.910   3.879   5.313  0.1955 -0.2999  3.1751
  299MOL0     H40364  11.108   3.871   4.892 -0.0501  0.7199 -2.3446
  299MOL0     H40365  10.896   3.922   4.799  0.1015 -1.7295  1.1324
  300MOL0     O40366  10.159   4.192  10.116  0.4263  0.2287 -0.2688
  300MOL0     C40367  10.203   4.102  10.186 -0.8061 -0.4101 -0.0618
  300MOL0     O40368  10.127   4.029  10.277  0.3209  0.1586 -1.0465
  300MOL0     C40369   9.995   4.054  10.277 -1.4081 -0.1951  0.8390
  300MOL0     C40370   9.945   4.120  10.389  0.0059 -1.1346  0.8391
  300MOL0     C40371   9.811   4.148  10.401 -0.3528 -0.1393  0.1763
  300MOL0     C40372   9.726   4.114  10.295 -0.1316 -0.1670 -0.0713
  300MOL0     O40373   9.600   4.172  10.280 -0.1357 -0.3502 -0.2239
  300MOL0     C40374   9.516   4.130  10.383 -0.2615  0.4334 -0.4160
  300MOL0     C40375   9.510   4.239  10.477 -0.3353 -0.2586 -0.5682
  300MOL0     C40376   9.467   4.379  10.419 -1.0475 -0.4175  0.0707
  300MOL0     C40377   9.343   4.369  10.332 -0.2128 -0.7473  0.5527
  300MOL0     C40378   9.276   4.511  10.318  0.4590 -0.2008 -0.1609
  300MOL0     C40379   9.194   4.524  10.197  0.8923  0.8951  0.0603
  300MOL0     C40380   9.159   4.666  10.156 -0.0774 -0.0567 -0.7161
  300MOL0     C40381   9.065   4.725  10.261  0.0320 -0.6418 -0.3385
  300MOL0     N40382   8.922   4.694  10.246  0.6312  0.2862  0.7470
  300MOL0     C40383   8.812   4.770  10.223  0.3205 -0.9617 -0.2755
  300MOL0     C40384   8.706   4.687  10.251 -0.7413  0.1024 -0.5814
  300MOL0     C40385   8.559   4.710  10.224 -0.5102 -0.0271 -0.3838
  300MOL0     C40386   8.503   4.807  10.329 -0.6378 -0.5864 -0.1644
  300MOL0     C40387   8.353   4.820  10.309  0.6167 -0.7676 -0.1528
  300MOL0     C40388   8.283   4.893  10.422 -0.7752  0.4495 -0.7401
  300MOL0     O40389   8.145   4.860  10.436 -0.1958 -0.5444 -0.0751
  300MOL0     C40390   8.056   4.929  10.357 -0.2447  0.3083  0.3056
  300MOL0     C40391   7.930   4.862  10.365  0.1183 -0.6906  0.5469
  300MOL0     C40392   7.806   4.916  10.314 -0.0277  0.2267  0.7964
  300MOL0     C40393   7.680   4.845  10.355 -0.1949  0.5114 -0.4515
  300MOL0     C40394   7.815   5.036  10.238  0.5514  0.4219  0.7152
  300MOL0     C40395   7.695   5.099  10.174 -0.4532 -0.5817  0.6656
  300MOL0     O40396   7.570   5.044  10.167 -0.0659 -0.0312 -0.2496
  300MOL0     C40397   7.469   5.142  10.131 -1.2057  0.1214  0.2324
  300MOL0     C40398   7.356   5.095  10.061 -0.0931 -0.1545  0.7069
  300MOL0     C40399   7.244   5.173  10.020  0.0088  0.7946 -0.1579
  300MOL0     C40400   7.231   5.295  10.081 -0.1050  0.5823  0.1319
  300MOL0     O40401   7.121   5.370  10.071  0.0161 -0.2790 -0.3341
  300MOL0     C40402   7.001   5.318  10.011 -0.6255  1.0726 -0.1314
  300MOL0     C40403   6.902   5.426  10.022  0.1573 -0.2159 -0.0977
  300MOL0     C40404   6.768   5.388   9.960  0.4517 -0.4365  1.3097
  300MOL0     C40405   6.660   5.494   9.981 -0.3105 -0.5141  0.3732
  300MOL0     C40406   6.535   5.459   9.901 -0.3588 -0.4907  0.3407
  300MOL0     C40407   6.429   5.557   9.926  0.1251  0.7954  0.2389
  300MOL0     C40408   6.294   5.503   9.883  1.1371 -1.2422 -0.2686
  300MOL0     C40409   6.182   5.613   9.925 -0.0338  1.2670 -0.0014
  300MOL0    Cl40410   6.027   5.527   9.891 -0.0420  0.0429  0.2816
  300MOL0     C40411   7.343   5.349  10.149 -0.2332  0.5080 -0.9764
  300MOL0     C40412   7.460   5.275  10.167  0.1482  0.3920  0.5796
  300MOL0     O40413   7.731   5.205  10.114 -0.3459 -0.3855  0.4483
  300MOL0     C40414   7.942   5.097  10.230 -0.6331  0.3909  0.0255
  300MOL0     C40415   8.058   5.048  10.286  0.0436  0.1509  0.0709
  300MOL0     N40416   8.756   4.570  10.298  0.3000 -0.8144  0.3468
  300MOL0     N40417   8.886   4.571  10.284  0.1728 -0.4790 -0.6953
  300MOL0     C40418   9.775   4.040  10.186 -0.1425 -0.2953  0.4428
  300MOL0     C40419   9.912   4.005  10.183  0.4777 -0.0233 -0.0024
  300MOL0     C40420  10.343   4.063  10.157  0.0628  0.5774 -0.1253
  300MOL0     C40421  10.405   3.948  10.222 -0.4403 -0.6666 -1.2394
  300MOL0     C40422  10.539   3.921  10.196 -0.2444 -0.3648  0.1558
  300MOL0     C40423  10.612   4.003  10.103 -0.0500  1.2390 -0.7533
  300MOL0     O40424  10.738   3.962  10.096 -0.3167 -0.4884 -0.3977
  300MOL0     C40425  10.833   4.040  10.163 -0.6381  0.0799 -0.1315
  300MOL0     C40426  10.977   3.987  10.153 -0.1523 -0.4832  0.5339
  300MOL0     C40427  11.009   3.843  10.198 -0.5185  0.6450  0.2474
  300MOL0     C40428  11.107   3.765  10.106  0.1940  0.2588  0.3258
  300MOL0     C40429  11.229   3.839  10.085 -0.2554  0.8673 -0.3631
  300MOL0     C40430  11.335   3.905  10.085 -0.1033 -0.5497  0.5257
  300MOL0     C40431  10.561   4.117  10.052  0.0269 -0.4202  0.4754
  300MOL0     C40432  10.427   4.141  10.078 -0.3085 -0.2764  0.1274
  300MOL0     H40433  10.010   4.158  10.467  0.7619  0.4360 -0.4842
  300MOL0     H40434   9.780   4.204  10.488 -1.9167 -1.0729  0.2738
  300MOL0     H40435   9.413   4.111  10.352 -0.8141  0.7359  1.1520
  300MOL0     H40436   9.545   4.036  10.431 -1.4955  0.5797  0.6562
  300MOL0     H40437   9.434   4.219  10.553  0.4277  0.1508  0.3240
  300MOL0     H40438   9.602   4.245  10.536  0.5619 -0.9838 -1.8700
  300MOL0     H40439   9.443   4.448  10.500 -1.4148  2.0087 -1.9778
  300MOL0     H40440   9.554   4.419  10.366 -3.0069  3.4377 -0.6425
  300MOL0     H40441   9.374   4.337  10.232  2.3282  1.8402  0.3731
  300MOL0     H40442   9.281   4.298  10.387 -1.0309 -1.5676 -1.3205
  300MOL0     H40443   9.222   4.536  10.409  1.2688 -1.6484  0.7640
  300MOL0     H40444   9.354   4.588  10.308  1.3265 -1.1800 -1.2941
  300MOL0     H40445   9.244   4.474  10.114  1.8223 -2.4646  2.4416
  300MOL0     H40446   9.106   4.462  10.212 -0.4886  2.6577 -0.3644
  300MOL0     H40447   9.248   4.729  10.147  2.0916 -2.0669  3.9089
  300MOL0     H40448   9.111   4.672  10.057 -0.7949  2.3069 -0.2905
  300MOL0     H40449   9.067   4.835  10.257  0.8688 -0.6293  0.2623
  300MOL0     H40450   9.095   4.685  10.358 -2.4676 -1.2186  0.2591
  300MOL0     H40451   8.816   4.873  10.189 -2.8685  0.3676  2.8024
  300MOL0     H40452   8.545   4.761  10.128  0.2540 -0.5112 -0.7572
  300MOL0     H40453   8.502   4.616  10.231  0.0232 -0.4004 -0.9600
  300MOL0     H40454   8.548   4.905  10.313  0.9350 -0.5166  3.6503
  300MOL0     H40455   8.527   4.762  10.426 -2.2304  0.2131  0.6509
  300MOL0     H40456   8.305   4.722  10.305 -0.2633 -0.4149  1.1964
  300MOL0     H40457   8.329   4.882  10.222 -2.1492  1.3212  1.8866
  300MOL0     H40458   8.289   5.002  10.415 -1.7333  0.9933  3.8456
  300MOL0     H40459   8.322   4.864  10.519 -1.4457  1.0052 -0.2926
  300MOL0     H40460   7.922   4.772  10.424  1.0661  0.3199  2.3242
  300MOL0     H40461   7.697   4.761  10.422 -2.4042  0.5543  0.2411
  300MOL0     H40462   7.602   4.906  10.401 -3.9276 -3.3867 -1.0420
  300MOL0     H40463   7.632   4.796  10.270  2.7535 -3.5861 -0.0590
  300MOL0     H40464   7.372   4.991  10.033  2.2116  0.2745  0.2136
  300MOL0     H40465   7.170   5.123   9.959  2.1954 -0.3719 -2.0299
  300MOL0     H40466   7.020   5.287   9.908 -0.9891  0.3198  0.0238
  300MOL0     H40467   6.972   5.224  10.057 -0.4437  0.5946 -0.9728
  300MOL0     H40468   6.887   5.460  10.125  1.5404 -0.1312  0.1051
  300MOL0     H40469   6.940   5.504   9.955 -1.9549 -0.2279 -1.4187
  300MOL0     H40470   6.760   5.286   9.997 -0.4742 -0.4193  1.1641
  300MOL0     H40471   6.787   5.392   9.853  1.7100  3.8052  1.4896
  300MOL0     H40472   6.631   5.507  10.085  0.1022  2.5370  0.1778
  300MOL0     H40473   6.703   5.587   9.943 -1.0011 -0.5564 -0.5486
  300MOL0     H40474   6.494   5.363   9.933 -1.0745 -0.1400  0.5051
  300MOL0     H40475   6.555   5.444   9.794  3.0859 -0.8428  0.9187
  300MOL0     H40476   6.422   5.575  10.034  0.4343 -0.3105  0.4629
  300MOL0     H40477   6.446   5.651   9.874  1.5167 -0.0784 -0.9689
  300MOL0     H40478   6.282   5.404   9.928  3.2322 -0.8924  1.2444
  300MOL0     H40479   6.303   5.485   9.776 -0.5247  1.4981 -0.9699
  300MOL0     H40480   6.198   5.703   9.864  0.9551 -0.5170 -2.5664
  300MOL0     H40481   6.185   5.635  10.032 -2.8156  1.0729  0.1851
  300MOL0     H40482   7.330   5.449  10.189  1.5696 -0.5853  2.7924
  300MOL0     H40483   7.531   5.327  10.230 -0.9715  1.1124  1.2920
  300MOL0     H40484   7.950   5.190  10.175 -0.9693 -1.0511 -2.6472
  300MOL0     H40485   8.149   5.106  10.297  1.4469 -1.5876 -1.5847
  300MOL0     H40486   9.716   4.017  10.098  0.1723  1.8303 -0.3885
  300MOL0     H40487   9.942   3.942  10.099 -0.1622 -1.8619  1.0890
  300MOL0     H40488  10.348   3.871  10.274  0.3576 -0.1737  0.4139
  300MOL0     H40489  10.584   3.829  10.232  0.0310 -0.3983 -0.2650
  300MOL0     H40490  10.825   4.139  10.117  3.6847  0.1206 -1.2173
  300MOL0     H40491  10.803   4.048  10.268 -3.3279 -1.2719 -0.7152
  300MOL0     H40492  11.051   4.060  10.189  0.0951  0.8549 -2.3889
  300MOL0     H40493  10.994   3.989  10.045 -0.0543 -0.6866  0.5454
  300MOL0     H40494  10.915   3.791  10.218 -0.1078  0.0926  0.7849
  300MOL0     H40495  11.062   3.854  10.293  0.4052 -1.3548  0.0062
  300MOL0     H40496  11.055   3.751  10.011 -1.3244  1.7978  0.8598
  300MOL0     H40497  11.118   3.662  10.139 -2.3457  0.7807  3.3584
  300MOL0     H40498  11.421   3.965  10.068 -0.1844  0.7775  3.9397
  300MOL0     H40499  10.634   4.166   9.989  0.8281 -0.9067  1.0097
  300MOL0     H40500  10.391   4.229  10.023 -0.5913 -0.3005  0.2707
  301MOL0     O40501   4.050   4.108   7.358 -0.1886  0.2690 -0.3311
  301MOL0     C40502   4.061   4.219   7.302  0.3417 -0.1809 -0.7842
  301MOL0     O40503   3.994   4.333   7.340 -0.0363 -0.1951  0.4608
  301MOL0     C40504   3.887   4.316   7.418 -0.5330 -0.0527 -0.1926
  301MOL0     C40505   3.900   4.335   7.560  0.1866 -0.3408  1.4153
  301MOL0     C40506   3.780   4.326   7.632 -0.0138 -0.2330 -0.5517
  301MOL0     C40507   3.653   4.290   7.573 -0.1710  0.3268  0.3465
  301MOL0     O40508   3.549   4.266   7.656  0.3089  0.0738  0.0902
  301MOL0     C40509   3.413   4.260   7.606  0.9773  0.6157  0.2204
  301MOL0     C40510   3.328   4.331   7.698 -0.0557 -0.5217 -0.3501
  301MOL0     C40511   3.179   4.325   7.659 -0.0629  0.5322 -0.3095
  301MOL0     C40512   3.091   4.378   7.766 -0.9528 -0.0451 -0.0835
  301MOL0     C40513   2.937   4.372   7.749 -0.1483  1.0196  0.2909
  301MOL0     C40514   2.858   4.452   7.847  0.0542  0.5188 -0.9935
  301MOL0     C40515   2.707   4.442   7.836  0.7513  0.0996  0.4735
  301MOL0     C40516   2.646   4.563   7.894 -0.1179  0.5157  0.8006
  301MOL0     N40517   2.504   4.559   7.876 -0.1313  0.0298 -0.5568
  301MOL0     C40518   2.424   4.457   7.914  0.4711  0.0686 -0.0762
  301MOL0     C40519   2.313   4.473   7.844  0.7696 -0.1210  0.5683
  301MOL0     C40520   2.195   4.373   7.841 -1.4773  0.0980  0.2867
  301MOL0     C40521   2.075   4.434   7.918 -0.4372 -0.1558  0.0917
  301MOL0     C40522   1.936   4.384   7.870  0.3502  0.4461  0.2357
  301MOL0     C40523   1.827   4.464   7.944  0.2548  0.6066 -0.1028
  301MOL0     O40524   1.710   4.484   7.860  0.2076  0.1114 -0.3425
  301MOL0     C40525   1.611   4.564   7.907 -0.0813 -0.4990 -1.4090
  301MOL0     C40526   1.624   4.650   8.017  0.1513 -0.1965 -0.5496
  301MOL0     C40527   1.520   4.734   8.061  0.0183  0.2128  0.1230
  301MOL0     C40528   1.543   4.815   8.187  0.4498 -0.0288 -0.3797
  301MOL0     C40529   1.395   4.732   7.997  0.5421  0.1587 -0.1544
  301MOL0     C40530   1.271   4.816   8.039  0.6857 -0.2409  0.2523
  301MOL0     O40531   1.296   4.940   8.084 -0.1959  0.6705 -0.6995
  301MOL0     C40532   1.203   5.038   8.089 -0.5288 -0.5810  0.8302
  301MOL0     C40533   1.083   5.046   8.017 -0.1230  0.6334 -0.3448
  301MOL0     C40534   0.994   5.151   8.033  0.3240 -0.6264 -0.3647
  301MOL0     C40535   1.027   5.258   8.119  1.0551  0.1300 -0.6294
  301MOL0     O40536   0.949   5.367   8.130  0.1783  0.0659 -0.7754
  301MOL0     C40537   0.916   5.381   8.267  0.2495 -0.0379  0.3732
  301MOL0     C40538   0.789   5.473   8.278  0.9821  0.5474  0.6129
  301MOL0     C40539   0.672   5.431   8.191 -0.1917  0.2007 -0.0815
  301MOL0     C40540   0.535   5.481   8.227  0.2466 -0.2382 -0.5595
  301MOL0     C40541   0.424   5.409   8.142 -0.2074 -0.6043 -0.3006
  301MOL0     C40542   0.286   5.469   8.176 -0.0884  0.2733  0.5649
  301MOL0     C40543   0.169   5.399   8.099 -0.5339 -0.1938  0.6291
  301MOL0     C40544   0.039   5.473   8.133  0.0254  0.2270  0.6406
  301MOL0    Cl40545  -0.071   5.434   7.994  0.1039 -0.4681 -0.2050
  301MOL0     C40546   1.148   5.253   8.180 -1.2962 -0.5777 -0.4205
  301MOL0     C40547   1.239   5.143   8.172  0.0600 -0.1876 -0.5812
  301MOL0     O40548   1.162   4.764   8.018  0.5011  0.0644  0.1742
  301MOL0     C40549   1.379   4.637   7.896 -0.8625 -0.3422 -0.2307
  301MOL0     C40550   1.482   4.557   7.854  0.0914  0.0687  0.2009
  301MOL0     N40551   2.322   4.593   7.770 -0.4455 -0.2531  0.3744
  301MOL0     N40552   2.437   4.640   7.792 -0.6282  0.2131  0.5824
  301MOL0     C40553   3.655   4.264   7.436  0.0430 -0.2968  0.0998
  301MOL0     C40554   3.772   4.282   7.355 -1.0270  0.9752  0.3671
  301MOL0     C40555   4.179   4.239   7.210  0.7013  0.4905 -0.2096
  301MOL0     C40556   4.253   4.130   7.172  0.2222  0.2361 -0.1566
  301MOL0     C40557   4.379   4.147   7.100  0.2318 -0.2865 -0.4671
  301MOL0     C40558   4.421   4.274   7.056  0.2784  0.2652 -0.1277
  301MOL0     O40559   4.540   4.289   6.984 -0.3468 -0.6455 -0.0071
  301MOL0     C40560   4.597   4.415   6.967 -0.6298  0.4617 -0.0101
  301MOL0     C40561   4.750   4.411   6.970  0.0822 -0.2853 -0.2576
  301MOL0     C40562   4.822   4.424   7.111 -0.2592 -0.2781  0.3323
  301MOL0     C40563   4.959   4.478   7.079  0.1831 -0.4613  0.5067
  301MOL0     C40564   5.047   4.371   7.035  0.5538  0.3649 -0.2280
  301MOL0     C40565   5.122   4.288   6.984  0.5966 -1.4634  0.4929
  301MOL0     C40566   4.342   4.382   7.088 -0.3008 -0.2131 -0.6917
  301MOL0     C40567   4.223   4.365   7.168  0.7993  0.7041  0.7544
  301MOL0     H40568   3.993   4.367   7.607  0.9091 -1.8452  1.0580
  301MOL0     H40569   3.782   4.344   7.739  1.5682  0.7185 -0.7003
  301MOL0     H40570   3.405   4.306   7.507  0.0300 -0.8889 -0.4335
  301MOL0     H40571   3.387   4.155   7.589  0.2226  0.7921  0.2873
  301MOL0     H40572   3.332   4.283   7.796 -0.8487 -0.1000 -0.1108
  301MOL0     H40573   3.371   4.432   7.707  3.7036 -2.1260  2.9386
  301MOL0     H40574   3.158   4.388   7.573  0.7366 -0.6129 -1.3910
  301MOL0     H40575   3.152   4.221   7.635  4.3395 -0.1313 -3.4292
  301MOL0     H40576   3.108   4.327   7.862  2.9159 -0.4532 -0.8480
  301MOL0     H40577   3.118   4.482   7.785 -0.5761  0.1449 -1.6028
  301MOL0     H40578   2.905   4.411   7.652 -1.6111 -0.2873  0.1979
  301MOL0     H40579   2.888   4.274   7.744  1.4727  0.2133 -0.9525
  301MOL0     H40580   2.885   4.411   7.945 -1.2225 -0.1692 -0.9134
  301MOL0     H40581   2.900   4.553   7.840 -0.6296  0.8264 -0.6837
  301MOL0     H40582   2.682   4.428   7.730  2.8642 -1.0055  0.0682
  301MOL0     H40583   2.675   4.351   7.887 -1.0868 -1.6681 -3.3870
  301MOL0     H40584   2.691   4.655   7.855 -2.4384  1.8852  1.1710
  301MOL0     H40585   2.663   4.557   8.002  1.0235  2.0853  0.7429
  301MOL0     H40586   2.451   4.375   7.980 -0.3508 -0.9823 -1.0106
  301MOL0     H40587   2.164   4.363   7.737  0.1266  3.0248 -0.5659
  301MOL0     H40588   2.226   4.275   7.880 -2.8124 -1.0162 -1.2840
  301MOL0     H40589   2.096   4.540   7.899  3.1576 -0.7610 -0.0801
  301MOL0     H40590   2.086   4.404   8.023 -0.6761  1.1394  0.5043
  301MOL0     H40591   1.925   4.278   7.896 -0.9620  0.3874 -0.4719
  301MOL0     H40592   1.925   4.395   7.762  3.2418 -0.5701 -0.2453
  301MOL0     H40593   1.874   4.561   7.963 -0.3758  0.6368  1.4326
  301MOL0     H40594   1.798   4.406   8.031 -1.1363 -3.9272 -3.2184
  301MOL0     H40595   1.711   4.663   8.081  0.9951  4.3977 -2.2107
  301MOL0     H40596   1.517   4.919   8.169 -1.5888 -0.0415  2.0436
  301MOL0     H40597   1.486   4.775   8.271  1.5282 -0.5321  0.1423
  301MOL0     H40598   1.647   4.821   8.222  0.5920  2.5850 -1.0346
  301MOL0     H40599   1.063   4.970   7.942 -0.4220  2.0310 -1.7462
  301MOL0     H40600   0.899   5.168   7.984 -0.5513 -1.4696  0.9673
  301MOL0     H40601   0.902   5.285   8.319  1.1743  1.1175  2.8914
  301MOL0     H40602   0.994   5.436   8.319  0.9780  0.0744 -0.8022
  301MOL0     H40603   0.753   5.471   8.381 -1.3541 -1.1277 -0.1499
  301MOL0     H40604   0.815   5.573   8.242  1.6010 -0.0858 -0.7939
  301MOL0     H40605   0.669   5.322   8.191 -2.4791  0.2030 -1.7604
  301MOL0     H40606   0.696   5.472   8.092  0.5528  4.6966  1.7048
  301MOL0     H40607   0.517   5.457   8.332 -4.0857 -0.0648 -1.0774
  301MOL0     H40608   0.533   5.589   8.207 -1.9320 -0.1479 -0.1944
  301MOL0     H40609   0.434   5.304   8.169  0.9011 -0.0571  1.5768
  301MOL0     H40610   0.449   5.422   8.036 -1.4783  0.0337 -0.5525
  301MOL0     H40611   0.281   5.464   8.285  1.5999  2.5051  0.8382
  301MOL0     H40612   0.291   5.577   8.161 -0.2927  0.1475 -0.5087
  301MOL0     H40613   0.177   5.295   8.131  0.1722  0.1866  1.7533
  301MOL0     H40614   0.191   5.407   7.992  2.5200  1.7639  1.2616
  301MOL0     H40615   0.061   5.580   8.138  1.4240 -0.0545  1.1388
  301MOL0     H40616   0.005   5.443   8.233 -1.9170  0.0618 -0.0336
  301MOL0     H40617   1.181   5.342   8.232  0.8726 -1.9105  0.6450
  301MOL0     H40618   1.336   5.141   8.220 -1.0912 -1.5261  1.8764
  301MOL0     H40619   1.285   4.637   7.841  0.3097  2.5893 -2.5464
  301MOL0     H40620   1.456   4.485   7.777  2.9006 -2.3184  1.3241
  301MOL0     H40621   3.571   4.236   7.373  1.5493  0.2045 -2.2555
  301MOL0     H40622   3.769   4.257   7.250  1.5700 -0.0862  0.4577
  301MOL0     H40623   4.225   4.027   7.194 -0.6026  0.7824  1.4622
  301MOL0     H40624   4.434   4.060   7.066 -0.2175 -0.8406  0.1892
  301MOL0     H40625   4.565   4.454   6.870 -2.4332 -3.0942 -1.0125
  301MOL0     H40626   4.576   4.483   7.051  2.0361  1.1717  0.1697
  301MOL0     H40627   4.784   4.489   6.902 -2.3350  1.2430  0.1647
  301MOL0     H40628   4.785   4.317   6.926 -1.6030 -0.8822 -0.4025
  301MOL0     H40629   4.837   4.328   7.161 -3.0653 -1.3579 -0.6930
  301MOL0     H40630   4.764   4.493   7.173 -3.1760 -1.9145 -0.3893
  301MOL0     H40631   4.994   4.527   7.170  0.9886  2.0654 -1.0543
  301MOL0     H40632   4.956   4.568   7.017  0.4764  1.1920  2.7451
  301MOL0     H40633   5.200   4.227   6.942  0.9149 -0.8205  0.1389
  301MOL0     H40634   4.373   4.484   7.067  1.3767 -0.8677 -1.6667
  301MOL0     H40635   4.166   4.455   7.189 -1.4048 -0.5375  0.3463
  302MOL0     O40636   7.338   3.505  10.716 -0.1361  0.4701 -0.6662
  302MOL0     C40637   7.402   3.582  10.793  0.0563  0.4135 -0.0181
  302MOL0     O40638   7.345   3.658  10.892  0.4243 -0.4876 -0.4014
  302MOL0     C40639   7.211   3.647  10.910 -0.7727  0.8276  0.0513
  302MOL0     C40640   7.123   3.675  10.807 -0.2188 -0.1378 -0.7293
  302MOL0     C40641   6.985   3.660  10.828  0.3994  0.4529  0.1565
  302MOL0     C40642   6.933   3.618  10.951 -0.2230 -1.0420 -0.4106
  302MOL0     O40643   6.800   3.590  10.967 -0.4617  0.2513  0.0354
  302MOL0     C40644   6.717   3.557  10.848 -0.0699 -0.6261 -1.2229
  302MOL0     C40645   6.568   3.527  10.875  0.2442 -0.9130 -0.1366
  302MOL0     C40646   6.496   3.494  10.750 -0.1808  0.4507  1.0292
  302MOL0     C40647   6.384   3.387  10.768 -0.0453  0.1095 -0.7949
  302MOL0     C40648   6.288   3.371  10.649 -0.1645 -0.2502 -0.0266
  302MOL0     C40649   6.171   3.286  10.695 -0.3386  0.2469  0.1155
  302MOL0     C40650   6.059   3.244  10.598 -0.1590 -0.4838 -0.0851
  302MOL0     C40651   5.994   3.378  10.554  0.3179 -0.3473 -0.3455
  302MOL0     N40652   5.879   3.356  10.465  0.4668  0.4252  0.4213
  302MOL0     C40653   5.881   3.299  10.342  0.7666  0.3818 -0.3703
  302MOL0     C40654   5.747   3.281  10.314 -0.2527 -0.2761  0.0210
  302MOL0     C40655   5.691   3.196  10.200  0.2908  0.2677 -0.4372
  302MOL0     C40656   5.604   3.089  10.268  0.7733  0.5184  0.1797
  302MOL0     C40657   5.573   2.991  10.161 -0.5057  0.5502  0.9434
  302MOL0     C40658   5.476   2.888  10.206 -0.0261  0.0961  0.1667
  302MOL0     O40659   5.343   2.940  10.186 -0.0188  0.5323 -0.0860
  302MOL0     C40660   5.232   2.861  10.177  0.1441 -0.4880 -0.2377
  302MOL0     C40661   5.224   2.731  10.217 -0.3179 -0.1126 -0.1433
  302MOL0     C40662   5.105   2.655  10.213  0.2601  0.2068  0.0027
  302MOL0     C40663   5.132   2.508  10.230 -0.5736  1.1073  0.1689
  302MOL0     C40664   4.978   2.719  10.199  0.1162 -0.5033 -0.8686
  302MOL0     C40665   4.839   2.656  10.211  0.5497  0.0786 -0.1075
  302MOL0     O40666   4.732   2.741  10.182  0.1061  0.7043  0.8756
  302MOL0     C40667   4.604   2.704  10.152 -0.7112  1.3062  0.3212
  302MOL0     C40668   4.568   2.576  10.099  0.1952 -0.2639 -0.3500
  302MOL0     C40669   4.438   2.550  10.065 -0.2534  0.1494 -0.4956
  302MOL0     C40670   4.344   2.646  10.071 -0.0858  0.3503 -0.1935
  302MOL0     O40671   4.222   2.595  10.047 -0.3687 -0.0755  0.2028
  302MOL0     C40672   4.107   2.666  10.096 -0.3589  0.3114  0.6175
  302MOL0     C40673   4.057   2.750   9.972 -0.2642  0.8599 -0.5867
  302MOL0     C40674   3.941   2.836  10.005  0.2221 -0.7148  0.0409
  302MOL0     C40675   3.879   2.901   9.877 -0.0782 -0.2457  0.2588
  302MOL0     C40676   3.764   2.997   9.923 -0.5036  0.4141  0.4269
  302MOL0     C40677   3.687   3.064   9.809  0.4343  0.3308 -0.4261
  302MOL0     C40678   3.622   2.966   9.715  0.7485  1.0669 -0.5175
  302MOL0     C40679   3.525   3.037   9.619  0.3007  0.0589 -0.8061
  302MOL0    Cl40680   3.409   3.139   9.708 -0.2248 -0.2550  0.0589
  302MOL0     C40681   4.373   2.776  10.114  0.4184  0.9349 -0.1238
  302MOL0     C40682   4.506   2.803  10.151  0.2309 -0.2001 -0.8263
  302MOL0     O40683   4.830   2.535  10.236  0.4231 -0.6676 -0.1080
  302MOL0     C40684   4.986   2.861  10.164  0.4772  0.6651  0.5273
  302MOL0     C40685   5.111   2.924  10.139  0.0121  0.8788  0.1625
  302MOL0     N40686   5.667   3.347  10.404 -0.3073 -0.0843  0.1021
  302MOL0     N40687   5.751   3.404  10.484  0.2101 -0.3027  0.0382
  302MOL0     C40688   7.020   3.586  11.057  0.6405 -0.0583 -0.4235
  302MOL0     C40689   7.159   3.608  11.037 -0.5068  0.1600 -0.1471
  302MOL0     C40690   7.551   3.595  10.774 -0.2143  0.1804 -0.5158
  302MOL0     C40691   7.619   3.706  10.833 -0.1840  0.4829  0.3153
  302MOL0     C40692   7.758   3.731  10.809  0.2072  0.7144  0.6692
  302MOL0     C40693   7.825   3.641  10.725 -0.1556 -0.2323 -0.4567
  302MOL0     O40694   7.959   3.666  10.695 -0.1972 -0.1490 -0.1088
  302MOL0     C40695   8.025   3.573  10.605  0.3589 -1.1970 -0.9413
  302MOL0     C40696   8.170   3.598  10.567  0.1810 -0.7884 -0.3438
  302MOL0     C40697   8.260   3.574  10.691  0.0526  0.1746 -0.1740
  302MOL0     C40698   8.402   3.639  10.681 -0.0639  0.0253 -0.5145
  302MOL0     C40699   8.485   3.589  10.561  0.0214 -1.2463  0.0020
  302MOL0     C40700   8.562   3.554  10.474  0.1257 -0.8871 -0.1776
  302MOL0     C40701   7.761   3.517  10.702  0.3944 -0.1608 -0.3867
  302MOL0     C40702   7.627   3.494  10.717 -0.6498 -0.2048 -0.0302
  302MOL0     H40703   7.164   3.717  10.715 -1.9837  1.3320 -0.9011
  302MOL0     H40704   6.926   3.680  10.739 -0.5603  1.1992  0.9336
  302MOL0     H40705   6.717   3.634  10.770  1.2354 -0.4395 -1.0608
  302MOL0     H40706   6.759   3.463  10.811 -1.2385 -2.0483  0.8663
  302MOL0     H40707   6.572   3.444  10.947 -0.8459 -1.7513 -1.0108
  302MOL0     H40708   6.507   3.609  10.914 -1.1364 -0.2435 -3.3751
  302MOL0     H40709   6.452   3.587  10.711  0.3715  0.1466 -0.3811
  302MOL0     H40710   6.559   3.461  10.667 -2.7211 -0.6893 -0.5750
  302MOL0     H40711   6.438   3.295  10.791 -0.9695  0.0193  1.2575
  302MOL0     H40712   6.322   3.418  10.853 -2.6545 -1.5414 -1.9824
  302MOL0     H40713   6.255   3.471  10.619 -0.0656 -0.8505 -2.3824
  302MOL0     H40714   6.351   3.336  10.566  0.7949  1.6771 -0.1763
  302MOL0     H40715   6.214   3.194  10.733 -2.2129 -0.4866  0.5335
  302MOL0     H40716   6.124   3.331  10.783  0.6717  0.7400  0.4239
  302MOL0     H40717   6.100   3.194  10.510  1.8216 -0.4112  0.7505
  302MOL0     H40718   5.989   3.181  10.654 -1.3235  1.0132  0.2053
  302MOL0     H40719   6.074   3.433  10.504  0.4194  0.8190  1.0182
  302MOL0     H40720   5.965   3.431  10.646  3.7634  0.7382  0.2394
  302MOL0     H40721   5.968   3.263  10.288  0.7314  0.0604 -0.2142
  302MOL0     H40722   5.631   3.266  10.140 -2.8529  0.7601  2.9248
  302MOL0     H40723   5.771   3.152  10.140  0.9514  0.8238  0.0172
  302MOL0     H40724   5.510   3.122  10.314 -0.5556 -1.8942 -0.6158
  302MOL0     H40725   5.663   3.041  10.347 -0.3901 -0.4454  0.4989
  302MOL0     H40726   5.663   2.940  10.125 -2.2000 -2.0952  0.1309
  302MOL0     H40727   5.532   3.042  10.073  0.4988 -3.1729 -1.9377
  302MOL0     H40728   5.484   2.864  10.312 -2.1606 -0.4046  0.2753
  302MOL0     H40729   5.489   2.802  10.139  1.0529 -0.3549  0.9408
  302MOL0     H40730   5.312   2.676  10.249  0.6381  1.4256 -0.0140
  302MOL0     H40731   5.239   2.488  10.225 -1.1037 -2.2082  0.0253
  302MOL0     H40732   5.092   2.464  10.322 -0.2100  1.1248  0.3370
  302MOL0     H40733   5.087   2.453  10.146  0.9318 -0.5896  0.4216
  302MOL0     H40734   4.634   2.491  10.086 -1.0020 -1.1732 -0.7350
  302MOL0     H40735   4.411   2.451  10.027  1.0897  0.0485 -1.2210
  302MOL0     H40736   4.036   2.584  10.111 -0.7801  0.7280  0.9466
  302MOL0     H40737   4.119   2.721  10.189 -1.1569 -2.6990  2.6523
  302MOL0     H40738   4.135   2.814   9.931  2.8191 -3.1777 -1.7578
  302MOL0     H40739   4.030   2.680   9.892 -1.0822 -1.9489  1.9493
  302MOL0     H40740   3.965   2.914  10.077  2.8009  1.3268 -2.7651
  302MOL0     H40741   3.861   2.769  10.037  0.3511 -1.1204 -0.4633
  302MOL0     H40742   3.964   2.960   9.841  0.0465 -0.5878 -0.0144
  302MOL0     H40743   3.844   2.825   9.806 -1.9267 -0.7309  1.6169
  302MOL0     H40744   3.801   3.070   9.996 -1.5485  1.3206  0.0792
  302MOL0     H40745   3.691   2.940   9.980  2.3710 -1.7774  2.2157
  302MOL0     H40746   3.615   3.127   9.861 -0.5568 -0.5091 -0.7331
  302MOL0     H40747   3.748   3.125   9.742 -2.9493  2.0008 -2.2489
  302MOL0     H40748   3.560   2.894   9.770  0.8056  0.0692 -1.7163
  302MOL0     H40749   3.686   2.901   9.655 -2.6048 -1.5205 -1.6054
  302MOL0     H40750   3.454   2.961   9.586 -0.4033  1.0376 -1.6354
  302MOL0     H40751   3.580   3.081   9.536  1.0982  2.2211  0.7726
  302MOL0     H40752   4.291   2.848  10.108  1.2114  1.7395 -2.6630
  302MOL0     H40753   4.525   2.908  10.174  1.5338 -0.4343 -0.7634
  302MOL0     H40754   4.909   2.932  10.134  1.2344  1.1743 -0.2832
  302MOL0     H40755   5.118   3.030  10.114  1.0865  0.3906 -1.7875
  302MOL0     H40756   6.979   3.544  11.149 -0.9729  0.5390 -0.8467
  302MOL0     H40757   7.233   3.586  11.114 -0.1618 -1.3554 -0.8946
  302MOL0     H40758   7.556   3.781  10.879 -1.7585 -0.9629  0.6074
  302MOL0     H40759   7.801   3.827  10.837 -1.1796  1.0876  1.6381
  302MOL0     H40760   8.018   3.469  10.638  1.4713 -0.5659  1.4907
  302MOL0     H40761   7.965   3.567  10.513  1.3114 -0.5328 -1.6320
  302MOL0     H40762   8.192   3.699  10.531  0.7294 -0.4523  0.8587
  302MOL0     H40763   8.190   3.539  10.478 -0.1633  0.5089 -1.3184
  302MOL0     H40764   8.273   3.467  10.709 -0.9149  0.4266  2.5263
  302MOL0     H40765   8.208   3.608  10.782  0.8518 -0.1364  0.4111
  302MOL0     H40766   8.464   3.599  10.762 -1.1552 -3.8210 -1.3769
  302MOL0     H40767   8.404   3.747  10.695 -2.9427  0.2143 -1.0513
  302MOL0     H40768   8.632   3.536  10.395  0.9649  0.6555  0.1776
  302MOL0     H40769   7.805   3.434  10.648  0.4902 -1.8640  2.1404
  302MOL0     H40770   7.594   3.397  10.683  0.4124 -0.1783 -1.2399
  303MOL0     O40771   3.191   9.758  10.520 -0.6858 -0.3215  0.1154
  303MOL0     C40772   3.194   9.880  10.508  1.0886  0.1888  0.0848
  303MOL0     O40773   3.076   9.952  10.466 -0.1415 -0.3275  0.7016
  303MOL0     C40774   2.967   9.884  10.436  0.3382  0.0148 -0.4650
  303MOL0     C40775   2.880   9.867  10.537  1.1236 -0.2930  0.5571
  303MOL0     C40776   2.765   9.786  10.520  0.1845 -0.3069  0.3821
  303MOL0     C40777   2.723   9.740  10.385 -0.1197  0.4196  0.1961
  303MOL0     O40778   2.624   9.655  10.356  0.7739  0.0362  0.4233
  303MOL0     C40779   2.535   9.620  10.455 -0.0921 -0.5811  0.7473
  303MOL0     C40780   2.412   9.548  10.398  0.0918  0.2558 -0.2342
  303MOL0     C40781   2.340   9.462  10.498  0.5668 -0.1657  0.6165
  303MOL0     C40782   2.215   9.418  10.423 -0.1253  0.5342 -0.1522
  303MOL0     C40783   2.103   9.375  10.512  0.3957  0.5758  0.1015
  303MOL0     C40784   2.107   9.224  10.514  0.0901 -0.4217  0.0305
  303MOL0     C40785   1.993   9.164  10.611 -0.2907 -0.3101 -0.5518
  303MOL0     C40786   1.993   9.009  10.602  0.7064 -0.4973  0.0479
  303MOL0     N40787   1.867   8.962  10.678  1.0673  0.3585  0.5061
  303MOL0     C40788   1.868   8.932  10.808  0.3328  0.4663 -1.4633
  303MOL0     C40789   1.737   8.905  10.838 -0.4879  0.2923  0.0740
  303MOL0     C40790   1.682   8.854  10.968 -0.0991  0.4457 -0.4221
  303MOL0     C40791   1.633   8.702  10.972 -0.8893 -0.7291  0.9509
  303MOL0     C40792   1.584   8.681  11.114 -0.2229 -0.1660  1.0222
  303MOL0     C40793   1.544   8.529  11.147  0.8123 -0.6914 -0.0510
  303MOL0     O40794   1.492   8.508  11.282 -0.3356  0.5286  0.7195
  303MOL0     C40795   1.373   8.556  11.323 -0.3075  0.7061 -0.3789
  303MOL0     C40796   1.368   8.586  11.458  0.2267 -0.3840  0.1327
  303MOL0     C40797   1.246   8.620  11.519 -0.6280  0.2040 -0.3870
  303MOL0     C40798   1.251   8.656  11.667 -0.4459  0.7923  0.8393
  303MOL0     C40799   1.132   8.635  11.437  0.6708  0.2540 -0.0985
  303MOL0     C40800   0.992   8.659  11.491  0.2766 -0.3934 -0.2090
  303MOL0     O40801   0.903   8.664  11.387 -0.4215 -0.1136 -0.2498
  303MOL0     C40802   0.776   8.707  11.400 -0.3387 -0.2640 -0.8929
  303MOL0     C40803   0.680   8.635  11.476  0.0744 -0.1230  0.2599
  303MOL0     C40804   0.558   8.692  11.492  0.0059  0.5052 -0.6407
  303MOL0     C40805   0.519   8.820  11.455 -0.9483 -0.7000 -0.9854
  303MOL0     O40806   0.397   8.866  11.487 -0.7979 -0.3040  0.0944
  303MOL0     C40807   0.351   9.001  11.443 -0.1769 -0.0941 -1.1428
  303MOL0     C40808   0.205   9.018  11.479 -0.5375  0.1945  0.1687
  303MOL0     C40809   0.126   9.128  11.416 -0.3791  0.2168 -0.1707
  303MOL0     C40810  -0.012   9.131  11.470 -0.3993 -0.0953  0.4633
  303MOL0     C40811  -0.105   9.215  11.381 -0.4244 -0.2686  0.1584
  303MOL0     C40812  -0.092   9.361  11.408  0.2925 -0.5395 -0.3259
  303MOL0     C40813  -0.208   9.447  11.354  0.3271  0.4187 -0.5163
  303MOL0     C40814  -0.245   9.414  11.213 -0.3548 -0.5505  0.2649
  303MOL0    Cl40815  -0.397   9.488  11.178  0.5288 -0.0408  0.3166
  303MOL0     C40816   0.615   8.895  11.383  0.3077  0.2898  0.3188
  303MOL0     C40817   0.734   8.832  11.346 -0.0659 -0.1712  0.7512
  303MOL0     O40818   0.963   8.646  11.611 -0.3288  0.0314 -0.0937
  303MOL0     C40819   1.150   8.615  11.300  0.0427 -0.7758 -0.0656
  303MOL0     C40820   1.262   8.561  11.241 -0.0521  0.0515 -0.2082
  303MOL0     N40821   1.659   8.927  10.727 -0.0925 -0.5321 -0.3698
  303MOL0     N40822   1.744   8.959  10.631  0.0162  0.1066  0.6503
  303MOL0     C40823   2.825   9.750  10.290 -0.8069  0.8186 -0.2259
  303MOL0     C40824   2.946   9.821  10.310  0.3114 -0.6470 -0.8000
  303MOL0     C40825   3.319   9.968  10.506 -0.4309  0.6829  0.2100
  303MOL0     C40826   3.334  10.102  10.473  0.7788 -0.0672 -0.2716
  303MOL0     C40827   3.457  10.163  10.472  0.2035  0.0946 -0.2282
  303MOL0     C40828   3.577  10.093  10.507  0.1624 -0.4900 -0.3190
  303MOL0     O40829   3.703  10.148  10.507  0.3708 -0.7737  0.0167
  303MOL0     C40830   3.715  10.282  10.449  0.5568 -0.3543  0.0109
  303MOL0     C40831   3.851  10.293  10.388  0.4845 -0.0635 -0.1062
  303MOL0     C40832   3.961  10.250  10.481 -0.1593  0.2207  0.3990
  303MOL0     C40833   4.100  10.280  10.431 -0.0292  0.0567  0.0534
  303MOL0     C40834   4.157  10.409  10.436 -0.4926 -0.0291 -0.5031
  303MOL0     C40835   4.226  10.510  10.421  0.1066  0.3793  0.8029
  303MOL0     C40836   3.563   9.958  10.536 -0.1500 -0.1724  0.2919
  303MOL0     C40837   3.436   9.899  10.539  0.3595 -0.1039  0.2004
  303MOL0     H40838   2.905   9.901  10.637 -1.1189 -1.4622  1.5883
  303MOL0     H40839   2.694   9.773  10.601 -0.9571 -2.5100 -0.8885
  303MOL0     H40840   2.592   9.544  10.510 -0.5865 -1.0373  0.6406
  303MOL0     H40841   2.500   9.705  10.514 -2.0258 -1.6222  1.2034
  303MOL0     H40842   2.343   9.625  10.361 -2.1861 -2.2394 -1.4861
  303MOL0     H40843   2.452   9.487  10.317 -1.0854 -2.4380  1.0854
  303MOL0     H40844   2.410   9.387  10.534  0.2180 -0.8537 -0.1004
  303MOL0     H40845   2.321   9.524  10.586  2.7780  3.0173 -0.9669
  303MOL0     H40846   2.181   9.495  10.353  0.2086 -2.7544 -4.2693
  303MOL0     H40847   2.249   9.337  10.358  1.4123  0.5981  0.5170
  303MOL0     H40848   2.107   9.418  10.613 -0.8307  1.1505 -0.0781
  303MOL0     H40849   2.012   9.409  10.463  0.5422  2.1347  0.8346
  303MOL0     H40850   2.082   9.199  10.410  1.6901  2.2230 -1.0972
  303MOL0     H40851   2.208   9.192  10.543  1.2057  0.8599 -2.1945
  303MOL0     H40852   1.996   9.190  10.717  0.6312 -0.0181 -0.6435
  303MOL0     H40853   1.895   9.189  10.570 -0.6423  3.2692  2.0444
  303MOL0     H40854   2.087   8.967  10.640  2.8500  2.1551 -1.9348
  303MOL0     H40855   1.980   8.981  10.497 -1.5509 -1.0652  0.4331
  303MOL0     H40856   1.946   8.932  10.884 -1.6370 -0.9738  0.6936
  303MOL0     H40857   1.765   8.851  11.040 -0.8482  0.4681  0.4560
  303MOL0     H40858   1.610   8.931  10.997 -1.0657 -1.3680  2.4795
  303MOL0     H40859   1.716   8.633  10.953 -1.6949 -1.5994  0.4673
  303MOL0     H40860   1.552   8.684  10.901  1.4409 -1.8828 -1.6256
  303MOL0     H40861   1.495   8.742  11.129  0.6719  1.3479  0.3567
  303MOL0     H40862   1.659   8.708  11.188  1.5327 -1.2186 -0.2874
  303MOL0     H40863   1.636   8.471  11.147  0.8756 -0.6467  2.1853
  303MOL0     H40864   1.477   8.486  11.071  0.5786 -2.3258  1.0395
  303MOL0     H40865   1.462   8.569  11.509 -0.0747 -3.3773 -0.1552
  303MOL0     H40866   1.219   8.760  11.677  3.1512  2.2827 -1.2437
  303MOL0     H40867   1.183   8.587  11.720  0.3924 -0.1426  0.7206
  303MOL0     H40868   1.354   8.645  11.700  0.3181 -1.2760 -1.8979
  303MOL0     H40869   0.707   8.536  11.512 -0.5286 -0.8307 -1.1284
  303MOL0     H40870   0.489   8.647  11.563  0.3344  3.5190  1.7710
  303MOL0     H40871   0.409   9.079  11.493 -0.6201  0.8635 -2.0842
  303MOL0     H40872   0.370   9.023  11.338 -0.7686  2.3595 -0.7835
  303MOL0     H40873   0.152   8.929  11.443  0.7575  0.0963 -1.6204
  303MOL0     H40874   0.182   9.030  11.585 -1.3963  0.4727 -0.0354
  303MOL0     H40875   0.126   9.102  11.310  0.4699 -0.2008 -0.0802
  303MOL0     H40876   0.174   9.224  11.435 -1.3307  0.3443  1.8314
  303MOL0     H40877  -0.049   9.028  11.474  0.6442 -0.6147 -1.8500
  303MOL0     H40878  -0.006   9.165  11.574  4.8414  0.0160  0.3686
  303MOL0     H40879  -0.207   9.186  11.407 -1.0592  2.1285  0.6192
  303MOL0     H40880  -0.078   9.193  11.277 -1.1519  1.1541 -0.3703
  303MOL0     H40881  -0.078   9.380  11.515  0.3714  0.7811 -0.5592
  303MOL0     H40882  -0.000   9.401  11.364 -0.6356  0.7151 -1.1715
  303MOL0     H40883  -0.194   9.555  11.363 -0.9779  0.7430 -1.9800
  303MOL0     H40884  -0.289   9.424  11.424  1.7145 -3.3057  0.1203
  303MOL0     H40885  -0.254   9.310  11.183 -0.4027 -0.4468 -0.0842
  303MOL0     H40886  -0.172   9.465  11.149 -2.0924 -0.2246 -1.5750
  303MOL0     H40887   0.599   8.999  11.355 -1.3240  0.8558  2.9778
  303MOL0     H40888   0.817   8.888  11.303 -1.1590  0.8136 -0.1247
  303MOL0     H40889   1.075   8.633  11.224  1.4971  1.4938 -1.0846
  303MOL0     H40890   1.265   8.555  11.132  1.2314  4.6617 -0.6136
  303MOL0     H40891   2.811   9.707  10.191  1.7335  1.5415 -0.9760
  303MOL0     H40892   3.028   9.839  10.241  1.0181 -1.2149 -0.1153
  303MOL0     H40893   3.240  10.154  10.458 -0.7997 -2.8317 -0.6020
  303MOL0     H40894   3.465  10.270  10.462  2.3052  0.4497  3.3470
  303MOL0     H40895   3.646  10.293  10.365  1.2448  0.6599 -0.4473
  303MOL0     H40896   3.703  10.363  10.522  1.5875 -1.2115  1.1946
  303MOL0     H40897   3.867  10.397  10.358  1.1911  0.0756  0.7132
  303MOL0     H40898   3.843  10.234  10.296  0.1971 -1.7135  0.9436
  303MOL0     H40899   3.958  10.141  10.494 -0.0922  0.2855  1.0308
  303MOL0     H40900   3.936  10.299  10.576 -0.8145  1.0503 -0.1926
  303MOL0     H40901   4.111  10.250  10.327 -0.2243 -0.5727  0.2128
  303MOL0     H40902   4.160  10.213  10.494  1.7922  2.4652  1.0660
  303MOL0     H40903   4.290  10.596  10.417  1.8464 -0.8988 -0.2167
  303MOL0     H40904   3.654   9.900  10.551 -1.7546 -2.4853  1.7576
  303MOL0     H40905   3.429   9.792  10.557 -0.5793 -0.8079 -3.5543
  304MOL0     O40906   8.121   0.988   0.867  0.3886 -0.1671  0.4904
  304MOL0     C40907   8.193   1.016   0.773 -0.0804  0.0287  0.1914
  304MOL0     O40908   8.170   1.107   0.685 -0.6435 -0.1288  0.3981
  304MOL0     C40909   8.061   1.190   0.701 -0.2279 -0.0936  0.3695
  304MOL0     C40910   7.967   1.185   0.601  0.7922  0.1107  0.1876
  304MOL0     C40911   7.858   1.266   0.596  0.4808 -0.7797  0.3409
  304MOL0     C40912   7.835   1.351   0.701  0.3565  0.2319  0.1909
  304MOL0     O40913   7.723   1.431   0.711 -0.4848  0.5301 -0.0532
  304MOL0     C40914   7.625   1.416   0.608  0.3428 -0.4245 -0.0096
  304MOL0     C40915   7.506   1.520   0.631  0.8681  0.3865  0.2847
  304MOL0     C40916   7.392   1.505   0.530  0.7885 -0.2011 -0.5385
  304MOL0     C40917   7.262   1.587   0.569  0.4542  0.7745  0.3420
  304MOL0     C40918   7.132   1.567   0.484  0.2317  0.4681 -0.0228
  304MOL0     C40919   7.036   1.680   0.522 -0.2034  0.1022  0.1605
  304MOL0     C40920   6.897   1.662   0.463 -0.6220  0.5473  0.0108
  304MOL0     C40921   6.810   1.786   0.497  0.9195 -0.8210 -0.6127
  304MOL0     N40922   6.681   1.782   0.434 -0.3063  0.1128  1.1676
  304MOL0     C40923   6.665   1.764   0.298  0.1040  0.6110  0.0353
  304MOL0     C40924   6.522   1.744   0.282 -0.4482  0.0523 -0.4196
  304MOL0     C40925   6.450   1.714   0.154  0.2081 -0.0825 -0.1207
  304MOL0     C40926   6.365   1.826   0.098 -0.7889 -0.1898 -0.1611
  304MOL0     C40927   6.242   1.767   0.019  0.2002  0.2193 -0.0268
  304MOL0     C40928   6.249   1.812  -0.132  0.4754 -0.4570  0.2375
  304MOL0     O40929   6.155   1.759  -0.223 -0.7208  0.5303  0.8848
  304MOL0     C40930   6.034   1.822  -0.242  0.7058 -0.8825 -0.1462
  304MOL0     C40931   6.017   1.931  -0.326 -0.3813  1.2712  1.1893
  304MOL0     C40932   5.879   1.976  -0.348 -0.6229 -0.6249  0.3780
  304MOL0     C40933   5.853   2.067  -0.463 -0.1657 -0.2797  0.4873
  304MOL0     C40934   5.771   1.920  -0.272 -0.2712 -0.4706 -0.6672
  304MOL0     C40935   5.625   1.953  -0.284 -0.6639  0.8697 -0.2672
  304MOL0     O40936   5.542   1.847  -0.281  0.0234 -0.8388 -0.1141
  304MOL0     C40937   5.408   1.877  -0.303  0.6702  0.5284  0.9542
  304MOL0     C40938   5.341   1.961  -0.209 -0.5252 -0.1147 -0.0443
  304MOL0     C40939   5.201   1.993  -0.220 -0.3015 -1.2146  0.2344
  304MOL0     C40940   5.124   1.949  -0.330 -0.3113 -0.3515 -0.7537
  304MOL0     O40941   4.991   1.980  -0.330  0.7130  0.7317 -1.1524
  304MOL0     C40942   4.895   1.908  -0.405  0.7509 -0.7325 -0.1355
  304MOL0     C40943   4.877   1.944  -0.558  0.0055  0.8460 -0.5019
  304MOL0     C40944   4.748   2.024  -0.582  0.7282 -0.3265 -0.3856
  304MOL0     C40945   4.755   2.164  -0.512  0.0751  0.9463 -0.5747
  304MOL0     C40946   4.618   2.233  -0.509 -0.2825  0.3463 -0.6949
  304MOL0     C40947   4.610   2.335  -0.397  0.3948  0.0973  0.3493
  304MOL0     C40948   4.480   2.407  -0.413  0.3797 -0.0543 -1.1701
  304MOL0     C40949   4.478   2.518  -0.314 -0.7578  0.7302  0.0557
  304MOL0    Cl40950   4.331   2.607  -0.310  0.1364  0.0444  0.5151
  304MOL0     C40951   5.190   1.864  -0.426  0.3307 -0.0825  0.4065
  304MOL0     C40952   5.327   1.815  -0.406  0.1766  0.0588  0.3017
  304MOL0     O40953   5.600   2.067  -0.300  0.9958  0.1693 -0.8073
  304MOL0     C40954   5.807   1.825  -0.173  0.5281  0.4216 -0.5333
  304MOL0     C40955   5.933   1.779  -0.156  0.4864 -0.3866 -0.4473
  304MOL0     N40956   6.471   1.736   0.410  0.1609 -0.1603  0.2074
  304MOL0     N40957   6.561   1.754   0.497 -0.0661  0.0967  0.1838
  304MOL0     C40958   7.923   1.359   0.809 -0.0914  0.2732 -0.9059
  304MOL0     C40959   8.043   1.274   0.804  0.1476 -0.9653 -0.5424
  304MOL0     C40960   8.328   0.944   0.764 -0.1592  0.2881  0.0385
  304MOL0     C40961   8.371   0.846   0.858 -0.0633  0.0566 -0.7350
  304MOL0     C40962   8.494   0.783   0.843 -0.4566 -0.7789 -0.3669
  304MOL0     C40963   8.585   0.830   0.742  0.2980 -0.2232  0.5488
  304MOL0     O40964   8.714   0.796   0.742  0.1933  0.4411  0.3976
  304MOL0     C40965   8.794   0.859   0.841 -0.3630  0.0186 -0.1136
  304MOL0     C40966   8.945   0.835   0.811 -0.4070  0.6554 -0.4385
  304MOL0     C40967   9.028   0.895   0.929  0.1800 -0.5293 -0.1845
  304MOL0     C40968   9.167   0.832   0.937 -0.3861 -0.6289  0.1404
  304MOL0     C40969   9.264   0.942   0.944  0.5023 -0.6335  0.3928
  304MOL0     C40970   9.347   1.032   0.951 -0.0843 -0.4380 -0.3179
  304MOL0     C40971   8.545   0.926   0.648 -0.2686 -0.4382 -0.9271
  304MOL0     C40972   8.420   0.986   0.658 -0.3126  0.3196 -0.0215
  304MOL0     H40973   7.974   1.112   0.521  0.5996 -0.0685  0.3343
  304MOL0     H40974   7.795   1.255   0.508  0.2684 -1.8968  0.6168
  304MOL0     H40975   7.674   1.432   0.511 -0.1799 -0.9361 -0.3656
  304MOL0     H40976   7.587   1.314   0.599 -0.4902 -0.6052  3.7617
  304MOL0     H40977   7.470   1.484   0.728 -0.0359 -1.7496 -0.7891
  304MOL0     H40978   7.538   1.625   0.628 -2.0133  1.3624 -0.0402
  304MOL0     H40979   7.426   1.541   0.432  0.9018 -1.0715 -0.8295
  304MOL0     H40980   7.370   1.399   0.514 -2.3389 -0.4278  3.5784
  304MOL0     H40981   7.236   1.573   0.675 -0.2436 -0.5357  0.0272
  304MOL0     H40982   7.296   1.690   0.557 -0.3164  0.7701 -2.6209
  304MOL0     H40983   7.152   1.579   0.377 -2.4224  0.2845 -0.6053
  304MOL0     H40984   7.085   1.468   0.495  2.4049 -0.5854  0.4428
  304MOL0     H40985   7.020   1.678   0.630 -0.6624  1.6162  0.1420
  304MOL0     H40986   7.076   1.775   0.484  0.9113  0.0534  1.1312
  304MOL0     H40987   6.904   1.637   0.356 -0.1579 -2.4689  0.6608
  304MOL0     H40988   6.849   1.573   0.502  4.6867 -3.1807 -0.8081
  304MOL0     H40989   6.863   1.873   0.458  0.5876 -0.7926 -1.0080
  304MOL0     H40990   6.805   1.790   0.606 -2.4970  0.8911 -0.6729
  304MOL0     H40991   6.749   1.772   0.229  0.3427 -0.7300  0.1402
  304MOL0     H40992   6.530   1.675   0.090 -0.1104  1.4177 -1.5130
  304MOL0     H40993   6.382   1.632   0.179  0.3657 -0.5849 -1.2486
  304MOL0     H40994   6.430   1.892   0.040  2.0693 -0.8830  2.0278
  304MOL0     H40995   6.322   1.885   0.180  0.1070  0.2049  0.0369
  304MOL0     H40996   6.149   1.790   0.071  1.0040  0.9173  1.1616
  304MOL0     H40997   6.243   1.658   0.028 -0.5593  0.3271  1.8312
  304MOL0     H40998   6.350   1.795  -0.170  0.2947  0.5900 -0.7822
  304MOL0     H40999   6.230   1.920  -0.134 -1.6747 -0.7996  0.1213
  304MOL0     H41000   6.101   1.969  -0.383 -1.3620 -3.3922 -4.3127
  304MOL0     H41001   5.767   2.032  -0.522  2.0808 -2.2009 -1.8512
  304MOL0     H41002   5.849   2.176  -0.454  1.9198 -0.2304  1.3143
  304MOL0     H41003   5.937   2.060  -0.532 -0.4428 -0.7949  0.1931
  304MOL0     H41004   5.396   2.011  -0.130  0.5608  1.6229 -1.8420
  304MOL0     H41005   5.174   2.064  -0.143  0.0058 -0.8929  0.0492
  304MOL0     H41006   4.922   1.802  -0.398  4.2630 -0.0219 -1.2781
  304MOL0     H41007   4.799   1.917  -0.353 -0.9275 -0.0965 -3.1385
  304MOL0     H41008   4.965   2.000  -0.590  3.2831 -3.4434  0.0427
  304MOL0     H41009   4.889   1.847  -0.608 -1.6364 -1.8152  3.6568
  304MOL0     H41010   4.658   1.971  -0.549  2.4208 -2.4224  1.1836
  304MOL0     H41011   4.741   2.033  -0.691  0.6653 -0.2265 -0.3743
  304MOL0     H41012   4.795   2.152  -0.410  1.9025  1.1783 -1.2195
  304MOL0     H41013   4.826   2.227  -0.566  1.9242 -2.3038 -2.2491
  304MOL0     H41014   4.540   2.157  -0.496 -0.2671  0.5159  0.4166
  304MOL0     H41015   4.610   2.270  -0.612  1.2677 -0.2297 -1.0387
  304MOL0     H41016   4.624   2.280  -0.303 -1.2016  0.5672  0.8853
  304MOL0     H41017   4.694   2.404  -0.414  1.7773 -1.8671 -1.3325
  304MOL0     H41018   4.392   2.343  -0.400 -0.2926  0.7907 -1.4727
  304MOL0     H41019   4.487   2.456  -0.510  0.9787  1.7588 -0.2489
  304MOL0     H41020   4.565   2.581  -0.334  2.6410 -3.5554 -0.1981
  304MOL0     H41021   4.496   2.482  -0.212 -0.6383  0.4092 -0.0774
  304MOL0     H41022   5.137   1.823  -0.511  3.9764  0.1265 -2.1470
  304MOL0     H41023   5.362   1.749  -0.486  0.0229  1.2220 -0.7632
  304MOL0     H41024   5.732   1.776  -0.113  2.2997  0.0500  1.4993
  304MOL0     H41025   5.942   1.694  -0.088  0.9295 -2.1525 -2.6110
  304MOL0     H41026   7.919   1.409   0.905  0.8294 -1.3352  0.0199
  304MOL0     H41027   8.116   1.277   0.884 -0.3540  0.1622 -0.0977
  304MOL0     H41028   8.315   0.827   0.949 -1.3580  2.2040 -1.0114
  304MOL0     H41029   8.525   0.712   0.918 -1.0240  0.8061  1.4307
  304MOL0     H41030   8.774   0.966   0.829  2.2533  0.5893  0.0677
  304MOL0     H41031   8.774   0.839   0.947  0.0645  1.7405  0.3128
  304MOL0     H41032   8.968   0.888   0.718 -0.7394  2.2023  0.3220
  304MOL0     H41033   8.966   0.730   0.792 -0.1493  0.2124  1.9873
  304MOL0     H41034   8.976   0.873   1.023 -3.3276 -1.8584 -2.2857
  304MOL0     H41035   9.029   1.004   0.925 -2.5251 -0.4899 -2.2434
  304MOL0     H41036   9.195   0.786   0.842  2.4860 -0.9428  1.0398
  304MOL0     H41037   9.173   0.761   1.020  0.6778 -0.6885  0.0212
  304MOL0     H41038   9.409   1.119   0.954  1.6527 -1.5741 -1.5034
  304MOL0     H41039   8.614   0.949   0.568 -1.9021  0.7294 -2.0791
  304MOL0     H41040   8.386   1.057   0.583 -2.7134 -3.2302 -2.5829
  305MOL0     O41041   7.092   9.539   1.895 -0.3901  0.1855  0.4137
  305MOL0     C41042   7.127   9.600   1.993  0.1819  0.2767  0.0048
  305MOL0     O41043   7.049   9.628   2.104  0.5690 -0.8378  0.2159
  305MOL0     C41044   6.912   9.601   2.121 -1.0934 -0.0815  0.1327
  305MOL0     C41045   6.826   9.576   2.016  0.2186  0.1614 -1.1332
  305MOL0     C41046   6.693   9.554   2.042 -0.0057 -0.0239 -0.0470
  305MOL0     C41047   6.636   9.574   2.176 -0.2700 -0.4367 -0.4011
  305MOL0     O41048   6.501   9.571   2.195  0.4565  1.5129  0.3064
  305MOL0     C41049   6.449   9.439   2.197 -0.2710  0.6584  0.3239
  305MOL0     C41050   6.428   9.387   2.340 -1.4126 -0.0097  0.9992
  305MOL0     C41051   6.337   9.481   2.416 -0.6846  0.6481 -0.3400
  305MOL0     C41052   6.193   9.482   2.365 -0.1924 -0.2787 -0.2832
  305MOL0     C41053   6.094   9.517   2.477 -0.4250  0.0546  0.3276
  305MOL0     C41054   6.109   9.649   2.540 -0.1946 -0.4130  0.6491
  305MOL0     C41055   6.081   9.761   2.442  0.0562  0.9006  0.9677
  305MOL0     C41056   5.999   9.868   2.501  0.7856  0.1742 -0.1490
  305MOL0     N41057   5.877   9.821   2.568 -0.6049  1.0459  0.0238
  305MOL0     C41058   5.810   9.914   2.644 -0.0411 -0.4843  0.9956
  305MOL0     C41059   5.682   9.868   2.652 -0.9729  0.3971  0.1109
  305MOL0     C41060   5.570   9.923   2.733 -0.6597 -0.1784 -0.3547
  305MOL0     C41061   5.437   9.932   2.668  0.5716  0.6563  0.4051
  305MOL0     C41062   5.459   9.981   2.518  0.7317  0.6306 -0.3353
  305MOL0     C41063   5.345  10.069   2.469  0.1550  0.0218  0.2890
  305MOL0     O41064   5.232   9.986   2.438  0.2445 -0.2042 -0.3748
  305MOL0     C41065   5.109  10.039   2.403 -0.5913 -0.1136  0.4317
  305MOL0     C41066   5.091  10.159   2.325 -0.6670 -0.1185 -0.1243
  305MOL0     C41067   4.969  10.206   2.298  0.0158 -0.0854 -0.9208
  305MOL0     C41068   4.950  10.343   2.246 -0.2887 -0.7790  0.7541
  305MOL0     C41069   4.858  10.124   2.332 -0.4311  0.4064  0.8247
  305MOL0     C41070   4.717  10.153   2.298 -0.5695 -0.4303 -0.1143
  305MOL0     O41071   4.623  10.112   2.383 -0.4848  0.0390 -0.2922
  305MOL0     C41072   4.488  10.146   2.367  0.4852 -0.0476  0.3091
  305MOL0     C41073   4.411  10.105   2.259 -0.9396  0.5421 -0.3571
  305MOL0     C41074   4.278  10.126   2.247 -1.0290 -0.1866  0.1235
  305MOL0     C41075   4.211  10.191   2.346 -0.2878 -0.7459  0.2944
  305MOL0     O41076   4.079  10.203   2.331 -0.4968 -0.4969  0.1994
  305MOL0     C41077   3.999  10.173   2.439 -0.1471  0.8949 -0.3850
  305MOL0     C41078   3.875  10.105   2.391 -0.0636 -0.7676 -0.0370
  305MOL0     C41079   3.777  10.096   2.507  0.1825  0.0086  0.2744
  305MOL0     C41080   3.654  10.015   2.459 -0.3694  0.8659  0.0289
  305MOL0     C41081   3.556  10.007   2.574 -0.2185 -0.1029 -0.4372
  305MOL0     C41082   3.422   9.948   2.546  0.2627 -0.0001 -0.7281
  305MOL0     C41083   3.304  10.039   2.592  0.0689  0.1442  0.1047
  305MOL0     C41084   3.173   9.969   2.571 -0.1700 -0.6748  0.4218
  305MOL0    Cl41085   3.030  10.077   2.584  0.0542 -0.3698  0.0546
  305MOL0     C41086   4.287  10.238   2.456  0.5000 -0.2798 -0.6017
  305MOL0     C41087   4.418  10.194   2.477 -0.2899 -0.8659 -0.1253
  305MOL0     O41088   4.694  10.221   2.202  0.0184  0.0845  0.3481
  305MOL0     C41089   4.876  10.002   2.403  0.4913  0.6582 -0.7645
  305MOL0     C41090   5.001   9.963   2.439  0.4431 -0.1604  0.0526
  305MOL0     N41091   5.671   9.749   2.582 -0.0357 -0.9248  0.1950
  305MOL0     N41092   5.790   9.726   2.524  0.4845 -0.1064  0.1659
  305MOL0     C41093   6.717   9.613   2.282  0.2008  0.2738 -0.1122
  305MOL0     C41094   6.852   9.628   2.251  0.0021 -0.4254 -0.1713
  305MOL0     C41095   7.275   9.637   2.009  0.5289 -1.1214  0.2923
  305MOL0     C41096   7.320   9.687   2.130  0.0456  0.0900 -0.4655
  305MOL0     C41097   7.453   9.713   2.148 -0.1730 -0.0359  0.3240
  305MOL0     C41098   7.549   9.688   2.050 -0.2308 -0.0222 -0.2120
  305MOL0     O41099   7.681   9.720   2.073  0.1591  0.1374  0.7780
  305MOL0     C41100   7.774   9.680   1.970 -0.7995  0.5310 -0.5167
  305MOL0     C41101   7.920   9.667   2.026  0.8162  0.7043  0.1387
  305MOL0     C41102   7.943   9.750   2.160  0.5792 -0.5254  0.2561
  305MOL0     C41103   8.083   9.749   2.211  0.2792 -0.1615  0.1526
  305MOL0     C41104   8.146   9.620   2.217  0.7426  0.1615  0.4418
  305MOL0     C41105   8.189   9.506   2.212  0.5842  0.2008 -0.0735
  305MOL0     C41106   7.495   9.660   1.915 -0.0459 -0.5938  0.1868
  305MOL0     C41107   7.361   9.627   1.895  0.0918 -0.2019  0.3006
  305MOL0     H41108   6.855   9.583   1.911  1.0109  0.3220 -0.9142
  305MOL0     H41109   6.628   9.541   1.956 -0.7570  1.9208  0.1801
  305MOL0     H41110   6.354   9.450   2.145  0.2771  1.4657 -0.5372
  305MOL0     H41111   6.511   9.368   2.142 -2.2074 -2.6154  2.0498
  305MOL0     H41112   6.391   9.284   2.341 -2.7472  0.4399 -0.2110
  305MOL0     H41113   6.526   9.389   2.389 -0.8106 -2.5125  0.0496
  305MOL0     H41114   6.336   9.445   2.519 -1.0775 -0.5225 -0.7291
  305MOL0     H41115   6.366   9.586   2.417 -3.5239  1.5974 -2.3236
  305MOL0     H41116   6.176   9.549   2.280 -1.3559 -1.4997 -1.0684
  305MOL0     H41117   6.169   9.380   2.332 -1.8181 -0.0316  0.0189
  305MOL0     H41118   5.997   9.509   2.426 -0.2960 -2.2760  0.3273
  305MOL0     H41119   6.090   9.442   2.556  0.2179 -0.3669 -0.0285
  305MOL0     H41120   6.035   9.652   2.621 -1.0968  3.1311 -0.1420
  305MOL0     H41121   6.205   9.671   2.588 -0.4052  1.3536  0.3160
  305MOL0     H41122   6.175   9.809   2.414  0.1785 -0.2892 -0.8425
  305MOL0     H41123   6.033   9.728   2.349 -0.1781  2.1357  0.6232
  305MOL0     H41124   5.973   9.951   2.435 -0.3824  2.2904  2.7813
  305MOL0     H41125   6.062   9.914   2.578  0.3833 -1.1061  0.9813
  305MOL0     H41126   5.847  10.009   2.683 -1.9839  0.4706  0.6081
  305MOL0     H41127   5.568   9.878   2.832  0.4047  5.3518  2.6128
  305MOL0     H41128   5.585  10.030   2.750  1.6057 -0.7282  1.6143
  305MOL0     H41129   5.371  10.003   2.719 -0.9463 -0.6767  0.3742
  305MOL0     H41130   5.391   9.833   2.679  0.6130  0.5867 -0.0227
  305MOL0     H41131   5.468   9.894   2.453  0.2884 -0.6201  1.1989
  305MOL0     H41132   5.552  10.039   2.510 -0.8479  3.1081 -1.9673
  305MOL0     H41133   5.390  10.117   2.381  2.9098 -0.1185  1.5168
  305MOL0     H41134   5.313  10.145   2.540 -3.4213 -1.1248  0.0869
  305MOL0     H41135   5.169  10.225   2.289 -1.7514  1.6435  0.6363
  305MOL0     H41136   4.925  10.332   2.140  1.2971 -2.8920  0.5433
  305MOL0     H41137   4.868  10.396   2.296  0.0424  2.5173 -1.8085
  305MOL0     H41138   5.039  10.405   2.258  1.5032 -3.4338  2.1640
  305MOL0     H41139   4.458  10.052   2.177 -0.9232 -1.9111  1.1304
  305MOL0     H41140   4.227  10.084   2.160 -0.5647  0.3811 -0.4294
  305MOL0     H41141   4.050  10.106   2.509 -2.1302 -0.4142 -0.1041
  305MOL0     H41142   3.958  10.258   2.495 -1.0961 -1.4127  2.7388
  305MOL0     H41143   3.833  10.167   2.311 -1.6087  1.0884  2.0605
  305MOL0     H41144   3.908  10.009   2.350  0.1661 -0.9740  0.6162
  305MOL0     H41145   3.732  10.193   2.530  0.6986  0.0265  1.2509
  305MOL0     H41146   3.831  10.064   2.597  1.8370  3.7173  0.7929
  305MOL0     H41147   3.615  10.066   2.370 -2.0286 -1.5223 -0.7268
  305MOL0     H41148   3.682   9.916   2.422  2.4811  2.0315 -1.2807
  305MOL0     H41149   3.544  10.107   2.615 -0.7086 -0.5921  0.6572
  305MOL0     H41150   3.604   9.954   2.658 -1.0162 -0.0649  0.0503
  305MOL0     H41151   3.412   9.932   2.439 -1.1976 -0.1345 -0.5917
  305MOL0     H41152   3.419   9.846   2.584  1.4327 -0.1575 -1.0275
  305MOL0     H41153   3.314  10.131   2.533  1.7377  2.2540  3.4146
  305MOL0     H41154   3.299  10.066   2.698 -2.2131 -1.8413  0.5841
  305MOL0     H41155   3.171   9.880   2.635  2.1444  0.4751  2.1969
  305MOL0     H41156   3.172   9.933   2.468 -0.1961 -3.5403  1.3261
  305MOL0     H41157   4.233  10.283   2.539 -0.6626 -0.4412 -1.2587
  305MOL0     H41158   4.471  10.213   2.569 -2.2456  0.7997  0.7534
  305MOL0     H41159   4.787   9.942   2.422  0.2057  0.5479 -2.3309
  305MOL0     H41160   5.025   9.880   2.505  3.0068  0.7037  0.3387
  305MOL0     H41161   6.675   9.629   2.381 -2.2400  0.5122 -1.1113
  305MOL0     H41162   6.914   9.664   2.332  1.8380 -1.3958 -1.0652
  305MOL0     H41163   7.253   9.712   2.212  0.3914  0.8542 -0.4103
  305MOL0     H41164   7.490   9.755   2.241  1.4200  0.2376 -0.3818
  305MOL0     H41165   7.751   9.580   1.932 -2.0766  1.1530 -1.4649
  305MOL0     H41166   7.765   9.750   1.887  1.8447  3.2933  1.3146
  305MOL0     H41167   7.988   9.695   1.945 -0.8075 -0.7711 -1.8571
  305MOL0     H41168   7.942   9.562   2.050  2.2098  0.0997 -3.1853
  305MOL0     H41169   7.881   9.694   2.231  1.2809 -0.7596  0.6854
  305MOL0     H41170   7.908   9.853   2.149 -0.9680 -0.8796  1.4210
  305MOL0     H41171   8.090   9.793   2.311  0.6175 -1.1177  0.5623
  305MOL0     H41172   8.143   9.820   2.154 -0.0635  1.4887  1.7500
  305MOL0     H41173   8.223   9.405   2.205 -0.2618 -0.1197  0.3704
  305MOL0     H41174   7.557   9.657   1.825  1.2846 -2.7662  1.0824
  305MOL0     H41175   7.325   9.596   1.797  2.8683  3.0547 -2.0565
  306MOL0     O41176   0.457   0.619   0.595 -0.5426 -0.7420  0.3527
  306MOL0     C41177   0.531   0.651   0.690 -0.0516 -0.3279 -0.0041
  306MOL0     O41178   0.494   0.678   0.820 -0.0347  0.3178 -0.8818
  306MOL0     C41179   0.364   0.684   0.853 -0.3906  0.8365 -0.4257
  306MOL0     C41180   0.300   0.804   0.823  0.0948 -0.0728 -0.3189
  306MOL0     C41181   0.161   0.812   0.837  0.0287  0.5701  0.1885
  306MOL0     C41182   0.090   0.701   0.867 -0.0116  0.5530 -0.0456
  306MOL0     O41183  -0.045   0.724   0.880 -0.4906 -0.4362 -0.2559
  306MOL0     C41184  -0.134   0.618   0.861 -0.0236 -0.1981  0.0054
  306MOL0     C41185  -0.274   0.659   0.851  1.0239 -0.4692 -0.5521
  306MOL0     C41186  -0.299   0.757   0.737 -0.0767  0.2865  0.3993
  306MOL0     C41187  -0.442   0.768   0.707 -0.4238  0.0545 -0.1948
  306MOL0     C41188  -0.457   0.844   0.579 -0.6054 -0.2002  1.2296
  306MOL0     C41189  -0.588   0.917   0.580  0.2749  0.3961  0.7425
  306MOL0     C41190  -0.622   0.992   0.451  0.3652 -0.7239 -0.6648
  306MOL0     C41191  -0.762   1.045   0.453  0.9402 -0.8389  0.6327
  306MOL0     N41192  -0.853   0.934   0.442 -0.8018  0.7400  0.1567
  306MOL0     C41193  -0.945   0.893   0.539 -0.0416  0.1751  0.1077
  306MOL0     C41194  -1.028   0.799   0.483 -0.0013  0.6217  0.5388
  306MOL0     C41195  -1.133   0.706   0.545  0.2521  0.6946  0.5925
  306MOL0     C41196  -1.269   0.744   0.498  0.2381 -0.2580 -0.4687
  306MOL0     C41197  -1.321   0.859   0.582 -0.2858  0.1400  0.2477
  306MOL0     C41198  -1.468   0.897   0.551 -0.2913  0.1735 -0.4787
  306MOL0     O41199  -1.494   1.026   0.585  0.4770 -0.4397 -0.1941
  306MOL0     C41200  -1.629   1.058   0.592  0.3371 -0.0569 -0.3537
  306MOL0     C41201  -1.734   0.970   0.548  0.3507 -0.6194 -0.3786
  306MOL0     C41202  -1.873   1.012   0.554  0.0007  0.0342 -0.3379
  306MOL0     C41203  -1.976   0.922   0.491  0.2981  0.0517 -0.1051
  306MOL0     C41204  -1.902   1.143   0.602 -0.0988  0.4650 -0.5158
  306MOL0     C41205  -2.040   1.200   0.617 -0.0083  0.2944 -0.6967
  306MOL0     O41206  -2.137   1.152   0.530  0.5114  0.0344  0.6411
  306MOL0     C41207  -2.269   1.195   0.545  0.0181  1.1548 -0.1205
  306MOL0     C41208  -2.331   1.251   0.661 -0.2736 -0.0914  0.8242
  306MOL0     C41209  -2.474   1.285   0.661  0.4756 -0.3984 -0.6035
  306MOL0     C41210  -2.551   1.246   0.550 -0.8951 -0.2580 -0.1228
  306MOL0     O41211  -2.688   1.270   0.549 -0.0582 -0.1914  0.0843
  306MOL0     C41212  -2.743   1.370   0.637 -0.4326 -0.5275  0.3846
  306MOL0     C41213  -2.892   1.378   0.597  0.4541 -0.1677  0.6300
  306MOL0     C41214  -2.969   1.503   0.654  0.1546 -0.2096  0.4246
  306MOL0     C41215  -2.975   1.499   0.809  0.0737 -0.4611  0.3841
  306MOL0     C41216  -3.093   1.584   0.871 -0.5654 -0.5352  0.1535
  306MOL0     C41217  -3.105   1.727   0.815  0.3139  0.1674 -0.0739
  306MOL0     C41218  -3.200   1.827   0.893  0.2408 -0.6998 -0.0106
  306MOL0     C41219  -3.342   1.784   0.917  0.4300 -0.0268  0.6971
  306MOL0    Cl41220  -3.446   1.797   0.772 -0.0888  0.2183 -0.0663
  306MOL0     C41221  -2.492   1.183   0.444 -0.1444 -1.6990  0.9287
  306MOL0     C41222  -2.353   1.159   0.437 -0.1997  0.2240 -1.1201
  306MOL0     O41223  -2.046   1.300   0.689  0.7042 -0.0085 -0.5228
  306MOL0     C41224  -1.789   1.217   0.644  1.1066  0.2454  0.4626
  306MOL0     C41225  -1.660   1.174   0.650 -0.4230 -0.3214  0.4172
  306MOL0     N41226  -0.970   0.785   0.354  0.2215 -1.0019 -0.2341
  306MOL0     N41227  -0.874   0.864   0.331  0.0491  0.3285 -1.1238
  306MOL0     C41228   0.151   0.590   0.914 -0.3842 -0.5343 -0.3554
  306MOL0     C41229   0.284   0.573   0.906  0.1016 -0.7053 -0.3703
  306MOL0     C41230   0.679   0.652   0.671 -0.1088 -0.0334 -0.0804
  306MOL0     C41231   0.743   0.657   0.546  0.3576  0.5344  0.4939
  306MOL0     C41232   0.878   0.663   0.534  0.3529  1.0298  0.7864
  306MOL0     C41233   0.966   0.658   0.642 -0.1979  0.9723 -0.0727
  306MOL0     O41234   1.105   0.663   0.636  0.9701  0.0697 -0.3814
  306MOL0     C41235   1.178   0.662   0.508  0.7659  0.5476 -0.5539
  306MOL0     C41236   1.195   0.515   0.462  0.1493  0.4138  0.3369
  306MOL0     C41237   1.334   0.469   0.497 -0.1582  0.8876  0.4019
  306MOL0     C41238   1.425   0.454   0.377  0.2893 -0.6205 -0.0697
  306MOL0     C41239   1.493   0.573   0.324 -0.4913 -0.5988 -0.1934
  306MOL0     C41240   1.556   0.671   0.284 -0.0394  0.0959 -0.1316
  306MOL0     C41241   0.906   0.656   0.767 -0.2468  0.3182 -0.8686
  306MOL0     C41242   0.766   0.648   0.783  0.0508 -0.0921  0.2959
  306MOL0     H41243   0.367   0.886   0.799  1.2277 -1.0925 -0.7136
  306MOL0     H41244   0.106   0.904   0.825  0.3666  1.1419  2.5804
  306MOL0     H41245  -0.106   0.567   0.770  3.1188 -0.7484  1.1666
  306MOL0     H41246  -0.122   0.554   0.949  0.9096  0.4466  0.3685
  306MOL0     H41247  -0.333   0.570   0.826  0.0108 -0.2539  0.9346
  306MOL0     H41248  -0.309   0.697   0.948  3.7610 -2.3217  1.3038
  306MOL0     H41249  -0.266   0.859   0.758 -1.9972  0.4213  3.3432
  306MOL0     H41250  -0.253   0.728   0.642  0.5083  0.0847  0.7423
  306MOL0     H41251  -0.487   0.669   0.689  0.5527 -0.1130 -1.9540
  306MOL0     H41252  -0.493   0.817   0.790 -3.0209 -0.5951 -1.2681
  306MOL0     H41253  -0.381   0.921   0.562  0.2308 -0.9829  1.3225
  306MOL0     H41254  -0.444   0.779   0.492  2.2801  0.4771  1.0594
  306MOL0     H41255  -0.675   0.859   0.615 -0.2872  0.3590 -0.6345
  306MOL0     H41256  -0.589   0.997   0.654 -0.0027  0.5619  0.5592
  306MOL0     H41257  -0.546   1.067   0.432  0.4566 -0.6114  0.1011
  306MOL0     H41258  -0.616   0.920   0.368  0.6507 -1.0353 -0.3814
  306MOL0     H41259  -0.764   1.101   0.358  1.9051 -3.0758 -0.7914
  306MOL0     H41260  -0.787   1.110   0.537 -0.6714  1.1124 -1.2209
  306MOL0     H41261  -0.957   0.928   0.641 -0.4407 -0.9611  0.4623
  306MOL0     H41262  -1.131   0.599   0.519 -2.6625  0.9134 -0.8881
  306MOL0     H41263  -1.121   0.706   0.654  3.9981 -0.0097  0.2986
  306MOL0     H41264  -1.339   0.660   0.508 -0.4800  0.3536 -0.3031
  306MOL0     H41265  -1.272   0.784   0.396 -1.9473  1.5369  0.2336
  306MOL0     H41266  -1.258   0.948   0.582 -3.5729  2.6366  0.5903
  306MOL0     H41267  -1.307   0.831   0.686 -2.1373  2.0833  1.0936
  306MOL0     H41268  -1.522   0.826   0.614  0.5929  0.7850  1.0306
  306MOL0     H41269  -1.491   0.879   0.446  0.1593  0.6731 -0.6673
  306MOL0     H41270  -1.713   0.869   0.516 -2.7061 -0.7872 -2.1903
  306MOL0     H41271  -2.027   0.968   0.406  1.2208 -1.5471 -1.5749
  306MOL0     H41272  -1.930   0.836   0.443  2.4178  0.7568  0.5432
  306MOL0     H41273  -2.050   0.886   0.563  1.2833 -0.3016  0.7489
  306MOL0     H41274  -2.273   1.280   0.748  0.9508  0.7858 -0.2587
  306MOL0     H41275  -2.505   1.353   0.739  0.2910  0.0208 -1.0349
  306MOL0     H41276  -2.727   1.348   0.743  2.2201  0.1404  0.2146
  306MOL0     H41277  -2.694   1.467   0.622 -2.2103  0.0699 -2.2134
  306MOL0     H41278  -2.893   1.395   0.489  0.9688  0.8701  0.7766
  306MOL0     H41279  -2.945   1.285   0.617 -1.9887  0.9752 -0.1645
  306MOL0     H41280  -3.067   1.503   0.606  0.0153 -1.2956  0.6841
  306MOL0     H41281  -2.912   1.589   0.618  1.2633 -1.4297 -0.9079
  306MOL0     H41282  -2.995   1.393   0.830  2.1941 -1.3899 -1.7859
  306MOL0     H41283  -2.876   1.516   0.851  1.0033 -2.8572 -0.5932
  306MOL0     H41284  -3.089   1.581   0.980 -2.8585  1.6055  0.3896
  306MOL0     H41285  -3.185   1.536   0.837 -1.7659  1.8758 -0.1960
  306MOL0     H41286  -3.011   1.783   0.816  0.3914  0.0434  1.6039
  306MOL0     H41287  -3.143   1.715   0.713  0.7098 -0.8098 -0.1198
  306MOL0     H41288  -3.203   1.923   0.841  0.8737 -0.9691 -0.5558
  306MOL0     H41289  -3.167   1.849   0.995 -0.6062  1.8199 -0.2006
  306MOL0     H41290  -3.384   1.846   0.997  3.3632  0.6904  1.8079
  306MOL0     H41291  -3.347   1.681   0.953  0.7024  0.3396  1.8224
  306MOL0     H41292  -2.550   1.158   0.356  0.5189  3.2954 -1.2937
  306MOL0     H41293  -2.312   1.100   0.355  2.7290 -3.1374  2.3860
  306MOL0     H41294  -1.813   1.316   0.683  0.6857  0.3785 -0.1320
  306MOL0     H41295  -1.582   1.226   0.705 -1.0172  0.9619  0.0957
  306MOL0     H41296   0.082   0.523   0.963 -1.1146 -0.5078 -1.3275
  306MOL0     H41297   0.336   0.488   0.950  2.1560 -0.1204 -1.5270
  306MOL0     H41298   0.695   0.674   0.450  0.4742 -0.1488  0.3064
  306MOL0     H41299   0.935   0.681   0.443 -0.0344 -2.4203 -0.2657
  306MOL0     H41300   1.140   0.717   0.421  2.3649 -2.3655 -3.3176
  306MOL0     H41301   1.275   0.703   0.538  0.0383  0.9713  1.3182
  306MOL0     H41302   1.180   0.504   0.354 -1.1760 -1.8179  0.6878
  306MOL0     H41303   1.116   0.462   0.515 -0.8071  1.7683  0.3312
  306MOL0     H41304   1.323   0.370   0.544 -1.6937  0.1818 -1.3283
  306MOL0     H41305   1.381   0.528   0.576  0.6085  0.3086  0.3925
  306MOL0     H41306   1.372   0.397   0.300  0.3303  0.7687 -1.1555
  306MOL0     H41307   1.505   0.390   0.417  3.0352  3.4503  1.6136
  306MOL0     H41308   1.610   0.759   0.258  1.7154 -0.1388  2.4279
  306MOL0     H41309   0.973   0.648   0.853  0.1436 -4.1066 -1.3494
  306MOL0     H41310   0.722   0.630   0.881 -1.5336 -1.4706 -0.6395
  307MOL0     O41311   1.248   4.969   4.884 -0.5737 -0.1829 -1.1379
  307MOL0     C41312   1.311   4.913   4.976 -0.5659 -0.4187  0.1556
  307MOL0     O41313   1.279   4.917   5.111  0.8179  1.0886  0.5101
  307MOL0     C41314   1.171   4.990   5.152  0.9239 -0.0373  0.2659
  307MOL0     C41315   1.045   4.984   5.091  0.0392  0.7393  0.3119
  307MOL0     C41316   0.935   5.049   5.128  0.0697 -0.4441 -0.3864
  307MOL0     C41317   0.943   5.126   5.242  0.7656  0.1032 -0.2521
  307MOL0     O41318   0.830   5.189   5.300 -0.1717 -0.2836 -0.4449
  307MOL0     C41319   0.701   5.165   5.259 -0.1220  1.0365  0.3589
  307MOL0     C41320   0.639   5.035   5.299  1.1524 -0.3126 -1.0329
  307MOL0     C41321   0.482   5.036   5.293 -0.6792 -0.4906  0.4308
  307MOL0     C41322   0.418   4.897   5.324  0.5612  0.5484 -0.2171
  307MOL0     C41323   0.268   4.880   5.298  0.6939  0.0049 -0.9443
  307MOL0     C41324   0.211   4.910   5.157  0.3495  0.1093  0.9521
  307MOL0     C41325   0.264   4.812   5.050 -0.5707  0.0818 -0.3463
  307MOL0     C41326   0.196   4.810   4.913 -0.4535  0.1811  0.2038
  307MOL0     N41327   0.209   4.934   4.832  0.3428 -0.1573 -0.1401
  307MOL0     C41328   0.329   5.000   4.793 -0.1353  0.5926  0.1772
  307MOL0     C41329   0.291   5.124   4.759 -0.6022  0.7969 -0.1239
  307MOL0     C41330   0.381   5.234   4.701 -0.0111  0.3335 -0.2254
  307MOL0     C41331   0.478   5.291   4.804 -0.2925 -1.1383 -0.3750
  307MOL0     C41332   0.560   5.404   4.748 -0.9844  0.1790  0.1100
  307MOL0     C41333   0.469   5.531   4.720  0.5522  0.3170  0.4880
  307MOL0     O41334   0.431   5.552   4.579  0.1259 -0.1068  0.0028
  307MOL0     C41335   0.310   5.607   4.545 -0.6881  0.5909  0.5991
  307MOL0     C41336   0.276   5.597   4.408 -0.0354 -0.0746  0.2939
  307MOL0     C41337   0.155   5.658   4.360  0.3717 -0.6611 -1.0121
  307MOL0     C41338   0.104   5.624   4.221 -0.5923  0.0850  0.2875
  307MOL0     C41339   0.078   5.737   4.447 -0.0570  0.7641  0.4155
  307MOL0     C41340  -0.039   5.804   4.404  0.2835  0.0967 -0.7896
  307MOL0     O41341  -0.143   5.808   4.494 -0.3080  0.4339  0.1517
  307MOL0     C41342  -0.270   5.857   4.465  0.5180  0.2134  0.0805
  307MOL0     C41343  -0.313   5.947   4.366  0.6530 -0.3624  0.0888
  307MOL0     C41344  -0.453   5.968   4.361  0.3330 -1.0369 -0.4001
  307MOL0     C41345  -0.543   5.912   4.453 -0.5875  0.4430 -0.8748
  307MOL0     O41346  -0.675   5.937   4.427  0.6591 -0.7250 -0.2658
  307MOL0     C41347  -0.784   5.892   4.513 -0.3100 -0.0645  0.6566
  307MOL0     C41348  -0.907   5.957   4.443  0.8790  0.2149 -0.5734
  307MOL0     C41349  -1.036   5.896   4.503 -0.0605  0.2654  0.3928
  307MOL0     C41350  -1.162   5.954   4.448  0.2599 -0.1338  0.5165
  307MOL0     C41351  -1.284   5.885   4.505  0.1309 -0.3795  0.6826
  307MOL0     C41352  -1.411   5.920   4.431  0.9350 -0.3338  0.8460
  307MOL0     C41353  -1.525   5.852   4.503  0.4545  0.1762 -0.2868
  307MOL0     C41354  -1.650   5.907   4.436  0.0196  0.0081  0.0193
  307MOL0    Cl41355  -1.784   5.822   4.508 -0.0576  0.0142  0.0688
  307MOL0     C41356  -0.501   5.824   4.547 -0.4483 -0.0673 -1.1057
  307MOL0     C41357  -0.366   5.786   4.549 -0.0763  0.1070  0.8646
  307MOL0     O41358  -0.036   5.861   4.296 -0.2673  0.3826  0.2302
  307MOL0     C41359   0.118   5.749   4.586 -0.1913 -0.4216  0.6465
  307MOL0     C41360   0.230   5.690   4.627 -0.7728 -0.4527  0.7800
  307MOL0     N41361   0.156   5.135   4.773  0.3012 -0.7217  0.1429
  307MOL0     N41362   0.113   5.027   4.833  0.3762 -0.1551  0.4983
  307MOL0     C41363   1.061   5.136   5.314 -0.1457  0.4973 -0.3996
  307MOL0     C41364   1.181   5.072   5.265  0.1024 -0.2485 -0.2002
  307MOL0     C41365   1.437   4.847   4.941 -0.9260  0.2862  1.1012
  307MOL0     C41366   1.508   4.786   5.043 -0.0731  0.1628 -0.6597
  307MOL0     C41367   1.630   4.727   5.012  0.8859  0.3294 -0.4795
  307MOL0     C41368   1.689   4.733   4.882 -0.0798  0.9150 -1.0088
  307MOL0     O41369   1.818   4.674   4.875  0.2266  0.1526  0.2272
  307MOL0     C41370   1.865   4.645   4.740  0.5444  0.0252  1.2230
  307MOL0     C41371   2.023   4.632   4.761 -0.0724  0.3314 -0.5443
  307MOL0     C41372   2.090   4.732   4.858 -1.1172  0.0199  0.0020
  307MOL0     C41373   2.124   4.661   4.998 -0.2925 -0.3854  0.1499
  307MOL0     C41374   2.243   4.571   4.979 -0.1651  0.6582  0.2501
  307MOL0     C41375   2.347   4.504   4.972  0.1838 -0.7069 -0.4146
  307MOL0     C41376   1.609   4.786   4.783 -0.0297  0.1000  0.3643
  307MOL0     C41377   1.492   4.857   4.811 -0.0808 -0.2389 -0.1191
  307MOL0     H41378   1.029   4.917   5.007  3.0429  0.6536 -0.3020
  307MOL0     H41379   0.846   5.031   5.067  1.0525 -3.0652 -1.1636
  307MOL0     H41380   0.636   5.244   5.297 -0.8679  1.2769 -1.3605
  307MOL0     H41381   0.693   5.177   5.151  1.8149 -0.0312  0.0530
  307MOL0     H41382   0.682   4.966   5.226  0.0792  0.4430 -2.4232
  307MOL0     H41383   0.676   5.006   5.398 -1.8936 -1.2964 -0.0519
  307MOL0     H41384   0.439   5.124   5.342 -1.1956 -0.0260 -0.8269
  307MOL0     H41385   0.461   5.051   5.187 -1.5827 -0.3798  0.6158
  307MOL0     H41386   0.472   4.822   5.265 -0.9550 -1.0515  0.3205
  307MOL0     H41387   0.429   4.874   5.430  3.2658 -0.3578 -0.6182
  307MOL0     H41388   0.224   4.783   5.322 -0.2817  0.6514 -0.0010
  307MOL0     H41389   0.222   4.961   5.356  1.3842 -0.6153  0.4947
  307MOL0     H41390   0.102   4.912   5.149  0.2009 -3.1562  1.0269
  307MOL0     H41391   0.241   5.014   5.138  0.8710 -0.1269  0.4389
  307MOL0     H41392   0.370   4.838   5.037 -0.6519  1.2348  1.0005
  307MOL0     H41393   0.242   4.712   5.088 -1.8078  0.3759 -0.2552
  307MOL0     H41394   0.091   4.782   4.928  0.5023 -2.7657  2.3055
  307MOL0     H41395   0.240   4.733   4.850  2.2930  0.0269  2.1587
  307MOL0     H41396   0.428   4.956   4.780 -0.4857 -0.6784  1.5556
  307MOL0     H41397   0.444   5.187   4.626 -0.0876 -1.2666  0.6830
  307MOL0     H41398   0.324   5.318   4.659 -0.4360  0.0772 -0.1694
  307MOL0     H41399   0.548   5.213   4.836 -0.1831 -0.3474  1.4386
  307MOL0     H41400   0.428   5.326   4.895  0.6485 -1.5564  0.3232
  307MOL0     H41401   0.612   5.370   4.659 -1.2206  0.1156 -0.0024
  307MOL0     H41402   0.635   5.426   4.825 -3.9186  1.0002  2.9945
  307MOL0     H41403   0.510   5.627   4.753  3.7407 -0.1310 -1.7208
  307MOL0     H41404   0.379   5.512   4.780  0.7062 -1.7765  0.1193
  307MOL0     H41405   0.336   5.538   4.339  1.1418  2.3088 -0.8731
  307MOL0     H41406   0.132   5.524   4.187  3.1264  0.9809  0.2190
  307MOL0     H41407  -0.003   5.643   4.214 -1.1144 -2.3619  0.6247
  307MOL0     H41408   0.164   5.692   4.160  1.2405 -1.3585  0.3886
  307MOL0     H41409  -0.248   5.986   4.288  2.1216  0.0355  1.4295
  307MOL0     H41410  -0.488   6.037   4.285  1.1455  1.2265  1.1719
  307MOL0     H41411  -0.791   5.784   4.494  0.1577  0.2482 -1.5203
  307MOL0     H41412  -0.775   5.920   4.618 -1.8670  2.1632  0.2619
  307MOL0     H41413  -0.907   6.065   4.459  2.9007 -0.0117  1.4879
  307MOL0     H41414  -0.912   5.934   4.336  2.4185 -0.2781 -0.5605
  307MOL0     H41415  -1.028   5.903   4.612 -0.5032 -1.9503  0.6082
  307MOL0     H41416  -1.036   5.790   4.477 -0.5853  0.2998  0.2485
  307MOL0     H41417  -1.162   6.062   4.467  2.2661  0.2405 -1.1452
  307MOL0     H41418  -1.161   5.938   4.340 -0.5899  0.6835  0.3812
  307MOL0     H41419  -1.281   5.901   4.614 -1.5657  0.8979  0.5802
  307MOL0     H41420  -1.261   5.779   4.490  1.2924 -0.1780  0.9292
  307MOL0     H41421  -1.418   6.029   4.436 -1.2504 -0.3755 -0.1786
  307MOL0     H41422  -1.400   5.893   4.325  0.4562  2.2321  0.0735
  307MOL0     H41423  -1.532   5.875   4.610  0.6437  1.3848 -0.5215
  307MOL0     H41424  -1.525   5.743   4.497  0.8273  0.0462  1.4943
  307MOL0     H41425  -1.654   5.883   4.329  0.3526  1.3513 -0.3060
  307MOL0     H41426  -1.657   6.016   4.439 -1.8924 -0.0868  0.0379
  307MOL0     H41427  -0.564   5.762   4.610  4.1770 -2.5443  1.7326
  307MOL0     H41428  -0.333   5.714   4.623  1.2240  0.6152  0.8102
  307MOL0     H41429   0.059   5.809   4.655 -0.0666  0.8335 -0.2907
  307MOL0     H41430   0.263   5.702   4.729  1.1955  0.5786  0.0835
  307MOL0     H41431   1.050   5.196   5.403 -1.8686 -2.0353  1.2441
  307MOL0     H41432   1.277   5.078   5.315 -0.2263  1.0072  0.3220
  307MOL0     H41433   1.482   4.795   5.148  1.0455 -1.0570 -0.2492
  307MOL0     H41434   1.691   4.686   5.091  0.3918 -0.5770 -0.5630
  307MOL0     H41435   1.813   4.551   4.718  0.2029  0.2920  0.8762
  307MOL0     H41436   1.840   4.719   4.663 -0.6061 -2.0523 -0.5256
  307MOL0     H41437   2.066   4.647   4.661 -0.2594  2.7987 -0.3139
  307MOL0     H41438   2.038   4.533   4.804 -0.7743  0.7182  0.6201
  307MOL0     H41439   2.037   4.827   4.867  1.2874  1.8164 -2.9559
  307MOL0     H41440   2.186   4.757   4.813 -1.2067 -1.4994 -1.1020
  307MOL0     H41441   2.037   4.605   5.033 -0.0760 -1.2241 -0.6153
  307MOL0     H41442   2.144   4.726   5.083 -2.0206  0.4978 -0.0778
  307MOL0     H41443   2.434   4.443   4.964 -0.5221 -1.6417 -1.2520
  307MOL0     H41444   1.638   4.787   4.678 -3.0277 -0.9278 -0.6017
  307MOL0     H41445   1.440   4.910   4.733 -1.0133  1.9371  1.8835
  308MOL0     O41446   0.204   2.616   7.829  0.6698  0.5743  0.1781
  308MOL0     C41447   0.225   2.499   7.857 -0.0809  0.4634  0.9709
  308MOL0     O41448   0.150   2.393   7.816 -0.9019  0.5499  0.1951
  308MOL0     C41449   0.028   2.411   7.762 -0.7975 -0.5440 -0.2072
  308MOL0     C41450  -0.001   2.371   7.637 -0.0064 -0.1612 -0.0067
  308MOL0     C41451  -0.122   2.418   7.581 -0.6927 -0.1705  0.5067
  308MOL0     C41452  -0.220   2.482   7.651 -0.3022  0.4294 -0.0504
  308MOL0     O41453  -0.332   2.516   7.591  1.5944 -1.1622 -0.4389
  308MOL0     C41454  -0.440   2.428   7.609 -0.3414 -0.1220  0.6176
  308MOL0     C41455  -0.538   2.453   7.719 -0.4598 -1.0914 -0.3660
  308MOL0     C41456  -0.662   2.367   7.714  0.1414 -0.0701 -0.1797
  308MOL0     C41457  -0.764   2.414   7.810  0.1046  0.2038  0.3288
  308MOL0     C41458  -0.881   2.307   7.835  0.5612 -0.3815  0.0746
  308MOL0     C41459  -0.983   2.370   7.937  0.1538 -0.0601  0.3666
  308MOL0     C41460  -1.113   2.290   7.946 -0.9237 -0.0044 -0.5404
  308MOL0     C41461  -1.229   2.370   7.988 -0.1953  0.2983  0.3440
  308MOL0     N41462  -1.348   2.292   8.014  1.2345  0.4227  0.0450
  308MOL0     C41463  -1.432   2.238   7.920  0.1119  0.2059 -0.6556
  308MOL0     C41464  -1.539   2.196   7.990  0.6237  0.6153  0.0847
  308MOL0     C41465  -1.661   2.127   7.928 -0.4680  0.2434 -0.9448
  308MOL0     C41466  -1.786   2.204   7.955  0.2250  0.2290 -0.1614
  308MOL0     C41467  -1.823   2.204   8.104  0.2806 -0.1224 -0.2455
  308MOL0     C41468  -1.945   2.285   8.115 -0.2477 -0.9974 -0.0485
  308MOL0     O41469  -2.065   2.217   8.071 -0.0013  0.1910 -0.2957
  308MOL0     C41470  -2.187   2.268   8.108 -0.2538 -0.4048 -0.3608
  308MOL0     C41471  -2.218   2.382   8.180 -0.4213  0.3576  0.1124
  308MOL0     C41472  -2.349   2.429   8.204  0.3245  0.5196 -0.2960
  308MOL0     C41473  -2.357   2.550   8.300  0.2436  0.0640  0.5702
  308MOL0     C41474  -2.460   2.349   8.157  0.4107 -0.5889 -0.1518
  308MOL0     C41475  -2.603   2.385   8.184  0.5832  0.7195 -0.6562
  308MOL0     O41476  -2.687   2.281   8.204 -0.2493  0.1461  0.8598
  308MOL0     C41477  -2.801   2.298   8.280  0.5498 -0.7828 -0.3173
  308MOL0     C41478  -2.833   2.394   8.380  0.5768  0.7909 -0.7626
  308MOL0     C41479  -2.954   2.393   8.457 -0.1371 -0.0505  0.0300
  308MOL0     C41480  -3.053   2.297   8.440 -0.0115  0.2451  0.3022
  308MOL0     O41481  -3.168   2.294   8.515  0.1264  0.4463 -0.3367
  308MOL0     C41482  -3.276   2.202   8.487  0.0868  0.1910  0.0707
  308MOL0     C41483  -3.400   2.241   8.563 -0.1699  0.0639 -0.1080
  308MOL0     C41484  -3.503   2.130   8.578 -1.1539 -0.0184 -0.7303
  308MOL0     C41485  -3.634   2.170   8.658 -0.0045  0.6929  0.9725
  308MOL0     C41486  -3.756   2.093   8.613  0.5971  0.3422 -0.3553
  308MOL0     C41487  -3.882   2.130   8.697 -0.1646 -0.5159 -0.1977
  308MOL0     C41488  -4.000   2.046   8.651  0.4137  0.0111 -0.6679
  308MOL0     C41489  -4.117   2.115   8.720  0.1978  0.0166  0.2421
  308MOL0    Cl41490  -4.274   2.040   8.690 -0.0734 -0.6922  0.1846
  308MOL0     C41491  -3.021   2.206   8.342  0.4596 -0.3949  0.4976
  308MOL0     C41492  -2.904   2.209   8.266  0.2270 -0.2200 -0.1730
  308MOL0     O41493  -2.627   2.504   8.199  0.2424  0.1894 -0.1166
  308MOL0     C41494  -2.430   2.231   8.085 -0.5141 -0.0888  0.2858
  308MOL0     C41495  -2.298   2.184   8.073 -0.0613  0.4240  0.8277
  308MOL0     N41496  -1.516   2.211   8.129  0.1469 -0.7016  0.4976
  308MOL0     N41497  -1.400   2.259   8.137 -0.1699 -0.3519 -0.7644
  308MOL0     C41498  -0.197   2.500   7.788  0.3108 -0.2048  0.0469
  308MOL0     C41499  -0.075   2.461   7.841  0.9371 -0.6953 -0.2660
  308MOL0     C41500   0.341   2.470   7.935 -0.1504  0.3655 -0.2128
  308MOL0     C41501   0.427   2.575   7.972  0.2545  0.5111  0.8380
  308MOL0     C41502   0.541   2.530   8.042  0.0292  0.2658 -0.2639
  308MOL0     C41503   0.570   2.401   8.077 -0.5918  0.1938  0.3501
  308MOL0     O41504   0.684   2.355   8.136 -0.1779  0.3977 -0.5853
  308MOL0     C41505   0.801   2.443   8.152 -0.1831  0.0746 -0.1066
  308MOL0     C41506   0.895   2.350   8.235  0.0830  0.1740 -0.0409
  308MOL0     C41507   1.032   2.417   8.273 -0.1616 -0.5709  0.1725
  308MOL0     C41508   1.109   2.350   8.395  0.0246  0.3384  0.0545
  308MOL0     C41509   1.140   2.207   8.381 -0.8794 -0.4088  0.6253
  308MOL0     C41510   1.199   2.109   8.362 -0.0641  0.3691 -0.7103
  308MOL0     C41511   0.479   2.303   8.043  0.7111 -0.1225  0.5792
  308MOL0     C41512   0.358   2.333   7.976 -0.7650 -0.1708 -0.4289
  308MOL0     H41513   0.074   2.320   7.577  0.3833  0.5885 -0.1677
  308MOL0     H41514  -0.140   2.396   7.476 -3.2724 -0.4233  0.9378
  308MOL0     H41515  -0.507   2.425   7.523 -0.6528 -0.5039  0.8709
  308MOL0     H41516  -0.394   2.329   7.622 -1.2233 -1.0094 -2.2136
  308MOL0     H41517  -0.491   2.436   7.817  1.3661 -0.7817 -1.1517
  308MOL0     H41518  -0.562   2.560   7.719  0.1966 -0.9367  0.1073
  308MOL0     H41519  -0.709   2.365   7.615 -0.2346  1.2425 -0.0393
  308MOL0     H41520  -0.628   2.266   7.738  1.3282  0.8279  2.1987
  308MOL0     H41521  -0.724   2.434   7.910 -2.3702 -0.0979  1.4474
  308MOL0     H41522  -0.800   2.506   7.765  0.4420 -0.9771 -2.5644
  308MOL0     H41523  -0.933   2.292   7.740 -0.9272 -2.9212  1.2054
  308MOL0     H41524  -0.849   2.208   7.868 -2.1209 -1.5450 -0.5354
  308MOL0     H41525  -0.926   2.383   8.030 -0.3129  1.2679  0.4864
  308MOL0     H41526  -1.001   2.474   7.906 -0.9673 -0.3191  0.1073
  308MOL0     H41527  -1.141   2.257   7.846 -0.5375 -2.1540  0.0156
  308MOL0     H41528  -1.085   2.206   8.011  2.3261  1.3039 -0.0246
  308MOL0     H41529  -1.257   2.449   7.918  1.4333  0.8374  0.2734
  308MOL0     H41530  -1.193   2.415   8.081  0.9454 -0.6858  0.4054
  308MOL0     H41531  -1.424   2.243   7.811 -1.5760  0.0743 -0.8264
  308MOL0     H41532  -1.650   2.131   7.819 -1.9023  0.4427 -1.1003
  308MOL0     H41533  -1.667   2.022   7.959  0.0480  0.1958 -0.9989
  308MOL0     H41534  -1.866   2.152   7.902  1.8120 -3.8969  1.0537
  308MOL0     H41535  -1.773   2.306   7.918  0.4615 -0.0530 -0.8852
  308MOL0     H41536  -1.752   2.267   8.158 -0.7147  2.8274 -2.1606
  308MOL0     H41537  -1.849   2.103   8.137  0.5133 -0.0909  0.0407
  308MOL0     H41538  -1.926   2.373   8.054  1.3254 -1.6312 -0.5302
  308MOL0     H41539  -1.967   2.318   8.217 -3.0948 -1.8943 -0.2672
  308MOL0     H41540  -2.131   2.441   8.205 -0.3744 -0.1999  1.3478
  308MOL0     H41541  -2.260   2.575   8.343 -0.4926  0.6054  1.9647
  308MOL0     H41542  -2.386   2.631   8.232 -0.0902 -0.1189  0.4919
  308MOL0     H41543  -2.427   2.536   8.383  2.3312 -1.5194  2.1661
  308MOL0     H41544  -2.761   2.471   8.408  2.4312 -0.7673 -1.0755
  308MOL0     H41545  -2.971   2.467   8.535 -2.4397 -0.1603 -0.2804
  308MOL0     H41546  -3.295   2.191   8.380  2.0561  0.1830 -0.3187
  308MOL0     H41547  -3.242   2.102   8.515 -1.5215 -0.5272 -0.4374
  308MOL0     H41548  -3.371   2.279   8.661 -0.9052 -0.9323  0.5213
  308MOL0     H41549  -3.450   2.315   8.500  0.1328  0.0005 -0.4265
  308MOL0     H41550  -3.466   2.037   8.621 -0.5489  0.9488  0.9183
  308MOL0     H41551  -3.525   2.101   8.475  1.1253 -2.3617 -0.6650
  308MOL0     H41552  -3.612   2.151   8.763  0.2795 -2.0978  0.4902
  308MOL0     H41553  -3.655   2.275   8.635  0.5089  0.2997 -1.6922
  308MOL0     H41554  -3.742   1.984   8.615  3.1857  0.6139 -0.5059
  308MOL0     H41555  -3.765   2.117   8.507 -1.7938  0.2720 -0.2137
  308MOL0     H41556  -3.874   2.107   8.804 -1.3219  0.6914  0.1720
  308MOL0     H41557  -3.914   2.234   8.703 -2.2364 -1.1758  1.8356
  308MOL0     H41558  -3.989   1.943   8.684 -1.4581  0.1747  0.6138
  308MOL0     H41559  -4.006   2.040   8.542  0.5233  1.2304 -0.7601
  308MOL0     H41560  -4.122   2.219   8.690  0.1582  0.8489  2.8761
  308MOL0     H41561  -4.096   2.107   8.827 -1.0035  0.6463  0.5445
  308MOL0     H41562  -3.096   2.132   8.315  2.3964 -2.6962  1.0834
  308MOL0     H41563  -2.882   2.134   8.190  1.1815 -0.2756  0.1420
  308MOL0     H41564  -2.517   2.185   8.039  0.1130 -1.3878  0.3439
  308MOL0     H41565  -2.291   2.096   8.009  0.3312  1.6506 -0.8746
  308MOL0     H41566  -0.274   2.536   7.855 -1.2223 -1.1453 -1.1303
  308MOL0     H41567  -0.040   2.491   7.939  0.7252 -1.7676  0.1436
  308MOL0     H41568   0.413   2.678   7.941 -0.0065  0.5477  1.0716
  308MOL0     H41569   0.613   2.605   8.073  0.0959  0.3859 -0.6980
  308MOL0     H41570   0.846   2.464   8.055  2.8452 -2.0410  0.7233
  308MOL0     H41571   0.785   2.541   8.198  1.4918  0.7149 -0.8005
  308MOL0     H41572   0.910   2.257   8.180 -1.3276  0.1634 -0.4390
  308MOL0     H41573   0.853   2.323   8.332  1.2298  0.0518  0.4474
  308MOL0     H41574   1.002   2.510   8.321  1.0812 -1.7023  3.4716
  308MOL0     H41575   1.090   2.429   8.181  1.0174  3.5953  1.2532
  308MOL0     H41576   1.035   2.355   8.475  1.1383  3.2876  1.0380
  308MOL0     H41577   1.201   2.406   8.416 -0.2862  0.9804 -0.2586
  308MOL0     H41578   1.252   2.016   8.360 -0.5945  0.0471 -0.1635
  308MOL0     H41579   0.515   2.204   8.071  1.4974  0.7149  2.7308
  308MOL0     H41580   0.291   2.251   7.951 -0.2557  0.2468 -3.5623
  309MOL0     O41581  10.539   1.338   2.490 -0.3166 -0.6677 -0.2938
  309MOL0     C41582  10.599   1.350   2.384  0.4716  1.4734  0.0571
  309MOL0     O41583  10.539   1.334   2.262 -0.3439 -0.6677 -0.5971
  309MOL0     C41584  10.400   1.339   2.249  0.4925  0.9422  0.3668
  309MOL0     C41585  10.308   1.406   2.336 -0.8783 -0.1352  0.2378
  309MOL0     C41586  10.172   1.397   2.321  0.7738  0.4835  0.0483
  309MOL0     C41587  10.112   1.328   2.217 -0.3385 -0.6510  0.3946
  309MOL0     O41588   9.982   1.327   2.192  0.8671 -0.7595 -0.5328
  309MOL0     C41589   9.894   1.373   2.298  1.2982  0.2485 -0.3510
  309MOL0     C41590   9.760   1.288   2.284  0.5662  0.1921 -0.7492
  309MOL0     C41591   9.655   1.377   2.216  0.0769 -0.4979  0.0774
  309MOL0     C41592   9.509   1.324   2.228  0.2683 -0.1212  0.2810
  309MOL0     C41593   9.403   1.413   2.192  0.1564  0.2835  0.1376
  309MOL0     C41594   9.401   1.452   2.041 -0.2521  0.7515  0.2994
  309MOL0     C41595   9.268   1.511   2.000  0.0278  0.0269 -0.2303
  309MOL0     C41596   9.149   1.423   1.995 -0.3075 -0.2450  0.5053
  309MOL0     N41597   9.020   1.493   2.003 -1.0628  0.4665 -0.2207
  309MOL0     C41598   8.937   1.547   1.902  0.0115 -0.5560  0.0468
  309MOL0     C41599   8.829   1.594   1.975 -0.2919  0.4333  0.0327
  309MOL0     C41600   8.716   1.663   1.903 -0.0673 -0.1359 -0.0415
  309MOL0     C41601   8.588   1.577   1.911  0.3346  0.6443 -0.4163
  309MOL0     C41602   8.478   1.645   1.832  0.4624  0.4544 -0.9762
  309MOL0     C41603   8.336   1.585   1.851 -0.2380 -0.1935  0.3006
  309MOL0     O41604   8.252   1.625   1.742  0.7640  1.4141  0.1318
  309MOL0     C41605   8.120   1.577   1.748  0.3427  0.0787 -0.4902
  309MOL0     C41606   8.064   1.504   1.851  0.0480  0.4702  0.1777
  309MOL0     C41607   7.933   1.462   1.853 -0.1024  0.5502  0.4032
  309MOL0     C41608   7.900   1.374   1.968  0.4426  0.4872 -0.8898
  309MOL0     C41609   7.845   1.496   1.743  0.5748 -0.0538 -0.6202
  309MOL0     C41610   7.700   1.469   1.736 -0.5076 -0.0419  0.5923
  309MOL0     O41611   7.636   1.455   1.858 -0.5963 -0.3645 -0.3597
  309MOL0     C41612   7.502   1.408   1.849 -0.5235 -0.9501 -0.2460
  309MOL0     C41613   7.403   1.500   1.805  0.2563  0.7091 -0.5158
  309MOL0     C41614   7.276   1.462   1.802  0.0385  0.1020 -0.2735
  309MOL0     C41615   7.236   1.333   1.832  0.0032 -1.0099 -0.4125
  309MOL0     O41616   7.106   1.281   1.829 -0.3347  0.0427 -0.0978
  309MOL0     C41617   6.996   1.375   1.791  0.4392  0.5008 -0.0576
  309MOL0     C41618   6.864   1.292   1.828  0.2912 -0.1173  0.2680
  309MOL0     C41619   6.857   1.234   1.970 -0.9832 -0.2316  0.0721
  309MOL0     C41620   6.769   1.098   1.984  0.2500  0.3800  1.0543
  309MOL0     C41621   6.628   1.125   1.933  0.4785  0.1365  0.2255
  309MOL0     C41622   6.533   0.997   1.932  0.0469 -0.1672 -0.7010
  309MOL0     C41623   6.389   1.040   1.953  0.4412  0.0282  0.2668
  309MOL0     C41624   6.284   0.926   1.997 -0.3002  0.0677 -0.0059
  309MOL0    Cl41625   6.349   0.831   2.139 -0.4574  0.0088 -0.0127
  309MOL0     C41626   7.337   1.241   1.869 -0.4370 -0.1039  1.0824
  309MOL0     C41627   7.474   1.279   1.875 -0.2896 -0.0330  0.2952
  309MOL0     O41628   7.646   1.461   1.626  0.1358  0.3797  0.2560
  309MOL0     C41629   7.900   1.568   1.645  0.5079 -0.2744 -0.0860
  309MOL0     C41630   8.039   1.605   1.637 -0.1719  0.3514 -0.0352
  309MOL0     N41631   8.842   1.558   2.108  0.3251  0.1337 -0.8211
  309MOL0     N41632   8.950   1.488   2.123 -0.1344  0.3019  0.2476
  309MOL0     C41633  10.201   1.268   2.125  0.4740 -1.2137  0.2391
  309MOL0     C41634  10.343   1.280   2.143 -0.5140  0.1244 -0.1616
  309MOL0     C41635  10.749   1.361   2.400 -0.4768 -0.0230  0.3417
  309MOL0     C41636  10.829   1.302   2.301  0.4422  0.9287 -0.6378
  309MOL0     C41637  10.964   1.279   2.318  0.1106 -0.0117 -0.8409
  309MOL0     C41638  11.030   1.317   2.437  0.0597 -0.9931 -0.5027
  309MOL0     O41639  11.168   1.295   2.452 -0.4049 -1.0293  0.1788
  309MOL0     C41640  11.236   1.380   2.552 -0.0787 -0.8921 -0.0350
  309MOL0     C41641  11.384   1.381   2.533  0.1260  0.5112 -0.2534
  309MOL0     C41642  11.428   1.467   2.414 -0.3925 -0.0492  1.0056
  309MOL0     C41643  11.575   1.471   2.403  0.2401 -0.2219  0.0347
  309MOL0     C41644  11.637   1.334   2.388 -0.1089 -0.7940 -0.4323
  309MOL0     C41645  11.659   1.223   2.343 -0.8547 -0.5608  0.3619
  309MOL0     C41646  10.948   1.365   2.533 -0.0293 -0.7411 -0.5798
  309MOL0     C41647  10.815   1.396   2.516 -0.8468  0.2327  0.2034
  309MOL0     H41648  10.331   1.462   2.427 -2.2525  1.3739 -0.2843
  309MOL0     H41649  10.116   1.454   2.395  2.7790  2.2624  0.3269
  309MOL0     H41650   9.946   1.355   2.392  0.5757  2.2935  0.5032
  309MOL0     H41651   9.868   1.479   2.311  1.7561  0.0117  3.6920
  309MOL0     H41652   9.759   1.188   2.239 -0.9296 -1.4860  2.6060
  309MOL0     H41653   9.726   1.261   2.385  1.2400  1.6523 -0.0982
  309MOL0     H41654   9.649   1.475   2.263 -0.9317  0.4682 -1.9626
  309MOL0     H41655   9.673   1.386   2.109  0.2743  0.5736  0.1920
  309MOL0     H41656   9.511   1.231   2.171  1.2596  0.4455 -0.6513
  309MOL0     H41657   9.495   1.291   2.332 -0.2571 -1.9335 -0.3279
  309MOL0     H41658   9.306   1.370   2.216  0.0643  0.4247  0.0153
  309MOL0     H41659   9.413   1.496   2.262 -0.8324 -0.9527  1.8093
  309MOL0     H41660   9.476   1.529   2.024  1.6977 -1.2665 -0.7069
  309MOL0     H41661   9.422   1.370   1.971 -2.0461  2.9633 -3.0801
  309MOL0     H41662   9.253   1.602   2.059 -0.0590 -1.4554  2.1319
  309MOL0     H41663   9.287   1.553   1.901  2.1188  1.6576  0.7825
  309MOL0     H41664   9.150   1.355   2.080  0.0171  0.0656  0.7502
  309MOL0     H41665   9.150   1.356   1.908 -4.3309 -0.2193  0.2330
  309MOL0     H41666   8.958   1.557   1.796  2.9473  1.8415  0.6824
  309MOL0     H41667   8.706   1.763   1.947  2.3291  2.3046 -4.3687
  309MOL0     H41668   8.746   1.680   1.799  0.4372 -3.1638 -0.4745
  309MOL0     H41669   8.559   1.560   2.015 -0.2867 -0.4535 -0.7555
  309MOL0     H41670   8.612   1.481   1.865  2.3881  1.2392 -0.6799
  309MOL0     H41671   8.499   1.628   1.726 -0.7495  1.2874 -1.3711
  309MOL0     H41672   8.473   1.753   1.852 -2.7396  0.5338 -1.7287
  309MOL0     H41673   8.292   1.621   1.945  0.6942  0.9519  0.3189
  309MOL0     H41674   8.344   1.476   1.847 -2.4715 -0.4249  1.0124
  309MOL0     H41675   8.124   1.476   1.938 -1.6736  1.4119  1.7496
  309MOL0     H41676   7.980   1.302   1.986 -1.7226 -1.9516 -0.5176
  309MOL0     H41677   7.894   1.437   2.058 -1.0524  1.1529 -1.4296
  309MOL0     H41678   7.811   1.311   1.966  0.5262  0.3301 -0.1409
  309MOL0     H41679   7.442   1.595   1.770  1.4722  0.0394 -1.0561
  309MOL0     H41680   7.211   1.541   1.767  1.9323  0.9187 -2.1631
  309MOL0     H41681   7.004   1.469   1.847 -0.0783 -0.1367  1.1356
  309MOL0     H41682   6.994   1.404   1.686 -0.1608  0.5476 -0.0414
  309MOL0     H41683   6.773   1.350   1.812 -0.7300 -2.2759 -2.4903
  309MOL0     H41684   6.849   1.213   1.754 -1.4063  0.1483  0.2955
  309MOL0     H41685   6.815   1.308   2.038  1.4182 -0.4653  1.9639
  309MOL0     H41686   6.957   1.204   2.003 -2.2146 -3.5515  1.2563
  309MOL0     H41687   6.805   1.019   1.918  0.0518  1.4107 -0.3554
  309MOL0     H41688   6.767   1.063   2.088 -1.9590  1.1704  1.3266
  309MOL0     H41689   6.632   1.160   1.829 -1.9125  0.0885  0.0615
  309MOL0     H41690   6.587   1.205   1.995 -0.7076  2.0867 -2.8032
  309MOL0     H41691   6.553   0.944   1.839 -0.6303  1.2173 -1.6781
  309MOL0     H41692   6.560   0.939   2.021 -3.5979 -1.8908 -0.5209
  309MOL0     H41693   6.350   1.090   1.864 -2.5664  2.1989  2.5889
  309MOL0     H41694   6.384   1.127   2.019  1.8193  0.0596  0.3693
  309MOL0     H41695   6.263   0.859   1.914 -0.5483 -1.0347  0.9168
  309MOL0     H41696   6.186   0.971   2.014 -0.5481  0.1598 -1.5375
  309MOL0     H41697   7.303   1.142   1.896 -1.1699 -0.6832 -1.6927
  309MOL0     H41698   7.545   1.203   1.904 -1.4148 -1.2062  0.0782
  309MOL0     H41699   7.838   1.598   1.561  2.9757  1.0828 -1.5449
  309MOL0     H41700   8.089   1.655   1.555  1.2795 -0.6882  0.1626
  309MOL0     H41701  10.162   1.216   2.037  1.0004  0.6428 -1.1592
  309MOL0     H41702  10.412   1.239   2.070 -0.8433 -0.5718 -0.0927
  309MOL0     H41703  10.790   1.265   2.207  1.7013  0.1493 -0.8844
  309MOL0     H41704  11.009   1.234   2.231 -1.3932 -1.6125 -0.8530
  309MOL0     H41705  11.196   1.481   2.546 -0.4447 -1.0835 -1.0826
  309MOL0     H41706  11.219   1.344   2.654 -1.9717  0.7657  0.3003
  309MOL0     H41707  11.408   1.276   2.518  1.7317  1.1574 -2.8590
  309MOL0     H41708  11.431   1.417   2.625 -0.5525  2.1768 -0.5228
  309MOL0     H41709  11.400   1.573   2.419  1.6429  0.9066 -3.1913
  309MOL0     H41710  11.404   1.432   2.313 -1.4400 -0.8181  1.5112
  309MOL0     H41711  11.625   1.512   2.492  0.5108 -1.5059  0.4958
  309MOL0     H41712  11.598   1.529   2.313 -1.1551  2.8745  1.5349
  309MOL0     H41713  11.683   1.129   2.297  1.7367  0.8701 -1.4560
  309MOL0     H41714  10.994   1.383   2.630  1.4172  0.8168 -1.4936
  309MOL0     H41715  10.752   1.431   2.597  0.1611 -0.5244  1.3523
  310MOL0     O41716   1.594  10.557   7.219  0.8766 -0.3055 -0.1943
  310MOL0     C41717   1.647  10.665   7.215  0.1258  0.1837  0.1351
  310MOL0     O41718   1.593  10.791   7.214 -0.2222  0.5002  0.2303
  310MOL0     C41719   1.460  10.825   7.213  0.1398  0.4610  0.5380
  310MOL0     C41720   1.433  10.951   7.179  0.7050 -0.6000 -0.9743
  310MOL0     C41721   1.301  11.003   7.166  0.0584  0.6726 -0.4472
  310MOL0     C41722   1.194  10.921   7.180 -0.7082  0.6301  0.4808
  310MOL0     O41723   1.067  10.975   7.164  0.4668  0.6802 -0.1201
  310MOL0     C41724   1.045  11.001   7.030  0.2788 -0.7246 -0.0124
  310MOL0     C41725   0.895  11.049   7.023  0.3850  0.2883  0.3868
  310MOL0     C41726   0.874  11.181   7.106  0.4460  0.4056  0.2980
  310MOL0     C41727   0.758  11.255   7.061 -0.2048 -0.3481 -0.2392
  310MOL0     C41728   0.696  11.352   7.164 -0.3984  0.6034 -0.1545
  310MOL0     C41729   0.784  11.471   7.215 -0.2823  0.5856 -0.3196
  310MOL0     C41730   0.681  11.575   7.278  0.2681  0.3832 -0.1020
  310MOL0     C41731   0.756  11.706   7.303  0.2897  0.5309  0.0053
  310MOL0     N41732   0.659  11.816   7.310 -1.2438  0.5797  0.2178
  310MOL0     C41733   0.582  11.854   7.420  0.1564  0.0063 -0.0620
  310MOL0     C41734   0.552  11.986   7.415  0.3735  0.4517  0.6707
  310MOL0     C41735   0.485  12.068   7.510  0.6196  0.1084 -0.1117
  310MOL0     C41736   0.343  12.106   7.465  0.0180  0.4725 -0.8068
  310MOL0     C41737   0.364  12.230   7.373  0.9354 -0.0164 -0.9811
  310MOL0     C41738   0.228  12.298   7.331 -0.2740  0.2317 -0.7755
  310MOL0     O41739   0.151  12.323   7.448 -0.0081 -0.5429 -0.3426
  310MOL0     C41740   0.019  12.356   7.431 -0.5118 -0.2738 -0.1291
  310MOL0     C41741  -0.062  12.320   7.537  0.0665  0.2386  0.6661
  310MOL0     C41742  -0.200  12.316   7.533 -0.1666 -0.4141 -0.6478
  310MOL0     C41743  -0.276  12.286   7.662 -1.2680  0.0602 -0.0719
  310MOL0     C41744  -0.267  12.355   7.410 -0.1557 -1.1183  0.8578
  310MOL0     C41745  -0.408  12.352   7.382 -0.0450 -0.1340  0.2816
  310MOL0     O41746  -0.487  12.318   7.483  0.5415 -0.4974 -0.2900
  310MOL0     C41747  -0.619  12.354   7.475  0.0281  0.5017  0.1110
  310MOL0     C41748  -0.718  12.294   7.395 -0.4966  0.0472 -0.2499
  310MOL0     C41749  -0.854  12.334   7.403  0.4231 -0.5211  0.6396
  310MOL0     C41750  -0.899  12.429   7.502 -0.4088 -0.2218 -0.3089
  310MOL0     O41751  -1.026  12.474   7.504 -0.0147  0.1989  0.7836
  310MOL0     C41752  -1.096  12.488   7.626 -0.1237  0.3150  0.5887
  310MOL0     C41753  -1.236  12.545   7.608 -0.4224  0.3664  0.3481
  310MOL0     C41754  -1.240  12.692   7.582  0.3379  0.7798 -0.1304
  310MOL0     C41755  -1.387  12.732   7.565  0.0421  0.0308 -0.9000
  310MOL0     C41756  -1.416  12.883   7.584 -0.0410 -0.1225 -0.4783
  310MOL0     C41757  -1.525  12.944   7.505 -0.3111  0.2742  0.2224
  310MOL0     C41758  -1.659  12.866   7.513 -0.2141  0.1442 -0.6079
  310MOL0     C41759  -1.753  12.874   7.393  1.0164 -0.5175  0.1531
  310MOL0    Cl41760  -1.921  12.837   7.459 -0.2630 -0.1436 -0.0766
  310MOL0     C41761  -0.797  12.479   7.589 -0.0475 -0.6705 -0.2806
  310MOL0     C41762  -0.662  12.443   7.575  0.9527  0.4966  0.1132
  310MOL0     O41763  -0.447  12.366   7.264 -0.4945  0.0444 -0.4683
  310MOL0     C41764  -0.182  12.397   7.307 -0.2358  0.7978 -0.4586
  310MOL0     C41765  -0.044  12.400   7.314 -0.9320  0.3143  0.3363
  310MOL0     N41766   0.602  12.028   7.293 -0.4804  1.2436  0.0895
  310MOL0     N41767   0.659  11.931   7.228 -0.7083  0.3631 -0.3036
  310MOL0     C41768   1.222  10.782   7.204  0.3191  0.0513 -0.2514
  310MOL0     C41769   1.356  10.732   7.228 -0.4392  0.2581 -0.5621
  310MOL0     C41770   1.802  10.659   7.203  0.2971 -0.0011 -0.1623
  310MOL0     C41771   1.872  10.546   7.164 -0.1712  0.6590  0.2926
  310MOL0     C41772   2.010  10.546   7.157  0.1815  0.4576  0.1957
  310MOL0     C41773   2.084  10.655   7.190  0.0314  0.5149 -0.4149
  310MOL0     O41774   2.226  10.647   7.185 -0.1286 -0.9916 -0.1731
  310MOL0     C41775   2.304  10.757   7.246  0.2305  0.2245  0.3739
  310MOL0     C41776   2.455  10.717   7.235  0.1259  0.4741  0.1387
  310MOL0     C41777   2.493  10.583   7.294  0.1009 -0.1387 -0.2244
  310MOL0     C41778   2.629  10.542   7.245 -0.0576 -0.4294  0.2029
  310MOL0     C41779   2.735  10.642   7.252 -0.2061  0.7272  0.2401
  310MOL0     C41780   2.823  10.726   7.254  0.8599  0.2786 -0.3897
  310MOL0     C41781   2.014  10.764   7.227 -0.1243 -0.7689 -0.0390
  310MOL0     C41782   1.877  10.778   7.228  0.0420  0.2685 -0.2378
  310MOL0     H41783   1.508  11.027   7.158  0.2668  0.5646  1.3366
  310MOL0     H41784   1.277  11.108   7.159 -2.2842  0.1742 -0.6327
  310MOL0     H41785   1.101  11.090   7.000  0.7413 -0.9479  0.1872
  310MOL0     H41786   1.063  10.915   6.965  0.1427 -0.0901 -0.9163
  310MOL0     H41787   0.866  11.080   6.922  0.2852 -0.5484  0.1518
  310MOL0     H41788   0.825  10.970   7.049  1.3338 -1.0151 -0.8129
  310MOL0     H41789   0.855  11.140   7.206  1.0552  3.5211  1.8431
  310MOL0     H41790   0.965  11.243   7.114  1.2759 -0.8829  1.2050
  310MOL0     H41791   0.788  11.307   6.970  0.3105  2.2097  1.2971
  310MOL0     H41792   0.680  11.191   7.017  1.3371 -0.6871 -2.6483
  310MOL0     H41793   0.612  11.399   7.111  1.3520  1.5228 -2.2696
  310MOL0     H41794   0.655  11.293   7.247  0.7265  0.0285  0.0112
  310MOL0     H41795   0.866  11.449   7.284 -0.8297  2.4155  0.9827
  310MOL0     H41796   0.843  11.514   7.134  4.4035  0.8745  2.8297
  310MOL0     H41797   0.610  11.591   7.196  1.0735 -1.0084 -1.1357
  310MOL0     H41798   0.620  11.526   7.354 -0.3969 -3.6581 -2.8861
  310MOL0     H41799   0.818  11.724   7.215 -1.2526 -0.7231 -1.4194
  310MOL0     H41800   0.826  11.710   7.387  0.8323  1.0985 -0.4724
  310MOL0     H41801   0.572  11.787   7.504 -0.4618  0.8214  0.5297
  310MOL0     H41802   0.466  12.019   7.606 -2.6233 -0.0962 -0.7332
  310MOL0     H41803   0.538  12.163   7.523 -0.5687  1.0121 -1.5731
  310MOL0     H41804   0.273  12.137   7.543  0.5982 -0.2943  0.0343
  310MOL0     H41805   0.293  12.025   7.410 -1.8780  1.1113 -0.1019
  310MOL0     H41806   0.422  12.208   7.283 -1.0253 -1.6295 -1.9447
  310MOL0     H41807   0.419  12.303   7.433 -0.2451 -1.5107  2.1821
  310MOL0     H41808   0.181  12.223   7.267 -1.7633 -0.8947  1.5287
  310MOL0     H41809   0.254  12.395   7.286  0.9384 -0.7633 -2.3686
  310MOL0     H41810  -0.019  12.284   7.629 -0.4951  1.9456  1.6390
  310MOL0     H41811  -0.329  12.375   7.698  2.3932  1.2272  3.0837
  310MOL0     H41812  -0.322  12.188   7.645 -0.6860  0.2024 -3.0449
  310MOL0     H41813  -0.194  12.280   7.735  0.2179  0.7329 -1.6278
  310MOL0     H41814  -0.696  12.215   7.324  1.1529  1.1983 -1.0819
  310MOL0     H41815  -0.922  12.294   7.328  0.6182  2.5598 -1.3697
  310MOL0     H41816  -1.106  12.385   7.661  0.9806 -0.0802 -0.2138
  310MOL0     H41817  -1.048  12.552   7.701 -0.2190  1.8744 -0.6323
  310MOL0     H41818  -1.273  12.492   7.520  1.4948 -0.0698 -0.2363
  310MOL0     H41819  -1.294  12.513   7.695 -1.1778  2.9638  0.8989
  310MOL0     H41820  -1.172  12.717   7.500  0.9748 -0.9586 -0.1735
  310MOL0     H41821  -1.190  12.731   7.671  1.5632 -1.0123  0.0260
  310MOL0     H41822  -1.425  12.709   7.465 -0.5652  2.5525 -1.3238
  310MOL0     H41823  -1.449  12.683   7.641  2.5635  0.4048  1.5596
  310MOL0     H41824  -1.323  12.936   7.560  0.2608 -0.1707  0.5687
  310MOL0     H41825  -1.435  12.911   7.688 -2.1339  0.1564 -0.8841
  310MOL0     H41826  -1.546  13.044   7.544  1.7735  0.0809  2.0189
  310MOL0     H41827  -1.494  12.929   7.401  1.3188 -2.1050  0.9860
  310MOL0     H41828  -1.718  12.906   7.596 -2.8953 -0.4109 -2.1081
  310MOL0     H41829  -1.642  12.761   7.541 -0.6966 -0.1786 -1.4731
  310MOL0     H41830  -1.717  12.793   7.329 -1.1285 -1.1459 -0.3266
  310MOL0     H41831  -1.748  12.972   7.346  2.3392  0.3403  1.9406
  310MOL0     H41832  -0.824  12.544   7.671  1.8741 -0.3774  0.1759
  310MOL0     H41833  -0.597  12.494   7.645  1.2199  0.1362  0.1242
  310MOL0     H41834  -0.217  12.417   7.207  3.0157  1.0276 -1.6933
  310MOL0     H41835   0.009  12.428   7.223  1.2410 -1.4955  0.9329
  310MOL0     H41836   1.139  10.712   7.212  1.3194 -0.9809  2.3375
  310MOL0     H41837   1.373  10.628   7.253  0.3035  0.1795 -1.3386
  310MOL0     H41838   1.827  10.449   7.140 -0.9467  0.7977  1.1092
  310MOL0     H41839   2.050  10.455   7.114  1.6073  0.4415  1.4484
  310MOL0     H41840   2.292  10.851   7.192 -2.2055 -0.2549 -0.0473
  310MOL0     H41841   2.277  10.768   7.352  1.3079 -0.4728  0.7383
  310MOL0     H41842   2.515  10.796   7.282  1.0725  1.5123 -2.6241
  310MOL0     H41843   2.484  10.714   7.129  1.6817  0.7527  0.5270
  310MOL0     H41844   2.428  10.507   7.251 -0.1363 -0.3258  0.4729
  310MOL0     H41845   2.488  10.586   7.403  2.9925 -0.2910 -0.0045
  310MOL0     H41846   2.625  10.509   7.140 -1.9843  0.7288 -0.1324
  310MOL0     H41847   2.648  10.458   7.313 -0.7186 -0.1776  0.7003
  310MOL0     H41848   2.907  10.792   7.252 -0.0315  1.4164 -1.3361
  310MOL0     H41849   2.071  10.851   7.258  3.0346 -2.5924 -0.2667
  310MOL0     H41850   1.836  10.875   7.256 -0.5341 -0.3018  0.9616
  311MOL0     O41851   1.653   0.760  10.558  0.6963 -0.6392 -0.8720
  311MOL0     C41852   1.703   0.650  10.533  0.1033  0.3066  0.8144
  311MOL0     O41853   1.629   0.538  10.507 -0.5728 -0.9647  0.0090
  311MOL0     C41854   1.496   0.552  10.493 -0.3701 -0.5002  0.1549
  311MOL0     C41855   1.423   0.444  10.540  0.9254 -0.1369  0.2529
  311MOL0     C41856   1.285   0.428  10.520 -0.0394  0.0680 -0.2092
  311MOL0     C41857   1.215   0.528  10.455 -0.5051 -0.4680 -0.4863
  311MOL0     O41858   1.079   0.523  10.441  0.4740  0.9370  0.0916
  311MOL0     C41859   1.043   0.417  10.355  0.1787  0.2442  0.6773
  311MOL0     C41860   0.898   0.437  10.306  0.3666  0.2446 -0.2059
  311MOL0     C41861   0.863   0.342  10.191  0.6516  0.3919  0.2147
  311MOL0     C41862   0.728   0.347  10.122 -1.4872  0.4479 -0.3016
  311MOL0     C41863   0.602   0.366  10.207  1.5080 -0.1406 -0.2121
  311MOL0     C41864   0.476   0.369  10.118 -0.7485  0.0210 -0.4642
  311MOL0     C41865   0.471   0.497  10.028 -0.2984  0.3524 -0.2191
  311MOL0     C41866   0.344   0.494   9.940  0.1996  0.1012 -0.5042
  311MOL0     N41867   0.218   0.497  10.021  0.5211 -0.6247  1.2162
  311MOL0     C41868   0.168   0.598  10.108  0.3502  0.3486 -0.4884
  311MOL0     C41869   0.051   0.552  10.142  0.6263 -0.3290 -0.1460
  311MOL0     C41870  -0.027   0.622  10.259 -0.5567 -1.4284  0.1624
  311MOL0     C41871  -0.153   0.702  10.216 -0.1290 -0.2976 -0.1966
  311MOL0     C41872  -0.281   0.632  10.167 -0.0073 -0.4992 -1.6070
  311MOL0     C41873  -0.371   0.744  10.111  0.2912  1.1341 -0.2825
  311MOL0     O41874  -0.503   0.684  10.120 -0.4359 -0.0004 -0.1342
  311MOL0     C41875  -0.610   0.742  10.058 -0.1911 -0.0595 -0.2570
  311MOL0     C41876  -0.596   0.840   9.957 -0.3446 -0.2241 -0.1054
  311MOL0     C41877  -0.709   0.888   9.891 -0.0825  0.3909 -0.1314
  311MOL0     C41878  -0.686   0.960   9.765  0.2826 -0.3707  0.1862
  311MOL0     C41879  -0.838   0.881   9.948 -0.3825 -0.6299 -0.1375
  311MOL0     C41880  -0.959   0.950   9.885  0.2476  0.4473 -0.6711
  311MOL0     O41881  -1.074   0.923   9.952  0.0355 -0.8986 -0.6011
  311MOL0     C41882  -1.180   0.997   9.933 -0.3704 -0.4253 -0.0782
  311MOL0     C41883  -1.179   1.140   9.902  0.1006 -0.2899 -0.4420
  311MOL0     C41884  -1.306   1.207   9.896 -0.4755  0.3050 -0.1236
  311MOL0     C41885  -1.426   1.142   9.917  0.0591  0.2560  0.6505
  311MOL0     O41886  -1.538   1.213   9.900 -0.4214  0.0060 -0.2641
  311MOL0     C41887  -1.666   1.147   9.923 -0.3590  0.2824  0.4159
  311MOL0     C41888  -1.776   1.253   9.909  0.2370 -0.6098  0.0966
  311MOL0     C41889  -1.903   1.207   9.974 -0.3687  0.4187 -0.3272
  311MOL0     C41890  -2.002   1.322   9.972 -0.0608  0.1322 -0.5914
  311MOL0     C41891  -2.141   1.286  10.026 -0.6340 -0.6490 -0.2482
  311MOL0     C41892  -2.248   1.384   9.972 -0.5696 -0.1802 -0.6362
  311MOL0     C41893  -2.389   1.321   9.998  0.0941  0.6798  0.5016
  311MOL0     C41894  -2.486   1.416   9.930 -0.1255 -0.2280  0.2342
  311MOL0    Cl41895  -2.652   1.360   9.968 -0.0513  0.0109 -0.0647
  311MOL0     C41896  -1.425   0.999   9.934  0.6225 -0.4376  0.2275
  311MOL0     C41897  -1.301   0.934   9.950 -0.2690 -0.7160 -0.3273
  311MOL0     O41898  -0.953   1.014   9.777  0.2258 -0.0780 -0.2618
  311MOL0     C41899  -0.847   0.803  10.061 -0.3842  0.1345  0.1398
  311MOL0     C41900  -0.732   0.731  10.114  0.6624 -0.3593 -0.1567
  311MOL0     N41901   0.007   0.444  10.070 -0.6668 -0.3407  0.3384
  311MOL0     N41902   0.115   0.415   9.994  0.3200  0.1500 -0.0637
  311MOL0     C41903   1.289   0.635  10.404  0.6084 -0.1350 -0.4400
  311MOL0     C41904   1.423   0.641  10.412 -0.7172  0.2343  0.8109
  311MOL0     C41905   1.851   0.629  10.524 -0.7364  0.2080 -0.3930
  311MOL0     C41906   1.936   0.739  10.551 -0.3688 -0.2413  0.3397
  311MOL0     C41907   2.074   0.731  10.550  0.1858  0.4454  0.0896
  311MOL0     C41908   2.133   0.609  10.509  0.3714 -0.3951  0.4067
  311MOL0     O41909   2.267   0.594  10.509 -1.0153 -0.3062  0.1382
  311MOL0     C41910   2.351   0.704  10.550 -0.0002 -0.4875  0.4217
  311MOL0     C41911   2.498   0.660  10.535  0.3759 -0.1045 -0.1920
  311MOL0     C41912   2.597   0.770  10.566  0.1925  0.1644 -0.0711
  311MOL0     C41913   2.742   0.715  10.574  0.4275 -0.8398  0.6027
  311MOL0     C41914   2.848   0.814  10.606  0.1705 -0.3061 -0.9747
  311MOL0     C41915   2.943   0.888  10.643 -0.1373  0.8256 -0.0883
  311MOL0     C41916   2.059   0.501  10.478 -0.7141  0.0798 -0.6447
  311MOL0     C41917   1.920   0.501  10.499  0.7432 -0.8798 -0.0822
  311MOL0     H41918   1.471   0.366  10.599  0.8192  0.0408  0.5803
  311MOL0     H41919   1.236   0.341  10.564  1.2965 -0.3721  0.4385
  311MOL0     H41920   1.104   0.426  10.264 -2.1280 -0.2955 -1.0303
  311MOL0     H41921   1.055   0.315  10.390  1.2195 -0.7741 -2.3120
  311MOL0     H41922   0.837   0.437  10.396  0.4697  0.8093 -0.1317
  311MOL0     H41923   0.884   0.540  10.270  0.3903 -0.0742 -1.1684
  311MOL0     H41924   0.937   0.352  10.111 -1.9547 -1.4751 -2.6845
  311MOL0     H41925   0.868   0.238  10.226 -1.3870  0.4382  0.8132
  311MOL0     H41926   0.736   0.430  10.051 -0.3840  2.1804  1.7266
  311MOL0     H41927   0.719   0.252  10.067  0.9708 -0.3420  0.5291
  311MOL0     H41928   0.588   0.289  10.284 -0.2674 -1.6004 -1.8739
  311MOL0     H41929   0.607   0.464  10.256  1.5554  0.8364 -2.0937
  311MOL0     H41930   0.461   0.281  10.054  1.5974 -0.2387 -0.7639
  311MOL0     H41931   0.384   0.376  10.177 -0.6492 -1.6427 -0.0481
  311MOL0     H41932   0.475   0.584  10.094  2.7583 -1.0983  1.7111
  311MOL0     H41933   0.555   0.512   9.960 -1.2453  1.4971 -1.1781
  311MOL0     H41934   0.335   0.413   9.867  0.1991 -0.8138  0.4869
  311MOL0     H41935   0.348   0.582   9.875  0.8707 -0.0496 -0.6780
  311MOL0     H41936   0.220   0.681  10.155  0.7167 -0.1488 -0.0041
  311MOL0     H41937  -0.069   0.538  10.316 -0.9824 -0.5135  1.2169
  311MOL0     H41938   0.028   0.686  10.328 -1.7740 -0.7901  0.5667
  311MOL0     H41939  -0.113   0.767  10.137  2.5377 -0.4805  0.9001
  311MOL0     H41940  -0.186   0.763  10.301 -2.0082 -4.0789  2.0416
  311MOL0     H41941  -0.334   0.587  10.251  0.1929  1.1328 -0.5652
  311MOL0     H41942  -0.260   0.555  10.092 -2.0462 -0.5292 -2.1867
  311MOL0     H41943  -0.325   0.747  10.012 -0.8499 -2.0073 -1.0155
  311MOL0     H41944  -0.375   0.841  10.162 -0.7547  1.8399 -1.6450
  311MOL0     H41945  -0.495   0.854   9.920 -0.0705  3.6372  1.6049
  311MOL0     H41946  -0.583   0.955   9.726 -0.2934  2.5912 -2.0894
  311MOL0     H41947  -0.753   0.919   9.690 -2.5829  0.3867  2.1865
  311MOL0     H41948  -0.704   1.067   9.779  0.3157 -0.3290 -0.0847
  311MOL0     H41949  -1.085   1.195   9.903  0.5804 -1.1023 -0.4403
  311MOL0     H41950  -1.300   1.315   9.882  0.3235  0.1358 -1.1612
  311MOL0     H41951  -1.696   1.072   9.850  0.4851 -1.4916  1.8098
  311MOL0     H41952  -1.667   1.102  10.023  1.1936  1.5903  1.0553
  311MOL0     H41953  -1.739   1.350   9.943 -1.4020  0.1392 -0.1613
  311MOL0     H41954  -1.790   1.259   9.801 -1.4347 -1.2072  0.2600
  311MOL0     H41955  -1.882   1.167  10.073  0.8606 -0.0078 -0.7371
  311MOL0     H41956  -1.951   1.126   9.918  1.9204  0.3846 -2.4185
  311MOL0     H41957  -1.966   1.419  10.008 -0.6229  0.3973 -0.7352
  311MOL0     H41958  -2.014   1.338   9.865 -0.2007  4.5207 -0.0970
  311MOL0     H41959  -2.123   1.290  10.134  0.6540 -0.2538 -0.4551
  311MOL0     H41960  -2.177   1.187   9.996 -0.3839  0.3679 -4.5783
  311MOL0     H41961  -2.238   1.483  10.017  2.3113  0.6698 -2.8188
  311MOL0     H41962  -2.215   1.389   9.868  3.4570 -2.0124  0.3635
  311MOL0     H41963  -2.405   1.311  10.106  0.4385 -1.2336  0.4250
  311MOL0     H41964  -2.410   1.220   9.959 -3.1086  1.0265  1.0339
  311MOL0     H41965  -2.471   1.421   9.822  1.7504 -1.7687  0.3680
  311MOL0     H41966  -2.471   1.516   9.972 -0.5879  0.8872 -2.1059
  311MOL0     H41967  -1.518   0.943   9.934 -1.7010  3.1131  0.1663
  311MOL0     H41968  -1.297   0.827   9.969 -1.0831 -0.9862 -1.5834
  311MOL0     H41969  -0.941   0.797  10.115 -2.3295 -3.4261 -3.1528
  311MOL0     H41970  -0.746   0.670  10.203  3.0394 -1.3370 -0.3769
  311MOL0     H41971   1.236   0.719  10.359 -1.4462 -0.0959  1.8297
  311MOL0     H41972   1.480   0.710  10.351 -1.5891  0.0732 -0.2133
  311MOL0     H41973   1.899   0.838  10.576  1.0941 -0.1642  2.5316
  311MOL0     H41974   2.134   0.816  10.581 -0.4025  1.3313 -1.1262
  311MOL0     H41975   2.334   0.785  10.479 -0.7158 -0.7596  0.2775
  311MOL0     H41976   2.319   0.728  10.652 -0.8101  0.7225 -0.1042
  311MOL0     H41977   2.526   0.619  10.437 -4.3796 -1.8957 -1.0938
  311MOL0     H41978   2.513   0.582  10.609  1.6556 -1.1500 -1.4897
  311MOL0     H41979   2.572   0.798  10.669  1.1355 -0.9535  0.4933
  311MOL0     H41980   2.590   0.857  10.500  0.7011 -1.0710 -1.8203
  311MOL0     H41981   2.758   0.674  10.474 -0.6733  0.8070 -0.2914
  311MOL0     H41982   2.754   0.630  10.642  1.3092 -1.2241 -0.0197
  311MOL0     H41983   3.007   0.966  10.678  0.0666  0.0482  1.3228
  311MOL0     H41984   2.102   0.403  10.461  0.5945  0.6818 -0.8716
  311MOL0     H41985   1.852   0.417  10.497  0.3517 -0.6180  1.1130
  312MOL0     O41986   0.564  10.565  10.661 -0.3443 -1.0311  0.0333
  312MOL0     C41987   0.548  10.478  10.744 -0.5202  0.1681 -1.0240
  312MOL0     O41988   0.440  10.460  10.818  0.1839  0.0666 -0.3866
  312MOL0     C41989   0.329  10.535  10.788 -0.5847  0.7812 -0.3178
  312MOL0     C41990   0.296  10.630  10.879 -0.3147 -0.0824 -1.0634
  312MOL0     C41991   0.175  10.697  10.863  0.3819 -0.6892  0.3950
  312MOL0     C41992   0.094  10.685  10.748 -0.1866 -0.0858  0.3632
  312MOL0     O41993  -0.019  10.767  10.723  0.5412 -0.2640  0.1369
  312MOL0     C41994  -0.002  10.901  10.759  1.8219  0.1287  0.1355
  312MOL0     C41995  -0.100  11.000  10.680  0.6025  0.0980 -0.2170
  312MOL0     C41996  -0.085  10.992  10.526 -0.6651  0.3792  0.0459
  312MOL0     C41997  -0.192  11.055  10.443 -0.8471 -0.7261 -0.0411
  312MOL0     C41998  -0.177  11.037  10.290 -0.9823  0.1636  1.2839
  312MOL0     C41999  -0.048  11.109  10.224  0.0266 -1.0605 -0.0847
  312MOL0     C42000  -0.050  11.087  10.070 -0.6599  0.4666  0.0637
  312MOL0     C42001  -0.046  10.934  10.021  0.5633  0.1626 -0.2920
  312MOL0     N42002  -0.045  10.933   9.874  0.3944 -0.0398 -0.3550
  312MOL0     C42003  -0.158  10.915   9.794 -0.4928 -0.5649  0.5918
  312MOL0     C42004  -0.102  10.957   9.679  0.0935 -0.8849  0.5691
  312MOL0     C42005  -0.169  10.958   9.542 -0.8135 -0.3662 -0.2285
  312MOL0     C42006  -0.329  10.947   9.544 -0.3090  0.1989  0.3809
  312MOL0     C42007  -0.398  10.974   9.410 -0.2681  0.0401  0.2413
  312MOL0     C42008  -0.544  10.975   9.427  0.5375  0.0244  0.5357
  312MOL0     O42009  -0.598  10.845   9.464 -0.2882 -1.0799  0.1154
  312MOL0     C42010  -0.720  10.838   9.521  0.2340 -0.1853 -0.8902
  312MOL0     C42011  -0.824  10.899   9.457  1.0386  0.2137  1.1664
  312MOL0     C42012  -0.958  10.896   9.505 -0.0476 -1.2908 -0.7810
  312MOL0     C42013  -1.057  10.948   9.411 -0.0345  0.5231  0.1322
  312MOL0     C42014  -0.988  10.836   9.630  0.3912  0.7551  0.5059
  312MOL0     C42015  -1.124  10.826   9.697  0.2873  0.3746 -0.0775
  312MOL0     O42016  -1.221  10.892   9.627 -1.1107 -0.4979 -0.4462
  312MOL0     C42017  -1.348  10.921   9.674 -1.2043  0.4311 -0.5505
  312MOL0     C42018  -1.385  10.904   9.811 -0.5907  0.4358 -0.5500
  312MOL0     C42019  -1.505  10.951   9.854 -0.0981  0.0762  0.1807
  312MOL0     C42020  -1.600  11.007   9.771 -0.0741  0.3122  1.3386
  312MOL0     O42021  -1.720  11.049   9.831 -0.0161 -0.5566  0.0197
  312MOL0     C42022  -1.819  11.109   9.743  0.0427 -0.7563 -0.9243
  312MOL0     C42023  -1.952  11.116   9.830  0.0141  0.1318 -0.2723
  312MOL0     C42024  -2.025  11.240   9.779  0.2162  1.1495 -0.2675
  312MOL0     C42025  -2.166  11.258   9.847 -0.3707  0.4411  0.1303
  312MOL0     C42026  -2.228  11.392   9.795  0.1786  0.2838 -0.0239
  312MOL0     C42027  -2.361  11.430   9.856  0.7081 -0.5662 -0.3689
  312MOL0     C42028  -2.411  11.567   9.806 -0.1201  0.5188  0.6421
  312MOL0     C42029  -2.556  11.602   9.837  0.1563  0.8720  0.1326
  312MOL0    Cl42030  -2.583  11.767   9.769  0.1337  0.0104  0.1774
  312MOL0     C42031  -1.562  11.030   9.637 -0.3468  0.1339  0.5111
  312MOL0     C42032  -1.435  10.987   9.590  0.5155 -0.6725 -0.3863
  312MOL0     O42033  -1.143  10.734   9.784 -0.3982 -0.2570 -0.3232
  312MOL0     C42034  -0.874  10.781   9.696  0.0075  1.2949  0.3569
  312MOL0     C42035  -0.740  10.781   9.644  0.3500  0.1147  1.2251
  312MOL0     N42036   0.031  10.983   9.692  0.3097 -0.5674  0.7274
  312MOL0     N42037   0.065  10.972   9.812 -0.8426  0.5379  0.0501
  312MOL0     C42038   0.136  10.586  10.652  0.9026  0.1276  0.8185
  312MOL0     C42039   0.247  10.511  10.672 -0.4972  0.5615 -0.5869
  312MOL0     C42040   0.668  10.399  10.774 -0.0390  0.2977 -0.1078
  312MOL0     C42041   0.655  10.272  10.828  0.1562  0.4776 -0.1563
  312MOL0     C42042   0.777  10.199  10.857  1.1885 -0.4745 -0.2944
  312MOL0     C42043   0.904  10.254  10.830 -0.6900  0.0590  0.0796
  312MOL0     O42044   1.022  10.186  10.841  0.2931  0.2825  0.3363
  312MOL0     C42045   1.032  10.067  10.907 -0.6806  0.5234 -1.0548
  312MOL0     C42046   1.175  10.014  10.914  0.0892 -0.0156 -0.3935
  312MOL0     C42047   1.226   9.969  10.785 -0.5942 -0.3552 -0.3820
  312MOL0     C42048   1.384   9.977  10.779  0.3305  0.2435 -0.1863
  312MOL0     C42049   1.445   9.858  10.841 -0.1645 -0.3598  0.2332
  312MOL0     C42050   1.488   9.766  10.912 -0.9624 -0.3056  0.1841
  312MOL0     C42051   0.907  10.389  10.786  0.1472 -0.1256 -1.1061
  312MOL0     C42052   0.791  10.458  10.760  0.2307  1.0243  1.0460
  312MOL0     H42053   0.358  10.646  10.967  0.6099 -1.4741 -1.4381
  312MOL0     H42054   0.156  10.774  10.937  0.3472  2.9167 -3.0234
  312MOL0     H42055  -0.026  10.909  10.866  1.6978 -1.4848  0.2476
  312MOL0     H42056   0.101  10.937  10.743  1.1374  2.3223  0.3332
  312MOL0     H42057  -0.206  10.976  10.698  0.2193  1.2127 -0.8859
  312MOL0     H42058  -0.098  11.100  10.723 -0.3640 -0.3446  0.9107
  312MOL0     H42059   0.011  11.037  10.497 -0.7014  0.8612  0.6336
  312MOL0     H42060  -0.083  10.887  10.497 -0.2920 -0.1170  1.7529
  312MOL0     H42061  -0.294  11.029  10.471 -1.1801  1.4795  1.0534
  312MOL0     H42062  -0.196  11.164  10.451  0.7531 -0.5512 -1.1317
  312MOL0     H42063  -0.185  10.933  10.259  1.0656  1.1735 -3.5006
  312MOL0     H42064  -0.262  11.082  10.239  0.2239  0.3686 -0.6583
  312MOL0     H42065  -0.048  11.215  10.254 -1.2134 -1.2683  0.7384
  312MOL0     H42066   0.040  11.066  10.272 -0.0550 -1.6985 -0.5086
  312MOL0     H42067  -0.144  11.123  10.026 -0.6220 -0.0317 -0.4278
  312MOL0     H42068   0.037  11.130  10.019 -0.5989  1.1480  0.7342
  312MOL0     H42069  -0.127  10.867  10.052  2.5795 -2.5956 -0.6372
  312MOL0     H42070   0.039  10.883  10.067 -1.1376 -3.0972 -0.4854
  312MOL0     H42071  -0.262  10.888   9.808 -0.0980 -3.8064 -1.5815
  312MOL0     H42072  -0.133  11.044   9.485  0.7067 -1.3115 -0.7647
  312MOL0     H42073  -0.151  10.865   9.487 -2.1056 -0.9782  0.3289
  312MOL0     H42074  -0.359  11.024   9.615  1.0065 -0.0254  1.2256
  312MOL0     H42075  -0.363  10.850   9.581  2.7690 -1.5587 -0.9454
  312MOL0     H42076  -0.373  10.897   9.336  0.9455 -0.1322  0.7929
  312MOL0     H42077  -0.359  11.070   9.375  2.0841 -1.3297 -1.2365
  312MOL0     H42078  -0.583  11.005   9.329  0.5814  2.1669  1.1079
  312MOL0     H42079  -0.578  11.044   9.505 -0.3660 -0.8244  0.8997
  312MOL0     H42080  -0.798  10.942   9.360  3.8597  0.0207  1.7349
  312MOL0     H42081  -1.126  11.025   9.447 -3.6246 -0.8279 -3.1720
  312MOL0     H42082  -1.016  10.983   9.316 -1.3739  3.3269  0.4723
  312MOL0     H42083  -1.121  10.864   9.381 -2.5593  3.1347 -2.5489
  312MOL0     H42084  -1.306  10.874   9.880 -1.5052 -0.8478 -0.0123
  312MOL0     H42085  -1.553  10.941   9.950 -0.6696 -0.3618 -0.1437
  312MOL0     H42086  -1.789  11.211   9.717  0.0184 -0.5115 -0.0252
  312MOL0     H42087  -1.824  11.047   9.653  4.2198 -0.0517 -1.8226
  312MOL0     H42088  -2.003  11.019   9.823  1.2250 -0.3804 -3.2525
  312MOL0     H42089  -1.925  11.134   9.935  1.9954  0.7301 -0.8417
  312MOL0     H42090  -2.031  11.240   9.670 -2.4797  0.4078 -0.1898
  312MOL0     H42091  -1.963  11.324   9.813  0.9468  0.3259  0.4910
  312MOL0     H42092  -2.238  11.180   9.820 -1.2878  0.6158  1.9751
  312MOL0     H42093  -2.155  11.257   9.956 -4.1376  0.9351  0.6367
  312MOL0     H42094  -2.232  11.382   9.686  1.0048 -3.2884  0.1291
  312MOL0     H42095  -2.169  11.477   9.828 -0.3001  1.1982 -1.4438
  312MOL0     H42096  -2.441  11.364   9.821 -0.7034 -1.2025  3.6089
  312MOL0     H42097  -2.351  11.429   9.965  1.1760 -1.0938 -0.4137
  312MOL0     H42098  -2.407  11.576   9.697  0.6910 -0.5694  0.5709
  312MOL0     H42099  -2.351  11.650   9.844 -0.3864  0.4733  1.1743
  312MOL0     H42100  -2.567  11.619   9.944 -1.9045  0.5021  0.0119
  312MOL0     H42101  -2.630  11.530   9.801 -0.7150  1.0102  1.5778
  312MOL0     H42102  -1.622  11.096   9.574 -1.5476  0.9896  2.4599
  312MOL0     H42103  -1.417  11.001   9.484  1.5164  0.8281 -0.0557
  312MOL0     H42104  -0.885  10.717   9.783 -0.0159 -2.6933 -2.2895
  312MOL0     H42105  -0.661  10.738   9.704  1.9098  1.0836 -0.0495
  312MOL0     H42106   0.076  10.566  10.564  1.9470 -0.1720  0.1587
  312MOL0     H42107   0.276  10.437  10.598  0.1191 -1.1303  1.2631
  312MOL0     H42108   0.563  10.218  10.845  1.2994 -0.7247  2.8334
  312MOL0     H42109   0.758  10.095  10.878  2.3945 -0.6945 -0.2145
  312MOL0     H42110   1.000  10.081  11.011  0.6582  1.0168 -0.6921
  312MOL0     H42111   0.959  10.001  10.859 -2.1589 -0.1417  1.8703
  312MOL0     H42112   1.181   9.931  10.985 -0.7684  0.3241  0.0854
  312MOL0     H42113   1.245  10.091  10.948  3.2919 -3.4836  1.7660
  312MOL0     H42114   1.172  10.030  10.712 -1.8700  0.3657  1.1129
  312MOL0     H42115   1.199   9.867  10.758 -2.6693 -0.3781  1.4757
  312MOL0     H42116   1.423  10.070  10.820  0.0616 -0.0905  0.8637
  312MOL0     H42117   1.405   9.968  10.672  2.6033  1.1152  0.1414
  312MOL0     H42118   1.519   9.675  10.958  0.8904 -0.7309 -1.7368
  312MOL0     H42119   1.008  10.428  10.779  1.0752 -1.5820  2.1607
  312MOL0     H42120   0.802  10.556  10.715  3.0152 -1.2090 -3.9939
  313MOL0     O42121   5.518   5.196   7.363  0.4454 -0.3843 -0.9408
  313MOL0     C42122   5.576   5.108   7.423 -0.7468  0.5780  0.5910
  313MOL0     O42123   5.526   5.039   7.526  0.6581 -0.4931 -0.0046
  313MOL0     C42124   5.395   5.071   7.575  0.1864  0.9223 -0.2522
  313MOL0     C42125   5.379   5.099   7.712  0.0874  0.3472  0.6322
  313MOL0     C42126   5.250   5.124   7.758  0.1662 -0.0317  0.8270
  313MOL0     C42127   5.141   5.122   7.665  0.3361  0.7145  0.7178
  313MOL0     O42128   5.017   5.158   7.696  0.0023  0.2208 -1.4481
  313MOL0     C42129   4.971   5.131   7.831  0.2190  0.1689 -0.0429
  313MOL0     C42130   4.868   5.238   7.862  0.2088 -0.4624  0.5917
  313MOL0     C42131   4.774   5.199   7.970  0.8279  0.2385  0.2857
  313MOL0     C42132   4.673   5.307   8.026 -0.0129  1.0606 -0.0195
  313MOL0     C42133   4.734   5.426   8.092  0.0226  0.3699  0.0308
  313MOL0     C42134   4.636   5.532   8.121 -0.2209  0.4673 -0.6458
  313MOL0     C42135   4.688   5.622   8.230 -0.3890 -0.0835 -0.3909
  313MOL0     C42136   4.597   5.749   8.259 -0.9338 -0.0193 -0.6188
  313MOL0     N42137   4.464   5.722   8.298 -0.7158  0.9485  0.2300
  313MOL0     C42138   4.431   5.656   8.416  1.1297 -0.1193 -0.2748
  313MOL0     C42139   4.297   5.616   8.397 -0.0544  0.1087  0.4851
  313MOL0     C42140   4.198   5.565   8.497 -0.1558 -0.4226 -0.5907
  313MOL0     C42141   4.092   5.473   8.453  0.0420 -0.4766 -0.4967
  313MOL0     C42142   3.965   5.549   8.412 -0.0170  0.0995 -0.6091
  313MOL0     C42143   3.848   5.468   8.365 -0.4617  0.5716  0.4845
  313MOL0     O42144   3.763   5.451   8.477  0.0100  0.0711 -0.2976
  313MOL0     C42145   3.632   5.504   8.471  0.5887 -0.4692  0.9190
  313MOL0     C42146   3.554   5.533   8.356  0.4404 -0.5174  0.4907
  313MOL0     C42147   3.421   5.566   8.364  0.3480 -0.2321  0.2041
  313MOL0     C42148   3.342   5.582   8.241  0.1285  0.0441  0.1374
  313MOL0     C42149   3.363   5.584   8.491 -0.1617  0.7071  0.0097
  313MOL0     C42150   3.232   5.614   8.515  0.4051  0.5299  0.3584
  313MOL0     O42151   3.171   5.531   8.591  0.1050 -0.5570 -0.0938
  313MOL0     C42152   3.033   5.546   8.603  0.0576  0.0910  0.0549
  313MOL0     C42153   2.949   5.524   8.489  0.0218  0.8591  1.2097
  313MOL0     C42154   2.809   5.538   8.492 -0.6111  0.4783 -0.4838
  313MOL0     C42155   2.748   5.560   8.618  0.4111 -0.1539  0.4124
  313MOL0     O42156   2.613   5.553   8.622  0.3497  0.5744 -0.2132
  313MOL0     C42157   2.536   5.636   8.709  1.2346 -0.3845 -0.5402
  313MOL0     C42158   2.390   5.557   8.730 -0.2167  0.2564  0.1226
  313MOL0     C42159   2.329   5.574   8.868 -0.5278 -0.2187  0.6269
  313MOL0     C42160   2.194   5.506   8.866  0.6019 -1.0320 -0.0648
  313MOL0     C42161   2.200   5.356   8.892  0.4708 -0.1296 -0.2120
  313MOL0     C42162   2.074   5.279   8.843 -0.6116 -0.2850  0.4146
  313MOL0     C42163   2.085   5.127   8.870 -0.0620  0.4191  0.6357
  313MOL0     C42164   1.974   5.046   8.816 -0.3085  0.5624  0.6627
  313MOL0    Cl42165   2.023   4.875   8.845 -0.0999 -0.2956  0.2519
  313MOL0     C42166   2.830   5.585   8.732  0.0500  0.4326  0.0017
  313MOL0     C42167   2.968   5.580   8.726 -0.4987 -0.2042 -0.3963
  313MOL0     O42168   3.188   5.723   8.480 -0.1667  0.6122  0.1690
  313MOL0     C42169   3.450   5.576   8.599  0.7745 -0.8127 -0.7828
  313MOL0     C42170   3.582   5.531   8.590  0.1620  0.2247  0.7870
  313MOL0     N42171   4.259   5.634   8.269 -0.0055  0.1785  0.1209
  313MOL0     N42172   4.359   5.702   8.209 -0.0760 -0.5809  0.1627
  313MOL0     C42173   5.156   5.075   7.540 -0.0661 -0.5525  0.2918
  313MOL0     C42174   5.286   5.055   7.492  0.1563  0.2419  0.0030
  313MOL0     C42175   5.698   5.052   7.370 -0.2811 -0.1105 -0.4604
  313MOL0     C42176   5.765   5.116   7.265 -0.8510  0.9595 -0.2840
  313MOL0     C42177   5.886   5.065   7.212  0.0159 -0.1446 -0.1426
  313MOL0     C42178   5.944   4.953   7.264 -0.5760  0.2111  0.6415
  313MOL0     O42179   6.068   4.914   7.218 -0.1753 -0.2185  0.1449
  313MOL0     C42180   6.128   4.787   7.239  0.7104  0.9714 -0.6181
  313MOL0     C42181   6.245   4.774   7.139 -0.7430 -0.0444 -0.1562
  313MOL0     C42182   6.358   4.885   7.157 -0.1893 -0.1737  0.2783
  313MOL0     C42183   6.497   4.846   7.101 -0.5855  0.4343 -0.6271
  313MOL0     C42184   6.591   4.952   7.118  0.0853 -0.6093  0.2523
  313MOL0     C42185   6.655   5.052   7.116  0.3124 -0.8165  0.4553
  313MOL0     C42186   5.871   4.875   7.362 -0.5282 -0.1911  0.1258
  313MOL0     C42187   5.754   4.930   7.421 -0.9690  0.4008  0.1621
  313MOL0     H42188   5.466   5.116   7.775  1.2193 -0.0629 -0.7408
  313MOL0     H42189   5.236   5.159   7.859 -1.0809 -0.1232  0.6980
  313MOL0     H42190   4.916   5.037   7.831  0.3216  0.0971 -0.9977
  313MOL0     H42191   5.039   5.129   7.917 -0.3508  5.3952  0.8597
  313MOL0     H42192   4.930   5.327   7.881  0.5163 -0.4314 -0.5079
  313MOL0     H42193   4.802   5.258   7.778  0.4858 -0.6154  0.3363
  313MOL0     H42194   4.719   5.117   7.923  0.4899  1.0014 -0.6702
  313MOL0     H42195   4.829   5.167   8.060  1.2568  2.5812  0.9225
  313MOL0     H42196   4.613   5.322   7.937  0.6603 -0.3179 -0.7410
  313MOL0     H42197   4.609   5.269   8.107  0.1973 -0.6394 -0.6234
  313MOL0     H42198   4.785   5.396   8.184 -0.7855  1.1464  0.7470
  313MOL0     H42199   4.809   5.475   8.029  0.1547 -0.1834 -0.2511
  313MOL0     H42200   4.609   5.584   8.029 -2.7021 -0.8660 -0.7629
  313MOL0     H42201   4.540   5.483   8.140  0.4549 -0.5927  0.1766
  313MOL0     H42202   4.708   5.564   8.320 -1.5814  0.1014  0.0118
  313MOL0     H42203   4.785   5.666   8.204 -0.6835  1.8867  1.5714
  313MOL0     H42204   4.591   5.814   8.172 -1.2992  3.0892  1.5833
  313MOL0     H42205   4.635   5.815   8.338  1.1480 -1.8858  0.0876
  313MOL0     H42206   4.492   5.657   8.506 -0.1349 -0.9450  0.6360
  313MOL0     H42207   4.253   5.515   8.577  0.6365 -1.8903 -2.0000
  313MOL0     H42208   4.153   5.652   8.544 -1.3065 -1.1446 -0.3338
  313MOL0     H42209   4.055   5.404   8.530 -1.3488 -0.7675 -1.3878
  313MOL0     H42210   4.136   5.405   8.379  2.3083 -0.6720  0.9190
  313MOL0     H42211   3.989   5.593   8.314 -2.3714 -2.9449 -2.7407
  313MOL0     H42212   3.941   5.633   8.477  2.8163  0.4586  0.0954
  313MOL0     H42213   3.877   5.369   8.330  1.8369  0.8737  1.3801
  313MOL0     H42214   3.809   5.512   8.273  2.8519 -1.7854 -2.3181
  313MOL0     H42215   3.591   5.505   8.258  0.0085  1.6944 -0.3761
  313MOL0     H42216   3.292   5.677   8.219 -0.6920 -0.9305 -2.6949
  313MOL0     H42217   3.407   5.560   8.156 -0.8269  3.1354 -1.5495
  313MOL0     H42218   3.263   5.506   8.248 -1.0989  1.1612 -0.9728
  313MOL0     H42219   3.002   5.497   8.398  0.8039  0.7544  1.6802
  313MOL0     H42220   2.758   5.517   8.398 -1.0909  0.2576 -0.1817
  313MOL0     H42221   2.582   5.644   8.808 -0.0302 -1.3729  0.1671
  313MOL0     H42222   2.515   5.737   8.675 -2.9226 -0.0144  2.3298
  313MOL0     H42223   2.318   5.609   8.665  0.4325  0.6020 -0.3338
  313MOL0     H42224   2.394   5.451   8.704 -0.6058  0.1860  0.3458
  313MOL0     H42225   2.306   5.680   8.885  0.4961  0.1334 -0.1041
  313MOL0     H42226   2.395   5.535   8.946  1.3416  3.0025  0.8239
  313MOL0     H42227   2.134   5.556   8.943 -0.2142 -1.0498 -0.6749
  313MOL0     H42228   2.144   5.514   8.769 -0.8028 -0.3528  0.6887
  313MOL0     H42229   2.219   5.329   8.996  2.1667  0.1363 -0.4305
  313MOL0     H42230   2.282   5.318   8.831  1.4950  0.6538  0.6371
  313MOL0     H42231   1.985   5.318   8.892 -2.5974 -1.4754 -1.9788
  313MOL0     H42232   2.064   5.291   8.735  1.6147 -1.7581 -0.0286
  313MOL0     H42233   2.100   5.105   8.977  0.8869 -0.7006  0.2969
  313MOL0     H42234   2.171   5.089   8.815 -1.9779 -2.2186 -0.7891
  313MOL0     H42235   1.944   5.078   8.715 -1.3509 -0.3447  0.6688
  313MOL0     H42236   1.890   5.074   8.880 -0.6857  0.3193  0.2770
  313MOL0     H42237   2.771   5.617   8.817  0.1917  1.8637 -0.4095
  313MOL0     H42238   3.021   5.584   8.821 -1.8850 -0.3068  0.4088
  313MOL0     H42239   3.420   5.605   8.699  1.1442 -0.0393 -0.8880
  313MOL0     H42240   3.640   5.522   8.681  0.0208  0.5497  0.9089
  313MOL0     H42241   5.073   5.069   7.470 -1.0899  1.2753  1.2771
  313MOL0     H42242   5.305   5.036   7.387 -2.0991  2.0445 -0.7977
  313MOL0     H42243   5.715   5.202   7.223  0.5914  2.8188  1.5933
  313MOL0     H42244   5.941   5.117   7.134 -1.4270  0.0738 -1.0467
  313MOL0     H42245   6.160   4.767   7.342 -2.2656  0.0656  0.2327
  313MOL0     H42246   6.057   4.708   7.215  1.4497  0.1252 -0.0974
  313MOL0     H42247   6.212   4.780   7.035  1.5472 -1.5694 -1.0581
  313MOL0     H42248   6.297   4.678   7.147  0.3626  0.5202 -0.2597
  313MOL0     H42249   6.385   4.902   7.262  0.0421 -0.1650  0.2183
  313MOL0     H42250   6.325   4.977   7.108 -0.1414 -0.2333  0.1344
  313MOL0     H42251   6.487   4.818   6.995 -1.3934  2.9509 -1.2845
  313MOL0     H42252   6.534   4.757   7.153  0.9783  0.8405 -1.0026
  313MOL0     H42253   6.716   5.140   7.113 -0.9672  0.2128  2.5051
  313MOL0     H42254   5.907   4.778   7.393  0.7841 -0.0296 -0.7847
  313MOL0     H42255   5.714   4.866   7.500 -0.0635 -1.2927 -0.7044
  314MOL0     O42256   3.474   9.375   6.071  0.0561  0.1228  0.5242
  314MOL0     C42257   3.545   9.366   6.173 -0.1080  0.5488  0.5502
  314MOL0     O42258   3.502   9.325   6.293 -0.3904  0.0258  0.5780
  314MOL0     C42259   3.373   9.284   6.309 -0.2173  1.1677 -0.0781
  314MOL0     C42260   3.260   9.355   6.262 -0.5162 -0.5089  0.0807
  314MOL0     C42261   3.133   9.303   6.283  0.9073  0.1685  0.2897
  314MOL0     C42262   3.108   9.191   6.357  0.2157  0.3609 -0.3776
  314MOL0     O42263   2.979   9.136   6.384  0.0639  0.3442  0.5715
  314MOL0     C42264   2.874   9.172   6.303 -0.0771  0.2056 -0.1075
  314MOL0     C42265   2.761   9.082   6.330 -0.2774 -0.7161 -0.4344
  314MOL0     C42266   2.796   8.933   6.286 -0.3536  0.2165  0.2944
  314MOL0     C42267   2.678   8.839   6.300 -0.4867 -0.3605  0.3969
  314MOL0     C42268   2.717   8.692   6.278  0.0764  0.8230  0.5117
  314MOL0     C42269   2.594   8.612   6.217 -0.1575 -0.0105  0.0618
  314MOL0     C42270   2.622   8.460   6.211 -0.1155 -0.1417  1.0672
  314MOL0     C42271   2.554   8.385   6.098 -0.3262  0.5617  0.5087
  314MOL0     N42272   2.412   8.388   6.106  0.1158 -0.0103  0.0346
  314MOL0     C42273   2.327   8.433   6.000 -0.6985  1.1310 -0.9414
  314MOL0     C42274   2.205   8.387   6.045 -0.5906  0.0199  0.8919
  314MOL0     C42275   2.086   8.427   5.974 -0.1663 -0.1034  0.4104
  314MOL0     C42276   1.987   8.312   5.961 -0.2897 -0.8331  0.0839
  314MOL0     C42277   1.850   8.383   5.925 -0.0741 -0.6588  0.2600
  314MOL0     C42278   1.745   8.272   5.913 -0.2215  0.5033 -0.0566
  314MOL0     O42279   1.614   8.317   5.865  0.3515 -0.4395 -0.7879
  314MOL0     C42280   1.511   8.227   5.854  0.4078 -0.0418 -1.8851
  314MOL0     C42281   1.518   8.085   5.863 -0.6613  0.0840 -0.0138
  314MOL0     C42282   1.401   8.011   5.853 -0.5400  0.1781 -1.1632
  314MOL0     C42283   1.424   7.861   5.876 -0.7307 -0.1169  0.0937
  314MOL0     C42284   1.271   8.079   5.823  0.3559 -0.4797  0.9844
  314MOL0     C42285   1.138   8.009   5.797 -0.5377 -0.0234  0.6984
  314MOL0     O42286   1.034   8.092   5.764  0.2847 -0.8167  0.6092
  314MOL0     C42287   0.909   8.064   5.731 -0.3347 -1.2885  0.4414
  314MOL0     C42288   0.865   7.947   5.665  0.3411  0.1410  0.0192
  314MOL0     C42289   0.741   7.945   5.599  0.6780  0.4044 -0.8154
  314MOL0     C42290   0.646   8.049   5.607 -0.4424 -0.1117 -0.4761
  314MOL0     O42291   0.519   8.049   5.553 -0.2353  0.1255 -0.5127
  314MOL0     C42292   0.464   7.922   5.500 -1.0650  0.6454  0.1734
  314MOL0     C42293   0.321   7.940   5.445  1.2737 -0.1821 -0.3762
  314MOL0     C42294   0.222   7.986   5.562  0.0630  0.7370  0.2691
  314MOL0     C42295   0.077   7.978   5.509  0.0793  0.1739 -0.2145
  314MOL0     C42296  -0.021   8.026   5.625 -0.8987 -0.0046 -0.0196
  314MOL0     C42297  -0.172   8.049   5.590 -0.1592  0.4682  0.6901
  314MOL0     C42298  -0.243   7.924   5.552  0.0221  0.5864  0.8112
  314MOL0     C42299  -0.330   7.935   5.425  1.3377 -0.1786 -0.6875
  314MOL0    Cl42300  -0.461   7.813   5.395  0.2471 -0.4153  0.4422
  314MOL0     C42301   0.689   8.167   5.667  0.0523 -0.6458 -0.0786
  314MOL0     C42302   0.820   8.172   5.722  0.1039  0.1843  0.0690
  314MOL0     O42303   1.130   7.886   5.804 -0.4096 -0.1167  0.7396
  314MOL0     C42304   1.270   8.225   5.811 -0.1996  0.0691 -0.5398
  314MOL0     C42305   1.390   8.296   5.827  0.2194  0.3718  0.7061
  314MOL0     N42306   2.211   8.349   6.172 -0.2019 -0.3645  0.1398
  314MOL0     N42307   2.337   8.346   6.208  0.0675  0.6525 -1.0482
  314MOL0     C42308   3.218   9.147   6.427 -0.6823  0.8054  0.0956
  314MOL0     C42309   3.351   9.189   6.411  0.3079  0.2224  0.2331
  314MOL0     C42310   3.693   9.389   6.163  0.4971  0.2177 -0.1158
  314MOL0     C42311   3.787   9.374   6.279  0.9082  0.1878 -0.4702
  314MOL0     C42312   3.924   9.394   6.278 -0.4963 -0.5321  0.6406
  314MOL0     C42313   3.991   9.433   6.161 -0.1046  0.1742 -0.4482
  314MOL0     O42314   4.121   9.458   6.155  0.1260 -1.3956  0.8045
  314MOL0     C42315   4.225   9.428   6.250 -0.4682  0.7834  1.1285
  314MOL0     C42316   4.304   9.545   6.304 -0.1118 -0.0150  0.0139
  314MOL0     C42317   4.209   9.646   6.368  0.2010  0.0447 -0.1328
  314MOL0     C42318   4.277   9.766   6.435 -0.6076  0.4310  0.2636
  314MOL0     C42319   4.312   9.731   6.577 -0.8076 -0.4377 -0.3074
  314MOL0     C42320   4.338   9.714   6.696  0.1885  0.9200  0.3901
  314MOL0     C42321   3.897   9.460   6.049 -0.7975 -0.0534 -0.3662
  314MOL0     C42322   3.758   9.425   6.047 -0.2035 -0.5227  1.5619
  314MOL0     H42323   3.265   9.440   6.194 -0.8288 -2.4969 -2.5979
  314MOL0     H42324   3.045   9.351   6.242  2.9544  1.7660 -2.6676
  314MOL0     H42325   2.852   9.277   6.322  1.5817  0.1413  2.6576
  314MOL0     H42326   2.893   9.163   6.195  0.4006  1.2476 -0.1234
  314MOL0     H42327   2.725   9.091   6.433 -0.1290 -0.5543 -0.3969
  314MOL0     H42328   2.680   9.116   6.265  1.4852  1.7101 -1.5013
  314MOL0     H42329   2.815   8.947   6.180  1.4318  0.5710  0.6367
  314MOL0     H42330   2.891   8.904   6.332 -0.0895 -0.2920 -0.5534
  314MOL0     H42331   2.643   8.851   6.403  2.9048  1.2620  1.4884
  314MOL0     H42332   2.605   8.866   6.223  0.2746  1.3345  0.2349
  314MOL0     H42333   2.802   8.688   6.209  0.9414  0.8161  1.5493
  314MOL0     H42334   2.743   8.651   6.377  0.9322 -0.7591 -0.3240
  314MOL0     H42335   2.500   8.628   6.271  0.2738 -1.7439  1.4390
  314MOL0     H42336   2.587   8.644   6.113 -0.1284 -0.7621 -0.1764
  314MOL0     H42337   2.729   8.457   6.191 -0.3182 -3.5358 -0.1974
  314MOL0     H42338   2.604   8.406   6.305 -0.0257 -1.0516  0.5707
  314MOL0     H42339   2.589   8.282   6.113 -0.5526  0.3847 -0.1656
  314MOL0     H42340   2.569   8.412   5.993 -0.4149 -0.7809  0.1212
  314MOL0     H42341   2.359   8.469   5.903 -0.3849  0.3104 -1.1488
  314MOL0     H42342   2.049   8.511   6.033  1.3909 -0.4558  1.9595
  314MOL0     H42343   2.112   8.458   5.873  1.6005 -1.9801  0.2235
  314MOL0     H42344   1.985   8.269   6.061  1.8484 -1.9478 -0.3029
  314MOL0     H42345   2.021   8.242   5.884  1.5449 -0.2005  0.2663
  314MOL0     H42346   1.854   8.434   5.828  2.5312 -0.3646  0.4503
  314MOL0     H42347   1.818   8.448   6.007  1.6984 -0.3954  0.7684
  314MOL0     H42348   1.742   8.230   6.014  1.8938  1.5955  0.5229
  314MOL0     H42349   1.788   8.198   5.844  0.0285  0.0614  0.5712
  314MOL0     H42350   1.607   8.034   5.899  0.3031  1.2983 -0.6421
  314MOL0     H42351   1.434   7.818   5.776 -3.4701  0.5184 -0.5298
  314MOL0     H42352   1.511   7.826   5.933  0.5588  1.1551 -1.0296
  314MOL0     H42353   1.333   7.831   5.929  0.1090 -2.1131  0.5189
  314MOL0     H42354   0.943   7.878   5.635  0.5539  0.2199  0.3988
  314MOL0     H42355   0.718   7.856   5.541  2.3124 -0.7247  0.1658
  314MOL0     H42356   0.526   7.891   5.415  0.2567  3.9300 -0.2294
  314MOL0     H42357   0.482   7.854   5.584  2.9615  2.3566  0.9645
  314MOL0     H42358   0.326   8.022   5.373  3.1288 -0.3110 -0.4338
  314MOL0     H42359   0.285   7.849   5.398 -0.8549  1.4054 -2.0167
  314MOL0     H42360   0.242   8.083   5.608 -0.7656  0.1660  1.9229
  314MOL0     H42361   0.235   7.923   5.651  1.5431  1.8375  0.8679
  314MOL0     H42362   0.062   8.049   5.427 -1.5486  2.8781  2.1945
  314MOL0     H42363   0.053   7.875   5.482 -0.2231  0.4272 -0.9361
  314MOL0     H42364   0.006   8.124   5.665 -2.2866  0.1586  0.5663
  314MOL0     H42365  -0.012   7.961   5.713  1.0466 -0.3819 -0.4379
  314MOL0     H42366  -0.229   8.096   5.670 -1.8252 -1.5614  0.7852
  314MOL0     H42367  -0.181   8.125   5.511 -0.3269 -0.4122 -0.1604
  314MOL0     H42368  -0.305   7.901   5.640 -0.5943  0.1169  0.2618
  314MOL0     H42369  -0.171   7.842   5.541  2.9338  3.1009 -0.0661
  314MOL0     H42370  -0.271   7.935   5.333  2.2714 -3.4593 -0.2213
  314MOL0     H42371  -0.383   8.030   5.435  1.3314 -0.3572  1.6339
  314MOL0     H42372   0.627   8.254   5.650  1.6354  0.5140 -0.2166
  314MOL0     H42373   0.854   8.270   5.751 -2.6210  1.4573 -0.6811
  314MOL0     H42374   1.186   8.293   5.798  0.9820  2.2700  2.3375
  314MOL0     H42375   1.392   8.404   5.819  2.2064  0.3598  0.4899
  314MOL0     H42376   3.207   9.067   6.499 -2.0215  0.6829 -0.2041
  314MOL0     H42377   3.429   9.139   6.467 -2.2175 -0.2433  3.6528
  314MOL0     H42378   3.739   9.360   6.375 -3.1446 -0.4595 -2.3785
  314MOL0     H42379   3.980   9.394   6.371  0.9417 -0.4654 -0.1905
  314MOL0     H42380   4.183   9.368   6.331  1.8969  1.1202  2.7244
  314MOL0     H42381   4.308   9.383   6.195  0.7383  2.3692  1.5795
  314MOL0     H42382   4.361   9.598   6.227 -0.8766 -1.5397 -1.6725
  314MOL0     H42383   4.366   9.516   6.390  0.7843  5.4219  1.6149
  314MOL0     H42384   4.137   9.596   6.434 -0.5548 -3.5420 -3.3313
  314MOL0     H42385   4.146   9.679   6.285  1.6605 -2.6367 -2.4862
  314MOL0     H42386   4.218   9.858   6.443 -2.5569 -0.5036 -2.1522
  314MOL0     H42387   4.369   9.784   6.378 -0.9892  1.3744 -0.0846
  314MOL0     H42388   4.365   9.697   6.799 -0.4333 -2.5501  0.0945
  314MOL0     H42389   3.931   9.505   5.956 -3.5456  0.6515 -1.1154
  314MOL0     H42390   3.695   9.455   5.963  3.3637  1.2144 -0.7221
  315MOL0     O42391   9.280   9.442   6.377  0.8363  0.2785  0.0701
  315MOL0     C42392   9.263   9.477   6.258  0.8220 -0.0319 -0.0946
  315MOL0     O42393   9.145   9.512   6.202 -0.9275 -0.8807 -0.2601
  315MOL0     C42394   9.037   9.506   6.282  0.3956  0.0389  0.3712
  315MOL0     C42395   9.005   9.591   6.392 -0.1340  0.1254 -0.8914
  315MOL0     C42396   8.905   9.568   6.472  0.1571 -0.1403 -0.0327
  315MOL0     C42397   8.811   9.460   6.461 -0.0502 -0.2969  0.4947
  315MOL0     O42398   8.706   9.431   6.554  0.2804 -0.0674 -0.7910
  315MOL0     C42399   8.719   9.502   6.680  0.2559 -0.3514  0.2459
  315MOL0     C42400   8.607   9.452   6.766 -0.2871  0.1653  0.2006
  315MOL0     C42401   8.469   9.483   6.712  0.6476  0.2846  0.1674
  315MOL0     C42402   8.356   9.430   6.812  0.5704 -0.6220  0.0944
  315MOL0     C42403   8.218   9.486   6.791 -0.4190  0.2927  1.1275
  315MOL0     C42404   8.139   9.445   6.913  0.2869 -0.1746 -0.4112
  315MOL0     C42405   8.002   9.517   6.902 -0.7304  0.6611  0.3154
  315MOL0     C42406   7.897   9.426   6.970  0.2888 -0.1289  0.5125
  315MOL0     N42407   7.770   9.491   6.976  0.1607  0.1016  0.0388
  315MOL0     C42408   7.722   9.590   7.074 -0.0039 -0.0290 -0.1232
  315MOL0     C42409   7.599   9.623   7.023  0.1154  0.1118  0.5993
  315MOL0     C42410   7.506   9.733   7.081  0.8442  0.1352  0.4584
  315MOL0     C42411   7.409   9.685   7.194 -0.7213  1.0671 -0.2186
  315MOL0     C42412   7.291   9.589   7.149  0.0034  1.0109 -0.2264
  315MOL0     C42413   7.187   9.560   7.262  0.2731 -0.2924  0.7891
  315MOL0     O42414   7.075   9.489   7.204 -0.0320 -0.4167 -0.1717
  315MOL0     C42415   6.955   9.527   7.256 -0.2905 -0.6442 -0.0066
  315MOL0     C42416   6.923   9.537   7.391 -0.2659  0.1296 -0.5153
  315MOL0     C42417   6.796   9.574   7.432 -0.5050  0.4489  0.5656
  315MOL0     C42418   6.769   9.566   7.577  0.2562 -0.1086 -0.2052
  315MOL0     C42419   6.699   9.609   7.334 -0.1079 -0.0075 -1.4005
  315MOL0     C42420   6.558   9.657   7.366 -0.2064  0.1391 -0.3059
  315MOL0     O42421   6.504   9.732   7.266  0.0840 -0.1234  0.1149
  315MOL0     C42422   6.373   9.783   7.281 -0.0990  0.0454 -0.1411
  315MOL0     C42423   6.357   9.920   7.257 -0.1073 -0.5930  0.2190
  315MOL0     C42424   6.233   9.982   7.247 -0.2359 -0.6965 -0.8985
  315MOL0     C42425   6.109   9.907   7.270 -0.4516  0.6000  0.3849
  315MOL0     O42426   5.976   9.946   7.259 -0.4806  0.0582 -0.2168
  315MOL0     C42427   5.954  10.080   7.211  0.2500  0.4007 -0.2016
  315MOL0     C42428   5.809  10.104   7.163 -0.5747  0.1842  0.4021
  315MOL0     C42429   5.789  10.239   7.091 -0.4964 -0.1354 -0.2257
  315MOL0     C42430   5.668  10.248   6.999  0.5780 -0.1056 -0.7882
  315MOL0     C42431   5.541  10.247   7.092  0.5442  0.3482 -0.0685
  315MOL0     C42432   5.405  10.246   7.020 -0.2176 -0.7065  0.6239
  315MOL0     C42433   5.359  10.381   6.963  1.1307 -0.3881  0.3482
  315MOL0     C42434   5.262  10.361   6.841  0.3939  0.7605  1.0007
  315MOL0    Cl42435   5.120  10.257   6.867 -0.1793 -0.2719 -0.0176
  315MOL0     C42436   6.128   9.773   7.301 -0.0091 -0.7204 -0.2184
  315MOL0     C42437   6.255   9.716   7.312 -0.4467 -0.3996  0.1503
  315MOL0     O42438   6.509   9.640   7.474 -0.8258  0.6026 -0.1562
  315MOL0     C42439   6.733   9.600   7.196 -0.4926 -0.0542 -0.2974
  315MOL0     C42440   6.863   9.560   7.161  0.0027 -0.0829  0.2606
  315MOL0     N42441   7.572   9.550   6.910  1.1855 -0.0018 -0.4664
  315MOL0     N42442   7.677   9.475   6.878  0.2270 -0.0798  0.1239
  315MOL0     C42443   8.837   9.369   6.349  0.6955 -0.6025 -0.4218
  315MOL0     C42444   8.950   9.393   6.265  0.0792 -0.3854  0.7945
  315MOL0     C42445   9.378   9.489   6.165 -0.6024  0.4586  0.7283
  315MOL0     C42446   9.505   9.531   6.200  0.2890 -0.6814  0.3668
  315MOL0     C42447   9.602   9.567   6.109  0.0887 -0.0051  0.0457
  315MOL0     C42448   9.584   9.536   5.967 -0.7127 -0.2409 -0.1543
  315MOL0     O42449   9.684   9.556   5.875  0.1961 -0.0479  0.3372
  315MOL0     C42450   9.811   9.624   5.903  0.2997  0.1571 -0.2378
  315MOL0     C42451   9.859   9.704   5.786  0.4223 -0.9090 -0.0019
  315MOL0     C42452   9.834   9.646   5.646  0.2946 -0.2152  0.1726
  315MOL0     C42453   9.941   9.687   5.546  0.7864 -0.3429  0.3892
  315MOL0     C42454   9.905   9.810   5.473  0.4254  0.2249 -0.6335
  315MOL0     C42455   9.854   9.903   5.422 -0.4074 -0.0446 -0.4386
  315MOL0     C42456   9.455   9.494   5.928 -0.0409  0.1502 -0.3735
  315MOL0     C42457   9.355   9.465   6.026  0.7677 -1.2362  0.2485
  315MOL0     H42458   9.075   9.662   6.434  2.2184 -3.2324  1.3433
  315MOL0     H42459   8.888   9.629   6.561 -2.3522 -3.6273  2.1565
  315MOL0     H42460   8.815   9.495   6.731  0.3414  0.8801  0.2968
  315MOL0     H42461   8.707   9.611   6.669 -1.6060 -0.2566  2.4268
  315MOL0     H42462   8.618   9.344   6.775 -1.5209  0.1207  1.6635
  315MOL0     H42463   8.623   9.498   6.864 -0.0328 -1.1587  0.7949
  315MOL0     H42464   8.459   9.591   6.700  0.7786  0.5199  1.8488
  315MOL0     H42465   8.465   9.431   6.616 -0.2640  0.9968 -0.1958
  315MOL0     H42466   8.347   9.321   6.805 -0.8452 -0.5767  0.7958
  315MOL0     H42467   8.382   9.455   6.915 -1.0544 -0.2913  0.4546
  315MOL0     H42468   8.236   9.592   6.774  0.0731 -0.1354 -1.3566
  315MOL0     H42469   8.169   9.440   6.705  0.8834 -2.0321  1.5273
  315MOL0     H42470   8.123   9.339   6.935  1.1144 -0.6639 -2.0182
  315MOL0     H42471   8.204   9.478   6.995  3.2256  1.1536 -3.0639
  315MOL0     H42472   8.001   9.611   6.958 -0.6883  0.6735  0.2968
  315MOL0     H42473   7.973   9.539   6.799 -1.5267 -3.9979 -0.6729
  315MOL0     H42474   7.925   9.398   7.072  0.1611 -0.3447  0.4879
  315MOL0     H42475   7.878   9.337   6.910 -2.2185  1.1809 -0.7960
  315MOL0     H42476   7.773   9.632   7.160  0.4325 -0.7837 -0.0033
  315MOL0     H42477   7.563   9.820   7.117 -0.1369  0.7185  0.6346
  315MOL0     H42478   7.436   9.768   7.004 -1.2692 -2.0444  1.2552
  315MOL0     H42479   7.362   9.774   7.237 -2.6617 -0.7545  1.7032
  315MOL0     H42480   7.476   9.636   7.265 -1.0906  2.1535  0.9176
  315MOL0     H42481   7.325   9.492   7.112 -0.6780  0.2264  1.1557
  315MOL0     H42482   7.237   9.638   7.067  1.5757  0.8867 -1.3860
  315MOL0     H42483   7.158   9.664   7.281  2.4859  0.3429  1.0628
  315MOL0     H42484   7.236   9.513   7.348  3.6964  0.9494 -0.3000
  315MOL0     H42485   6.993   9.489   7.459 -2.1623 -1.2134  0.5881
  315MOL0     H42486   6.673   9.518   7.597 -1.7182  4.0885  1.6511
  315MOL0     H42487   6.836   9.496   7.628  0.0168  2.3012  3.8922
  315MOL0     H42488   6.761   9.660   7.632 -2.0901  0.2343 -1.0160
  315MOL0     H42489   6.441   9.982   7.228 -0.1943  0.7921  2.7103
  315MOL0     H42490   6.231  10.091   7.243 -1.6660 -0.7217 -1.4198
  315MOL0     H42491   5.987  10.147   7.292  2.6311  0.7909 -1.3993
  315MOL0     H42492   6.009  10.107   7.121 -0.3453  3.7273  0.3128
  315MOL0     H42493   5.770  10.032   7.091 -1.4559  0.1187  0.9308
  315MOL0     H42494   5.751  10.093   7.256  0.0454  1.8123  1.0132
  315MOL0     H42495   5.881  10.266   7.037  0.6502 -1.5654  0.9162
  315MOL0     H42496   5.777  10.317   7.166 -1.6223  0.5098 -1.0652
  315MOL0     H42497   5.679  10.331   6.930  1.4563  1.2029  0.8643
  315MOL0     H42498   5.677  10.156   6.941 -0.6218 -2.7063  2.7452
  315MOL0     H42499   5.541  10.344   7.142 -3.4918  0.3383  0.3390
  315MOL0     H42500   5.548  10.161   7.159  0.4162 -1.8004 -2.6804
  315MOL0     H42501   5.406  10.164   6.948 -0.3031  0.2759 -0.5251
  315MOL0     H42502   5.329  10.218   7.094 -1.1600  2.7097  1.1275
  315MOL0     H42503   5.438  10.450   6.932  0.3829  1.6731  2.7541
  315MOL0     H42504   5.293  10.433   7.032 -2.1168  0.8593 -3.3276
  315MOL0     H42505   5.320  10.324   6.756  2.1751  0.8578  2.1205
  315MOL0     H42506   5.230  10.460   6.805 -1.4259 -0.5177 -1.1452
  315MOL0     H42507   6.038   9.715   7.321  1.4722 -2.9531  0.3569
  315MOL0     H42508   6.270   9.609   7.316 -1.2189 -0.5722 -1.2120
  315MOL0     H42509   6.656   9.620   7.122  0.0633  3.1707 -0.1593
  315MOL0     H42510   6.883   9.582   7.056 -0.6848  0.8022  0.3038
  315MOL0     H42511   8.776   9.280   6.333 -0.2044 -0.0079 -0.3511
  315MOL0     H42512   8.970   9.333   6.176  1.8290  0.8556  0.3052
  315MOL0     H42513   9.514   9.566   6.303 -0.5700  1.5155 -0.2292
  315MOL0     H42514   9.689   9.618   6.149  0.4948  0.5383 -1.4595
  315MOL0     H42515   9.802   9.706   5.975  3.0913  0.1698  0.1910
  315MOL0     H42516   9.879   9.546   5.940  0.0691 -0.2327 -0.6192
  315MOL0     H42517   9.964   9.735   5.795  0.2804 -0.3296 -0.2774
  315MOL0     H42518   9.794   9.791   5.788  0.2235 -1.0756  0.7870
  315MOL0     H42519   9.739   9.687   5.612  0.9011  2.0104  1.0030
  315MOL0     H42520   9.828   9.537   5.649 -0.4897 -0.2640 -1.6961
  315MOL0     H42521   9.947   9.607   5.471 -1.5668 -2.2237  2.0518
  315MOL0     H42522  10.038   9.694   5.597 -0.6031  1.5950  2.9722
  315MOL0     H42523   9.820   9.993   5.374 -0.2242  1.0912  1.4316
  315MOL0     H42524   9.435   9.472   5.823 -0.3735 -3.4241  0.3064
  315MOL0     H42525   9.260   9.427   5.990 -1.1238  0.7823  2.7257
  316MOL0     O42526   7.820   8.418   2.908 -0.3139  0.3272  0.3227
  316MOL0     C42527   7.822   8.471   3.015  0.2892  0.4725  1.0136
  316MOL0     O42528   7.710   8.475   3.096 -0.7156 -0.6572 -0.0094
  316MOL0     C42529   7.590   8.442   3.046  0.9795 -0.3668  0.7689
  316MOL0     C42530   7.517   8.335   3.102  0.5289  0.3171 -1.1232
  316MOL0     C42531   7.394   8.298   3.055  0.2942  0.8737  0.4699
  316MOL0     C42532   7.327   8.364   2.958 -0.9203 -0.2562 -0.3079
  316MOL0     O42533   7.212   8.309   2.920  0.8252 -0.0042  0.1129
  316MOL0     C42534   7.117   8.385   2.847 -0.3190  0.1325  0.2232
  316MOL0     C42535   6.987   8.300   2.851 -0.1860 -0.1112  0.1274
  316MOL0     C42536   6.893   8.367   2.753 -0.2351  0.5155 -0.5099
  316MOL0     C42537   6.789   8.261   2.710  0.5318  0.1106 -0.3932
  316MOL0     C42538   6.703   8.313   2.594  0.3266 -0.8137  0.1661
  316MOL0     C42539   6.617   8.209   2.525 -0.6961  0.2052 -0.0906
  316MOL0     C42540   6.535   8.256   2.407  0.0600 -0.3946  0.2116
  316MOL0     C42541   6.613   8.304   2.279 -0.4036 -0.0412  0.6594
  316MOL0     N42542   6.516   8.334   2.170  0.1088 -0.4000  0.1213
  316MOL0     C42543   6.496   8.450   2.107  0.3247 -0.0836 -0.0178
  316MOL0     C42544   6.397   8.421   2.012  0.2340 -0.6210  1.0635
  316MOL0     C42545   6.343   8.524   1.922  0.0469  0.3461  0.4783
  316MOL0     C42546   6.249   8.614   2.003  0.0935 -0.9889 -0.4525
  316MOL0     C42547   6.109   8.544   2.024  0.1552  0.0887  0.3903
  316MOL0     C42548   6.005   8.646   2.076 -0.2797 -1.2690 -0.1067
  316MOL0     O42549   5.962   8.730   1.964  0.8014  0.1709  0.3140
  316MOL0     C42550   5.846   8.806   1.972 -0.0697 -0.5307  0.1601
  316MOL0     C42551   5.805   8.851   1.852 -0.4431 -0.4268  0.0259
  316MOL0     C42552   5.691   8.930   1.838  0.2609 -0.1070  0.6022
  316MOL0     C42553   5.669   8.961   1.690 -0.2834  0.0329  0.0914
  316MOL0     C42554   5.609   8.961   1.946 -0.6859  0.1209  0.5383
  316MOL0     C42555   5.474   9.011   1.938  0.0765 -0.5210  0.3346
  316MOL0     O42556   5.418   9.054   2.057  0.1854  0.0418 -0.5866
  316MOL0     C42557   5.290   9.100   2.059  0.0134  0.1486 -0.4737
  316MOL0     C42558   5.261   9.232   2.102  1.2746  0.3760 -0.9391
  316MOL0     C42559   5.126   9.283   2.107 -0.1924  0.1746 -0.0941
  316MOL0     C42560   5.023   9.204   2.056 -0.0543  0.5271 -1.0098
  316MOL0     O42561   4.889   9.245   2.046  0.7842 -0.5869  0.1034
  316MOL0     C42562   4.844   9.359   2.110 -0.1935 -1.0773 -0.5581
  316MOL0     C42563   4.700   9.397   2.055 -0.6769 -0.2212  0.3660
  316MOL0     C42564   4.584   9.301   2.096 -0.3864  0.6226  0.0529
  316MOL0     C42565   4.460   9.332   2.031  0.5819  0.3799  0.4341
  316MOL0     C42566   4.336   9.251   2.080 -0.9008  0.2916 -0.0743
  316MOL0     C42567   4.212   9.297   2.005 -0.4897  0.5415 -0.8211
  316MOL0     C42568   4.086   9.209   2.022  0.2457 -0.2360 -0.1278
  316MOL0     C42569   3.992   9.271   2.125 -0.1881 -0.1060  0.2390
  316MOL0    Cl42570   3.841   9.179   2.119  0.2813  0.0428  0.7138
  316MOL0     C42571   5.050   9.073   2.014 -0.1455 -0.3281  0.1439
  316MOL0     C42572   5.183   9.022   2.016 -0.7065 -0.4828 -0.0457
  316MOL0     O42573   5.419   9.024   1.828  0.3612  0.9472  0.1433
  316MOL0     C42574   5.661   8.935   2.071 -0.1687  0.9117  0.6183
  316MOL0     C42575   5.779   8.853   2.086  1.1481  0.2219 -0.3152
  316MOL0     N42576   6.364   8.286   2.017  0.4989  0.1182  0.1303
  316MOL0     N42577   6.439   8.230   2.114  0.0807  0.0392  0.2683
  316MOL0     C42578   7.388   8.479   2.896 -0.1472 -0.0869 -0.3552
  316MOL0     C42579   7.517   8.517   2.944 -0.7862  0.8417  0.2286
  316MOL0     C42580   7.953   8.522   3.065 -0.3170 -0.2166  0.6221
  316MOL0     C42581   7.969   8.601   3.182  0.4333  0.0866 -1.4433
  316MOL0     C42582   8.099   8.634   3.234  0.6377 -0.4962 -0.5852
  316MOL0     C42583   8.212   8.594   3.172  0.2159 -0.5068  0.0576
  316MOL0     O42584   8.339   8.636   3.218 -0.0701  0.1726  0.3838
  316MOL0     C42585   8.443   8.661   3.120 -0.6252 -0.0646  1.0322
  316MOL0     C42586   8.544   8.772   3.157  0.0158  0.4813 -0.1673
  316MOL0     C42587   8.504   8.918   3.145  0.2848 -0.2027 -0.7678
  316MOL0     C42588   8.371   8.963   3.200 -0.1530 -0.1808  0.5211
  316MOL0     C42589   8.370   9.109   3.177  0.2532 -0.0824  0.0267
  316MOL0     C42590   8.369   9.230   3.165  0.3902  0.2406 -0.2395
  316MOL0     C42591   8.198   8.531   3.045  1.1779 -0.2061 -0.3440
  316MOL0     C42592   8.071   8.499   2.991 -0.5620 -0.2053 -0.2907
  316MOL0     H42593   7.558   8.268   3.177  1.5488  1.0256 -1.0291
  316MOL0     H42594   7.342   8.217   3.105 -1.2203  0.0499 -2.2254
  316MOL0     H42595   7.094   8.480   2.896 -0.5461 -0.4197  1.2210
  316MOL0     H42596   7.148   8.411   2.745 -2.2000 -1.6922 -0.9040
  316MOL0     H42597   7.013   8.198   2.820 -0.7029 -0.3626  0.4990
  316MOL0     H42598   6.938   8.293   2.949 -0.2225 -1.3193  0.0377
  316MOL0     H42599   6.853   8.459   2.796 -0.4597  0.6403 -0.9792
  316MOL0     H42600   6.954   8.377   2.663  0.4529 -1.9975 -0.4008
  316MOL0     H42601   6.839   8.169   2.678  2.3176  0.9734 -0.2117
  316MOL0     H42602   6.730   8.240   2.800  0.8561  3.6280  0.7786
  316MOL0     H42603   6.638   8.392   2.635  1.7089 -0.1930  1.2432
  316MOL0     H42604   6.771   8.345   2.515  0.4204 -2.3708 -0.4284
  316MOL0     H42605   6.684   8.135   2.481  0.8216 -0.6157  3.3088
  316MOL0     H42606   6.551   8.158   2.596 -2.5117 -0.5726 -2.2009
  316MOL0     H42607   6.460   8.183   2.374 -0.7032  1.5548 -2.8420
  316MOL0     H42608   6.469   8.340   2.435  0.0551 -0.6427  0.9617
  316MOL0     H42609   6.682   8.228   2.239  0.7204  1.1945  0.1793
  316MOL0     H42610   6.675   8.391   2.301 -0.7488  1.1159 -2.4352
  316MOL0     H42611   6.544   8.547   2.120 -0.4335  0.4897 -1.2659
  316MOL0     H42612   6.422   8.593   1.890 -0.7638  1.4986  0.9056
  316MOL0     H42613   6.296   8.498   1.827  0.3195 -0.9363  0.6782
  316MOL0     H42614   6.237   8.704   1.942 -1.4948  0.2825  1.6014
  316MOL0     H42615   6.291   8.642   2.100  0.1575 -2.1363 -0.1367
  316MOL0     H42616   6.122   8.463   2.097 -0.4506 -2.4584 -2.1716
  316MOL0     H42617   6.070   8.503   1.931 -3.8243  1.3986  1.3185
  316MOL0     H42618   6.053   8.701   2.157 -0.4196  0.4843 -1.1592
  316MOL0     H42619   5.925   8.589   2.124 -0.3423 -2.7402 -1.8553
  316MOL0     H42620   5.864   8.820   1.766 -2.2694 -0.6484 -1.2116
  316MOL0     H42621   5.641   9.066   1.681  0.1666  0.1053 -0.6170
  316MOL0     H42622   5.766   8.953   1.641  1.8763  1.1527  3.8011
  316MOL0     H42623   5.586   8.912   1.638 -1.1335  0.8964  0.6140
  316MOL0     H42624   5.344   9.298   2.124  2.2149 -0.9099 -0.4812
  316MOL0     H42625   5.116   9.387   2.134  3.0614  0.4510  0.4466
  316MOL0     H42626   4.839   9.338   2.218  0.4431 -1.7983 -0.6614
  316MOL0     H42627   4.915   9.441   2.095  1.4034 -2.4107 -0.5684
  316MOL0     H42628   4.683   9.496   2.099  0.8917  0.4394 -0.4261
  316MOL0     H42629   4.711   9.415   1.947  2.8450 -1.2784  0.4160
  316MOL0     H42630   4.583   9.296   2.205  1.1848 -2.2272  0.0322
  316MOL0     H42631   4.606   9.198   2.067 -0.0083 -0.2932  3.2203
  316MOL0     H42632   4.438   9.438   2.039  0.6850  0.9239 -3.8868
  316MOL0     H42633   4.475   9.314   1.924  0.8920  1.8422  0.2159
  316MOL0     H42634   4.324   9.245   2.188  1.2229 -1.2170  0.1439
  316MOL0     H42635   4.354   9.147   2.049  2.2036  0.5713  0.4659
  316MOL0     H42636   4.197   9.398   2.044  1.6378  1.2062 -1.5659
  316MOL0     H42637   4.233   9.290   1.897  0.4947 -1.2739 -0.5411
  316MOL0     H42638   4.111   9.109   2.056  1.6601  0.3231  0.5617
  316MOL0     H42639   4.037   9.213   1.924  0.1431  0.5097 -0.0529
  316MOL0     H42640   3.970   9.373   2.091 -1.8904 -0.4317  0.3108
  316MOL0     H42641   4.032   9.274   2.227  0.1350  0.3519  0.1039
  316MOL0     H42642   4.965   9.025   1.967 -0.1706  0.7545 -0.9679
  316MOL0     H42643   5.200   8.926   1.969 -1.4669 -0.6505  0.0056
  316MOL0     H42644   5.613   8.980   2.158  0.6206  1.6083  0.7090
  316MOL0     H42645   5.827   8.828   2.180  1.6103  0.7874 -0.3969
  316MOL0     H42646   7.340   8.542   2.822  1.7702  0.6357 -1.0506
  316MOL0     H42647   7.561   8.603   2.893  1.0411  0.0896  0.4630
  316MOL0     H42648   7.880   8.632   3.234  1.7099  0.0642  0.8971
  316MOL0     H42649   8.103   8.694   3.325  1.2210  0.6885 -1.3728
  316MOL0     H42650   8.502   8.569   3.120  0.2866  0.3941  4.2245
  316MOL0     H42651   8.389   8.686   3.028  0.5629 -0.7085  0.1344
  316MOL0     H42652   8.627   8.763   3.087  1.6275 -1.7364  1.8709
  316MOL0     H42653   8.590   8.763   3.257 -2.2455 -2.9473  0.7131
  316MOL0     H42654   8.516   8.940   3.038  1.6666 -2.2888 -1.1048
  316MOL0     H42655   8.577   8.977   3.202  1.1967 -1.8460 -0.1517
  316MOL0     H42656   8.369   8.939   3.306 -0.6328 -2.0943  0.1271
  316MOL0     H42657   8.288   8.921   3.143 -1.4475  3.1027 -0.2281
  316MOL0     H42658   8.350   9.325   3.118  1.1444 -0.6895 -2.5162
  316MOL0     H42659   8.288   8.504   2.991  1.3613 -0.0251 -0.1325
  316MOL0     H42660   8.064   8.441   2.899  0.8764  0.7972 -1.0680
  317MOL0     O42661   8.771  10.414   8.536  0.0024  0.5676 -0.0530
  317MOL0     C42662   8.769  10.288   8.522  0.5748  0.5826  0.4657
  317MOL0     O42663   8.665  10.213   8.467 -0.0872  0.2260  0.0852
  317MOL0     C42664   8.540  10.265   8.449  0.2112  0.4771 -0.6853
  317MOL0     C42665   8.459  10.201   8.352 -0.3031  0.0404  0.6059
  317MOL0     C42666   8.341  10.256   8.313 -0.9174  0.6376 -0.5081
  317MOL0     C42667   8.278  10.356   8.376  0.5752  0.0013 -0.1059
  317MOL0     O42668   8.156  10.389   8.317  0.1268  0.7142 -0.2101
  317MOL0     C42669   8.071  10.479   8.390  0.4469  0.2520 -0.5079
  317MOL0     C42670   7.920  10.469   8.342 -0.6465 -0.2967 -0.9283
  317MOL0     C42671   7.916  10.482   8.197 -0.3475 -0.1230  0.4997
  317MOL0     C42672   7.778  10.513   8.133  0.4816  0.3387 -0.5725
  317MOL0     C42673   7.669  10.433   8.196 -0.0518 -0.2853  0.1485
  317MOL0     C42674   7.541  10.456   8.121  0.3990 -0.3740 -0.0716
  317MOL0     C42675   7.410  10.434   8.198 -1.0401  0.6545  0.0431
  317MOL0     C42676   7.284  10.510   8.138 -0.1961 -0.2968  0.1681
  317MOL0     N42677   7.215  10.422   8.045  0.0703  0.3250  0.3185
  317MOL0     C42678   7.122  10.322   8.070 -0.7264  0.1522 -0.0268
  317MOL0     C42679   7.081  10.287   7.939  0.6881 -0.8217 -0.3504
  317MOL0     C42680   6.972  10.189   7.890 -0.4761  0.8143  0.2800
  317MOL0     C42681   6.844  10.257   7.852 -0.5646 -0.9991 -0.0313
  317MOL0     C42682   6.774  10.319   7.980  0.2177  0.7167 -0.1912
  317MOL0     C42683   6.623  10.346   7.959 -0.0710 -0.8251  0.1526
  317MOL0     O42684   6.583  10.390   8.091  0.2403 -0.3768 -0.6766
  317MOL0     C42685   6.457  10.434   8.110 -0.6936 -0.0894 -0.1522
  317MOL0     C42686   6.363  10.446   8.003 -0.2699 -0.0794 -0.1785
  317MOL0     C42687   6.235  10.492   8.033 -0.0986 -0.4383  0.4411
  317MOL0     C42688   6.133  10.513   7.917  0.1113  0.0381  0.5997
  317MOL0     C42689   6.204  10.520   8.169 -0.0430  0.1462 -0.6295
  317MOL0     C42690   6.073  10.565   8.205  0.5207 -0.9445 -0.6194
  317MOL0     O42691   5.963  10.487   8.173 -0.7552 -0.1912 -0.5095
  317MOL0     C42692   5.837  10.524   8.205  0.0616  0.5009 -0.1027
  317MOL0     C42693   5.780  10.634   8.152 -0.1297 -0.4294 -0.3688
  317MOL0     C42694   5.650  10.673   8.187  1.0871  0.9224  0.7248
  317MOL0     C42695   5.572  10.592   8.278  0.8565 -0.3932 -0.6839
  317MOL0     O42696   5.437  10.612   8.308 -0.5839  0.0579  0.0177
  317MOL0     C42697   5.352  10.668   8.211 -0.5186  0.0187 -0.5349
  317MOL0     C42698   5.202  10.650   8.269  0.9304 -0.5005  0.2370
  317MOL0     C42699   5.154  10.748   8.371  0.3651  0.1630  0.2502
  317MOL0     C42700   5.032  10.689   8.450 -0.0079  0.0367  0.1061
  317MOL0     C42701   4.958  10.809   8.508 -0.2005  0.2009  0.3748
  317MOL0     C42702   4.820  10.767   8.561  0.1912 -0.5993  0.0399
  317MOL0     C42703   4.758  10.892   8.625 -0.0667  0.0175 -0.0380
  317MOL0     C42704   4.631  10.858   8.698 -0.5243  0.0124  0.0617
  317MOL0    Cl42705   4.660  10.760   8.846  0.3551  0.0895  0.0700
  317MOL0     C42706   5.630  10.480   8.329 -0.2765 -0.6699 -0.3151
  317MOL0     C42707   5.761  10.446   8.289 -0.1133 -0.2225  0.5550
  317MOL0     O42708   6.071  10.667   8.270  0.7124 -0.0678 -0.3903
  317MOL0     C42709   6.298  10.494   8.272 -0.0693 -0.8793  0.5522
  317MOL0     C42710   6.422  10.468   8.235 -0.3589  0.0307  0.1937
  317MOL0     N42711   7.139  10.377   7.853  0.1546  0.5311 -0.2733
  317MOL0     N42712   7.229  10.441   7.916  0.2514 -0.1769  0.0411
  317MOL0     C42713   8.352  10.429   8.472  0.1285 -0.0116 -0.1927
  317MOL0     C42714   8.483  10.381   8.511 -0.2525  0.2139 -0.0643
  317MOL0     C42715   8.890  10.206   8.562  1.1336 -0.3794 -0.6463
  317MOL0     C42716   8.987  10.261   8.649 -0.0581 -0.0825  0.5895
  317MOL0     C42717   9.095  10.183   8.685 -1.1624 -0.4457 -0.0661
  317MOL0     C42718   9.113  10.057   8.648 -0.1521  0.4867  0.0053
  317MOL0     O42719   9.229   9.987   8.688  0.3046 -0.1446 -0.4192
  317MOL0     C42720   9.240   9.849   8.672 -0.2145 -0.0029  0.1671
  317MOL0     C42721   9.372   9.785   8.701 -0.6765  0.5482  0.1651
  317MOL0     C42722   9.495   9.856   8.636  0.4273  0.3278 -0.7504
  317MOL0     C42723   9.621   9.793   8.699 -0.2133 -0.1107 -0.4273
  317MOL0     C42724   9.737   9.797   8.609 -0.0430 -0.9968  0.1598
  317MOL0     C42725   9.831   9.814   8.537  0.1242 -1.2215 -0.6403
  317MOL0     C42726   9.008   9.998   8.570 -0.0742  0.1289  0.3304
  317MOL0     C42727   8.898  10.072   8.530 -0.5840  0.1438  0.0045
  317MOL0     H42728   8.511  10.116   8.310  0.3011 -0.2763  1.9488
  317MOL0     H42729   8.302  10.207   8.225 -1.1803 -0.3458  0.1370
  317MOL0     H42730   8.066  10.453   8.496  0.1177  2.5800  0.1123
  317MOL0     H42731   8.103  10.583   8.379  2.0584 -0.2144 -0.5691
  317MOL0     H42732   7.879  10.373   8.375 -0.3759 -0.9052 -2.2669
  317MOL0     H42733   7.864  10.548   8.392 -0.4780  1.1057 -2.8517
  317MOL0     H42734   7.982  10.566   8.175 -0.5554  0.9621  3.5295
  317MOL0     H42735   7.951  10.386   8.159 -1.5936 -0.7865  0.9542
  317MOL0     H42736   7.756  10.619   8.145  4.4276  1.3539 -0.6989
  317MOL0     H42737   7.780  10.488   8.026 -1.0117 -2.2519 -0.0870
  317MOL0     H42738   7.691  10.327   8.188  0.4473 -0.2064  0.3974
  317MOL0     H42739   7.656  10.453   8.303 -1.1887 -3.2407  0.6585
  317MOL0     H42740   7.535  10.560   8.087  0.6865 -0.5914 -0.8047
  317MOL0     H42741   7.544  10.394   8.031 -2.0247 -0.8974  0.1385
  317MOL0     H42742   7.392  10.327   8.198 -1.1980  0.6769 -0.7012
  317MOL0     H42743   7.423  10.452   8.306  1.5497 -2.2894  0.3424
  317MOL0     H42744   7.320  10.599   8.086 -0.9544  0.1594  0.4057
  317MOL0     H42745   7.213  10.538   8.216 -0.8492 -1.6151  0.0868
  317MOL0     H42746   7.106  10.267   8.162  0.6427  1.2877  0.9398
  317MOL0     H42747   7.007  10.142   7.798 -3.2210 -1.3955  0.2119
  317MOL0     H42748   6.959  10.110   7.965 -0.3314  2.2363  1.8716
  317MOL0     H42749   6.775  10.182   7.813  0.7936 -2.1379 -0.2966
  317MOL0     H42750   6.871  10.335   7.781 -0.7747  0.9677  1.9292
  317MOL0     H42751   6.823  10.411   8.012 -0.6480  0.7255  1.2641
  317MOL0     H42752   6.785  10.244   8.059 -2.5048 -1.6562 -1.8442
  317MOL0     H42753   6.581  10.246   7.942  1.1312 -1.2590 -0.3815
  317MOL0     H42754   6.611  10.418   7.878 -0.2948  0.7782  1.5460
  317MOL0     H42755   6.392  10.418   7.903  2.4651  2.1232 -0.1072
  317MOL0     H42756   6.111  10.620   7.911 -0.6739 -0.0285  1.8552
  317MOL0     H42757   6.177  10.486   7.820 -0.6382 -1.4338  0.6336
  317MOL0     H42758   6.040  10.458   7.932  0.1680  0.0219  0.8994
  317MOL0     H42759   5.824  10.697   8.075  0.5372 -0.3055  0.1096
  317MOL0     H42760   5.608  10.764   8.145 -0.7649  0.4569  1.4765
  317MOL0     H42761   5.380  10.774   8.203  1.0271 -0.4288 -1.5917
  317MOL0     H42762   5.357  10.617   8.114  1.8862  2.4601 -1.8304
  317MOL0     H42763   5.135  10.645   8.182 -1.1717 -1.9012  1.8218
  317MOL0     H42764   5.195  10.550   8.314 -0.5085  0.3833  2.1370
  317MOL0     H42765   5.143  10.845   8.322  0.2733  0.9072  1.6996
  317MOL0     H42766   5.238  10.759   8.441  1.4897  1.8787 -1.2755
  317MOL0     H42767   4.965  10.624   8.393  1.5448 -0.4389 -1.2330
  317MOL0     H42768   5.075  10.625   8.527 -1.8205 -2.1590 -0.6090
  317MOL0     H42769   4.943  10.880   8.426 -1.2408 -0.8482 -0.3853
  317MOL0     H42770   5.018  10.858   8.585  4.0092 -0.1874 -2.2846
  317MOL0     H42771   4.761  10.720   8.482 -0.1090  2.3288 -1.6099
  317MOL0     H42772   4.828  10.685   8.634 -4.2975 -1.2273  0.1196
  317MOL0     H42773   4.743  10.974   8.554 -1.2517  0.4985  0.7257
  317MOL0     H42774   4.827  10.938   8.695  1.5184  0.4384 -1.7899
  317MOL0     H42775   4.574  10.794   8.629  0.9457 -0.1326 -1.0800
  317MOL0     H42776   4.575  10.949   8.724  0.3704 -0.2070  3.1453
  317MOL0     H42777   5.579  10.418   8.402 -0.0177 -0.0119  0.4347
  317MOL0     H42778   5.806  10.353   8.322 -0.4327 -0.1896  1.0991
  317MOL0     H42779   6.275  10.512   8.376 -1.9826  2.9162 -0.3573
  317MOL0     H42780   6.496  10.454   8.313 -0.0613 -0.5732 -0.1899
  317MOL0     H42781   8.308  10.510   8.530  1.7357  0.1233  0.9187
  317MOL0     H42782   8.530  10.438   8.590 -0.3082  1.2558 -0.7613
  317MOL0     H42783   8.969  10.360   8.689 -1.7252  0.5124 -1.4714
  317MOL0     H42784   9.169  10.221   8.756 -0.5813 -0.9716 -0.3811
  317MOL0     H42785   9.165   9.796   8.730  0.6808 -0.7692  0.6554
  317MOL0     H42786   9.216   9.823   8.569 -1.8663 -0.6171  0.6757
  317MOL0     H42787   9.360   9.686   8.657 -0.8084  1.1671 -1.2636
  317MOL0     H42788   9.396   9.776   8.807  1.2734 -1.4708 -0.3847
  317MOL0     H42789   9.498   9.962   8.664  2.7653 -0.0261  0.6078
  317MOL0     H42790   9.476   9.838   8.530  0.2325 -3.5937 -0.2065
  317MOL0     H42791   9.603   9.685   8.706 -0.3419  0.0200  3.0181
  317MOL0     H42792   9.638   9.826   8.801  1.9666  0.6606 -0.9799
  317MOL0     H42793   9.923   9.835   8.486 -0.1108  1.0293 -0.2302
  317MOL0     H42794   9.018   9.893   8.544  1.2113  0.7084 -1.7645
  317MOL0     H42795   8.817  10.016   8.484  0.4952 -1.4316 -0.0712
  318MOL0     O42796   4.214   5.340   4.409  0.1440 -0.3293  0.3610
  318MOL0     C42797   4.284   5.430   4.456 -0.4296  0.0024 -0.2756
  318MOL0     O42798   4.236   5.536   4.526  0.0113 -0.0856  0.7430
  318MOL0     C42799   4.100   5.558   4.546 -0.4091  0.0647  0.6568
  318MOL0     C42800   4.000   5.459   4.566  0.1628 -0.6684 -0.3091
  318MOL0     C42801   3.878   5.506   4.621 -0.1884 -0.7550 -0.2784
  318MOL0     C42802   3.841   5.640   4.639 -0.2435 -0.3958  1.0438
  318MOL0     O42803   3.715   5.691   4.677 -1.2224  0.4087 -0.6649
  318MOL0     C42804   3.594   5.617   4.717  0.3646 -0.8205 -0.3419
  318MOL0     C42805   3.485   5.715   4.746  1.1400 -0.1651 -0.6939
  318MOL0     C42806   3.356   5.660   4.813  0.2472  0.1475  0.1242
  318MOL0     C42807   3.285   5.556   4.733 -0.0786  0.0511 -0.5637
  318MOL0     C42808   3.178   5.475   4.808 -0.3848  0.5298  0.3265
  318MOL0     C42809   3.164   5.348   4.722 -0.6568 -0.3910 -0.6703
  318MOL0     C42810   3.057   5.254   4.783 -0.0495  1.2391 -0.0795
  318MOL0     C42811   2.940   5.323   4.851  0.9990  0.9684  0.1915
  318MOL0     N42812   2.842   5.233   4.906  0.0934  0.0597  0.1006
  318MOL0     C42813   2.715   5.220   4.860  0.1708  0.2940  1.0736
  318MOL0     C42814   2.658   5.144   4.950 -0.1375 -0.4280 -0.2301
  318MOL0     C42815   2.530   5.076   4.933 -0.4533  0.3831  0.0822
  318MOL0     C42816   2.419   5.168   4.890  0.2367  1.3080 -0.3136
  318MOL0     C42817   2.285   5.091   4.892  0.1148  0.8308  0.4665
  318MOL0     C42818   2.156   5.175   4.861 -0.8047 -0.0446  0.5330
  318MOL0     O42819   2.137   5.266   4.976 -0.0003  0.3888 -0.3296
  318MOL0     C42820   2.022   5.236   5.044 -0.6301 -1.3501  0.3478
  318MOL0     C42821   1.978   5.110   5.086 -0.8286 -0.4958  0.2368
  318MOL0     C42822   1.866   5.097   5.173 -0.2343  1.1166 -0.5689
  318MOL0     C42823   1.833   4.964   5.234 -0.2106  0.3968  0.1564
  318MOL0     C42824   1.787   5.213   5.208  0.6848  0.0117 -0.1745
  318MOL0     C42825   1.667   5.220   5.294  0.6377  0.0797  0.0201
  318MOL0     O42826   1.614   5.346   5.307 -1.2514  0.2398  0.0625
  318MOL0     C42827   1.526   5.376   5.406 -0.2638 -0.0655  0.5887
  318MOL0     C42828   1.562   5.367   5.542 -0.6636  0.1218 -0.4205
  318MOL0     C42829   1.456   5.382   5.637  0.8403 -0.1077 -0.6485
  318MOL0     C42830   1.330   5.408   5.603  0.8325 -0.3135  0.7268
  318MOL0     O42831   1.237   5.430   5.706 -0.5800 -0.2185  0.2555
  318MOL0     C42832   1.112   5.502   5.681  0.1588 -0.5282  0.1733
  318MOL0     C42833   1.021   5.413   5.601  0.7871  0.0337  0.7114
  318MOL0     C42834   0.881   5.414   5.655  0.0156  0.2875 -0.2132
  318MOL0     C42835   0.787   5.353   5.562 -0.2033 -0.0122 -0.8653
  318MOL0     C42836   0.665   5.302   5.635 -0.1096 -0.2388 -0.3806
  318MOL0     C42837   0.565   5.416   5.672 -0.7547  0.8847  0.1620
  318MOL0     C42838   0.428   5.363   5.708  1.0410 -0.7963 -0.1662
  318MOL0     C42839   0.334   5.473   5.760 -0.0954 -0.1720 -0.0155
  318MOL0    Cl42840   0.353   5.520   5.923 -0.0667  0.0274  0.0057
  318MOL0     C42841   1.302   5.418   5.466  0.3925 -1.3153 -0.5430
  318MOL0     C42842   1.398   5.404   5.368 -1.1836 -0.7205 -0.1823
  318MOL0     O42843   1.620   5.119   5.348  0.6952  0.7501  0.1070
  318MOL0     C42844   1.835   5.336   5.164 -0.4884 -0.2859 -0.3600
  318MOL0     C42845   1.944   5.341   5.082 -1.0951  0.7630 -0.3049
  318MOL0     N42846   2.739   5.123   5.055  0.1695  0.8287 -0.0826
  318MOL0     N42847   2.850   5.184   5.036  0.1974  0.1613  0.1089
  318MOL0     C42848   3.944   5.738   4.605 -0.6587  0.0510 -0.2721
  318MOL0     C42849   4.072   5.691   4.570 -0.2771  0.7334 -0.5519
  318MOL0     C42850   4.431   5.432   4.434  0.5395  0.4007  0.1886
  318MOL0     C42851   4.501   5.549   4.466 -0.2326 -0.2088  0.8592
  318MOL0     C42852   4.645   5.537   4.453  0.6636 -0.6820  0.1321
  318MOL0     C42853   4.714   5.428   4.393  0.0946 -0.3508 -0.9865
  318MOL0     O42854   4.857   5.425   4.400  0.4382 -0.2942 -0.3657
  318MOL0     C42855   4.928   5.296   4.366  0.6764  0.3889 -0.1592
  318MOL0     C42856   5.075   5.308   4.351 -0.4415 -0.8579 -0.3886
  318MOL0     C42857   5.120   5.389   4.228 -0.0525  0.3658 -0.3114
  318MOL0     C42858   5.273   5.369   4.194  0.8310  0.2501  0.0423
  318MOL0     C42859   5.356   5.399   4.311 -1.4748  0.5155  0.7289
  318MOL0     C42860   5.423   5.417   4.414  0.8091  0.1620  0.8839
  318MOL0     C42861   4.626   5.320   4.354 -0.2387 -0.1090 -0.1179
  318MOL0     C42862   4.493   5.316   4.384  0.2386  0.4851  0.1434
  318MOL0     H42863   4.019   5.353   4.561  0.0475 -1.0472  3.7902
  318MOL0     H42864   3.811   5.423   4.644  3.0198 -3.1151  1.3177
  318MOL0     H42865   3.565   5.535   4.650 -1.2160 -0.5772 -0.0028
  318MOL0     H42866   3.620   5.574   4.814  2.3340  0.8361 -0.0688
  318MOL0     H42867   3.533   5.787   4.813  1.5038 -2.5363  1.8031
  318MOL0     H42868   3.457   5.758   4.650  5.8402  2.6237 -1.1386
  318MOL0     H42869   3.401   5.611   4.900  4.4632  1.1299 -1.2663
  318MOL0     H42870   3.289   5.742   4.837  1.3095  0.2474  3.0965
  318MOL0     H42871   3.240   5.596   4.642  1.2875 -0.0468 -1.3159
  318MOL0     H42872   3.365   5.487   4.705 -1.2759 -0.6935 -2.2993
  318MOL0     H42873   3.220   5.439   4.902 -0.2567 -0.7881 -0.2132
  318MOL0     H42874   3.088   5.534   4.826 -0.9630  0.3521 -1.7726
  318MOL0     H42875   3.127   5.371   4.622 -3.9934  1.4746  0.8095
  318MOL0     H42876   3.255   5.287   4.716  0.1199  0.6607 -0.0913
  318MOL0     H42877   3.001   5.192   4.712  0.1417 -0.0064  0.8220
  318MOL0     H42878   3.113   5.193   4.854  2.3862  0.9025 -2.1593
  318MOL0     H42879   2.884   5.382   4.779 -1.1219 -0.1830  0.8113
  318MOL0     H42880   2.976   5.373   4.942  0.9735  0.3988  0.5225
  318MOL0     H42881   2.661   5.245   4.769 -4.3888  1.2208  3.7159
  318MOL0     H42882   2.558   5.005   4.854  2.5849  0.3270  1.0578
  318MOL0     H42883   2.506   5.024   5.026  0.7709 -0.0382  0.1868
  318MOL0     H42884   2.437   5.213   4.792  1.3309  0.0895 -0.7016
  318MOL0     H42885   2.412   5.244   4.968  4.1985  0.3013  1.2650
  318MOL0     H42886   2.278   5.060   4.997  1.0663 -0.7186  0.0959
  318MOL0     H42887   2.296   5.005   4.826 -1.4000  2.1480 -1.6343
  318MOL0     H42888   2.074   5.104   4.848  0.8035 -1.5663 -2.6363
  318MOL0     H42889   2.156   5.232   4.768  1.9948 -0.6703  0.0347
  318MOL0     H42890   2.048   5.029   5.064 -0.3803 -0.3939  1.2434
  318MOL0     H42891   1.730   4.941   5.206 -1.2283  1.4679  2.7615
  318MOL0     H42892   1.906   4.887   5.205 -2.2049 -1.7314  0.5192
  318MOL0     H42893   1.836   4.976   5.343 -3.0534 -0.9948  0.4701
  318MOL0     H42894   1.658   5.342   5.585  0.3563  1.9563 -1.5335
  318MOL0     H42895   1.484   5.380   5.742  1.3759 -2.9493 -0.7718
  318MOL0     H42896   1.059   5.539   5.769 -2.3126  3.3210 -2.6013
  318MOL0     H42897   1.137   5.595   5.630  1.0108  0.1666  1.7966
  318MOL0     H42898   1.007   5.451   5.500  1.1624  1.5977  1.2218
  318MOL0     H42899   1.056   5.310   5.588  0.5072  0.0280 -0.0573
  318MOL0     H42900   0.841   5.513   5.678 -0.0526 -0.3767  2.9737
  318MOL0     H42901   0.892   5.359   5.749 -0.4557  0.4200 -0.0761
  318MOL0     H42902   0.754   5.418   5.480 -2.1153 -0.3656 -0.4308
  318MOL0     H42903   0.841   5.268   5.519  0.8170 -0.6051  1.4770
  318MOL0     H42904   0.691   5.242   5.723 -0.4447 -2.7947 -1.9376
  318MOL0     H42905   0.613   5.236   5.565 -2.4267 -0.5976  1.5564
  318MOL0     H42906   0.618   5.466   5.754  0.0782 -2.2815  1.7035
  318MOL0     H42907   0.560   5.489   5.591  1.6156  1.0821  0.1092
  318MOL0     H42908   0.444   5.288   5.786  1.4099 -1.1675 -0.5909
  318MOL0     H42909   0.382   5.305   5.628  1.3973 -3.0527  1.1927
  318MOL0     H42910   0.232   5.435   5.750 -0.0258 -0.8059  1.4061
  318MOL0     H42911   0.333   5.555   5.687  0.8300 -1.3115 -1.3624
  318MOL0     H42912   1.205   5.453   5.433  0.4185  0.7802  1.3585
  318MOL0     H42913   1.374   5.398   5.262  2.8937 -0.4390 -1.2621
  318MOL0     H42914   1.786   5.430   5.188  0.5119 -0.2217  1.6003
  318MOL0     H42915   1.980   5.439   5.052 -0.5376  0.6359 -0.0685
  318MOL0     H42916   3.921   5.839   4.640 -1.6375 -1.0340  2.4900
  318MOL0     H42917   4.157   5.758   4.578 -0.1738  0.4761  0.7440
  318MOL0     H42918   4.463   5.642   4.506  1.5365  0.4692  1.0833
  318MOL0     H42919   4.708   5.621   4.480  0.4406 -0.1386 -0.9656
  318MOL0     H42920   4.897   5.227   4.445  1.0559  1.1705  0.6851
  318MOL0     H42921   4.881   5.254   4.276 -1.8850  0.8124  0.9003
  318MOL0     H42922   5.111   5.205   4.357  1.9167 -0.0016  2.8940
  318MOL0     H42923   5.112   5.350   4.445 -1.7948 -1.2320  0.3380
  318MOL0     H42924   5.103   5.496   4.244 -2.4570 -0.0194  0.0524
  318MOL0     H42925   5.056   5.368   4.142 -1.4221  0.7552  0.5963
  318MOL0     H42926   5.300   5.419   4.100  1.0712  0.4756  0.2284
  318MOL0     H42927   5.278   5.261   4.179 -1.1233  0.1196  0.1299
  318MOL0     H42928   5.488   5.433   4.497 -0.3150 -0.6178  1.9462
  318MOL0     H42929   4.672   5.241   4.296  2.4006  1.2329 -0.0003
  318MOL0     H42930   4.441   5.223   4.363  0.0822  0.4668  0.5868
  319MOL0     O42931   9.138   6.370   0.149 -0.2151 -0.2747 -0.4267
  319MOL0     C42932   9.113   6.492   0.157  0.2532  0.9979 -0.3069
  319MOL0     O42933   8.983   6.541   0.143  0.3234  0.0580 -0.1261
  319MOL0     C42934   8.873   6.462   0.168 -0.3555 -0.4890  0.3223
  319MOL0     C42935   8.793   6.490   0.278  1.3316 -0.5024  0.7117
  319MOL0     C42936   8.657   6.438   0.288  0.0583 -0.2656  0.0213
  319MOL0     C42937   8.605   6.349   0.199 -0.1857  0.7007 -0.0850
  319MOL0     O42938   8.482   6.290   0.181 -0.0433 -1.1140 -0.7093
  319MOL0     C42939   8.364   6.321   0.258 -0.6787 -0.5249 -0.6657
  319MOL0     C42940   8.271   6.206   0.215 -0.5627  0.0010 -0.1517
  319MOL0     C42941   8.158   6.198   0.322  0.0862  0.4480  0.7178
  319MOL0     C42942   8.069   6.086   0.278  0.2658  0.5531  0.6632
  319MOL0     C42943   7.946   6.068   0.374 -0.7469  0.5601 -0.3640
  319MOL0     C42944   7.889   5.933   0.339  0.4166 -0.1356 -1.2098
  319MOL0     C42945   7.767   5.910   0.424  1.3604 -0.1766 -0.2946
  319MOL0     C42946   7.716   5.764   0.387 -0.0837  0.7332 -0.4994
  319MOL0     N42947   7.591   5.728   0.464  0.1385 -0.2076  0.3958
  319MOL0     C42948   7.557   5.709   0.599  0.2663  0.2810 -0.6351
  319MOL0     C42949   7.430   5.678   0.598  0.9218 -0.6716  0.2098
  319MOL0     C42950   7.335   5.627   0.711 -1.3881  0.5311  1.3191
  319MOL0     C42951   7.263   5.743   0.786  0.0740  0.2305  0.3771
  319MOL0     C42952   7.167   5.814   0.684 -0.0397  0.2541  0.4483
  319MOL0     C42953   7.082   5.907   0.762  0.1485 -0.0905 -0.6227
  319MOL0     O42954   6.993   5.953   0.663 -0.5890  0.1283 -0.4721
  319MOL0     C42955   6.856   5.973   0.682 -0.1185  0.4207 -0.9222
  319MOL0     C42956   6.770   5.958   0.575 -0.1420 -0.1298 -1.0076
  319MOL0     C42957   6.628   5.978   0.585 -0.4349  0.1124 -0.4700
  319MOL0     C42958   6.545   5.983   0.459  0.8058 -0.0332  0.0676
  319MOL0     C42959   6.574   5.984   0.715  0.5543 -0.2809  0.1246
  319MOL0     C42960   6.430   5.999   0.749 -0.3930  0.0276 -0.6548
  319MOL0     O42961   6.343   6.029   0.653  0.1027 -0.0487  0.7836
  319MOL0     C42962   6.213   6.066   0.684 -0.0071  0.3122  0.7646
  319MOL0     C42963   6.127   5.967   0.744 -0.6381  1.0512 -0.1940
  319MOL0     C42964   5.998   6.002   0.779 -0.3308  0.3968 -0.3484
  319MOL0     C42965   5.941   6.126   0.744 -0.7266  0.2561 -0.1620
  319MOL0     O42966   5.811   6.169   0.771 -0.3293 -0.1106  0.9810
  319MOL0     C42967   5.724   6.070   0.840  0.4381  0.5132 -0.2692
  319MOL0     C42968   5.586   6.135   0.833  0.2514 -0.2920  0.1953
  319MOL0     C42969   5.474   6.041   0.886 -0.6440 -1.1681 -0.1004
  319MOL0     C42970   5.339   6.106   0.871 -0.6686 -0.6783  0.3415
  319MOL0     C42971   5.220   6.027   0.925  0.0896  0.5900 -0.2708
  319MOL0     C42972   5.185   5.894   0.851 -0.0982 -0.6136  0.8002
  319MOL0     C42973   5.059   5.814   0.907  0.4305 -0.4791 -0.2555
  319MOL0     C42974   4.950   5.886   0.987  0.4497 -0.4703  0.5219
  319MOL0    Cl42975   4.878   6.001   0.877  0.0794  0.0897  0.3116
  319MOL0     C42976   6.019   6.213   0.672  0.1286 -0.5613  0.8877
  319MOL0     C42977   6.157   6.185   0.643 -0.7092 -0.2308 -0.4901
  319MOL0     O42978   6.402   6.006   0.873 -0.0258 -0.1243  0.6299
  319MOL0     C42979   6.662   5.988   0.819 -0.0082 -0.1414 -0.3031
  319MOL0     C42980   6.802   5.985   0.810  0.5335  0.6041  0.4999
  319MOL0     N42981   7.383   5.701   0.472  0.3013  0.2076 -0.2799
  319MOL0     N42982   7.482   5.722   0.390 -0.9067  1.0139  1.0749
  319MOL0     C42983   8.694   6.304   0.094 -0.4066  0.2610  0.2505
  319MOL0     C42984   8.829   6.362   0.080 -0.3806 -0.2408  0.8639
  319MOL0     C42985   9.223   6.590   0.182  0.0646  0.7336  0.2158
  319MOL0     C42986   9.346   6.550   0.219 -0.5641  0.2072  0.1549
  319MOL0     C42987   9.449   6.635   0.253  0.3623 -0.4132  0.6760
  319MOL0     C42988   9.426   6.771   0.241 -0.0503 -0.3590 -0.0543
  319MOL0     O42989   9.518   6.861   0.280  0.0440 -0.2045 -0.8398
  319MOL0     C42990   9.603   6.901   0.169  0.8269  0.0291  0.5870
  319MOL0     C42991   9.743   6.925   0.235  0.5325  0.4525  0.0582
  319MOL0     C42992   9.826   7.011   0.130 -0.0049  0.9673  0.4815
  319MOL0     C42993   9.976   6.987   0.147 -1.4085 -0.2659 -0.5179
  319MOL0     C42994  10.011   7.038   0.282 -0.7775 -0.8363  0.3961
  319MOL0     C42995  10.041   7.091   0.388 -0.4275  0.4577  0.1643
  319MOL0     C42996   9.297   6.819   0.199 -0.4343 -0.4657 -0.6287
  319MOL0     C42997   9.194   6.731   0.162 -0.4985 -0.0722 -0.2244
  319MOL0     H42998   8.832   6.561   0.349  2.3770  1.5294 -1.7428
  319MOL0     H42999   8.596   6.471   0.371  0.4874  0.5296  0.0362
  319MOL0     H43000   8.400   6.320   0.361 -1.6612  0.2326 -0.2971
  319MOL0     H43001   8.327   6.421   0.236  4.0237  1.5555 -0.3329
  319MOL0     H43002   8.230   6.242   0.120  1.1963  0.9103 -0.6063
  319MOL0     H43003   8.303   6.106   0.185  0.1860  0.9851 -2.9640
  319MOL0     H43004   8.192   6.184   0.425  0.4107  0.2379  0.5838
  319MOL0     H43005   8.116   6.299   0.317  2.2228  1.3379 -1.7197
  319MOL0     H43006   8.027   6.100   0.178  0.1644  0.5829  0.7100
  319MOL0     H43007   8.123   5.991   0.280 -0.3766  0.1594 -0.3069
  319MOL0     H43008   7.972   6.073   0.480  0.7830  1.1234 -0.7493
  319MOL0     H43009   7.875   6.149   0.354 -1.4130 -0.2912 -1.6827
  319MOL0     H43010   7.855   5.934   0.235 -0.4504  1.6353 -0.9493
  319MOL0     H43011   7.966   5.858   0.356 -1.4914 -1.7164  1.2588
  319MOL0     H43012   7.793   5.918   0.530 -0.3168  4.1189  0.0127
  319MOL0     H43013   7.687   5.979   0.397  0.9923  1.6334  4.4691
  319MOL0     H43014   7.792   5.688   0.408 -1.4910 -0.3592  0.8825
  319MOL0     H43015   7.703   5.767   0.278  0.4408  2.3890 -0.5391
  319MOL0     H43016   7.628   5.710   0.682  0.6953  0.4174 -1.0012
  319MOL0     H43017   7.258   5.558   0.675 -0.3595  0.5234 -1.0470
  319MOL0     H43018   7.397   5.567   0.779 -2.4843 -2.8710 -0.4764
  319MOL0     H43019   7.340   5.812   0.823 -0.3497  2.4434 -2.4293
  319MOL0     H43020   7.209   5.704   0.873  0.6437 -0.2286  0.5260
  319MOL0     H43021   7.100   5.747   0.630  0.8549  1.9412 -3.0093
  319MOL0     H43022   7.225   5.865   0.607 -0.9477  0.4349 -0.1361
  319MOL0     H43023   7.139   5.986   0.811 -0.7852  0.6914 -0.7660
  319MOL0     H43024   7.022   5.858   0.839  1.0609  2.2979  1.7670
  319MOL0     H43025   6.826   5.945   0.483  0.2243 -0.8164 -0.6985
  319MOL0     H43026   6.460   5.916   0.446  0.9824 -0.3639  0.5720
  319MOL0     H43027   6.494   6.078   0.479 -0.8943 -1.1911  1.5351
  319MOL0     H43028   6.609   5.986   0.370  0.6523  3.7123 -0.0965
  319MOL0     H43029   6.152   5.863   0.761 -3.1318  0.3011 -0.6763
  319MOL0     H43030   5.942   5.926   0.832 -0.5410  0.2501 -0.7721
  319MOL0     H43031   5.722   5.974   0.787  1.6712 -0.4181  1.2878
  319MOL0     H43032   5.757   6.047   0.941  1.6992 -1.2451 -1.0244
  319MOL0     H43033   5.573   6.233   0.879  0.4317 -0.2920  0.2444
  319MOL0     H43034   5.562   6.135   0.726 -0.1535 -2.1594  0.2530
  319MOL0     H43035   5.486   6.038   0.995 -0.5641  3.3425  0.2269
  319MOL0     H43036   5.489   5.944   0.839  0.3462 -0.8201 -0.5134
  319MOL0     H43037   5.345   6.205   0.916 -2.6394 -1.5227  2.6795
  319MOL0     H43038   5.318   6.132   0.766 -0.1756  2.2093  0.8806
  319MOL0     H43039   5.128   6.085   0.910 -1.1688 -1.3505 -0.4370
  319MOL0     H43040   5.220   6.006   1.032  0.3015  0.7757 -0.2332
  319MOL0     H43041   5.167   5.904   0.743 -0.9869 -0.7503  0.9273
  319MOL0     H43042   5.275   5.832   0.855  1.8000  1.8612 -0.5760
  319MOL0     H43043   5.093   5.729   0.968  1.9200  0.1623 -0.1485
  319MOL0     H43044   5.005   5.778   0.819 -1.7119  0.7672  0.4933
  319MOL0     H43045   4.996   5.940   1.071 -2.1881  3.5163 -0.3096
  319MOL0     H43046   4.877   5.816   1.028  1.1979 -2.4403 -1.3363
  319MOL0     H43047   5.974   6.305   0.635  0.3595 -0.0048  1.9677
  319MOL0     H43048   6.207   6.273   0.603  1.6190 -1.3333 -0.1280
  319MOL0     H43049   6.635   5.985   0.924  0.2189  2.3127 -0.1262
  319MOL0     H43050   6.874   5.985   0.892  1.6618  1.8422 -0.4458
  319MOL0     H43051   8.663   6.228   0.023  2.9671  0.3640 -1.5269
  319MOL0     H43052   8.886   6.308   0.005 -0.7937 -1.8666  1.6700
  319MOL0     H43053   9.361   6.443   0.233  0.5109  0.0462 -1.8743
  319MOL0     H43054   9.543   6.594   0.290  1.3339  1.5274  0.4823
  319MOL0     H43055   9.605   6.836   0.081 -1.2110  0.9292 -0.2082
  319MOL0     H43056   9.572   6.992   0.116  1.9725 -1.0780 -2.1511
  319MOL0     H43057   9.795   6.835   0.269  2.0959  1.4873  0.5697
  319MOL0     H43058   9.735   6.991   0.322  0.6211 -0.5923  0.8832
  319MOL0     H43059   9.802   7.117   0.125 -1.6358  0.6686  1.1219
  319MOL0     H43060   9.809   6.968   0.030  1.7466  0.9671  0.1520
  319MOL0     H43061  10.032   7.045   0.073 -0.4373 -1.9290 -1.1371
  319MOL0     H43062   9.993   6.880   0.130 -1.2353 -0.6843  1.9211
  319MOL0     H43063  10.057   7.144   0.480 -0.1833  0.7959 -0.0751
  319MOL0     H43064   9.282   6.925   0.183  0.9885 -0.0830  0.4367
  319MOL0     H43065   9.098   6.774   0.139 -0.8336 -0.9143 -0.4559
  320MOL0     O43066   9.876   9.719   7.592 -0.0372 -0.2565 -0.7247
  320MOL0     C43067   9.838   9.752   7.474 -0.5961 -0.1550  0.9496
  320MOL0     O43068   9.710   9.783   7.435 -1.1786  0.5200 -0.1518
  320MOL0     C43069   9.607   9.773   7.524  0.0251 -0.0301  0.4814
  320MOL0     C43070   9.598   9.668   7.616  0.0613  0.5505 -0.0027
  320MOL0     C43071   9.490   9.650   7.700  0.1176 -1.0175 -0.3345
  320MOL0     C43072   9.380   9.737   7.687  0.8742  0.5292 -0.6287
  320MOL0     O43073   9.266   9.703   7.767  0.6376 -0.3977 -0.0823
  320MOL0     C43074   9.165   9.803   7.773 -0.1028  0.2992  1.2183
  320MOL0     C43075   9.054   9.794   7.659 -0.2032 -0.5245 -0.7630
  320MOL0     C43076   8.912   9.848   7.696 -0.8163 -0.1700 -0.2897
  320MOL0     C43077   8.815   9.814   7.582 -0.0350  0.4974  0.5920
  320MOL0     C43078   8.668   9.815   7.627 -0.2769  0.4428  0.0683
  320MOL0     C43079   8.635   9.702   7.713  0.2354 -0.0159  0.0111
  320MOL0     C43080   8.485   9.719   7.746  0.0452  0.6048 -0.9189
  320MOL0     C43081   8.409   9.591   7.748  0.8966  0.4671  0.0752
  320MOL0     N43082   8.263   9.630   7.764 -0.3395  0.2251  0.0608
  320MOL0     C43083   8.162   9.641   7.665 -0.2398  0.5297  0.9456
  320MOL0     C43084   8.054   9.666   7.739 -0.5632 -0.1952  0.3560
  320MOL0     C43085   7.917   9.696   7.692 -0.3475 -0.3207 -0.4445
  320MOL0     C43086   7.832   9.567   7.652  0.7423  0.2591  0.3800
  320MOL0     C43087   7.704   9.623   7.587 -0.1569 -0.3490  0.1996
  320MOL0     C43088   7.594   9.643   7.685 -0.6840  0.3345  0.2810
  320MOL0     O43089   7.477   9.682   7.617 -0.7843 -0.0970 -0.5102
  320MOL0     C43090   7.365   9.694   7.693  0.2747 -0.4013 -0.0806
  320MOL0     C43091   7.364   9.675   7.839 -0.8612  1.1295  0.3225
  320MOL0     C43092   7.239   9.686   7.895 -0.6085 -0.2775  0.2042
  320MOL0     C43093   7.241   9.653   8.044 -0.6048  0.5499 -0.1908
  320MOL0     C43094   7.124   9.721   7.828  1.1421 -0.1626  0.2005
  320MOL0     C43095   6.992   9.739   7.894  0.2390  0.7367 -0.5346
  320MOL0     O43096   6.925   9.855   7.865  0.4249 -0.6252 -0.5094
  320MOL0     C43097   6.802   9.879   7.922 -0.6809  0.5697 -0.2145
  320MOL0     C43098   6.700   9.919   7.844  0.2709 -0.3801  0.8309
  320MOL0     C43099   6.577   9.965   7.895  0.1668  0.0406 -0.5685
  320MOL0     C43100   6.558   9.972   8.038  0.4206  1.2022  0.4327
  320MOL0     O43101   6.443  10.009   8.101 -0.3148 -0.1719  0.5707
  320MOL0     C43102   6.332  10.042   8.025 -0.0265  0.4018 -0.4060
  320MOL0     C43103   6.218  10.075   8.125 -1.2708  0.5512  1.1175
  320MOL0     C43104   6.092  10.109   8.042 -0.2739 -0.0065 -0.3744
  320MOL0     C43105   5.969  10.088   8.137  0.8597 -0.8494  0.3225
  320MOL0     C43106   5.833  10.140   8.077 -0.4378  0.1430 -0.0263
  320MOL0     C43107   5.710  10.070   8.146 -0.5701 -0.8041 -0.3253
  320MOL0     C43108   5.575  10.116   8.089 -0.6584 -0.7666 -0.6446
  320MOL0     C43109   5.566  10.088   7.945 -0.9606  0.9573  0.2791
  320MOL0    Cl43110   5.398  10.123   7.888  0.2070  0.0625 -0.3333
  320MOL0     C43111   6.668   9.936   8.115  0.3612 -0.3110 -0.2735
  320MOL0     C43112   6.793   9.893   8.059  0.0675 -0.7664 -0.9755
  320MOL0     O43113   6.941   9.645   7.966 -0.9235  0.5509  0.5906
  320MOL0     C43114   7.125   9.748   7.693 -0.3323  0.5440 -0.1330
  320MOL0     C43115   7.250   9.735   7.621  0.0384  0.1740  0.7337
  320MOL0     N43116   8.091   9.663   7.878  0.3091 -0.1271 -0.0300
  320MOL0     N43117   8.217   9.647   7.889 -0.3396 -0.0398 -0.3796
  320MOL0     C43118   9.386   9.851   7.595  0.0454 -0.0256 -0.4727
  320MOL0     C43119   9.507   9.868   7.518  0.3096  0.0842 -0.4336
  320MOL0     C43120   9.942   9.764   7.376  0.0337 -0.4078 -0.6233
  320MOL0     C43121  10.078   9.775   7.419  0.2347  0.5509 -0.0003
  320MOL0     C43122  10.176   9.797   7.322 -0.0929 -0.7734  0.0998
  320MOL0     C43123  10.149   9.807   7.186  0.0832  0.0574 -0.2779
  320MOL0     O43124  10.252   9.822   7.094  0.9971  0.0677  0.4191
  320MOL0     C43125  10.226   9.814   6.950 -0.7284  0.7714  0.4751
  320MOL0     C43126  10.356   9.826   6.870  0.5483  0.3704  0.6169
  320MOL0     C43127  10.464   9.716   6.888  0.3785 -0.9207  0.1635
  320MOL0     C43128  10.535   9.717   7.019  0.7002  0.7623 -0.9049
  320MOL0     C43129  10.666   9.659   7.025  0.3307  0.2938  1.0055
  320MOL0     C43130  10.777   9.608   7.025  0.2488 -0.4572 -0.1355
  320MOL0     C43131  10.018   9.791   7.152  0.3943 -0.1144  0.3432
  320MOL0     C43132   9.914   9.773   7.237  1.1027 -0.0338 -0.3125
  320MOL0     H43133   9.665   9.584   7.620 -1.9633 -1.0678  2.3913
  320MOL0     H43134   9.483   9.570   7.772 -1.9256 -1.7644 -1.2837
  320MOL0     H43135   9.117   9.788   7.870 -3.1823 -1.6857 -0.4133
  320MOL0     H43136   9.219   9.897   7.788 -2.0683  1.2288  2.9229
  320MOL0     H43137   9.093   9.852   7.575  0.4137  0.6439  0.3052
  320MOL0     H43138   9.046   9.690   7.624 -1.7998  0.3064 -3.1738
  320MOL0     H43139   8.876   9.800   7.787  0.0186 -1.0718 -0.4202
  320MOL0     H43140   8.911   9.956   7.714  0.5347 -0.4144  1.5019
  320MOL0     H43141   8.821   9.894   7.508  2.0213 -2.5612 -2.8521
  320MOL0     H43142   8.844   9.712   7.557 -2.3612 -0.6714  2.2183
  320MOL0     H43143   8.639   9.904   7.684 -0.7374 -0.2834  0.9902
  320MOL0     H43144   8.607   9.805   7.537  1.3737 -2.7323 -0.8457
  320MOL0     H43145   8.654   9.614   7.651  1.8405  0.5883 -0.4281
  320MOL0     H43146   8.694   9.704   7.805  0.1282  0.8843  0.0697
  320MOL0     H43147   8.479   9.768   7.843 -1.5930 -0.1773 -0.5972
  320MOL0     H43148   8.436   9.787   7.676 -0.2180 -1.6622 -3.0879
  320MOL0     H43149   8.439   9.517   7.823  1.4031  1.1437  0.5505
  320MOL0     H43150   8.410   9.536   7.653 -4.1920 -2.5349  1.3602
  320MOL0     H43151   8.172   9.641   7.557 -1.7735  1.4460  0.7772
  320MOL0     H43152   7.863   9.753   7.768 -0.4135  0.8760 -1.3453
  320MOL0     H43153   7.927   9.753   7.599  1.6594  1.5677  0.8285
  320MOL0     H43154   7.807   9.498   7.732 -3.2307  1.3976  0.3500
  320MOL0     H43155   7.894   9.516   7.577  1.9393  2.6295 -0.3660
  320MOL0     H43156   7.676   9.553   7.507 -0.7608  1.6790 -1.4301
  320MOL0     H43157   7.716   9.722   7.543  0.2879  0.7743  2.7135
  320MOL0     H43158   7.623   9.711   7.765  1.8052 -1.8148  1.3753
  320MOL0     H43159   7.574   9.545   7.728 -2.5753  0.8787  0.6912
  320MOL0     H43160   7.444   9.638   7.902 -1.9814 -1.1295  0.5295
  320MOL0     H43161   7.328   9.705   8.086 -0.6452  0.2105  0.3164
  320MOL0     H43162   7.158   9.692   8.104 -1.4824  1.6527 -2.0356
  320MOL0     H43163   7.238   9.546   8.067 -1.2138  0.8303  1.1559
  320MOL0     H43164   6.713   9.922   7.736  1.8418 -2.2870  0.9074
  320MOL0     H43165   6.504   9.987   7.818  0.1570  0.9458 -0.3108
  320MOL0     H43166   6.363  10.127   7.964  2.6947  1.3974  2.1283
  320MOL0     H43167   6.310   9.962   7.953  2.7421 -1.1104  0.3060
  320MOL0     H43168   6.184   9.993   8.188 -2.2102 -0.1552 -0.2482
  320MOL0     H43169   6.248  10.162   8.184  3.2960 -0.9932  1.4339
  320MOL0     H43170   6.090  10.034   7.963  0.3346  0.6522 -1.0319
  320MOL0     H43171   6.103  10.213   8.008  0.1215  0.9340  2.3289
  320MOL0     H43172   5.959   9.980   8.145 -2.3563 -0.6961 -0.4724
  320MOL0     H43173   5.978  10.127   8.239  1.9700 -2.9251  1.0835
  320MOL0     H43174   5.840  10.117   7.971  2.6708  4.1731 -0.9415
  320MOL0     H43175   5.820  10.248   8.090 -1.5836 -0.0395  0.3988
  320MOL0     H43176   5.715   9.962   8.129 -1.2466 -0.9284  0.1980
  320MOL0     H43177   5.700  10.088   8.254 -1.2279  0.6938 -0.6147
  320MOL0     H43178   5.555  10.223   8.101  1.3055 -0.5647  1.3420
  320MOL0     H43179   5.496  10.065   8.145  1.0535 -0.0200  2.7513
  320MOL0     H43180   5.613   9.994   7.915 -0.6073  1.9177 -2.3863
  320MOL0     H43181   5.636  10.161   7.903 -0.2783  0.5377  0.6644
  320MOL0     H43182   6.640   9.956   8.218 -3.5968  0.3678 -1.3177
  320MOL0     H43183   6.877   9.885   8.128  0.9396  4.3143 -1.0654
  320MOL0     H43184   7.033   9.775   7.642 -2.1896 -1.9238  1.6509
  320MOL0     H43185   7.262   9.754   7.514  0.5880  1.0680  0.9400
  320MOL0     H43186   9.310   9.928   7.589  0.4024  0.2623 -1.5218
  320MOL0     H43187   9.510   9.952   7.449  0.9138  0.8101  0.4488
  320MOL0     H43188  10.104   9.772   7.525 -0.0447 -1.3345  0.0396
  320MOL0     H43189  10.280   9.794   7.354 -0.4300  1.7608  1.7036
  320MOL0     H43190  10.169   9.723   6.927  1.4913 -1.6426  3.6517
  320MOL0     H43191  10.161   9.896   6.919 -1.2322 -0.1552 -1.0148
  320MOL0     H43192  10.406   9.923   6.874  0.0530  0.6212  0.8356
  320MOL0     H43193  10.308   9.817   6.772  0.4618 -0.9038  0.7550
  320MOL0     H43194  10.540   9.733   6.811  0.9054 -3.5706 -0.0047
  320MOL0     H43195  10.416   9.619   6.870 -4.1392  0.9694  0.7542
  320MOL0     H43196  10.470   9.662   7.088 -1.5140  2.1914 -1.7865
  320MOL0     H43197  10.540   9.821   7.053  0.0750  0.5379 -0.1001
  320MOL0     H43198  10.865   9.548   7.028  0.8577  0.4562  1.3280
  320MOL0     H43199   9.996   9.783   7.046  2.6715 -0.6620 -0.1524
  320MOL0     H43200   9.809   9.773   7.210  1.1749 -1.4584 -0.6567
  321MOL0     O43201   2.558   1.173   9.437 -0.3968 -0.3227 -0.0490
  321MOL0     C43202   2.568   1.055   9.405 -0.5757  0.3873  0.2713
  321MOL0     O43203   2.484   0.953   9.445 -0.2576  0.5374 -0.0433
  321MOL0     C43204   2.386   0.993   9.541  0.1971 -0.3451 -0.3300
  321MOL0     C43205   2.413   1.008   9.671 -0.7203 -0.7118 -0.0149
  321MOL0     C43206   2.320   1.049   9.763  1.1475  0.0906 -0.0440
  321MOL0     C43207   2.198   1.089   9.714 -1.3619 -0.0541 -0.2335
  321MOL0     O43208   2.100   1.111   9.803 -0.0304 -0.3246 -0.3467
  321MOL0     C43209   1.961   1.106   9.753 -0.6922 -0.0951 -0.1429
  321MOL0     C43210   1.882   1.100   9.882 -0.0679  1.1370  0.3599
  321MOL0     C43211   1.737   1.118   9.839  0.4893  0.6947 -0.4093
  321MOL0     C43212   1.647   1.130   9.960 -0.3072  0.4999 -0.5671
  321MOL0     C43213   1.499   1.138   9.915  0.9515 -0.1935 -0.1395
  321MOL0     C43214   1.398   1.125  10.025 -0.3287 -0.3660 -0.5628
  321MOL0     C43215   1.260   1.181   9.984  0.1738 -0.7291 -0.6825
  321MOL0     C43216   1.185   1.077   9.894 -0.0882  0.2341  1.2379
  321MOL0     N43217   1.036   1.105   9.898  0.0160 -0.2356 -0.0107
  321MOL0     C43218   1.000   1.232   9.876 -0.8290 -1.1461 -0.1019
  321MOL0     C43219   0.869   1.236   9.901  0.4441 -0.1386 -0.0576
  321MOL0     C43220   0.779   1.351   9.867 -0.4075  0.5812 -0.2076
  321MOL0     C43221   0.635   1.309   9.828 -0.2728 -0.0548  0.4830
  321MOL0     C43222   0.551   1.438   9.806 -0.1757  0.6342 -0.1843
  321MOL0     C43223   0.404   1.410   9.796 -0.1724  0.0120  0.4907
  321MOL0     O43224   0.345   1.533   9.744  0.0015  0.0315 -0.2358
  321MOL0     C43225   0.206   1.546   9.737 -0.3040  0.6109  1.2511
  321MOL0     C43226   0.118   1.443   9.683 -0.0908 -0.4339  0.2406
  321MOL0     C43227  -0.023   1.464   9.670  0.1548 -0.1565 -0.0342
  321MOL0     C43228  -0.094   1.349   9.618  0.9062  0.5516  0.4390
  321MOL0     C43229  -0.069   1.592   9.715 -0.5152  0.9560  0.3661
  321MOL0     C43230  -0.217   1.620   9.706  0.0751 -0.2071  0.4800
  321MOL0     O43231  -0.278   1.686   9.808 -0.2778 -0.7091 -0.2458
  321MOL0     C43232  -0.418   1.708   9.829 -0.6540 -0.4894  0.1136
  321MOL0     C43233  -0.522   1.694   9.737 -0.1504  0.4107 -0.0159
  321MOL0     C43234  -0.653   1.721   9.774 -0.2912  0.3574 -0.6428
  321MOL0     C43235  -0.693   1.749   9.902 -0.2658  0.2469  0.4233
  321MOL0     O43236  -0.832   1.764   9.920 -0.0450  0.5118  0.1498
  321MOL0     C43237  -0.881   1.763  10.057  0.5175  0.2910 -0.6824
  321MOL0     C43238  -1.033   1.749  10.016  0.4402 -0.9804  0.4754
  321MOL0     C43239  -1.121   1.795  10.136 -0.1861 -0.3427 -0.6274
  321MOL0     C43240  -1.260   1.822  10.079 -0.3092  0.1813  1.0853
  321MOL0     C43241  -1.367   1.847  10.197 -0.5721 -0.1008  0.5835
  321MOL0     C43242  -1.511   1.850  10.152  0.9323 -1.1037  0.4061
  321MOL0     C43243  -1.603   1.912  10.265  0.2227  0.2376 -0.5555
  321MOL0     C43244  -1.758   1.896  10.223  0.0577 -0.2031 -0.3102
  321MOL0    Cl43245  -1.869   1.962  10.345  0.0878 -0.1947 -0.1833
  321MOL0     C43246  -0.597   1.751  10.005  0.0477  0.0322  0.4012
  321MOL0     C43247  -0.461   1.722   9.966 -0.1191 -0.0850  0.4683
  321MOL0     O43248  -0.276   1.586   9.599  0.3635 -0.0768 -1.0151
  321MOL0     C43249   0.019   1.686   9.766 -0.8621 -0.5976  0.5076
  321MOL0     C43250   0.152   1.666   9.773  0.4731 -0.3302 -1.1913
  321MOL0     N43251   0.829   1.110   9.949  0.0211 -0.2914  0.3262
  321MOL0     N43252   0.933   1.032   9.942 -0.2860  0.4335 -0.1514
  321MOL0     C43253   2.169   1.087   9.577  0.5640 -0.0973 -0.7864
  321MOL0     C43254   2.262   1.035   9.492 -0.7560  0.3529 -0.2433
  321MOL0     C43255   2.681   1.031   9.312  0.3528  0.6213  0.0427
  321MOL0     C43256   2.686   0.911   9.230 -0.1828 -0.5097 -0.2315
  321MOL0     C43257   2.800   0.878   9.157  0.3624 -0.0196 -0.6744
  321MOL0     C43258   2.905   0.966   9.143  0.0700  0.0615 -0.8449
  321MOL0     O43259   3.026   0.947   9.079 -0.2079  0.3863 -0.3522
  321MOL0     C43260   3.098   0.825   9.139  0.2190 -0.3407 -0.0066
  321MOL0     C43261   3.231   0.875   9.203 -0.7845  0.1291 -0.1764
  321MOL0     C43262   3.288   0.773   9.304 -0.3802  0.8350  1.5109
  321MOL0     C43263   3.320   0.641   9.231  0.3587 -0.1948  0.1403
  321MOL0     C43264   3.450   0.595   9.274  0.2519 -0.4970 -0.6971
  321MOL0     C43265   3.560   0.577   9.314 -0.0541 -0.1168  0.1662
  321MOL0     C43266   2.891   1.088   9.210 -0.1583  0.1526 -0.3254
  321MOL0     C43267   2.785   1.127   9.292  0.4702 -0.4651  0.2602
  321MOL0     H43268   2.508   0.993   9.722 -1.1763  1.0266  1.4489
  321MOL0     H43269   2.337   1.056   9.870  3.3395  0.1764 -0.3400
  321MOL0     H43270   1.938   1.190   9.686  0.2479 -1.4675 -2.3022
  321MOL0     H43271   1.948   1.011   9.700 -1.8404 -0.1237  0.1628
  321MOL0     H43272   1.908   1.005   9.929 -1.9828  0.8612  0.9130
  321MOL0     H43273   1.910   1.190   9.939 -2.4631  1.1328  1.6651
  321MOL0     H43274   1.733   1.207   9.775  1.0766 -0.8874 -2.7455
  321MOL0     H43275   1.703   1.028   9.787  2.1313 -0.2616  0.1371
  321MOL0     H43276   1.642   1.034  10.014 -1.5495  0.9595  0.1768
  321MOL0     H43277   1.683   1.219  10.012  2.7110 -0.2581 -1.1733
  321MOL0     H43278   1.480   1.236   9.872 -1.5480 -1.5700 -2.5046
  321MOL0     H43279   1.474   1.067   9.836  2.1521 -1.4723  0.5812
  321MOL0     H43280   1.384   1.020  10.051 -0.2066 -0.7063 -1.7995
  321MOL0     H43281   1.430   1.177  10.116  1.6064 -1.6926 -0.4435
  321MOL0     H43282   1.200   1.193  10.075 -0.9469  0.7314 -1.5677
  321MOL0     H43283   1.267   1.278   9.934  2.1417 -0.6581 -0.3747
  321MOL0     H43284   1.194   0.969   9.909 -2.2682 -0.1721 -0.0588
  321MOL0     H43285   1.208   1.100   9.790  1.4070  1.0073  1.7058
  321MOL0     H43286   1.058   1.311   9.830 -3.8552  0.6966 -1.0742
  321MOL0     H43287   0.784   1.420   9.952  1.6298  2.1178 -1.4886
  321MOL0     H43288   0.831   1.403   9.787 -1.0190  1.3335 -0.1306
  321MOL0     H43289   0.577   1.260   9.907 -0.0705  0.4447  0.9508
  321MOL0     H43290   0.643   1.252   9.735  1.9809  3.9857 -2.1696
  321MOL0     H43291   0.584   1.480   9.711  2.0399 -1.5885 -0.4623
  321MOL0     H43292   0.571   1.507   9.889  0.5193 -0.1636  0.3154
  321MOL0     H43293   0.360   1.379   9.892  0.4641 -0.0647  0.7639
  321MOL0     H43294   0.380   1.334   9.721 -1.7796  0.2252  0.7350
  321MOL0     H43295   0.166   1.354   9.643 -0.0288  1.0040 -3.3445
  321MOL0     H43296  -0.053   1.255   9.657 -2.5407 -1.7271 -0.9201
  321MOL0     H43297  -0.198   1.356   9.652  0.2717  0.8259 -1.4796
  321MOL0     H43298  -0.084   1.355   9.510  1.6106 -0.3161  0.4448
  321MOL0     H43299  -0.510   1.649   9.639 -0.2942  2.5645 -1.0940
  321MOL0     H43300  -0.733   1.702   9.702  0.1422  0.4307 -1.1519
  321MOL0     H43301  -0.852   1.676  10.116 -2.7181  0.8396  2.0647
  321MOL0     H43302  -0.863   1.849  10.122 -0.6018 -1.8553  2.7053
  321MOL0     H43303  -1.055   1.811   9.929 -1.4499 -0.7248  1.0854
  321MOL0     H43304  -1.047   1.645   9.986  2.4891 -0.7778 -1.4757
  321MOL0     H43305  -1.086   1.884  10.189  1.0615  0.2256 -2.3216
  321MOL0     H43306  -1.124   1.714  10.210  2.7671 -0.7547 -0.8643
  321MOL0     H43307  -1.263   1.919  10.028 -1.2814  0.0982  0.9565
  321MOL0     H43308  -1.284   1.736  10.016 -3.4344  0.9318  1.0550
  321MOL0     H43309  -1.341   1.949  10.227 -0.8917  0.9808 -2.4773
  321MOL0     H43310  -1.359   1.781  10.284  0.4847  1.2187  1.5454
  321MOL0     H43311  -1.520   1.910  10.061 -0.3112 -0.5601  0.8634
  321MOL0     H43312  -1.536   1.745  10.139  0.9891 -0.9967 -0.5764
  321MOL0     H43313  -1.557   2.011  10.259  0.8497 -0.1457 -4.6707
  321MOL0     H43314  -1.576   1.863  10.359  2.4869  0.7418 -0.8848
  321MOL0     H43315  -1.789   1.792  10.212 -0.0261 -0.0969 -1.0978
  321MOL0     H43316  -1.778   1.949  10.130 -0.7195  0.6599  0.3277
  321MOL0     H43317  -0.618   1.774  10.109 -0.2468 -1.3456  0.6675
  321MOL0     H43318  -0.388   1.730  10.046  0.1129  0.4710  0.2087
  321MOL0     H43319  -0.021   1.779   9.805 -1.0127 -1.8840  3.7519
  321MOL0     H43320   0.223   1.741   9.806 -1.5834  1.2570 -0.1028
  321MOL0     H43321   2.079   1.124   9.529  1.2491  2.7224 -0.0651
  321MOL0     H43322   2.247   1.040   9.385  1.9173  1.0104 -0.6750
  321MOL0     H43323   2.602   0.842   9.234 -1.6194  0.8292 -3.4173
  321MOL0     H43324   2.800   0.782   9.105  0.5838 -1.3321  1.6230
  321MOL0     H43325   3.036   0.782   9.218 -0.8674  0.5912 -0.3247
  321MOL0     H43326   3.118   0.740   9.073 -1.4078 -0.2251 -0.7062
  321MOL0     H43327   3.192   0.959   9.262 -0.1240 -0.5505  1.2962
  321MOL0     H43328   3.296   0.908   9.122 -1.8259 -1.0250 -1.5371
  321MOL0     H43329   3.216   0.753   9.383 -1.7883  0.0545  0.0962
  321MOL0     H43330   3.380   0.815   9.346 -0.0889 -1.5111  3.4359
  321MOL0     H43331   3.321   0.654   9.122  1.6876 -0.8422  0.0604
  321MOL0     H43332   3.253   0.561   9.264  0.7042 -0.9524 -0.9302
  321MOL0     H43333   3.665   0.571   9.330  0.3591  0.5500 -1.9824
  321MOL0     H43334   2.977   1.153   9.198  0.3344 -0.4067  0.1140
  321MOL0     H43335   2.775   1.217   9.351  1.0820 -0.6788  0.7013
  322MOL0     O43336  11.115  11.149   6.737  0.6138  0.5042 -0.3857
  322MOL0     C43337  11.222  11.136   6.672 -0.0311  0.0224 -0.8631
  322MOL0     O43338  11.281  11.242   6.599 -0.5237 -0.6524 -0.9307
  322MOL0     C43339  11.216  11.364   6.607 -1.2739  0.3240 -0.1743
  322MOL0     C43340  11.271  11.454   6.693  0.0808 -0.4959 -0.3386
  322MOL0     C43341  11.207  11.580   6.705  0.4084 -0.4703 -0.0582
  322MOL0     C43342  11.095  11.614   6.626  0.3234 -0.4639 -0.3522
  322MOL0     O43343  11.043  11.741   6.627  0.9584 -0.0396 -0.0302
  322MOL0     C43344  11.011  11.800   6.753  0.3473  0.1114  0.7902
  322MOL0     C43345  10.913  11.919   6.716  0.6703  0.6473 -0.3378
  322MOL0     C43346  10.945  12.036   6.799  0.2993  1.2077  0.4385
  322MOL0     C43347  10.816  12.126   6.794 -0.2126 -0.2937 -0.1016
  322MOL0     C43348  10.842  12.274   6.834  0.1917  0.6685 -0.5261
  322MOL0     C43349  10.726  12.365   6.787  0.1606 -0.7308  0.3169
  322MOL0     C43350  10.614  12.381   6.894 -0.0701 -0.0582 -0.0614
  322MOL0     C43351  10.489  12.456   6.832 -0.5103  0.2344 -0.4002
  322MOL0     N43352  10.403  12.507   6.930  0.7261 -0.5296 -0.2443
  322MOL0     C43353  10.295  12.449   6.984  0.6427  0.5479  0.2849
  322MOL0     C43354  10.251  12.537   7.077  0.6068 -0.0161  0.6589
  322MOL0     C43355  10.131  12.529   7.163  0.9253  0.4730  0.7473
  322MOL0     C43356   9.999  12.490   7.091 -0.0627  0.6850 -0.3849
  322MOL0     C43357   9.886  12.543   7.177  0.0966  0.8531 -0.2583
  322MOL0     C43358   9.752  12.517   7.115  0.4624 -0.4249  0.6886
  322MOL0     O43359   9.644  12.521   7.204  0.7080  0.5230 -0.1473
  322MOL0     C43360   9.518  12.472   7.168 -0.3304 -1.0653 -0.3487
  322MOL0     C43361   9.464  12.476   7.043 -0.5573 -0.0398 -0.3324
  322MOL0     C43362   9.334  12.415   7.006 -0.5598 -0.8027  0.4832
  322MOL0     C43363   9.279  12.424   6.866 -0.2028 -0.4702  0.0952
  322MOL0     C43364   9.262  12.358   7.112 -0.3476  0.4482 -0.3153
  322MOL0     C43365   9.124  12.305   7.093  0.9224 -0.9802  0.7240
  322MOL0     O43366   9.098  12.205   7.179 -0.0931  0.2088  0.8124
  322MOL0     C43367   8.983  12.123   7.175  0.5999  0.1823  0.2769
  322MOL0     C43368   8.870  12.143   7.094 -0.2680  0.1188  0.1878
  322MOL0     C43369   8.764  12.055   7.091 -0.8052 -0.3154 -0.4142
  322MOL0     C43370   8.766  11.946   7.182 -0.3409 -0.4110  0.4722
  322MOL0     O43371   8.659  11.851   7.198  0.4496 -0.1898 -0.1592
  322MOL0     C43372   8.544  11.865   7.112  0.5240 -0.4305  0.1425
  322MOL0     C43373   8.453  11.745   7.136 -0.1764  0.6551 -0.5112
  322MOL0     C43374   8.329  11.740   7.041  0.3307  0.3523  0.5031
  322MOL0     C43375   8.202  11.815   7.083 -0.3682 -0.1349  0.2186
  322MOL0     C43376   8.122  11.738   7.186 -0.0573 -0.2640 -0.1090
  322MOL0     C43377   8.022  11.811   7.267  0.6282 -0.1434  0.5380
  322MOL0     C43378   7.889  11.835   7.180 -0.4158  0.0316  0.2725
  322MOL0     C43379   7.783  11.910   7.262  0.2085 -0.5575 -0.4134
  322MOL0    Cl43380   7.622  11.887   7.207  0.3883 -0.1817 -0.0511
  322MOL0     C43381   8.876  11.940   7.268  0.0289  0.0924 -0.3604
  322MOL0     C43382   8.984  12.020   7.264 -0.4865 -0.7093  0.2894
  322MOL0     O43383   9.046  12.365   7.016  0.1933  0.2343  0.6436
  322MOL0     C43384   9.320  12.353   7.240 -0.5612  0.2159 -0.0822
  322MOL0     C43385   9.445  12.410   7.267  0.2905 -0.9389  0.0523
  322MOL0     N43386  10.339  12.634   7.089 -0.2443  0.2439 -0.3793
  322MOL0     N43387  10.432  12.616   7.003  0.1116  0.2502 -1.3589
  322MOL0     C43388  11.038  11.512   6.549 -0.2049  0.2929  0.6207
  322MOL0     C43389  11.096  11.391   6.533 -0.0882 -0.4817  0.5190
  322MOL0     C43390  11.284  10.999   6.658  0.2975  0.5586 -0.4165
  322MOL0     C43391  11.392  10.977   6.570  0.8687  0.5788  0.7117
  322MOL0     C43392  11.449  10.852   6.560 -0.1140  0.0179  0.3597
  322MOL0     C43393  11.409  10.746   6.633  0.8243 -0.5741  0.4331
  322MOL0     O43394  11.478  10.635   6.609  0.0854 -0.2401 -0.4966
  322MOL0     C43395  11.477  10.536   6.720  0.0422 -0.7907  0.2417
  322MOL0     C43396  11.362  10.442   6.699 -0.2815 -0.4362  1.4376
  322MOL0     C43397  11.347  10.390   6.560 -0.2123  0.2346  0.0772
  322MOL0     C43398  11.235  10.291   6.539 -0.4168  0.1332 -1.0061
  322MOL0     C43399  11.109  10.362   6.524 -0.2636 -0.4273 -0.6289
  322MOL0     C43400  11.010  10.431   6.513 -0.8373  0.3494  0.3353
  322MOL0     C43401  11.297  10.763   6.720  0.4655 -1.1988 -0.1421
  322MOL0     C43402  11.238  10.892   6.734  0.5743  0.8216 -0.0762
  322MOL0     H43403  11.363  11.436   6.747 -0.7549  0.5543  1.5057
  322MOL0     H43404  11.243  11.656   6.774 -0.4406  0.0663 -0.1913
  322MOL0     H43405  10.947  11.742   6.820  0.0869  2.0936  2.3322
  322MOL0     H43406  11.108  11.824   6.797 -0.4753  3.2672  1.1122
  322MOL0     H43407  10.908  11.947   6.611 -2.2783  1.1620 -0.1232
  322MOL0     H43408  10.811  11.882   6.732  0.4792  0.7481 -1.2806
  322MOL0     H43409  10.966  12.005   6.901  5.5078  0.8778 -0.4834
  322MOL0     H43410  11.029  12.094   6.761 -1.6700  3.6904 -0.4477
  322MOL0     H43411  10.765  12.131   6.697 -2.2844  2.0281  1.0314
  322MOL0     H43412  10.737  12.077   6.851 -3.6801  0.3890 -3.8402
  322MOL0     H43413  10.841  12.269   6.944 -3.2810  3.2747 -0.2658
  322MOL0     H43414  10.929  12.329   6.797  1.0438  2.3014  3.3489
  322MOL0     H43415  10.771  12.463   6.768 -1.2525  0.1356  1.3243
  322MOL0     H43416  10.687  12.336   6.689 -0.1749  2.9700 -0.8059
  322MOL0     H43417  10.587  12.279   6.921 -0.6347 -0.7901 -3.0398
  322MOL0     H43418  10.643  12.430   6.987  1.5125  0.3168 -0.7063
  322MOL0     H43419  10.425  12.387   6.775 -1.8612  0.4565  0.7872
  322MOL0     H43420  10.526  12.528   6.759 -0.9987  0.7401 -0.1520
  322MOL0     H43421  10.242  12.364   6.942 -2.5874  2.0094  1.1111
  322MOL0     H43422  10.148  12.458   7.245  1.5326  1.4604  1.5027
  322MOL0     H43423  10.106  12.627   7.205 -0.3356 -0.3144  1.9173
  322MOL0     H43424   9.992  12.381   7.088 -0.5537  0.7157 -0.3842
  322MOL0     H43425   9.996  12.525   6.987  4.1153  0.0338 -0.8892
  322MOL0     H43426   9.899  12.650   7.196 -1.9595  1.2211 -0.6980
  322MOL0     H43427   9.875  12.489   7.272  0.8075  0.5058 -0.3612
  322MOL0     H43428   9.757  12.417   7.072  4.1060  0.1391 -0.6309
  322MOL0     H43429   9.738  12.580   7.026  0.4946 -0.5854  0.5694
  322MOL0     H43430   9.516  12.540   6.972 -1.4967  2.0478  0.7502
  322MOL0     H43431   9.207  12.506   6.853 -0.6595 -1.1063 -1.6531
  322MOL0     H43432   9.362  12.454   6.802 -0.9725 -2.0767 -1.7252
  322MOL0     H43433   9.248  12.328   6.824 -1.9373 -0.1485  0.5470
  322MOL0     H43434   8.866  12.208   7.007  1.0292  2.0701  1.4986
  322MOL0     H43435   8.674  12.074   7.034 -0.9773 -0.4451 -0.1816
  322MOL0     H43436   8.492  11.952   7.152 -0.3085 -0.6222 -0.5118
  322MOL0     H43437   8.567  11.872   7.006  0.7917  0.2965  0.2480
  322MOL0     H43438   8.510  11.654   7.117  0.8219  1.6559 -2.5448
  322MOL0     H43439   8.426  11.746   7.242  2.3002 -1.2230  0.2244
  322MOL0     H43440   8.301  11.634   7.047  2.0765 -0.2122 -0.7133
  322MOL0     H43441   8.361  11.765   6.939  1.5189  0.7683  0.9644
  322MOL0     H43442   8.243  11.909   7.120  0.7938 -0.9176  1.0092
  322MOL0     H43443   8.141  11.841   6.996  1.2796 -1.8315 -1.5417
  322MOL0     H43444   8.192  11.687   7.253  1.2774  0.2116 -1.0874
  322MOL0     H43445   8.069  11.655   7.140 -3.0414 -1.9782  5.5075
  322MOL0     H43446   7.997  11.757   7.359 -1.6243 -0.1747 -0.0312
  322MOL0     H43447   8.067  11.908   7.290  1.8785 -0.8636  1.2265
  322MOL0     H43448   7.852  11.737   7.149 -0.1363  0.1853 -0.5764
  322MOL0     H43449   7.920  11.889   7.090  0.2364  0.5362  0.7806
  322MOL0     H43450   7.812  12.015   7.272 -0.2396 -0.6357  2.5668
  322MOL0     H43451   7.779  11.879   7.366 -0.2633 -0.3014 -0.3510
  322MOL0     H43452   8.872  11.856   7.337  0.5313 -0.6420 -1.2033
  322MOL0     H43453   9.075  11.992   7.316  1.1150  0.3761 -1.7953
  322MOL0     H43454   9.260  12.320   7.324 -0.0707  1.7510  0.9062
  322MOL0     H43455   9.487  12.411   7.367  0.1754  0.8914  0.1034
  322MOL0     H43456  10.946  11.521   6.492  1.9673  1.3954 -3.0972
  322MOL0     H43457  11.048  11.316   6.470 -1.9337  1.0845 -0.0246
  322MOL0     H43458  11.429  11.063   6.515  1.4165 -1.1743 -1.8561
  322MOL0     H43459  11.536  10.835   6.498  0.5237  2.9725  0.3342
  322MOL0     H43460  11.567  10.474   6.709  0.9041  0.4668 -0.0556
  322MOL0     H43461  11.480  10.575   6.822  0.5448 -1.2862  0.4214
  322MOL0     H43462  11.268  10.485   6.735  0.2384  0.8961  1.2891
  322MOL0     H43463  11.380  10.352   6.758 -0.0709 -0.9510  0.6132
  322MOL0     H43464  11.444  10.351   6.530 -0.4692 -1.1654  0.9994
  322MOL0     H43465  11.335  10.478   6.495  3.4255 -0.2616 -1.5071
  322MOL0     H43466  11.228  10.219   6.621 -2.2251 -0.2501 -1.4461
  322MOL0     H43467  11.262  10.238   6.447  1.9001 -1.0839  0.2775
  322MOL0     H43468  10.931  10.500   6.492 -1.4042 -0.5317 -0.5536
  322MOL0     H43469  11.261  10.681   6.782 -0.9075 -0.4595  0.0631
  322MOL0     H43470  11.162  10.910   6.810 -1.0814  0.0714 -1.4835
  323MOL0     O43471   7.116   3.209   3.373  0.2526 -0.8364  0.1964
  323MOL0     C43472   7.176   3.129   3.443 -0.4704  0.0999  0.2903
  323MOL0     O43473   7.127   3.033   3.522  0.2648  0.5902 -0.1440
  323MOL0     C43474   7.003   2.971   3.506  0.0398 -0.1963 -0.0297
  323MOL0     C43475   6.888   3.040   3.468 -0.0839  0.3720  0.4173
  323MOL0     C43476   6.771   2.975   3.448  0.8521  0.6308 -0.2446
  323MOL0     C43477   6.771   2.833   3.446  0.3879 -0.5346  0.3775
  323MOL0     O43478   6.659   2.753   3.421  0.0131  0.5616  0.2318
  323MOL0     C43479   6.540   2.822   3.407  1.0838  0.2371 -0.5217
  323MOL0     C43480   6.425   2.718   3.404 -0.2325  0.2140  0.7818
  323MOL0     C43481   6.285   2.768   3.425 -0.3787  0.3466 -0.1597
  323MOL0     C43482   6.190   2.653   3.465 -0.9192  0.0818  0.2241
  323MOL0     C43483   6.055   2.704   3.488  0.0437  0.3418 -1.1244
  323MOL0     C43484   5.967   2.577   3.501 -0.2198 -0.1163  0.2296
  323MOL0     C43485   5.814   2.617   3.476 -1.1106 -0.8715 -0.3662
  323MOL0     C43486   5.719   2.511   3.508 -0.4906 -0.4139 -0.4496
  323MOL0     N43487   5.574   2.550   3.497  0.3063  0.3515  0.0188
  323MOL0     C43488   5.482   2.499   3.404 -0.0631 -0.5603  0.3255
  323MOL0     C43489   5.364   2.538   3.438 -0.3484 -0.0389  0.0070
  323MOL0     C43490   5.230   2.493   3.385 -0.0083 -0.0270 -0.0899
  323MOL0     C43491   5.108   2.570   3.451 -0.4215  1.0602  0.5880
  323MOL0     C43492   4.975   2.550   3.381 -0.1759 -0.2737 -0.4976
  323MOL0     C43493   4.931   2.409   3.383  0.1701 -0.4311  0.8104
  323MOL0     O43494   4.815   2.396   3.314  0.2635  1.5215  0.0309
  323MOL0     C43495   4.703   2.417   3.389  0.1733 -0.4761  0.2747
  323MOL0     C43496   4.654   2.330   3.487 -0.2897 -1.0901 -0.5903
  323MOL0     C43497   4.540   2.347   3.555 -0.5187  0.2281  0.1569
  323MOL0     C43498   4.495   2.238   3.640  0.4625 -0.3537  0.9401
  323MOL0     C43499   4.470   2.473   3.536 -1.0917  0.1745 -0.4634
  323MOL0     C43500   4.326   2.510   3.580 -0.4984  0.8338  0.0779
  323MOL0     O43501   4.286   2.640   3.615  0.0875  0.0532  0.3990
  323MOL0     C43502   4.159   2.665   3.616  1.0041  0.0815  0.0597
  323MOL0     C43503   4.068   2.635   3.722  0.2281 -1.4017  0.3308
  323MOL0     C43504   3.932   2.665   3.716 -0.3661  0.0499  0.0850
  323MOL0     C43505   3.884   2.728   3.597  0.4408  0.4030 -0.2206
  323MOL0     O43506   3.755   2.767   3.575  0.0460 -0.3618 -0.2026
  323MOL0     C43507   3.668   2.771   3.692 -0.8105  0.1674 -0.0574
  323MOL0     C43508   3.521   2.819   3.660 -0.1471 -0.6968  0.4569
  323MOL0     C43509   3.401   2.760   3.731  0.4946 -0.3811  0.2147
  323MOL0     C43510   3.277   2.804   3.642  0.5147 -0.0013  0.1208
  323MOL0     C43511   3.146   2.772   3.706 -0.1688  1.3176  0.0827
  323MOL0     C43512   3.048   2.767   3.596  0.1815  0.4016 -0.1253
  323MOL0     C43513   2.909   2.743   3.660 -0.7543 -0.6084 -0.2818
  323MOL0     C43514   2.793   2.742   3.567  0.3412  0.3598 -0.3927
  323MOL0    Cl43515   2.809   2.599   3.458  0.8945 -0.6378  0.1874
  323MOL0     C43516   3.973   2.754   3.494  0.0357 -0.3136 -0.6451
  323MOL0     C43517   4.107   2.713   3.497 -0.6836 -0.2157 -0.0872
  323MOL0     O43518   4.250   2.413   3.580  0.5222 -0.5601  0.8148
  323MOL0     C43519   4.530   2.569   3.444 -0.2686 -0.0566 -0.3080
  323MOL0     C43520   4.633   2.530   3.364  0.7120 -0.5910 -0.1498
  323MOL0     N43521   5.380   2.616   3.555  0.9805  0.0957 -0.8274
  323MOL0     N43522   5.507   2.624   3.587  0.7904  0.3262  0.6505
  323MOL0     C43523   6.872   2.762   3.495 -0.8104  0.5910  0.3005
  323MOL0     C43524   6.991   2.830   3.524 -0.5035 -0.4707 -0.9096
  323MOL0     C43525   7.318   3.158   3.462 -0.7041  0.4290 -0.0244
  323MOL0     C43526   7.402   3.061   3.520 -0.1828 -0.7305 -0.6246
  323MOL0     C43527   7.541   3.095   3.543  0.6733 -0.1756 -0.5472
  323MOL0     C43528   7.600   3.213   3.511 -1.1221  0.0370  0.5039
  323MOL0     O43529   7.730   3.225   3.530 -0.2652 -0.6386 -0.2881
  323MOL0     C43530   7.802   3.347   3.512 -0.2728 -0.3016  0.3867
  323MOL0     C43531   7.775   3.466   3.607 -0.3849  0.0134  0.9511
  323MOL0     C43532   7.804   3.446   3.763  0.3056 -0.0041 -0.3478
  323MOL0     C43533   7.858   3.575   3.821 -0.0820  0.0960 -0.7680
  323MOL0     C43534   7.775   3.694   3.804 -0.1929 -0.4696  0.0219
  323MOL0     C43535   7.707   3.797   3.789  0.0842  0.3686 -0.6397
  323MOL0     C43536   7.513   3.307   3.447 -0.9488  0.2304  0.8308
  323MOL0     C43537   7.378   3.274   3.422 -0.4611  0.2617  0.4721
  323MOL0     H43538   6.886   3.148   3.454 -0.0426  0.2978 -0.2263
  323MOL0     H43539   6.684   3.036   3.424  0.3328  0.9623  2.2286
  323MOL0     H43540   6.519   2.887   3.493 -1.6427  1.2022 -1.8189
  323MOL0     H43541   6.543   2.883   3.317 -1.1831  0.5416 -0.4545
  323MOL0     H43542   6.420   2.679   3.302 -3.2054  1.1705  0.4568
  323MOL0     H43543   6.454   2.648   3.483  1.9865  2.5097  2.1520
  323MOL0     H43544   6.291   2.844   3.504  0.6740 -0.1398  0.2531
  323MOL0     H43545   6.256   2.829   3.339 -1.5977 -2.2853 -1.7240
  323MOL0     H43546   6.184   2.585   3.380 -1.1127  0.3711  0.0033
  323MOL0     H43547   6.229   2.602   3.553  0.1823  0.8939  0.2290
  323MOL0     H43548   6.051   2.766   3.578  1.3991  1.9376 -2.1126
  323MOL0     H43549   6.022   2.761   3.401  0.6911 -1.6898 -2.7631
  323MOL0     H43550   5.998   2.500   3.430 -0.8998 -1.2962  1.1683
  323MOL0     H43551   5.976   2.531   3.600 -1.6205 -0.5793  0.1643
  323MOL0     H43552   5.790   2.711   3.526  4.2316  0.0239  1.0728
  323MOL0     H43553   5.802   2.634   3.369  5.1322  3.8450 -0.8751
  323MOL0     H43554   5.737   2.503   3.616 -1.8656  2.9915  0.1746
  323MOL0     H43555   5.753   2.423   3.453  0.4359  0.7107 -1.7269
  323MOL0     H43556   5.514   2.440   3.319 -1.2352  0.9678 -1.2447
  323MOL0     H43557   5.211   2.512   3.279 -2.2785  2.5765  0.6589
  323MOL0     H43558   5.225   2.385   3.402  1.9349  0.2412  2.9847
  323MOL0     H43559   5.127   2.678   3.451 -0.0889  1.0096  1.1543
  323MOL0     H43560   5.095   2.534   3.554 -2.7362  1.0640  0.3362
  323MOL0     H43561   4.988   2.579   3.277  0.3796 -0.2956 -0.4385
  323MOL0     H43562   4.897   2.606   3.434 -1.2548 -2.0862 -0.0930
  323MOL0     H43563   4.924   2.380   3.488  2.1358  1.7234  1.6210
  323MOL0     H43564   5.014   2.350   3.343  1.1155 -0.1968  2.3496
  323MOL0     H43565   4.709   2.237   3.499 -1.0591 -1.3513  1.2059
  323MOL0     H43566   4.407   2.273   3.695  0.0848  2.3241 -1.1718
  323MOL0     H43567   4.468   2.165   3.562 -2.1682  0.8909  0.5671
  323MOL0     H43568   4.581   2.210   3.701  1.6045 -2.2401 -1.3668
  323MOL0     H43569   4.109   2.591   3.813  0.2683  0.4914  1.2782
  323MOL0     H43570   3.871   2.628   3.798  1.9090 -1.1512  1.3421
  323MOL0     H43571   3.658   2.675   3.743  0.2403  0.3958  0.5987
  323MOL0     H43572   3.705   2.843   3.765 -1.0386 -0.3881  0.6243
  323MOL0     H43573   3.520   2.927   3.676 -0.2370 -0.7937  1.1706
  323MOL0     H43574   3.514   2.796   3.553  0.2510 -2.2825  0.7369
  323MOL0     H43575   3.406   2.814   3.826  0.9513  0.5840 -0.3427
  323MOL0     H43576   3.397   2.652   3.748 -2.5805 -0.6053 -1.3006
  323MOL0     H43577   3.297   2.910   3.627  0.7723  0.3916  2.8205
  323MOL0     H43578   3.280   2.746   3.549 -1.6895  0.6928 -0.4405
  323MOL0     H43579   3.121   2.836   3.792  1.8818  0.8413  1.1015
  323MOL0     H43580   3.145   2.670   3.747  0.8359  1.6950  1.1155
  323MOL0     H43581   3.051   2.871   3.562  0.4658  0.5350  0.2924
  323MOL0     H43582   3.060   2.691   3.518  0.9450 -0.8701  1.1731
  323MOL0     H43583   2.898   2.821   3.736 -0.1649 -0.5954 -0.2057
  323MOL0     H43584   2.909   2.647   3.711 -1.1326 -1.1883 -1.3332
  323MOL0     H43585   2.782   2.836   3.512  2.4109  0.9429  0.1260
  323MOL0     H43586   2.695   2.742   3.615 -1.0806 -1.7377 -2.9867
  323MOL0     H43587   3.932   2.813   3.412 -0.7978  2.7563  1.7820
  323MOL0     H43588   4.178   2.731   3.417 -1.1988  2.7231  0.0093
  323MOL0     H43589   4.469   2.657   3.424 -1.3359 -1.0461 -1.5938
  323MOL0     H43590   4.676   2.595   3.288  1.2888  0.2169  0.8576
  323MOL0     H43591   6.881   2.656   3.519  3.2004  1.0196  1.5402
  323MOL0     H43592   7.077   2.778   3.563  0.3696  2.0044  0.7386
  323MOL0     H43593   7.360   2.964   3.541  0.3320 -0.9367 -0.5233
  323MOL0     H43594   7.600   3.027   3.604 -2.2919 -0.3393  2.4757
  323MOL0     H43595   7.906   3.336   3.542 -0.2968 -0.3178  0.4634
  323MOL0     H43596   7.800   3.380   3.407  0.3075 -0.0634  0.4498
  323MOL0     H43597   7.671   3.500   3.597  0.4420  2.1986 -1.0150
  323MOL0     H43598   7.841   3.545   3.569  0.3204 -0.9914  0.0137
  323MOL0     H43599   7.893   3.383   3.764 -0.5730 -1.4182 -2.6770
  323MOL0     H43600   7.720   3.405   3.820 -0.1202 -1.1161 -1.7216
  323MOL0     H43601   7.950   3.600   3.767  1.3862  0.6037  1.7673
  323MOL0     H43602   7.877   3.565   3.929 -0.2959 -0.7118 -0.8009
  323MOL0     H43603   7.649   3.886   3.776 -2.1636 -1.3045 -3.1090
  323MOL0     H43604   7.556   3.393   3.396 -1.1811 -1.0944 -1.7802
  323MOL0     H43605   7.333   3.355   3.364 -0.8971 -0.5375 -0.3402
  324MOL0     O43606  10.652   4.923   7.861  0.3356  0.0071  0.4609
  324MOL0     C43607  10.721   5.017   7.901 -0.0307  0.2135 -0.2496
  324MOL0     O43608  10.675   5.137   7.931 -0.8583  0.3610 -0.1901
  324MOL0     C43609  10.539   5.169   7.937 -0.3005 -0.1444  1.5125
  324MOL0     C43610  10.479   5.224   8.048  0.1810  0.5312  0.0441
  324MOL0     C43611  10.348   5.269   8.040  1.5511  0.7808 -0.7641
  324MOL0     C43612  10.279   5.277   7.923 -0.5216  0.2666  0.5669
  324MOL0     O43613  10.158   5.337   7.922  0.2231 -0.2191  0.1392
  324MOL0     C43614  10.095   5.374   7.797  0.1905 -0.6103  0.4779
  324MOL0     C43615   9.940   5.374   7.822 -0.1910 -0.0533 -0.5789
  324MOL0     C43616   9.864   5.491   7.752 -0.8347  0.3833  0.0792
  324MOL0     C43617   9.914   5.631   7.796 -0.3808 -0.2221 -0.0571
  324MOL0     C43618   9.968   5.723   7.686 -0.2323 -0.5069  0.0071
  324MOL0     C43619  10.038   5.846   7.740 -0.1305 -0.8766  0.7164
  324MOL0     C43620  10.107   5.926   7.620  0.1578  0.0306 -0.0275
  324MOL0     C43621  10.091   6.078   7.641  0.1037  0.1301 -0.1801
  324MOL0     N43622   9.981   6.123   7.557  0.2103 -0.5031 -0.1507
  324MOL0     C43623   9.849   6.065   7.540  0.5745 -0.7706  0.3301
  324MOL0     C43624   9.785   6.157   7.460 -0.9441 -0.2993  0.2808
  324MOL0     C43625   9.658   6.126   7.376 -0.3212  0.7122  0.5108
  324MOL0     C43626   9.549   6.229   7.394  0.1082 -0.8422 -0.2472
  324MOL0     C43627   9.414   6.176   7.339 -0.3718  0.3988  0.3118
  324MOL0     C43628   9.313   6.288   7.304 -1.0433  0.2562 -0.8936
  324MOL0     O43629   9.188   6.221   7.288  0.2493 -0.0601 -0.7757
  324MOL0     C43630   9.073   6.293   7.274 -1.4317  1.1365  0.1493
  324MOL0     C43631   8.955   6.215   7.238 -0.2851  0.1545 -0.1522
  324MOL0     C43632   8.838   6.285   7.206  0.2463  0.6556 -0.2111
  324MOL0     C43633   8.716   6.199   7.177  0.1016  0.0756 -0.0917
  324MOL0     C43634   8.834   6.423   7.191  0.1301 -0.3076  0.1325
  324MOL0     C43635   8.715   6.499   7.141  0.8660 -0.4081 -0.5372
  324MOL0     O43636   8.642   6.445   7.038 -0.5614  0.3223  0.0471
  324MOL0     C43637   8.521   6.497   6.995 -0.6745 -0.8360 -0.8247
  324MOL0     C43638   8.435   6.569   7.068  0.2522  0.3356 -0.1794
  324MOL0     C43639   8.321   6.623   7.019 -0.0658  1.0131  0.4823
  324MOL0     C43640   8.277   6.590   6.888 -0.1362 -0.3342 -0.7402
  324MOL0     O43641   8.150   6.633   6.846  0.5649 -0.3831  0.0499
  324MOL0     C43642   8.130   6.648   6.706 -0.0764 -0.1884 -0.3143
  324MOL0     C43643   8.000   6.719   6.698 -0.4460  0.4166  0.9893
  324MOL0     C43644   7.961   6.753   6.552  0.7455  0.3468 -0.4547
  324MOL0     C43645   8.033   6.880   6.501  0.2036 -0.3811  0.4008
  324MOL0     C43646   8.040   6.891   6.344 -0.7604  0.3049  0.2481
  324MOL0     C43647   8.123   6.775   6.285 -0.3925 -0.4230 -0.3216
  324MOL0     C43648   8.200   6.823   6.160 -0.2985  0.2677  0.0736
  324MOL0     C43649   8.291   6.705   6.114  0.6250 -0.0057  0.3028
  324MOL0    Cl43650   8.189   6.567   6.054  0.6639 -0.1967  0.3504
  324MOL0     C43651   8.361   6.505   6.806 -0.5495 -0.4733 -0.0172
  324MOL0     C43652   8.482   6.460   6.862  0.2252 -0.4730  0.0862
  324MOL0     O43653   8.698   6.611   7.187 -0.1946 -0.2029 -0.0912
  324MOL0     C43654   8.954   6.492   7.222  0.7039 -1.0475 -0.0833
  324MOL0     C43655   9.071   6.429   7.260  0.1547  0.3954 -0.6569
  324MOL0     N43656   9.874   6.257   7.435 -0.7635 -0.6424 -0.4016
  324MOL0     N43657   9.992   6.237   7.485  0.2447  0.4191  0.2735
  324MOL0     C43658  10.338   5.221   7.805  0.3660 -0.2581 -0.4258
  324MOL0     C43659  10.472   5.169   7.810  0.1408  0.2953 -0.4112
  324MOL0     C43660  10.874   5.006   7.908 -0.0552  0.9369  0.4833
  324MOL0     C43661  10.958   5.094   7.981  0.5743 -0.4656 -0.1304
  324MOL0     C43662  11.086   5.063   8.008  0.0519  0.2105  0.1775
  324MOL0     C43663  11.147   4.951   7.945 -0.2630  0.4767  0.3681
  324MOL0     O43664  11.277   4.910   7.966  1.0112 -0.1815  0.4774
  324MOL0     C43665  11.367   4.998   8.026  0.5055  0.6085 -0.6487
  324MOL0     C43666  11.492   4.959   7.959 -0.3471  0.4414  0.6072
  324MOL0     C43667  11.618   5.006   8.041 -0.5574 -0.9930 -0.7208
  324MOL0     C43668  11.739   4.955   7.967  0.3681  0.4077 -1.4545
  324MOL0     C43669  11.852   4.997   8.046  0.6239 -1.0048 -0.3041
  324MOL0     C43670  11.931   5.025   8.132  0.3053 -1.0061 -0.0898
  324MOL0     C43671  11.073   4.867   7.865 -0.5185  0.2579  0.8252
  324MOL0     C43672  10.938   4.894   7.847  0.1410 -0.4269 -0.0969
  324MOL0     H43673  10.541   5.235   8.137  1.9133  1.0262 -1.1838
  324MOL0     H43674  10.283   5.293   8.124  0.4932 -0.1595 -1.2872
  324MOL0     H43675  10.137   5.472   7.771 -0.9953 -0.0024  0.7806
  324MOL0     H43676  10.111   5.303   7.716  1.5297 -0.2723  0.4241
  324MOL0     H43677   9.893   5.282   7.788  1.0887 -0.7726 -0.4691
  324MOL0     H43678   9.922   5.373   7.930 -1.8887 -1.1750 -0.8316
  324MOL0     H43679   9.874   5.465   7.646 -0.1324 -0.0919  0.2549
  324MOL0     H43680   9.756   5.487   7.773 -1.3504  1.8448 -1.9571
  324MOL0     H43681   9.838   5.676   7.861  0.0413 -1.7103  1.5461
  324MOL0     H43682   9.995   5.618   7.868  1.4355  3.1706 -1.3166
  324MOL0     H43683  10.036   5.662   7.627 -1.2726  0.1886 -1.9892
  324MOL0     H43684   9.891   5.745   7.611  1.4564 -3.3871 -2.8084
  324MOL0     H43685   9.957   5.906   7.784 -0.6895 -1.2310  0.1823
  324MOL0     H43686  10.110   5.822   7.818 -0.9836 -3.3316  0.8178
  324MOL0     H43687  10.212   5.896   7.612 -0.2726 -1.6860  0.2997
  324MOL0     H43688  10.054   5.889   7.531 -1.0867  3.7932 -1.0099
  324MOL0     H43689  10.180   6.135   7.614 -1.0932  1.3940 -1.6079
  324MOL0     H43690  10.074   6.108   7.745  2.0733 -1.2498  0.6082
  324MOL0     H43691   9.819   5.963   7.562 -2.2131 -0.1912 -0.2949
  324MOL0     H43692   9.683   6.130   7.270  0.1338 -1.7096  0.4695
  324MOL0     H43693   9.635   6.022   7.401  3.0041  0.0099  1.1990
  324MOL0     H43694   9.583   6.327   7.358 -1.7913  0.1797  0.5853
  324MOL0     H43695   9.538   6.238   7.502  0.8530 -0.3763 -0.1984
  324MOL0     H43696   9.362   6.100   7.397 -2.8970  0.5306 -1.6235
  324MOL0     H43697   9.442   6.122   7.248 -0.0315 -1.5196  1.4947
  324MOL0     H43698   9.342   6.356   7.224  0.9231 -0.9132 -1.2305
  324MOL0     H43699   9.304   6.358   7.388 -2.7102 -1.8947  0.8417
  324MOL0     H43700   8.964   6.107   7.233  3.9345  0.3961 -1.5822
  324MOL0     H43701   8.624   6.223   7.232  0.2329 -1.6734  0.9589
  324MOL0     H43702   8.701   6.210   7.069  1.1382  0.6800 -0.1873
  324MOL0     H43703   8.732   6.094   7.204  0.9315  0.5891  1.5714
  324MOL0     H43704   8.461   6.608   7.166 -0.6888 -1.7802  0.9743
  324MOL0     H43705   8.256   6.681   7.084 -0.4749  0.8343  0.2408
  324MOL0     H43706   8.219   6.702   6.672  0.4148 -1.4014 -1.0140
  324MOL0     H43707   8.137   6.548   6.661 -0.0904  0.3188 -1.4807
  324MOL0     H43708   7.929   6.647   6.742 -1.8304  1.3033  0.2742
  324MOL0     H43709   8.022   6.812   6.750  3.6266  1.1831 -1.7068
  324MOL0     H43710   7.856   6.784   6.554  0.3085 -0.9006 -1.9213
  324MOL0     H43711   7.980   6.675   6.477  4.0942  2.7390 -2.4195
  324MOL0     H43712   7.973   6.962   6.541  1.2618 -0.4666  2.2581
  324MOL0     H43713   8.126   6.885   6.558 -0.4646  1.1395  1.4263
  324MOL0     H43714   8.081   6.988   6.315 -0.0068 -0.9976 -3.7168
  324MOL0     H43715   7.944   6.878   6.294  0.5146 -1.8128 -1.8452
  324MOL0     H43716   8.200   6.750   6.359  3.1228  3.3923 -2.2474
  324MOL0     H43717   8.057   6.691   6.261 -0.1810 -1.1624  1.4920
  324MOL0     H43718   8.265   6.907   6.184 -1.9272  1.0349  2.0999
  324MOL0     H43719   8.127   6.854   6.084 -0.4202 -0.7597 -0.2465
  324MOL0     H43720   8.358   6.679   6.196  1.8051  3.4141  0.5562
  324MOL0     H43721   8.351   6.747   6.033  0.9242  0.5641  0.8134
  324MOL0     H43722   8.323   6.463   6.713 -1.2363  1.6258 -0.7415
  324MOL0     H43723   8.552   6.399   6.805  0.1530  0.1931 -0.7383
  324MOL0     H43724   8.945   6.600   7.219 -1.4282 -1.1854 -1.0076
  324MOL0     H43725   9.149   6.485   7.310  1.8473 -2.4086  0.0418
  324MOL0     H43726  10.292   5.237   7.708 -1.5709  0.7482  0.5971
  324MOL0     H43727  10.511   5.120   7.721 -2.9393  0.9418 -2.2719
  324MOL0     H43728  10.910   5.177   8.032 -0.8964 -1.1427 -0.3717
  324MOL0     H43729  11.149   5.122   8.073  2.7572 -0.5451 -1.5690
  324MOL0     H43730  11.346   5.102   8.000 -1.1710  0.1624 -1.2282
  324MOL0     H43731  11.361   4.981   8.134 -2.3104 -1.6279 -1.0282
  324MOL0     H43732  11.504   4.999   7.858  2.1616 -0.3661  0.5163
  324MOL0     H43733  11.491   4.849   7.960 -1.8065  0.4254 -0.3078
  324MOL0     H43734  11.619   4.953   8.137  1.2887  0.2670  0.0020
  324MOL0     H43735  11.622   5.113   8.062  1.3011 -1.3696  1.2103
  324MOL0     H43736  11.745   5.004   7.870  0.5684  1.8943 -0.7226
  324MOL0     H43737  11.741   4.848   7.943 -1.6783 -0.0587  0.1410
  324MOL0     H43738  12.006   5.033   8.208 -0.4344 -0.0340  0.5817
  324MOL0     H43739  11.113   4.776   7.821 -0.3285 -1.1513  3.6821
  324MOL0     H43740  10.877   4.833   7.783  0.2270 -1.7637  1.0486
  325MOL0     O43741   3.183   0.033   7.476 -0.5282 -0.2648 -0.4816
  325MOL0     C43742   3.194   0.068   7.360  0.6931  0.2178  0.3818
  325MOL0     O43743   3.091   0.103   7.275 -0.2691 -0.0337 -0.4435
  325MOL0     C43744   2.968   0.107   7.329  0.4157 -0.4794 -0.1376
  325MOL0     C43745   2.875   0.002   7.315  0.2522 -0.6294 -0.3693
  325MOL0     C43746   2.742   0.014   7.356 -0.9941 -0.0410  0.7485
  325MOL0     C43747   2.698   0.132   7.418 -0.4870 -0.0219  0.2062
  325MOL0     O43748   2.566   0.156   7.434 -0.0509  0.4323  0.6224
  325MOL0     C43749   2.500   0.078   7.537 -0.5851  0.7444 -0.0659
  325MOL0     C43750   2.374   0.146   7.583 -0.1444  0.4705 -0.2272
  325MOL0     C43751   2.271   0.148   7.474 -0.0644 -0.8249 -0.2169
  325MOL0     C43752   2.148   0.208   7.537  0.9658  0.2641  0.6186
  325MOL0     C43753   2.058   0.287   7.433  0.5116  0.3571 -0.1015
  325MOL0     C43754   1.957   0.375   7.500 -0.5120 -0.3244 -0.3713
  325MOL0     C43755   1.871   0.304   7.597  0.6683 -0.5580 -0.5125
  325MOL0     C43756   1.738   0.389   7.638  0.7020  0.1645 -0.4909
  325MOL0     N43757   1.781   0.490   7.738  0.6094  0.1982  0.5884
  325MOL0     C43758   1.776   0.484   7.876 -0.3222 -0.5448 -0.6588
  325MOL0     C43759   1.808   0.610   7.916 -1.1980  0.4919  1.0024
  325MOL0     C43760   1.849   0.649   8.057 -0.1147  0.2988  0.2532
  325MOL0     C43761   1.735   0.719   8.128 -0.4101 -0.1390  0.1266
  325MOL0     C43762   1.761   0.739   8.279  0.6381 -0.0608  0.3513
  325MOL0     C43763   1.638   0.819   8.340 -0.9514 -0.6550 -0.2042
  325MOL0     O43764   1.634   0.961   8.313  0.0072 -0.3944  0.8941
  325MOL0     C43765   1.514   1.012   8.260  0.5932 -0.0946 -0.5634
  325MOL0     C43766   1.507   1.060   8.131 -0.4900  0.0679 -0.7056
  325MOL0     C43767   1.387   1.096   8.072  0.2669 -0.0264  0.3893
  325MOL0     C43768   1.393   1.142   7.935  0.4052 -0.5711  0.5722
  325MOL0     C43769   1.265   1.086   8.152 -0.0916 -0.4232  0.1140
  325MOL0     C43770   1.130   1.126   8.110  0.5552  0.8042  0.2065
  325MOL0     O43771   1.047   1.198   8.201 -0.2422 -0.5451 -0.4433
  325MOL0     C43772   0.916   1.210   8.172  0.6638 -0.2511 -1.7285
  325MOL0     C43773   0.825   1.133   8.238  0.4951  0.5017 -0.1466
  325MOL0     C43774   0.694   1.156   8.220  0.0462  0.2554  0.0005
  325MOL0     C43775   0.655   1.258   8.133  0.9654  0.2237 -0.1095
  325MOL0     O43776   0.521   1.285   8.113  0.1458 -0.1528  0.0255
  325MOL0     C43777   0.432   1.174   8.087  0.9470 -0.5546  0.8887
  325MOL0     C43778   0.314   1.223   8.003  0.2736 -0.2813  0.2343
  325MOL0     C43779   0.242   1.355   8.047  0.3417  0.0399  0.2677
  325MOL0     C43780   0.084   1.366   8.008 -0.1846 -0.8384 -0.1536
  325MOL0     C43781   0.036   1.505   8.063  0.7476  0.0858  0.2640
  325MOL0     C43782  -0.111   1.503   8.089 -0.1929  0.0059  0.5954
  325MOL0     C43783  -0.159   1.644   8.113 -0.2469 -0.6823 -0.3433
  325MOL0     C43784  -0.308   1.646   8.101 -0.8109 -0.1382 -0.2517
  325MOL0    Cl43785  -0.350   1.630   7.929 -0.1062  0.1237 -0.0286
  325MOL0     C43786   0.744   1.335   8.056  0.0032 -0.5015 -0.1084
  325MOL0     C43787   0.876   1.310   8.084 -0.8804 -0.6733 -0.2746
  325MOL0     O43788   1.093   1.069   8.009  0.3421  0.2934  1.0165
  325MOL0     C43789   1.278   1.053   8.293  0.2646 -0.0791  0.5602
  325MOL0     C43790   1.398   1.004   8.348  0.2256  0.0576  0.1641
  325MOL0     N43791   1.834   0.684   7.802  0.1140 -0.0498 -0.3829
  325MOL0     N43792   1.825   0.610   7.697  0.4378  0.0635  0.2184
  325MOL0     C43793   2.792   0.237   7.433  0.0992  0.7896  0.3079
  325MOL0     C43794   2.921   0.225   7.391 -0.0281 -0.4189 -0.1829
  325MOL0     C43795   3.331   0.081   7.302  0.4312  0.0339  0.1494
  325MOL0     C43796   3.350   0.148   7.181 -0.6780 -0.0697 -0.1382
  325MOL0     C43797   3.471   0.150   7.117  0.7313  0.3328  0.6950
  325MOL0     C43798   3.579   0.073   7.169  0.1098 -0.4138  0.3346
  325MOL0     O43799   3.694   0.067   7.107 -0.5572  0.4711  0.0948
  325MOL0     C43800   3.705   0.146   6.985 -0.9607 -0.3554 -0.6872
  325MOL0     C43801   3.851   0.158   6.965 -0.5550  0.7539 -0.3901
  325MOL0     C43802   3.921   0.243   7.067  0.2874 -0.8214 -0.8886
  325MOL0     C43803   4.055   0.293   7.015  0.0850  0.2739 -0.0760
  325MOL0     C43804   4.153   0.192   7.001  0.7306  0.1605  0.4511
  325MOL0     C43805   4.224   0.101   6.969  0.6997  0.2975  0.3209
  325MOL0     C43806   3.563   0.007   7.289  0.2118 -0.0640 -0.7859
  325MOL0     C43807   3.436   0.003   7.357  0.3978 -0.0067  0.6058
  325MOL0     H43808   2.911  -0.087   7.266 -0.4907 -2.2706  1.8818
  325MOL0     H43809   2.668  -0.063   7.334 -0.1546 -0.3167 -1.3279
  325MOL0     H43810   2.471  -0.016   7.490 -3.2467  2.6059 -2.5107
  325MOL0     H43811   2.563   0.057   7.624  0.9247 -1.6299 -1.6471
  325MOL0     H43812   2.343   0.096   7.675  1.8569  2.8193  1.8914
  325MOL0     H43813   2.407   0.250   7.599  1.9211 -0.4843  2.5298
  325MOL0     H43814   2.307   0.214   7.394 -2.1735  1.6665  0.7059
  325MOL0     H43815   2.253   0.052   7.426  0.5550 -1.2866  0.4642
  325MOL0     H43816   2.084   0.126   7.573 -1.6500  0.8797 -2.2128
  325MOL0     H43817   2.162   0.281   7.617 -0.9291 -0.5116  1.7475
  325MOL0     H43818   2.121   0.344   7.364 -0.7155  2.5230  0.4686
  325MOL0     H43819   2.001   0.220   7.367 -2.8526  2.4928  0.3653
  325MOL0     H43820   2.005   0.455   7.557 -0.8836 -0.7238  0.5307
  325MOL0     H43821   1.896   0.429   7.427 -0.8861 -0.7627 -0.3879
  325MOL0     H43822   1.833   0.208   7.562 -3.5575 -0.4195  2.8803
  325MOL0     H43823   1.932   0.288   7.686 -0.1549  1.4597  0.4866
  325MOL0     H43824   1.650   0.339   7.678 -0.1022  2.3668  0.6576
  325MOL0     H43825   1.706   0.434   7.543  0.0564  1.1082  0.1627
  325MOL0     H43826   1.770   0.401   7.945  1.4079 -0.3819 -0.2710
  325MOL0     H43827   1.891   0.562   8.109 -1.8812 -1.1113 -0.5417
  325MOL0     H43828   1.932   0.719   8.049  2.2573 -2.4361 -0.7330
  325MOL0     H43829   1.639   0.668   8.113 -0.8716  0.6458  0.3502
  325MOL0     H43830   1.727   0.817   8.080  0.5918 -0.1058 -0.0031
  325MOL0     H43831   1.849   0.800   8.299 -0.9723  3.4635 -2.2461
  325MOL0     H43832   1.778   0.640   8.322  0.4669 -0.1268  0.2706
  325MOL0     H43833   1.636   0.817   8.450 -0.3916  2.0843 -0.0693
  325MOL0     H43834   1.542   0.778   8.307 -1.1526  0.1158 -0.6104
  325MOL0     H43835   1.600   1.086   8.082  0.7106 -0.5843  1.1492
  325MOL0     H43836   1.302   1.190   7.897  1.5622  2.3905  1.2288
  325MOL0     H43837   1.478   1.208   7.916  1.6677 -2.1388  0.5754
  325MOL0     H43838   1.411   1.054   7.873 -0.2240 -0.5127  0.3020
  325MOL0     H43839   0.867   1.064   8.310 -2.4929  0.0373  1.2770
  325MOL0     H43840   0.635   1.093   8.286  0.1378  1.6028  1.4587
  325MOL0     H43841   0.474   1.083   8.043 -1.3942 -2.3075  2.0542
  325MOL0     H43842   0.396   1.145   8.186 -1.4341  0.3693  0.3720
  325MOL0     H43843   0.349   1.244   7.901  0.0003 -1.7436 -0.1807
  325MOL0     H43844   0.235   1.148   8.010 -0.1396  0.2848  2.0468
  325MOL0     H43845   0.292   1.445   8.011  3.2205 -0.5928  2.3021
  325MOL0     H43846   0.258   1.364   8.155  1.9469 -0.4608  0.1058
  325MOL0     H43847   0.067   1.358   7.900  1.5812 -0.8262 -0.4682
  325MOL0     H43848   0.026   1.295   8.067  0.0270 -0.8293  0.0694
  325MOL0     H43849   0.069   1.581   7.990  0.8619  0.6035  0.8473
  325MOL0     H43850   0.083   1.527   8.159 -0.5443  3.0407  0.3343
  325MOL0     H43851  -0.156   1.467   7.996 -3.0346  0.2428  1.7984
  325MOL0     H43852  -0.136   1.426   8.162  0.2244 -2.4081 -1.6348
  325MOL0     H43853  -0.118   1.707   8.032  0.7382 -0.1687  0.5258
  325MOL0     H43854  -0.130   1.680   8.212  1.7700 -0.5887 -0.9137
  325MOL0     H43855  -0.350   1.743   8.130 -0.4623  0.5110 -1.8453
  325MOL0     H43856  -0.344   1.567   8.167 -0.4531 -0.4810 -0.4661
  325MOL0     H43857   0.709   1.402   7.979  1.3016  0.0650 -0.2254
  325MOL0     H43858   0.953   1.365   8.032  0.3432 -1.9171  0.1518
  325MOL0     H43859   1.186   1.056   8.351 -1.3545  1.9829 -1.9197
  325MOL0     H43860   1.414   0.987   8.454  0.4547  3.3462  0.7741
  325MOL0     H43861   2.763   0.330   7.480 -1.9627  0.3690 -0.0292
  325MOL0     H43862   2.986   0.310   7.408  0.8948 -0.7565 -1.8285
  325MOL0     H43863   3.260   0.189   7.136 -0.6185  1.0361  0.6991
  325MOL0     H43864   3.468   0.206   7.024 -1.3176 -0.2375  0.3703
  325MOL0     H43865   3.657   0.084   6.908  0.5215 -2.0313 -0.3301
  325MOL0     H43866   3.665   0.248   6.984  1.1145  0.5867 -3.9460
  325MOL0     H43867   3.867   0.201   6.866 -2.0500  0.7163 -0.6655
  325MOL0     H43868   3.892   0.057   6.960 -1.8285  0.2700 -1.4956
  325MOL0     H43869   3.935   0.184   7.157 -0.1064 -0.3621 -0.5190
  325MOL0     H43870   3.851   0.326   7.083 -2.2224 -2.5199 -2.3875
  325MOL0     H43871   4.083   0.378   7.078 -0.8830 -1.2670  2.5639
  325MOL0     H43872   4.036   0.333   6.914 -1.9878  2.9252  1.2231
  325MOL0     H43873   4.297   0.029   6.937 -1.2203 -1.5058 -0.2089
  325MOL0     H43874   3.643  -0.051   7.333  2.7047  2.1075 -2.1525
  325MOL0     H43875   3.426  -0.042   7.455  0.3646 -0.1020  0.5582
  326MOL0     O43876   0.620  10.715   0.643 -0.0875  0.0394 -0.0904
  326MOL0     C43877   0.639  10.687   0.762  0.5294 -0.0451 -0.7256
  326MOL0     O43878   0.540  10.687   0.855 -0.1792 -0.5476 -0.1442
  326MOL0     C43879   0.404  10.678   0.803 -0.7833  0.8955 -0.5676
  326MOL0     C43880   0.355  10.556   0.756  0.4549  0.5256  0.3353
  326MOL0     C43881   0.227  10.536   0.721  0.2007 -0.3640  0.3496
  326MOL0     C43882   0.139  10.652   0.725 -0.5805  1.0532 -0.0426
  326MOL0     O43883   0.018  10.633   0.653 -0.2713 -0.1546  0.3766
  326MOL0     C43884  -0.091  10.725   0.672  0.1540  0.0835  0.1583
  326MOL0     C43885  -0.222  10.672   0.627 -0.4885  0.7744  0.4805
  326MOL0     C43886  -0.322  10.776   0.596  0.2647  0.0323 -0.6086
  326MOL0     C43887  -0.447  10.703   0.531 -0.4270 -0.8388  0.7220
  326MOL0     C43888  -0.576  10.797   0.540 -0.0183  0.0813  0.0675
  326MOL0     C43889  -0.555  10.928   0.445 -0.0548  0.4142  0.2342
  326MOL0     C43890  -0.658  11.032   0.462 -0.6757 -0.5199 -0.8103
  326MOL0     C43891  -0.648  11.101   0.599 -0.5916 -0.8097  0.1085
  326MOL0     N43892  -0.769  11.178   0.627  0.0925 -0.1412 -0.6498
  326MOL0     C43893  -0.774  11.311   0.609  0.7927 -0.0946  1.1864
  326MOL0     C43894  -0.882  11.359   0.685  0.3180 -0.2288 -0.5710
  326MOL0     C43895  -0.936  11.495   0.687  0.8749 -0.3726  0.7212
  326MOL0     C43896  -1.082  11.494   0.620 -0.4925 -0.0989  0.1396
  326MOL0     C43897  -1.149  11.625   0.645 -0.1215  0.7561 -0.8456
  326MOL0     C43898  -1.293  11.630   0.605  0.2385 -0.4019  0.1289
  326MOL0     O43899  -1.353  11.740   0.678  0.2609 -0.9426 -0.1858
  326MOL0     C43900  -1.491  11.767   0.668 -0.2998 -0.1569 -0.3935
  326MOL0     C43901  -1.551  11.870   0.734  0.4740 -0.2977  0.3651
  326MOL0     C43902  -1.690  11.896   0.727 -0.0761 -0.4587  0.6964
  326MOL0     C43903  -1.733  12.026   0.780  0.3274 -0.8417  0.0256
  326MOL0     C43904  -1.773  11.803   0.664  0.2879  0.0235 -0.3241
  326MOL0     C43905  -1.920  11.818   0.633  0.5932 -0.2955  0.2771
  326MOL0     O43906  -1.988  11.704   0.626 -0.3404  0.3455  0.1445
  326MOL0     C43907  -2.121  11.701   0.646 -0.2694  0.5872 -0.1782
  326MOL0     C43908  -2.221  11.754   0.561  0.1027  0.5719  0.2235
  326MOL0     C43909  -2.356  11.730   0.579  0.2817  0.0059  0.4183
  326MOL0     C43910  -2.394  11.664   0.696 -0.6426 -0.2699  0.2842
  326MOL0     O43911  -2.524  11.649   0.734  0.2489  0.5450  0.2320
  326MOL0     C43912  -2.629  11.734   0.681  0.6030 -0.3231  0.5725
  326MOL0     C43913  -2.756  11.721   0.758  0.0451 -0.1045 -0.0135
  326MOL0     C43914  -2.876  11.747   0.672  0.7180  0.6350 -0.5931
  326MOL0     C43915  -3.015  11.720   0.739 -0.5730  0.4277  0.0895
  326MOL0     C43916  -3.131  11.758   0.657 -0.1721 -0.4890  0.3036
  326MOL0     C43917  -3.264  11.707   0.719 -0.3976 -0.4676 -0.1207
  326MOL0     C43918  -3.277  11.705   0.872 -0.6016 -1.3428  0.1537
  326MOL0     C43919  -3.415  11.657   0.918 -0.3530 -0.1160 -0.0783
  326MOL0    Cl43920  -3.480  11.523   0.821 -0.0124 -0.2350 -0.2708
  326MOL0     C43921  -2.298  11.610   0.781  0.4554  0.0488 -0.6277
  326MOL0     C43922  -2.167  11.621   0.753  0.0021  0.2669 -0.9719
  326MOL0     O43923  -1.970  11.930   0.649 -0.5256 -0.4111  0.3264
  326MOL0     C43924  -1.709  11.694   0.603 -0.6179 -0.6159 -0.3786
  326MOL0     C43925  -1.576  11.683   0.607 -0.1689  1.3255 -0.6212
  326MOL0     N43926  -0.941  11.252   0.752  0.3654  0.6842  0.8136
  326MOL0     N43927  -0.876  11.146   0.709  0.3154  0.5257  0.3768
  326MOL0     C43928   0.188  10.778   0.761 -0.8264  0.5433  0.7199
  326MOL0     C43929   0.316  10.783   0.818  0.0244  0.1224 -0.4137
  326MOL0     C43930   0.780  10.642   0.792  0.7812  0.0870 -0.6912
  326MOL0     C43931   0.887  10.688   0.715  0.4981  0.5989  0.3543
  326MOL0     C43932   1.015  10.645   0.736 -0.3990  0.2351  0.2011
  326MOL0     C43933   1.044  10.565   0.843  0.7323  0.5991 -0.0993
  326MOL0     O43934   1.168  10.522   0.882  0.3805  0.0269 -0.8218
  326MOL0     C43935   1.284  10.612   0.854  0.3950 -0.6444 -0.0917
  326MOL0     C43936   1.398  10.557   0.941 -0.5968  0.7329 -0.1888
  326MOL0     C43937   1.531  10.634   0.903 -0.8013  0.9846  0.4724
  326MOL0     C43938   1.645  10.622   1.006 -0.2742  0.8509 -0.2536
  326MOL0     C43939   1.761  10.694   0.953  0.2440 -1.1866  0.2982
  326MOL0     C43940   1.853  10.759   0.916  0.2135 -0.5235  0.0468
  326MOL0     C43941   0.935  10.519   0.924 -1.3012  0.0490  0.0098
  326MOL0     C43942   0.811  10.551   0.898  0.0187 -0.5912  0.0021
  326MOL0     H43943   0.434  10.482   0.748 -1.4934 -1.6142 -0.0008
  326MOL0     H43944   0.199  10.449   0.663 -0.5938 -0.4742  0.8911
  326MOL0     H43945  -0.101  10.752   0.778 -0.0470  3.2230 -0.5916
  326MOL0     H43946  -0.071  10.812   0.609 -2.6951  0.7775  0.0795
  326MOL0     H43947  -0.213  10.612   0.536  1.3081  1.2056  0.3317
  326MOL0     H43948  -0.265  10.596   0.692 -1.0537  3.0995  3.0082
  326MOL0     H43949  -0.360  10.817   0.690 -0.8290  0.3636 -1.1881
  326MOL0     H43950  -0.277  10.858   0.539 -0.1647  0.9088  0.2967
  326MOL0     H43951  -0.422  10.680   0.427  1.7176 -0.5559  1.1165
  326MOL0     H43952  -0.475  10.614   0.588 -2.1978 -0.5487  0.3517
  326MOL0     H43953  -0.667  10.752   0.499  0.7605  1.0424 -2.9160
  326MOL0     H43954  -0.603  10.817   0.644 -1.5170 -0.8145 -0.1075
  326MOL0     H43955  -0.456  10.974   0.448  0.7516 -1.2654  2.0876
  326MOL0     H43956  -0.580  10.887   0.347  0.1846 -2.6452  1.3308
  326MOL0     H43957  -0.659  11.102   0.379  1.6046 -2.9681 -3.0675
  326MOL0     H43958  -0.758  10.986   0.468 -0.9845  0.2667  0.8520
  326MOL0     H43959  -0.555  11.158   0.603 -1.3018  0.2937  1.2406
  326MOL0     H43960  -0.633  11.032   0.683  1.7053  1.5437  1.7733
  326MOL0     H43961  -0.713  11.376   0.546  0.8909 -1.5934 -0.3328
  326MOL0     H43962  -0.932  11.533   0.790  2.0356  1.5402  0.0152
  326MOL0     H43963  -0.866  11.553   0.627  0.4018  0.9516  1.3908
  326MOL0     H43964  -1.128  11.403   0.659  0.6352 -0.8104 -0.1364
  326MOL0     H43965  -1.080  11.497   0.510 -1.1752  0.1921  0.1255
  326MOL0     H43966  -1.093  11.701   0.590  0.5073  0.8868 -0.0417
  326MOL0     H43967  -1.149  11.645   0.753 -2.9108 -1.7722 -0.2429
  326MOL0     H43968  -1.346  11.538   0.634 -2.2507  0.8681 -0.1266
  326MOL0     H43969  -1.297  11.635   0.496 -1.4976  2.3490  0.2364
  326MOL0     H43970  -1.480  11.930   0.790  2.7595  0.2360 -2.8437
  326MOL0     H43971  -1.799  12.007   0.864 -1.6631  1.4549 -0.8779
  326MOL0     H43972  -1.663  12.106   0.804 -0.4230 -0.1954  0.1152
  326MOL0     H43973  -1.796  12.079   0.708  1.8562  3.1264  1.3380
  326MOL0     H43974  -2.179  11.791   0.468 -1.3639  1.4540 -0.1325
  326MOL0     H43975  -2.422  11.755   0.497  2.1452  0.7266 -0.9368
  326MOL0     H43976  -2.590  11.836   0.673 -0.0470 -0.0818  0.3715
  326MOL0     H43977  -2.652  11.699   0.580  1.0195  1.5178 -0.1924
  326MOL0     H43978  -2.771  11.618   0.790 -3.6818 -0.5292 -2.4602
  326MOL0     H43979  -2.753  11.785   0.847 -0.8349 -2.3346  1.7033
  326MOL0     H43980  -2.871  11.681   0.584  0.7937 -0.1918  0.0155
  326MOL0     H43981  -2.875  11.853   0.647 -1.2853  0.7426 -0.4405
  326MOL0     H43982  -3.017  11.612   0.755  2.2339  0.3339  0.4539
  326MOL0     H43983  -3.023  11.775   0.833  0.3971  2.1996 -0.8027
  326MOL0     H43984  -3.121  11.721   0.555  1.6323 -0.2116  0.3601
  326MOL0     H43985  -3.130  11.867   0.652  1.4380 -0.5550 -1.6929
  326MOL0     H43986  -3.346  11.760   0.669  0.2949 -0.4833 -1.3100
  326MOL0     H43987  -3.273  11.602   0.690 -0.9872 -0.1492 -1.1493
  326MOL0     H43988  -3.246  11.795   0.927  1.9959 -1.2413 -1.2973
  326MOL0     H43989  -3.206  11.632   0.912  0.8054  0.5612  1.3377
  326MOL0     H43990  -3.482  11.741   0.897 -0.6174  0.2620  1.9892
  326MOL0     H43991  -3.408  11.644   1.027 -2.0941  0.4037  0.1305
  326MOL0     H43992  -2.324  11.554   0.870 -1.5632  1.9827  0.0873
  326MOL0     H43993  -2.096  11.571   0.818  0.0528  0.6394 -0.7419
  326MOL0     H43994  -1.773  11.625   0.548 -4.6535  2.1794  0.3542
  326MOL0     H43995  -1.541  11.595   0.554 -1.1952 -0.3418  1.3173
  326MOL0     H43996   0.119  10.861   0.746 -1.6705 -0.5829 -2.4795
  326MOL0     H43997   0.363  10.866   0.869 -0.2212  0.1140 -0.1728
  326MOL0     H43998   0.868  10.747   0.626 -0.9082 -1.5635 -0.8697
  326MOL0     H43999   1.096  10.678   0.672  0.4245 -0.3644  0.9139
  326MOL0     H44000   1.312  10.617   0.749 -1.3730  1.7071 -0.5511
  326MOL0     H44001   1.253  10.711   0.890  0.8131 -1.0112  1.3430
  326MOL0     H44002   1.416  10.453   0.913  4.4083  1.6814 -1.4645
  326MOL0     H44003   1.379  10.570   1.048 -1.7994  0.5078 -0.3575
  326MOL0     H44004   1.509  10.738   0.879  1.6393  1.4119 -0.1734
  326MOL0     H44005   1.556  10.597   0.803  1.0773 -1.1714  1.6378
  326MOL0     H44006   1.672  10.518   1.026  0.3652  0.9858 -0.3920
  326MOL0     H44007   1.620  10.661   1.105  0.4088 -1.2064  0.7675
  326MOL0     H44008   1.937  10.822   0.893 -0.1523  1.1075  2.7679
  326MOL0     H44009   0.953  10.445   1.001 -1.4857 -0.3166 -0.2969
  326MOL0     H44010   0.733  10.512   0.962  0.1103 -0.7382  0.0243
  327MOL0     O44011   5.346   3.739   0.171 -0.3564 -0.4728  0.4928
  327MOL0     C44012   5.430   3.708   0.088 -0.9043 -0.5582  0.6711
  327MOL0     O44013   5.415   3.635  -0.033 -0.0174  0.2107 -0.1451
  327MOL0     C44014   5.290   3.621  -0.093  0.1987 -0.0695 -1.0569
  327MOL0     C44015   5.189   3.712  -0.073  0.5125 -0.4660  0.5031
  327MOL0     C44016   5.066   3.689  -0.125  0.3197  0.0134  0.5540
  327MOL0     C44017   5.039   3.575  -0.194  0.4351 -0.5817  0.0408
  327MOL0     O44018   4.908   3.578  -0.246  0.3851 -0.0549 -0.5375
  327MOL0     C44019   4.871   3.470  -0.334 -0.1214 -0.0163 -0.0441
  327MOL0     C44020   4.935   3.490  -0.474 -0.0603 -0.4044 -0.6878
  327MOL0     C44021   4.894   3.621  -0.541 -1.0266  0.1003  0.3976
  327MOL0     C44022   4.941   3.625  -0.683 -0.0522  0.3200  0.3431
  327MOL0     C44023   4.857   3.717  -0.775 -0.7435 -0.1529 -0.7524
  327MOL0     C44024   4.721   3.657  -0.817 -0.6047  0.4803  0.5324
  327MOL0     C44025   4.641   3.739  -0.907  0.2814  0.2189  0.0541
  327MOL0     C44026   4.596   3.871  -0.845  0.2281  0.2813 -0.6851
  327MOL0     N44027   4.487   3.932  -0.926  0.1860 -0.1133  0.8994
  327MOL0     C44028   4.396   4.030  -0.883  0.1757 -0.1715 -0.2725
  327MOL0     C44029   4.303   4.040  -0.982  0.0656 -0.4649 -0.0737
  327MOL0     C44030   4.180   4.125  -1.003  0.6104  0.0499 -0.0779
  327MOL0     C44031   4.054   4.050  -1.029 -0.1032 -0.2229  0.0064
  327MOL0     C44032   3.935   4.145  -1.068 -0.4767  0.2398 -0.3262
  327MOL0     C44033   3.821   4.060  -1.119  0.0053  0.6030  0.8267
  327MOL0     O44034   3.735   4.158  -1.175  0.7137 -0.2711  0.0940
  327MOL0     C44035   3.601   4.112  -1.198 -0.5078  0.2473  0.9958
  327MOL0     C44036   3.504   4.206  -1.230 -0.7978  0.0424 -0.9777
  327MOL0     C44037   3.374   4.170  -1.270  0.6373  0.2981 -0.2857
  327MOL0     C44038   3.281   4.294  -1.288  0.1003  1.2278 -0.0999
  327MOL0     C44039   3.337   4.035  -1.275  0.1225 -0.1232 -0.4787
  327MOL0     C44040   3.205   3.984  -1.318  0.1151 -0.1696  0.0339
  327MOL0     O44041   3.102   4.072  -1.330  0.6058  0.1225 -0.2982
  327MOL0     C44042   2.970   4.039  -1.343  0.0739  0.6212  0.7683
  327MOL0     C44043   2.915   3.906  -1.334  0.0218 -0.7619 -0.1638
  327MOL0     C44044   2.783   3.883  -1.338 -0.4537 -0.0267 -0.0020
  327MOL0     C44045   2.690   3.981  -1.361  0.4048 -0.1711  0.4565
  327MOL0     O44046   2.556   3.963  -1.387 -0.1740  0.3848 -0.0773
  327MOL0     C44047   2.477   3.910  -1.279  0.5921  1.1247 -0.4493
  327MOL0     C44048   2.341   3.870  -1.322  0.3629 -0.1880  0.8695
  327MOL0     C44049   2.327   3.737  -1.392 -0.6858  0.2905 -0.9380
  327MOL0     C44050   2.185   3.720  -1.462 -0.7499  0.1846 -0.2554
  327MOL0     C44051   2.062   3.733  -1.367 -0.3572 -0.3156 -0.2034
  327MOL0     C44052   1.945   3.640  -1.402  0.7931 -0.4274  0.1061
  327MOL0     C44053   1.894   3.677  -1.543  0.3032  0.1478  0.3200
  327MOL0     C44054   1.752   3.624  -1.574 -0.1581 -0.0016 -0.6332
  327MOL0    Cl44055   1.633   3.701  -1.463 -0.2956  0.2850 -0.0783
  327MOL0     C44056   2.738   4.113  -1.377 -0.2711  0.5147 -0.1719
  327MOL0     C44057   2.877   4.138  -1.368  0.0474 -0.5774 -0.0841
  327MOL0     O44058   3.209   3.869  -1.354  0.5759  0.2266 -1.1092
  327MOL0     C44059   3.440   3.937  -1.243  0.4032 -0.1352 -0.3964
  327MOL0     C44060   3.569   3.974  -1.207 -0.1626 -0.1239 -0.2726
  327MOL0     N44061   4.340   3.961  -1.087 -0.4682  0.2982 -0.1340
  327MOL0     N44062   4.454   3.899  -1.059  0.1468 -0.2314  0.2594
  327MOL0     C44063   5.128   3.470  -0.196 -0.7026 -0.5977 -0.1163
  327MOL0     C44064   5.259   3.494  -0.146  0.0383 -0.4240 -0.8397
  327MOL0     C44065   5.565   3.755   0.126 -0.2348  0.1113 -0.6114
  327MOL0     C44066   5.669   3.739   0.036  0.3758 -0.3931  0.4177
  327MOL0     C44067   5.796   3.777   0.067 -0.4737  0.3890  0.3360
  327MOL0     C44068   5.817   3.841   0.192 -0.7829 -0.1721  0.0959
  327MOL0     O44069   5.945   3.883   0.238  0.1427 -0.3890  0.4137
  327MOL0     C44070   6.051   3.907   0.148  0.0633  0.0999 -0.5173
  327MOL0     C44071   6.175   3.942   0.229 -0.0549  0.1306 -0.0785
  327MOL0     C44072   6.147   4.055   0.332  0.0055  0.6184 -0.5676
  327MOL0     C44073   6.130   4.184   0.270 -0.1678  0.0739 -0.0423
  327MOL0     C44074   6.124   4.293   0.363 -1.0759 -0.4330  0.4779
  327MOL0     C44075   6.134   4.378   0.453  0.2009  0.3196  0.4266
  327MOL0     C44076   5.712   3.866   0.279  0.3542 -0.5641 -0.4148
  327MOL0     C44077   5.579   3.834   0.244  0.6675  0.2418  0.3840
  327MOL0     H44078   5.211   3.805  -0.022  2.1331 -0.3919 -0.2721
  327MOL0     H44079   4.982   3.758  -0.122  1.2079  1.1369  0.3482
  327MOL0     H44080   4.900   3.374  -0.290  1.6849  1.0769  1.3078
  327MOL0     H44081   4.764   3.479  -0.350 -0.0881  0.7868  0.1408
  327MOL0     H44082   5.044   3.486  -0.466  0.0791  1.4956 -1.2534
  327MOL0     H44083   4.902   3.408  -0.538  1.0946 -0.9186 -0.6348
  327MOL0     H44084   4.788   3.645  -0.551 -0.2520  4.1169  0.2186
  327MOL0     H44085   4.949   3.696  -0.483 -0.5945 -2.1356  3.1471
  327MOL0     H44086   5.044   3.660  -0.691  0.2217 -0.6925 -0.6866
  327MOL0     H44087   4.927   3.525  -0.725 -0.2502  1.3013 -2.0250
  327MOL0     H44088   4.838   3.805  -0.713 -1.9337 -3.0106  3.3336
  327MOL0     H44089   4.910   3.741  -0.868 -2.2188  1.9380 -1.1239
  327MOL0     H44090   4.722   3.556  -0.858  0.1964 -0.7356  3.3243
  327MOL0     H44091   4.664   3.631  -0.728 -0.3826 -0.5107  0.3981
  327MOL0     H44092   4.696   3.748  -1.001 -0.1319 -1.5778 -0.3913
  327MOL0     H44093   4.557   3.672  -0.925 -0.1437  1.3975 -2.9445
  327MOL0     H44094   4.681   3.940  -0.844  0.6396 -0.1963 -1.6094
  327MOL0     H44095   4.560   3.860  -0.742  1.0108 -0.9883 -0.5343
  327MOL0     H44096   4.384   4.087  -0.792 -3.1038 -0.7429 -0.2339
  327MOL0     H44097   4.163   4.180  -0.910 -3.6533  0.3743 -0.8233
  327MOL0     H44098   4.197   4.197  -1.083 -0.6354  1.3027  0.7275
  327MOL0     H44099   4.027   3.982  -0.948  2.1685 -0.5348  0.5637
  327MOL0     H44100   4.078   3.981  -1.111 -1.1350 -1.2278  0.5309
  327MOL0     H44101   3.970   4.216  -1.144 -1.8229 -0.0704 -1.2656
  327MOL0     H44102   3.907   4.206  -0.982  2.3651 -1.6354  2.1116
  327MOL0     H44103   3.774   4.004  -1.037 -0.8258  1.0577  0.6752
  327MOL0     H44104   3.867   3.992  -1.191  2.2395  3.5328 -0.7147
  327MOL0     H44105   3.539   4.307  -1.207  0.4787 -0.6097  0.1559
  327MOL0     H44106   3.192   4.281  -1.225 -1.0679 -1.0030 -2.0375
  327MOL0     H44107   3.331   4.381  -1.246 -0.8672  2.6870 -1.8107
  327MOL0     H44108   3.261   4.303  -1.396  2.9983 -1.5905 -1.0415
  327MOL0     H44109   2.969   3.821  -1.292  1.2665 -1.0259 -2.1826
  327MOL0     H44110   2.739   3.785  -1.318 -0.7839  0.5070  2.1267
  327MOL0     H44111   2.533   3.831  -1.228 -2.9455 -0.4727  1.3564
  327MOL0     H44112   2.464   3.995  -1.210 -0.0626  0.0726  0.7770
  327MOL0     H44113   2.265   3.859  -1.244 -1.0333 -3.7333 -0.7453
  327MOL0     H44114   2.296   3.946  -1.388 -0.7532 -0.3688  1.4000
  327MOL0     H44115   2.343   3.647  -1.332  0.7667 -1.3069 -3.5106
  327MOL0     H44116   2.404   3.726  -1.469  0.6535 -1.8291  0.5873
  327MOL0     H44117   2.180   3.795  -1.540  1.2066 -2.1530 -2.8330
  327MOL0     H44118   2.188   3.623  -1.513 -0.0038 -2.0285  3.5931
  327MOL0     H44119   2.027   3.836  -1.362 -0.7640 -0.4934  1.1238
  327MOL0     H44120   2.090   3.708  -1.264  1.4571 -0.5876 -0.7252
  327MOL0     H44121   1.968   3.533  -1.402 -0.1082 -0.6956 -2.9606
  327MOL0     H44122   1.863   3.670  -1.335  0.6752  0.6451 -0.4983
  327MOL0     H44123   1.961   3.637  -1.619 -1.0591 -2.5330  0.3895
  327MOL0     H44124   1.897   3.785  -1.560 -1.5239 -0.3146 -4.1013
  327MOL0     H44125   1.756   3.516  -1.556  2.3251 -0.1691 -1.6699
  327MOL0     H44126   1.713   3.648  -1.674 -1.5980  4.0413  0.7011
  327MOL0     H44127   2.670   4.184  -1.421 -0.2382  1.5335  1.3620
  327MOL0     H44128   2.922   4.228  -1.408 -0.7902 -0.6582 -1.2499
  327MOL0     H44129   3.427   3.830  -1.255  4.0533 -1.0232  1.9734
  327MOL0     H44130   3.638   3.896  -1.181  0.2397  0.3387  0.0603
  327MOL0     H44131   5.105   3.378  -0.249 -3.0763 -1.4512  2.1590
  327MOL0     H44132   5.340   3.423  -0.151  3.4679  2.8554  2.0109
  327MOL0     H44133   5.646   3.688  -0.057  1.6264  1.9474 -1.2815
  327MOL0     H44134   5.878   3.754  -0.001  1.3718  2.9918  1.4978
  327MOL0     H44135   6.073   3.819   0.086 -1.8620  0.7794 -2.2662
  327MOL0     H44136   6.029   3.991   0.082 -1.0666 -0.6391 -1.1224
  327MOL0     H44137   6.253   3.981   0.163 -0.3352 -0.5708 -0.8290
  327MOL0     H44138   6.214   3.860   0.291 -2.5039 -0.8427  0.2964
  327MOL0     H44139   6.236   4.061   0.396 -0.6755  1.6476  0.3298
  327MOL0     H44140   6.064   4.034   0.400  0.5798  0.6642  0.1604
  327MOL0     H44141   6.038   4.182   0.210  0.4252  1.1612 -1.0301
  327MOL0     H44142   6.208   4.212   0.198 -1.8109  1.7737 -1.2720
  327MOL0     H44143   6.136   4.452   0.530  0.4802 -0.7040  1.4279
  327MOL0     H44144   5.714   3.921   0.373  0.0922 -0.2927 -0.5706
  327MOL0     H44145   5.497   3.860   0.311  0.0538 -1.7253  0.4428
  328MOL0     O44146   5.959   4.118   5.266  0.0441 -0.1414  0.8744
  328MOL0     C44147   5.987   4.053   5.368  0.8778 -0.2277  0.4076
  328MOL0     O44148   5.925   3.951   5.420 -0.1080 -0.3464 -0.7322
  328MOL0     C44149   5.792   3.927   5.389 -0.0265 -0.6060  0.8259
  328MOL0     C44150   5.695   3.986   5.472 -0.4633 -0.6485  0.3836
  328MOL0     C44151   5.560   3.970   5.445  1.1014 -0.3129 -0.3290
  328MOL0     C44152   5.512   3.888   5.340 -0.2303 -0.2547  0.1076
  328MOL0     O44153   5.374   3.876   5.329  0.3240 -0.0969 -0.2842
  328MOL0     C44154   5.324   3.799   5.215  0.5155 -0.5369  0.5489
  328MOL0     C44155   5.176   3.802   5.200  0.9649 -0.1157  0.3002
  328MOL0     C44156   5.127   3.710   5.086  0.1024 -0.0570  0.7422
  328MOL0     C44157   4.980   3.709   5.069  0.3526  0.3240  0.7459
  328MOL0     C44158   4.928   3.838   4.992 -1.5094  0.2197 -0.9879
  328MOL0     C44159   4.931   3.844   4.846  0.5798 -0.0891  1.1777
  328MOL0     C44160   4.909   3.997   4.807  0.5420  0.1992  1.3083
  328MOL0     C44161   4.881   4.035   4.653  0.3229  0.7492 -1.0366
  328MOL0     N44162   4.952   3.959   4.540  0.7671  0.3529  0.3029
  328MOL0     C44163   4.919   3.832   4.512 -0.4469  0.0671  0.4349
  328MOL0     C44164   4.946   3.805   4.387 -0.2259  0.3682  0.9322
  328MOL0     C44165   4.903   3.674   4.330 -0.3780 -0.2074  1.0200
  328MOL0     C44166   4.770   3.683   4.254 -0.8873 -0.1034  0.7280
  328MOL0     C44167   4.647   3.751   4.309  0.2670 -0.1134  0.3406
  328MOL0     C44168   4.542   3.769   4.199 -0.4553  0.5119 -1.4174
  328MOL0     O44169   4.428   3.822   4.265 -0.5351 -0.0864  0.4662
  328MOL0     C44170   4.330   3.873   4.183  0.4643 -0.3971 -0.5692
  328MOL0     C44171   4.320   3.858   4.048  0.2756 -0.0383 -0.4242
  328MOL0     C44172   4.210   3.909   3.979 -0.2196  0.4507  0.8381
  328MOL0     C44173   4.213   3.906   3.827  0.7579  0.0772  0.3382
  328MOL0     C44174   4.105   3.971   4.050  0.6477 -0.3179  0.2511
  328MOL0     C44175   3.970   4.028   4.005 -0.3118  1.4307  0.2860
  328MOL0     O44176   3.915   4.122   4.079  0.2490 -0.1758 -0.2878
  328MOL0     C44177   3.789   4.162   4.047 -0.8364  0.5300 -0.1480
  328MOL0     C44178   3.760   4.258   3.948  0.6172  0.5396 -0.1127
  328MOL0     C44179   3.636   4.310   3.935  0.2825  0.6971  0.2740
  328MOL0     C44180   3.527   4.261   4.009 -0.0764  0.0922  0.2202
  328MOL0     O44181   3.407   4.320   3.986  0.0343 -0.5511 -1.1342
  328MOL0     C44182   3.333   4.341   4.104  0.4263 -0.1479 -0.3246
  328MOL0     C44183   3.206   4.261   4.079  0.6322  0.0512  0.4368
  328MOL0     C44184   3.086   4.279   4.182  0.0778  0.0985  0.4021
  328MOL0     C44185   2.968   4.207   4.125 -0.0419 -0.2130 -0.5874
  328MOL0     C44186   2.905   4.253   3.993  0.4769 -0.5115 -0.3981
  328MOL0     C44187   2.832   4.134   3.933  0.0172  0.6888 -0.5543
  328MOL0     C44188   2.741   4.170   3.808  0.2347  0.0289 -0.6653
  328MOL0     C44189   2.620   4.255   3.839  0.3142 -0.3681  1.1209
  328MOL0    Cl44190   2.561   4.222   4.003 -0.3797  0.1999 -0.2030
  328MOL0     C44191   3.546   4.147   4.088 -0.5410 -0.5275  0.0225
  328MOL0     C44192   3.679   4.114   4.123 -0.1205  0.7360  0.3431
  328MOL0     O44193   3.924   3.976   3.899 -0.3738  0.4828  0.2219
  328MOL0     C44194   4.122   3.985   4.188  0.4624  0.6920  0.4843
  328MOL0     C44195   4.228   3.936   4.255 -0.1406 -0.2599 -0.9297
  328MOL0     N44196   4.997   3.922   4.328  1.2557 -0.0559 -0.7174
  328MOL0     N44197   4.990   4.014   4.419  0.1201 -0.0314  1.1387
  328MOL0     C44198   5.613   3.833   5.253 -0.3740  0.1480  0.6766
  328MOL0     C44199   5.754   3.858   5.275  0.0552  0.2459  0.8234
  328MOL0     C44200   6.117   4.084   5.424 -0.2128 -0.0222  0.2402
  328MOL0     C44201   6.218   4.144   5.344  0.4529  0.4180 -0.7688
  328MOL0     C44202   6.335   4.186   5.401  0.4617 -0.4158  0.4202
  328MOL0     C44203   6.353   4.186   5.542  0.2840 -1.1117 -0.8355
  328MOL0     O44204   6.467   4.249   5.607  0.7869 -0.4787 -0.6613
  328MOL0     C44205   6.587   4.275   5.532  0.2655  0.1191 -0.5639
  328MOL0     C44206   6.675   4.373   5.611  0.4489  0.0936  0.4801
  328MOL0     C44207   6.620   4.520   5.597  0.3767  1.1006  0.4367
  328MOL0     C44208   6.675   4.627   5.694 -0.2366  0.1387 -0.1217
  328MOL0     C44209   6.819   4.606   5.706  0.4031 -0.0485  0.3456
  328MOL0     C44210   6.936   4.591   5.710  0.7287  0.6466 -0.3611
  328MOL0     C44211   6.261   4.123   5.625  0.5978 -0.9719 -0.1168
  328MOL0     C44212   6.149   4.068   5.567  0.4333 -1.0132  0.4423
  328MOL0     H44213   5.723   4.049   5.555  1.1248  0.0046 -0.6083
  328MOL0     H44214   5.496   4.010   5.523  2.6721 -0.3561  1.0331
  328MOL0     H44215   5.366   3.821   5.117 -0.3109 -0.0389  0.2969
  328MOL0     H44216   5.355   3.695   5.231  1.8068  0.0641  2.4187
  328MOL0     H44217   5.135   3.758   5.291 -1.0823  1.4694  0.2137
  328MOL0     H44218   5.152   3.906   5.175  1.6828  0.2342  1.0171
  328MOL0     H44219   5.173   3.752   4.995  0.7950  1.2057  1.6477
  328MOL0     H44220   5.169   3.610   5.092  3.1412  1.0737  0.0102
  328MOL0     H44221   4.943   3.619   5.019 -1.4844 -0.2161  2.8825
  328MOL0     H44222   4.938   3.708   5.171 -1.9606 -1.1926 -0.1414
  328MOL0     H44223   4.829   3.858   5.035 -0.8857  0.8997  0.1841
  328MOL0     H44224   4.983   3.925   5.027  2.7854 -1.6636 -2.4612
  328MOL0     H44225   5.025   3.807   4.805 -0.5311 -2.3319  0.4543
  328MOL0     H44226   4.851   3.784   4.802  1.3043 -0.8904  0.9115
  328MOL0     H44227   4.819   4.033   4.859 -0.6168 -1.7766  0.7854
  328MOL0     H44228   4.995   4.053   4.846  1.2823  0.0793 -0.1137
  328MOL0     H44229   4.911   4.139   4.639  1.5557  0.3777 -1.2956
  328MOL0     H44230   4.775   4.011   4.646  0.6873 -1.4751  0.0817
  328MOL0     H44231   4.859   3.777   4.584 -0.9741 -1.1342 -0.8854
  328MOL0     H44232   4.988   3.637   4.272  0.1936  3.3131 -0.6597
  328MOL0     H44233   4.889   3.598   4.407 -0.0977 -2.1222 -0.7330
  328MOL0     H44234   4.737   3.580   4.236 -1.0400 -0.4598  2.8621
  328MOL0     H44235   4.784   3.740   4.161  0.0303  1.6445  1.8773
  328MOL0     H44236   4.671   3.853   4.340  0.3167 -0.4070  1.2806
  328MOL0     H44237   4.602   3.680   4.379 -1.7181 -0.7623 -1.4927
  328MOL0     H44238   4.515   3.673   4.154  0.5245  0.4038 -1.8099
  328MOL0     H44239   4.573   3.835   4.117 -1.6679  0.5151 -1.8882
  328MOL0     H44240   4.402   3.799   4.008  2.9012  2.0760  1.4654
  328MOL0     H44241   4.124   3.845   3.808  1.1583  0.0188 -1.6002
  328MOL0     H44242   4.185   4.000   3.777  1.4529 -0.3793 -0.9663
  328MOL0     H44243   4.301   3.862   3.778  1.1835  0.0609  1.1014
  328MOL0     H44244   3.841   4.310   3.897  0.3771  2.4677  1.3684
  328MOL0     H44245   3.624   4.403   3.879  0.5186  0.6647  0.1662
  328MOL0     H44246   3.386   4.302   4.191  0.9677 -3.1986 -1.8871
  328MOL0     H44247   3.307   4.447   4.114 -2.4274 -0.8204  0.2766
  328MOL0     H44248   3.173   4.291   3.980 -2.4012 -1.9483  0.7337
  328MOL0     H44249   3.227   4.155   4.064 -1.5955 -0.7880  2.5864
  328MOL0     H44250   3.063   4.383   4.207  2.4346  0.7931 -0.0453
  328MOL0     H44251   3.124   4.226   4.270 -1.2804  1.6775  2.0211
  328MOL0     H44252   2.993   4.102   4.106  1.1623  0.2980 -2.0993
  328MOL0     H44253   2.894   4.200   4.205  0.1956 -0.4762 -0.3882
  328MOL0     H44254   2.978   4.299   3.925 -0.1293  1.0061 -0.0770
  328MOL0     H44255   2.836   4.337   4.009 -0.8214 -1.2862 -1.6888
  328MOL0     H44256   2.906   4.056   3.909  0.2042  1.4500 -2.6020
  328MOL0     H44257   2.777   4.090   4.017  1.9709 -0.3513  0.2673
  328MOL0     H44258   2.697   4.079   3.766  1.1642 -0.2923 -0.9493
  328MOL0     H44259   2.794   4.216   3.725  0.4773 -3.1188 -2.4078
  328MOL0     H44260   2.534   4.230   3.775 -1.8229 -0.1265  3.6880
  328MOL0     H44261   2.635   4.363   3.826 -3.2537 -0.0050 -1.8263
  328MOL0     H44262   3.475   4.096   4.152 -0.7626 -1.3685 -0.8717
  328MOL0     H44263   3.691   4.041   4.202 -0.7361 -1.3965 -1.4103
  328MOL0     H44264   4.053   4.024   4.261  1.2769  1.8292  0.6808
  328MOL0     H44265   4.226   3.944   4.363  1.7690  0.2197 -0.9004
  328MOL0     H44266   5.588   3.768   5.170  1.3494 -0.7407  0.7992
  328MOL0     H44267   5.830   3.831   5.202  1.2113  3.1283  0.8201
  328MOL0     H44268   6.211   4.151   5.236  0.3188  0.7476 -0.7389
  328MOL0     H44269   6.413   4.217   5.333  1.1959  0.1617  1.4846
  328MOL0     H44270   6.642   4.182   5.521 -2.1038 -1.1363 -3.0149
  328MOL0     H44271   6.558   4.311   5.433 -0.6759 -2.4466 -1.2837
  328MOL0     H44272   6.778   4.370   5.577  1.9324 -0.1612  4.4385
  328MOL0     H44273   6.674   4.343   5.717  2.8285  2.2819  1.2238
  328MOL0     H44274   6.511   4.520   5.590  0.3477 -0.9419  0.0803
  328MOL0     H44275   6.661   4.547   5.500  0.9317  1.5304  0.7878
  328MOL0     H44276   6.633   4.627   5.795  0.8644 -0.7371  0.3552
  328MOL0     H44277   6.649   4.724   5.650 -1.1513  0.2849  0.7179
  328MOL0     H44278   7.040   4.571   5.725  0.5778  0.1389  0.0158
  328MOL0     H44279   6.282   4.109   5.730  2.9234  0.1253 -0.3774
  328MOL0     H44280   6.072   4.028   5.633 -1.3988  2.1675  0.4343
  329MOL0     O44281   0.943   2.285   7.099  0.5936 -1.0554  0.5122
  329MOL0     C44282   0.991   2.396   7.130  0.5120  0.1656  0.0068
  329MOL0     O44283   0.925   2.514   7.112 -0.2755  0.0124  1.2473
  329MOL0     C44284   0.814   2.519   7.024 -0.4446  0.5153 -0.5667
  329MOL0     C44285   0.825   2.467   6.891 -0.2294 -0.1529 -0.1540
  329MOL0     C44286   0.723   2.490   6.800  0.1852 -0.0080 -0.0100
  329MOL0     C44287   0.600   2.539   6.850  0.3560  0.3629 -0.5626
  329MOL0     O44288   0.486   2.565   6.768 -0.0246 -0.1402  0.0113
  329MOL0     C44289   0.486   2.480   6.651  0.2552  0.3301  0.4140
  329MOL0     C44290   0.356   2.513   6.566 -0.1910  0.6672  0.1414
  329MOL0     C44291   0.219   2.484   6.632 -1.2953 -0.4521 -0.1214
  329MOL0     C44292   0.116   2.487   6.527 -0.4757  0.4232  0.3390
  329MOL0     C44293  -0.025   2.436   6.575  0.2685  0.5928  0.4641
  329MOL0     C44294  -0.135   2.427   6.468 -1.1761  0.3557  0.6548
  329MOL0     C44295  -0.268   2.364   6.521 -0.3131 -0.7026 -0.1964
  329MOL0     C44296  -0.386   2.399   6.432 -0.0171  0.2600 -0.4829
  329MOL0     N44297  -0.493   2.306   6.476  0.6914 -0.1150 -0.0520
  329MOL0     C44298  -0.546   2.285   6.600 -0.1790  0.5278  0.4515
  329MOL0     C44299  -0.648   2.201   6.581 -0.1565  0.5790 -0.3886
  329MOL0     C44300  -0.725   2.131   6.689  0.1283 -0.5220  0.8643
  329MOL0     C44301  -0.878   2.147   6.680  0.1495  0.3917 -0.7759
  329MOL0     C44302  -0.913   2.296   6.679 -1.1064 -0.3514  0.5203
  329MOL0     C44303  -1.068   2.338   6.689 -0.4851  0.1704  0.1325
  329MOL0     O44304  -1.121   2.340   6.822 -0.1412 -1.0647  0.2868
  329MOL0     C44305  -1.234   2.423   6.846  0.4611 -0.8962  1.1749
  329MOL0     C44306  -1.277   2.422   6.979 -0.5593 -0.2246 -0.3222
  329MOL0     C44307  -1.375   2.508   7.027  0.0645  0.1205 -0.0446
  329MOL0     C44308  -1.386   2.525   7.174 -0.9967 -0.2752 -0.3968
  329MOL0     C44309  -1.446   2.585   6.935  0.3811 -0.2140 -0.0893
  329MOL0     C44310  -1.553   2.678   6.978  0.3077  0.3476 -0.1864
  329MOL0     O44311  -1.607   2.671   7.108 -0.1195 -0.5456  0.4132
  329MOL0     C44312  -1.721   2.729   7.155 -0.0196  0.2230 -0.1327
  329MOL0     C44313  -1.836   2.750   7.083  0.2389  0.0216 -0.1749
  329MOL0     C44314  -1.954   2.789   7.144 -0.4778  0.0336  0.7049
  329MOL0     C44315  -1.960   2.810   7.280 -0.2247  0.7294  0.5584
  329MOL0     O44316  -2.072   2.858   7.346 -0.5483  0.1045 -0.1515
  329MOL0     C44317  -2.106   2.781   7.462 -0.0736 -0.4460  0.3865
  329MOL0     C44318  -2.251   2.779   7.481 -0.2479 -0.4391  0.3350
  329MOL0     C44319  -2.324   2.915   7.475 -0.6537  0.3723  0.4886
  329MOL0     C44320  -2.462   2.912   7.544 -0.0657 -0.5889  0.0242
  329MOL0     C44321  -2.517   3.050   7.561 -0.1318  0.0804  0.6465
  329MOL0     C44322  -2.652   3.056   7.643  0.6271  0.3608 -0.5300
  329MOL0     C44323  -2.680   3.209   7.688 -0.2340 -0.2237 -0.0639
  329MOL0     C44324  -2.819   3.266   7.657 -0.3248  0.0799  0.4313
  329MOL0    Cl44325  -2.869   3.232   7.477  0.1620  0.4091  0.1838
  329MOL0     C44326  -1.852   2.775   7.350 -0.9732 -0.2303 -0.1083
  329MOL0     C44327  -1.732   2.738   7.296  0.0848  0.7436 -0.8945
  329MOL0     O44328  -1.585   2.761   6.901  0.7554  0.8231 -0.3540
  329MOL0     C44329  -1.422   2.568   6.795  0.6918 -0.2566 -0.3400
  329MOL0     C44330  -1.314   2.488   6.750  0.5354 -0.4748  0.0466
  329MOL0     N44331  -0.658   2.167   6.451 -0.4659 -0.0833 -0.7885
  329MOL0     N44332  -0.567   2.234   6.394 -0.0817 -0.3643  0.2818
  329MOL0     C44333   0.596   2.587   6.980 -0.2502 -0.3679 -0.3476
  329MOL0     C44334   0.707   2.583   7.065 -0.1463  0.5320  0.7872
  329MOL0     C44335   1.123   2.399   7.190 -0.6883  0.3547  0.6048
  329MOL0     C44336   1.183   2.517   7.230  0.0797 -0.9248 -0.2476
  329MOL0     C44337   1.319   2.519   7.281 -0.0659  0.3470  0.8673
  329MOL0     C44338   1.397   2.401   7.286 -0.2466  0.4434 -0.0712
  329MOL0     O44339   1.531   2.410   7.320 -0.1116  0.6340 -0.0738
  329MOL0     C44340   1.569   2.488   7.433  0.0748  0.0476  0.0935
  329MOL0     C44341   1.710   2.448   7.468 -0.4220  0.7877  0.2280
  329MOL0     C44342   1.806   2.500   7.358 -0.5783  0.0412 -0.6881
  329MOL0     C44343   1.953   2.496   7.403  0.2526  0.1511  0.3029
  329MOL0     C44344   1.997   2.351   7.394  0.5176  0.0428  0.2585
  329MOL0     C44345   2.017   2.227   7.396  0.5850  0.0142  0.3092
  329MOL0     C44346   1.334   2.283   7.253 -0.4829  0.4470 -0.2891
  329MOL0     C44347   1.202   2.282   7.207 -0.4311  0.2715 -0.7804
  329MOL0     H44348   0.919   2.421   6.863  0.2329  0.1963  0.7879
  329MOL0     H44349   0.744   2.463   6.697  1.2952 -2.3622  0.7589
  329MOL0     H44350   0.565   2.520   6.586 -0.2507  0.0458 -0.3906
  329MOL0     H44351   0.503   2.378   6.685 -1.2817 -0.3956 -0.9010
  329MOL0     H44352   0.353   2.621   6.547  0.7130  0.6244 -0.3109
  329MOL0     H44353   0.356   2.466   6.467 -1.1586  0.7063  0.1167
  329MOL0     H44354   0.223   2.383   6.675  1.7853 -0.1727  0.4296
  329MOL0     H44355   0.197   2.559   6.709 -0.1857  0.3105 -0.5411
  329MOL0     H44356   0.100   2.590   6.494 -2.1953  0.6428  1.6924
  329MOL0     H44357   0.149   2.432   6.439  0.0068  0.6276  0.3876
  329MOL0     H44358  -0.020   2.334   6.613 -1.2333  0.2246 -0.2557
  329MOL0     H44359  -0.060   2.491   6.663 -1.1142 -0.0697  0.3536
  329MOL0     H44360  -0.144   2.527   6.424 -1.2736  0.2740  0.4903
  329MOL0     H44361  -0.117   2.382   6.370  0.0940  0.6144  0.7539
  329MOL0     H44362  -0.259   2.256   6.534 -0.5062 -0.8926 -1.5557
  329MOL0     H44363  -0.274   2.401   6.624  4.0225 -0.4770  0.1814
  329MOL0     H44364  -0.371   2.378   6.326 -1.0222  0.1510 -0.6155
  329MOL0     H44365  -0.419   2.501   6.452  0.4522  0.3122  0.0385
  329MOL0     H44366  -0.512   2.318   6.698 -2.8645  0.5710  1.4290
  329MOL0     H44367  -0.705   2.024   6.685  0.0449 -0.5018 -0.4982
  329MOL0     H44368  -0.697   2.168   6.788  0.2600  2.9248 -0.3112
  329MOL0     H44369  -0.920   2.108   6.773  1.1232 -1.0732 -0.9289
  329MOL0     H44370  -0.907   2.100   6.586  2.0755 -0.6776 -0.8645
  329MOL0     H44371  -0.886   2.323   6.577  0.4884 -2.2227  0.4043
  329MOL0     H44372  -0.858   2.356   6.753  1.2511  1.1460 -2.2422
  329MOL0     H44373  -1.126   2.263   6.635 -1.2122  0.4020  0.5774
  329MOL0     H44374  -1.083   2.439   6.649  1.7282  0.0793 -1.0348
  329MOL0     H44375  -1.227   2.358   7.052  0.7324  1.7749  0.6219
  329MOL0     H44376  -1.300   2.478   7.224  0.0842  1.8186 -0.1790
  329MOL0     H44377  -1.387   2.631   7.201  1.2834 -0.8820  2.6474
  329MOL0     H44378  -1.474   2.473   7.213 -1.2937 -0.0795 -0.7949
  329MOL0     H44379  -1.841   2.743   6.975 -2.0788 -0.5573 -0.0617
  329MOL0     H44380  -2.040   2.812   7.081  0.4902 -0.5758 -0.9035
  329MOL0     H44381  -2.065   2.680   7.456  0.7821  0.0020 -2.3003
  329MOL0     H44382  -2.062   2.836   7.546 -0.6615  1.8596 -0.7376
  329MOL0     H44383  -2.293   2.721   7.398 -2.7881  2.3688 -0.4988
  329MOL0     H44384  -2.275   2.725   7.573 -0.4119  0.4829  0.8383
  329MOL0     H44385  -2.327   2.944   7.369  2.2861 -1.3444 -0.1728
  329MOL0     H44386  -2.257   2.984   7.526  0.6428 -0.1223 -0.5045
  329MOL0     H44387  -2.532   2.846   7.491 -1.1844  0.3893  0.2366
  329MOL0     H44388  -2.447   2.868   7.643  1.0807  1.0805  0.6162
  329MOL0     H44389  -2.531   3.094   7.462 -1.2836  0.5250  0.9963
  329MOL0     H44390  -2.450   3.113   7.620  1.1205 -2.9468  2.7240
  329MOL0     H44391  -2.727   3.022   7.571  2.0404 -1.2355 -1.3185
  329MOL0     H44392  -2.662   2.987   7.727  1.3393  2.3716  1.3059
  329MOL0     H44393  -2.616   3.278   7.632 -1.3137  2.2147  1.5247
  329MOL0     H44394  -2.653   3.216   7.794 -1.1294 -0.9371  0.2236
  329MOL0     H44395  -2.815   3.373   7.678  0.7920 -0.2676  2.1222
  329MOL0     H44396  -2.901   3.233   7.721  0.8609 -2.9530  0.5394
  329MOL0     H44397  -1.859   2.789   7.458 -2.0350  0.4105 -0.2426
  329MOL0     H44398  -1.658   2.702   7.367 -0.1191  0.6243 -0.7423
  329MOL0     H44399  -1.472   2.624   6.717 -1.8978 -1.1828  0.5403
  329MOL0     H44400  -1.296   2.466   6.646 -1.8141 -0.1703 -0.4901
  329MOL0     H44401   0.508   2.645   7.005  1.7401  2.4886  0.3953
  329MOL0     H44402   0.711   2.615   7.169 -0.7743 -1.1608  1.3636
  329MOL0     H44403   1.124   2.608   7.229  2.2922  0.5903  0.9310
  329MOL0     H44404   1.360   2.615   7.311 -1.6753  0.9840  1.1464
  329MOL0     H44405   1.564   2.595   7.411  3.5951  0.5202  0.9505
  329MOL0     H44406   1.503   2.469   7.518 -0.2646  1.2443  0.1189
  329MOL0     H44407   1.723   2.339   7.470  0.4298  0.8957  1.2522
  329MOL0     H44408   1.746   2.479   7.566  2.3751 -0.8225 -0.1860
  329MOL0     H44409   1.784   2.607   7.357 -3.5206 -0.2888  3.5042
  329MOL0     H44410   1.783   2.456   7.261 -3.1345  0.3623 -0.3071
  329MOL0     H44411   1.966   2.534   7.505 -5.1779 -0.4028  1.4978
  329MOL0     H44412   2.014   2.561   7.339 -0.9176  2.0594  1.0371
  329MOL0     H44413   2.032   2.124   7.372  1.1381  0.2649 -0.4746
  329MOL0     H44414   1.395   2.194   7.262  0.3131  1.0828  0.8659
  329MOL0     H44415   1.162   2.184   7.184  0.5060 -0.8205  1.8836
  330MOL0     O44416   4.532   1.105   1.694  0.6747 -0.5242 -0.6910
  330MOL0     C44417   4.579   1.162   1.591  0.2478  0.2553  0.6297
  330MOL0     O44418   4.502   1.233   1.502  0.8097  0.2674 -1.0375
  330MOL0     C44419   4.368   1.221   1.516  0.2075 -0.5755  0.2491
  330MOL0     C44420   4.292   1.339   1.498  0.6389  0.3064 -0.9261
  330MOL0     C44421   4.152   1.348   1.524  0.2089  0.9216  0.1152
  330MOL0     C44422   4.084   1.220   1.545 -0.9212  0.0007 -0.2388
  330MOL0     O44423   3.955   1.202   1.574 -0.5594 -1.2664  0.6008
  330MOL0     C44424   3.863   1.302   1.534  0.4062 -0.5634  0.2009
  330MOL0     C44425   3.726   1.244   1.549  1.4234  0.1434 -0.1230
  330MOL0     C44426   3.678   1.207   1.698 -0.6073 -0.6478 -0.2560
  330MOL0     C44427   3.526   1.190   1.700  0.3813 -0.0335 -0.3577
  330MOL0     C44428   3.471   1.155   1.834 -0.4322 -0.1696 -1.0174
  330MOL0     C44429   3.330   1.101   1.811  0.3399 -0.5470 -0.2053
  330MOL0     C44430   3.286   1.016   1.936 -0.3920 -0.9562  0.7323
  330MOL0     C44431   3.295   0.863   1.914 -0.0050 -0.0358  0.8835
  330MOL0     N44432   3.233   0.795   2.033  0.1721  0.2684  0.1564
  330MOL0     C44433   3.301   0.729   2.139 -0.1495 -0.0195  0.4160
  330MOL0     C44434   3.200   0.664   2.206 -0.2741  0.8849  0.0740
  330MOL0     C44435   3.220   0.568   2.316  0.1833 -0.1933  0.8877
  330MOL0     C44436   3.288   0.435   2.280  0.3653  0.4220  0.5122
  330MOL0     C44437   3.220   0.371   2.166  0.0275 -0.4077  0.9869
  330MOL0     C44438   3.071   0.342   2.181 -0.4230  0.0476  0.0578
  330MOL0     O44439   3.031   0.268   2.067 -0.0211  0.3297  0.0945
  330MOL0     C44440   2.903   0.239   2.050  0.3369 -0.2704 -0.3664
  330MOL0     C44441   2.846   0.243   1.922  1.1530 -0.1906  0.3557
  330MOL0     C44442   2.716   0.212   1.893 -0.3712  0.2638  0.2112
  330MOL0     C44443   2.669   0.243   1.757  0.4631 -0.0212 -0.1069
  330MOL0     C44444   2.626   0.167   1.995 -0.5822  0.3366 -0.4154
  330MOL0     C44445   2.484   0.123   1.979  0.2727 -0.8696 -0.2792
  330MOL0     O44446   2.426   0.096   2.097  0.5344  0.0596  0.2992
  330MOL0     C44447   2.298   0.055   2.111 -0.2355  0.2271 -0.8068
  330MOL0     C44448   2.253  -0.073   2.062 -0.3494 -0.0018  0.3778
  330MOL0     C44449   2.119  -0.115   2.083 -0.9880  0.0547 -0.2127
  330MOL0     C44450   2.034  -0.028   2.154 -1.0005  0.4726 -0.4927
  330MOL0     O44451   1.902  -0.065   2.163 -0.8563 -0.3057  0.2250
  330MOL0     C44452   1.800   0.035   2.192 -0.2752  0.1498 -0.3038
  330MOL0     C44453   1.668  -0.041   2.224 -0.5091 -0.7170 -0.0828
  330MOL0     C44454   1.601  -0.109   2.100  0.6534 -0.6375  0.8581
  330MOL0     C44455   1.554  -0.000   2.003  0.5835 -0.9124  0.4266
  330MOL0     C44456   1.471  -0.060   1.890  0.1621  0.9839 -0.1161
  330MOL0     C44457   1.410   0.043   1.792 -0.0577  0.3464 -0.5206
  330MOL0     C44458   1.317  -0.014   1.688 -0.3431  0.2701 -0.5746
  330MOL0     C44459   1.199  -0.100   1.743  0.2323 -0.2943  0.8215
  330MOL0    Cl44460   1.108  -0.017   1.885  0.1591 -0.0665  0.5263
  330MOL0     C44461   2.077   0.097   2.187  0.5491 -0.5015  0.5034
  330MOL0     C44462   2.209   0.141   2.169  0.8535 -0.3160  0.6666
  330MOL0     O44463   2.429   0.125   1.867 -0.5073  0.0560 -0.5425
  330MOL0     C44464   2.682   0.167   2.127 -0.0828 -0.0596  0.2634
  330MOL0     C44465   2.816   0.207   2.159  0.2677  0.1039 -0.0782
  330MOL0     N44466   3.076   0.691   2.139  1.1671  0.4521  0.1406
  330MOL0     N44467   3.093   0.772   2.043  0.4901 -0.6434 -0.1810
  330MOL0     C44468   4.154   1.096   1.544 -0.6902 -0.2298  0.1831
  330MOL0     C44469   4.291   1.101   1.528 -0.8586 -0.7353  0.2221
  330MOL0     C44470   4.727   1.159   1.574 -0.7569  0.0578  0.8773
  330MOL0     C44471   4.817   1.093   1.662  0.4252  0.4933  0.0483
  330MOL0     C44472   4.951   1.069   1.626  0.1328 -0.8031  1.3306
  330MOL0     C44473   5.000   1.115   1.505  0.3298  0.1855 -0.1150
  330MOL0     O44474   5.131   1.110   1.467 -0.3878  0.6020  0.0168
  330MOL0     C44475   5.221   1.035   1.547  0.3511 -0.4961 -0.0463
  330MOL0     C44476   5.272   1.098   1.679 -0.0812  0.2272  0.3015
  330MOL0     C44477   5.388   1.195   1.650 -0.7691 -0.0558  0.2575
  330MOL0     C44478   5.435   1.295   1.762 -1.2365 -0.4832 -0.1439
  330MOL0     C44479   5.530   1.218   1.842 -0.4958  0.3800  0.7629
  330MOL0     C44480   5.603   1.165   1.922  0.1419 -0.2415 -0.1031
  330MOL0     C44481   4.915   1.193   1.424  0.1106  0.4654 -0.1068
  330MOL0     C44482   4.785   1.212   1.444  0.7897 -0.3393  0.3586
  330MOL0     H44483   4.354   1.428   1.485  0.6073  0.8271  1.7834
  330MOL0     H44484   4.099   1.443   1.530 -1.7448 -0.1650  1.1336
  330MOL0     H44485   3.878   1.386   1.602 -3.0824  0.3590  0.0083
  330MOL0     H44486   3.876   1.332   1.430  2.0851  0.5122  0.6915
  330MOL0     H44487   3.649   1.310   1.510 -1.9434 -1.1577  3.6563
  330MOL0     H44488   3.728   1.156   1.483  0.9484 -0.4946  0.6944
  330MOL0     H44489   3.731   1.115   1.724  2.5761  1.2469  0.4959
  330MOL0     H44490   3.708   1.278   1.775 -0.0793 -0.0735 -0.9723
  330MOL0     H44491   3.474   1.281   1.668 -0.9477  0.4161  2.7336
  330MOL0     H44492   3.497   1.113   1.627 -0.3832  0.0431 -0.1480
  330MOL0     H44493   3.540   1.077   1.869 -1.1486 -1.4790 -2.4064
  330MOL0     H44494   3.460   1.233   1.910  1.1755 -1.4264  0.5793
  330MOL0     H44495   3.253   1.178   1.798  2.1737  1.2983 -0.7516
  330MOL0     H44496   3.319   1.033   1.726  0.3544 -0.9734  0.1354
  330MOL0     H44497   3.348   1.038   2.023 -1.4831  1.7274  0.9364
  330MOL0     H44498   3.182   1.036   1.966 -0.4853  0.6228 -0.5003
  330MOL0     H44499   3.397   0.824   1.899 -1.0377 -3.0987  1.0181
  330MOL0     H44500   3.234   0.844   1.826 -0.5430  2.1378  0.7314
  330MOL0     H44501   3.409   0.718   2.149 -0.0108  0.0396 -0.8981
  330MOL0     H44502   3.282   0.612   2.395  0.2887  2.8430 -0.7111
  330MOL0     H44503   3.124   0.546   2.364  0.3236 -2.9487  0.0822
  330MOL0     H44504   3.287   0.361   2.361 -0.3886 -1.6156 -1.2649
  330MOL0     H44505   3.394   0.446   2.253  0.1518  0.4909 -0.3441
  330MOL0     H44506   3.275   0.286   2.125  0.5406  0.1763  0.4455
  330MOL0     H44507   3.234   0.448   2.090  1.0213 -1.0406  0.5058
  330MOL0     H44508   3.004   0.429   2.187 -2.1164 -1.1888 -0.3728
  330MOL0     H44509   3.057   0.285   2.273 -4.1953 -0.6232 -0.7479
  330MOL0     H44510   2.913   0.271   1.842 -0.8454  1.2669 -0.8953
  330MOL0     H44511   2.741   0.308   1.706  0.0988  1.4093  1.1260
  330MOL0     H44512   2.666   0.152   1.697  0.3171 -0.3316  0.3759
  330MOL0     H44513   2.576   0.300   1.745  1.4376  1.1503 -3.3221
  330MOL0     H44514   2.319  -0.139   2.008  0.9270  0.9348  0.7566
  330MOL0     H44515   2.089  -0.215   2.053  0.8386 -1.4545  2.5246
  330MOL0     H44516   1.827   0.083   2.287  0.4286  0.2641 -0.5508
  330MOL0     H44517   1.798   0.121   2.124 -0.0097 -0.8238 -1.5741
  330MOL0     H44518   1.685  -0.120   2.298  0.1007 -2.5022 -2.0070
  330MOL0     H44519   1.596   0.025   2.273  0.8080  0.6621  0.0479
  330MOL0     H44520   1.519  -0.181   2.112 -0.3491  0.0446 -1.4859
  330MOL0     H44521   1.682  -0.166   2.054  3.1020  1.2706  2.4669
  330MOL0     H44522   1.488   0.068   2.057 -1.4212 -2.2934 -0.1457
  330MOL0     H44523   1.636   0.058   1.961 -0.2982  2.6928  3.1874
  330MOL0     H44524   1.386  -0.123   1.920  1.4840 -2.6512 -3.1455
  330MOL0     H44525   1.538  -0.127   1.835 -0.4456 -0.7756  1.1782
  330MOL0     H44526   1.349   0.113   1.850 -0.2217 -0.2281  0.0053
  330MOL0     H44527   1.486   0.096   1.734 -0.0302 -2.1752 -2.9881
  330MOL0     H44528   1.375  -0.077   1.620  1.1073  0.8064  0.1305
  330MOL0     H44529   1.286   0.072   1.627 -0.3244  1.7061  1.3637
  330MOL0     H44530   1.234  -0.201   1.766 -0.4712 -0.8260 -0.3852
  330MOL0     H44531   1.120  -0.114   1.669 -0.2007  0.3950  1.1466
  330MOL0     H44532   2.011   0.171   2.231  1.1511 -1.9128  4.1119
  330MOL0     H44533   2.238   0.243   2.191  1.9446 -0.6155  0.6791
  330MOL0     H44534   2.632   0.131   2.216  2.8679 -1.2319  1.5402
  330MOL0     H44535   2.857   0.200   2.259  0.9185 -1.5685 -0.4350
  330MOL0     H44536   4.105   1.003   1.570 -0.1375 -0.7341 -0.5512
  330MOL0     H44537   4.343   1.005   1.529 -0.3301 -0.4542  1.6212
  330MOL0     H44538   4.778   1.048   1.753  0.6478  0.6727  0.2326
  330MOL0     H44539   5.018   1.015   1.693  2.5459  1.2227  0.6770
  330MOL0     H44540   5.177   0.936   1.559 -0.2776 -0.6218 -2.7353
  330MOL0     H44541   5.310   1.023   1.484 -0.7382  0.1824 -1.7891
  330MOL0     H44542   5.310   1.017   1.741  1.3229  0.7748  0.1917
  330MOL0     H44543   5.194   1.154   1.731  0.3678  0.7619  0.4008
  330MOL0     H44544   5.357   1.265   1.572  0.2039 -0.2077 -0.2859
  330MOL0     H44545   5.472   1.142   1.603 -1.4328 -0.7315 -0.1794
  330MOL0     H44546   5.354   1.323   1.830 -2.9971 -1.8011 -1.5913
  330MOL0     H44547   5.494   1.376   1.720 -2.3352  0.0730 -0.6540
  330MOL0     H44548   5.667   1.110   1.989  2.6324  1.4403 -0.9357
  330MOL0     H44549   4.972   1.250   1.351 -0.4275  2.0843  0.6931
  330MOL0     H44550   4.723   1.259   1.369 -0.1043  1.0880  1.9045
  331MOL0     O44551   3.046   2.962   1.576 -0.3677  0.3287  0.5112
  331MOL0     C44552   3.100   3.060   1.536 -0.1470 -0.8004  1.2487
  331MOL0     O44553   3.035   3.180   1.492  0.0503  0.4380 -0.6003
  331MOL0     C44554   2.911   3.210   1.544  0.9513  0.3221 -0.3419
  331MOL0     C44555   2.817   3.249   1.445 -0.4980 -0.6866  0.7711
  331MOL0     C44556   2.681   3.248   1.480  0.1536 -0.2002  0.2953
  331MOL0     C44557   2.639   3.215   1.607  0.5461  0.1042 -0.7781
  331MOL0     O44558   2.507   3.206   1.661  0.6890  0.0697  0.3592
  331MOL0     C44559   2.405   3.244   1.570  0.7059  0.8505 -0.4973
  331MOL0     C44560   2.361   3.128   1.475 -0.3396 -0.3336 -0.2813
  331MOL0     C44561   2.249   3.196   1.391 -0.6103  0.2419 -0.6357
  331MOL0     C44562   2.196   3.098   1.290  0.5645  0.3309  0.0745
  331MOL0     C44563   2.086   3.170   1.208 -0.2464 -0.3660  0.0472
  331MOL0     C44564   1.992   3.081   1.128  0.9312  0.4418 -0.6790
  331MOL0     C44565   2.071   3.023   1.016  0.1060  0.5131  0.8510
  331MOL0     C44566   1.980   2.954   0.909 -0.0331  0.2454  0.4824
  331MOL0     N44567   1.859   2.889   0.952 -0.0448 -0.2671 -0.2620
  331MOL0     C44568   1.849   2.799   1.048 -0.8066  1.2444 -0.1554
  331MOL0     C44569   1.738   2.816   1.123  0.8177 -0.1432 -0.5269
  331MOL0     C44570   1.710   2.744   1.248 -0.1398  0.4694 -0.2424
  331MOL0     C44571   1.736   2.843   1.357  0.5216  0.1295 -0.2012
  331MOL0     C44572   1.687   2.809   1.502  0.2320  0.2863 -0.4970
  331MOL0     C44573   1.532   2.794   1.516 -0.0555 -0.5694  0.1237
  331MOL0     O44574   1.503   2.785   1.658  0.4214  1.1039  0.6646
  331MOL0     C44575   1.383   2.718   1.688  0.1021  0.1331  0.6741
  331MOL0     C44576   1.363   2.586   1.658  0.4927  0.1568  0.2587
  331MOL0     C44577   1.242   2.524   1.682  0.1423  0.3377 -0.4316
  331MOL0     C44578   1.229   2.382   1.640 -0.2976  0.6938  0.5679
  331MOL0     C44579   1.126   2.594   1.727  0.0228 -0.2390 -0.0023
  331MOL0     C44580   0.991   2.534   1.737 -0.0947 -0.2514  0.3895
  331MOL0     O44581   0.974   2.423   1.808  0.0344 -0.1205 -0.2975
  331MOL0     C44582   0.860   2.343   1.801 -0.9807 -0.6572  0.3045
  331MOL0     C44583   0.886   2.203   1.818  0.4045 -0.5581 -0.0464
  331MOL0     C44584   0.779   2.115   1.833 -0.3557 -0.2665  0.0372
  331MOL0     C44585   0.650   2.160   1.834 -0.0154 -0.0141  0.4859
  331MOL0     O44586   0.555   2.065   1.843  0.5052  0.2268 -1.0084
  331MOL0     C44587   0.429   2.097   1.786 -0.2769 -0.6129  0.5115
  331MOL0     C44588   0.342   1.970   1.777 -0.5183  0.3821  0.2445
  331MOL0     C44589   0.203   1.978   1.706  0.9565 -0.4512 -0.4613
  331MOL0     C44590   0.100   2.066   1.780 -0.1834 -0.4432  0.5410
  331MOL0     C44591  -0.035   2.076   1.692 -0.7762 -0.0739  0.6439
  331MOL0     C44592  -0.110   1.940   1.695 -0.0242  0.5192  0.1367
  331MOL0     C44593  -0.244   1.958   1.630 -0.0192  0.3697  0.2568
  331MOL0     C44594  -0.362   1.895   1.700 -0.3134  0.3023  0.3372
  331MOL0    Cl44595  -0.422   2.009   1.824 -0.0609  0.4828 -0.2904
  331MOL0     C44596   0.626   2.297   1.818  0.8680 -0.3200 -1.2369
  331MOL0     C44597   0.730   2.385   1.800  0.3166 -0.3761 -0.4100
  331MOL0     O44598   0.903   2.608   1.692 -0.0099 -0.1970 -0.3341
  331MOL0     C44599   1.146   2.734   1.746  0.3270  0.4495 -0.4565
  331MOL0     C44600   1.276   2.791   1.733  0.9953 -0.5870  0.2273
  331MOL0     N44601   1.667   2.922   1.061 -0.1401  0.6678 -0.1942
  331MOL0     N44602   1.746   2.959   0.960  1.2065 -0.2640  0.3821
  331MOL0     C44603   2.731   3.181   1.706 -0.3774 -0.5839 -0.5914
  331MOL0     C44604   2.864   3.181   1.679 -0.1349  0.0450  0.5752
  331MOL0     C44605   3.253   3.053   1.524  0.5999 -0.7649  0.2806
  331MOL0     C44606   3.326   2.932   1.537 -0.2352  0.2672 -0.5229
  331MOL0     C44607   3.466   2.937   1.530  0.1313  0.2692 -0.4161
  331MOL0     C44608   3.536   3.052   1.509  0.3101  0.1940 -0.3618
  331MOL0     O44609   3.675   3.037   1.508  0.5450  0.6292 -0.0335
  331MOL0     C44610   3.763   3.143   1.486  0.1018 -0.2776  0.0329
  331MOL0     C44611   3.908   3.102   1.529 -1.0367 -0.1529 -0.2848
  331MOL0     C44612   3.913   3.056   1.680 -0.3323  0.0666  0.2187
  331MOL0     C44613   4.055   3.014   1.728  0.7980  0.1098 -0.5299
  331MOL0     C44614   4.137   3.133   1.732 -0.2233 -0.2086 -0.1044
  331MOL0     C44615   4.175   3.247   1.741 -0.1298  0.5214  1.0317
  331MOL0     C44616   3.464   3.177   1.491  1.1308  0.1719  0.2599
  331MOL0     C44617   3.326   3.178   1.498  1.0365  0.9039 -0.1806
  331MOL0     H44618   2.847   3.256   1.341 -3.3117 -3.3398 -0.3925
  331MOL0     H44619   2.614   3.270   1.397  0.5025 -2.4181 -0.6492
  331MOL0     H44620   2.310   3.265   1.620  0.1333 -2.0490 -0.1741
  331MOL0     H44621   2.437   3.332   1.513  0.3925  0.7927 -0.7695
  331MOL0     H44622   2.449   3.087   1.423 -0.2257  0.7638 -0.9959
  331MOL0     H44623   2.319   3.046   1.533  0.8292  0.7959  2.3268
  331MOL0     H44624   2.177   3.221   1.470 -0.9353 -0.1774 -0.7941
  331MOL0     H44625   2.287   3.291   1.352 -0.0652  0.0077 -0.6784
  331MOL0     H44626   2.264   3.049   1.219  0.0205  0.7181 -0.7286
  331MOL0     H44627   2.153   3.014   1.344 -0.2940  1.5347  1.3325
  331MOL0     H44628   2.019   3.226   1.274 -0.2252 -1.6533  1.1920
  331MOL0     H44629   2.134   3.241   1.140 -0.8727 -0.4813 -0.5263
  331MOL0     H44630   1.956   3.006   1.199 -0.8170  2.1959  0.3942
  331MOL0     H44631   1.910   3.145   1.092  0.5347  1.1369  1.3414
  331MOL0     H44632   2.131   3.104   0.974 -0.0548  0.6491  0.8803
  331MOL0     H44633   2.140   2.947   1.054 -1.0974 -1.4710 -0.7367
  331MOL0     H44634   2.045   2.879   0.864  0.1298  0.9674 -0.5284
  331MOL0     H44635   1.953   3.020   0.826 -1.7161 -0.3198  0.5400
  331MOL0     H44636   1.932   2.732   1.068  0.1197  2.5086  0.4793
  331MOL0     H44637   1.609   2.706   1.234 -0.3943  0.3580  1.5890
  331MOL0     H44638   1.782   2.662   1.256 -0.6694  0.0146 -0.0680
  331MOL0     H44639   1.694   2.940   1.329 -0.3119 -0.3106 -0.5102
  331MOL0     H44640   1.844   2.851   1.368  0.3382 -0.2080  2.5920
  331MOL0     H44641   1.718   2.890   1.569  1.3357 -0.1759 -0.4366
  331MOL0     H44642   1.726   2.717   1.545  0.3866  1.2454  1.5553
  331MOL0     H44643   1.505   2.704   1.461 -0.8846 -1.0326  1.2456
  331MOL0     H44644   1.489   2.885   1.473  2.4729  1.0587  0.7902
  331MOL0     H44645   1.446   2.539   1.607  1.5128  1.0460  1.0630
  331MOL0     H44646   1.197   2.384   1.535 -1.3138  1.5365  0.8792
  331MOL0     H44647   1.322   2.325   1.642  0.0340  1.2187  2.4547
  331MOL0     H44648   1.150   2.324   1.689  0.8162  0.2312  1.8789
  331MOL0     H44649   0.988   2.173   1.837 -0.4111 -1.8961  2.8029
  331MOL0     H44650   0.802   2.011   1.853 -2.9686 -0.8355  0.5230
  331MOL0     H44651   0.379   2.171   1.850  0.1149  0.5313 -0.4732
  331MOL0     H44652   0.436   2.148   1.690 -0.0198 -1.7656 -0.1039
  331MOL0     H44653   0.402   1.895   1.725 -1.0860 -1.2008  1.7921
  331MOL0     H44654   0.330   1.929   1.878  0.4325 -4.1998 -1.2543
  331MOL0     H44655   0.164   1.877   1.696  0.8784 -0.2721 -2.2112
  331MOL0     H44656   0.213   2.008   1.601 -0.8935 -0.0025 -0.5448
  331MOL0     H44657   0.068   2.019   1.874 -0.5252 -0.6614  0.3149
  331MOL0     H44658   0.136   2.170   1.788 -3.4048  0.6864  2.0748
  331MOL0     H44659  -0.008   2.103   1.590  3.6796 -0.9109  1.4000
  331MOL0     H44660  -0.097   2.155   1.734  0.2120 -0.0109  2.0892
  331MOL0     H44661  -0.052   1.853   1.663  1.7903  2.1002 -1.1185
  331MOL0     H44662  -0.132   1.922   1.800 -0.1662  2.2042  0.4312
  331MOL0     H44663  -0.239   1.917   1.528 -1.4526 -0.3359  0.4413
  331MOL0     H44664  -0.263   2.064   1.611  1.8022  0.6765  0.0282
  331MOL0     H44665  -0.333   1.802   1.751 -1.0858 -0.7346 -1.0587
  331MOL0     H44666  -0.435   1.860   1.626  0.9672  0.9459 -1.2851
  331MOL0     H44667   0.525   2.336   1.815  0.5371 -1.1792 -2.3005
  331MOL0     H44668   0.703   2.489   1.785 -2.3488 -0.5546  2.2877
  331MOL0     H44669   1.061   2.788   1.785  0.9474  1.0229  0.1205
  331MOL0     H44670   1.305   2.892   1.761  4.4711 -1.3374 -0.1438
  331MOL0     H44671   2.683   3.148   1.798 -2.6526 -0.4373 -1.6541
  331MOL0     H44672   2.942   3.159   1.751 -0.8340 -0.1118  1.2876
  331MOL0     H44673   3.286   2.833   1.558 -0.0962  0.5550  1.2291
  331MOL0     H44674   3.532   2.851   1.539 -0.5812 -0.2045  0.5568
  331MOL0     H44675   3.754   3.172   1.381  2.9568 -0.4787 -0.3238
  331MOL0     H44676   3.729   3.224   1.552 -3.4627 -3.4297  2.4788
  331MOL0     H44677   3.972   3.190   1.529 -0.5912 -0.4732 -0.3236
  331MOL0     H44678   3.957   3.035   1.458  0.0221  1.3391 -0.9945
  331MOL0     H44679   3.841   2.977   1.703  0.2062 -1.1068 -1.8662
  331MOL0     H44680   3.870   3.133   1.744 -0.2679  0.0122  0.3277
  331MOL0     H44681   4.091   2.935   1.661 -2.6399 -0.7865 -1.5412
  331MOL0     H44682   4.041   2.972   1.828 -0.6500  2.9816  0.5709
  331MOL0     H44683   4.208   3.349   1.735 -3.0259  1.5223  0.4716
  331MOL0     H44684   3.520   3.268   1.469  2.4080 -0.7758 -0.5299
  331MOL0     H44685   3.264   3.266   1.485 -1.1685 -0.7056 -1.2671
  332MOL0     O44686   0.936   7.963  10.624  0.3086 -0.4478 -0.1468
  332MOL0     C44687   0.969   7.845  10.627 -0.7116 -0.0645 -0.2931
  332MOL0     O44688   0.886   7.748  10.660 -0.7739 -0.1029  0.8275
  332MOL0     C44689   0.760   7.784  10.693  0.0541 -0.1012  0.2881
  332MOL0     C44690   0.720   7.810  10.823  0.0229  0.7869  1.1194
  332MOL0     C44691   0.586   7.854  10.849 -0.2622 -0.5482 -0.6316
  332MOL0     C44692   0.493   7.880  10.748 -0.2720 -0.5870 -0.7514
  332MOL0     O44693   0.362   7.927  10.762  0.0454  0.1102  0.7741
  332MOL0     C44694   0.327   7.986  10.881 -0.1069  0.8921 -0.7484
  332MOL0     C44695   0.183   8.022  10.913  0.3229  0.6874  0.1408
  332MOL0     C44696   0.097   7.893  10.900  0.7312 -0.1692 -1.2449
  332MOL0     C44697  -0.048   7.908  10.921  0.1167  0.4707 -0.1164
  332MOL0     C44698  -0.086   7.999  11.044  0.2034 -0.1399  0.4556
  332MOL0     C44699  -0.239   8.030  11.044  0.0065  0.1866 -0.5976
  332MOL0     C44700  -0.267   8.076  11.188  0.4737  0.9727 -0.1928
  332MOL0     C44701  -0.232   8.217  11.225  0.5437 -0.1060 -0.2059
  332MOL0     N44702  -0.348   8.300  11.214  0.4351  0.0265  1.0787
  332MOL0     C44703  -0.361   8.420  11.286  0.5344  0.1879  0.3564
  332MOL0     C44704  -0.459   8.480  11.222  0.2135  0.2259  1.0879
  332MOL0     C44705  -0.511   8.618  11.255 -0.1592  0.4714 -0.3626
  332MOL0     C44706  -0.653   8.607  11.317 -0.0636  0.6423  0.4921
  332MOL0     C44707  -0.775   8.582  11.218 -0.5873  0.2432 -0.4162
  332MOL0     C44708  -0.824   8.723  11.169  0.1743  0.5371  0.1244
  332MOL0     O44709  -0.905   8.694  11.053 -0.2078  0.6521  0.2355
  332MOL0     C44710  -0.991   8.793  11.028  0.3931 -0.3487  0.1199
  332MOL0     C44711  -0.958   8.930  11.039  0.3453 -0.4650 -0.2758
  332MOL0     C44712  -1.057   9.028  10.999 -0.8821 -0.8001 -0.2294
  332MOL0     C44713  -0.997   9.168  11.000 -0.0440  0.1691  0.3903
  332MOL0     C44714  -1.188   8.987  10.950 -0.6642 -0.2133  0.3300
  332MOL0     C44715  -1.290   9.081  10.913 -0.8742  0.2478 -1.0393
  332MOL0     O44716  -1.294   9.198  10.987 -0.0656  0.1494 -1.0044
  332MOL0     C44717  -1.403   9.283  10.992 -0.3099 -0.4133  0.3174
  332MOL0     C44718  -1.404   9.390  11.080 -0.9404 -1.1495  0.0100
  332MOL0     C44719  -1.516   9.475  11.093 -0.7748 -0.4258  0.1827
  332MOL0     C44720  -1.630   9.452  11.022  0.1607 -1.0628  0.0461
  332MOL0     O44721  -1.750   9.521  11.043 -0.3233 -0.4028  0.5067
  332MOL0     C44722  -1.745   9.647  11.104  0.1370  0.4560 -0.2505
  332MOL0     C44723  -1.874   9.713  11.089  0.1672  0.1381  0.0624
  332MOL0     C44724  -1.978   9.613  11.142  0.5214  0.3398 -0.3676
  332MOL0     C44725  -2.123   9.659  11.114 -0.1092 -0.4099  0.4300
  332MOL0     C44726  -2.233   9.559  11.152  0.2229  0.2128 -0.5619
  332MOL0     C44727  -2.368   9.611  11.121  0.1542 -0.5277  0.0872
  332MOL0     C44728  -2.466   9.503  11.102  0.1693  0.3004 -0.3356
  332MOL0     C44729  -2.614   9.562  11.109  0.0808  0.5686 -0.9846
  332MOL0    Cl44730  -2.648   9.689  10.994 -0.4693  0.0982 -0.0509
  332MOL0     C44731  -1.636   9.349  10.932 -0.5307  1.3656 -0.6639
  332MOL0     C44732  -1.518   9.276  10.916 -0.0171  0.3540 -0.3031
  332MOL0     O44733  -1.367   9.043  10.823  0.4154  0.2703  0.3517
  332MOL0     C44734  -1.213   8.849  10.926  0.1084  0.1415  0.5524
  332MOL0     C44735  -1.119   8.757  10.975 -0.0049 -0.2137  0.4580
  332MOL0     N44736  -0.518   8.400  11.120 -0.5997  0.0044  0.7027
  332MOL0     N44737  -0.454   8.290  11.132 -0.0670 -0.0520 -0.1450
  332MOL0     C44738   0.537   7.851  10.617  0.5989 -0.8994 -0.9984
  332MOL0     C44739   0.660   7.794  10.585  1.0309 -0.4382 -0.5558
  332MOL0     C44740   1.112   7.807  10.635  0.4455  0.2112  1.0330
  332MOL0     C44741   1.212   7.895  10.591 -0.2912  0.1258  0.6612
  332MOL0     C44742   1.346   7.860  10.600 -0.2345  0.4993  0.6262
  332MOL0     C44743   1.386   7.733  10.643  0.7355  0.5531  0.0508
  332MOL0     O44744   1.512   7.681  10.651  0.4096  0.5150 -0.5357
  332MOL0     C44745   1.625   7.742  10.585  0.3496 -0.4451  0.5894
  332MOL0     C44746   1.677   7.848  10.681  0.1141 -0.2041  0.2245
  332MOL0     C44747   1.831   7.838  10.695 -0.4561 -0.0942 -0.1034
  332MOL0     C44748   1.890   7.874  10.834 -0.4992  0.0313  0.3052
  332MOL0     C44749   2.037   7.878  10.827  0.1370 -0.0543  0.2299
  332MOL0     C44750   2.154   7.889  10.799  0.0460 -0.1070 -0.1230
  332MOL0     C44751   1.283   7.648  10.692 -0.3852 -0.9253  0.4919
  332MOL0     C44752   1.146   7.680  10.689 -0.7949  0.0691 -0.7230
  332MOL0     H44753   0.791   7.804  10.906 -0.6684  1.0117  1.7400
  332MOL0     H44754   0.568   7.875  10.953  1.5784  0.8025 -0.5253
  332MOL0     H44755   0.359   7.926  10.966 -0.8394  0.9165 -0.4538
  332MOL0     H44756   0.380   8.082  10.887 -0.0702  0.7918  1.2489
  332MOL0     H44757   0.181   8.081  11.006 -0.3068  1.2575 -0.2263
  332MOL0     H44758   0.148   8.095  10.839 -3.2166 -1.2848 -0.3610
  332MOL0     H44759   0.113   7.852  10.800 -3.2868  1.7418 -2.8889
  332MOL0     H44760   0.140   7.817  10.966  0.8998  1.0556  0.1075
  332MOL0     H44761  -0.086   7.944  10.825  1.3821 -2.4387 -1.8315
  332MOL0     H44762  -0.091   7.809  10.935 -1.5525  1.2610  0.7959
  332MOL0     H44763  -0.064   7.942  11.135  0.0611 -1.6559 -0.4335
  332MOL0     H44764  -0.031   8.093  11.041  0.1900 -0.1517 -0.1682
  332MOL0     H44765  -0.261   8.099  10.962  1.0023 -1.1505 -2.0633
  332MOL0     H44766  -0.284   7.934  11.018 -0.8290  0.3611  0.1390
  332MOL0     H44767  -0.374   8.057  11.204  1.0322 -2.8418  0.0685
  332MOL0     H44768  -0.214   8.016  11.262 -0.0726  3.1167  2.0710
  332MOL0     H44769  -0.162   8.266  11.157  0.7709  2.5432  1.8130
  332MOL0     H44770  -0.186   8.220  11.324  1.8946 -0.2068 -0.8129
  332MOL0     H44771  -0.298   8.452  11.368  1.1174  1.4409 -0.5548
  332MOL0     H44772  -0.441   8.673  11.318 -1.1979  1.0445  0.3207
  332MOL0     H44773  -0.510   8.678  11.164  0.9407  0.9436 -0.0609
  332MOL0     H44774  -0.665   8.688  11.390 -2.1403  0.8304 -0.0053
  332MOL0     H44775  -0.661   8.514  11.374 -0.9923 -0.8270 -1.8995
  332MOL0     H44776  -0.856   8.526  11.267 -0.0858 -0.3586 -0.2630
  332MOL0     H44777  -0.736   8.519  11.137  1.1489  0.1711  0.4489
  332MOL0     H44778  -0.742   8.794  11.152  0.7951 -0.3650 -0.7824
  332MOL0     H44779  -0.892   8.759  11.246 -3.3838 -2.2029 -1.4278
  332MOL0     H44780  -0.858   8.957  11.071  0.1094 -2.3731  2.4963
  332MOL0     H44781  -0.975   9.201  11.102 -2.6476  3.2392  0.1310
  332MOL0     H44782  -0.908   9.174  10.937 -1.2788 -1.6147 -1.6558
  332MOL0     H44783  -1.067   9.241  10.958  1.6302  1.7173  0.1281
  332MOL0     H44784  -1.310   9.418  11.128 -2.1853  0.8727  1.4601
  332MOL0     H44785  -1.505   9.549  11.171  3.0875 -1.9586  1.3435
  332MOL0     H44786  -1.719   9.648  11.211 -1.2171  2.0043  0.1181
  332MOL0     H44787  -1.675   9.718  11.059 -0.5692  0.4241 -1.4259
  332MOL0     H44788  -1.865   9.807  11.145  0.6640  0.0025  0.2184
  332MOL0     H44789  -1.898   9.725  10.983  0.3273 -1.5967 -0.1989
  332MOL0     H44790  -1.963   9.580  11.246 -1.0949 -2.8731 -1.0091
  332MOL0     H44791  -1.971   9.523  11.080 -2.3036  0.9190 -1.6702
  332MOL0     H44792  -2.145   9.750  11.171 -1.4397 -1.3920  1.5633
  332MOL0     H44793  -2.132   9.671  11.006 -1.4785 -1.1552  0.4379
  332MOL0     H44794  -2.231   9.534  11.259  0.5212  0.6143 -0.4660
  332MOL0     H44795  -2.221   9.468  11.093  0.7250 -0.3237  0.3425
  332MOL0     H44796  -2.397   9.670  11.209  0.5875 -1.1428  0.6493
  332MOL0     H44797  -2.371   9.672  11.030 -0.4093 -0.2120  0.3097
  332MOL0     H44798  -2.448   9.439  11.189 -0.0854 -0.6106 -0.9474
  332MOL0     H44799  -2.457   9.446  11.009 -1.0474 -1.5242  0.6129
  332MOL0     H44800  -2.655   9.593  11.205 -1.4397 -0.7097 -1.1663
  332MOL0     H44801  -2.673   9.477  11.072  2.0069 -0.5202 -1.6931
  332MOL0     H44802  -1.726   9.315  10.883 -1.3672 -1.3373  2.3843
  332MOL0     H44803  -1.527   9.204  10.836  2.9181 -0.4976  0.0332
  332MOL0     H44804  -1.304   8.810  10.880  0.8415  0.1403 -0.9392
  332MOL0     H44805  -1.137   8.651  10.961 -1.2533  0.1336 -0.8286
  332MOL0     H44806   0.460   7.874  10.545  0.6027  1.6857 -0.2890
  332MOL0     H44807   0.687   7.775  10.482 -1.0657 -0.2116 -1.1924
  332MOL0     H44808   1.195   7.995  10.555  0.3950  0.1790  0.4631
  332MOL0     H44809   1.415   7.939  10.572 -1.3753  0.9470 -1.0970
  332MOL0     H44810   1.697   7.670  10.545  1.6172  0.3347  1.4235
  332MOL0     H44811   1.582   7.801  10.504 -2.1213 -0.5137  1.7659
  332MOL0     H44812   1.616   7.848  10.772  0.0827 -2.1290  0.2448
  332MOL0     H44813   1.658   7.947  10.638 -0.0965  0.6721  2.2356
  332MOL0     H44814   1.875   7.905  10.621 -2.3692  1.1234 -0.2118
  332MOL0     H44815   1.857   7.734  10.672 -0.4083 -0.1561  0.2375
  332MOL0     H44816   1.866   7.814  10.923 -3.1333 -0.4947 -0.6535
  332MOL0     H44817   1.859   7.978  10.849  0.1536  0.3316 -0.4193
  332MOL0     H44818   2.259   7.889  10.778  0.3039 -1.6296  1.0642
  332MOL0     H44819   1.305   7.548  10.727 -2.3167 -0.9842  1.6455
  332MOL0     H44820   1.069   7.613  10.725 -1.7037  1.4970  0.1099
  333MOL0     O44821   6.035   7.851   7.857 -0.4948  0.5641  0.4178
  333MOL0     C44822   6.056   7.969   7.891  0.5505  0.4720  0.4644
  333MOL0     O44823   5.967   8.049   7.965 -0.2027  0.4549 -0.6354
  333MOL0     C44824   5.844   8.000   7.994  0.5774 -0.5888  0.2391
  333MOL0     C44825   5.815   7.901   8.095  0.1644  0.0080  0.6580
  333MOL0     C44826   5.680   7.861   8.115 -0.3065 -0.4188  0.2614
  333MOL0     C44827   5.580   7.915   8.035 -0.2088  1.0810 -0.2537
  333MOL0     O44828   5.451   7.874   8.032  0.4601 -0.5022 -0.0656
  333MOL0     C44829   5.402   7.779   8.130  0.1461 -0.9279  0.7094
  333MOL0     C44830   5.257   7.750   8.095 -0.3993 -0.0548 -0.2818
  333MOL0     C44831   5.175   7.880   8.081  0.9707  0.6814  0.0048
  333MOL0     C44832   5.163   7.985   8.191  0.1351  0.3604  0.1717
  333MOL0     C44833   5.055   8.092   8.173 -0.2349 -0.4412  0.0412
  333MOL0     C44834   5.108   8.191   8.071  0.1181  0.3355  0.2640
  333MOL0     C44835   5.009   8.288   8.012 -1.4654 -0.6238  0.1543
  333MOL0     C44836   5.076   8.384   7.911 -0.7229 -0.1512  0.1703
  333MOL0     N44837   5.166   8.313   7.820 -0.0299  0.0107  0.0625
  333MOL0     C44838   5.125   8.225   7.736  0.6533 -0.0987  0.0632
  333MOL0     C44839   5.236   8.177   7.667 -0.0466 -0.0031  0.0633
  333MOL0     C44840   5.229   8.069   7.556 -0.4862 -0.1200 -0.1597
  333MOL0     C44841   5.361   7.983   7.539  0.6024 -0.5133 -0.1741
  333MOL0     C44842   5.423   7.920   7.668 -0.5444  0.6058 -0.3538
  333MOL0     C44843   5.527   7.810   7.644 -0.2262 -0.2274 -0.5123
  333MOL0     O44844   5.631   7.870   7.567 -0.6231 -0.0385  0.6481
  333MOL0     C44845   5.749   7.799   7.534 -0.2656  0.2745 -0.8181
  333MOL0     C44846   5.762   7.667   7.579 -1.2426  0.2812 -0.1206
  333MOL0     C44847   5.887   7.598   7.553  0.3687 -0.6705 -1.1782
  333MOL0     C44848   5.883   7.454   7.601 -0.7293  0.1443 -0.1083
  333MOL0     C44849   5.991   7.668   7.496  0.0508  0.0776 -0.2266
  333MOL0     C44850   6.125   7.606   7.467 -0.3417  0.0766  0.6048
  333MOL0     O44851   6.199   7.659   7.364  0.0238 -0.3077 -0.0536
  333MOL0     C44852   6.338   7.632   7.356 -0.3573 -0.1784  0.2234
  333MOL0     C44853   6.423   7.617   7.468  0.6932 -0.0046 -0.0547
  333MOL0     C44854   6.556   7.579   7.451 -0.3580 -0.6496 -0.2172
  333MOL0     C44855   6.610   7.543   7.328  0.1868 -0.1528  0.0636
  333MOL0     O44856   6.739   7.497   7.336 -0.4139 -0.0917 -0.5207
  333MOL0     C44857   6.796   7.446   7.217  0.0556 -0.1421 -0.5272
  333MOL0     C44858   6.867   7.553   7.131  0.4167 -0.6699  0.3512
  333MOL0     C44859   6.993   7.619   7.190 -0.0821  0.2365  0.0387
  333MOL0     C44860   7.053   7.720   7.090 -0.6031 -0.0550  0.4641
  333MOL0     C44861   7.184   7.793   7.138 -0.1322  0.2883  0.5825
  333MOL0     C44862   7.297   7.686   7.152 -0.2671  0.1659 -0.2869
  333MOL0     C44863   7.432   7.760   7.178  0.6737  0.7998  0.4277
  333MOL0     C44864   7.545   7.666   7.212  0.0398  0.4620  0.1112
  333MOL0    Cl44865   7.516   7.584   7.372 -0.0461 -0.3531 -0.1168
  333MOL0     C44866   6.523   7.552   7.214  0.1348  0.2912  0.1978
  333MOL0     C44867   6.390   7.592   7.229  0.1580 -0.7677 -0.1577
  333MOL0     O44868   6.168   7.524   7.550  0.2557 -0.0391 -0.5627
  333MOL0     C44869   5.972   7.806   7.458  0.1958 -0.7308  0.0024
  333MOL0     C44870   5.851   7.867   7.480  1.0613  0.1398 -0.6509
  333MOL0     N44871   5.348   8.240   7.727 -0.4520  0.5785  0.2091
  333MOL0     N44872   5.303   8.321   7.814 -0.1576 -0.2376 -0.7322
  333MOL0     C44873   5.607   8.020   7.948  0.2128 -0.2722 -0.1036
  333MOL0     C44874   5.741   8.057   7.933  0.8052 -0.3401  0.2425
  333MOL0     C44875   6.185   8.033   7.854 -0.0506  0.4812 -0.2868
  333MOL0     C44876   6.274   7.971   7.770 -0.1513 -0.1846  0.2029
  333MOL0     C44877   6.396   8.024   7.728  0.6816 -0.7152  0.3826
  333MOL0     C44878   6.428   8.149   7.781 -0.0205 -0.3690  0.3142
  333MOL0     O44879   6.541   8.209   7.724 -0.8574  0.7679  0.4208
  333MOL0     C44880   6.579   8.348   7.758  0.0113 -0.1532  0.3087
  333MOL0     C44881   6.714   8.392   7.706 -0.5926  0.8637 -0.1561
  333MOL0     C44882   6.814   8.277   7.721  0.1438 -1.2155  0.4765
  333MOL0     C44883   6.829   8.214   7.858  0.6041 -0.0045  0.4846
  333MOL0     C44884   6.934   8.111   7.845  0.0147  0.5497 -0.8964
  333MOL0     C44885   7.012   8.016   7.836  0.0292 -0.2178 -0.6794
  333MOL0     C44886   6.339   8.222   7.863 -0.0094  0.0114  0.2183
  333MOL0     C44887   6.214   8.165   7.896 -0.4083 -1.1403 -0.3075
  333MOL0     H44888   5.896   7.871   8.161  0.6273  1.0900  0.5929
  333MOL0     H44889   5.666   7.787   8.194  0.4949  0.7493  1.5519
  333MOL0     H44890   5.463   7.688   8.123  4.4090  1.7066  0.0923
  333MOL0     H44891   5.407   7.816   8.233  1.4446 -1.3794  0.8377
  333MOL0     H44892   5.254   7.708   7.994 -3.5192 -2.1783  0.5504
  333MOL0     H44893   5.221   7.679   8.170  0.3308 -2.6807 -2.2677
  333MOL0     H44894   5.213   7.939   7.997  0.7613 -0.4230 -0.8910
  333MOL0     H44895   5.073   7.846   8.058  0.7610  1.1153  0.2643
  333MOL0     H44896   5.140   7.932   8.284 -1.4047 -2.6935 -1.7611
  333MOL0     H44897   5.259   8.037   8.194  0.6045 -0.4070 -0.8154
  333MOL0     H44898   4.960   8.057   8.130 -0.2855  1.5265 -1.5884
  333MOL0     H44899   5.033   8.151   8.262 -0.4756 -0.4934  0.0163
  333MOL0     H44900   5.192   8.243   8.118 -1.0252  2.0320  0.5224
  333MOL0     H44901   5.157   8.126   7.997 -2.3207 -2.1527  0.6562
  333MOL0     H44902   4.936   8.225   7.960  0.3310 -2.0555 -0.7510
  333MOL0     H44903   4.960   8.345   8.092  2.5843  3.9149 -0.1629
  333MOL0     H44904   5.126   8.463   7.968 -2.0381  0.9455 -0.1633
  333MOL0     H44905   4.989   8.427   7.861  0.0496 -0.1423 -1.2161
  333MOL0     H44906   5.020   8.215   7.709  0.3048  3.2356 -0.1757
  333MOL0     H44907   5.148   8.004   7.590  1.2034 -1.4359  1.5842
  333MOL0     H44908   5.203   8.091   7.452  3.0109 -0.0286 -1.1214
  333MOL0     H44909   5.442   8.037   7.489  0.0601 -0.9124 -1.5495
  333MOL0     H44910   5.340   7.897   7.474  1.1714  0.4900 -1.7417
  333MOL0     H44911   5.348   7.877   7.735 -0.4514  1.6665  0.4546
  333MOL0     H44912   5.475   8.003   7.716  0.7492 -0.7189  0.6189
  333MOL0     H44913   5.484   7.729   7.585 -1.8950  1.0400 -1.1175
  333MOL0     H44914   5.564   7.772   7.740 -0.9331  1.1561  0.3393
  333MOL0     H44915   5.678   7.614   7.623 -2.0877  1.3847 -0.3477
  333MOL0     H44916   5.788   7.426   7.646 -0.2757 -0.6309  0.3984
  333MOL0     H44917   5.906   7.389   7.516  0.2775 -0.2244  0.4335
  333MOL0     H44918   5.962   7.433   7.674 -0.8500 -0.8151 -0.2404
  333MOL0     H44919   6.385   7.633   7.569 -2.5586  0.9428 -1.3063
  333MOL0     H44920   6.625   7.593   7.533 -0.5957  0.0250 -0.1306
  333MOL0     H44921   6.876   7.373   7.234 -0.6275 -0.4325  1.8900
  333MOL0     H44922   6.725   7.391   7.154  1.0291 -2.2731  0.1442
  333MOL0     H44923   6.901   7.503   7.040 -1.2070  0.7930 -1.1439
  333MOL0     H44924   6.804   7.639   7.102  1.8578  0.1408 -0.4850
  333MOL0     H44925   7.071   7.551   7.227  0.4064  1.0607  0.5378
  333MOL0     H44926   6.962   7.675   7.278 -0.0814  0.1218  0.1130
  333MOL0     H44927   7.086   7.674   6.996  0.2227 -1.6675  1.5050
  333MOL0     H44928   6.985   7.803   7.067 -0.1342  0.2721  0.2398
  333MOL0     H44929   7.165   7.832   7.238 -0.4350 -1.2110  1.1492
  333MOL0     H44930   7.205   7.874   7.068  0.6310 -0.9980 -0.7321
  333MOL0     H44931   7.282   7.617   7.236 -1.7555  3.3045  2.2726
  333MOL0     H44932   7.301   7.617   7.068 -2.1726 -1.6011  0.9690
  333MOL0     H44933   7.418   7.835   7.256  0.3635  3.7827 -2.2562
  333MOL0     H44934   7.457   7.817   7.088  1.3677  0.8010  0.6208
  333MOL0     H44935   7.638   7.724   7.210 -0.9587  2.1427 -0.8925
  333MOL0     H44936   7.543   7.589   7.134 -2.9308 -2.2645  2.6215
  333MOL0     H44937   6.557   7.518   7.116  0.4257  3.5434 -0.9526
  333MOL0     H44938   6.320   7.588   7.146  1.9940  0.8413 -1.8648
  333MOL0     H44939   6.054   7.864   7.420  1.0841 -0.5081  2.1269
  333MOL0     H44940   5.830   7.969   7.452  0.7972 -0.0719 -1.2309
  333MOL0     H44941   5.535   8.082   7.896  0.9515 -0.1161 -0.9751
  333MOL0     H44942   5.768   8.140   7.868  0.1766  1.4328  2.1232
  333MOL0     H44943   6.250   7.874   7.726  0.2176 -0.6927  1.0987
  333MOL0     H44944   6.444   7.961   7.654  1.8790 -0.6120  1.0418
  333MOL0     H44945   6.502   8.418   7.723 -1.7931 -1.6811  1.0383
  333MOL0     H44946   6.572   8.354   7.867  0.7717 -1.7435  0.4749
  333MOL0     H44947   6.738   8.484   7.761  0.6780  0.2828  0.3087
  333MOL0     H44948   6.706   8.410   7.598  0.2909  1.8004 -0.0914
  333MOL0     H44949   6.914   8.314   7.695 -0.3595 -0.6092 -0.6708
  333MOL0     H44950   6.784   8.201   7.648  1.5951 -0.6982 -0.7179
  333MOL0     H44951   6.735   8.163   7.881  0.0459 -0.7561 -2.9583
  333MOL0     H44952   6.856   8.275   7.945  2.6293  0.4474 -0.3958
  333MOL0     H44953   7.084   7.940   7.813  0.7407  0.2355  0.0289
  333MOL0     H44954   6.353   8.323   7.900  0.0039 -0.7628  2.4945
  333MOL0     H44955   6.149   8.227   7.958  1.0899  0.2028 -0.0014
  334MOL0     O44956   1.371   4.417   6.303 -0.4846  0.0385  0.1616
  334MOL0     C44957   1.417   4.433   6.417  0.6848 -0.3702 -0.4950
  334MOL0     O44958   1.342   4.421   6.536  0.6908 -0.4038  0.2187
  334MOL0     C44959   1.210   4.397   6.509 -0.3449  0.8988  0.3248
  334MOL0     C44960   1.127   4.505   6.507 -0.0716  0.1941  0.3007
  334MOL0     C44961   0.994   4.479   6.473  0.2685  0.0794  1.2187
  334MOL0     C44962   0.937   4.350   6.455  0.0715  0.0290  0.1851
  334MOL0     O44963   0.812   4.313   6.446  0.1126  0.4176  0.1869
  334MOL0     C44964   0.715   4.403   6.459  1.0585 -1.1417 -0.1746
  334MOL0     C44965   0.576   4.325   6.443  0.1127 -0.6291  0.2482
  334MOL0     C44966   0.556   4.236   6.320 -0.1548 -0.0700 -0.4604
  334MOL0     C44967   0.409   4.188   6.316  0.2750 -0.1113 -0.0167
  334MOL0     C44968   0.340   4.227   6.183 -0.4164 -0.4574  0.5827
  334MOL0     C44969   0.187   4.191   6.192  1.1166 -0.1693  1.3952
  334MOL0     C44970   0.149   4.040   6.227 -0.4815 -0.6174  0.9085
  334MOL0     C44971  -0.003   4.011   6.237  0.8328 -0.5998 -0.0756
  334MOL0     N44972  -0.071   4.035   6.105  0.9297  0.1354  0.2977
  334MOL0     C44973  -0.144   4.147   6.069  0.1814 -0.6053  0.6695
  334MOL0     C44974  -0.184   4.121   5.940 -0.1265 -0.2569 -1.0340
  334MOL0     C44975  -0.255   4.215   5.848  1.1075  0.0532 -0.4625
  334MOL0     C44976  -0.401   4.225   5.888  0.4724  0.4767  0.1986
  334MOL0     C44977  -0.484   4.110   5.827 -0.2498 -0.0298  0.2742
  334MOL0     C44978  -0.635   4.115   5.848  0.1314 -0.8388  0.4199
  334MOL0     O44979  -0.668   4.175   5.972 -0.1147 -0.7619 -0.7037
  334MOL0     C44980  -0.800   4.198   5.982  0.3649 -0.1781  0.0690
  334MOL0     C44981  -0.866   4.295   5.908 -0.1161 -0.1505  0.2140
  334MOL0     C44982  -1.009   4.303   5.911 -0.2875 -0.0708  0.2310
  334MOL0     C44983  -1.068   4.405   5.814 -0.0252 -0.1868 -0.4741
  334MOL0     C44984  -1.084   4.211   5.988 -0.0012 -0.0036  0.4053
  334MOL0     C44985  -1.237   4.207   5.985  0.2327  0.4014  0.7099
  334MOL0     O44986  -1.296   4.139   6.094  0.4289 -0.2022 -0.1694
  334MOL0     C44987  -1.440   4.149   6.089 -0.2199 -0.2285 -0.4774
  334MOL0     C44988  -1.510   4.068   6.004  0.0398 -0.7684  0.7203
  334MOL0     C44989  -1.651   4.081   5.992 -0.7051  0.4605 -0.0490
  334MOL0     C44990  -1.722   4.186   6.052 -0.6992  0.2748  0.5493
  334MOL0     O44991  -1.852   4.208   6.016 -0.3233  0.0091 -0.4537
  334MOL0     C44992  -1.917   4.322   6.069  0.2474  0.7895  0.4888
  334MOL0     C44993  -2.050   4.348   5.997 -0.4395  0.6725 -0.7899
  334MOL0     C44994  -2.097   4.484   6.028 -0.9439 -0.2372 -0.5609
  334MOL0     C44995  -2.198   4.523   5.922 -0.3269  0.0089  0.2380
  334MOL0     C44996  -2.231   4.671   5.926 -0.3694 -0.4821  0.0711
  334MOL0     C44997  -2.287   4.703   6.065 -0.0291  0.2107 -0.9555
  334MOL0     C44998  -2.424   4.631   6.100 -0.3660 -0.7081  0.4790
  334MOL0     C44999  -2.495   4.710   6.198  0.3702 -0.0676 -0.5452
  334MOL0    Cl45000  -2.620   4.824   6.118  0.3219 -0.2825  0.4789
  334MOL0     C45001  -1.635   4.272   6.138  0.7951 -0.7540  0.0033
  334MOL0     C45002  -1.505   4.247   6.160 -0.7827 -0.5552  0.3751
  334MOL0     O45003  -1.299   4.261   5.890 -0.3798  0.1353  0.4974
  334MOL0     C45004  -1.016   4.123   6.068  0.4325 -0.5359 -0.7078
  334MOL0     C45005  -0.880   4.114   6.069 -0.1118 -0.4435  0.5571
  334MOL0     N45006  -0.147   3.995   5.900 -1.7593  0.1947 -0.0361
  334MOL0     N45007  -0.066   3.948   5.997  0.4825 -0.3944  0.1107
  334MOL0     C45008   1.029   4.246   6.456  0.1933 -0.8027  1.1186
  334MOL0     C45009   1.161   4.267   6.479  0.0157  0.6316 -0.2699
  334MOL0     C45010   1.556   4.472   6.425 -0.4260 -1.0089  0.1710
  334MOL0     C45011   1.625   4.512   6.310  0.9478  0.1821  0.4444
  334MOL0     C45012   1.760   4.549   6.322 -0.3509  0.2175 -0.1004
  334MOL0     C45013   1.827   4.558   6.446 -0.6998 -0.9996 -0.8076
  334MOL0     O45014   1.955   4.608   6.472  0.2893  0.6865 -0.0355
  334MOL0     C45015   2.049   4.623   6.363  0.2545  0.2699 -0.7511
  334MOL0     C45016   2.181   4.686   6.414  0.2370 -0.1347 -0.6693
  334MOL0     C45017   2.155   4.824   6.467 -0.0275  0.4780  0.3629
  334MOL0     C45018   2.289   4.905   6.499  0.8773  0.6163 -0.6400
  334MOL0     C45019   2.375   4.837   6.595  0.2879 -0.0798  0.2255
  334MOL0     C45020   2.451   4.783   6.669  0.5884 -0.5203 -0.2789
  334MOL0     C45021   1.753   4.527   6.562 -0.2820  0.4763 -0.2578
  334MOL0     C45022   1.619   4.490   6.551 -0.5325 -1.1210 -0.0375
  334MOL0     H45023   1.170   4.602   6.527  0.8014  0.0943 -0.9412
  334MOL0     H45024   0.933   4.567   6.456  0.5368 -0.0903 -1.0378
  334MOL0     H45025   0.721   4.458   6.553 -0.0042  1.0564 -1.3240
  334MOL0     H45026   0.734   4.471   6.376 -2.5957  1.7461  1.0472
  334MOL0     H45027   0.563   4.275   6.540 -1.1245  1.5461  1.2752
  334MOL0     H45028   0.497   4.400   6.440 -0.5444 -1.2091  1.8498
  334MOL0     H45029   0.584   4.289   6.229 -0.0357 -0.5319 -0.6934
  334MOL0     H45030   0.620   4.149   6.333  1.5045  1.3037  1.1863
  334MOL0     H45031   0.416   4.079   6.325  1.6921 -0.0219  0.2212
  334MOL0     H45032   0.356   4.226   6.404  0.6132 -0.2345  0.2415
  334MOL0     H45033   0.341   4.334   6.165 -3.6633 -0.0404  2.2154
  334MOL0     H45034   0.393   4.172   6.104 -0.7300 -2.0894  1.4615
  334MOL0     H45035   0.135   4.259   6.261  0.3633  3.0847 -2.0272
  334MOL0     H45036   0.144   4.217   6.095  2.5862 -1.3954  0.3715
  334MOL0     H45037   0.200   3.969   6.161  0.7756  0.6983  0.4093
  334MOL0     H45038   0.188   4.016   6.327  1.3200  0.9302  0.6317
  334MOL0     H45039  -0.050   4.076   6.312 -0.3649 -0.9857 -0.4695
  334MOL0     H45040  -0.016   3.908   6.271 -0.7730 -0.8936 -1.4780
  334MOL0     H45041  -0.167   4.238   6.123  0.9732  0.5267 -0.8370
  334MOL0     H45042  -0.203   4.311   5.853 -0.3603  0.8134  1.4369
  334MOL0     H45043  -0.260   4.179   5.745  2.0135 -0.3331 -0.3761
  334MOL0     H45044  -0.445   4.322   5.864 -0.8148  0.6309  2.7879
  334MOL0     H45045  -0.410   4.218   5.997  0.7455 -1.3583  0.1361
  334MOL0     H45046  -0.457   4.010   5.863 -3.9975 -0.7511  1.5065
  334MOL0     H45047  -0.470   4.105   5.718  3.2989 -0.8379  0.6406
  334MOL0     H45048  -0.680   4.016   5.845  0.5215 -1.0509  1.3249
  334MOL0     H45049  -0.665   4.187   5.771  3.0163  0.9831  0.8501
  334MOL0     H45050  -0.812   4.366   5.847  0.2003 -1.1299 -0.6846
  334MOL0     H45051  -1.138   4.474   5.862 -0.8377  0.3909 -2.3822
  334MOL0     H45052  -0.989   4.470   5.778  1.2464  0.1682  2.6764
  334MOL0     H45053  -1.118   4.355   5.730 -2.2009 -0.0344  0.6586
  334MOL0     H45054  -1.449   3.998   5.947 -0.5804  1.3753 -2.8790
  334MOL0     H45055  -1.709   4.018   5.925 -1.3688  0.2214  0.7344
  334MOL0     H45056  -1.947   4.304   6.173 -1.8554 -3.8148 -0.6912
  334MOL0     H45057  -1.856   4.413   6.059 -0.5447  1.5400  2.0593
  334MOL0     H45058  -2.026   4.355   5.890 -0.5940  3.1674 -0.7276
  334MOL0     H45059  -2.120   4.266   6.016 -1.8915  0.7454 -4.8301
  334MOL0     H45060  -2.013   4.551   6.012  1.1770 -2.9121 -1.2964
  334MOL0     H45061  -2.128   4.494   6.133 -0.9475  1.8562 -0.7295
  334MOL0     H45062  -2.168   4.498   5.820  1.1816  1.1993  0.3458
  334MOL0     H45063  -2.292   4.470   5.937 -0.4515 -0.1220 -0.9190
  334MOL0     H45064  -2.300   4.701   5.847  0.7693  1.2028 -0.3492
  334MOL0     H45065  -2.137   4.727   5.917  1.1842 -2.4323  2.7309
  334MOL0     H45066  -2.217   4.687   6.148 -2.8214  1.5706  1.8467
  334MOL0     H45067  -2.306   4.810   6.067  1.0310  0.4148 -0.9242
  334MOL0     H45068  -2.405   4.528   6.130  2.5976  0.1922  2.0933
  334MOL0     H45069  -2.487   4.632   6.011 -2.4559  1.2895  1.8484
  334MOL0     H45070  -2.429   4.781   6.249  1.8285  0.8730 -3.4956
  334MOL0     H45071  -2.544   4.647   6.272 -0.6389  1.7924  0.4539
  334MOL0     H45072  -1.670   4.358   6.194  0.2305 -0.0944 -1.3201
  334MOL0     H45073  -1.458   4.305   6.239  0.0112 -1.4947  0.6083
  334MOL0     H45074  -1.076   4.062   6.136 -1.3930  0.2252 -1.5724
  334MOL0     H45075  -0.817   4.048   6.127  1.5356  0.5696 -0.0136
  334MOL0     H45076   0.991   4.145   6.449  1.0741 -1.0016 -1.4157
  334MOL0     H45077   1.220   4.176   6.475 -1.2530 -0.2253 -0.2361
  334MOL0     H45078   1.569   4.513   6.217 -0.3701 -0.5572  1.1909
  334MOL0     H45079   1.815   4.562   6.229 -1.6408 -0.8391 -1.0437
  334MOL0     H45080   2.069   4.533   6.304  1.2549 -0.3074  0.4218
  334MOL0     H45081   1.997   4.684   6.288 -2.8127 -1.6686 -0.3719
  334MOL0     H45082   2.250   4.706   6.331  1.4135 -2.0734 -0.2142
  334MOL0     H45083   2.212   4.611   6.487 -1.9538 -0.4777 -0.0065
  334MOL0     H45084   2.089   4.824   6.554 -0.0867  3.4325  0.4123
  334MOL0     H45085   2.103   4.880   6.389 -0.9503 -3.2929 -1.9618
  334MOL0     H45086   2.267   4.999   6.549  1.6635 -1.0001  3.0323
  334MOL0     H45087   2.347   4.920   6.407  1.3386  0.2510 -0.4144
  334MOL0     H45088   2.517   4.727   6.732 -0.1762 -1.2535 -0.1169
  334MOL0     H45089   1.799   4.550   6.658 -1.8347  2.4797  0.0666
  334MOL0     H45090   1.562   4.468   6.641 -2.5567 -3.2154 -1.7108
  335MOL0     O45091   9.994   5.106  10.303 -0.1583 -0.3471  0.3138
  335MOL0     C45092  10.007   5.009  10.376  0.3213  0.0458 -0.0183
  335MOL0     O45093   9.911   4.938  10.432 -0.0260 -0.3148  0.6867
  335MOL0     C45094   9.783   4.946  10.383  1.2243 -0.2288  1.0093
  335MOL0     C45095   9.742   4.965  10.245  0.2265 -0.3848 -0.7269
  335MOL0     C45096   9.606   4.976  10.221  0.4850  0.0705  0.3382
  335MOL0     C45097   9.513   4.959  10.321 -0.2079 -0.3113 -0.3865
  335MOL0     O45098   9.379   4.965  10.306  0.5516  0.5550 -0.6129
  335MOL0     C45099   9.310   4.999  10.187 -0.5498 -0.0131  0.3127
  335MOL0     C45100   9.297   5.153  10.182  0.9638 -0.5505  0.5730
  335MOL0     C45101   9.192   5.211  10.285  0.3085  0.8183  0.4695
  335MOL0     C45102   9.239   5.340  10.358 -0.4928 -0.4882 -0.3190
  335MOL0     C45103   9.141   5.395  10.450 -0.3180  0.6237  0.2689
  335MOL0     C45104   9.211   5.496  10.545 -0.2672  0.7107 -0.2946
  335MOL0     C45105   9.127   5.551  10.656  0.8726  0.6595  0.0984
  335MOL0     C45106   9.215   5.645  10.743 -0.7648  0.5193  0.2686
  335MOL0     N45107   9.148   5.681  10.863  0.1128 -0.6661  0.0303
  335MOL0     C45108   9.046   5.781  10.872  0.5901  0.7108 -0.3159
  335MOL0     C45109   8.998   5.770  10.999  0.3618  1.0170 -0.3948
  335MOL0     C45110   8.881   5.853  11.054 -0.0635  0.1714 -0.8423
  335MOL0     C45111   8.741   5.804  11.013  0.3491 -0.9926  0.2575
  335MOL0     C45112   8.629   5.909  11.036 -0.5191 -0.2673  0.3222
  335MOL0     C45113   8.608   5.963  11.175 -0.2904 -0.3033  0.7182
  335MOL0     O45114   8.479   6.025  11.175 -0.3576  0.4954  0.0919
  335MOL0     C45115   8.362   5.952  11.197  0.8377  0.2147  0.3072
  335MOL0     C45116   8.329   5.816  11.225  0.0561 -0.0111  0.3357
  335MOL0     C45117   8.203   5.765  11.253 -0.2708 -0.7087 -0.6052
  335MOL0     C45118   8.199   5.613  11.280 -0.7846  0.9762 -0.0447
  335MOL0     C45119   8.103   5.856  11.275  0.2891 -0.1098  0.2861
  335MOL0     C45120   7.978   5.812  11.336 -0.6961  0.2709  0.4528
  335MOL0     O45121   7.874   5.877  11.282  0.4019  0.1040  0.2432
  335MOL0     C45122   7.737   5.844  11.310 -0.0483 -0.2124  0.4216
  335MOL0     C45123   7.681   5.726  11.261  0.2956  0.1226  0.0085
  335MOL0     C45124   7.546   5.706  11.261 -0.4026  0.3175 -0.6874
  335MOL0     C45125   7.455   5.805  11.315 -0.1977 -0.8478 -0.1046
  335MOL0     O45126   7.322   5.792  11.306  0.0942 -0.6958  0.2707
  335MOL0     C45127   7.232   5.851  11.401 -1.0228  0.2463  0.0313
  335MOL0     C45128   7.108   5.754  11.415 -0.6884  0.3750 -1.1792
  335MOL0     C45129   7.035   5.738  11.282  0.0783 -0.9510  0.4816
  335MOL0     C45130   6.900   5.664  11.294 -0.4471 -0.0799  0.4030
  335MOL0     C45131   6.792   5.750  11.367  0.4605  0.4510  0.5540
  335MOL0     C45132   6.678   5.660  11.389 -0.2336 -0.4670  0.0948
  335MOL0     C45133   6.554   5.727  11.448  1.1471  0.0939  0.1100
  335MOL0     C45134   6.468   5.804  11.350 -0.6312  0.6860  1.5851
  335MOL0    Cl45135   6.297   5.780  11.384 -0.3852 -0.0979  0.2642
  335MOL0     C45136   7.507   5.925  11.356 -0.0825 -0.1460 -0.6566
  335MOL0     C45137   7.647   5.945  11.351 -0.0145  0.0164 -0.3162
  335MOL0     O45138   7.966   5.716  11.412  0.4031 -0.1246 -0.5925
  335MOL0     C45139   8.134   5.997  11.244  0.8540  0.0754  0.0239
  335MOL0     C45140   8.256   6.036  11.203 -0.2401  0.0100 -0.8500
  335MOL0     N45141   9.056   5.649  11.054 -0.0147 -0.5163  0.6241
  335MOL0     N45142   9.148   5.604  10.969 -0.5212 -0.9207 -0.1219
  335MOL0     C45143   9.553   4.938  10.450  0.2476  0.9953  0.8100
  335MOL0     C45144   9.686   4.924  10.483 -0.4903 -0.6101 -0.3758
  335MOL0     C45145  10.151   4.978  10.395  1.0027  0.2877 -0.6418
  335MOL0     C45146  10.261   5.046  10.337  0.6973  0.8123  0.2783
  335MOL0     C45147  10.397   5.013  10.355  0.6362  0.3396 -0.2471
  335MOL0     C45148  10.431   4.914  10.454 -0.3150 -0.9698 -0.2849
  335MOL0     O45149  10.566   4.878  10.480  0.2008 -0.2305 -1.0519
  335MOL0     C45150  10.602   4.874  10.621 -0.4472 -0.0033 -0.3815
  335MOL0     C45151  10.755   4.863  10.625  0.3425  0.0908 -0.8505
  335MOL0     C45152  10.814   5.002  10.595 -0.1521  0.4575  0.3737
  335MOL0     C45153  10.953   4.994  10.551 -0.5777  0.6335  0.1346
  335MOL0     C45154  11.009   5.119  10.505  0.8003  0.3689  0.1237
  335MOL0     C45155  11.057   5.226  10.456 -0.2899 -0.1576 -0.2005
  335MOL0     C45156  10.323   4.847  10.520 -0.6886 -0.0350  0.1861
  335MOL0     C45157  10.195   4.882  10.485 -0.0490 -0.1962 -0.2172
  335MOL0     H45158   9.813   4.974  10.163  1.5933  1.5972  0.5769
  335MOL0     H45159   9.578   5.014  10.123 -0.5136  1.8537  1.2838
  335MOL0     H45160   9.355   4.972  10.091  2.1097  2.7062  0.6020
  335MOL0     H45161   9.212   4.953  10.196 -0.3267 -0.8915 -1.3061
  335MOL0     H45162   9.391   5.203  10.207  0.8263  1.1104 -1.9356
  335MOL0     H45163   9.287   5.185  10.078  2.3673 -1.1005  0.2362
  335MOL0     H45164   9.103   5.236  10.226  2.0810  1.4098 -2.1385
  335MOL0     H45165   9.170   5.137  10.362 -0.0340 -1.4096 -1.6289
  335MOL0     H45166   9.327   5.310  10.416  0.0257  2.1917  0.4333
  335MOL0     H45167   9.284   5.417  10.295 -0.2234  0.6548  1.2173
  335MOL0     H45168   9.057   5.435  10.393 -2.7617 -0.5003  2.8659
  335MOL0     H45169   9.097   5.318  10.515  1.3420  0.0123  0.7210
  335MOL0     H45170   9.289   5.442  10.599 -0.4076  1.6988  0.9255
  335MOL0     H45171   9.263   5.577  10.493  1.6269  1.8037  3.0121
  335MOL0     H45172   9.042   5.609  10.618  0.7317  0.9318  0.8181
  335MOL0     H45173   9.093   5.469  10.719 -2.4826  2.8235  1.3695
  335MOL0     H45174   9.262   5.728  10.689  0.2804 -0.1895  0.0577
  335MOL0     H45175   9.297   5.583  10.783  0.2065  1.6367  0.0585
  335MOL0     H45176   8.994   5.846  10.802 -2.0113  0.0140  0.8328
  335MOL0     H45177   8.891   5.863  11.162 -0.9047  1.0421 -0.8348
  335MOL0     H45178   8.894   5.953  11.012  1.4987  0.2697 -0.1901
  335MOL0     H45179   8.713   5.711  11.063 -2.5190  0.0189  0.6951
  335MOL0     H45180   8.745   5.791  10.904 -1.6285  0.3649 -0.0288
  335MOL0     H45181   8.538   5.861  11.001  0.8162 -1.0813 -2.3122
  335MOL0     H45182   8.649   5.999  10.977  0.2373 -1.0083 -0.5864
  335MOL0     H45183   8.688   6.035  11.195  0.9136 -0.8123 -1.7943
  335MOL0     H45184   8.618   5.877  11.243  2.7611 -1.8818 -1.4675
  335MOL0     H45185   8.410   5.744  11.229 -0.8881 -1.1208 -0.1735
  335MOL0     H45186   8.195   5.603  11.389 -0.4154  3.1584  0.2082
  335MOL0     H45187   8.117   5.562  11.228 -0.7159  0.5989  0.2170
  335MOL0     H45188   8.289   5.568  11.239  0.1285  1.1708  1.6879
  335MOL0     H45189   7.740   5.655  11.203 -1.8259 -0.0500 -2.0455
  335MOL0     H45190   7.503   5.618  11.214  0.5929  1.0651 -3.0969
  335MOL0     H45191   7.273   5.879  11.498  0.7735 -0.6780 -0.4171
  335MOL0     H45192   7.210   5.952  11.365  1.2248 -0.3936 -3.6995
  335MOL0     H45193   7.140   5.657  11.452  2.1723  1.0735 -1.6139
  335MOL0     H45194   7.039   5.807  11.482 -1.3210  2.0498 -3.0347
  335MOL0     H45195   7.105   5.675  11.227  1.4510 -1.2939  2.5352
  335MOL0     H45196   7.029   5.835  11.231  1.0862 -1.2693 -0.2639
  335MOL0     H45197   6.867   5.635  11.194  1.4788 -1.7636  0.1977
  335MOL0     H45198   6.919   5.573  11.351 -1.3476  1.3913  3.2798
  335MOL0     H45199   6.769   5.836  11.304 -0.5274 -1.8708 -2.5282
  335MOL0     H45200   6.817   5.778  11.469  0.9074 -1.0633  0.8799
  335MOL0     H45201   6.646   5.603  11.302 -1.6788  0.3162  0.0760
  335MOL0     H45202   6.718   5.584  11.457  2.0902  0.7738  0.2303
  335MOL0     H45203   6.575   5.790  11.535  0.7652  1.2863 -0.6325
  335MOL0     H45204   6.493   5.647  11.490  0.4028  0.9074  0.6015
  335MOL0     H45205   6.477   5.758  11.251 -0.5338 -0.4184  2.0928
  335MOL0     H45206   6.495   5.909  11.333  2.5226 -0.0948  0.9829
  335MOL0     H45207   7.443   5.999  11.404  1.9081  1.3777 -0.2208
  335MOL0     H45208   7.680   6.041  11.388  0.3301 -0.3922  0.4600
  335MOL0     H45209   8.052   6.068  11.255 -1.5247 -2.6503  1.2506
  335MOL0     H45210   8.273   6.143  11.199  0.7404  0.1499  2.9148
  335MOL0     H45211   9.486   4.930  10.534 -0.3251  0.3029  0.2977
  335MOL0     H45212   9.731   4.895  10.577  3.2339 -0.9212 -2.0806
  335MOL0     H45213  10.251   5.132  10.271  1.5810  0.5929 -0.1561
  335MOL0     H45214  10.475   5.072  10.307  1.0793 -0.8754 -1.0795
  335MOL0     H45215  10.565   4.960  10.678  0.1367  1.6583 -2.3863
  335MOL0     H45216  10.567   4.779  10.663 -1.7743  0.3100 -0.7276
  335MOL0     H45217  10.783   4.803  10.539 -0.7009 -1.0136 -0.4636
  335MOL0     H45218  10.798   4.813  10.712 -1.5331 -0.0032  0.0854
  335MOL0     H45219  10.806   5.067  10.683 -0.4028  1.4158 -0.3292
  335MOL0     H45220  10.763   5.046  10.508  1.6319 -1.7500 -1.9192
  335MOL0     H45221  10.962   4.920  10.470 -0.3430  2.3993 -1.5308
  335MOL0     H45222  11.001   4.952  10.640 -3.1910 -0.8764  0.9268
  335MOL0     H45223  11.091   5.320  10.418  0.8485 -0.5285 -0.1705
  335MOL0     H45224  10.348   4.779  10.601  3.3102  2.6770  1.5802
  335MOL0     H45225  10.106   4.841  10.531 -0.6060  0.0965 -1.0110
  336MOL0     O45226   5.458  10.853   0.860 -0.1162  0.6875 -0.6642
  336MOL0     C45227   5.477  10.732   0.838  0.1776 -0.1262 -0.4439
  336MOL0     O45228   5.376  10.639   0.824  0.4187  0.5846  0.5972
  336MOL0     C45229   5.242  10.680   0.833 -0.5655  0.3101 -0.2998
  336MOL0     C45230   5.169  10.617   0.732  0.1357  0.1122  0.6357
  336MOL0     C45231   5.032  10.649   0.723 -0.3142 -0.1927  0.2956
  336MOL0     C45232   4.973  10.732   0.810  0.6425 -0.7461 -0.0558
  336MOL0     O45233   4.842  10.779   0.806 -0.3929  0.3702  0.4079
  336MOL0     C45234   4.754  10.703   0.887  0.5263  0.5602 -0.4860
  336MOL0     C45235   4.637  10.787   0.922  0.9195 -0.6530  0.4933
  336MOL0     C45236   4.542  10.834   0.804 -0.1523  0.1713 -0.9851
  336MOL0     C45237   4.407  10.881   0.860 -0.3664 -0.2404  0.1583
  336MOL0     C45238   4.319  10.948   0.755 -0.1429 -0.4453 -0.0839
  336MOL0     C45239   4.200  11.013   0.816  0.5866  0.3751 -0.0816
  336MOL0     C45240   4.141  11.100   0.713 -0.3357 -0.7331 -0.0201
  336MOL0     C45241   4.117  11.064   0.568  0.6704  0.9980  0.9631
  336MOL0     N45242   4.072  11.170   0.482  0.0442  0.4521 -0.3486
  336MOL0     C45243   3.959  11.247   0.494  0.0948  0.4290 -0.0422
  336MOL0     C45244   3.952  11.314   0.372  1.0479 -0.0687 -0.6849
  336MOL0     C45245   3.835  11.394   0.325 -0.3986 -0.1095 -0.3219
  336MOL0     C45246   3.701  11.323   0.309 -0.8509  0.1943 -0.8481
  336MOL0     C45247   3.660  11.246   0.433  0.2242 -0.5552 -0.3606
  336MOL0     C45248   3.513  11.213   0.441 -0.6081 -0.1465  0.3147
  336MOL0     O45249   3.489  11.126   0.554 -0.5149 -0.4758 -0.0832
  336MOL0     C45250   3.358  11.102   0.579  0.7370  0.1206 -0.2509
  336MOL0     C45251   3.337  11.025   0.693 -0.4239  0.1936 -0.0548
  336MOL0     C45252   3.210  11.003   0.751 -0.9768  0.4455 -0.6054
  336MOL0     C45253   3.215  10.916   0.877  0.5249 -0.8994  0.1167
  336MOL0     C45254   3.099  11.053   0.683 -0.1428  0.3860 -0.3680
  336MOL0     C45255   2.955  11.025   0.728  0.1395 -0.7843  0.6583
  336MOL0     O45256   2.940  10.955   0.840 -0.5600 -0.1301 -0.5083
  336MOL0     C45257   2.809  10.920   0.868  0.2328  0.6366  0.4793
  336MOL0     C45258   2.746  10.820   0.795 -0.6850  0.6004  0.1548
  336MOL0     C45259   2.618  10.768   0.817  0.0402 -0.0551  0.4551
  336MOL0     C45260   2.540  10.823   0.919  0.0843  0.1012 -0.0558
  336MOL0     O45261   2.410  10.794   0.951 -1.0284  0.0177  0.0144
  336MOL0     C45262   2.353  10.689   0.870 -0.4318 -0.0929  0.4194
  336MOL0     C45263   2.211  10.665   0.915  0.7132  0.0402 -0.2597
  336MOL0     C45264   2.210  10.573   1.041  0.2705  0.2621  0.0753
  336MOL0     C45265   2.071  10.551   1.091 -0.7204 -0.3579  0.4573
  336MOL0     C45266   2.067  10.451   1.211  1.0096 -0.0532  0.2303
  336MOL0     C45267   2.112  10.310   1.163 -0.6244 -0.1028  0.2298
  336MOL0     C45268   2.017  10.245   1.062 -0.2908 -0.4901  0.5025
  336MOL0     C45269   2.057  10.103   1.034  0.6099 -0.0970  0.1499
  336MOL0    Cl45270   1.939  10.022   0.928 -0.1812 -0.0759 -0.1676
  336MOL0     C45271   2.592  10.932   0.989  0.3045  0.0296  0.4747
  336MOL0     C45272   2.724  10.979   0.962  0.3210 -0.0631 -0.6339
  336MOL0     O45273   2.857  11.072   0.666  0.4358  0.2017  0.1225
  336MOL0     C45274   3.116  11.127   0.568 -0.0555  0.6396 -0.5448
  336MOL0     C45275   3.241  11.154   0.519  0.2646  1.5889  0.5703
  336MOL0     N45276   4.050  11.270   0.283 -0.7693  0.2929 -0.1391
  336MOL0     N45277   4.128  11.187   0.353  0.5971 -0.1724 -0.8495
  336MOL0     C45278   5.047  10.791   0.916 -0.8615  0.0886 -0.0558
  336MOL0     C45279   5.179  10.768   0.925  0.6412  0.2622  1.1327
  336MOL0     C45280   5.614  10.686   0.826  0.2367 -0.1653  0.4923
  336MOL0     C45281   5.649  10.553   0.843  0.6265 -0.0259  0.4461
  336MOL0     C45282   5.781  10.505   0.839 -0.4562 -0.3190 -0.6210
  336MOL0     C45283   5.887  10.596   0.826  0.8534  1.0109  0.5127
  336MOL0     O45284   6.011  10.550   0.810 -0.2067 -0.2190  0.6882
  336MOL0     C45285   6.023  10.443   0.715  0.2582  0.6806  0.2100
  336MOL0     C45286   6.167  10.420   0.673  0.3373 -0.5347 -0.1961
  336MOL0     C45287   6.239  10.541   0.629 -0.4222 -0.6681 -0.7122
  336MOL0     C45288   6.385  10.533   0.614 -0.3055  0.3114 -0.1901
  336MOL0     C45289   6.458  10.656   0.581 -0.2429 -0.5591  0.4029
  336MOL0     C45290   6.504  10.768   0.564  0.2476  0.0787  0.7619
  336MOL0     C45291   5.851  10.734   0.820  0.1448  0.0331  0.5505
  336MOL0     C45292   5.721  10.777   0.814  0.8842 -0.2917  0.8461
  336MOL0     H45293   5.197  10.551   0.650  0.0736  4.3817 -3.2771
  336MOL0     H45294   4.975  10.614   0.637  0.9347 -1.4165 -0.0615
  336MOL0     H45295   4.730  10.609   0.837 -0.8099  0.3398  0.5270
  336MOL0     H45296   4.806  10.676   0.979 -1.2424 -1.8888 -0.1337
  336MOL0     H45297   4.570  10.735   0.989 -2.4119  1.3119 -1.0640
  336MOL0     H45298   4.677  10.882   0.960 -1.4816  0.4176  0.4962
  336MOL0     H45299   4.599  10.908   0.746  2.6641 -0.2930  1.0029
  336MOL0     H45300   4.519  10.742   0.749 -1.5892 -0.0043 -0.1232
  336MOL0     H45301   4.350  10.798   0.903 -0.5679  0.9261  2.3058
  336MOL0     H45302   4.430  10.958   0.934  3.0693  0.9145 -1.8858
  336MOL0     H45303   4.382  11.026   0.713  2.1641 -0.7198  2.5395
  336MOL0     H45304   4.293  10.881   0.673 -1.1115  0.1153 -0.2593
  336MOL0     H45305   4.122  10.941   0.840  1.3104 -1.3226 -2.4022
  336MOL0     H45306   4.244  11.080   0.890  0.1433  1.6337 -0.9386
  336MOL0     H45307   4.043  11.124   0.755 -0.8292 -0.6063 -1.2045
  336MOL0     H45308   4.197  11.193   0.702 -2.2162  0.4204 -0.2362
  336MOL0     H45309   4.036  10.990   0.571  1.6375 -0.0692  1.8751
  336MOL0     H45310   4.201  11.014   0.518 -2.1301 -2.9714 -0.3074
  336MOL0     H45311   3.879  11.246   0.567 -2.0708 -0.0215 -2.2731
  336MOL0     H45312   3.820  11.476   0.396  4.1556 -0.5590  1.5568
  336MOL0     H45313   3.863  11.449   0.235  0.0751  3.8284  1.9837
  336MOL0     H45314   3.704  11.256   0.223 -0.4210 -2.6303  1.2206
  336MOL0     H45315   3.619  11.393   0.289 -1.4973 -0.0720  0.7259
  336MOL0     H45316   3.687  11.300   0.525 -3.0608 -2.3513  1.8694
  336MOL0     H45317   3.707  11.148   0.440  2.6960  0.4782 -1.3137
  336MOL0     H45318   3.469  11.159   0.356 -2.5229 -1.9018  2.3061
  336MOL0     H45319   3.462  11.309   0.453  1.3081  1.5154 -3.0987
  336MOL0     H45320   3.423  10.991   0.750 -1.4010 -1.9795  0.2119
  336MOL0     H45321   3.157  10.825   0.860  0.3477 -0.7836  0.1003
  336MOL0     H45322   3.318  10.881   0.891  0.4216 -1.6601 -0.8694
  336MOL0     H45323   3.197  10.974   0.968  0.5466  3.1400 -2.2041
  336MOL0     H45324   2.812  10.771   0.724 -0.4626  0.0206  0.7525
  336MOL0     H45325   2.592  10.684   0.753  0.6170 -1.4098  1.9134
  336MOL0     H45326   2.358  10.716   0.764 -3.1310 -0.3007  0.1624
  336MOL0     H45327   2.412  10.598   0.889  0.4385  0.0477 -1.4456
  336MOL0     H45328   2.150  10.755   0.907 -0.4522 -0.7865 -0.9579
  336MOL0     H45329   2.167  10.609   0.832  0.5966 -0.2984  0.0261
  336MOL0     H45330   2.271  10.618   1.120 -0.4611  0.9144  0.2815
  336MOL0     H45331   2.268  10.482   1.020  0.8253  0.7190 -0.3836
  336MOL0     H45332   2.043  10.646   1.137  2.0711  0.9076 -0.2339
  336MOL0     H45333   2.005  10.523   1.008  0.1164  0.0998 -0.3749
  336MOL0     H45334   1.964  10.444   1.248  1.1919 -0.0475  0.7466
  336MOL0     H45335   2.132  10.484   1.293  0.3675  1.4952  0.1652
  336MOL0     H45336   2.214  10.316   1.125 -0.1860 -1.7150  1.0474
  336MOL0     H45337   2.119  10.244   1.250  0.7742  0.7222  0.7780
  336MOL0     H45338   2.013  10.295   0.965 -1.1814 -1.1404  0.1839
  336MOL0     H45339   1.916  10.233   1.102 -0.0914 -1.0483  0.8502
  336MOL0     H45340   2.048  10.045   1.126 -2.9247 -1.5938 -0.9353
  336MOL0     H45341   2.160  10.091   0.999  0.6116 -5.3724  1.1683
  336MOL0     H45342   2.530  10.983   1.062 -0.3997 -0.0388 -0.0624
  336MOL0     H45343   2.768  11.059   1.021 -1.6941  0.8561 -0.2938
  336MOL0     H45344   3.033  11.185   0.528 -0.9087  0.3037  0.6862
  336MOL0     H45345   3.249  11.215   0.429 -3.4881 -2.4979 -3.0497
  336MOL0     H45346   4.997  10.861   0.983  1.2182  0.9605  0.6612
  336MOL0     H45347   5.231  10.833   0.994  1.3813 -2.0731  2.8638
  336MOL0     H45348   5.576  10.475   0.863  0.6590 -0.3170 -0.5142
  336MOL0     H45349   5.796  10.399   0.859  1.6523  0.5228  3.5619
  336MOL0     H45350   5.978  10.357   0.767  1.6578 -0.7763 -0.8768
  336MOL0     H45351   5.963  10.456   0.625 -0.4900 -1.2537  0.3890
  336MOL0     H45352   6.156  10.354   0.586 -0.0375  1.1420 -1.4901
  336MOL0     H45353   6.225  10.367   0.748 -1.1768  0.9857  2.1721
  336MOL0     H45354   6.222  10.626   0.696  2.5163 -1.0471  0.6851
  336MOL0     H45355   6.201  10.573   0.532  1.7367  2.5292 -0.6830
  336MOL0     H45356   6.413  10.466   0.532  3.7623 -0.5834  1.6541
  336MOL0     H45357   6.441  10.494   0.700  0.8789  3.7008  0.7241
  336MOL0     H45358   6.538  10.868   0.546  0.1388 -0.0699 -0.3514
  336MOL0     H45359   5.931  10.804   0.796  1.3979 -0.9140  1.8043
  336MOL0     H45360   5.713  10.885   0.805 -0.2853 -0.4270  0.0410
  337MOL0     O45361   2.585   8.103  10.873  0.3283 -0.3231  0.4589
  337MOL0     C45362   2.670   8.101  10.959  0.1758  0.5687  0.3173
  337MOL0     O45363   2.645   8.049  11.090  0.3744  0.8146  0.2835
  337MOL0     C45364   2.520   8.009  11.138 -0.9407 -0.6441  0.6720
  337MOL0     C45365   2.535   7.961  11.274 -0.3737  0.1350  0.0811
  337MOL0     C45366   2.423   7.908  11.339 -0.3048 -0.0986  0.5254
  337MOL0     C45367   2.300   7.889  11.272  0.5240 -0.2821  0.0986
  337MOL0     O45368   2.190   7.827  11.325 -0.4398  0.3704 -0.6212
  337MOL0     C45369   2.203   7.727  11.432 -0.9787 -1.0767 -0.0955
  337MOL0     C45370   2.068   7.657  11.450  0.4511 -1.0824  0.5299
  337MOL0     C45371   2.020   7.571  11.336 -0.8442  0.2538  0.3453
  337MOL0     C45372   1.872   7.593  11.323 -0.0425 -0.6690 -0.5531
  337MOL0     C45373   1.833   7.532  11.188  0.5292  0.6507  0.9179
  337MOL0     C45374   1.689   7.555  11.140  0.1957 -0.0232 -0.7140
  337MOL0     C45375   1.670   7.477  11.018 -0.0576 -0.0268  1.1567
  337MOL0     C45376   1.539   7.511  10.935 -1.0865 -0.2956  0.6433
  337MOL0     N45377   1.417   7.488  11.016 -0.1753  0.4902  1.1286
  337MOL0     C45378   1.308   7.580  11.021  0.0411 -0.2727  0.1172
  337MOL0     C45379   1.222   7.527  11.109 -0.0234  0.9122  0.4189
  337MOL0     C45380   1.090   7.583  11.152 -0.3812  0.7283  0.1421
  337MOL0     C45381   1.092   7.734  11.180 -0.2792 -0.4544 -0.0377
  337MOL0     C45382   0.959   7.764  11.239 -0.0424 -0.3830  0.1709
  337MOL0     C45383   0.943   7.912  11.239  0.5582 -0.5945 -0.6066
  337MOL0     O45384   0.926   7.952  11.101 -0.2538 -0.6714 -0.1876
  337MOL0     C45385   0.873   8.076  11.072 -0.7124 -0.0197  0.1631
  337MOL0     C45386   0.847   8.177  11.168  0.0516  0.0520  0.9927
  337MOL0     C45387   0.792   8.294  11.124 -1.0576 -0.4370  0.5103
  337MOL0     C45388   0.765   8.399  11.229  0.1564 -0.3182  0.2153
  337MOL0     C45389   0.745   8.316  10.988  0.1840  0.5796  1.0980
  337MOL0     C45390   0.689   8.440  10.935  0.6032  0.1286 -0.3990
  337MOL0     O45391   0.717   8.563  10.994  0.0499 -0.2568 -0.2574
  337MOL0     C45392   0.614   8.657  10.972 -0.2175 -0.3231 -0.0499
  337MOL0     C45393   0.534   8.693  11.078  0.3267  0.3479  0.6120
  337MOL0     C45394   0.419   8.773  11.064 -0.2236 -0.5665  0.4633
  337MOL0     C45395   0.389   8.833  10.937 -0.1022  1.0573 -0.6612
  337MOL0     O45396   0.281   8.916  10.931 -0.1864  0.2267  0.0563
  337MOL0     C45397   0.295   9.023  10.830  0.4054  0.0957  0.1149
  337MOL0     C45398   0.192   9.134  10.858 -0.0381 -0.5249 -0.5756
  337MOL0     C45399   0.219   9.258  10.776  0.0081  0.0270  0.1896
  337MOL0     C45400   0.127   9.372  10.802  0.1073  0.3784  0.5704
  337MOL0     C45401   0.138   9.505  10.713  0.1537  0.2434 -0.9030
  337MOL0     C45402   0.019   9.597  10.743 -0.2789  0.1466  0.7157
  337MOL0     C45403  -0.124   9.547  10.736 -0.6794  0.2426 -0.4773
  337MOL0     C45404  -0.221   9.658  10.726 -0.3239 -0.3236 -0.4333
  337MOL0    Cl45405  -0.253   9.752  10.883 -0.1206 -0.4378 -0.2404
  337MOL0     C45406   0.479   8.804  10.830  0.4407  0.0367 -0.4429
  337MOL0     C45407   0.587   8.714  10.848  0.5943  0.9185 -0.1166
  337MOL0     O45408   0.622   8.430  10.832  0.8136  0.4278  0.2903
  337MOL0     C45409   0.771   8.206  10.893  0.8788 -0.0351  0.3766
  337MOL0     C45410   0.832   8.089  10.938  0.4260  0.3505 -0.3598
  337MOL0     N45411   1.284   7.416  11.163  0.0540  0.4098  0.7920
  337MOL0     N45412   1.392   7.382  11.097 -0.2834  0.0485  0.3274
  337MOL0     C45413   2.288   7.938  11.150  0.6473  0.0332  0.0077
  337MOL0     C45414   2.390   8.000  11.076  0.6787 -0.7611 -0.2588
  337MOL0     C45415   2.805   8.136  10.930 -0.7880  0.0171  0.0571
  337MOL0     C45416   2.832   8.235  10.841  0.3299  0.4975 -0.2701
  337MOL0     C45417   2.964   8.275  10.824 -0.1786  0.1091 -0.2718
  337MOL0     C45418   3.073   8.230  10.893 -0.0920  0.0163  0.5858
  337MOL0     O45419   3.204   8.266  10.874 -0.2664  0.8811  0.6439
  337MOL0     C45420   3.230   8.388  10.789  0.4456  0.3220 -0.5385
  337MOL0     C45421   3.373   8.440  10.828  0.2854 -0.2269  0.1305
  337MOL0     C45422   3.401   8.506  10.967 -0.2039 -0.0416 -0.6539
  337MOL0     C45423   3.335   8.640  10.994 -0.4103 -0.2871  0.5818
  337MOL0     C45424   3.423   8.738  10.918  0.8123 -0.7946  0.2476
  337MOL0     C45425   3.492   8.802  10.839  0.6076  0.2600 -0.5205
  337MOL0     C45426   3.046   8.129  10.987 -0.0115 -0.3727 -0.7630
  337MOL0     C45427   2.917   8.072  10.997  1.0579 -0.1302  1.4020
  337MOL0     H45428   2.637   7.975  11.307  0.3889  1.0879 -2.4189
  337MOL0     H45429   2.444   7.863  11.436 -2.6463 -0.4378  0.9446
  337MOL0     H45430   2.272   7.643  11.419  0.3906  0.1409 -1.1043
  337MOL0     H45431   2.232   7.777  11.525  4.7508  2.1679 -3.0755
  337MOL0     H45432   2.077   7.594  11.539  1.6001  0.9105  1.9012
  337MOL0     H45433   1.992   7.732  11.469  3.0815  1.8596  0.3311
  337MOL0     H45434   2.078   7.597  11.248 -1.8276 -1.8387 -1.0021
  337MOL0     H45435   2.045   7.466  11.353 -0.0279  0.0958 -1.5755
  337MOL0     H45436   1.822   7.551  11.411  2.5308 -2.3763  0.2118
  337MOL0     H45437   1.842   7.698  11.312 -1.0709 -0.4439  3.0298
  337MOL0     H45438   1.892   7.564  11.102 -0.3366 -1.4628 -0.5189
  337MOL0     H45439   1.843   7.424  11.200 -2.2116 -0.0891 -2.0258
  337MOL0     H45440   1.620   7.528  11.220 -0.0863  1.2014 -0.5291
  337MOL0     H45441   1.680   7.662  11.120  1.7848  0.7073  1.9548
  337MOL0     H45442   1.760   7.485  10.956 -0.4607 -0.3475  0.5092
  337MOL0     H45443   1.678   7.369  11.035  0.2610  0.0973  1.8128
  337MOL0     H45444   1.523   7.466  10.837 -0.8822  0.4796  0.2416
  337MOL0     H45445   1.557   7.618  10.921 -0.9667 -0.5550 -1.4568
  337MOL0     H45446   1.293   7.676  10.973  0.4867  0.7271  1.9048
  337MOL0     H45447   1.006   7.545  11.092  1.4932  0.7994 -2.7610
  337MOL0     H45448   1.072   7.540  11.250  1.6898 -3.2548 -1.0010
  337MOL0     H45449   1.114   7.789  11.088 -0.0564 -0.8318 -0.2116
  337MOL0     H45450   1.168   7.748  11.257  1.2031 -2.7576 -0.9920
  337MOL0     H45451   0.970   7.742  11.345 -0.1078  1.1113  0.5042
  337MOL0     H45452   0.872   7.707  11.203 -1.5130  1.5027  0.5506
  337MOL0     H45453   1.034   7.959  11.277 -0.3003  0.3806  0.3168
  337MOL0     H45454   0.856   7.937  11.301 -0.2459 -0.0250 -1.9156
  337MOL0     H45455   0.872   8.170  11.273 -3.1396  2.8711  2.1374
  337MOL0     H45456   0.841   8.477  11.223  0.2166 -0.4769 -2.2269
  337MOL0     H45457   0.670   8.448  11.206  2.0119  2.9893 -1.0264
  337MOL0     H45458   0.762   8.369  11.334  0.1361  0.3101  0.3952
  337MOL0     H45459   0.552   8.643  11.172 -1.6312 -1.5942  0.0381
  337MOL0     H45460   0.346   8.787  11.144  2.1050  3.5519  2.1944
  337MOL0     H45461   0.392   9.073  10.828 -0.8263  2.7906  1.9403
  337MOL0     H45462   0.272   8.985  10.729  1.0233  0.4708 -0.1746
  337MOL0     H45463   0.087   9.102  10.858 -0.7547  1.6611  0.4346
  337MOL0     H45464   0.204   9.172  10.960  1.8264  1.8746 -1.6187
  337MOL0     H45465   0.193   9.233  10.673 -1.5010  0.0067  0.5538
  337MOL0     H45466   0.322   9.293  10.774  0.1630 -0.1645 -4.2582
  337MOL0     H45467   0.028   9.328  10.791 -0.3809  1.9519 -1.9430
  337MOL0     H45468   0.132   9.405  10.906 -3.5150  0.9661  0.6598
  337MOL0     H45469   0.129   9.474  10.609  0.2305 -2.3972 -0.1882
  337MOL0     H45470   0.235   9.553  10.730 -0.7374  2.3433 -1.4268
  337MOL0     H45471   0.034   9.648  10.839 -3.0204  1.5472  0.5146
  337MOL0     H45472   0.019   9.671  10.663  1.2077 -1.4592 -0.8523
  337MOL0     H45473  -0.141   9.486  10.825  0.4940 -0.0063 -0.4052
  337MOL0     H45474  -0.120   9.498  10.639 -0.8107 -0.7426  0.0023
  337MOL0     H45475  -0.312   9.630  10.672 -0.2242 -1.4282 -0.0576
  337MOL0     H45476  -0.179   9.733  10.658  0.2752  1.4371  1.7504
  337MOL0     H45477   0.467   8.845  10.731 -0.6221  1.5754  0.2803
  337MOL0     H45478   0.653   8.674  10.771 -0.1959  3.4625 -2.2510
  337MOL0     H45479   0.737   8.208  10.790  1.0346 -2.2885  0.2251
  337MOL0     H45480   0.853   8.011  10.865  3.4228  0.4312  0.2976
  337MOL0     H45481   2.194   7.924  11.098  0.8876 -0.7327 -0.2349
  337MOL0     H45482   2.372   8.041  10.978 -0.3239  3.8794  1.5894
  337MOL0     H45483   2.752   8.296  10.800  2.4631  3.0869 -0.8253
  337MOL0     H45484   2.976   8.358  10.755 -1.4130  0.8411  0.3738
  337MOL0     H45485   3.235   8.357  10.684  0.9128 -1.4280 -0.0312
  337MOL0     H45486   3.158   8.470  10.801  0.1872 -0.3614  5.0506
  337MOL0     H45487   3.400   8.515  10.753  1.7363 -1.3474 -0.5210
  337MOL0     H45488   3.442   8.356  10.814 -0.7264 -1.2668  1.1626
  337MOL0     H45489   3.508   8.521  10.985 -0.4609 -0.5003  1.5620
  337MOL0     H45490   3.354   8.432  11.033 -1.9017 -1.0843 -2.8976
  337MOL0     H45491   3.320   8.667  11.099  0.9800 -0.0835  0.7528
  337MOL0     H45492   3.235   8.642  10.949  0.7432  3.1381 -2.3895
  337MOL0     H45493   3.544   8.863  10.767  0.5359  0.9645  0.0153
  337MOL0     H45494   3.137   8.094  11.035 -0.3286  2.3069  2.0532
  337MOL0     H45495   2.912   7.997  11.076 -0.2630  0.1830  1.6386
  338MOL0     O45496  10.910   4.443  10.347  0.0102 -0.1107 -0.4751
  338MOL0     C45497  10.921   4.325  10.392 -0.6242 -0.2019  0.0606
  338MOL0     O45498  10.816   4.255  10.444 -0.4993  0.2647  0.8816
  338MOL0     C45499  10.693   4.321  10.448 -0.8771  0.2586 -0.0070
  338MOL0     C45500  10.662   4.438  10.532  0.6786  0.4659 -0.1313
  338MOL0     C45501  10.531   4.498  10.528  0.0178  0.1626 -1.2777
  338MOL0     C45502  10.435   4.444  10.451 -0.7818 -0.1887 -0.4190
  338MOL0     O45503  10.321   4.510  10.461  0.3383 -0.4812  0.1326
  338MOL0     C45504  10.217   4.462  10.372  0.4669  0.5019  0.0728
  338MOL0     C45505  10.101   4.546  10.362  0.4505  0.1686  1.4481
  338MOL0     C45506  10.006   4.512  10.244  0.6100  0.0874  0.4629
  338MOL0     C45507   9.868   4.593  10.252 -0.6500  0.5672  0.6507
  338MOL0     C45508   9.767   4.545  10.142 -1.0228  0.2337  0.2444
  338MOL0     C45509   9.645   4.633  10.143  0.2319  0.2231 -0.6126
  338MOL0     C45510   9.523   4.565  10.070 -0.1926 -0.2276 -0.8586
  338MOL0     C45511   9.532   4.584   9.920 -0.6961  0.3114  0.3835
  338MOL0     N45512   9.403   4.590   9.858  0.4540 -0.4815  0.0857
  338MOL0     C45513   9.322   4.486   9.810 -0.5433  0.0984  0.1353
  338MOL0     C45514   9.205   4.551   9.760 -0.7717  0.4746 -0.0121
  338MOL0     C45515   9.093   4.486   9.687 -0.2896 -1.0150  0.3677
  338MOL0     C45516   8.971   4.470   9.779 -0.5821  0.1937 -0.6165
  338MOL0     C45517   8.999   4.384   9.900  0.3620 -0.1455 -0.1083
  338MOL0     C45518   8.878   4.326   9.977 -0.4399 -1.4026  0.4406
  338MOL0     O45519   8.825   4.216   9.893 -0.1425  0.2923  0.3395
  338MOL0     C45520   8.693   4.194   9.908  0.2914 -0.2486  0.3481
  338MOL0     C45521   8.604   4.241   9.997 -0.3939  0.5248  0.0566
  338MOL0     C45522   8.469   4.223   9.997 -0.0481  0.9035  0.0424
  338MOL0     C45523   8.389   4.296  10.108 -0.1939  0.3116  0.2256
  338MOL0     C45524   8.410   4.151   9.885 -0.4319 -0.3655 -0.0649
  338MOL0     C45525   8.264   4.129   9.860 -0.1713  0.3210 -0.2174
  338MOL0     O45526   8.173   4.180   9.947 -0.4833 -0.5510 -0.1135
  338MOL0     C45527   8.039   4.158   9.937 -0.0813 -0.1295  0.7986
  338MOL0     C45528   7.980   4.042   9.982  1.1759  0.0379  0.0236
  338MOL0     C45529   7.844   4.026   9.995 -0.9196 -0.6411  0.1241
  338MOL0     C45530   7.757   4.132   9.944  0.0899 -0.2648  0.0327
  338MOL0     O45531   7.620   4.118   9.941 -0.2538 -0.1739  0.0789
  338MOL0     C45532   7.558   4.035  10.040  0.1643  0.1047 -0.1906
  338MOL0     C45533   7.426   4.095  10.077  0.1113  0.4472 -0.0727
  338MOL0     C45534   7.436   4.239  10.103  0.0863  0.0696  0.4886
  338MOL0     C45535   7.305   4.287  10.167 -0.4358  0.0604  1.1486
  338MOL0     C45536   7.329   4.419  10.241 -0.6175  0.3059  0.0858
  338MOL0     C45537   7.405   4.534  10.175 -0.0643  0.3289  0.0477
  338MOL0     C45538   7.357   4.571  10.038  0.9552  0.2546  0.6568
  338MOL0     C45539   7.373   4.716   9.994 -0.6407  0.0080 -0.2452
  338MOL0    Cl45540   7.541   4.757  10.026 -0.2187  0.4054  0.0008
  338MOL0     C45541   7.816   4.239   9.874 -0.3752 -0.0546 -0.5766
  338MOL0     C45542   7.951   4.256   9.880  0.2365 -0.1285 -0.8671
  338MOL0     O45543   8.236   4.057   9.763 -0.8316 -0.5042 -0.1121
  338MOL0     C45544   8.499   4.102   9.788  1.1339 -0.2900 -0.0028
  338MOL0     C45545   8.632   4.122   9.798  0.3640 -0.1254 -0.0012
  338MOL0     N45546   9.218   4.688   9.789 -0.2710  0.8691 -0.2424
  338MOL0     N45547   9.333   4.706   9.845 -0.0778 -0.4168  0.0134
  338MOL0     C45548  10.459   4.326  10.381 -0.8357 -0.7557  1.1630
  338MOL0     C45549  10.588   4.271  10.378 -0.7280 -0.5611  0.9871
  338MOL0     C45550  11.055   4.262  10.382 -0.1340  0.6001  0.3548
  338MOL0     C45551  11.164   4.328  10.330 -0.1078  0.4218  0.6217
  338MOL0     C45552  11.293   4.272  10.328 -0.5433  0.3183 -0.3407
  338MOL0     C45553  11.323   4.147  10.385  0.2929 -0.2822  0.3704
  338MOL0     O45554  11.458   4.118  10.393 -0.7583  0.1165  0.1208
  338MOL0     C45555  11.500   3.992  10.435  0.0516  0.3590  0.4318
  338MOL0     C45556  11.640   3.943  10.385  0.6685  0.5973 -0.0557
  338MOL0     C45557  11.743   4.053  10.410 -0.4011 -0.2257 -0.3164
  338MOL0     C45558  11.875   4.010  10.348 -0.1279 -0.4647 -0.0628
  338MOL0     C45559  11.942   4.137  10.313  0.3268  0.9937  0.3486
  338MOL0     C45560  12.002   4.241  10.303  0.0866 -0.7589 -0.2575
  338MOL0     C45561  11.213   4.078  10.431  0.2801 -0.4350 -0.5075
  338MOL0     C45562  11.083   4.135  10.432 -0.4070  0.4436  0.9563
  338MOL0     H45563  10.748   4.490  10.573  2.7541  0.1298 -3.6813
  338MOL0     H45564  10.526   4.590  10.585  3.4899 -0.3829  0.1380
  338MOL0     H45565  10.254   4.450  10.270  1.2103 -1.4029  0.5332
  338MOL0     H45566  10.177   4.365  10.402 -0.0106  0.9037  0.7691
  338MOL0     H45567  10.038   4.530  10.449 -3.3155 -1.1520 -1.2707
  338MOL0     H45568  10.122   4.653  10.354 -0.6238  0.2658 -0.8518
  338MOL0     H45569  10.065   4.538  10.156  1.3941  0.5092  1.0933
  338MOL0     H45570   9.987   4.404  10.245  1.6335 -0.1032  1.3874
  338MOL0     H45571   9.814   4.596  10.347 -0.8812 -0.4647  0.5648
  338MOL0     H45572   9.885   4.699  10.231 -0.0841  0.1409 -1.2125
  338MOL0     H45573   9.811   4.557  10.042  1.7149  0.0977  1.3503
  338MOL0     H45574   9.736   4.441  10.150 -4.7078  1.2149  0.4845
  338MOL0     H45575   9.608   4.646  10.246 -3.0288 -0.1858 -1.6069
  338MOL0     H45576   9.663   4.732  10.101 -1.6537  0.0955 -1.8513
  338MOL0     H45577   9.523   4.458  10.094 -0.9433  0.1174  0.8425
  338MOL0     H45578   9.431   4.618  10.094 -1.5455 -2.3549 -1.1505
  338MOL0     H45579   9.572   4.492   9.876 -0.6030 -0.3388  1.7864
  338MOL0     H45580   9.597   4.670   9.898  0.3570 -0.1583  1.5234
  338MOL0     H45581   9.334   4.379   9.803 -1.5033 -0.0412  0.4901
  338MOL0     H45582   9.066   4.562   9.613  2.5244 -1.0576 -0.8542
  338MOL0     H45583   9.122   4.385   9.655  0.7377 -0.0880 -1.8581
  338MOL0     H45584   8.897   4.416   9.720 -1.9218  0.2581  0.9532
  338MOL0     H45585   8.926   4.564   9.810 -0.6195 -0.7447  2.4973
  338MOL0     H45586   9.062   4.447   9.964 -0.6091  1.7386 -0.9589
  338MOL0     H45587   9.058   4.296   9.872  0.0857 -0.1640 -0.6450
  338MOL0     H45588   8.800   4.401   9.994 -0.9410 -1.3642 -1.7332
  338MOL0     H45589   8.919   4.286  10.070 -0.1025 -1.1565  0.3978
  338MOL0     H45590   8.649   4.293  10.081 -0.5048 -0.0683  0.4893
  338MOL0     H45591   8.339   4.220  10.170  1.5009  1.4414  3.1910
  338MOL0     H45592   8.448   4.368  10.165  0.9647  1.5065 -2.3202
  338MOL0     H45593   8.316   4.355  10.052 -1.2797 -0.4086  0.8352
  338MOL0     H45594   8.035   3.954  10.015 -0.7333 -2.0925 -2.1135
  338MOL0     H45595   7.799   3.936  10.037 -0.0060 -1.7358 -1.1469
  338MOL0     H45596   7.539   3.936   9.997 -1.2599 -0.0148  0.6394
  338MOL0     H45597   7.615   4.012  10.130  1.7547 -2.5672 -1.7368
  338MOL0     H45598   7.354   4.088   9.995  0.5777 -1.3297 -0.3612
  338MOL0     H45599   7.390   4.032  10.159  2.3100  2.3948  2.5803
  338MOL0     H45600   7.465   4.290  10.011 -0.2142 -1.6288 -0.5903
  338MOL0     H45601   7.508   4.254  10.184 -1.2991  0.5540  1.6901
  338MOL0     H45602   7.224   4.292  10.093 -2.2696 -1.3506  2.9287
  338MOL0     H45603   7.269   4.212  10.238 -1.8935 -1.7713 -1.3227
  338MOL0     H45604   7.400   4.395  10.321  0.7382 -1.6076 -1.5918
  338MOL0     H45605   7.234   4.454  10.282  0.5363  1.1070  2.2777
  338MOL0     H45606   7.401   4.621  10.241 -2.4563  1.4923 -1.4868
  338MOL0     H45607   7.510   4.505  10.165  0.3260  1.8508 -0.4052
  338MOL0     H45608   7.252   4.542  10.035  0.6688  1.2589  0.5232
  338MOL0     H45609   7.414   4.518   9.961 -2.6236  1.2411 -3.0292
  338MOL0     H45610   7.317   4.789  10.052  1.9717  1.2082  0.9136
  338MOL0     H45611   7.346   4.729   9.889 -1.0135  2.0707  0.0665
  338MOL0     H45612   7.759   4.314   9.819  1.5947  0.9906 -1.2802
  338MOL0     H45613   8.000   4.345   9.842  1.3430  0.4429  1.6454
  338MOL0     H45614   8.462   4.051   9.699  1.0880 -2.6143  1.2856
  338MOL0     H45615   8.690   4.092   9.711 -1.5157 -1.7128 -0.7979
  338MOL0     H45616  10.387   4.283  10.313  1.7872 -2.0473 -1.0100
  338MOL0     H45617  10.595   4.185  10.312  2.4847  0.7522 -0.6467
  338MOL0     H45618  11.162   4.432  10.299 -0.1766  0.0267 -0.7483
  338MOL0     H45619  11.383   4.323  10.297  2.4309 -3.7709  0.6822
  338MOL0     H45620  11.507   3.996  10.544 -0.9753  1.9232  0.4634
  338MOL0     H45621  11.425   3.914  10.417 -0.0538  0.9497 -2.0893
  338MOL0     H45622  11.643   3.906  10.282 -1.3469  0.0145  0.0548
  338MOL0     H45623  11.663   3.855  10.445  0.2192  0.1191 -0.5795
  338MOL0     H45624  11.761   4.067  10.517  0.2978 -0.0463 -0.4563
  338MOL0     H45625  11.710   4.151  10.372 -3.5249 -0.6509  0.9386
  338MOL0     H45626  11.855   3.951  10.258 -0.4256 -0.6882  0.1461
  338MOL0     H45627  11.943   3.949  10.407  2.0106  1.8541  0.0312
  338MOL0     H45628  12.049   4.336  10.293 -1.4528  0.0756  0.0600
  338MOL0     H45629  11.229   3.997  10.502  3.5801 -0.6945 -1.3813
  338MOL0     H45630  11.001   4.084  10.481  0.6826 -1.7255  0.6517
  339MOL0     O45631   7.487   7.745   8.524  0.0035  0.0862 -0.3423
  339MOL0     C45632   7.541   7.797   8.426  0.4609 -0.0115 -0.4372
  339MOL0     O45633   7.473   7.861   8.332  0.0444  0.0947 -0.7814
  339MOL0     C45634   7.340   7.893   8.338  0.0594  0.4942 -0.1456
  339MOL0     C45635   7.274   7.914   8.221  1.0081 -0.3446 -0.0188
  339MOL0     C45636   7.151   7.980   8.211  0.8432  0.3060 -0.3287
  339MOL0     C45637   7.082   8.005   8.330  0.6178 -0.1536  0.4143
  339MOL0     O45638   6.951   8.050   8.335  0.0350 -0.3524  0.1422
  339MOL0     C45639   6.875   8.069   8.213 -0.7686 -0.2733  0.2091
  339MOL0     C45640   6.747   8.163   8.241 -0.5950  0.3888 -0.0883
  339MOL0     C45641   6.663   8.131   8.366 -0.0740  0.8817  0.5368
  339MOL0     C45642   6.512   8.148   8.330  0.1383  0.5000 -0.0944
  339MOL0     C45643   6.457   8.296   8.333 -0.0434  0.2148 -0.1462
  339MOL0     C45644   6.319   8.290   8.276  0.0741  0.0751 -0.0340
  339MOL0     C45645   6.271   8.444   8.256 -0.2729  0.0779  1.9866
  339MOL0     C45646   6.128   8.461   8.211 -0.5012 -0.1853 -0.2233
  339MOL0     N45647   6.025   8.396   8.301  0.1560 -0.3178  0.0534
  339MOL0     C45648   6.024   8.414   8.439  0.1271 -0.5067  0.0534
  339MOL0     C45649   5.903   8.376   8.486  0.2809 -0.3974  0.2272
  339MOL0     C45650   5.862   8.391   8.638  0.0947 -0.5117  0.9949
  339MOL0     C45651   5.743   8.474   8.661 -0.0562 -0.5670 -0.2723
  339MOL0     C45652   5.736   8.593   8.569 -0.3797 -0.5323 -0.7347
  339MOL0     C45653   5.605   8.678   8.591  0.0540  0.1678  0.3645
  339MOL0     O45654   5.497   8.596   8.550  0.6921  0.2250 -0.0180
  339MOL0     C45655   5.390   8.680   8.524  0.4236  0.5070 -0.1751
  339MOL0     C45656   5.321   8.762   8.616 -1.0008  0.5490  0.3629
  339MOL0     C45657   5.205   8.833   8.597  0.1292  0.1524  0.7079
  339MOL0     C45658   5.158   8.920   8.712  0.8677  0.2284  0.0095
  339MOL0     C45659   5.141   8.812   8.468  0.2320 -0.6815 -0.3774
  339MOL0     C45660   5.008   8.876   8.439  0.4107  0.8587 -0.1707
  339MOL0     O45661   4.962   8.861   8.309  0.0593 -0.4971 -0.0559
  339MOL0     C45662   4.832   8.895   8.287 -0.1879  0.3370  0.1327
  339MOL0     C45663   4.725   8.858   8.367  0.2086 -0.3723 -0.2495
  339MOL0     C45664   4.598   8.905   8.332  0.3776  0.2979  0.4663
  339MOL0     C45665   4.577   8.980   8.210 -0.4009 -1.1200 -1.0533
  339MOL0     O45666   4.452   9.037   8.203  0.0759  0.0122 -0.6212
  339MOL0     C45667   4.369   8.977   8.107 -0.0246 -0.2650  1.1368
  339MOL0     C45668   4.240   8.953   8.187  1.1855 -0.2527  0.5544
  339MOL0     C45669   4.119   8.892   8.107  0.3152 -0.6232 -0.8276
  339MOL0     C45670   3.986   8.865   8.185  0.9283  0.0043  0.7043
  339MOL0     C45671   3.916   8.991   8.224  0.1936  0.9233  0.7143
  339MOL0     C45672   3.839   9.057   8.108 -0.0122 -0.8386  0.1196
  339MOL0     C45673   3.745   9.177   8.157  0.4840 -0.5199 -0.3432
  339MOL0     C45674   3.601   9.147   8.181  0.6289  0.6394 -0.9429
  339MOL0    Cl45675   3.500   9.123   8.028 -0.2599  0.8313  0.4042
  339MOL0     C45676   4.687   9.005   8.125 -0.3512  0.1074 -0.3909
  339MOL0     C45677   4.813   8.965   8.163  0.4766 -0.3612  1.1680
  339MOL0     O45678   4.951   8.944   8.524  0.7690  0.3101  0.3501
  339MOL0     C45679   5.212   8.749   8.366  0.2343 -0.0081 -0.1816
  339MOL0     C45680   5.329   8.676   8.401 -0.1722 -0.7183 -0.3198
  339MOL0     N45681   5.828   8.328   8.379  0.0923  0.2174 -0.3836
  339MOL0     N45682   5.897   8.356   8.269  0.4390 -1.1459 -0.2675
  339MOL0     C45683   7.148   7.987   8.450  0.0771 -0.1059  1.0504
  339MOL0     C45684   7.276   7.929   8.451  0.1270 -0.2720  0.0550
  339MOL0     C45685   7.688   7.775   8.405  0.7402  0.8872 -0.8614
  339MOL0     C45686   7.764   7.857   8.338 -0.0333 -0.5540  0.1011
  339MOL0     C45687   7.892   7.833   8.302 -0.6481 -1.5181  0.0290
  339MOL0     C45688   7.966   7.725   8.355 -0.0989  0.2023 -0.3091
  339MOL0     O45689   8.098   7.697   8.331  1.0654 -0.4617 -0.8571
  339MOL0     C45690   8.193   7.811   8.340 -0.7466 -0.0992 -0.3576
  339MOL0     C45691   8.248   7.835   8.480  0.9276  0.6309 -0.1023
  339MOL0     C45692   8.327   7.711   8.546 -0.3353 -0.7364 -0.3577
  339MOL0     C45693   8.485   7.707   8.522  0.9184  1.2228 -0.5271
  339MOL0     C45694   8.539   7.835   8.579 -0.2260  0.1035  0.5601
  339MOL0     C45695   8.581   7.944   8.615 -0.3855 -0.0940 -0.1409
  339MOL0     C45696   7.892   7.639   8.442  0.4304 -0.7060 -0.3123
  339MOL0     C45697   7.754   7.658   8.458  0.3120 -1.4744 -0.5201
  339MOL0     H45698   7.333   7.883   8.136  3.1274 -0.1901  1.3085
  339MOL0     H45699   7.107   8.016   8.119 -0.6532  2.4491  1.1201
  339MOL0     H45700   6.932   8.123   8.136 -1.4243 -0.8079 -0.6794
  339MOL0     H45701   6.832   7.974   8.179 -2.6844  0.8898 -0.7950
  339MOL0     H45702   6.772   8.269   8.244  0.2134  0.1974  0.3740
  339MOL0     H45703   6.683   8.157   8.153 -1.0161  1.2514  0.1454
  339MOL0     H45704   6.698   8.028   8.385 -0.1900  0.1971 -2.4166
  339MOL0     H45705   6.684   8.194   8.452 -0.2370 -0.6499  1.7426
  339MOL0     H45706   6.496   8.100   8.233  0.5013  0.3843 -0.0994
  339MOL0     H45707   6.457   8.086   8.402 -0.3476 -2.6047 -2.8817
  339MOL0     H45708   6.460   8.343   8.431  0.6958  0.6696 -0.3771
  339MOL0     H45709   6.530   8.350   8.273  2.0964 -1.2458  1.0067
  339MOL0     H45710   6.316   8.241   8.179  1.0770  0.1584 -0.1164
  339MOL0     H45711   6.254   8.247   8.354  0.2381 -1.8045 -0.8877
  339MOL0     H45712   6.279   8.502   8.348 -2.6696  2.5207  0.8163
  339MOL0     H45713   6.334   8.483   8.175 -2.7601  0.2560  0.0022
  339MOL0     H45714   6.116   8.414   8.113  0.8410 -1.5704  0.2251
  339MOL0     H45715   6.107   8.568   8.205 -1.6565 -0.0476  3.7400
  339MOL0     H45716   6.100   8.470   8.494  1.0099 -0.0954 -1.5175
  339MOL0     H45717   5.830   8.292   8.672 -1.8277 -0.5649 -0.7601
  339MOL0     H45718   5.938   8.433   8.705  1.3191  0.8907 -1.1546
  339MOL0     H45719   5.748   8.513   8.764  1.8443  0.3936 -0.6751
  339MOL0     H45720   5.652   8.415   8.652  0.4435 -1.1285 -2.0141
  339MOL0     H45721   5.750   8.553   8.468 -0.1198 -0.9267 -0.5443
  339MOL0     H45722   5.823   8.654   8.598 -0.7358 -0.6012  0.5493
  339MOL0     H45723   5.604   8.775   8.540  0.0300 -1.4666 -3.0000
  339MOL0     H45724   5.592   8.702   8.697 -1.2957 -3.1623  1.0841
  339MOL0     H45725   5.368   8.761   8.713 -1.8882 -2.4012  0.8586
  339MOL0     H45726   5.068   8.877   8.759  0.8634  0.7827  0.5288
  339MOL0     H45727   5.236   8.941   8.786 -1.6662  2.7124  2.2670
  339MOL0     H45728   5.137   9.017   8.666 -0.1372  1.9607  3.7305
  339MOL0     H45729   4.742   8.802   8.458 -1.7931 -0.7333 -0.0535
  339MOL0     H45730   4.509   8.874   8.386  0.5497 -1.8642 -0.4075
  339MOL0     H45731   4.352   9.057   8.033  0.9269  1.2065  2.4475
  339MOL0     H45732   4.409   8.893   8.050  1.7849  1.9809 -1.1897
  339MOL0     H45733   4.257   8.876   8.264  2.1595 -2.0249 -1.3391
  339MOL0     H45734   4.214   9.047   8.237 -0.2482 -0.9232  1.1321
  339MOL0     H45735   4.159   8.797   8.073  1.9743  0.0909 -0.9827
  339MOL0     H45736   4.108   8.956   8.019  0.0207  3.0868  1.6369
  339MOL0     H45737   3.918   8.809   8.121 -0.3714  2.2635 -0.0052
  339MOL0     H45738   4.002   8.808   8.277  1.0425  0.8537  1.2248
  339MOL0     H45739   3.986   9.063   8.267  0.9850  0.9128 -0.5145
  339MOL0     H45740   3.846   8.966   8.304 -0.9298  3.0255  0.4551
  339MOL0     H45741   3.916   9.104   8.046  0.1210 -0.2057  0.7497
  339MOL0     H45742   3.783   8.986   8.047 -2.7687  2.8596 -2.0283
  339MOL0     H45743   3.753   9.259   8.085  0.5525  2.4367  2.7532
  339MOL0     H45744   3.800   9.224   8.239 -0.1915  1.2968 -0.8895
  339MOL0     H45745   3.568   9.235   8.236  0.2502  0.3371 -0.6828
  339MOL0     H45746   3.596   9.055   8.240  1.3378  0.9582 -0.3775
  339MOL0     H45747   4.673   9.065   8.036 -1.5706 -1.8583 -1.6084
  339MOL0     H45748   4.893   9.001   8.098 -0.1147 -1.3130 -0.1371
  339MOL0     H45749   5.169   8.736   8.267  0.0431 -5.2443  0.3210
  339MOL0     H45750   5.369   8.607   8.327 -0.8416 -1.9380  0.4301
  339MOL0     H45751   7.091   8.004   8.541 -0.8382 -0.3441  0.5454
  339MOL0     H45752   7.321   7.914   8.548 -0.0044 -1.6018 -0.0640
  339MOL0     H45753   7.728   7.948   8.293  1.2639 -0.3953 -0.6482
  339MOL0     H45754   7.950   7.892   8.232 -0.5284 -1.9327 -0.2236
  339MOL0     H45755   8.271   7.771   8.275 -0.6861 -2.1220  0.8586
  339MOL0     H45756   8.158   7.905   8.296 -1.5186  0.5060  1.4149
  339MOL0     H45757   8.169   7.867   8.549  0.6095 -0.6380  0.1366
  339MOL0     H45758   8.307   7.927   8.478  0.1852  1.1103 -1.0363
  339MOL0     H45759   8.283   7.618   8.510  2.3852 -2.5044  0.5684
  339MOL0     H45760   8.310   7.717   8.654 -1.6274  0.2198 -0.5825
  339MOL0     H45761   8.507   7.702   8.415 -1.0144 -0.0099 -0.9236
  339MOL0     H45762   8.529   7.626   8.581 -2.1601 -0.7501 -0.6930
  339MOL0     H45763   8.615   8.041   8.644  2.2102 -1.3878  1.4994
  339MOL0     H45764   7.929   7.549   8.490  0.9130  1.0342  2.8584
  339MOL0     H45765   7.698   7.576   8.502 -2.7487  1.1470  0.8653
  340MOL0     O45766   6.175   0.501   3.328  0.1275 -0.5514  0.1104
  340MOL0     C45767   6.191   0.598   3.401  0.7261 -0.4910 -0.4679
  340MOL0     O45768   6.113   0.705   3.398 -0.2961  0.0047  0.2989
  340MOL0     C45769   5.983   0.710   3.360  0.1668 -0.4507 -0.0149
  340MOL0     C45770   5.896   0.601   3.382  0.3844 -0.6599 -0.3297
  340MOL0     C45771   5.764   0.596   3.340 -0.0399  0.1650 -0.4509
  340MOL0     C45772   5.709   0.722   3.298  0.1253  1.0286  0.0099
  340MOL0     O45773   5.577   0.713   3.275  0.2346 -0.1672 -0.2580
  340MOL0     C45774   5.506   0.830   3.226  0.2965  0.3315 -0.5178
  340MOL0     C45775   5.355   0.797   3.241 -1.2353  0.1981  0.4832
  340MOL0     C45776   5.274   0.917   3.183  0.0208 -0.3961 -0.4055
  340MOL0     C45777   5.131   0.900   3.239  0.2798  0.7229  0.3957
  340MOL0     C45778   5.054   1.026   3.224 -0.0807 -0.0258 -0.2657
  340MOL0     C45779   4.898   1.021   3.221  0.6461  0.1685  1.1479
  340MOL0     C45780   4.836   0.983   3.360  0.1571 -0.0556  0.3273
  340MOL0     C45781   4.748   1.102   3.419 -0.6807 -0.3071 -0.8423
  340MOL0     N45782   4.683   1.072   3.545 -0.7792  0.6057  0.1143
  340MOL0     C45783   4.726   1.117   3.665 -0.2908  0.8683 -0.6341
  340MOL0     C45784   4.616   1.093   3.749  0.4757  0.7597 -0.4322
  340MOL0     C45785   4.593   1.137   3.892  0.7451  0.0765 -0.4479
  340MOL0     C45786   4.577   1.013   3.988 -0.0618  0.2712  0.0264
  340MOL0     C45787   4.515   1.030   4.124 -0.2486  0.3011 -0.2252
  340MOL0     C45788   4.600   1.105   4.228  0.0394 -0.0344  0.0633
  340MOL0     O45789   4.524   1.177   4.327 -0.1890 -0.6155 -0.3005
  340MOL0     C45790   4.431   1.113   4.403 -0.2861 -0.4730  0.6823
  340MOL0     C45791   4.474   1.026   4.508 -0.6290 -1.5251  0.2539
  340MOL0     C45792   4.376   0.974   4.595 -0.4531 -0.3784  0.3939
  340MOL0     C45793   4.428   0.891   4.708 -0.6374  0.2959 -0.4839
  340MOL0     C45794   4.236   0.983   4.566 -0.5423  0.3137  0.1600
  340MOL0     C45795   4.128   0.919   4.653  0.4616  0.3532 -0.2356
  340MOL0     O45796   4.016   0.885   4.583 -0.4771 -0.0706  0.1516
  340MOL0     C45797   3.918   0.820   4.652  0.2714 -0.5930  0.8945
  340MOL0     C45798   3.819   0.892   4.713 -0.1273 -0.2641 -0.6582
  340MOL0     C45799   3.721   0.818   4.796 -0.4492  0.2661 -0.1930
  340MOL0     C45800   3.729   0.680   4.796 -0.0493  0.5124 -0.0042
  340MOL0     O45801   3.660   0.607   4.890  0.0935 -0.2835 -0.0375
  340MOL0     C45802   3.558   0.676   4.963  0.4428  0.4726  0.9715
  340MOL0     C45803   3.457   0.573   5.016 -0.4779  0.4245  0.0370
  340MOL0     C45804   3.429   0.468   4.896  0.6614  0.7153 -0.6327
  340MOL0     C45805   3.290   0.403   4.913 -0.4332  1.2749 -0.4832
  340MOL0     C45806   3.237   0.317   4.804  0.4721  0.5104  1.0694
  340MOL0     C45807   3.104   0.241   4.842 -0.3333 -0.2873 -0.0878
  340MOL0     C45808   3.056   0.162   4.719  0.2555  0.6011  0.2379
  340MOL0     C45809   2.931   0.077   4.756  0.0591 -0.5136 -0.3390
  340MOL0    Cl45810   2.805   0.196   4.802 -0.0919  0.3478  0.1828
  340MOL0     C45811   3.816   0.607   4.727  0.0374 -1.0773  0.6516
  340MOL0     C45812   3.910   0.680   4.650 -0.8121 -0.4176  0.0448
  340MOL0     O45813   4.133   0.894   4.775  0.1717  0.3053  0.1327
  340MOL0     C45814   4.197   1.065   4.454 -0.0674  0.4843  0.8579
  340MOL0     C45815   4.292   1.139   4.379  0.0469 -0.3551 -0.5975
  340MOL0     N45816   4.520   1.020   3.676  0.0179 -0.0212  0.6781
  340MOL0     N45817   4.566   1.006   3.554 -0.0568  0.4020 -0.6695
  340MOL0     C45818   5.800   0.830   3.280  0.4644 -0.3328 -0.8156
  340MOL0     C45819   5.937   0.825   3.314  1.2189 -0.5107 -0.2143
  340MOL0     C45820   6.314   0.599   3.489  1.1064  0.1328 -0.7343
  340MOL0     C45821   6.333   0.706   3.576 -1.0604 -0.5746 -0.0674
  340MOL0     C45822   6.447   0.710   3.661  0.2175 -0.6456  0.6726
  340MOL0     C45823   6.549   0.620   3.645  0.4029  0.7348  0.6082
  340MOL0     O45824   6.656   0.631   3.731  0.3193 -0.6121  0.3935
  340MOL0     C45825   6.747   0.523   3.752 -0.2251 -0.6281  1.0692
  340MOL0     C45826   6.889   0.558   3.700  0.9991  0.4299 -0.1706
  340MOL0     C45827   6.906   0.547   3.552 -0.5341 -0.0449 -0.4296
  340MOL0     C45828   7.053   0.583   3.502 -0.2658  0.3962 -0.5865
  340MOL0     C45829   7.092   0.725   3.538 -0.4194 -0.9618 -0.6623
  340MOL0     C45830   7.128   0.837   3.576  0.1857  0.2245  0.9724
  340MOL0     C45831   6.532   0.521   3.548 -0.0934  0.3139 -0.0504
  340MOL0     C45832   6.414   0.503   3.486  0.7571 -0.8644  0.3884
  340MOL0     H45833   5.930   0.503   3.414 -0.6661 -0.8738  0.1669
  340MOL0     H45834   5.715   0.499   3.340  0.2759 -0.0061 -1.1280
  340MOL0     H45835   5.531   0.919   3.285 -1.4507 -1.3095  2.9753
  340MOL0     H45836   5.525   0.846   3.119 -0.3800  0.3258 -0.6411
  340MOL0     H45837   5.338   0.701   3.191  1.9583 -0.8099  1.0719
  340MOL0     H45838   5.352   0.777   3.349 -0.5490 -1.0001  0.3009
  340MOL0     H45839   5.313   1.017   3.202  0.9583 -0.7661 -0.3212
  340MOL0     H45840   5.262   0.922   3.075  1.5436  3.7959 -0.5588
  340MOL0     H45841   5.085   0.826   3.173  0.6281  0.3525  0.5663
  340MOL0     H45842   5.141   0.850   3.336  1.3751  2.8411  1.4520
  340MOL0     H45843   5.087   1.099   3.297 -1.2192  2.0971 -1.7431
  340MOL0     H45844   5.073   1.072   3.127  0.4365  2.0657  0.7847
  340MOL0     H45845   4.852   1.115   3.193  0.7828  0.4452  1.8219
  340MOL0     H45846   4.863   0.943   3.153 -0.8450  2.3595 -0.7138
  340MOL0     H45847   4.765   0.904   3.336 -0.0544 -0.1012  1.0781
  340MOL0     H45848   4.915   0.946   3.427  1.3749  0.7462 -0.6133
  340MOL0     H45849   4.674   1.148   3.353  0.0520  0.5805 -1.0624
  340MOL0     H45850   4.821   1.177   3.452 -0.9569 -0.0623 -0.7756
  340MOL0     H45851   4.815   1.177   3.684  1.3065 -0.9606 -1.9659
  340MOL0     H45852   4.685   1.190   3.919 -0.1022  1.8092 -0.7920
  340MOL0     H45853   4.500   1.194   3.903 -0.3052 -1.6896  0.1022
  340MOL0     H45854   4.673   0.962   4.002 -0.4728 -0.0326  2.0113
  340MOL0     H45855   4.507   0.944   3.940  0.0545 -0.8357  1.4001
  340MOL0     H45856   4.484   0.933   4.165  0.5594  0.5484  1.0240
  340MOL0     H45857   4.421   1.086   4.116  0.5425  1.6463 -0.2651
  340MOL0     H45858   4.653   1.183   4.171 -1.6762 -0.2562 -1.9628
  340MOL0     H45859   4.670   1.032   4.270  2.5157  0.6797 -2.4835
  340MOL0     H45860   4.581   1.009   4.518  0.1310  0.6638 -2.6909
  340MOL0     H45861   4.413   0.784   4.691 -0.2699  0.2030 -0.2301
  340MOL0     H45862   4.536   0.906   4.718 -0.5294  0.7363 -2.0304
  340MOL0     H45863   4.383   0.912   4.806  1.2162  0.9214  0.2777
  340MOL0     H45864   3.820   1.001   4.710  2.0845 -0.2512 -1.3268
  340MOL0     H45865   3.663   0.886   4.857  1.1093  0.1352  1.5065
  340MOL0     H45866   3.600   0.735   5.045  1.8389  4.2782 -2.1443
  340MOL0     H45867   3.495   0.735   4.896  2.0103  1.0303 -0.0453
  340MOL0     H45868   3.482   0.519   5.108 -2.3794 -1.9129 -0.6908
  340MOL0     H45869   3.360   0.620   5.033 -1.2799 -1.3778  0.7233
  340MOL0     H45870   3.497   0.383   4.901 -0.0172  0.2254  1.3948
  340MOL0     H45871   3.426   0.515   4.798 -1.8894  0.4902 -0.7309
  340MOL0     H45872   3.289   0.341   5.004 -1.2162 -0.3348 -1.5382
  340MOL0     H45873   3.214   0.481   4.921 -0.1172  1.5221  0.1547
  340MOL0     H45874   3.309   0.249   4.757 -0.9004 -0.3816  0.1878
  340MOL0     H45875   3.211   0.381   4.719 -1.9803 -1.9301 -0.1879
  340MOL0     H45876   3.126   0.172   4.923  1.7903 -1.0151 -1.1832
  340MOL0     H45877   3.036   0.324   4.865 -0.5842 -0.5259  0.0327
  340MOL0     H45878   3.136   0.093   4.692 -0.1010 -0.5227  1.8441
  340MOL0     H45879   3.026   0.229   4.638 -2.0493 -0.3276  0.2542
  340MOL0     H45880   2.953   0.013   4.842  0.0203 -1.5064 -1.0517
  340MOL0     H45881   2.891   0.016   4.675  1.7617 -0.4619 -1.2810
  340MOL0     H45882   3.801   0.499   4.727 -1.0695 -0.9325  0.0940
  340MOL0     H45883   3.976   0.619   4.590 -1.6236 -2.0347  0.7364
  340MOL0     H45884   4.091   1.080   4.438 -0.5885 -0.9880  2.5510
  340MOL0     H45885   4.260   1.206   4.299 -2.0626  0.8628  1.1529
  340MOL0     H45886   5.756   0.925   3.249  0.5735  0.9127  2.4849
  340MOL0     H45887   5.995   0.917   3.310  0.1143  0.1612 -2.1619
  340MOL0     H45888   6.269   0.793   3.574  3.7223  3.5198  2.4277
  340MOL0     H45889   6.457   0.794   3.729 -2.3894 -1.0342  1.6590
  340MOL0     H45890   6.748   0.509   3.861  2.2145  0.0833  1.1934
  340MOL0     H45891   6.717   0.435   3.694  2.0960 -0.4326 -0.5481
  340MOL0     H45892   6.964   0.494   3.748  1.1808  0.4143 -0.4736
  340MOL0     H45893   6.917   0.657   3.735 -0.7986  0.7454  0.4617
  340MOL0     H45894   6.832   0.614   3.507 -0.6827 -1.0388 -1.7370
  340MOL0     H45895   6.884   0.446   3.516  1.0908 -0.0024 -1.6497
  340MOL0     H45896   7.062   0.575   3.393  1.5320  1.6004 -0.5715
  340MOL0     H45897   7.134   0.517   3.535  0.8429  1.1771 -1.6566
  340MOL0     H45898   7.171   0.924   3.622  4.5772 -2.8353  3.2983
  340MOL0     H45899   6.598   0.436   3.533 -0.3207  0.2084 -0.4594
  340MOL0     H45900   6.392   0.409   3.437 -0.4655  0.1351 -1.0567
  341MOL0     O45901   7.327   7.095   1.809  0.3248  0.2790  0.2721
  341MOL0     C45902   7.369   7.092   1.695  0.4567 -0.8896  0.1895
  341MOL0     O45903   7.296   7.092   1.579 -0.0042 -0.2498 -0.2983
  341MOL0     C45904   7.164   7.100   1.597 -0.0604 -0.6110 -1.4423
  341MOL0     C45905   7.089   7.010   1.674 -0.0628  0.0827 -0.8960
  341MOL0     C45906   6.956   7.023   1.680 -0.5273  0.5172 -0.3402
  341MOL0     C45907   6.875   7.130   1.622 -0.2697 -0.0498 -1.2838
  341MOL0     O45908   6.740   7.148   1.618 -0.2051  0.4439 -0.5633
  341MOL0     C45909   6.672   7.028   1.658 -1.1180 -0.5925  0.0586
  341MOL0     C45910   6.521   7.067   1.681 -0.1590  0.5794 -0.0083
  341MOL0     C45911   6.461   6.967   1.778  0.5682  0.0423  0.6090
  341MOL0     C45912   6.305   6.971   1.774  0.2239 -0.1186  0.0651
  341MOL0     C45913   6.230   6.866   1.865 -0.0343 -0.2490 -0.2058
  341MOL0     C45914   6.078   6.869   1.841  0.0239 -0.0333 -0.0710
  341MOL0     C45915   6.042   6.795   1.709  0.2820 -0.1392 -0.1296
  341MOL0     C45916   5.900   6.748   1.711 -0.1622  0.7365  0.3367
  341MOL0     N45917   5.807   6.858   1.719 -0.3569 -0.5969  0.1537
  341MOL0     C45918   5.789   6.946   1.614 -0.2569  0.4255  0.0544
  341MOL0     C45919   5.684   7.021   1.651 -0.7455  0.7028 -0.8099
  341MOL0     C45920   5.631   7.123   1.560  0.4694  0.7662  0.1812
  341MOL0     C45921   5.479   7.137   1.568 -0.1821  0.2391  0.4088
  341MOL0     C45922   5.396   7.048   1.481 -1.1430  0.1595 -0.3498
  341MOL0     C45923   5.255   7.048   1.541 -0.1020  0.5296  0.2409
  341MOL0     O45924   5.182   6.921   1.512  0.2924  0.0386  0.4819
  341MOL0     C45925   5.204   6.816   1.594 -0.1898  0.7446  0.5684
  341MOL0     C45926   5.109   6.716   1.605  0.1056  0.1634  0.6951
  341MOL0     C45927   5.129   6.596   1.679 -0.9652 -0.3220 -0.0640
  341MOL0     C45928   5.018   6.488   1.668 -0.1247 -0.1261 -1.2403
  341MOL0     C45929   5.251   6.570   1.742  0.3756  0.1944 -0.2475
  341MOL0     C45930   5.283   6.448   1.813 -1.2191  0.1525  0.4878
  341MOL0     O45931   5.187   6.390   1.878 -1.0121 -0.3796 -0.0312
  341MOL0     C45932   5.201   6.257   1.912 -0.2956 -0.0189 -0.4640
  341MOL0     C45933   5.190   6.224   2.052 -0.4405  0.1832 -0.1214
  341MOL0     C45934   5.209   6.091   2.095 -0.3746  0.0302 -0.9231
  341MOL0     C45935   5.231   5.990   1.995  0.0327 -0.5894 -0.9072
  341MOL0     O45936   5.251   5.859   2.036 -0.5813  0.3878 -0.4159
  341MOL0     C45937   5.202   5.754   1.962  0.3287 -0.2836 -0.0046
  341MOL0     C45938   5.054   5.731   2.001 -0.4162 -0.5842  0.8125
  341MOL0     C45939   4.997   5.608   1.934  1.2413  0.3382 -0.2537
  341MOL0     C45940   4.846   5.592   1.958  0.2403  0.0121 -0.2774
  341MOL0     C45941   4.787   5.458   1.928  0.1633 -0.0815 -0.1358
  341MOL0     C45942   4.810   5.418   1.781  0.4792 -0.2769  0.6614
  341MOL0     C45943   4.743   5.282   1.735 -0.4987  0.0698  0.2330
  341MOL0     C45944   4.798   5.156   1.800 -0.2811 -0.1016  0.3454
  341MOL0    Cl45945   4.704   5.124   1.952  0.2888 -0.4384  0.1913
  341MOL0     C45946   5.254   6.027   1.857  0.0095  0.6545 -0.0802
  341MOL0     C45947   5.239   6.157   1.818  0.7269 -0.8248 -0.7670
  341MOL0     O45948   5.408   6.417   1.824  0.2047  0.0796  0.7929
  341MOL0     C45949   5.343   6.683   1.746  0.1871  0.5388  0.0851
  341MOL0     C45950   5.324   6.794   1.668 -0.2581 -0.2545 -0.3689
  341MOL0     N45951   5.632   6.974   1.777 -0.0326 -0.0879  0.7516
  341MOL0     N45952   5.710   6.878   1.812 -0.7342  0.1150 -0.6928
  341MOL0     C45953   6.953   7.232   1.560 -0.2766  0.6705 -0.0310
  341MOL0     C45954   7.094   7.212   1.543  0.0936  0.0496  0.9134
  341MOL0     C45955   7.517   7.079   1.678 -0.4324 -0.3160 -0.4572
  341MOL0     C45956   7.611   7.073   1.781 -0.0487  1.0263  0.1115
  341MOL0     C45957   7.750   7.057   1.752 -1.1003  1.6016  0.0811
  341MOL0     C45958   7.789   7.033   1.622 -0.0987  0.3325  0.6331
  341MOL0     O45959   7.929   7.047   1.605 -0.1196 -0.5119 -0.2056
  341MOL0     C45960   7.984   7.006   1.483 -0.2463 -0.2275  1.3487
  341MOL0     C45961   8.135   7.017   1.483  0.7272 -0.3435 -0.8678
  341MOL0     C45962   8.174   7.167   1.510  0.0920  0.2243  0.1918
  341MOL0     C45963   8.325   7.206   1.490  0.2212 -0.3516  0.0784
  341MOL0     C45964   8.421   7.152   1.576  0.4086 -0.1815  0.5143
  341MOL0     C45965   8.496   7.110   1.661 -0.5352  0.3222  0.9555
  341MOL0     C45966   7.699   7.042   1.519  0.0516  0.5760 -1.0560
  341MOL0     C45967   7.565   7.063   1.544 -0.4722 -0.2028 -0.0836
  341MOL0     H45968   7.145   6.928   1.719  1.4849  1.9308  0.7232
  341MOL0     H45969   6.901   6.950   1.739  0.9180  1.0392  1.7534
  341MOL0     H45970   6.687   6.949   1.583  0.1804 -2.1346  1.8707
  341MOL0     H45971   6.717   6.989   1.749 -0.0272 -2.1680 -1.0890
  341MOL0     H45972   6.510   7.165   1.726 -0.2586  0.3659  0.4325
  341MOL0     H45973   6.468   7.058   1.586 -0.8698 -1.3352  0.5234
  341MOL0     H45974   6.490   6.866   1.747  0.0653  0.4303 -1.2475
  341MOL0     H45975   6.501   6.992   1.876  0.8531  2.0620  0.0166
  341MOL0     H45976   6.271   7.071   1.801 -1.1939 -0.4336 -0.4873
  341MOL0     H45977   6.269   6.952   1.672  1.8001  0.1218 -0.5607
  341MOL0     H45978   6.262   6.763   1.848 -2.9648 -1.1960 -0.5234
  341MOL0     H45979   6.244   6.888   1.971  1.7270 -2.0004 -0.0179
  341MOL0     H45980   6.036   6.822   1.930  2.7040  2.7629  2.9427
  341MOL0     H45981   6.038   6.971   1.838 -2.0457 -0.7814  0.7838
  341MOL0     H45982   6.071   6.846   1.617  0.7506  0.9019  0.5719
  341MOL0     H45983   6.113   6.711   1.704  2.3951  1.6280 -1.5586
  341MOL0     H45984   5.896   6.677   1.794 -2.0546 -0.6943 -0.8872
  341MOL0     H45985   5.878   6.691   1.620 -2.0686 -0.9074  1.7495
  341MOL0     H45986   5.838   6.956   1.517 -0.3502  3.1908  0.2306
  341MOL0     H45987   5.674   7.220   1.585  3.0363 -0.1303 -0.3760
  341MOL0     H45988   5.660   7.103   1.456 -0.1803 -1.9914  0.4596
  341MOL0     H45989   5.450   7.240   1.549 -2.5760 -0.1813  1.5180
  341MOL0     H45990   5.451   7.132   1.674 -1.3370  3.2346  0.3194
  341MOL0     H45991   5.451   6.954   1.478 -0.2265  0.7047 -1.9214
  341MOL0     H45992   5.404   7.082   1.377 -0.5135  0.1068 -0.3232
  341MOL0     H45993   5.193   7.131   1.505 -0.4240  0.3686  0.4219
  341MOL0     H45994   5.254   7.077   1.646  1.0983  1.1970  0.0806
  341MOL0     H45995   5.019   6.730   1.546  1.6359  1.6272 -1.4784
  341MOL0     H45996   5.045   6.390   1.628 -1.1035 -2.6335  3.4868
  341MOL0     H45997   4.969   6.468   1.763 -1.8875  0.2176 -2.0321
  341MOL0     H45998   4.950   6.528   1.592 -0.8629  3.3225  0.9872
  341MOL0     H45999   5.168   6.299   2.126  0.0768  0.5974 -0.3835
  341MOL0     H46000   5.212   6.063   2.200  3.7697 -0.1612 -0.9469
  341MOL0     H46001   5.213   5.774   1.855  2.8651 -1.9704 -0.1403
  341MOL0     H46002   5.263   5.665   1.978  1.2013  0.5890  1.8643
  341MOL0     H46003   5.044   5.706   2.107 -0.5717 -1.2481  0.6462
  341MOL0     H46004   4.986   5.812   1.973 -1.9741 -1.9714  0.4429
  341MOL0     H46005   5.044   5.525   1.987 -1.7803 -0.8012  0.8561
  341MOL0     H46006   5.025   5.605   1.828 -1.8168 -1.2003 -1.1144
  341MOL0     H46007   4.836   5.603   2.066  1.3439 -0.0594 -0.1548
  341MOL0     H46008   4.788   5.668   1.905  1.6038  1.0584 -0.3223
  341MOL0     H46009   4.683   5.445   1.959  0.3450 -1.9321 -0.1446
  341MOL0     H46010   4.832   5.376   1.985 -0.4023 -1.3135 -1.3897
  341MOL0     H46011   4.769   5.502   1.724  1.1419  0.4655  1.2707
  341MOL0     H46012   4.915   5.404   1.753 -0.3271 -2.0197 -1.9576
  341MOL0     H46013   4.762   5.283   1.627 -0.3425 -1.4600  0.2204
  341MOL0     H46014   4.634   5.285   1.745 -0.8140 -0.2309 -2.4101
  341MOL0     H46015   4.904   5.173   1.821  0.4302 -2.6943 -0.7203
  341MOL0     H46016   4.801   5.068   1.736 -2.2225  0.5704 -0.7553
  341MOL0     H46017   5.284   5.960   1.777  0.0309  1.6226 -0.8985
  341MOL0     H46018   5.246   6.191   1.715  0.3621 -2.1348 -1.2573
  341MOL0     H46019   5.437   6.667   1.797 -0.3899 -1.0109  0.7355
  341MOL0     H46020   5.405   6.865   1.676 -1.0485  0.4153  3.8561
  341MOL0     H46021   6.899   7.312   1.511 -0.1520  2.5164  2.6096
  341MOL0     H46022   7.144   7.276   1.472 -0.3304 -0.2955  0.2915
  341MOL0     H46023   7.579   7.088   1.884 -1.8816  0.3193 -0.3241
  341MOL0     H46024   7.821   7.059   1.834 -0.8962 -1.4448  0.0947
  341MOL0     H46025   7.943   6.907   1.460  3.0771 -1.3508 -0.3311
  341MOL0     H46026   7.940   7.056   1.397 -1.0858 -2.7754  0.1768
  341MOL0     H46027   8.172   6.987   1.385 -0.0408 -1.2388 -0.8985
  341MOL0     H46028   8.179   6.956   1.563 -1.7435 -0.5272  0.4561
  341MOL0     H46029   8.135   7.194   1.609  0.6526  3.0945 -0.2933
  341MOL0     H46030   8.118   7.226   1.437 -0.4670  1.6567  1.7100
  341MOL0     H46031   8.336   7.313   1.508  0.5085 -0.6943  2.1214
  341MOL0     H46032   8.345   7.188   1.384 -3.2550 -0.0983 -0.7633
  341MOL0     H46033   8.558   7.060   1.732 -1.0484  0.2004  1.3203
  341MOL0     H46034   7.729   7.028   1.416 -0.3439 -1.0007 -0.9734
  341MOL0     H46035   7.495   7.046   1.463 -3.1328  0.0448  2.0422
  342MOL0     O46036  10.127   6.453   2.058 -0.4391 -0.2550  0.3366
  342MOL0     C46037  10.164   6.558   2.118 -0.9878  0.0423  0.2133
  342MOL0     O46038  10.085   6.637   2.207  0.2650 -0.1481 -0.1675
  342MOL0     C46039   9.956   6.594   2.221  0.4674 -0.3127 -0.2470
  342MOL0     C46040   9.860   6.620   2.115 -0.6850 -0.5223  0.1193
  342MOL0     C46041   9.729   6.572   2.116 -0.1935 -0.1921 -0.0154
  342MOL0     C46042   9.690   6.497   2.230 -0.0595 -0.5744 -0.2575
  342MOL0     O46043   9.564   6.440   2.228  0.5652 -0.2700  0.7401
  342MOL0     C46044   9.496   6.404   2.348  0.1062 -0.1705 -0.7330
  342MOL0     C46045   9.354   6.350   2.313 -0.0215  0.7110 -0.4261
  342MOL0     C46046   9.239   6.449   2.295  0.0007 -0.0970 -0.4151
  342MOL0     C46047   9.102   6.384   2.286  0.0126 -0.0932 -0.3326
  342MOL0     C46048   8.997   6.500   2.241 -0.5368  0.7382 -0.0470
  342MOL0     C46049   9.015   6.521   2.096  0.8392 -0.1270  0.5388
  342MOL0     C46050   8.962   6.661   2.053  0.0011 -0.2962  0.1970
  342MOL0     C46051   8.816   6.704   2.084 -0.3052 -0.4997  0.8568
  342MOL0     N46052   8.722   6.601   2.036 -0.4196 -0.9303  0.2876
  342MOL0     C46053   8.669   6.497   2.111 -0.7484 -0.2247  0.5083
  342MOL0     C46054   8.607   6.421   2.020 -0.2835 -0.2096 -0.6326
  342MOL0     C46055   8.547   6.276   2.040 -0.9060  0.1278  0.4616
  342MOL0     C46056   8.408   6.257   2.006 -0.1809  1.1857  0.1532
  342MOL0     C46057   8.365   6.112   2.035 -0.0293 -0.9007  0.2067
  342MOL0     C46058   8.391   6.010   1.918 -0.2547  0.6705 -0.0960
  342MOL0     O46059   8.306   5.901   1.964 -0.1894  1.0967 -0.3173
  342MOL0     C46060   8.192   5.877   1.902  0.5918 -0.3372  0.0812
  342MOL0     C46061   8.186   5.833   1.767  0.2596 -0.9749 -0.7042
  342MOL0     C46062   8.072   5.784   1.713  0.6657  0.4046  0.1912
  342MOL0     C46063   8.092   5.713   1.579 -0.3602  0.0741 -0.0274
  342MOL0     C46064   7.952   5.791   1.782  0.0342  0.5660 -0.4335
  342MOL0     C46065   7.823   5.732   1.727  0.5527  0.4989  0.3542
  342MOL0     O46066   7.796   5.756   1.593  1.3611 -0.0060 -0.2184
  342MOL0     C46067   7.695   5.674   1.544  0.2370  0.2854 -0.8910
  342MOL0     C46068   7.722   5.543   1.498 -0.0407  0.1058 -0.4640
  342MOL0     C46069   7.624   5.474   1.428 -0.4109 -0.2911 -0.4500
  342MOL0     C46070   7.495   5.523   1.411  0.6073  0.8559  0.1609
  342MOL0     O46071   7.394   5.457   1.348  0.0719 -0.2544  0.0784
  342MOL0     C46072   7.400   5.322   1.301 -0.0825 -0.4191  0.9315
  342MOL0     C46073   7.276   5.280   1.235  0.4466 -0.0123  0.3257
  342MOL0     C46074   7.259   5.355   1.102  0.0431  0.0436 -0.1424
  342MOL0     C46075   7.114   5.325   1.046  0.3761 -0.1573  1.1812
  342MOL0     C46076   7.118   5.388   0.911 -0.5138  0.3219 -0.2527
  342MOL0     C46077   6.980   5.411   0.850  0.9769  0.8433  0.6670
  342MOL0     C46078   6.929   5.538   0.914 -0.1381 -0.2747 -0.4215
  342MOL0     C46079   6.793   5.577   0.853  0.1198  0.5508 -0.0649
  342MOL0    Cl46080   6.679   5.439   0.836 -0.4887 -0.3223  0.4611
  342MOL0     C46081   7.471   5.650   1.462 -0.0022 -0.5509  0.1674
  342MOL0     C46082   7.566   5.725   1.526  0.3771 -0.5250  0.3042
  342MOL0     O46083   7.746   5.677   1.800  0.7872  0.4577 -0.4942
  342MOL0     C46084   7.960   5.843   1.911 -0.6403  0.0372 -1.3065
  342MOL0     C46085   8.077   5.894   1.972  0.4271  0.7366 -0.2515
  342MOL0     N46086   8.618   6.477   1.893  0.1830 -0.2799 -0.4871
  342MOL0     N46087   8.685   6.586   1.900 -0.7089 -0.1055 -0.1058
  342MOL0     C46088   9.777   6.482   2.345 -0.4086  0.2216 -0.1939
  342MOL0     C46089   9.905   6.542   2.343  0.5070  0.2208 -0.0816
  342MOL0     C46090  10.303   6.598   2.102 -0.2998  0.1364 -0.0708
  342MOL0     C46091  10.354   6.731   2.105  0.6073 -0.2202  0.1407
  342MOL0     C46092  10.488   6.749   2.067 -0.6870  0.3612 -0.4619
  342MOL0     C46093  10.577   6.654   2.025  0.0111 -0.4857 -0.4907
  342MOL0     O46094  10.706   6.693   1.986  0.4380 -0.1519  0.0894
  342MOL0     C46095  10.812   6.606   2.020  0.2022  0.5050  0.0952
  342MOL0     C46096  10.940   6.699   2.043  0.2079  0.7223 -0.5218
  342MOL0     C46097  11.067   6.623   2.066 -0.9316 -0.2627  0.1339
  342MOL0     C46098  11.169   6.722   2.118  0.9979  0.0259 -0.9604
  342MOL0     C46099  11.264   6.648   2.202 -0.5357 -0.0832  0.3592
  342MOL0     C46100  11.359   6.580   2.244  0.3994  0.2344 -0.6477
  342MOL0     C46101  10.527   6.524   2.025 -0.0102  0.7099 -0.3359
  342MOL0     C46102  10.398   6.494   2.059  0.5653  0.1987  0.4236
  342MOL0     H46103   9.912   6.675   2.038 -0.3016 -0.4911  0.3928
  342MOL0     H46104   9.662   6.580   2.031  0.7635 -1.0330 -0.8734
  342MOL0     H46105   9.548   6.323   2.400 -3.1952 -0.9863  1.6588
  342MOL0     H46106   9.479   6.486   2.418 -1.4714 -1.0810  0.0065
  342MOL0     H46107   9.371   6.292   2.222 -2.5862  0.5574 -0.8753
  342MOL0     H46108   9.321   6.274   2.384 -3.0863  1.2825 -1.0822
  342MOL0     H46109   9.236   6.526   2.373 -0.1435  1.1368 -1.6090
  342MOL0     H46110   9.258   6.507   2.205 -2.3797  0.0813 -0.8588
  342MOL0     H46111   9.095   6.300   2.217 -1.0082 -2.4455  2.4000
  342MOL0     H46112   9.064   6.336   2.377 -0.8882 -1.3473 -1.3433
  342MOL0     H46113   8.892   6.487   2.269 -0.5727  4.4950  2.2223
  342MOL0     H46114   9.023   6.589   2.298 -1.1641  1.2314 -0.5131
  342MOL0     H46115   9.121   6.520   2.068  0.4595 -1.2883 -1.0255
  342MOL0     H46116   8.963   6.442   2.041 -5.1166  0.9957  3.7054
  342MOL0     H46117   9.031   6.738   2.090  2.1426 -1.7320 -0.6383
  342MOL0     H46118   8.974   6.667   1.944  2.8475  0.5251  0.4568
  342MOL0     H46119   8.789   6.804   2.049 -3.3095 -1.2920  0.6039
  342MOL0     H46120   8.819   6.714   2.193  2.3252  0.9451  0.7250
  342MOL0     H46121   8.676   6.477   2.217 -1.4451 -0.8351  0.4468
  342MOL0     H46122   8.603   6.206   1.977 -0.5873  0.5851  0.2308
  342MOL0     H46123   8.551   6.244   2.144 -4.0791  1.5402  1.1265
  342MOL0     H46124   8.404   6.269   1.897  0.0541 -0.8450 -0.1191
  342MOL0     H46125   8.349   6.325   2.068  0.2195 -0.6637  2.7554
  342MOL0     H46126   8.262   6.102   2.070 -0.1103 -0.6109  0.0610
  342MOL0     H46127   8.439   6.077   2.108  1.4845 -0.6639 -1.1633
  342MOL0     H46128   8.498   5.991   1.914 -0.7977 -3.4746  0.6525
  342MOL0     H46129   8.373   6.057   1.821  2.1363  1.4264 -0.2342
  342MOL0     H46130   8.278   5.824   1.710  0.3689 -0.8126 -0.5553
  342MOL0     H46131   8.020   5.743   1.502 -0.5707  4.4032  1.5843
  342MOL0     H46132   8.193   5.740   1.546  0.5493  1.7635  3.5838
  342MOL0     H46133   8.095   5.607   1.606  1.8500  0.2535  0.6474
  342MOL0     H46134   7.817   5.490   1.495  0.2482  0.1103  3.1906
  342MOL0     H46135   7.648   5.377   1.388 -2.0982 -2.1069  2.5259
  342MOL0     H46136   7.482   5.301   1.231 -0.6764  1.0744 -0.2771
  342MOL0     H46137   7.414   5.256   1.388 -2.7495 -2.1429  0.1711
  342MOL0     H46138   7.289   5.173   1.216 -2.9442 -1.5710  4.8031
  342MOL0     H46139   7.192   5.283   1.305  1.9599  1.1668  2.1865
  342MOL0     H46140   7.322   5.320   1.020  0.0906 -1.5554  0.5333
  342MOL0     H46141   7.278   5.462   1.113  1.8489 -0.2838  0.2474
  342MOL0     H46142   7.094   5.218   1.042  0.3177 -0.1154 -0.2837
  342MOL0     H46143   7.038   5.368   1.112  0.0199 -2.3989  2.3112
  342MOL0     H46144   7.163   5.311   0.847 -1.0093  0.4038 -0.7022
  342MOL0     H46145   7.167   5.485   0.919  1.0805 -0.5036  0.5409
  342MOL0     H46146   6.972   5.424   0.742 -0.9650 -0.6758  0.5828
  342MOL0     H46147   6.916   5.326   0.872  0.9877  0.9917  1.3157
  342MOL0     H46148   6.998   5.621   0.892  0.1206 -0.3160  0.2102
  342MOL0     H46149   6.910   5.531   1.021 -2.5131 -1.0876 -0.8472
  342MOL0     H46150   6.798   5.625   0.755 -2.1794  0.6755 -0.1903
  342MOL0     H46151   6.747   5.658   0.911 -1.3156  1.3194 -2.1581
  342MOL0     H46152   7.371   5.694   1.454  0.1478 -0.3544 -0.7267
  342MOL0     H46153   7.536   5.817   1.576 -1.3531 -0.8964  0.0047
  342MOL0     H46154   7.869   5.848   1.970 -0.5134 -0.2671 -1.0780
  342MOL0     H46155   8.074   5.939   2.071  0.2887 -2.1367  1.1666
  342MOL0     H46156   9.760   6.428   2.438 -3.6474 -0.3287 -0.9971
  342MOL0     H46157   9.973   6.524   2.426 -1.7040 -1.4907  1.4551
  342MOL0     H46158  10.286   6.812   2.129 -0.5742 -1.0231 -0.3788
  342MOL0     H46159  10.520   6.853   2.071 -0.6544  0.3067  1.5257
  342MOL0     H46160  10.789   6.542   2.106  1.2981 -0.5055 -0.3313
  342MOL0     H46161  10.834   6.539   1.937 -1.8739  1.8307 -1.6180
  342MOL0     H46162  10.906   6.770   2.119  1.2992  2.3026 -1.4366
  342MOL0     H46163  10.947   6.752   1.948  0.3834 -0.9124 -1.4529
  342MOL0     H46164  11.099   6.588   1.968 -0.9454  0.6572 -0.2046
  342MOL0     H46165  11.052   6.544   2.141 -0.9058  1.0528  1.5791
  342MOL0     H46166  11.128   6.811   2.166 -1.6888 -2.6675  2.2307
  342MOL0     H46167  11.230   6.771   2.042  0.3651  1.6848 -0.4342
  342MOL0     H46168  11.445   6.523   2.270 -0.6592 -1.9082 -1.5811
  342MOL0     H46169  10.590   6.439   2.003 -3.0777 -2.5788  2.3009
  342MOL0     H46170  10.357   6.393   2.062 -2.2982  1.2847  1.3715
  343MOL0     O46171   4.094   3.513   2.582 -0.4902  0.2996 -0.3740
  343MOL0     C46172   4.047   3.505   2.467  0.2954 -0.0085 -1.2000
  343MOL0     O46173   3.908   3.510   2.436 -0.7241 -0.5941  0.4278
  343MOL0     C46174   3.811   3.490   2.529 -0.2236  0.3703  0.0493
  343MOL0     C46175   3.817   3.413   2.648  0.7740  0.2466  0.7044
  343MOL0     C46176   3.701   3.387   2.736 -0.5833 -0.3978 -0.0392
  343MOL0     C46177   3.584   3.444   2.702 -0.5579  0.2393  1.0890
  343MOL0     O46178   3.470   3.449   2.773 -0.4691 -0.0410  0.5230
  343MOL0     C46179   3.451   3.360   2.895 -0.1769 -0.1164 -0.6427
  343MOL0     C46180   3.333   3.391   2.987 -0.4749 -0.0359  0.5174
  343MOL0     C46181   3.209   3.448   2.924 -0.4380 -0.2602  0.9337
  343MOL0     C46182   3.093   3.459   3.027  0.1775  0.5891 -0.5506
  343MOL0     C46183   2.967   3.534   2.987  0.5963 -0.2135  0.1532
  343MOL0     C46184   2.888   3.460   2.885  0.5758  0.1533 -0.0716
  343MOL0     C46185   2.759   3.535   2.840  0.8732  0.3257  1.0312
  343MOL0     C46186   2.712   3.493   2.704 -0.3110  0.0461  0.2768
  343MOL0     N46187   2.603   3.585   2.660 -0.6959 -1.1337 -0.1713
  343MOL0     C46188   2.608   3.696   2.576 -0.1741 -0.1901  0.5065
  343MOL0     C46189   2.483   3.740   2.568  0.7044 -0.2288 -0.3362
  343MOL0     C46190   2.429   3.867   2.500  0.0880 -0.1849 -0.1847
  343MOL0     C46191   2.334   3.945   2.591  0.6463 -0.6562 -0.8135
  343MOL0     C46192   2.304   4.084   2.540 -0.3860 -0.1391 -0.8079
  343MOL0     C46193   2.207   4.092   2.422 -0.5980  0.8787  0.3556
  343MOL0     O46194   2.082   4.017   2.422 -0.1423 -0.1019 -0.4154
  343MOL0     C46195   1.977   4.054   2.498  0.3576  0.7843 -0.5167
  343MOL0     C46196   1.864   3.970   2.494 -0.5711 -0.1525 -0.2252
  343MOL0     C46197   1.744   4.008   2.553  0.6437 -0.1491 -0.5256
  343MOL0     C46198   1.624   3.913   2.508 -0.9991 -0.5838 -0.1161
  343MOL0     C46199   1.735   4.122   2.638 -0.7032  0.1082  0.1621
  343MOL0     C46200   1.610   4.161   2.705  0.0912 -0.1284 -0.7389
  343MOL0     O46201   1.532   4.052   2.738 -0.0533 -0.4779 -0.6303
  343MOL0     C46202   1.408   4.066   2.799  0.5846 -0.8735  1.0828
  343MOL0     C46203   1.387   4.004   2.924 -0.0764 -0.2033  0.6048
  343MOL0     C46204   1.266   3.997   2.986  0.3900  0.0858  0.2086
  343MOL0     C46205   1.154   4.059   2.925  0.0916  0.1399 -0.3019
  343MOL0     O46206   1.022   4.057   2.971  0.0556 -0.3948  0.4726
  343MOL0     C46207   0.913   4.093   2.887 -1.4146 -0.7785  0.4126
  343MOL0     C46208   0.781   4.050   2.961  0.4572 -0.2850  0.4603
  343MOL0     C46209   0.661   4.092   2.869 -0.3795 -0.5475  0.0007
  343MOL0     C46210   0.657   4.240   2.826  0.3767 -0.8808 -1.2219
  343MOL0     C46211   0.539   4.270   2.741  0.7303 -0.0718  1.0198
  343MOL0     C46212   0.502   4.424   2.735  0.3124 -0.2959  0.3540
  343MOL0     C46213   0.593   4.501   2.648  0.4835 -0.4578  0.0712
  343MOL0     C46214   0.559   4.651   2.646  0.6911 -0.6004 -0.3519
  343MOL0    Cl46215   0.570   4.732   2.799  0.0927  0.2318 -0.2471
  343MOL0     C46216   1.172   4.129   2.796  0.7794 -0.1668 -0.2053
  343MOL0     C46217   1.294   4.133   2.741  0.3943  0.2463  0.0439
  343MOL0     O46218   1.572   4.278   2.711  0.5743 -0.2680  0.6744
  343MOL0     C46219   1.850   4.200   2.644 -0.5912 -0.4681 -0.2966
  343MOL0     C46220   1.967   4.174   2.570  0.2194  0.6800  0.0118
  343MOL0     N46221   2.403   3.662   2.640  0.0005 -0.6371 -0.5749
  343MOL0     N46222   2.473   3.569   2.697  0.0455  0.6053 -0.6940
  343MOL0     C46223   3.581   3.523   2.581 -0.1752 -0.7049  0.4202
  343MOL0     C46224   3.685   3.546   2.498 -0.6545 -0.0952  0.0369
  343MOL0     C46225   4.146   3.484   2.355  0.5169 -0.1872  0.2671
  343MOL0     C46226   4.277   3.457   2.380 -0.9628 -0.3563 -0.3685
  343MOL0     C46227   4.368   3.443   2.273 -1.0973  0.9469 -0.3052
  343MOL0     C46228   4.330   3.439   2.140  0.3947 -0.0595 -0.4072
  343MOL0     O46229   4.426   3.443   2.043  0.2935 -0.3379 -0.2621
  343MOL0     C46230   4.506   3.331   2.028  0.6436 -0.3123  0.4566
  343MOL0     C46231   4.593   3.307   1.897  0.9557  0.3043 -0.5200
  343MOL0     C46232   4.746   3.281   1.929  0.3402 -0.4111 -0.0413
  343MOL0     C46233   4.774   3.137   1.965 -0.1974  0.4892  0.6177
  343MOL0     C46234   4.810   3.054   1.846  0.4285  0.2615 -0.0774
  343MOL0     C46235   4.835   2.966   1.763 -0.6537 -0.1847 -0.1044
  343MOL0     C46236   4.195   3.475   2.112  0.9811  0.6484 -1.0978
  343MOL0     C46237   4.097   3.486   2.220  0.0585  0.1243  0.9738
  343MOL0     H46238   3.914   3.371   2.671  0.9656 -0.3544 -1.0461
  343MOL0     H46239   3.711   3.317   2.818  0.0750  0.0555  0.2836
  343MOL0     H46240   3.432   3.257   2.863  0.3798 -1.4925  2.8990
  343MOL0     H46241   3.544   3.341   2.950 -1.6364  2.8970  3.3646
  343MOL0     H46242   3.312   3.302   3.046 -0.2045 -1.2479 -1.1396
  343MOL0     H46243   3.369   3.458   3.065 -0.8695  2.0578 -1.0038
  343MOL0     H46244   3.244   3.549   2.898  0.0484 -0.5724  0.3494
  343MOL0     H46245   3.178   3.396   2.833 -0.1247 -0.1732  0.7768
  343MOL0     H46246   3.062   3.355   3.032  0.2636  0.4681 -2.1532
  343MOL0     H46247   3.137   3.492   3.122  0.0572  0.2718 -0.3845
  343MOL0     H46248   2.885   3.558   3.055 -0.4040 -0.8741 -0.7728
  343MOL0     H46249   2.995   3.635   2.956 -1.4059  0.6222  0.8871
  343MOL0     H46250   2.958   3.431   2.805  0.0633  2.6845 -1.5540
  343MOL0     H46251   2.858   3.370   2.939  1.0112 -0.6761 -1.1655
  343MOL0     H46252   2.679   3.520   2.913  0.6790 -0.2018  0.7187
  343MOL0     H46253   2.795   3.638   2.839 -0.0243  0.6804  2.4902
  343MOL0     H46254   2.686   3.387   2.712 -0.4946  0.0492 -0.2690
  343MOL0     H46255   2.789   3.494   2.626 -1.9190 -0.6803 -1.3933
  343MOL0     H46256   2.692   3.734   2.519  0.1008 -1.5643 -0.0508
  343MOL0     H46257   2.515   3.930   2.477  0.0371 -0.1089 -0.1642
  343MOL0     H46258   2.375   3.826   2.414 -3.7659  5.5897 -1.0839
  343MOL0     H46259   2.379   3.947   2.691 -1.7673  1.8806  0.3870
  343MOL0     H46260   2.234   3.903   2.602 -0.2594  1.5569  0.0132
  343MOL0     H46261   2.393   4.144   2.517 -0.7071  0.9740  0.7073
  343MOL0     H46262   2.253   4.123   2.628  0.6683 -1.2881  0.3533
  343MOL0     H46263   2.255   4.053   2.331 -1.5907 -1.7318  0.8561
  343MOL0     H46264   2.181   4.193   2.390 -1.6740  0.3476 -0.4896
  343MOL0     H46265   1.867   3.879   2.435  2.5735 -0.5642  0.3936
  343MOL0     H46266   1.631   3.864   2.410 -0.0320 -1.4740  0.3767
  343MOL0     H46267   1.605   3.835   2.582 -2.0261  0.7430  1.0672
  343MOL0     H46268   1.541   3.982   2.490  0.6674  1.4786 -0.3047
  343MOL0     H46269   1.478   3.962   2.967  0.2997  0.6693  0.6931
  343MOL0     H46270   1.254   3.952   3.084 -0.5334 -0.3013 -0.0703
  343MOL0     H46271   0.913   4.199   2.863  0.6382 -0.6871  0.6370
  343MOL0     H46272   0.919   4.039   2.792 -0.4159 -2.5634  1.4221
  343MOL0     H46273   0.792   3.941   2.965 -0.9281 -0.4746 -0.4567
  343MOL0     H46274   0.788   4.097   3.059  0.3443  0.7380 -0.0107
  343MOL0     H46275   0.570   4.055   2.915  0.5409 -0.5009  1.9508
  343MOL0     H46276   0.673   4.040   2.774 -1.1619 -1.7969  0.5721
  343MOL0     H46277   0.649   4.303   2.915 -1.9888 -1.0856 -1.2080
  343MOL0     H46278   0.745   4.277   2.774  0.4847 -1.2356 -1.2937
  343MOL0     H46279   0.451   4.217   2.780 -2.0578  1.4148 -2.6592
  343MOL0     H46280   0.564   4.236   2.640 -0.8758  1.9872 -0.1466
  343MOL0     H46281   0.404   4.433   2.687 -0.2110 -0.1761  1.4179
  343MOL0     H46282   0.497   4.468   2.835 -1.5035  0.3889 -0.0038
  343MOL0     H46283   0.583   4.469   2.544  0.5478  0.2466 -0.1570
  343MOL0     H46284   0.696   4.479   2.677  0.3117 -2.0749 -0.4246
  343MOL0     H46285   0.458   4.660   2.606  1.1590 -2.1619 -2.0327
  343MOL0     H46286   0.634   4.700   2.583  1.2462  0.3250  0.9541
  343MOL0     H46287   1.096   4.188   2.746  2.4453  2.6273  0.3295
  343MOL0     H46288   1.310   4.170   2.641  2.0362  0.5076  0.3617
  343MOL0     H46289   1.858   4.289   2.706  2.5647 -0.6247 -0.3296
  343MOL0     H46290   2.055   4.237   2.575  1.7418 -1.3796  0.6578
  343MOL0     H46291   3.479   3.549   2.554 -0.2855 -2.5208 -1.0394
  343MOL0     H46292   3.670   3.602   2.406  0.4673  0.2790  0.0709
  343MOL0     H46293   4.309   3.454   2.484 -1.1022  0.3990 -0.3013
  343MOL0     H46294   4.475   3.437   2.292 -0.8400  1.6119 -1.4565
  343MOL0     H46295   4.573   3.324   2.114 -0.0807  0.2833  1.0822
  343MOL0     H46296   4.444   3.241   2.036  0.4033 -0.2797 -0.7644
  343MOL0     H46297   4.590   3.396   1.833  1.4988 -0.3576 -1.4861
  343MOL0     H46298   4.547   3.227   1.840 -0.7566  1.4942 -0.8859
  343MOL0     H46299   4.784   3.350   2.004 -0.9901  0.6434 -0.2900
  343MOL0     H46300   4.794   3.317   1.838  0.8055  1.5707  0.9270
  343MOL0     H46301   4.700   3.093   2.033  0.7663 -0.0562  1.3331
  343MOL0     H46302   4.868   3.139   2.021  2.6735 -2.0123 -3.4887
  343MOL0     H46303   4.871   2.891   1.696 -1.4554  0.7220 -1.5969
  343MOL0     H46304   4.180   3.481   2.005  3.9463  1.1299 -1.5703
  343MOL0     H46305   3.996   3.514   2.193 -0.1393  0.2549  1.8196
  344MOL0     O46306   1.049  10.693   8.866  0.1933  1.1971 -0.4080
  344MOL0     C46307   1.064  10.566   8.854  0.5770 -1.1595  0.2516
  344MOL0     O46308   1.176  10.493   8.875  0.2162  0.0760 -0.4744
  344MOL0     C46309   1.298  10.551   8.898 -0.0820 -0.0913  0.1545
  344MOL0     C46310   1.391  10.490   8.976 -0.6014  1.3677  0.5115
  344MOL0     C46311   1.516  10.534   9.009 -0.3769 -1.2369 -0.3671
  344MOL0     C46312   1.564  10.643   8.935  0.3638  0.0795  0.6648
  344MOL0     O46313   1.692  10.684   8.944 -0.3802 -0.3512 -0.3950
  344MOL0     C46314   1.700  10.828   8.962  1.0256  1.1340 -0.1662
  344MOL0     C46315   1.830  10.863   9.044 -0.1045  0.5780 -0.3025
  344MOL0     C46316   1.956  10.851   8.961 -0.8077  0.5271  0.8759
  344MOL0     C46317   2.068  10.848   9.065 -0.0372  0.1514 -0.9407
  344MOL0     C46318   2.198  10.821   9.000  0.2756 -0.2735 -0.1260
  344MOL0     C46319   2.298  10.796   9.114  0.9228  0.1053 -0.2286
  344MOL0     C46320   2.434  10.776   9.069 -0.1261 -0.4712  0.2594
  344MOL0     C46321   2.537  10.757   9.178  0.0472  0.8802 -0.3295
  344MOL0     N46322   2.516  10.646   9.273  0.6028  0.3368  0.1668
  344MOL0     C46323   2.526  10.514   9.245  0.2736  0.4571  0.3396
  344MOL0     C46324   2.516  10.443   9.358  0.0439  0.2564  0.7777
  344MOL0     C46325   2.518  10.295   9.386 -0.0176  0.4660  0.6142
  344MOL0     C46326   2.404  10.223   9.454 -0.1935  0.2190 -0.5795
  344MOL0     C46327   2.320  10.146   9.356  0.2490  0.7767  0.0784
  344MOL0     C46328   2.212  10.056   9.432 -0.3348  0.4996 -0.4368
  344MOL0     O46329   2.114  10.145   9.493 -0.5597 -0.2511  0.2017
  344MOL0     C46330   1.985  10.110   9.496 -0.6482  0.2215  0.1879
  344MOL0     C46331   1.906  10.190   9.568 -0.1956  0.9040 -0.2535
  344MOL0     C46332   1.768  10.165   9.605 -0.6799  0.7848 -0.7652
  344MOL0     C46333   1.691  10.266   9.696 -0.7538 -0.8846  0.2871
  344MOL0     C46334   1.713  10.046   9.549 -0.2412 -0.6786 -0.1532
  344MOL0     C46335   1.572  10.003   9.563 -0.4074  0.3646  0.0862
  344MOL0     O46336   1.475  10.097   9.584 -0.2227  0.7010 -0.4541
  344MOL0     C46337   1.344  10.052   9.605  0.4530  0.3104  0.5582
  344MOL0     C46338   1.287  10.097   9.724  0.3887 -0.2914 -0.2007
  344MOL0     C46339   1.150  10.063   9.744 -0.1535  0.0394 -0.5874
  344MOL0     C46340   1.071   9.998   9.655 -0.1601  0.0042 -0.2309
  344MOL0     O46341   0.940   9.978   9.685  0.3979 -0.3361 -0.6657
  344MOL0     C46342   0.864   9.892   9.598 -0.7578  0.1397 -0.5328
  344MOL0     C46343   0.721   9.899   9.652  0.2330 -0.6634 -1.1401
  344MOL0     C46344   0.703   9.843   9.792  0.6999  0.1656  0.5290
  344MOL0     C46345   0.551   9.823   9.824 -0.6480  0.3829 -0.6062
  344MOL0     C46346   0.492   9.954   9.883 -0.2681 -0.6154 -0.2906
  344MOL0     C46347   0.339   9.952   9.896  1.4498 -0.4192  0.4940
  344MOL0     C46348   0.294   9.823   9.958  1.0923 -0.2791  0.2652
  344MOL0     C46349   0.146   9.838  10.000 -0.1622  0.5366 -0.4231
  344MOL0    Cl46350   0.069   9.777   9.856  0.0905 -0.0375  0.4083
  344MOL0     C46351   1.131   9.961   9.530  0.8510  0.3909  0.0772
  344MOL0     C46352   1.269   9.990   9.501 -0.1861 -0.1141  0.1049
  344MOL0     O46353   1.546   9.885   9.540 -0.7602  0.2407 -0.5426
  344MOL0     C46354   1.798   9.956   9.474 -0.5393 -0.0851 -0.0594
  344MOL0     C46355   1.928   9.991   9.448 -0.0356  0.0357  1.0238
  344MOL0     N46356   2.503  10.534   9.459 -0.5197 -0.2841  0.0368
  344MOL0     N46357   2.496  10.654   9.406  0.3556 -0.3906 -0.0779
  344MOL0     C46358   1.481  10.706   8.842  1.1006  0.1435 -0.1324
  344MOL0     C46359   1.346  10.670   8.836  0.8457 -0.3992 -0.2475
  344MOL0     C46360   0.948  10.483   8.815 -0.3651  0.5952  0.3163
  344MOL0     C46361   0.846  10.526   8.729 -0.2715  0.9392  0.7618
  344MOL0     C46362   0.734  10.445   8.697 -0.1328  0.0482 -0.3379
  344MOL0     C46363   0.727  10.315   8.748  0.0865 -0.2525  0.5485
  344MOL0     O46364   0.620  10.242   8.697  0.6316  0.0787 -0.3349
  344MOL0     C46365   0.600  10.107   8.736 -0.4991  0.4262  0.1730
  344MOL0     C46366   0.693  10.004   8.661  0.7557  0.1466  0.4474
  344MOL0     C46367   0.674   9.982   8.510 -0.6389  0.2833 -0.2660
  344MOL0     C46368   0.569   9.877   8.481 -0.0057  0.3224 -0.8475
  344MOL0     C46369   0.518   9.847   8.349 -0.4955 -0.0593  0.5187
  344MOL0     C46370   0.482   9.806   8.244 -0.0591 -0.4754  0.8573
  344MOL0     C46371   0.831  10.272   8.837 -0.1051 -0.9118  0.2027
  344MOL0     C46372   0.942  10.353   8.860 -0.4386  0.7131 -0.0867
  344MOL0     H46373   1.363  10.400   9.030  1.9545 -0.9491 -1.6557
  344MOL0     H46374   1.585  10.476   9.068 -1.8735 -1.8598  0.8511
  344MOL0     H46375   1.714  10.880   8.867  3.4125 -0.7731 -0.9409
  344MOL0     H46376   1.614  10.871   9.015  1.0266  1.5836 -0.5193
  344MOL0     H46377   1.823  10.965   9.082  1.4795  1.1526 -1.4418
  344MOL0     H46378   1.834  10.792   9.128  1.2058 -0.1932 -0.9825
  344MOL0     H46379   1.944  10.756   8.909 -0.4111  0.7342  0.3872
  344MOL0     H46380   1.967  10.926   8.882  0.5148  0.3534  0.8633
  344MOL0     H46381   2.075  10.949   9.106 -1.2927 -1.1496  2.9477
  344MOL0     H46382   2.050  10.774   9.144 -1.9335  0.0542 -1.4246
  344MOL0     H46383   2.187  10.726   8.948 -1.4419  0.7548 -1.7895
  344MOL0     H46384   2.228  10.916   8.953 -0.9572  1.2223  1.9345
  344MOL0     H46385   2.281  10.881   9.180  2.6249  0.3590 -0.0743
  344MOL0     H46386   2.261  10.705   9.162  0.4804  0.0375 -0.6852
  344MOL0     H46387   2.427  10.681   9.016 -0.0294 -2.6463  3.7767
  344MOL0     H46388   2.460  10.862   9.008 -2.5810  2.0400  2.4472
  344MOL0     H46389   2.546  10.854   9.227  2.2020  0.3127  0.5830
  344MOL0     H46390   2.636  10.755   9.131  1.4005  5.6455  1.7322
  344MOL0     H46391   2.536  10.482   9.142 -3.3819 -0.3092  0.0761
  344MOL0     H46392   2.553  10.245   9.296  0.7655 -0.1092  1.2170
  344MOL0     H46393   2.602  10.273   9.453 -0.9144 -3.0316  0.7906
  344MOL0     H46394   2.339  10.296   9.503  0.2648  0.5832 -0.5032
  344MOL0     H46395   2.440  10.150   9.527  0.8800 -1.5730 -2.7858
  344MOL0     H46396   2.385  10.079   9.300 -2.1921  0.1980 -2.2336
  344MOL0     H46397   2.269  10.202   9.278 -3.4795  0.4395  2.0406
  344MOL0     H46398   2.255  10.003   9.517 -1.8563  0.1291  0.1432
  344MOL0     H46399   2.176   9.974   9.370  0.1343 -0.2740  0.3051
  344MOL0     H46400   1.964  10.278   9.595 -0.2058  0.7616  0.2451
  344MOL0     H46401   1.657  10.212   9.784  0.6723 -0.7403  0.9598
  344MOL0     H46402   1.756  10.346   9.732  1.0327 -2.4946  0.8285
  344MOL0     H46403   1.605  10.303   9.640  0.5701 -0.8244 -1.8138
  344MOL0     H46404   1.348  10.158   9.790  0.3275 -0.8073  0.3330
  344MOL0     H46405   1.105  10.110   9.831  1.4326  1.9194 -0.7012
  344MOL0     H46406   0.862   9.916   9.491 -0.5206 -1.0836 -0.8304
  344MOL0     H46407   0.905   9.791   9.608  0.6083  0.7924  0.8661
  344MOL0     H46408   0.693  10.005   9.653  0.7320 -0.4809  1.9059
  344MOL0     H46409   0.659   9.831   9.594  1.1599 -0.6962 -2.1182
  344MOL0     H46410   0.737   9.907   9.874 -1.8928 -2.7334  4.2054
  344MOL0     H46411   0.764   9.752   9.799 -1.8164 -1.5464  1.9503
  344MOL0     H46412   0.492   9.787   9.739 -0.7716 -2.2026  0.4706
  344MOL0     H46413   0.540   9.748   9.904 -1.4643  1.6090  0.4625
  344MOL0     H46414   0.520  10.039   9.820  2.0818 -0.4586  0.8570
  344MOL0     H46415   0.527   9.977   9.984 -1.9223 -2.1878  0.6918
  344MOL0     H46416   0.321  10.040   9.958  1.6108 -0.0928  0.0808
  344MOL0     H46417   0.307   9.966   9.792  1.0609  2.5535  0.9245
  344MOL0     H46418   0.347   9.803  10.052 -1.3635 -0.2503  1.7542
  344MOL0     H46419   0.304   9.747   9.880 -1.8705  0.2263 -0.7542
  344MOL0     H46420   0.109   9.935  10.033 -0.0957 -0.4610  2.9062
  344MOL0     H46421   0.126   9.764  10.078  1.1491 -0.1366 -0.6992
  344MOL0     H46422   1.069   9.922   9.450 -0.8735 -1.3909  2.1397
  344MOL0     H46423   1.315   9.970   9.405 -1.9765 -0.4824 -0.7064
  344MOL0     H46424   1.762   9.876   9.409 -1.3606 -0.7612  1.2029
  344MOL0     H46425   1.979   9.916   9.388 -3.3441  0.6870 -3.0817
  344MOL0     H46426   1.521  10.789   8.786 -0.9575  1.3168  0.0565
  344MOL0     H46427   1.290  10.734   8.769 -1.0448  0.4878  2.0481
  344MOL0     H46428   0.842  10.628   8.692 -1.5528 -0.3115 -2.9813
  344MOL0     H46429   0.647  10.489   8.650 -0.4672  0.0599  0.2857
  344MOL0     H46430   0.610  10.087   8.844 -0.9504  2.2878  0.5821
  344MOL0     H46431   0.497  10.077   8.717 -0.4098  0.9885 -1.3047
  344MOL0     H46432   0.671   9.910   8.713 -0.6017  0.0062 -0.3421
  344MOL0     H46433   0.798  10.030   8.679  1.5943 -1.5917 -1.5072
  344MOL0     H46434   0.765   9.933   8.474 -0.9166 -1.1406  0.8881
  344MOL0     H46435   0.658  10.071   8.449 -1.4605  0.2140 -0.1618
  344MOL0     H46436   0.483   9.898   8.546  1.7524 -0.7310  2.0197
  344MOL0     H46437   0.615   9.787   8.523  2.3470  2.4577  1.5221
  344MOL0     H46438   0.430   9.782   8.153  0.6505 -0.2169  0.3747
  344MOL0     H46439   0.834  10.172   8.879  2.1113 -0.9348  0.1375
  344MOL0     H46440   1.030  10.307   8.905 -1.4828 -0.8231  0.4855
  345MOL0     O46441   8.204   5.622   9.738  0.0937 -0.2187  0.5933
  345MOL0     C46442   8.234   5.503   9.734  0.1065 -0.2601 -0.2522
  345MOL0     O46443   8.136   5.401   9.711  0.1478  0.4480  0.3580
  345MOL0     C46444   8.004   5.437   9.719  0.2479  0.9396 -0.1796
  345MOL0     C46445   7.944   5.527   9.630 -1.0859  0.5185  0.0552
  345MOL0     C46446   7.807   5.550   9.640 -0.2098 -0.5372 -0.6782
  345MOL0     C46447   7.730   5.483   9.742 -0.2696 -0.2112  0.0830
  345MOL0     O46448   7.596   5.505   9.745  0.6880  0.2357 -0.3330
  345MOL0     C46449   7.514   5.406   9.801 -0.7200  0.0648 -0.2098
  345MOL0     C46450   7.383   5.389   9.730  0.3986  0.1667  0.5227
  345MOL0     C46451   7.271   5.483   9.751  0.2493 -0.2496 -0.0692
  345MOL0     C46452   7.164   5.461   9.643  0.3754 -0.0921 -0.3961
  345MOL0     C46453   7.064   5.571   9.662 -0.3966  0.3868  0.7170
  345MOL0     C46454   6.925   5.536   9.603 -0.2871  0.1025  0.0501
  345MOL0     C46455   6.929   5.480   9.465  0.3909 -0.2401  0.3450
  345MOL0     C46456   6.977   5.576   9.353  0.2125  0.1400  0.0329
  345MOL0     N46457   6.896   5.696   9.347  0.4120 -0.0137  0.5778
  345MOL0     C46458   6.776   5.705   9.278 -0.8799  0.3068 -0.8392
  345MOL0     C46459   6.720   5.821   9.312  0.2157 -0.6423  0.0814
  345MOL0     C46460   6.608   5.889   9.235  0.4135 -0.3053 -0.4085
  345MOL0     C46461   6.554   5.823   9.111  0.3420  0.2483 -0.0833
  345MOL0     C46462   6.436   5.910   9.059  1.0967  0.2979 -0.0436
  345MOL0     C46463   6.311   5.915   9.149 -0.1688  0.1680 -0.6000
  345MOL0     O46464   6.317   6.009   9.250 -0.5410 -0.4574 -0.3529
  345MOL0     C46465   6.195   6.075   9.275  0.7118 -0.4526  0.4991
  345MOL0     C46466   6.152   6.175   9.189  0.2261 -0.3454 -0.2379
  345MOL0     C46467   6.035   6.249   9.219 -0.1006 -0.3949  0.6187
  345MOL0     C46468   6.007   6.362   9.125 -0.1097 -0.0459  0.3967
  345MOL0     C46469   5.947   6.209   9.325 -0.2344  0.1922 -0.0415
  345MOL0     C46470   5.812   6.257   9.344 -0.2408  0.0716 -0.8512
  345MOL0     O46471   5.746   6.212   9.457  0.0676  0.3265 -1.0463
  345MOL0     C46472   5.624   6.265   9.484 -0.2432  0.4653 -0.4382
  345MOL0     C46473   5.593   6.302   9.614  0.2607 -0.2222  0.6605
  345MOL0     C46474   5.467   6.352   9.643  0.0149 -0.2721 -0.2492
  345MOL0     C46475   5.359   6.345   9.546  0.4659 -0.4400 -0.1755
  345MOL0     O46476   5.235   6.385   9.580 -0.3790 -0.0951 -0.2232
  345MOL0     C46477   5.134   6.281   9.567  0.3102  0.1148  0.5660
  345MOL0     C46478   4.990   6.317   9.619 -1.1864  0.3737  0.1857
  345MOL0     C46479   4.910   6.420   9.532 -0.4179  0.9674 -0.5499
  345MOL0     C46480   4.969   6.559   9.513  0.2729  0.4821 -0.1766
  345MOL0     C46481   4.865   6.653   9.455 -0.0263 -0.2485  0.3707
  345MOL0     C46482   4.907   6.795   9.457 -0.0381 -0.7552 -0.6257
  345MOL0     C46483   4.902   6.849   9.599 -0.7204 -0.1724 -0.1487
  345MOL0     C46484   4.963   6.995   9.607 -0.1002  0.2898  0.0655
  345MOL0    Cl46485   4.910   7.053   9.755 -0.1757  0.5819  0.2930
  345MOL0     C46486   5.391   6.283   9.416  0.1988  0.1184 -0.4538
  345MOL0     C46487   5.521   6.253   9.382 -0.2988  0.5172 -0.3362
  345MOL0     O46488   5.763   6.335   9.260 -0.0155  0.2889 -0.1051
  345MOL0     C46489   6.003   6.103   9.411 -0.8534 -0.9969 -0.4440
  345MOL0     C46490   6.119   6.038   9.376  0.8248  0.2161  0.3041
  345MOL0     N46491   6.816   5.885   9.382  0.1207 -0.4708  0.3093
  345MOL0     N46492   6.913   5.812   9.411  0.6011  0.0094 -0.2423
  345MOL0     C46493   7.794   5.397   9.828 -0.3809 -0.1880  0.0804
  345MOL0     C46494   7.929   5.375   9.818 -0.4725  0.3962 -0.1125
  345MOL0     C46495   8.373   5.452   9.763 -0.1574 -0.1799 -0.5753
  345MOL0     C46496   8.418   5.314   9.763  1.1402 -0.2834  0.4627
  345MOL0     C46497   8.555   5.274   9.777 -0.7864  0.0651  0.1159
  345MOL0     C46498   8.640   5.365   9.822 -0.3795  0.0943 -0.0067
  345MOL0     O46499   8.766   5.314   9.850  0.3022 -0.0792 -1.2266
  345MOL0     C46500   8.846   5.375   9.953 -0.0129 -0.1862 -0.3606
  345MOL0     C46501   8.789   5.370  10.100  0.0981 -0.4490 -0.0358
  345MOL0     C46502   8.774   5.227  10.143 -0.1537 -0.6023  0.2873
  345MOL0     C46503   8.759   5.207  10.296  0.2512 -0.4307 -0.9149
  345MOL0     C46504   8.618   5.236  10.342 -0.6413  0.8595  0.1404
  345MOL0     C46505   8.497   5.236  10.361 -0.2001 -0.2836  0.1020
  345MOL0     C46506   8.602   5.501   9.830 -0.1297 -0.1902 -0.4602
  345MOL0     C46507   8.477   5.545   9.807  0.5338  0.0619 -0.2036
  345MOL0     H46508   8.004   5.571   9.551 -0.1485  0.9812  0.9894
  345MOL0     H46509   7.760   5.626   9.579 -1.1334 -1.2825 -0.9266
  345MOL0     H46510   7.575   5.319   9.776  0.9702  0.3332  2.4876
  345MOL0     H46511   7.512   5.414   9.910  2.2546  0.0072 -0.0658
  345MOL0     H46512   7.406   5.390   9.623  0.4872  3.9642  0.4381
  345MOL0     H46513   7.347   5.287   9.740  1.9059 -0.5623 -0.8866
  345MOL0     H46514   7.216   5.477   9.846 -1.0753  0.9181 -0.7234
  345MOL0     H46515   7.304   5.587   9.754 -0.7516  0.1036 -0.7546
  345MOL0     H46516   7.210   5.474   9.545 -1.8035  2.7607 -1.1627
  345MOL0     H46517   7.127   5.359   9.661 -0.6011  0.0608 -1.4371
  345MOL0     H46518   7.046   5.582   9.769 -2.0826  0.3179  0.4669
  345MOL0     H46519   7.100   5.659   9.608  2.3279 -1.5378 -0.8610
  345MOL0     H46520   6.878   5.461   9.667  0.1865 -0.9645 -0.8120
  345MOL0     H46521   6.860   5.623   9.614 -0.9886 -0.0527 -2.2619
  345MOL0     H46522   6.992   5.391   9.474  2.3611  1.0929  0.3880
  345MOL0     H46523   6.830   5.441   9.438 -0.5371  1.8706  0.5411
  345MOL0     H46524   6.974   5.520   9.259 -1.5761  0.2629 -0.0171
  345MOL0     H46525   7.075   5.611   9.389  1.1138 -0.6977 -1.4693
  345MOL0     H46526   6.724   5.637   9.213  1.5268 -1.6140 -0.9110
  345MOL0     H46527   6.524   5.883   9.306 -0.4533 -1.2816 -1.4735
  345MOL0     H46528   6.631   5.993   9.213 -0.8620  0.0880  0.0000
  345MOL0     H46529   6.517   5.722   9.131  1.6544 -0.5226 -1.4024
  345MOL0     H46530   6.634   5.810   9.038  1.5726 -0.4673  1.3322
  345MOL0     H46531   6.394   5.864   8.969  0.1587  3.3639 -1.2808
  345MOL0     H46532   6.472   6.006   9.021  0.6446  0.0907 -1.0229
  345MOL0     H46533   6.288   5.818   9.193 -1.2121  2.5957  5.1630
  345MOL0     H46534   6.229   5.935   9.079 -0.0856  0.3668 -0.6406
  345MOL0     H46535   6.218   6.202   9.107  0.2019  2.0987  0.4553
  345MOL0     H46536   5.941   6.332   9.043 -2.2879 -1.0220  2.3916
  345MOL0     H46537   5.978   6.456   9.174  0.7466  2.1060 -2.8610
  345MOL0     H46538   6.103   6.387   9.079 -0.7488 -0.2030 -1.0811
  345MOL0     H46539   5.678   6.298   9.683  2.1772 -0.4467 -1.5781
  345MOL0     H46540   5.454   6.391   9.744 -1.9852 -2.6918  0.5236
  345MOL0     H46541   5.131   6.244   9.464  1.1810  0.2885  0.4715
  345MOL0     H46542   5.173   6.198   9.626  0.4778 -0.1092  0.1431
  345MOL0     H46543   4.943   6.218   9.620  0.2259 -0.3161  0.2889
  345MOL0     H46544   4.989   6.355   9.722  0.5078  1.0970 -0.0324
  345MOL0     H46545   4.810   6.437   9.572  0.4259  4.0464  0.5467
  345MOL0     H46546   4.896   6.376   9.433  2.6060 -1.4665 -0.0648
  345MOL0     H46547   5.006   6.592   9.611 -2.8606  3.1811  0.2718
  345MOL0     H46548   5.055   6.546   9.446  2.5773  0.4723  2.5338
  345MOL0     H46549   4.772   6.639   9.511  0.8109 -1.8221  1.4427
  345MOL0     H46550   4.844   6.634   9.350 -2.6987  0.3787  0.7112
  345MOL0     H46551   5.007   6.803   9.414  1.1665  3.1652  2.3950
  345MOL0     H46552   4.827   6.837   9.395  0.1637 -0.8997 -0.9897
  345MOL0     H46553   4.960   6.790   9.670  2.6356  2.4506 -0.4365
  345MOL0     H46554   4.796   6.851   9.626 -0.0303 -0.9528  3.0038
  345MOL0     H46555   4.938   7.056   9.520  3.0821  0.1967 -1.0348
  345MOL0     H46556   5.072   6.991   9.607 -0.0243  0.0863  3.5065
  345MOL0     H46557   5.314   6.263   9.343 -0.3769 -1.2413  0.4912
  345MOL0     H46558   5.540   6.227   9.278  0.5708  0.4578 -0.1749
  345MOL0     H46559   5.948   6.068   9.498  0.4484  2.2194  1.8770
  345MOL0     H46560   6.154   5.965   9.449 -4.5440 -1.9820  1.1227
  345MOL0     H46561   7.748   5.354   9.917  1.2609 -1.9438  0.1163
  345MOL0     H46562   7.960   5.304   9.894 -1.3584 -1.0159 -1.0227
  345MOL0     H46563   8.343   5.244   9.729  1.5001 -0.3318 -0.2450
  345MOL0     H46564   8.580   5.171   9.757  0.5423  0.8110 -2.7195
  345MOL0     H46565   8.939   5.318   9.960  1.9204  2.7845 -0.1947
  345MOL0     H46566   8.875   5.477   9.927 -1.0613  0.7599  1.8599
  345MOL0     H46567   8.688   5.410  10.090  0.2021 -0.3439 -0.7142
  345MOL0     H46568   8.840   5.421  10.182 -1.6580 -0.0295  0.8377
  345MOL0     H46569   8.865   5.175  10.114  0.0307 -1.0527  1.6081
  345MOL0     H46570   8.691   5.182  10.088 -0.9249  0.6158  0.4095
  345MOL0     H46571   8.830   5.269  10.352  0.2905 -2.4044  1.3841
  345MOL0     H46572   8.779   5.101  10.312  0.2754 -0.1007  1.5268
  345MOL0     H46573   8.392   5.252  10.374  0.3974  3.5293  1.3951
  345MOL0     H46574   8.680   5.573   9.857 -0.8520  1.1514 -1.7734
  345MOL0     H46575   8.443   5.645   9.832 -0.7503 -0.6640  1.1453
  346MOL0     O46576   8.593   7.964   3.862 -0.1292 -0.0733  0.0477
  346MOL0     C46577   8.529   8.020   3.950  0.2624  0.2043  0.8273
  346MOL0     O46578   8.394   8.051   3.935 -0.9090  0.1265 -1.0541
  346MOL0     C46579   8.324   8.007   3.831  0.0612 -0.1567 -0.1523
  346MOL0     C46580   8.311   8.091   3.716  0.0272  0.6204 -0.1958
  346MOL0     C46581   8.243   8.046   3.606 -0.1762 -0.6792  0.5459
  346MOL0     C46582   8.189   7.917   3.602  0.1323 -0.2760  0.5119
  346MOL0     O46583   8.141   7.860   3.484  0.1858 -0.2066 -0.9546
  346MOL0     C46584   8.209   7.914   3.366  0.3577  0.0777 -0.0915
  346MOL0     C46585   8.194   7.802   3.265  0.0786 -0.4290 -1.0098
  346MOL0     C46586   8.059   7.800   3.206  0.1905  0.1654 -0.4831
  346MOL0     C46587   8.046   7.678   3.104 -0.3420  0.5862 -0.1579
  346MOL0     C46588   7.908   7.687   3.046  0.5166  0.0592  0.2010
  346MOL0     C46589   7.905   7.592   2.923  0.1110 -0.0864 -0.4745
  346MOL0     C46590   7.769   7.566   2.879  0.1422  0.6479  0.5424
  346MOL0     C46591   7.702   7.691   2.800  0.5400  0.3759  0.2759
  346MOL0     N46592   7.558   7.667   2.767 -0.2728 -0.0050  0.0263
  346MOL0     C46593   7.508   7.693   2.641 -0.3756  0.4477 -0.0668
  346MOL0     C46594   7.379   7.651   2.646 -0.2426 -0.4723  0.4340
  346MOL0     C46595   7.276   7.655   2.523 -0.2502 -0.0015  0.5616
  346MOL0     C46596   7.260   7.516   2.460 -0.1057  0.0103 -0.9198
  346MOL0     C46597   7.161   7.423   2.546 -0.0137 -0.2094  0.2071
  346MOL0     C46598   7.197   7.273   2.517  0.8075  0.3326 -0.6887
  346MOL0     O46599   7.163   7.249   2.379 -0.1598  0.1676  0.4311
  346MOL0     C46600   7.041   7.196   2.345 -1.3036  0.1523  0.2290
  346MOL0     C46601   7.020   7.183   2.212  0.6577  0.0423  0.3189
  346MOL0     C46602   6.897   7.136   2.157  0.4931  0.7397 -0.5124
  346MOL0     C46603   6.880   7.127   2.002  0.4761 -0.8228  0.5510
  346MOL0     C46604   6.802   7.087   2.250 -0.2442  0.2775  0.2633
  346MOL0     C46605   6.680   7.001   2.223  0.4754  0.5798  0.0790
  346MOL0     O46606   6.661   6.896   2.307  0.9627  0.1685  0.3161
  346MOL0     C46607   6.541   6.828   2.296  0.1544  0.2335  0.0799
  346MOL0     C46608   6.550   6.691   2.286 -0.1553 -0.5368  1.2175
  346MOL0     C46609   6.439   6.608   2.279 -0.5900 -1.2320  0.8577
  346MOL0     C46610   6.315   6.666   2.290  0.1932  0.8569  0.4344
  346MOL0     O46611   6.215   6.573   2.274  0.1501  0.4044 -0.4814
  346MOL0     C46612   6.092   6.605   2.342 -0.1260  0.0389  0.7201
  346MOL0     C46613   6.002   6.683   2.250  0.0752 -0.1848  0.3690
  346MOL0     C46614   5.867   6.614   2.226 -0.0676  0.3808 -0.5368
  346MOL0     C46615   5.782   6.670   2.107  0.4080 -0.3684 -0.0041
  346MOL0     C46616   5.657   6.593   2.086  0.8971 -0.2421  0.3993
  346MOL0     C46617   5.547   6.654   2.173  0.0700 -0.5973 -0.3288
  346MOL0     C46618   5.412   6.592   2.176  0.7050 -0.3744  0.1127
  346MOL0     C46619   5.306   6.675   2.242 -0.4796 -0.1504  0.2992
  346MOL0    Cl46620   5.152   6.574   2.248 -0.1272 -0.4303  0.2950
  346MOL0     C46621   6.296   6.804   2.314 -0.4823  0.0467 -0.5442
  346MOL0     C46622   6.413   6.882   2.317  0.2709  0.6060  0.1764
  346MOL0     O46623   6.611   7.015   2.122 -0.0949 -0.0693  0.1379
  346MOL0     C46624   6.816   7.108   2.385  0.3502  0.3881 -0.1494
  346MOL0     C46625   6.938   7.164   2.433 -0.0761  0.4423  1.1674
  346MOL0     N46626   7.355   7.602   2.774  0.3744  0.1755  0.0237
  346MOL0     N46627   7.459   7.615   2.852  0.3844 -0.4407 -0.1004
  346MOL0     C46628   8.197   7.832   3.713 -0.1097  0.1543 -0.0474
  346MOL0     C46629   8.267   7.878   3.825 -0.1607  0.1107  0.2232
  346MOL0     C46630   8.599   8.068   4.075  0.2263  0.0975  0.1854
  346MOL0     C46631   8.545   8.174   4.155 -0.1136  0.2200  0.7470
  346MOL0     C46632   8.608   8.211   4.273 -0.1851 -0.4586 -0.3252
  346MOL0     C46633   8.726   8.154   4.318  0.3300 -0.2609  0.4497
  346MOL0     O46634   8.797   8.218   4.416  0.7487  0.0646 -0.7412
  346MOL0     C46635   8.901   8.139   4.476 -0.2225  0.2621 -0.1744
  346MOL0     C46636   9.038   8.150   4.410  0.1760 -0.7587 -0.8383
  346MOL0     C46637   9.154   8.112   4.510  0.0904 -0.9285 -0.7089
  346MOL0     C46638   9.284   8.127   4.445  0.4644 -0.5377 -0.7656
  346MOL0     C46639   9.397   8.112   4.545  0.9945 -0.2797  0.0189
  346MOL0     C46640   9.493   8.104   4.622  0.3573 -1.1256 -0.8990
  346MOL0     C46641   8.772   8.039   4.243 -0.3654 -0.0775 -0.0738
  346MOL0     C46642   8.709   7.994   4.121  0.3798 -1.1646 -0.4798
  346MOL0     H46643   8.361   8.186   3.724  0.8584  0.1133  0.8952
  346MOL0     H46644   8.236   8.103   3.514  0.9907 -1.7594 -0.2556
  346MOL0     H46645   8.149   7.999   3.332  0.8162  1.4885  2.4289
  346MOL0     H46646   8.314   7.940   3.381  0.4677  0.0670 -0.7886
  346MOL0     H46647   8.259   7.819   3.179 -0.9068  1.7158 -1.3980
  346MOL0     H46648   8.213   7.704   3.310 -4.0622 -0.5947  0.9022
  346MOL0     H46649   7.985   7.775   3.282 -1.9982  0.2601 -2.4465
  346MOL0     H46650   8.023   7.893   3.163 -1.9495  0.5508  1.9292
  346MOL0     H46651   8.120   7.679   3.023 -1.1849  0.1512 -0.9592
  346MOL0     H46652   8.067   7.580   3.149  0.5502 -0.1748 -2.0910
  346MOL0     H46653   7.830   7.663   3.119 -0.3166 -0.7864 -0.9148
  346MOL0     H46654   7.887   7.786   3.003 -3.3012 -1.2656 -1.4828
  346MOL0     H46655   7.968   7.624   2.840  0.8198 -0.1201  0.0426
  346MOL0     H46656   7.955   7.504   2.965  1.5400  3.4460  6.8102
  346MOL0     H46657   7.766   7.480   2.812 -2.8644  0.6965  0.4977
  346MOL0     H46658   7.710   7.531   2.965 -0.9663  1.0264 -0.0448
  346MOL0     H46659   7.757   7.708   2.707  2.1684  2.5302  1.5348
  346MOL0     H46660   7.703   7.780   2.862 -0.9891  2.7954 -2.8917
  346MOL0     H46661   7.564   7.713   2.551  1.1258 -3.4362 -0.2024
  346MOL0     H46662   7.175   7.675   2.560 -0.8704 -1.0792 -0.5079
  346MOL0     H46663   7.297   7.723   2.440 -3.4587 -0.7278 -1.0013
  346MOL0     H46664   7.354   7.461   2.460 -1.1850 -1.9493 -1.6537
  346MOL0     H46665   7.227   7.536   2.357 -0.3805 -0.8079 -0.9998
  346MOL0     H46666   7.059   7.450   2.519  0.1023  1.4104  1.2653
  346MOL0     H46667   7.165   7.435   2.655  3.1404 -0.4321  0.2206
  346MOL0     H46668   7.136   7.208   2.580  0.4705  1.1210 -0.1863
  346MOL0     H46669   7.299   7.249   2.549  0.4292 -0.0457  0.2727
  346MOL0     H46670   7.110   7.211   2.158  0.3338  0.3838 -0.0539
  346MOL0     H46671   6.874   7.022   1.972  2.4739 -0.9287  0.3909
  346MOL0     H46672   6.785   7.178   1.984  1.8502  1.3555 -0.9252
  346MOL0     H46673   6.956   7.189   1.953 -2.1579  0.8480 -1.7662
  346MOL0     H46674   6.645   6.641   2.275  0.1140 -0.3704  2.6023
  346MOL0     H46675   6.458   6.502   2.280  2.7292 -0.7676 -0.0848
  346MOL0     H46676   6.042   6.509   2.355 -0.1249  0.0794  1.0202
  346MOL0     H46677   6.095   6.647   2.443  1.7264  0.2169  0.6224
  346MOL0     H46678   5.989   6.784   2.291  0.6689  0.4808 -0.9944
  346MOL0     H46679   6.049   6.691   2.151  0.4955 -4.1282  0.1039
  346MOL0     H46680   5.813   6.631   2.319 -1.0335  0.5990 -1.1215
  346MOL0     H46681   5.875   6.505   2.213 -1.0025  0.2615 -0.2089
  346MOL0     H46682   5.753   6.774   2.124 -0.6164 -0.5794 -0.3854
  346MOL0     H46683   5.840   6.669   2.014  0.7038  0.2516  0.1719
  346MOL0     H46684   5.675   6.486   2.098  0.7635 -0.3893 -0.6317
  346MOL0     H46685   5.628   6.608   1.982  1.0486 -3.0486 -0.1174
  346MOL0     H46686   5.598   6.654   2.269  3.8597  1.2091 -2.1375
  346MOL0     H46687   5.534   6.759   2.144  0.9319 -0.4537 -0.2356
  346MOL0     H46688   5.419   6.506   2.243 -0.3383  0.0901  0.8419
  346MOL0     H46689   5.380   6.565   2.075 -0.0001  2.1489 -0.3933
  346MOL0     H46690   5.302   6.757   2.169  0.3754 -0.2823  0.0934
  346MOL0     H46691   5.323   6.717   2.342 -0.4544  0.0399  0.2148
  346MOL0     H46692   6.199   6.853   2.322 -1.8616 -2.3971 -1.1827
  346MOL0     H46693   6.409   6.988   2.342  2.5439  1.4718 -2.6314
  346MOL0     H46694   6.743   7.073   2.457  0.0617  3.0325  0.9487
  346MOL0     H46695   6.951   7.183   2.539  0.8293 -0.3178  1.2059
  346MOL0     H46696   8.153   7.733   3.711  2.2706 -0.9730 -0.3390
  346MOL0     H46697   8.277   7.816   3.913  1.6553  2.1269  1.5472
  346MOL0     H46698   8.471   8.241   4.111  1.7520  3.2426  1.9276
  346MOL0     H46699   8.575   8.296   4.331  1.0910 -0.7237  0.8520
  346MOL0     H46700   8.910   8.178   4.577 -1.1049 -0.8805  0.3718
  346MOL0     H46701   8.868   8.035   4.491 -0.3606  0.2076 -0.8063
  346MOL0     H46702   9.049   8.253   4.375 -0.2716  0.3701  2.0431
  346MOL0     H46703   9.042   8.073   4.333 -2.1153 -2.4585  0.6293
  346MOL0     H46704   9.142   8.006   4.534 -2.2573 -0.8031 -1.1200
  346MOL0     H46705   9.145   8.176   4.598 -2.5554  2.2594 -3.0278
  346MOL0     H46706   9.290   8.229   4.406  1.0153  0.1354  0.9984
  346MOL0     H46707   9.295   8.047   4.370  1.4478 -0.9699 -0.1707
  346MOL0     H46708   9.562   8.093   4.703 -1.1248  2.7863  1.1268
  346MOL0     H46709   8.851   7.974   4.281 -0.8146 -0.5007  0.1570
  346MOL0     H46710   8.741   7.901   4.074 -0.0277 -0.6367 -1.8532
  347MOL0     O46711   4.015   9.050   1.042  0.3347  1.0837 -0.5686
  347MOL0     C46712   4.043   9.165   1.024 -0.5588 -0.2501 -0.6305
  347MOL0     O46713   3.952   9.266   1.034  0.2349  0.2498 -0.1024
  347MOL0     C46714   3.826   9.242   1.089  0.0721  0.6451  0.4013
  347MOL0     C46715   3.724   9.318   1.034  0.5360 -0.4443 -0.3084
  347MOL0     C46716   3.596   9.308   1.085 -0.1069 -0.4751  0.0641
  347MOL0     C46717   3.563   9.213   1.185 -0.0031  0.3705 -0.7669
  347MOL0     O46718   3.434   9.206   1.225 -0.3607  0.2170 -0.6208
  347MOL0     C46719   3.401   9.187   1.367 -0.2323  0.7735  0.1368
  347MOL0     C46720   3.359   9.332   1.410  0.1054  0.3867  0.4139
  347MOL0     C46721   3.318   9.336   1.565 -0.3427  0.0429 -0.3185
  347MOL0     C46722   3.281   9.471   1.615 -0.9615 -0.2300 -0.5604
  347MOL0     C46723   3.226   9.454   1.758 -0.9466 -0.0271 -0.3476
  347MOL0     C46724   3.206   9.599   1.823  0.4462  0.0387  0.9111
  347MOL0     C46725   3.109   9.586   1.942  0.3362 -0.1500 -1.0409
  347MOL0     C46726   3.062   9.720   2.012 -0.5732  0.1778  0.3441
  347MOL0     N46727   3.177   9.801   2.057  1.0766  0.2752  0.0237
  347MOL0     C46728   3.236   9.915   2.004 -0.1497  0.3173  0.7776
  347MOL0     C46729   3.332   9.954   2.089 -0.4102 -0.6563 -0.1910
  347MOL0     C46730   3.428  10.078   2.079 -0.1947  0.5227 -0.3842
  347MOL0     C46731   3.567  10.025   2.071  0.7782  0.5941  0.2385
  347MOL0     C46732   3.590   9.922   1.958  0.3884 -0.3855 -0.6499
  347MOL0     C46733   3.735   9.863   1.964 -0.2293  0.9976  0.1088
  347MOL0     O46734   3.831   9.967   1.948 -0.9136 -0.1420  1.1336
  347MOL0     C46735   3.931   9.956   1.838  0.8296 -0.2116 -0.4697
  347MOL0     C46736   3.908   9.910   1.705 -0.7339 -0.0566  0.4942
  347MOL0     C46737   4.010   9.920   1.608 -0.2007 -0.6934  0.0560
  347MOL0     C46738   3.981   9.858   1.470  0.4244  0.1422 -0.0729
  347MOL0     C46739   4.138   9.976   1.646  0.3480  0.1685  0.1063
  347MOL0     C46740   4.258   9.981   1.557 -0.0799 -0.6226 -0.4519
  347MOL0     O46741   4.371  10.009   1.619 -0.3835 -0.3994  0.3658
  347MOL0     C46742   4.493   9.962   1.569  0.1850  0.2101 -0.8144
  347MOL0     C46743   4.515   9.845   1.486  0.6906  0.7941  0.7357
  347MOL0     C46744   4.646   9.796   1.453 -0.1036  0.0282  0.0058
  347MOL0     C46745   4.751   9.881   1.488  0.3796 -0.8153 -0.9407
  347MOL0     O46746   4.862   9.836   1.441 -0.0479  0.9302 -0.1005
  347MOL0     C46747   4.990   9.900   1.460 -1.0158  0.2000  0.2956
  347MOL0     C46748   5.098   9.807   1.424 -0.9070 -0.7635 -0.0874
  347MOL0     C46749   5.232   9.867   1.432 -0.9094  0.5675 -1.3016
  347MOL0     C46750   5.342   9.759   1.439 -0.3349  0.5072 -0.2564
  347MOL0     C46751   5.480   9.823   1.476 -0.3938 -1.1248  0.2199
  347MOL0     C46752   5.592   9.736   1.443 -0.1968  0.9283 -0.5719
  347MOL0     C46753   5.732   9.790   1.455  0.6897 -0.5932  0.4792
  347MOL0     C46754   5.843   9.700   1.400 -0.8473  0.1618 -0.2423
  347MOL0    Cl46755   5.887   9.754   1.233 -0.1897  0.0084 -0.3593
  347MOL0     C46756   4.734   9.997   1.566 -0.5121 -0.0618 -0.0492
  347MOL0     C46757   4.611  10.027   1.614 -0.7432  1.3186 -0.4400
  347MOL0     O46758   4.245   9.978   1.436 -0.0722 -0.2651  0.1027
  347MOL0     C46759   4.149  10.030   1.777 -0.0735  0.0173 -0.0608
  347MOL0     C46760   4.047  10.017   1.869 -0.7027 -1.5010 -0.0611
  347MOL0     N46761   3.339   9.859   2.189  0.1919 -0.2666  0.1558
  347MOL0     N46762   3.242   9.776   2.171 -0.1174 -0.4812 -0.9023
  347MOL0     C46763   3.666   9.138   1.240 -0.7836  0.0409  0.4996
  347MOL0     C46764   3.797   9.148   1.192 -0.1484  0.8067 -0.2088
  347MOL0     C46765   4.182   9.197   0.995  0.2155 -0.4497 -0.2275
  347MOL0     C46766   4.275   9.252   1.082  0.4627 -0.3776 -0.1924
  347MOL0     C46767   4.409   9.276   1.044  0.8257  0.3483 -0.0550
  347MOL0     C46768   4.448   9.245   0.914  0.0835 -0.5460  0.2940
  347MOL0     O46769   4.577   9.265   0.884 -0.0044  1.1678  0.4310
  347MOL0     C46770   4.621   9.359   0.780 -0.8264 -0.8100  0.2421
  347MOL0     C46771   4.731   9.448   0.834  0.1750  0.1679 -0.5736
  347MOL0     C46772   4.875   9.401   0.806  0.5245  0.2655  0.3750
  347MOL0     C46773   4.978   9.484   0.880 -0.6471 -0.2599  0.4620
  347MOL0     C46774   4.984   9.461   1.019 -0.1900  0.9383  0.2850
  347MOL0     C46775   4.980   9.442   1.139 -0.3653 -0.3041  0.2946
  347MOL0     C46776   4.359   9.193   0.831  0.2025 -0.1360  0.4946
  347MOL0     C46777   4.229   9.172   0.866 -1.1194 -0.2123 -0.3187
  347MOL0     H46778   3.734   9.390   0.954 -3.9804  0.9365  0.0930
  347MOL0     H46779   3.526   9.380   1.043 -0.2403 -1.5559 -1.6273
  347MOL0     H46780   3.323   9.111   1.363  1.3000 -0.8387 -1.3897
  347MOL0     H46781   3.479   9.146   1.433  1.9804  0.0055 -2.7113
  347MOL0     H46782   3.441   9.400   1.386 -0.4244  0.7938 -0.2832
  347MOL0     H46783   3.276   9.351   1.341 -2.5932 -4.9826  1.5793
  347MOL0     H46784   3.238   9.263   1.584  0.7908 -0.6473  2.3412
  347MOL0     H46785   3.410   9.307   1.616 -0.5600 -0.6273 -0.2922
  347MOL0     H46786   3.365   9.541   1.618 -2.0231  1.1020 -0.4465
  347MOL0     H46787   3.203   9.509   1.547 -1.2465  3.4287  1.4954
  347MOL0     H46788   3.142   9.384   1.754  0.9725 -2.5661  0.7822
  347MOL0     H46789   3.302   9.397   1.813 -0.5367  0.4499 -0.4148
  347MOL0     H46790   3.301   9.643   1.855 -0.1222  0.8048  1.6051
  347MOL0     H46791   3.158   9.655   1.742  1.0701 -0.9690 -0.1882
  347MOL0     H46792   3.028   9.524   1.903  1.8515 -3.9623  1.2717
  347MOL0     H46793   3.147   9.523   2.023 -2.2223 -0.4590  0.0172
  347MOL0     H46794   2.998   9.701   2.099 -0.4591  2.0328  0.8689
  347MOL0     H46795   3.006   9.770   1.933 -0.2787  0.6063  0.4039
  347MOL0     H46796   3.230   9.955   1.904 -1.2645  1.9754  1.4664
  347MOL0     H46797   3.409  10.128   1.983 -0.7356  2.2004  0.5655
  347MOL0     H46798   3.423  10.150   2.161  2.2093  0.4423 -0.1211
  347MOL0     H46799   3.580   9.971   2.165 -0.1964 -1.0712 -0.5408
  347MOL0     H46800   3.631  10.112   2.057 -0.3441  1.4827  0.4924
  347MOL0     H46801   3.586   9.973   1.862  2.3324  1.9689  0.4012
  347MOL0     H46802   3.517   9.841   1.959 -1.0100  0.8189  0.1199
  347MOL0     H46803   3.754   9.791   1.884  0.2225 -0.9676  1.8995
  347MOL0     H46804   3.769   9.815   2.056  3.6882  0.0389 -1.6316
  347MOL0     H46805   3.814   9.869   1.671 -0.2576 -0.1244 -0.8272
  347MOL0     H46806   3.965   9.935   1.393 -1.8609 -1.4062 -1.2483
  347MOL0     H46807   4.066   9.804   1.427 -0.5910 -2.8777  1.4130
  347MOL0     H46808   3.889   9.799   1.471 -1.4405  2.7604 -1.9839
  347MOL0     H46809   4.430   9.786   1.455  2.1217 -1.1870  0.3528
  347MOL0     H46810   4.663   9.708   1.392 -2.4310 -0.2139 -0.3760
  347MOL0     H46811   5.001   9.985   1.393 -2.1208  2.3219  2.6310
  347MOL0     H46812   5.018   9.930   1.562  1.8297 -0.2759 -0.2566
  347MOL0     H46813   5.089   9.714   1.481  0.0091 -0.2329  0.9405
  347MOL0     H46814   5.079   9.780   1.319  1.6963 -0.6666 -0.6513
  347MOL0     H46815   5.247   9.932   1.519  0.9415 -0.4628 -0.7764
  347MOL0     H46816   5.254   9.929   1.345 -1.7446 -0.5262 -2.3219
  347MOL0     H46817   5.318   9.687   1.518  0.7839  2.5160  2.0642
  347MOL0     H46818   5.346   9.710   1.342  2.3804  1.0373 -0.4890
  347MOL0     H46819   5.482   9.849   1.582  0.3356 -0.2494 -0.0029
  347MOL0     H46820   5.489   9.914   1.416  3.7310 -3.5207 -3.3259
  347MOL0     H46821   5.588   9.655   1.517  0.3809  2.3953  1.1379
  347MOL0     H46822   5.582   9.692   1.343 -1.7055 -1.4019  0.5165
  347MOL0     H46823   5.749   9.807   1.562  2.7647  1.0726 -0.0646
  347MOL0     H46824   5.732   9.890   1.410 -0.0271  0.6028  2.9430
  347MOL0     H46825   5.802   9.599   1.400  1.0746 -0.6646 -1.6127
  347MOL0     H46826   5.929   9.694   1.467 -1.8281  0.6913  1.1177
  347MOL0     H46827   4.815  10.059   1.604 -0.4134  2.2172 -3.4976
  347MOL0     H46828   4.591  10.108   1.684  3.5217 -0.0586  2.7785
  347MOL0     H46829   4.242  10.065   1.821  0.6236  0.0060 -1.4820
  347MOL0     H46830   4.069  10.058   1.967 -3.0727 -0.0208 -0.0419
  347MOL0     H46831   3.648   9.071   1.324 -0.9013  0.6344  0.9497
  347MOL0     H46832   3.881   9.097   1.239  0.1208 -1.5332 -2.9892
  347MOL0     H46833   4.241   9.265   1.185 -2.3821  0.4423 -1.1413
  347MOL0     H46834   4.481   9.321   1.111 -0.2610 -0.0361  1.4335
  347MOL0     H46835   4.661   9.305   0.693  1.2473 -0.0843  0.6949
  347MOL0     H46836   4.544   9.414   0.725  0.3105 -0.1343 -0.7514
  347MOL0     H46837   4.711   9.448   0.941 -0.6813 -2.0205 -0.6761
  347MOL0     H46838   4.717   9.545   0.784 -0.2155  0.5243  0.2113
  347MOL0     H46839   4.901   9.408   0.700 -0.2946 -1.3867  0.0340
  347MOL0     H46840   4.889   9.298   0.837 -0.8515 -1.4789 -4.0469
  347MOL0     H46841   4.941   9.586   0.868 -1.2804 -0.6629 -1.4991
  347MOL0     H46842   5.078   9.472   0.838 -0.3909 -0.5690  1.1473
  347MOL0     H46843   4.983   9.432   1.245  2.1543 -0.3590  0.2560
  347MOL0     H46844   4.394   9.186   0.729 -1.6368 -0.6440 -0.1303
  347MOL0     H46845   4.157   9.130   0.796 -1.7133  2.2675 -1.3347
  348MOL0     O46846   6.314   0.990   3.394 -0.3463 -0.0948  0.3439
  348MOL0     C46847   6.376   1.093   3.370 -0.3729 -0.6570 -0.2924
  348MOL0     O46848   6.318   1.204   3.319  0.0365  0.3434  0.8138
  348MOL0     C46849   6.184   1.204   3.298 -0.0266  0.0630  0.3727
  348MOL0     C46850   6.138   1.240   3.170 -0.4561 -0.2424 -0.6951
  348MOL0     C46851   6.004   1.249   3.145 -0.2063 -0.2706  0.5513
  348MOL0     C46852   5.908   1.224   3.242  1.0300 -0.1710 -0.5181
  348MOL0     O46853   5.770   1.230   3.217  0.9126 -0.1619  0.0475
  348MOL0     C46854   5.721   1.215   3.088  0.6013 -0.1585  0.2348
  348MOL0     C46855   5.572   1.208   3.094  0.3762 -0.5155  0.0139
  348MOL0     C46856   5.497   1.336   3.140 -0.4684  0.1264  0.1622
  348MOL0     C46857   5.348   1.309   3.126  0.2928 -0.9440  0.0752
  348MOL0     C46858   5.271   1.445   3.123 -0.1930 -0.5638 -0.2128
  348MOL0     C46859   5.134   1.416   3.063 -0.0779  0.2001 -0.7029
  348MOL0     C46860   5.055   1.544   3.056  0.3626  0.3996  0.0493
  348MOL0     C46861   4.937   1.559   2.952  0.3541  0.4367 -0.5318
  348MOL0     N46862   4.851   1.443   2.953 -0.1188  0.4371 -0.7312
  348MOL0     C46863   4.716   1.447   2.968 -0.3720  1.3090  0.9428
  348MOL0     C46864   4.672   1.325   2.928 -1.2142  0.0911 -0.3640
  348MOL0     C46865   4.535   1.274   2.953 -0.4566  0.4234  0.3087
  348MOL0     C46866   4.528   1.219   3.097  0.5172 -0.4904  0.0448
  348MOL0     C46867   4.421   1.117   3.098  0.1367  1.1242 -0.0413
  348MOL0     C46868   4.451   1.022   3.219  0.4210 -0.2125 -0.2873
  348MOL0     O46869   4.355   0.916   3.212 -0.3515  0.3544 -0.4891
  348MOL0     C46870   4.223   0.919   3.255  0.0443 -0.5315  0.6942
  348MOL0     C46871   4.189   1.009   3.354  0.2090  1.1812 -1.0567
  348MOL0     C46872   4.062   1.012   3.411 -0.2004  0.0060  0.1837
  348MOL0     C46873   4.053   1.077   3.547 -0.3000 -0.4048  0.2993
  348MOL0     C46874   3.955   0.935   3.352 -0.3517 -0.1432  0.4267
  348MOL0     C46875   3.815   0.943   3.413  0.5503  0.3097  0.5331
  348MOL0     O46876   3.729   0.848   3.356 -0.8777 -0.2798 -0.1880
  348MOL0     C46877   3.604   0.861   3.402  0.6104 -0.4873  0.3284
  348MOL0     C46878   3.536   0.761   3.471  0.1668  0.4163  0.0839
  348MOL0     C46879   3.404   0.775   3.510 -0.2965  0.0157 -0.2226
  348MOL0     C46880   3.329   0.890   3.471 -0.0252  0.5951 -0.5613
  348MOL0     O46881   3.199   0.889   3.525 -0.2028 -0.0896  0.1788
  348MOL0     C46882   3.135   1.013   3.560 -0.6140  0.4608 -0.2311
  348MOL0     C46883   3.200   1.074   3.690 -1.1178  1.0122 -0.9285
  348MOL0     C46884   3.156   1.213   3.728  0.1273 -0.0859 -0.1330
  348MOL0     C46885   3.003   1.217   3.737 -0.1898 -0.6504  0.7557
  348MOL0     C46886   2.932   1.118   3.834 -0.1271 -0.2739 -0.3407
  348MOL0     C46887   2.786   1.174   3.861  0.1447  0.1362  0.3901
  348MOL0     C46888   2.690   1.063   3.916 -0.8625  0.5875 -0.2417
  348MOL0     C46889   2.557   1.104   3.983  0.7827  0.5465 -0.2408
  348MOL0    Cl46890   2.460   0.956   4.034  0.4986 -0.3197  0.0863
  348MOL0     C46891   3.392   0.986   3.394 -0.4382  0.8301  0.2199
  348MOL0     C46892   3.525   0.969   3.357 -0.4305  0.5774 -0.6826
  348MOL0     O46893   3.777   1.027   3.493  0.4267 -0.0450 -0.1143
  348MOL0     C46894   3.986   0.852   3.241 -0.0467 -0.3107 -0.0357
  348MOL0     C46895   4.115   0.843   3.195 -0.1980 -0.1368  0.0094
  348MOL0     N46896   4.786   1.248   2.894 -0.3128 -0.5057  0.0192
  348MOL0     N46897   4.886   1.322   2.904  0.1232  0.1869  0.3317
  348MOL0     C46898   5.959   1.193   3.371  0.2588 -0.3549  0.1270
  348MOL0     C46899   6.095   1.179   3.402 -0.1302  0.7236  0.1765
  348MOL0     C46900   6.522   1.104   3.393 -0.3624  0.0567  0.4442
  348MOL0     C46901   6.595   1.220   3.364  0.6648 -0.9965  0.4191
  348MOL0     C46902   6.732   1.229   3.394 -0.8024  0.5931  0.1773
  348MOL0     C46903   6.798   1.115   3.450  0.2990  0.1945  0.7828
  348MOL0     O46904   6.929   1.109   3.487  0.1999  0.2765 -0.1338
  348MOL0     C46905   7.003   1.228   3.469 -0.2967  0.7342 -0.5328
  348MOL0     C46906   7.153   1.189   3.501  0.2566 -0.5534  0.3239
  348MOL0     C46907   7.207   1.117   3.380 -0.7400  0.5985  0.0407
  348MOL0     C46908   7.364   1.103   3.387 -0.5727 -0.1526 -0.2848
  348MOL0     C46909   7.420   1.241   3.366  0.6600  0.3659 -0.0952
  348MOL0     C46910   7.455   1.345   3.323 -0.5008 -0.1118  1.5467
  348MOL0     C46911   6.718   1.001   3.490 -0.5428 -0.9634  0.2907
  348MOL0     C46912   6.584   1.000   3.461  0.2227  0.5123  0.0028
  348MOL0     H46913   6.210   1.259   3.091  0.9415 -0.1743  0.5389
  348MOL0     H46914   5.981   1.274   3.042 -0.1355  0.2462  0.6601
  348MOL0     H46915   5.750   1.299   3.024  1.7408 -0.1556  0.7319
  348MOL0     H46916   5.765   1.122   3.052 -0.7075 -0.6831 -0.0590
  348MOL0     H46917   5.536   1.183   2.993 -2.3880  0.2207  0.7443
  348MOL0     H46918   5.539   1.127   3.159 -0.1407  0.0047  0.4024
  348MOL0     H46919   5.512   1.359   3.246  2.1374 -0.0192 -0.1118
  348MOL0     H46920   5.527   1.418   3.074 -0.6114  0.4578  0.5032
  348MOL0     H46921   5.330   1.271   3.025 -2.6533 -0.9103  0.4961
  348MOL0     H46922   5.316   1.230   3.194  1.7772 -0.8583  0.9088
  348MOL0     H46923   5.270   1.475   3.228  0.9321 -1.4630  0.0708
  348MOL0     H46924   5.324   1.527   3.075  1.8267 -0.7584  1.5534
  348MOL0     H46925   5.146   1.381   2.960  0.0086 -0.2728 -0.5364
  348MOL0     H46926   5.085   1.333   3.117 -0.1408 -2.1898 -4.0955
  348MOL0     H46927   5.011   1.557   3.156 -0.4564 -2.6405  0.1788
  348MOL0     H46928   5.121   1.628   3.033 -0.4728  1.2963  0.8145
  348MOL0     H46929   4.987   1.562   2.855  1.6141  2.3703  0.1272
  348MOL0     H46930   4.875   1.649   2.962 -0.0448  0.0897  0.2430
  348MOL0     H46931   4.655   1.535   2.989  2.0120  3.9819 -2.1892
  348MOL0     H46932   4.452   1.345   2.947 -1.4178 -0.6129  0.9202
  348MOL0     H46933   4.509   1.197   2.878  2.2429  2.5298 -3.0771
  348MOL0     H46934   4.501   1.303   3.162 -1.2069  0.8463 -2.2759
  348MOL0     H46935   4.621   1.172   3.130  1.4369 -0.2777 -2.1035
  348MOL0     H46936   4.413   1.058   3.006 -0.0863 -1.4676  1.5499
  348MOL0     H46937   4.325   1.163   3.122  1.4581  2.4617  3.2934
  348MOL0     H46938   4.446   1.082   3.310  1.0044  0.2626 -0.5619
  348MOL0     H46939   4.551   0.980   3.207  1.1980  1.0551  1.3164
  348MOL0     H46940   4.265   1.074   3.395  1.0534 -0.0772 -0.5707
  348MOL0     H46941   3.977   1.030   3.611  0.2185 -0.0455  1.2045
  348MOL0     H46942   4.150   1.086   3.596  0.0249  0.7192 -0.5236
  348MOL0     H46943   4.020   1.179   3.527 -2.8845 -1.2192 -0.0394
  348MOL0     H46944   3.592   0.680   3.517  0.4870  0.0914 -0.8589
  348MOL0     H46945   3.352   0.696   3.564 -0.8820  1.0919  0.8494
  348MOL0     H46946   3.148   1.088   3.482  0.1100 -1.4814 -2.0893
  348MOL0     H46947   3.028   0.998   3.573 -1.1895  2.2162 -2.4105
  348MOL0     H46948   3.184   1.002   3.770 -0.1751  0.0554 -1.5737
  348MOL0     H46949   3.309   1.075   3.682 -0.9888 -0.1704  0.3950
  348MOL0     H46950   3.174   1.282   3.645  0.9731  0.4830  0.5038
  348MOL0     H46951   3.198   1.245   3.824 -2.5232 -0.7635  1.3768
  348MOL0     H46952   2.979   1.319   3.768 -0.4623 -0.3637 -0.3641
  348MOL0     H46953   2.959   1.200   3.638  1.4992 -3.4396  0.3688
  348MOL0     H46954   2.985   1.130   3.929  0.5470 -2.5142 -0.3781
  348MOL0     H46955   2.930   1.016   3.793 -0.8127  0.2169 -1.5782
  348MOL0     H46956   2.791   1.252   3.937  1.0100 -2.1278  2.8200
  348MOL0     H46957   2.726   1.203   3.774 -0.3935  0.1998  0.7839
  348MOL0     H46958   2.746   0.993   3.979  0.2738  2.8166  1.3673
  348MOL0     H46959   2.654   0.998   3.837  0.7190 -2.3301  1.2816
  348MOL0     H46960   2.492   1.155   3.911  1.1987 -1.9377 -2.5360
  348MOL0     H46961   2.580   1.171   4.067  0.4945  2.7979 -1.8478
  348MOL0     H46962   3.341   1.074   3.357 -0.1367  0.6660 -0.6180
  348MOL0     H46963   3.572   1.048   3.299  0.3682  0.8339  0.2937
  348MOL0     H46964   3.909   0.791   3.195 -0.5990  0.1872  0.2095
  348MOL0     H46965   4.145   0.772   3.119 -1.2131  1.4825 -1.9940
  348MOL0     H46966   5.893   1.159   3.450  1.7722 -1.2468  1.0479
  348MOL0     H46967   6.136   1.150   3.498  1.2041 -0.6501 -0.7613
  348MOL0     H46968   6.552   1.317   3.341  0.4847 -1.3586 -0.8519
  348MOL0     H46969   6.799   1.311   3.368  2.0602 -1.8031 -0.4618
  348MOL0     H46970   6.998   1.276   3.370  0.4622  0.0147 -0.9287
  348MOL0     H46971   6.959   1.299   3.540 -1.9122 -1.2823  0.5672
  348MOL0     H46972   7.165   1.129   3.591  2.3954 -2.8797 -1.3600
  348MOL0     H46973   7.198   1.288   3.514 -0.3604 -0.4714  2.0779
  348MOL0     H46974   7.193   1.187   3.296  1.1985  0.6185 -0.3230
  348MOL0     H46975   7.163   1.019   3.359  0.9440 -0.0327 -0.7591
  348MOL0     H46976   7.395   1.036   3.306 -2.3938 -0.0484 -1.0931
  348MOL0     H46977   7.397   1.059   3.482 -1.9910  0.8539  0.7141
  348MOL0     H46978   7.484   1.440   3.283  0.0514 -0.9126 -0.0365
  348MOL0     H46979   6.767   0.919   3.543  0.8784 -0.3990 -0.1093
  348MOL0     H46980   6.520   0.915   3.483 -0.7357  0.9550 -1.0387
  349MOL0     O46981   8.853   3.485   6.252  0.1198  0.6133  0.1935
  349MOL0     C46982   8.846   3.392   6.330 -0.1948 -0.4331  0.0733
  349MOL0     O46983   8.730   3.367   6.403  0.3956 -0.2368  0.0310
  349MOL0     C46984   8.613   3.434   6.364  0.2405 -0.7685 -0.5956
  349MOL0     C46985   8.544   3.396   6.251  0.0817 -0.3300 -0.0615
  349MOL0     C46986   8.414   3.446   6.226 -0.3086  0.5188  0.4973
  349MOL0     C46987   8.355   3.538   6.313 -0.2616 -0.0123  0.5513
  349MOL0     O46988   8.233   3.588   6.279 -0.4653  0.1343 -0.0095
  349MOL0     C46989   8.184   3.717   6.316 -0.3955  0.0608  0.1058
  349MOL0     C46990   8.030   3.708   6.282 -0.5915 -0.8221  0.3388
  349MOL0     C46991   7.947   3.835   6.308 -0.0527 -0.4316  0.0407
  349MOL0     C46992   7.792   3.793   6.305 -0.5462 -0.5787  0.2889
  349MOL0     C46993   7.706   3.914   6.266  1.0464  0.3237 -0.2532
  349MOL0     C46994   7.691   3.995   6.399  1.0599 -0.8671 -0.2736
  349MOL0     C46995   7.605   4.127   6.383  0.5006  0.6743  0.3686
  349MOL0     C46996   7.586   4.209   6.507  0.1983  0.3393 -0.0410
  349MOL0     N46997   7.509   4.126   6.607  0.2225 -0.2524 -0.3946
  349MOL0     C46998   7.376   4.090   6.590 -0.3752 -0.1384 -0.1604
  349MOL0     C46999   7.341   4.008   6.694  0.5167  0.4409 -0.0092
  349MOL0     C47000   7.214   3.931   6.716 -0.3971 -0.3581  0.0580
  349MOL0     C47001   7.090   4.029   6.737 -0.2509 -0.0597 -0.1495
  349MOL0     C47002   7.035   4.080   6.608  1.4145 -0.3117 -0.8531
  349MOL0     C47003   7.006   3.974   6.503  0.1352  0.5097  0.4761
  349MOL0     O47004   6.917   3.864   6.537 -0.9277  0.5545 -0.1288
  349MOL0     C47005   6.789   3.872   6.507  0.8253  0.4376 -0.6101
  349MOL0     C47006   6.720   3.987   6.467  0.0633  0.0915 -0.3277
  349MOL0     C47007   6.587   3.977   6.426 -0.3538 -1.3021 -0.9557
  349MOL0     C47008   6.532   4.112   6.388  0.2511  0.1372  0.0009
  349MOL0     C47009   6.513   3.861   6.448 -0.1591  0.2636  0.6977
  349MOL0     C47010   6.368   3.846   6.423  0.6944  0.0562 -0.1084
  349MOL0     O47011   6.295   3.735   6.457 -0.3040 -0.2203  0.1003
  349MOL0     C47012   6.161   3.735   6.446 -0.0512 -0.2814  0.5372
  349MOL0     C47013   6.096   3.785   6.331 -0.1282  0.4733  0.2009
  349MOL0     C47014   5.959   3.768   6.320 -0.0337 -0.2424  0.6936
  349MOL0     C47015   5.872   3.711   6.412 -0.3439 -0.8322  0.3807
  349MOL0     O47016   5.737   3.693   6.391  0.9133 -0.4959 -0.0404
  349MOL0     C47017   5.697   3.656   6.252  0.1560  0.0227 -0.0970
  349MOL0     C47018   5.583   3.548   6.260 -0.7357 -0.1741  0.7934
  349MOL0     C47019   5.522   3.537   6.121  0.6589  0.4599 -0.6480
  349MOL0     C47020   5.393   3.448   6.128 -0.0893 -0.3119  0.3365
  349MOL0     C47021   5.265   3.529   6.160 -0.3454  0.5214  0.1909
  349MOL0     C47022   5.136   3.444   6.186  0.6500 -0.5056 -0.3331
  349MOL0     C47023   5.022   3.538   6.220 -0.3223  0.0799  0.1321
  349MOL0     C47024   4.907   3.456   6.287  0.3262  0.1658  0.4020
  349MOL0    Cl47025   4.857   3.324   6.179 -0.0779  0.1946  0.2845
  349MOL0     C47026   5.936   3.664   6.532 -0.9737  0.4524 -0.2163
  349MOL0     C47027   6.080   3.685   6.544 -0.5597 -0.5017 -0.0932
  349MOL0     O47028   6.316   3.949   6.366 -0.2366  0.3265 -0.0463
  349MOL0     C47029   6.581   3.752   6.503  0.3184  0.3049 -0.1848
  349MOL0     C47030   6.717   3.760   6.532 -0.9418  0.4083  0.5880
  349MOL0     N47031   7.448   3.992   6.774 -0.1168 -0.6364  0.1931
  349MOL0     N47032   7.546   4.064   6.719  0.8349  0.3137 -0.4742
  349MOL0     C47033   8.427   3.570   6.433 -0.2713 -0.3220  0.0462
  349MOL0     C47034   8.560   3.529   6.455 -0.9681 -0.2617  0.2529
  349MOL0     C47035   8.973   3.325   6.381 -0.2833  0.3856 -0.0272
  349MOL0     C47036   9.089   3.314   6.302  0.0844 -0.0882  0.6805
  349MOL0     C47037   9.202   3.247   6.357  0.6254 -0.1837  0.6411
  349MOL0     C47038   9.210   3.186   6.482 -0.0793 -1.0753 -1.0784
  349MOL0     O47039   9.314   3.125   6.548  0.0915  0.3766  0.0918
  349MOL0     C47040   9.432   3.114   6.462  0.1951 -0.6005 -0.6337
  349MOL0     C47041   9.555   3.059   6.537  0.3026 -0.6569  0.0506
  349MOL0     C47042   9.627   2.952   6.452 -0.0350 -0.6746 -0.8594
  349MOL0     C47043   9.740   2.901   6.547 -0.4203  0.2092  0.2022
  349MOL0     C47044   9.809   2.786   6.487  0.0758  0.0567  0.3694
  349MOL0     C47045   9.876   2.700   6.436  0.4492 -0.2694 -0.3642
  349MOL0     C47046   9.097   3.206   6.559 -0.2221 -1.2248 -0.4184
  349MOL0     C47047   8.984   3.284   6.516  0.0906 -0.1220 -0.2000
  349MOL0     H47048   8.584   3.324   6.181  0.4213  1.6433 -2.0336
  349MOL0     H47049   8.362   3.409   6.139  0.7317  0.1287  0.0273
  349MOL0     H47050   8.181   3.736   6.423 -3.9711  1.1887 -0.0564
  349MOL0     H47051   8.241   3.795   6.264 -0.8855  0.2334 -0.1791
  349MOL0     H47052   8.025   3.684   6.176  1.9678 -0.6599  0.1208
  349MOL0     H47053   7.999   3.624   6.344  1.4739 -1.5466  0.4782
  349MOL0     H47054   7.973   3.871   6.409 -0.2257  0.7142 -0.3115
  349MOL0     H47055   7.976   3.909   6.233 -0.1935 -0.8413 -0.4210
  349MOL0     H47056   7.787   3.716   6.228  2.2428  0.6049 -1.2369
  349MOL0     H47057   7.755   3.751   6.399  2.5289 -2.2174  0.8940
  349MOL0     H47058   7.749   3.958   6.176  1.1293  1.3865  0.2973
  349MOL0     H47059   7.608   3.876   6.234  1.1095  1.0584 -1.3637
  349MOL0     H47060   7.642   3.925   6.467  0.9916 -0.3537  0.2054
  349MOL0     H47061   7.789   4.016   6.443  0.2971  2.1647  0.1946
  349MOL0     H47062   7.652   4.193   6.310 -0.7380  0.5182 -0.6099
  349MOL0     H47063   7.502   4.106   6.353  0.5571 -3.0135  2.2272
  349MOL0     H47064   7.518   4.293   6.488 -0.5617 -0.2016  0.2117
  349MOL0     H47065   7.683   4.240   6.546 -0.1394 -0.0250  1.1388
  349MOL0     H47066   7.314   4.125   6.508  0.2850  3.3695  0.6691
  349MOL0     H47067   7.201   3.859   6.635 -0.2121 -0.7795  0.3989
  349MOL0     H47068   7.231   3.869   6.805 -0.7614  1.0859  1.1703
  349MOL0     H47069   7.128   4.113   6.795 -1.1526  1.0989 -1.1917
  349MOL0     H47070   7.004   3.982   6.786 -2.1464  1.1125 -2.1684
  349MOL0     H47071   7.100   4.151   6.557  0.3149 -0.4996 -2.5984
  349MOL0     H47072   6.943   4.136   6.628  1.9008  0.6148 -1.1540
  349MOL0     H47073   7.099   3.928   6.468 -0.1278  0.2266  0.1426
  349MOL0     H47074   6.966   4.025   6.414  0.9383  1.2338  0.5188
  349MOL0     H47075   6.773   4.082   6.465  1.1617 -0.4771  0.5511
  349MOL0     H47076   6.437   4.131   6.439 -0.0043 -0.4177 -0.2538
  349MOL0     H47077   6.588   4.193   6.434 -0.4728  0.0640  1.0433
  349MOL0     H47078   6.528   4.122   6.279 -1.2783 -2.4822 -0.2635
  349MOL0     H47079   6.144   3.833   6.246 -1.3923  1.4194  0.0043
  349MOL0     H47080   5.911   3.807   6.231  2.0345 -1.1926 -0.9132
  349MOL0     H47081   5.657   3.744   6.199 -0.9588 -0.0123  0.6544
  349MOL0     H47082   5.779   3.624   6.187  0.2051  0.1246 -0.0853
  349MOL0     H47083   5.619   3.453   6.301 -0.7294 -1.3980 -1.7927
  349MOL0     H47084   5.509   3.592   6.327 -0.9249  0.7025  0.0228
  349MOL0     H47085   5.594   3.494   6.050 -0.4035 -0.4759 -1.1944
  349MOL0     H47086   5.502   3.633   6.072  1.1354  0.1880 -1.3987
  349MOL0     H47087   5.386   3.401   6.029  0.7726  1.2945 -0.5198
  349MOL0     H47088   5.421   3.366   6.195  0.1749 -0.0996  0.4880
  349MOL0     H47089   5.258   3.602   6.079 -1.4315 -1.0643 -1.2167
  349MOL0     H47090   5.276   3.593   6.248 -2.0004  0.4745  0.4748
  349MOL0     H47091   5.101   3.387   6.099 -1.8484 -0.4917  0.5963
  349MOL0     H47092   5.158   3.376   6.269  2.9312  2.1574  1.4441
  349MOL0     H47093   4.984   3.596   6.137 -0.8364  1.7312  1.4712
  349MOL0     H47094   5.060   3.622   6.279 -0.5577 -0.6484  1.3795
  349MOL0     H47095   4.818   3.509   6.321 -0.5302 -1.1273  0.2828
  349MOL0     H47096   4.946   3.413   6.379 -2.7621 -1.3395  1.1623
  349MOL0     H47097   5.870   3.614   6.602 -0.5202  1.0086  0.6330
  349MOL0     H47098   6.135   3.648   6.629 -2.2299 -0.2071  1.1656
  349MOL0     H47099   6.528   3.660   6.526 -0.2539  0.7900  0.4835
  349MOL0     H47100   6.772   3.675   6.570 -0.6898 -0.4560 -1.5702
  349MOL0     H47101   8.386   3.628   6.515  2.7917 -0.2440  1.6845
  349MOL0     H47102   8.594   3.530   6.558  1.2775 -0.7196 -0.4195
  349MOL0     H47103   9.100   3.347   6.200 -2.0125 -0.7795  0.1953
  349MOL0     H47104   9.282   3.248   6.283 -0.4720  0.9806 -0.5991
  349MOL0     H47105   9.404   3.059   6.372 -0.5112  1.6296 -1.8773
  349MOL0     H47106   9.465   3.213   6.427 -3.3340  0.3736 -1.6524
  349MOL0     H47107   9.509   3.013   6.625 -2.0704  0.4901 -0.5041
  349MOL0     H47108   9.620   3.140   6.572 -1.0398  1.0188 -1.1764
  349MOL0     H47109   9.669   2.986   6.357  2.0539  1.1550  0.6096
  349MOL0     H47110   9.561   2.866   6.441 -0.7721 -0.4561  1.2834
  349MOL0     H47111   9.705   2.870   6.645 -1.4577  1.9084  0.4200
  349MOL0     H47112   9.810   2.984   6.558  2.7028 -2.1546 -0.5078
  349MOL0     H47113   9.934   2.628   6.382 -0.6506 -0.5069 -1.2642
  349MOL0     H47114   9.099   3.150   6.651 -1.0517 -3.2399 -1.5683
  349MOL0     H47115   8.900   3.311   6.579  0.0446  4.3014 -1.8455
  350MOL0     O47116   3.080   9.279   4.381 -0.2492 -0.0735 -0.0300
  350MOL0     C47117   3.119   9.310   4.267  0.3876 -0.6116 -0.2405
  350MOL0     O47118   3.036   9.354   4.173  0.3838 -0.0322 -0.9333
  350MOL0     C47119   2.897   9.352   4.188  0.7281 -0.0410 -1.3213
  350MOL0     C47120   2.824   9.248   4.253  0.8118  0.8708  0.5084
  350MOL0     C47121   2.679   9.249   4.258 -0.3178  0.2231 -0.0318
  350MOL0     C47122   2.615   9.365   4.200 -0.0971 -0.0089  0.1972
  350MOL0     O47123   2.479   9.367   4.186  0.3083  0.0569  0.4053
  350MOL0     C47124   2.394   9.248   4.173 -0.0453 -0.0351  0.3378
  350MOL0     C47125   2.268   9.296   4.109 -0.3227  0.4763  0.3725
  350MOL0     C47126   2.178   9.377   4.202 -0.0710  0.6956 -0.5804
  350MOL0     C47127   2.052   9.417   4.121 -0.4032 -0.2375 -0.0729
  350MOL0     C47128   1.973   9.509   4.210 -0.5669 -0.0762  0.7200
  350MOL0     C47129   1.858   9.566   4.120  0.0732  0.7942 -0.2695
  350MOL0     C47130   1.898   9.688   4.035  0.2371  0.9653  0.5775
  350MOL0     C47131   1.775   9.785   4.008  0.0232  0.2834  0.5066
  350MOL0     N47132   1.674   9.746   3.903  0.2708 -0.3154  0.9561
  350MOL0     C47133   1.554   9.684   3.924  0.1224 -0.2722 -0.1141
  350MOL0     C47134   1.497   9.686   3.803  0.3033  0.1578  0.2239
  350MOL0     C47135   1.366   9.617   3.773 -0.0668  0.1449 -0.0560
  350MOL0     C47136   1.348   9.471   3.828 -0.9205 -0.1852 -0.2111
  350MOL0     C47137   1.414   9.373   3.730 -0.3242  0.2435 -0.1029
  350MOL0     C47138   1.422   9.231   3.780 -0.4049  0.5036 -0.2830
  350MOL0     O47139   1.315   9.189   3.873  0.6353  0.2270  0.9365
  350MOL0     C47140   1.302   9.068   3.925 -0.2849 -0.4860  0.8467
  350MOL0     C47141   1.163   9.031   3.963  0.4886  0.2319 -0.2585
  350MOL0     C47142   1.132   8.900   4.005  0.1262  0.3633 -0.3461
  350MOL0     C47143   0.991   8.882   4.057  0.1177 -0.6028  0.8897
  350MOL0     C47144   1.234   8.805   4.009  0.0373  0.6826  0.3832
  350MOL0     C47145   1.210   8.668   4.058 -0.0656  0.1127  0.3851
  350MOL0     O47146   1.219   8.559   3.968  0.5799 -0.1023 -1.0281
  350MOL0     C47147   1.197   8.434   4.030 -0.6299  0.4170  0.5625
  350MOL0     C47148   1.068   8.388   4.062 -0.3656 -0.2185  0.4221
  350MOL0     C47149   1.053   8.256   4.099  0.2591  0.4651 -0.1077
  350MOL0     C47150   1.157   8.166   4.118 -0.0875 -0.5229 -0.2930
  350MOL0     O47151   1.140   8.038   4.143 -0.6666  0.0359 -0.2585
  350MOL0     C47152   1.153   8.003   4.278  0.5938  0.0407  0.1292
  350MOL0     C47153   1.300   7.971   4.319  0.4416 -0.4694  0.2695
  350MOL0     C47154   1.348   7.837   4.258  0.3402 -0.3695 -0.0563
  350MOL0     C47155   1.309   7.720   4.348 -0.1300 -0.3494 -0.7213
  350MOL0     C47156   1.350   7.582   4.290  0.6523  0.7203 -0.7793
  350MOL0     C47157   1.287   7.468   4.378 -0.1237  0.3901  0.4523
  350MOL0     C47158   1.343   7.464   4.522 -0.5207  0.2957 -0.9274
  350MOL0     C47159   1.480   7.402   4.538  0.5285 -0.4151 -0.0700
  350MOL0    Cl47160   1.513   7.375   4.708  0.0160  0.4648 -0.6038
  350MOL0     C47161   1.289   8.212   4.077 -0.0868  0.9823  0.3414
  350MOL0     C47162   1.305   8.345   4.038 -0.1452 -0.4074  1.0284
  350MOL0     O47163   1.180   8.658   4.176  0.4125 -0.3059 -0.1132
  350MOL0     C47164   1.366   8.838   3.975  0.9888 -1.2651  0.0533
  350MOL0     C47165   1.395   8.967   3.924  0.0147  1.0103 -0.2640
  350MOL0     N47166   1.582   9.749   3.707  0.8253 -0.0620 -0.0260
  350MOL0     N47167   1.690   9.772   3.770 -0.3402 -0.5483 -0.0938
  350MOL0     C47168   2.683   9.472   4.150  0.5298  0.8007  0.5092
  350MOL0     C47169   2.826   9.472   4.150  0.2236  0.1307 -0.8743
  350MOL0     C47170   3.262   9.310   4.242 -0.2644 -0.2328  0.2994
  350MOL0     C47171   3.313   9.366   4.128  0.1111 -0.0338  0.2294
  350MOL0     C47172   3.454   9.389   4.116 -0.1281 -0.6692 -0.0753
  350MOL0     C47173   3.545   9.356   4.216  0.4608  0.4098 -0.8201
  350MOL0     O47174   3.679   9.383   4.196 -0.2064  0.6399 -0.1111
  350MOL0     C47175   3.780   9.289   4.235 -0.1181  0.5567 -0.1034
  350MOL0     C47176   3.909   9.308   4.156  0.0688  0.3238 -0.4899
  350MOL0     C47177   4.035   9.259   4.236 -0.0727  0.1996  0.1514
  350MOL0     C47178   4.065   9.331   4.369 -0.0554  0.3070 -0.3807
  350MOL0     C47179   4.198   9.303   4.430 -0.9260  0.7500 -0.0951
  350MOL0     C47180   4.312   9.297   4.479 -0.6637  0.1302 -1.0458
  350MOL0     C47181   3.491   9.294   4.323  0.6952  0.6767  0.4388
  350MOL0     C47182   3.352   9.261   4.337 -0.5710 -0.7065  0.5129
  350MOL0     H47183   2.879   9.159   4.284 -1.2840 -0.8302 -0.4185
  350MOL0     H47184   2.624   9.166   4.300 -1.1078  1.2977  1.1309
  350MOL0     H47185   2.445   9.169   4.117 -0.3907  0.2602 -0.4005
  350MOL0     H47186   2.369   9.203   4.269 -0.3645  0.0578  0.3001
  350MOL0     H47187   2.291   9.357   4.021 -0.5277 -2.5510 -1.9251
  350MOL0     H47188   2.207   9.212   4.077  1.5198 -0.0524 -2.0911
  350MOL0     H47189   2.149   9.326   4.294  2.5665  1.3178  0.7044
  350MOL0     H47190   2.239   9.465   4.227  0.3596  0.6051 -1.2841
  350MOL0     H47191   2.074   9.462   4.023  0.9598 -0.0557  0.2926
  350MOL0     H47192   1.991   9.328   4.101 -0.6035  0.0491 -0.7964
  350MOL0     H47193   1.929   9.443   4.285 -2.4108 -1.7427 -1.6752
  350MOL0     H47194   2.031   9.589   4.256  1.4708 -1.7104  1.1472
  350MOL0     H47195   1.814   9.486   4.060  1.9914 -2.6749  2.5523
  350MOL0     H47196   1.778   9.584   4.192  1.4172 -0.0969  1.5381
  350MOL0     H47197   1.976   9.736   4.095  3.6504  0.5278 -3.1124
  350MOL0     H47198   1.935   9.649   3.940 -3.4769 -0.4860 -0.4406
  350MOL0     H47199   1.813   9.888   4.001 -0.0301  0.2662 -0.1295
  350MOL0     H47200   1.717   9.784   4.100  0.1782 -2.8180  0.6723
  350MOL0     H47201   1.518   9.651   4.021  3.7449  0.3795  1.6576
  350MOL0     H47202   1.278   9.669   3.813 -1.2948 -0.7899 -1.4482
  350MOL0     H47203   1.343   9.614   3.666 -0.3453 -2.2853  0.0263
  350MOL0     H47204   1.246   9.452   3.860 -0.7282  1.9375  1.9227
  350MOL0     H47205   1.397   9.464   3.925  2.3148 -0.9215 -1.7357
  350MOL0     H47206   1.513   9.407   3.699 -0.8673  2.7124  0.6257
  350MOL0     H47207   1.347   9.379   3.644  0.9120  0.2991 -1.0868
  350MOL0     H47208   1.512   9.222   3.841 -1.4373  0.1390  1.2184
  350MOL0     H47209   1.431   9.156   3.701 -0.3097  0.1544  0.0581
  350MOL0     H47210   1.093   9.114   3.961  1.8105  1.4567 -3.1771
  350MOL0     H47211   0.956   8.779   4.044 -3.4383  0.6820 -1.5393
  350MOL0     H47212   0.988   8.919   4.160 -0.0755  0.8745  0.3683
  350MOL0     H47213   0.927   8.954   4.005  0.0911 -0.1376  1.5479
  350MOL0     H47214   0.985   8.458   4.057 -0.1337  0.2765  2.4629
  350MOL0     H47215   0.949   8.228   4.111 -0.0683  0.3159 -2.6693
  350MOL0     H47216   1.109   8.080   4.342  0.3096  0.5366 -0.6541
  350MOL0     H47217   1.084   7.923   4.305 -0.3410  1.4669  2.2198
  350MOL0     H47218   1.374   8.050   4.301  0.7908 -0.5105  1.4324
  350MOL0     H47219   1.300   7.963   4.428 -1.7623 -0.2878  0.3406
  350MOL0     H47220   1.457   7.840   4.253  0.2880 -0.8743 -3.0570
  350MOL0     H47221   1.302   7.829   4.159  0.2197  1.1053 -0.1429
  350MOL0     H47222   1.362   7.729   4.444  0.2360  1.5632 -1.0613
  350MOL0     H47223   1.202   7.713   4.371 -0.6008 -1.0779 -2.9717
  350MOL0     H47224   1.458   7.569   4.280  0.6138 -1.3928  0.9876
  350MOL0     H47225   1.300   7.575   4.193  2.2345 -2.2414 -1.4778
  350MOL0     H47226   1.180   7.478   4.399 -0.6196  0.7429 -1.9092
  350MOL0     H47227   1.297   7.375   4.321 -2.2282  0.6000 -0.3388
  350MOL0     H47228   1.283   7.402   4.589  1.1917 -0.9005 -0.4310
  350MOL0     H47229   1.351   7.566   4.562  0.5321  0.1115 -0.6454
  350MOL0     H47230   1.556   7.471   4.500 -0.0626 -1.5412 -3.6603
  350MOL0     H47231   1.491   7.303   4.492  2.0057 -0.2517 -0.1305
  350MOL0     H47232   1.380   8.152   4.084  0.1424  1.3383  0.4480
  350MOL0     H47233   1.400   8.379   4.000 -0.8566  1.7217  1.0213
  350MOL0     H47234   1.445   8.764   3.970  0.6011 -1.6098 -2.0697
  350MOL0     H47235   1.499   8.991   3.906 -0.0614  0.6973 -1.1531
  350MOL0     H47236   2.626   9.562   4.127  0.8636  0.5313 -1.6020
  350MOL0     H47237   2.885   9.551   4.104  0.0256  0.2073 -0.9952
  350MOL0     H47238   3.245   9.403   4.051 -0.1774  0.9022  0.9139
  350MOL0     H47239   3.500   9.441   4.033 -0.4994  2.0130  1.2979
  350MOL0     H47240   3.788   9.311   4.342  0.0508 -0.4632  0.1100
  350MOL0     H47241   3.744   9.187   4.218 -0.7125  0.7693 -0.1280
  350MOL0     H47242   3.927   9.414   4.137  1.1883  0.1984 -0.1681
  350MOL0     H47243   3.893   9.255   4.062 -3.9081  1.4286 -0.6313
  350MOL0     H47244   4.125   9.255   4.173  0.2423  0.8707  0.5417
  350MOL0     H47245   4.030   9.154   4.266 -0.8498  0.0663 -0.4364
  350MOL0     H47246   3.999   9.302   4.451 -0.7809  0.9478 -0.7185
  350MOL0     H47247   4.060   9.439   4.352 -0.1700 -0.1463 -3.9956
  350MOL0     H47248   4.407   9.290   4.528  0.7791 -0.7006 -3.7372
  350MOL0     H47249   3.565   9.243   4.385  0.9993 -0.0428 -0.4936
  350MOL0     H47250   3.309   9.211   4.423  1.4636  0.2453  2.1629
  351MOL0     O47251   0.194   0.752   8.739 -0.0002 -0.1235  0.1768
  351MOL0     C47252   0.190   0.773   8.858  0.0004 -0.6411 -0.2294
  351MOL0     O47253   0.081   0.810   8.933  0.5945 -0.5950  0.4076
  351MOL0     C47254  -0.040   0.802   8.872  0.7106  1.0637  0.2482
  351MOL0     C47255  -0.093   0.705   8.779 -0.1288 -0.6762 -0.9459
  351MOL0     C47256  -0.231   0.713   8.750 -0.0129 -0.4387 -0.2518
  351MOL0     C47257  -0.316   0.806   8.810  0.4288 -0.8764 -0.2280
  351MOL0     O47258  -0.452   0.810   8.781 -0.1054  0.4460 -0.4930
  351MOL0     C47259  -0.525   0.690   8.757  0.8309 -0.0019 -0.9564
  351MOL0     C47260  -0.653   0.713   8.840  0.2015 -0.7754 -0.1938
  351MOL0     C47261  -0.756   0.610   8.812  0.7114  0.2472  0.2259
  351MOL0     C47262  -0.879   0.622   8.909 -0.1100  0.2146 -0.4328
  351MOL0     C47263  -0.971   0.514   8.853  0.3337 -0.7206 -0.6188
  351MOL0     C47264  -1.105   0.519   8.934  0.2286 -0.1218 -0.1422
  351MOL0     C47265  -1.098   0.476   9.079 -0.3108  0.8999 -0.1155
  351MOL0     C47266  -1.237   0.449   9.141 -0.2946  0.0642  0.2486
  351MOL0     N47267  -1.334   0.376   9.060  0.6869  0.5081  0.3476
  351MOL0     C47268  -1.463   0.416   9.036  0.1453 -0.7380 -0.1150
  351MOL0     C47269  -1.520   0.307   8.982  0.9579 -1.6169  0.2162
  351MOL0     C47270  -1.658   0.289   8.930 -0.1440 -0.5844 -0.4334
  351MOL0     C47271  -1.729   0.160   8.987  0.0134 -0.4788 -0.2493
  351MOL0     C47272  -1.796   0.198   9.117  0.6739 -0.4265 -0.3801
  351MOL0     C47273  -1.894   0.096   9.166 -0.4775 -0.9529  0.0378
  351MOL0     O47274  -2.019   0.140   9.133  0.1227  0.4525  0.0075
  351MOL0     C47275  -2.122   0.099   9.214  0.4828  0.3883 -0.6642
  351MOL0     C47276  -2.123  -0.013   9.305 -0.8678  0.0165 -0.2910
  351MOL0     C47277  -2.235  -0.043   9.378  0.3335 -0.1119  0.5631
  351MOL0     C47278  -2.247  -0.174   9.456  0.1437 -0.1725 -0.3332
  351MOL0     C47279  -2.343   0.056   9.378  0.3359  1.1504 -0.1510
  351MOL0     C47280  -2.461   0.048   9.466  0.1979 -0.2568  0.3240
  351MOL0     O47281  -2.550   0.149   9.454 -0.6774  0.2917  0.3234
  351MOL0     C47282  -2.677   0.137   9.492  0.3553  0.4108 -0.1238
  351MOL0     C47283  -2.745   0.257   9.530 -0.9304  0.2235  0.8882
  351MOL0     C47284  -2.883   0.258   9.542  0.9327 -0.5102  0.1054
  351MOL0     C47285  -2.957   0.142   9.548  0.1934  0.7531 -0.9491
  351MOL0     O47286  -3.092   0.164   9.576 -0.2101  0.6870 -0.0569
  351MOL0     C47287  -3.177   0.048   9.587 -0.8197  0.7856  0.0260
  351MOL0     C47288  -3.310   0.096   9.642 -0.2135 -0.2467  0.1149
  351MOL0     C47289  -3.429  -0.000   9.630  0.2920  0.3572  0.6559
  351MOL0     C47290  -3.562   0.076   9.648 -0.5017 -0.5879  0.3125
  351MOL0     C47291  -3.678  -0.013   9.618 -0.3838  0.7402  0.4026
  351MOL0     C47292  -3.682  -0.075   9.480  0.2251 -0.0341 -0.0373
  351MOL0     C47293  -3.807  -0.152   9.451  0.3217  0.0364 -0.8023
  351MOL0     C47294  -3.817  -0.193   9.307  0.1896  0.1085 -0.1439
  351MOL0    Cl47295  -3.705  -0.339   9.275  0.2968 -0.4337  0.0268
  351MOL0     C47296  -2.897   0.024   9.515 -0.1146 -0.2894  0.1788
  351MOL0     C47297  -2.762   0.017   9.484  0.5696  0.0618 -0.0981
  351MOL0     O47298  -2.487  -0.056   9.531 -0.7061 -0.1554 -0.6089
  351MOL0     C47299  -2.337   0.172   9.300  0.5376 -0.1214 -0.2276
  351MOL0     C47300  -2.225   0.191   9.223 -0.1603  0.1617  0.4010
  351MOL0     N47301  -1.419   0.212   8.965 -0.3209  0.4120  0.1676
  351MOL0     N47302  -1.316   0.253   9.019 -0.3851  0.5136  0.1396
  351MOL0     C47303  -0.260   0.902   8.889 -0.3647  0.0629 -0.4391
  351MOL0     C47304  -0.122   0.899   8.923 -0.8111 -0.2317 -1.0905
  351MOL0     C47305   0.321   0.765   8.928 -0.1946  0.5273  0.6873
  351MOL0     C47306   0.327   0.807   9.061  0.9390 -0.7403  0.1680
  351MOL0     C47307   0.450   0.818   9.123 -1.6347 -0.1327 -0.3866
  351MOL0     C47308   0.569   0.780   9.060 -0.1155  0.5635  0.4877
  351MOL0     O47309   0.681   0.796   9.141 -0.0785 -0.3272 -0.3361
  351MOL0     C47310   0.816   0.754   9.096  0.3156 -0.2742 -0.1797
  351MOL0     C47311   0.895   0.775   9.222  1.1559  0.1921 -0.5234
  351MOL0     C47312   1.028   0.710   9.200 -0.7484 -0.0597  0.4184
  351MOL0     C47313   1.126   0.720   9.316 -0.2005 -0.0659 -0.1233
  351MOL0     C47314   1.052   0.630   9.412 -0.1196  0.2231 -0.0473
  351MOL0     C47315   1.012   0.558   9.497  0.4432  0.5843 -0.0251
  351MOL0     C47316   0.562   0.732   8.933 -0.0390 -1.2022 -0.5900
  351MOL0     C47317   0.441   0.727   8.871  0.1265  1.0254  0.5352
  351MOL0     H47318  -0.036   0.622   8.738  0.7180 -0.1358 -0.8911
  351MOL0     H47319  -0.276   0.637   8.686 -2.8497  2.5707 -2.1157
  351MOL0     H47320  -0.551   0.688   8.651  0.9655 -0.9821 -0.9835
  351MOL0     H47321  -0.470   0.604   8.796 -0.6250 -0.8903 -0.7577
  351MOL0     H47322  -0.627   0.713   8.946  1.2396 -1.2934 -0.4313
  351MOL0     H47323  -0.695   0.812   8.818 -0.3473 -0.9134  0.2079
  351MOL0     H47324  -0.795   0.618   8.710 -0.6881 -2.3969  0.4529
  351MOL0     H47325  -0.708   0.512   8.815  0.9763  0.2131 -2.4744
  351MOL0     H47326  -0.846   0.606   9.012 -0.1346  0.4710 -0.3841
  351MOL0     H47327  -0.924   0.722   8.907  0.2982  0.7311  4.4264
  351MOL0     H47328  -0.992   0.516   8.746  2.0098 -0.0261 -0.9484
  351MOL0     H47329  -0.923   0.418   8.875 -0.4173 -0.9539  0.0778
  351MOL0     H47330  -1.149   0.619   8.925 -0.2158 -0.4285 -1.7174
  351MOL0     H47331  -1.169   0.450   8.878  1.7549 -2.5850  1.0029
  351MOL0     H47332  -1.035   0.389   9.099 -1.5607  0.4148  1.9812
  351MOL0     H47333  -1.068   0.559   9.143 -1.9477  1.7885 -0.4569
  351MOL0     H47334  -1.282   0.543   9.176 -0.5793  1.5075 -3.5147
  351MOL0     H47335  -1.224   0.391   9.233 -1.5464  0.0332  0.4313
  351MOL0     H47336  -1.508   0.514   9.051 -0.1411 -1.1433  2.0903
  351MOL0     H47337  -1.714   0.381   8.946 -0.6454 -1.0271  0.4394
  351MOL0     H47338  -1.652   0.270   8.822  0.6254  0.9213 -0.6814
  351MOL0     H47339  -1.661   0.078   9.012 -2.0353 -2.0566  0.4523
  351MOL0     H47340  -1.810   0.129   8.921  0.7319 -2.5835 -0.2100
  351MOL0     H47341  -1.846   0.295   9.104  1.1017 -0.0814  0.4466
  351MOL0     H47342  -1.723   0.198   9.199 -1.4967 -1.8160  1.6832
  351MOL0     H47343  -1.884   0.090   9.275  2.4149  2.7179  0.1655
  351MOL0     H47344  -1.873   0.001   9.114 -0.2099 -0.3382 -1.0096
  351MOL0     H47345  -2.036  -0.077   9.316 -0.0321  0.9926 -1.1001
  351MOL0     H47346  -2.275  -0.156   9.560  2.5637  0.3097  0.2816
  351MOL0     H47347  -2.312  -0.250   9.412  2.8294 -2.4660 -0.5964
  351MOL0     H47348  -2.151  -0.224   9.464 -1.1048 -2.5358  0.9402
  351MOL0     H47349  -2.686   0.348   9.536  0.6208 -0.5878 -0.9558
  351MOL0     H47350  -2.941   0.347   9.566  0.0539 -0.3473 -2.3333
  351MOL0     H47351  -3.201   0.001   9.492  0.7746 -1.6735  0.7474
  351MOL0     H47352  -3.136  -0.026   9.656 -0.7581  0.8430  0.0522
  351MOL0     H47353  -3.294   0.127   9.746  0.2889  4.7110 -1.2167
  351MOL0     H47354  -3.336   0.187   9.588 -1.2417 -0.4019  0.3211
  351MOL0     H47355  -3.427  -0.085   9.700 -2.6942 -0.5992 -0.2467
  351MOL0     H47356  -3.428  -0.048   9.532 -0.2671  0.2441  0.7008
  351MOL0     H47357  -3.565   0.111   9.751  1.9446 -3.7901  1.6640
  351MOL0     H47358  -3.570   0.169   9.590  0.2743 -0.1464  0.8917
  351MOL0     H47359  -3.768   0.047   9.628 -0.7326  0.6692 -1.8962
  351MOL0     H47360  -3.684  -0.093   9.693  0.4416  1.5396  1.3465
  351MOL0     H47361  -3.680   0.010   9.411 -3.8103 -0.2602 -0.6976
  351MOL0     H47362  -3.596  -0.140   9.464  0.2869  0.2021 -0.6829
  351MOL0     H47363  -3.893  -0.093   9.488 -1.4213 -3.0772  0.5233
  351MOL0     H47364  -3.820  -0.238   9.518 -2.3044  0.5944 -0.4693
  351MOL0     H47365  -3.781  -0.106   9.250  1.0370 -0.5099 -0.5734
  351MOL0     H47366  -3.921  -0.214   9.283 -0.0582  0.3929  0.6573
  351MOL0     H47367  -2.958  -0.065   9.504 -1.0658  0.6815 -5.3150
  351MOL0     H47368  -2.721  -0.081   9.462  1.0391 -0.4417  2.6102
  351MOL0     H47369  -2.406   0.257   9.299  1.1023  0.3500 -1.5720
  351MOL0     H47370  -2.211   0.288   9.178  0.5482  0.3557  1.0287
  351MOL0     H47371  -0.335   0.976   8.917 -2.1880 -1.7489 -0.2478
  351MOL0     H47372  -0.078   0.968   8.994  1.8773 -0.3227 -2.5308
  351MOL0     H47373   0.234   0.830   9.112 -0.3256 -0.5551 -2.0817
  351MOL0     H47374   0.456   0.863   9.222 -2.5156 -0.5299 -0.1378
  351MOL0     H47375   0.813   0.648   9.069  2.2978 -0.7195  1.1253
  351MOL0     H47376   0.853   0.822   9.019 -0.4035  2.8930  2.0550
  351MOL0     H47377   0.835   0.743   9.307 -0.7354 -0.0219 -1.8680
  351MOL0     H47378   0.906   0.883   9.238 -2.2466  0.7661 -1.2065
  351MOL0     H47379   1.076   0.754   9.113 -2.2562 -0.9119 -0.9025
  351MOL0     H47380   1.031   0.604   9.174 -0.5370  0.1007 -0.2277
  351MOL0     H47381   1.125   0.819   9.362 -1.8372  0.3848 -1.0251
  351MOL0     H47382   1.227   0.686   9.292 -0.1124 -1.4348  1.9559
  351MOL0     H47383   0.956   0.501   9.568  1.9248 -3.2753 -1.6591
  351MOL0     H47384   0.651   0.707   8.876 -0.4942  0.6712 -2.2195
  351MOL0     H47385   0.438   0.676   8.775 -1.0690 -1.1578  1.6478
  352MOL0     O47386   6.557   5.851   5.128 -0.2814 -0.4671 -0.3357
  352MOL0     C47387   6.668   5.835   5.086 -0.6852  0.6517 -0.6258
  352MOL0     O47388   6.706   5.738   4.998  0.0467 -0.0438  0.8864
  352MOL0     C47389   6.608   5.659   4.942 -0.4915  0.0891 -0.4275
  352MOL0     C47390   6.530   5.574   5.025  0.2815  0.3500 -0.3175
  352MOL0     C47391   6.431   5.483   4.962  0.7136 -0.2270 -0.7290
  352MOL0     C47392   6.417   5.488   4.826  1.1153 -0.3120 -0.5166
  352MOL0     O47393   6.315   5.436   4.758  0.1898  0.1057 -0.0585
  352MOL0     C47394   6.315   5.308   4.687 -0.1391 -0.2649  0.5018
  352MOL0     C47395   6.180   5.247   4.638  0.0072 -0.4890  0.4959
  352MOL0     C47396   6.084   5.341   4.555 -0.7500 -0.6599 -0.8627
  352MOL0     C47397   5.976   5.255   4.488 -0.2208 -0.0570 -1.1110
  352MOL0     C47398   5.988   5.218   4.340 -0.0931  0.0195  0.8677
  352MOL0     C47399   5.995   5.350   4.252  0.0148  0.5070  0.6252
  352MOL0     C47400   5.955   5.316   4.106  1.1212  0.5030  0.0709
  352MOL0     C47401   6.061   5.240   4.035 -0.6130  0.1222  0.5445
  352MOL0     N47402   6.015   5.159   3.924 -0.5219 -0.3859 -0.1983
  352MOL0     C47403   5.990   5.029   3.931  0.6720  0.6737 -1.9805
  352MOL0     C47404   5.923   4.995   3.820  0.4598 -0.2494  0.2984
  352MOL0     C47405   5.863   4.861   3.776 -0.0081  0.2097  0.1743
  352MOL0     C47406   5.747   4.819   3.872 -0.0584  0.4508 -0.2571
  352MOL0     C47407   5.634   4.740   3.809  0.1939  0.7244  0.6300
  352MOL0     C47408   5.548   4.691   3.925  0.4324 -0.1038 -0.1671
  352MOL0     O47409   5.420   4.646   3.885  0.0501  0.7392 -0.1428
  352MOL0     C47410   5.313   4.694   3.963  0.8412  0.4999 -0.2944
  352MOL0     C47411   5.284   4.826   3.981 -0.0805  0.1977  0.2737
  352MOL0     C47412   5.159   4.859   4.045  0.1645 -0.3136  0.8366
  352MOL0     C47413   5.125   5.008   4.042  0.5927 -0.6055 -0.0785
  352MOL0     C47414   5.074   4.759   4.097  0.2067  0.1883  0.6620
  352MOL0     C47415   4.947   4.788   4.164  0.3306 -0.1887 -0.6855
  352MOL0     O47416   4.852   4.687   4.152 -0.5651 -0.1859 -0.0089
  352MOL0     C47417   4.730   4.704   4.210  0.0980 -0.1331 -0.3644
  352MOL0     C47418   4.696   4.617   4.321  0.4865 -0.2695  0.6657
  352MOL0     C47419   4.572   4.647   4.381 -0.5275  0.1417  0.8823
  352MOL0     C47420   4.487   4.751   4.336  0.5364  0.6841 -0.8574
  352MOL0     O47421   4.366   4.791   4.396 -0.3008 -0.2558 -0.1698
  352MOL0     C47422   4.350   4.757   4.529  0.0958 -0.3213 -0.8912
  352MOL0     C47423   4.205   4.793   4.573  0.6027  0.0597 -0.0393
  352MOL0     C47424   4.187   4.935   4.630 -0.2478  0.1032 -0.2227
  352MOL0     C47425   4.050   4.982   4.659  0.1066  0.8418 -0.3397
  352MOL0     C47426   3.966   5.011   4.537 -0.3693 -0.7073 -0.7043
  352MOL0     C47427   3.832   5.087   4.568  0.2416  0.3287  0.0845
  352MOL0     C47428   3.719   4.992   4.571  0.5408  1.3118 -0.0543
  352MOL0     C47429   3.597   5.067   4.620 -0.4529 -0.4471 -0.0415
  352MOL0    Cl47430   3.536   5.171   4.499 -0.5049 -0.2616 -0.1705
  352MOL0     C47431   4.528   4.820   4.221 -0.3522  0.3014 -0.1078
  352MOL0     C47432   4.650   4.800   4.164 -0.2083  0.1742  0.4510
  352MOL0     O47433   4.935   4.879   4.244 -0.3088 -0.4935 -0.1404
  352MOL0     C47434   5.095   4.632   4.057  0.0925  0.7870 -0.5729
  352MOL0     C47435   5.209   4.595   3.995  0.2714 -0.6218  0.6850
  352MOL0     N47436   5.929   5.103   3.732 -0.1887 -0.1272 -0.3614
  352MOL0     N47437   5.990   5.199   3.798 -0.2066 -0.4634  0.1845
  352MOL0     C47438   6.510   5.559   4.749  0.2979 -1.1614  0.2756
  352MOL0     C47439   6.602   5.649   4.805  0.1531 -1.3656  0.4159
  352MOL0     C47440   6.777   5.918   5.138  0.4990  0.8823  0.5906
  352MOL0     C47441   6.749   6.027   5.215 -0.4256  0.0174 -0.4449
  352MOL0     C47442   6.843   6.117   5.260 -0.6028 -0.4616  0.0116
  352MOL0     C47443   6.979   6.094   5.216 -0.2481 -0.2695 -0.4467
  352MOL0     O47444   7.076   6.183   5.244 -0.9403 -0.3933 -0.0280
  352MOL0     C47445   7.048   6.311   5.305  0.5794  0.5182 -0.2632
  352MOL0     C47446   7.165   6.402   5.294 -0.5273 -0.0785 -0.6464
  352MOL0     C47447   7.277   6.372   5.394  0.1127  0.4623 -0.3477
  352MOL0     C47448   7.391   6.474   5.388 -1.0798 -0.6738  0.1133
  352MOL0     C47449   7.514   6.426   5.457 -0.1739  0.0626 -0.1314
  352MOL0     C47450   7.609   6.403   5.524  0.0412 -0.8760  0.0339
  352MOL0     C47451   7.005   5.986   5.130 -0.5747  0.5786  0.2840
  352MOL0     C47452   6.905   5.894   5.095  0.4412  0.2565  0.4158
  352MOL0     H47453   6.544   5.568   5.132  1.4146  2.4007 -0.3193
  352MOL0     H47454   6.364   5.425   5.025 -1.6535  2.7690 -0.2767
  352MOL0     H47455   6.372   5.320   4.594  0.9055 -2.8283  0.7223
  352MOL0     H47456   6.378   5.234   4.738  3.2870  2.7887  1.0967
  352MOL0     H47457   6.206   5.159   4.579  2.0045 -1.7474  3.0519
  352MOL0     H47458   6.128   5.200   4.722  2.0267 -4.0248 -0.0242
  352MOL0     H47459   6.040   5.418   4.620  1.6625 -1.8982  2.5063
  352MOL0     H47460   6.148   5.383   4.477 -0.1120  3.5397  1.6106
  352MOL0     H47461   5.977   5.165   4.551  0.8772  0.2204 -0.7017
  352MOL0     H47462   5.875   5.295   4.503  0.3743  0.7790  1.0985
  352MOL0     H47463   6.058   5.143   4.302 -2.5036 -2.3416  0.7167
  352MOL0     H47464   5.890   5.179   4.309 -0.1578  2.6963 -3.0665
  352MOL0     H47465   5.941   5.430   4.302  0.4560  0.7718  0.6877
  352MOL0     H47466   6.095   5.394   4.248 -0.0173  0.6838  1.6571
  352MOL0     H47467   5.856   5.269   4.110  0.8916  1.0202  0.7371
  352MOL0     H47468   5.942   5.414   4.060 -0.8951  0.4910  0.5222
  352MOL0     H47469   6.119   5.179   4.105  3.1341  0.4360 -1.9768
  352MOL0     H47470   6.129   5.319   4.002  1.1613 -1.9242 -0.9930
  352MOL0     H47471   6.027   4.968   4.014 -0.6815 -0.7197 -2.3585
  352MOL0     H47472   5.822   4.871   3.675  0.2064 -1.3419 -0.1059
  352MOL0     H47473   5.940   4.784   3.764  0.6947  0.6983  1.3958
  352MOL0     H47474   5.705   4.908   3.919 -1.4667 -1.8770  3.3266
  352MOL0     H47475   5.794   4.772   3.959 -2.8673 -0.5696  0.8185
  352MOL0     H47476   5.678   4.653   3.760  0.3885 -0.3007  2.5065
  352MOL0     H47477   5.576   4.800   3.739  0.1470  0.7254  0.6700
  352MOL0     H47478   5.540   4.779   3.990  0.6899 -1.6408  2.0474
  352MOL0     H47479   5.591   4.612   3.987 -0.2541 -1.6829 -1.6250
  352MOL0     H47480   5.349   4.904   3.941  3.1095 -1.5818  1.5515
  352MOL0     H47481   5.024   5.045   4.019  0.7153  0.6355  1.2019
  352MOL0     H47482   5.159   5.059   4.133 -0.9640  1.8249 -0.7575
  352MOL0     H47483   5.194   5.056   3.972  2.3544 -0.9183  1.3888
  352MOL0     H47484   4.760   4.539   4.360 -0.2769 -1.1925  0.1106
  352MOL0     H47485   4.540   4.579   4.459  2.1378  2.3928  4.2236
  352MOL0     H47486   4.379   4.656   4.556 -0.7953 -0.0199  1.3681
  352MOL0     H47487   4.411   4.821   4.594  0.0872  0.5509 -1.7051
  352MOL0     H47488   4.126   4.767   4.502 -3.8170  1.3758  3.8988
  352MOL0     H47489   4.190   4.730   4.661  1.9840 -3.0872 -1.8776
  352MOL0     H47490   4.230   5.020   4.575  0.7263  2.7231  4.0430
  352MOL0     H47491   4.245   4.932   4.723 -1.0276 -1.9666  0.2456
  352MOL0     H47492   3.993   4.902   4.708 -0.7387  0.2489 -2.1916
  352MOL0     H47493   4.055   5.077   4.714 -1.3573  0.7703 -0.0478
  352MOL0     H47494   3.937   4.923   4.479 -2.5030  0.8331 -2.1053
  352MOL0     H47495   4.028   5.067   4.467  0.3299  0.2088  0.5888
  352MOL0     H47496   3.834   5.153   4.656 -1.4449  2.8331 -1.6094
  352MOL0     H47497   3.814   5.152   4.482 -0.2756  0.1989  0.0948
  352MOL0     H47498   3.746   4.915   4.645  2.2094  1.5596 -0.3694
  352MOL0     H47499   3.708   4.944   4.473 -0.7517  0.8998  0.2610
  352MOL0     H47500   3.618   5.129   4.707 -0.5383 -1.4457  0.7088
  352MOL0     H47501   3.522   4.997   4.656  0.6528 -1.0110  1.2468
  352MOL0     H47502   4.452   4.891   4.187 -1.0250  0.3287  1.3813
  352MOL0     H47503   4.676   4.861   4.078  2.9974 -1.7365 -0.0720
  352MOL0     H47504   5.023   4.552   4.071  2.0155 -1.9057 -4.1136
  352MOL0     H47505   5.223   4.488   3.986 -0.5755 -0.6511 -0.5765
  352MOL0     H47506   6.498   5.539   4.643 -1.8906 -0.2918  0.3036
  352MOL0     H47507   6.661   5.708   4.736 -2.9650 -1.0484 -2.2744
  352MOL0     H47508   6.644   6.046   5.232 -0.3324  0.5226 -0.4361
  352MOL0     H47509   6.820   6.198   5.328  3.7448 -0.7711  2.2570
  352MOL0     H47510   6.964   6.355   5.250 -0.1996 -0.4818  0.1018
  352MOL0     H47511   7.028   6.298   5.412 -1.9853  2.1513 -0.4421
  352MOL0     H47512   7.136   6.504   5.320  0.7782 -0.3210  2.0614
  352MOL0     H47513   7.202   6.404   5.191  1.4758 -0.2886  0.0253
  352MOL0     H47514   7.320   6.274   5.372 -2.2807 -0.6289 -0.5162
  352MOL0     H47515   7.235   6.381   5.494 -0.4530 -0.0331 -0.5310
  352MOL0     H47516   7.359   6.558   5.449  2.8744 -0.7577  2.6440
  352MOL0     H47517   7.414   6.507   5.286  1.0461  1.7005  1.2461
  352MOL0     H47518   7.681   6.408   5.603 -1.0528 -1.1091  1.0828
  352MOL0     H47519   7.103   5.979   5.085 -1.3026 -2.4446 -1.0917
  352MOL0     H47520   6.930   5.822   5.018 -0.6806  0.7174 -0.4081
  353MOL0     O47521   6.515   4.107  11.276 -0.9516 -0.4439  0.4315
  353MOL0     C47522   6.610   4.169  11.321 -0.0937  0.0071  0.2483
  353MOL0     O47523   6.621   4.307  11.346  0.5037  0.3432 -0.5732
  353MOL0     C47524   6.512   4.383  11.313 -0.2347 -0.1551 -0.5852
  353MOL0     C47525   6.421   4.422  11.414 -0.0480  1.0365 -0.5733
  353MOL0     C47526   6.295   4.474  11.380  0.6450 -0.8093 -0.4579
  353MOL0     C47527   6.264   4.502  11.244  0.3539 -0.0260 -0.0612
  353MOL0     O47528   6.137   4.553  11.213 -0.4870  0.0923 -1.1018
  353MOL0     C47529   6.117   4.609  11.083 -0.0348 -0.4704  0.3406
  353MOL0     C47530   5.982   4.672  11.067 -0.3432  0.3910 -0.5727
  353MOL0     C47531   5.885   4.567  11.024 -0.0616  0.2364 -0.1928
  353MOL0     C47532   5.741   4.617  11.012  0.4343 -0.1679  0.3843
  353MOL0     C47533   5.646   4.516  10.942  0.1293 -0.2225 -0.4411
  353MOL0     C47534   5.612   4.407  11.044  0.4289 -0.9127  0.7030
  353MOL0     C47535   5.509   4.318  10.983 -0.5490  0.2283 -0.6263
  353MOL0     C47536   5.383   4.390  10.963 -0.3664  0.0167  0.2097
  353MOL0     N47537   5.274   4.295  10.971 -0.7357  0.2486  0.0731
  353MOL0     C47538   5.241   4.242  11.093  0.6426 -0.4095 -0.3167
  353MOL0     C47539   5.141   4.156  11.059 -0.1543 -0.7592  0.5727
  353MOL0     C47540   5.063   4.053  11.143 -0.2950  0.1087 -0.1652
  353MOL0     C47541   4.935   4.116  11.211 -0.2538  0.7290 -0.0367
  353MOL0     C47542   4.799   4.096  11.143  0.6033  0.8095  0.7239
  353MOL0     C47543   4.805   4.144  10.998  0.8025  0.5405  1.0113
  353MOL0     O47544   4.676   4.181  10.964 -0.6167 -1.0952  0.2497
  353MOL0     C47545   4.593   4.081  10.913  0.1031 -0.4717 -0.5852
  353MOL0     C47546   4.613   3.946  10.915  0.8093  0.2397  0.2153
  353MOL0     C47547   4.510   3.861  10.877  0.1787  0.1654 -1.2162
  353MOL0     C47548   4.536   3.715  10.892  0.3179  0.5968 -0.6179
  353MOL0     C47549   4.393   3.913  10.824  0.5355  0.2739  1.2476
  353MOL0     C47550   4.281   3.831  10.767  0.0283 -0.4233 -0.6861
  353MOL0     O47551   4.184   3.904  10.706 -0.2782  0.5742  0.0119
  353MOL0     C47552   4.057   3.869  10.655  0.4596 -0.0983  0.3551
  353MOL0     C47553   3.994   3.751  10.665  0.4207  0.0806 -0.1365
  353MOL0     C47554   3.869   3.731  10.595  0.2135  0.2041  0.5436
  353MOL0     C47555   3.790   3.844  10.562  0.4800  0.0881 -0.5498
  353MOL0     O47556   3.655   3.830  10.537  0.1494 -0.6740 -0.2337
  353MOL0     C47557   3.570   3.935  10.493  0.3353  0.9476  0.0994
  353MOL0     C47558   3.414   3.893  10.498 -0.9073  0.0775 -0.6875
  353MOL0     C47559   3.332   3.998  10.429  0.4089 -1.1899 -0.2733
  353MOL0     C47560   3.190   3.959  10.404 -0.1760  0.1598  0.2779
  353MOL0     C47561   3.100   4.075  10.359  0.2597 -0.2039 -0.5022
  353MOL0     C47562   2.952   4.036  10.352 -0.0945 -0.0246 -0.2741
  353MOL0     C47563   2.861   4.159  10.339  0.4145  0.2365  1.0635
  353MOL0     C47564   2.723   4.120  10.296  0.4204  0.1322  0.1196
  353MOL0    Cl47565   2.616   4.263  10.302  0.4315 -0.4641 -0.4743
  353MOL0     C47566   3.848   3.963  10.555 -0.6983  0.1085 -0.1118
  353MOL0     C47567   3.981   3.975  10.599  0.4458 -0.3060 -0.2832
  353MOL0     O47568   4.278   3.708  10.776  0.0814 -0.2312 -0.0098
  353MOL0     C47569   4.382   4.055  10.812  0.6806  1.0216 -0.2373
  353MOL0     C47570   4.485   4.139  10.850  0.2634  0.8029 -0.6022
  353MOL0     N47571   5.115   4.167  10.925 -0.6247 -0.4875 -0.2386
  353MOL0     N47572   5.191   4.255  10.877 -0.4488  0.4064 -0.2654
  353MOL0     C47573   6.364   4.479  11.146 -0.0020 -0.0723 -0.7524
  353MOL0     C47574   6.486   4.416  11.177 -0.0273  0.2924 -0.3581
  353MOL0     C47575   6.735   4.095  11.337 -0.0202 -0.5764 -0.2501
  353MOL0     C47576   6.759   3.968  11.276 -0.5361 -0.1501 -0.2106
  353MOL0     C47577   6.877   3.903  11.309  0.0839 -0.0835  0.1414
  353MOL0     C47578   6.975   3.958  11.391  0.6075  0.3540  0.1845
  353MOL0     O47579   7.092   3.894  11.430  0.0837  0.1149  0.0791
  353MOL0     C47580   7.122   3.776  11.356 -0.4264 -0.0975 -0.3461
  353MOL0     C47581   7.259   3.713  11.410  0.4503 -0.6282  0.1641
  353MOL0     C47582   7.394   3.777  11.398 -0.7225 -1.2282  0.0659
  353MOL0     C47583   7.410   3.846  11.261 -0.6098  1.0381 -0.6270
  353MOL0     C47584   7.552   3.881  11.256  0.5947  0.1737  0.5639
  353MOL0     C47585   7.673   3.898  11.256 -0.6095 -0.3904 -0.3427
  353MOL0     C47586   6.950   4.081  11.455 -0.5647  0.3064 -0.3834
  353MOL0     C47587   6.835   4.154  11.418  0.4205 -0.5601  0.2804
  353MOL0     H47588   6.437   4.390  11.517 -2.5713  0.3338 -0.3436
  353MOL0     H47589   6.209   4.480  11.447 -2.1980 -3.1120 -3.5867
  353MOL0     H47590   6.197   4.681  11.064 -0.4566  0.4608  1.9185
  353MOL0     H47591   6.125   4.523  11.015  1.3827  0.3347 -0.5737
  353MOL0     H47592   5.955   4.716  11.163 -1.0371 -2.4797  0.6384
  353MOL0     H47593   5.984   4.756  10.997 -1.3728  2.8009  2.1068
  353MOL0     H47594   5.912   4.518  10.930  2.5310  0.8788  0.1352
  353MOL0     H47595   5.890   4.492  11.103  3.0572 -0.8178 -1.2390
  353MOL0     H47596   5.706   4.644  11.112  0.7169  0.2402  0.3779
  353MOL0     H47597   5.744   4.700  10.941 -0.5080 -0.6719 -0.2617
  353MOL0     H47598   5.562   4.581  10.913 -0.0805 -0.7586 -1.0654
  353MOL0     H47599   5.687   4.468  10.852 -2.6703 -2.1749 -0.7965
  353MOL0     H47600   5.704   4.354  11.068  1.7104 -0.1307 -2.0851
  353MOL0     H47601   5.568   4.449  11.134  2.4716  2.2578  0.3560
  353MOL0     H47602   5.549   4.274  10.892 -1.9312 -2.7913  0.1030
  353MOL0     H47603   5.501   4.230  11.048  2.4585  0.0792 -0.3407
  353MOL0     H47604   5.386   4.444  10.867  1.3013 -0.5246 -0.0782
  353MOL0     H47605   5.369   4.468  11.038 -0.3433 -0.5350  0.7921
  353MOL0     H47606   5.284   4.259  11.191 -1.8184 -2.3616  1.2167
  353MOL0     H47607   5.038   3.972  11.074  1.1553  1.4940 -2.4594
  353MOL0     H47608   5.136   4.009  11.212 -0.0012 -0.2661 -0.7121
  353MOL0     H47609   4.949   4.223  11.226  0.1049  0.5868  0.7079
  353MOL0     H47610   4.927   4.066  11.308 -0.7477 -2.0264 -1.3988
  353MOL0     H47611   4.720   4.150  11.196 -1.5538  0.1730 -1.6802
  353MOL0     H47612   4.785   3.988  11.147 -0.5692  0.9706  1.5017
  353MOL0     H47613   4.849   4.072  10.929 -0.2660 -0.7059  1.6097
  353MOL0     H47614   4.866   4.235  10.992  0.5233  0.6555 -2.1294
  353MOL0     H47615   4.708   3.905  10.947  1.2144 -1.4380 -2.7685
  353MOL0     H47616   4.546   3.679  10.790 -0.1835 -1.4646  0.0253
  353MOL0     H47617   4.620   3.678  10.950 -1.1537 -0.2789  1.0584
  353MOL0     H47618   4.452   3.663  10.941  1.7088  0.8018  2.2190
  353MOL0     H47619   4.048   3.667  10.708 -1.3153 -0.1990  1.6693
  353MOL0     H47620   3.826   3.632  10.592 -0.5433  0.5134  1.0525
  353MOL0     H47621   3.581   4.021  10.559  0.4543  1.7591 -0.9462
  353MOL0     H47622   3.594   3.962  10.389 -3.3585  1.5568 -0.7263
  353MOL0     H47623   3.408   3.797  10.446 -1.4398 -1.5189  2.1301
  353MOL0     H47624   3.394   3.870  10.603  0.3528 -4.7971 -1.3100
  353MOL0     H47625   3.375   4.015  10.330 -0.2589 -0.8926 -0.5174
  353MOL0     H47626   3.336   4.095  10.479 -0.8073 -0.9986 -0.5246
  353MOL0     H47627   3.188   3.885  10.323 -3.5388 -0.5524  0.8666
  353MOL0     H47628   3.155   3.924  10.501 -0.8728  2.0811  0.7543
  353MOL0     H47629   3.115   4.118  10.260 -4.0003 -1.7525 -2.0615
  353MOL0     H47630   3.112   4.149  10.438  0.7822 -0.0116 -0.7580
  353MOL0     H47631   2.934   3.958  10.278  0.3359 -0.8126  0.4310
  353MOL0     H47632   2.934   3.989  10.450  0.6679  0.6532  0.2106
  353MOL0     H47633   2.907   4.222  10.262 -1.8541  0.4362 -0.2249
  353MOL0     H47634   2.859   4.223  10.427  0.1234  3.1288 -0.9143
  353MOL0     H47635   2.673   4.051  10.364 -1.1332 -0.5736 -1.6415
  353MOL0     H47636   2.725   4.088  10.191 -0.9380 -2.2130  0.7251
  353MOL0     H47637   3.795   4.052  10.522  0.7320  0.6116 -1.1501
  353MOL0     H47638   4.019   4.077  10.592 -1.7537  0.6369  0.6161
  353MOL0     H47639   4.288   4.099  10.781  0.8803 -0.0198 -2.5063
  353MOL0     H47640   4.477   4.247  10.844  0.8257  0.8893  0.0808
  353MOL0     H47641   6.350   4.513  11.043 -2.8230  1.4612  0.0157
  353MOL0     H47642   6.560   4.397  11.099  1.2916  2.2298  0.3474
  353MOL0     H47643   6.684   3.915  11.217  1.1762 -1.9775 -0.8497
  353MOL0     H47644   6.893   3.805  11.265 -1.1530  1.0088 -3.0584
  353MOL0     H47645   7.046   3.700  11.378 -0.6010 -0.1525 -1.1253
  353MOL0     H47646   7.130   3.790  11.248 -0.0974 -0.7883 -0.4116
  353MOL0     H47647   7.283   3.623  11.353 -1.9369 -0.9031 -0.5077
  353MOL0     H47648   7.240   3.676  11.511  1.0666 -1.7787 -0.1203
  353MOL0     H47649   7.471   3.702  11.419 -1.6628 -1.4458  3.2213
  353MOL0     H47650   7.405   3.845  11.482 -1.0142 -3.9214  2.4598
  353MOL0     H47651   7.350   3.935  11.243  3.6193  4.0723 -1.0405
  353MOL0     H47652   7.394   3.776  11.179  2.2054  1.3482 -1.5155
  353MOL0     H47653   7.776   3.923  11.270 -0.4362 -1.7843  1.1722
  353MOL0     H47654   7.017   4.127  11.527  0.1813  0.9990 -1.4909
  353MOL0     H47655   6.823   4.254  11.458 -3.2770  0.0228 -1.8460
  354MOL0     O47656   7.826  10.633   7.811 -0.1105  0.0406 -0.3219
  354MOL0     C47657   7.904  10.547   7.781  0.1653  0.4927 -0.4215
  354MOL0     O47658   7.876  10.458   7.686 -0.1273 -0.1644 -0.0469
  354MOL0     C47659   7.751  10.447   7.637 -0.4991  0.4429 -0.2563
  354MOL0     C47660   7.623  10.447   7.700 -0.8328 -0.0685  0.4716
  354MOL0     C47661   7.503  10.456   7.632  0.6510  0.0896  0.6052
  354MOL0     C47662   7.497  10.454   7.491 -0.2001  0.7207  0.1799
  354MOL0     O47663   7.390  10.486   7.412 -0.3032 -0.5695 -0.7097
  354MOL0     C47664   7.255  10.491   7.458 -0.4374 -0.5505 -0.1567
  354MOL0     C47665   7.150  10.455   7.351  0.5003  0.6688 -0.8062
  354MOL0     C47666   7.014  10.481   7.413  0.2300  0.1580  0.5855
  354MOL0     C47667   6.904  10.471   7.300  0.1591 -0.5496  0.3720
  354MOL0     C47668   6.770  10.527   7.350 -0.5016  0.5604 -0.6949
  354MOL0     C47669   6.663  10.500   7.252  0.5653 -0.5676 -0.4013
  354MOL0     C47670   6.524  10.553   7.297  0.2699  0.1683 -0.5278
  354MOL0     C47671   6.429  10.526   7.181 -0.0657 -0.3522  0.1837
  354MOL0     N47672   6.286  10.527   7.230  0.3986 -0.0042  0.1474
  354MOL0     C47673   6.218  10.615   7.313  0.7460  0.1269 -0.3235
  354MOL0     C47674   6.081  10.572   7.306 -0.4143  0.1880  1.0547
  354MOL0     C47675   5.972  10.642   7.378  0.5347  0.6064 -0.7194
  354MOL0     C47676   6.008  10.676   7.522 -0.9066 -0.0561  0.1904
  354MOL0     C47677   5.883  10.720   7.595  0.1012  0.0323 -0.3725
  354MOL0     C47678   5.909  10.755   7.746 -0.2774  0.3914  0.3370
  354MOL0     O47679   5.845  10.876   7.783  0.7333  0.0245 -0.7435
  354MOL0     C47680   5.712  10.878   7.819  0.5468  0.9139  0.7383
  354MOL0     C47681   5.611  10.781   7.793  0.3490 -0.1596  0.2694
  354MOL0     C47682   5.486  10.791   7.857 -0.4360 -0.0335 -0.0499
  354MOL0     C47683   5.393  10.683   7.829 -1.2181 -0.1210 -0.8275
  354MOL0     C47684   5.452  10.910   7.930 -0.1915 -0.4297 -0.2648
  354MOL0     C47685   5.313  10.946   7.984 -0.1057 -0.1402 -0.2157
  354MOL0     O47686   5.201  10.880   7.922 -0.1216  0.7221  0.5659
  354MOL0     C47687   5.075  10.902   7.972  0.2386  0.2574 -0.5392
  354MOL0     C47688   5.024  11.023   8.022 -0.0778  0.0801 -0.6709
  354MOL0     C47689   4.888  11.035   8.064  0.6583 -0.4115  0.5565
  354MOL0     C47690   4.802  10.923   8.070 -0.1604  0.8421  0.8186
  354MOL0     O47691   4.679  10.905   8.119 -0.1352  0.1495 -0.6606
  354MOL0     C47692   4.637  11.009   8.205  0.0162  0.1570  0.6461
  354MOL0     C47693   4.512  10.961   8.272  0.5538  0.1968 -0.0495
  354MOL0     C47694   4.470  11.059   8.385  0.7174  0.2783 -0.5857
  354MOL0     C47695   4.329  11.038   8.430 -0.7787  0.4935  0.1683
  354MOL0     C47696   4.296  11.140   8.540 -0.9818 -0.1163  0.1887
  354MOL0     C47697   4.289  11.281   8.490  0.5454 -0.9969 -0.5789
  354MOL0     C47698   4.274  11.373   8.613 -0.6528 -0.5564 -0.5430
  354MOL0     C47699   4.299  11.524   8.586  0.2238 -0.2270 -0.2944
  354MOL0    Cl47700   4.470  11.559   8.614  0.1667 -0.1750  0.3852
  354MOL0     C47701   4.855  10.804   8.023  0.2671 -0.5727 -0.8829
  354MOL0     C47702   4.985  10.799   7.972  0.2220  0.4095 -0.2035
  354MOL0     O47703   5.307  11.021   8.084  0.3856  0.0135  0.3860
  354MOL0     C47704   5.558  10.993   7.957 -0.4429 -0.0303 -0.0785
  354MOL0     C47705   5.692  10.978   7.902  1.1524 -0.2150 -0.2002
  354MOL0     N47706   6.074  10.451   7.235 -1.1094 -0.2694 -0.0058
  354MOL0     N47707   6.196  10.426   7.187  0.2452 -0.5346  0.4583
  354MOL0     C47708   7.621  10.441   7.430 -0.5171  0.3204  0.8134
  354MOL0     C47709   7.746  10.440   7.497  0.2288 -0.1983 -0.1215
  354MOL0     C47710   8.029  10.548   7.850 -0.8392  0.7100 -0.4783
  354MOL0     C47711   8.055  10.650   7.938 -0.2501  0.2779 -0.5427
  354MOL0     C47712   8.176  10.645   8.004  0.6607 -0.5648 -0.1286
  354MOL0     C47713   8.266  10.531   7.984 -0.7547 -0.3701 -0.3301
  354MOL0     O47714   8.388  10.522   8.046 -0.3645  0.0618 -0.2438
  354MOL0     C47715   8.408  10.616   8.158  0.5231 -0.5081  0.0491
  354MOL0     C47716   8.551  10.601   8.208  0.1011  0.0938 -0.1749
  354MOL0     C47717   8.650  10.656   8.110  0.0527  0.1260 -0.3726
  354MOL0     C47718   8.788  10.646   8.168 -0.1520  0.5176  0.2762
  354MOL0     C47719   8.832  10.509   8.180  0.7566  0.2126 -0.6012
  354MOL0     C47720   8.877  10.398   8.194  0.1262  0.1430 -0.2992
  354MOL0     C47721   8.233  10.430   7.903  0.3863 -0.5054  0.9741
  354MOL0     C47722   8.118  10.439   7.826  0.3675  0.7027  0.5051
  354MOL0     H47723   7.611  10.431   7.807 -1.9558 -2.1115  0.0726
  354MOL0     H47724   7.411  10.462   7.688  0.3167  0.9376 -0.0151
  354MOL0     H47725   7.241  10.439   7.553  0.7561 -0.3572  0.1373
  354MOL0     H47726   7.240  10.595   7.486 -0.8468 -1.2604  2.4944
  354MOL0     H47727   7.171  10.513   7.260 -0.9869  2.3072 -0.1465
  354MOL0     H47728   7.154  10.350   7.321  2.4090  1.1006 -2.3648
  354MOL0     H47729   6.985  10.411   7.492 -2.0902  0.3385 -0.0219
  354MOL0     H47730   7.024  10.583   7.453 -1.8008  0.7841 -0.3470
  354MOL0     H47731   6.926  10.522   7.205 -1.8665 -0.2060  0.0534
  354MOL0     H47732   6.890  10.365   7.276  0.5418 -0.9618  1.8712
  354MOL0     H47733   6.744  10.488   7.449  0.6730  0.1919 -0.5186
  354MOL0     H47734   6.777  10.635   7.366  0.0395  0.3584  0.5218
  354MOL0     H47735   6.688  10.548   7.158  0.2369  1.6092  0.5580
  354MOL0     H47736   6.667  10.392   7.234  1.4661 -0.4415 -1.0080
  354MOL0     H47737   6.479  10.503   7.384  0.0361 -1.6879 -1.6552
  354MOL0     H47738   6.533  10.657   7.329 -2.3735 -0.3625  2.4823
  354MOL0     H47739   6.440  10.424   7.143  2.6169 -0.0566 -0.0254
  354MOL0     H47740   6.454  10.602   7.107  2.9455 -1.1634  0.2168
  354MOL0     H47741   6.244  10.706   7.367  0.1011 -0.0236  0.2553
  354MOL0     H47742   5.939  10.737   7.335  2.8113  2.0062  0.4637
  354MOL0     H47743   5.890  10.571   7.393  1.4524  0.1168  2.6843
  354MOL0     H47744   6.067  10.765   7.502 -4.1410  1.5797 -3.1634
  354MOL0     H47745   6.058  10.589   7.568 -4.5037 -2.9370 -0.8323
  354MOL0     H47746   5.807  10.641   7.591  0.7598 -0.8117  2.0431
  354MOL0     H47747   5.847  10.811   7.547  3.1000  1.9658  0.7462
  354MOL0     H47748   6.016  10.770   7.762 -0.2053  1.8920 -1.3263
  354MOL0     H47749   5.877  10.677   7.816  1.4002  0.5912  1.3719
  354MOL0     H47750   5.635  10.701   7.725 -0.0963  0.0336 -0.1206
  354MOL0     H47751   5.339  10.700   7.735 -1.9817  0.9328 -0.2143
  354MOL0     H47752   5.447  10.589   7.809 -1.3341 -0.6213  1.0206
  354MOL0     H47753   5.314  10.677   7.904 -1.3643  1.8308 -0.7914
  354MOL0     H47754   5.081  11.115   8.022  0.4633 -0.0889  3.0775
  354MOL0     H47755   4.848  11.129   8.101 -2.3839 -2.2399  2.3247
  354MOL0     H47756   4.713  11.034   8.280  1.9119 -1.0716 -0.7616
  354MOL0     H47757   4.626  11.102   8.147  1.3768 -0.0331  0.0417
  354MOL0     H47758   4.430  10.957   8.200  1.4066 -4.1089 -1.0437
  354MOL0     H47759   4.529  10.861   8.312 -0.8626 -0.0302  0.0165
  354MOL0     H47760   4.480  11.162   8.348  1.5576  0.7041  0.7386
  354MOL0     H47761   4.547  11.051   8.463  0.7577  0.8094 -0.5664
  354MOL0     H47762   4.273  11.054   8.338  0.7553  1.9724 -0.5607
  354MOL0     H47763   4.328  10.934   8.462  0.8046  0.3983 -0.0140
  354MOL0     H47764   4.378  11.138   8.612 -0.8907  0.0023  0.0898
  354MOL0     H47765   4.205  11.117   8.595  0.2186 -0.1510  2.2463
  354MOL0     H47766   4.376  11.323   8.439 -0.2320 -1.2518 -2.1619
  354MOL0     H47767   4.218  11.304   8.410  1.4491  0.3629 -1.0233
  354MOL0     H47768   4.339  11.327   8.688 -0.8082 -4.4572 -2.5250
  354MOL0     H47769   4.174  11.364   8.656 -0.7725  0.4318 -0.6012
  354MOL0     H47770   4.236  11.582   8.655  1.5357  0.4385  0.3828
  354MOL0     H47771   4.262  11.553   8.488  1.9800  2.7270 -0.2011
  354MOL0     H47772   4.798  10.711   8.026  0.2542 -0.5755  2.8055
  354MOL0     H47773   5.024  10.709   7.925  0.1396 -1.1513  2.5213
  354MOL0     H47774   5.542  11.085   8.012  0.0861 -0.6732  1.1872
  354MOL0     H47775   5.768  11.051   7.926 -0.4179  0.2376  4.3838
  354MOL0     H47776   7.612  10.437   7.321 -0.3145  2.2891  0.6948
  354MOL0     H47777   7.837  10.448   7.438 -0.1878 -0.6979 -0.8401
  354MOL0     H47778   7.985  10.729   7.965  1.7601  1.9549 -0.0187
  354MOL0     H47779   8.210  10.726   8.067  0.2261 -1.2242  0.9733
  354MOL0     H47780   8.391  10.720   8.131  0.1594 -1.1533 -2.3920
  354MOL0     H47781   8.329  10.597   8.232  1.6374 -0.4633  1.2959
  354MOL0     H47782   8.559  10.498   8.245 -3.0126  0.7732  2.9269
  354MOL0     H47783   8.564  10.669   8.292 -2.0530  1.5191 -0.9174
  354MOL0     H47784   8.643  10.762   8.085  1.7156  1.0768  2.6790
  354MOL0     H47785   8.641  10.608   8.012 -0.3148 -0.2617 -0.1547
  354MOL0     H47786   8.788  10.690   8.268  2.4277 -1.2373  1.1593
  354MOL0     H47787   8.859  10.701   8.106  1.1734  0.0976  1.3716
  354MOL0     H47788   8.920  10.301   8.212 -1.8923 -1.5139 -3.4388
  354MOL0     H47789   8.295  10.341   7.897 -1.1479 -1.5121 -2.3143
  354MOL0     H47790   8.089  10.355   7.764 -2.9279  0.1227  2.5959
  355MOL0     O47791   3.444  10.474   8.407  0.2123  0.6648  0.0698
  355MOL0     C47792   3.415  10.568   8.336 -0.2075  0.3040  0.4502
  355MOL0     O47793   3.289  10.596   8.291  0.2483 -0.9377  0.2328
  355MOL0     C47794   3.169  10.550   8.340 -0.0810  0.2247  0.1149
  355MOL0     C47795   3.153  10.539   8.476  0.1203  0.1250 -0.0277
  355MOL0     C47796   3.031  10.489   8.525 -0.0185 -0.4480 -0.1993
  355MOL0     C47797   2.919  10.467   8.437 -0.0759 -0.0121 -0.3655
  355MOL0     O47798   2.799  10.435   8.489 -0.7241 -0.6373  0.3922
  355MOL0     C47799   2.704  10.368   8.407  0.2740  0.0953  0.2426
  355MOL0     C47800   2.583  10.338   8.494  0.1279  0.1628 -0.3098
  355MOL0     C47801   2.502  10.225   8.429 -0.2084 -0.0654 -0.2447
  355MOL0     C47802   2.379  10.191   8.508 -0.4498  0.5384  0.5763
  355MOL0     C47803   2.318  10.069   8.454  0.1661  0.9129 -0.7566
  355MOL0     C47804   2.196  10.030   8.539 -0.3935  0.2172 -0.4668
  355MOL0     C47805   2.114   9.919   8.475  0.4152 -0.0795 -0.4551
  355MOL0     C47806   2.009   9.876   8.582  0.0512  0.5658 -0.1996
  355MOL0     N47807   1.887   9.806   8.534 -0.3696  0.0963  0.3461
  355MOL0     C47808   1.823   9.703   8.605 -0.3017  0.4816  0.0673
  355MOL0     C47809   1.717   9.677   8.522 -0.4873 -0.5308 -0.0476
  355MOL0     C47810   1.638   9.555   8.526  0.2709 -0.2367  0.2718
  355MOL0     C47811   1.712   9.426   8.543 -0.6464  0.9520  0.0690
  355MOL0     C47812   1.810   9.389   8.432 -0.0332 -0.2325 -0.4130
  355MOL0     C47813   1.961   9.419   8.448  0.0947 -0.1108  0.3870
  355MOL0     O47814   2.031   9.378   8.330 -0.3572  0.5097  0.2452
  355MOL0     C47815   2.149   9.440   8.294  0.5782 -0.5391 -0.4060
  355MOL0     C47816   2.189   9.422   8.160  0.4687  0.5809 -0.3947
  355MOL0     C47817   2.308   9.467   8.110  0.1686  1.3917 -0.5719
  355MOL0     C47818   2.340   9.442   7.961  0.1987 -0.0489  0.1502
  355MOL0     C47819   2.391   9.537   8.206  1.0229  0.2540  0.3699
  355MOL0     C47820   2.518   9.598   8.168 -0.3951 -0.5623 -0.2764
  355MOL0     O47821   2.601   9.637   8.271 -0.2242  0.0587 -0.3458
  355MOL0     C47822   2.718   9.706   8.235 -0.0149  1.0613  0.4654
  355MOL0     C47823   2.829   9.645   8.173  0.0547 -0.4021 -0.0106
  355MOL0     C47824   2.940   9.723   8.130 -0.6227  0.3742 -0.2396
  355MOL0     C47825   2.948   9.862   8.158  0.5184  0.2642 -0.1149
  355MOL0     O47826   3.048   9.939   8.106  0.4592 -0.0529 -0.7278
  355MOL0     C47827   3.180   9.906   8.146 -0.2943 -0.2078  0.9953
  355MOL0     C47828   3.265  10.036   8.139 -0.3397 -0.8463  0.0890
  355MOL0     C47829   3.393  10.008   8.207  0.0658 -0.0338 -0.9087
  355MOL0     C47830   3.504  10.114   8.187  0.5145 -1.2244  0.2501
  355MOL0     C47831   3.628  10.101   8.276  0.5484 -0.2037  0.2232
  355MOL0     C47832   3.724  10.229   8.274  0.5345  0.7950 -0.2613
  355MOL0     C47833   3.839  10.210   8.379 -0.5156 -0.3426  0.3939
  355MOL0     C47834   3.942  10.321   8.373  0.6034  0.1765 -0.1094
  355MOL0    Cl47835   3.995  10.352   8.208 -0.5868 -0.3571  0.3791
  355MOL0     C47836   2.839   9.921   8.218  0.1441  0.2809 -0.1482
  355MOL0     C47837   2.729   9.844   8.266 -0.2237  0.4537 -0.1308
  355MOL0     O47838   2.549   9.614   8.049 -0.3767  0.5938  0.3770
  355MOL0     C47839   2.343   9.562   8.338 -0.0970  0.2909  0.5245
  355MOL0     C47840   2.226   9.509   8.384  0.8444 -1.3502  0.3705
  355MOL0     N47841   1.713   9.776   8.422  0.0676  0.2802 -0.1414
  355MOL0     N47842   1.823   9.845   8.423  0.0348  0.2237 -0.1016
  355MOL0     C47843   2.936  10.478   8.300 -0.4801 -0.1926 -0.0941
  355MOL0     C47844   3.062  10.520   8.255 -0.4660 -0.1133  0.8942
  355MOL0     C47845   3.524  10.650   8.275 -0.1364  0.7323 -0.3820
  355MOL0     C47846   3.493  10.752   8.177 -0.0829 -0.0830 -0.6288
  355MOL0     C47847   3.603  10.825   8.132  0.0634 -0.1551  0.5936
  355MOL0     C47848   3.733  10.819   8.182  0.1764 -0.1494 -0.0638
  355MOL0     O47849   3.819  10.922   8.150  0.5653  0.0505  0.3042
  355MOL0     C47850   3.933  10.947   8.223 -0.1819  0.4100 -0.9749
  355MOL0     C47851   3.894  11.001   8.359 -0.7785  0.0196  0.6518
  355MOL0     C47852   3.782  11.117   8.353  0.1037  0.2283 -0.0827
  355MOL0     C47853   3.734  11.137   8.493  0.2776 -0.0650 -0.1512
  355MOL0     C47854   3.831  11.190   8.595  0.3462  0.6889  0.0912
  355MOL0     C47855   3.914  11.230   8.668  0.5559  0.3048  0.2046
  355MOL0     C47856   3.754  10.720   8.275 -0.1533 -0.0058 -1.0129
  355MOL0     C47857   3.655  10.635   8.320  0.2449 -0.0954 -0.5999
  355MOL0     H47858   3.232  10.549   8.550 -2.2118  1.7841  2.4444
  355MOL0     H47859   3.024  10.441   8.622  0.9083  0.1765  0.1894
  355MOL0     H47860   2.678  10.439   8.329 -2.2030  2.3629  2.9073
  355MOL0     H47861   2.728  10.270   8.364 -2.1780 -0.8898  0.9730
  355MOL0     H47862   2.605  10.298   8.594 -3.8796 -1.9613 -0.0346
  355MOL0     H47863   2.517  10.425   8.505  0.0439  0.2006 -1.0681
  355MOL0     H47864   2.466  10.270   8.335 -2.6823 -2.2245 -0.4460
  355MOL0     H47865   2.559  10.133   8.417 -0.9276 -0.6326  0.5842
  355MOL0     H47866   2.400  10.177   8.614 -1.4106  0.6772  0.7897
  355MOL0     H47867   2.307  10.273   8.510 -1.5396 -0.3331 -0.9102
  355MOL0     H47868   2.276  10.082   8.354 -0.7219 -2.0105 -0.8775
  355MOL0     H47869   2.389   9.986   8.444 -0.3759  0.1807  1.0800
  355MOL0     H47870   2.225   9.987   8.635 -0.3722 -1.1171 -1.0542
  355MOL0     H47871   2.127  10.114   8.551 -1.9549 -0.7302 -2.3078
  355MOL0     H47872   2.075   9.960   8.381  0.8174  2.1079  0.2858
  355MOL0     H47873   2.174   9.830   8.453 -0.9065 -1.2132  0.3600
  355MOL0     H47874   1.978   9.970   8.628 -2.9545 -0.1142 -0.6113
  355MOL0     H47875   2.064   9.807   8.647 -0.7075 -0.8983 -1.0310
  355MOL0     H47876   1.862   9.644   8.687  2.5426  1.8598 -0.1724
  355MOL0     H47877   1.560   9.561   8.603  1.4974 -0.7452  1.5999
  355MOL0     H47878   1.584   9.544   8.431 -0.2440 -1.4474  0.6883
  355MOL0     H47879   1.630   9.354   8.557 -0.5036  1.1006  2.0144
  355MOL0     H47880   1.775   9.429   8.633  0.7527  2.0171 -0.9146
  355MOL0     H47881   1.781   9.426   8.333 -1.3185  0.4336  0.1821
  355MOL0     H47882   1.803   9.280   8.426  1.8961 -0.4336  0.3746
  355MOL0     H47883   1.993   9.369   8.540 -2.1933  0.4742  1.5776
  355MOL0     H47884   1.973   9.527   8.460 -0.6290 -0.0547  0.6514
  355MOL0     H47885   2.121   9.367   8.097  0.0672  0.6670 -0.0383
  355MOL0     H47886   2.331   9.531   7.897 -0.3772  0.0368  0.3441
  355MOL0     H47887   2.442   9.403   7.953  0.1832 -0.1980  0.6445
  355MOL0     H47888   2.274   9.363   7.923 -0.3849  0.6347 -0.2828
  355MOL0     H47889   2.824   9.537   8.161  0.0477 -0.3545 -0.4520
  355MOL0     H47890   3.017   9.668   8.077  1.1513  0.3065  2.2316
  355MOL0     H47891   3.185   9.863   8.247 -0.1925  1.6733  1.8223
  355MOL0     H47892   3.216   9.833   8.073 -0.0582  0.0844  0.8212
  355MOL0     H47893   3.285  10.078   8.040 -2.9566  0.6607  0.1050
  355MOL0     H47894   3.216  10.122   8.184  1.7123  0.5141 -0.1337
  355MOL0     H47895   3.435   9.909   8.187  0.2244 -0.3116  0.6410
  355MOL0     H47896   3.362  10.010   8.312  1.0958  1.1742 -0.6133
  355MOL0     H47897   3.540  10.107   8.084 -0.0680 -0.8879  0.0175
  355MOL0     H47898   3.451  10.209   8.196  0.3294 -1.4159  1.3200
  355MOL0     H47899   3.683  10.009   8.253 -1.6487 -1.4686 -0.2879
  355MOL0     H47900   3.587  10.089   8.377 -3.4923  1.3718 -1.0433
  355MOL0     H47901   3.758  10.230   8.170 -0.6876 -0.8248 -0.7255
  355MOL0     H47902   3.679  10.322   8.306 -0.0107 -0.0305  1.4669
  355MOL0     H47903   3.903  10.123   8.365  0.9692  1.2106 -3.9314
  355MOL0     H47904   3.801  10.210   8.482 -0.1986  1.3915  0.5416
  355MOL0     H47905   4.025  10.303   8.442  1.3697 -2.0284 -1.5035
  355MOL0     H47906   3.891  10.410   8.412  0.3669  0.4284 -0.9715
  355MOL0     H47907   2.836  10.028   8.237 -1.4184  0.0241  1.1782
  355MOL0     H47908   2.660   9.893   8.334 -0.8913 -1.8111  0.9029
  355MOL0     H47909   2.397   9.629   8.404 -2.1654  1.6725  0.9167
  355MOL0     H47910   2.183   9.538   8.479 -1.8639  1.9733 -1.6335
  355MOL0     H47911   2.860  10.478   8.223 -0.7185  4.3191 -0.1057
  355MOL0     H47912   3.072  10.534   8.147 -2.7634 -3.3229  0.1023
  355MOL0     H47913   3.395  10.763   8.131 -0.6655  4.7273  1.1648
  355MOL0     H47914   3.579  10.889   8.047  0.7358 -0.7090 -0.0209
  355MOL0     H47915   4.000  10.864   8.247 -2.8296 -1.3472  0.8353
  355MOL0     H47916   3.989  11.020   8.164 -1.9761  2.0724 -0.7084
  355MOL0     H47917   3.985  11.038   8.407 -1.4781  2.6993  0.0916
  355MOL0     H47918   3.862  10.920   8.425 -2.4936 -0.1506 -0.3229
  355MOL0     H47919   3.698  11.084   8.290 -0.9103 -0.0925  1.3796
  355MOL0     H47920   3.834  11.204   8.313  2.1121 -0.0409  1.7703
  355MOL0     H47921   3.714  11.036   8.529 -0.3977  0.8133  2.0876
  355MOL0     H47922   3.643  11.197   8.494  0.5523  0.3611  0.8807
  355MOL0     H47923   3.981  11.270   8.741  1.2179 -0.6223  0.1236
  355MOL0     H47924   3.849  10.718   8.327 -0.2517  1.2571 -0.7597
  355MOL0     H47925   3.684  10.551   8.383  2.9136  1.8050  0.8759
  356MOL0     O47926  11.013   5.238   6.921  0.6824 -0.2100  0.3773
  356MOL0     C47927  11.099   5.183   6.850  0.2788  0.4803  0.0856
  356MOL0     O47928  11.140   5.218   6.721  0.5159 -0.0870  0.2534
  356MOL0     C47929  11.068   5.306   6.648  0.3140 -0.1167  0.1499
  356MOL0     C47930  10.924   5.306   6.649 -0.1993  0.0617 -0.0310
  356MOL0     C47931  10.855   5.386   6.553  0.0135 -0.4035 -0.1914
  356MOL0     C47932  10.926   5.470   6.468 -0.3599 -0.9365  0.8265
  356MOL0     O47933  10.870   5.564   6.384 -0.4549 -0.4005  0.3859
  356MOL0     C47934  10.738   5.617   6.416 -0.1575  0.8358 -1.3932
  356MOL0     C47935  10.687   5.730   6.340  0.2256  0.7914  0.0529
  356MOL0     C47936  10.663   5.699   6.187  0.0010  0.7529 -0.4037
  356MOL0     C47937  10.518   5.650   6.169 -0.0829  0.5106  0.7004
  356MOL0     C47938  10.484   5.613   6.020  0.1264  0.1904 -0.2215
  356MOL0     C47939  10.332   5.568   6.011  0.9383  0.0781  0.0158
  356MOL0     C47940  10.218   5.668   6.025  0.3442 -0.4186 -0.3739
  356MOL0     C47941  10.088   5.661   5.937 -0.1936  0.0998  0.5230
  356MOL0     N47942   9.999   5.547   5.957 -0.6077  0.1545  0.9564
  356MOL0     C47943  10.037   5.423   5.914 -0.1906  0.2122 -0.6416
  356MOL0     C47944   9.938   5.343   5.944 -0.2118 -0.4162 -0.2886
  356MOL0     C47945   9.927   5.202   5.916 -0.2040  0.3748 -0.7656
  356MOL0     C47946   9.798   5.142   5.964  0.1713  1.2585  0.0683
  356MOL0     C47947   9.779   4.997   5.926  0.6317  0.5602  0.2990
  356MOL0     C47948   9.666   4.930   6.002 -0.1268 -0.1960  0.3121
  356MOL0     O47949   9.544   4.966   5.944 -0.2786  0.0531  0.5028
  356MOL0     C47950   9.477   5.074   5.996 -0.7429 -0.6459 -0.0145
  356MOL0     C47951   9.509   5.146   6.113  0.0525  0.4698  0.1551
  356MOL0     C47952   9.453   5.268   6.144 -0.3237 -0.4979  0.0601
  356MOL0     C47953   9.485   5.343   6.275  1.2091 -0.3387  0.0022
  356MOL0     C47954   9.343   5.310   6.064 -0.8578 -0.4645 -0.6334
  356MOL0     C47955   9.278   5.441   6.082 -0.8050 -0.1927  0.0100
  356MOL0     O47956   9.136   5.445   6.080 -0.1203  0.5119 -0.3117
  356MOL0     C47957   9.067   5.560   6.081 -0.2131 -0.2772  0.4264
  356MOL0     C47958   8.954   5.564   6.002  0.6076 -0.2240  0.4485
  356MOL0     C47959   8.883   5.682   5.988 -0.3644  0.6051  0.4423
  356MOL0     C47960   8.927   5.805   6.053  0.1444  0.5955  0.8411
  356MOL0     O47961   8.866   5.924   6.039 -0.0174  0.0734  0.9245
  356MOL0     C47962   8.774   5.948   6.146  0.1750 -0.4129 -0.3237
  356MOL0     C47963   8.735   6.092   6.156  0.1042  0.2528  0.2012
  356MOL0     C47964   8.633   6.126   6.275 -0.3957  0.8070  0.6496
  356MOL0     C47965   8.572   6.271   6.252  0.4512  0.8221  0.2396
  356MOL0     C47966   8.471   6.326   6.351  0.1420 -0.5737 -0.5540
  356MOL0     C47967   8.360   6.225   6.382 -0.6005 -0.1529  0.1608
  356MOL0     C47968   8.243   6.298   6.459 -0.0250  0.7934  0.4397
  356MOL0     C47969   8.129   6.200   6.504  0.2532  0.5471 -0.7254
  356MOL0    Cl47970   8.011   6.314   6.588  0.1896 -0.1246  0.1511
  356MOL0     C47971   9.038   5.798   6.125  0.1470 -0.7223 -0.6795
  356MOL0     C47972   9.107   5.677   6.144 -0.5600  0.5356  0.2766
  356MOL0     O47973   9.347   5.543   6.095  0.0727  0.0947  0.1753
  356MOL0     C47974   9.295   5.230   5.959  0.5327  1.2885 -0.5543
  356MOL0     C47975   9.366   5.114   5.926 -0.7431 -0.8522 -0.0835
  356MOL0     N47976   9.847   5.417   6.010 -0.2237  0.0847  0.1823
  356MOL0     N47977   9.877   5.546   6.008  0.1682 -1.1323  0.2964
  356MOL0     C47978  11.066   5.469   6.473 -0.1251 -0.2058  0.4281
  356MOL0     C47979  11.134   5.384   6.556 -0.6716 -0.9422  0.2887
  356MOL0     C47980  11.199   5.107   6.934  0.1541  0.6061 -0.3191
  356MOL0     C47981  11.177   5.098   7.077  0.2319 -0.5607  0.4043
  356MOL0     C47982  11.274   5.042   7.159  0.3896 -1.0928  0.4230
  356MOL0     C47983  11.390   4.981   7.104  0.3419 -0.1889 -0.4639
  356MOL0     O47984  11.469   4.921   7.191  0.8985 -0.3094  0.0918
  356MOL0     C47985  11.534   4.795   7.160 -0.0935  0.5625 -0.1665
  356MOL0     C47986  11.429   4.686   7.114  0.2626 -0.2462 -0.6406
  356MOL0     C47987  11.350   4.631   7.232  0.1463 -0.2473 -0.7885
  356MOL0     C47988  11.245   4.527   7.198 -0.4472 -0.1069 -0.3542
  356MOL0     C47989  11.298   4.414   7.121  0.8765 -0.3156 -0.5340
  356MOL0     C47990  11.339   4.321   7.054 -0.2759  0.3291  0.3444
  356MOL0     C47991  11.407   4.974   6.962  0.2133  0.4305 -0.0143
  356MOL0     C47992  11.306   5.029   6.878  0.1444  0.1165  0.2390
  356MOL0     H47993  10.865   5.233   6.704 -1.2021 -2.1185 -3.6717
  356MOL0     H47994  10.747   5.388   6.552 -0.0749  2.0940  2.0965
  356MOL0     H47995  10.663   5.539   6.402  0.2558  0.5098 -1.8171
  356MOL0     H47996  10.751   5.657   6.517  2.1688  1.0644 -1.7307
  356MOL0     H47997  10.595   5.762   6.389  1.7281 -0.1838  3.8506
  356MOL0     H47998  10.741   5.825   6.354 -0.2540  1.2347 -0.9954
  356MOL0     H47999  10.678   5.789   6.127 -1.3487  0.4255 -1.2859
  356MOL0     H48000  10.734   5.620   6.162  0.1188 -0.5168  3.2929
  356MOL0     H48001  10.517   5.554   6.222  0.3699  0.9035  1.4395
  356MOL0     H48002  10.445   5.726   6.197 -0.2216  1.8710 -2.8690
  356MOL0     H48003  10.505   5.693   5.949 -0.0094 -0.4233 -0.9563
  356MOL0     H48004  10.548   5.532   5.985 -0.8946 -1.2895  1.2153
  356MOL0     H48005  10.321   5.523   5.912 -2.2397 -0.7801  0.6243
  356MOL0     H48006  10.299   5.492   6.084  0.2820  1.0763  0.7841
  356MOL0     H48007  10.180   5.677   6.127 -0.1110 -1.6787 -0.4133
  356MOL0     H48008  10.274   5.760   6.007 -0.0815 -0.1546 -0.3689
  356MOL0     H48009  10.120   5.666   5.833  0.2807  0.6540  0.6890
  356MOL0     H48010  10.027   5.749   5.963  1.3970  0.9354  1.5948
  356MOL0     H48011  10.129   5.391   5.865 -0.5726 -1.1922 -0.4733
  356MOL0     H48012   9.937   5.194   5.807  1.4778  3.4595 -0.9677
  356MOL0     H48013  10.004   5.140   5.963 -1.6399 -0.5447  0.4547
  356MOL0     H48014   9.716   5.199   5.920 -0.5578  0.7662  0.7418
  356MOL0     H48015   9.795   5.151   6.073  0.8922  1.5272  0.0705
  356MOL0     H48016   9.875   4.948   5.949  0.7159  0.9510  0.7969
  356MOL0     H48017   9.762   4.997   5.818  1.5519 -1.4228  0.0963
  356MOL0     H48018   9.672   4.933   6.111 -4.1080 -1.3235  0.7330
  356MOL0     H48019   9.667   4.823   5.980 -4.4862 -0.2190 -0.5968
  356MOL0     H48020   9.586   5.111   6.181 -1.2008  1.0500  1.9850
  356MOL0     H48021   9.407   5.411   6.310  0.9679  0.8814 -2.6636
  356MOL0     H48022   9.506   5.275   6.358  0.2832 -0.4734  0.1323
  356MOL0     H48023   9.576   5.399   6.253  0.6745  0.4326 -0.2833
  356MOL0     H48024   8.923   5.475   5.949  1.8584 -0.2196 -0.3189
  356MOL0     H48025   8.791   5.682   5.930 -0.6575  3.6702  0.7245
  356MOL0     H48026   8.685   5.887   6.126 -0.5657  0.8006 -0.7838
  356MOL0     H48027   8.812   5.920   6.245  0.2374  1.3213  0.1592
  356MOL0     H48028   8.827   6.152   6.158  0.0799  0.4615 -2.4731
  356MOL0     H48029   8.696   6.128   6.061  0.4818  1.8630  0.6200
  356MOL0     H48030   8.685   6.116   6.371  0.4508  1.5884  0.2829
  356MOL0     H48031   8.553   6.052   6.273  1.1975 -0.9978 -0.6639
  356MOL0     H48032   8.654   6.342   6.240  1.5260 -0.2083  1.2700
  356MOL0     H48033   8.518   6.280   6.157 -0.8374  1.4102  0.9991
  356MOL0     H48034   8.430   6.420   6.314  0.6395 -0.1330 -0.0069
  356MOL0     H48035   8.525   6.348   6.444 -1.8917  3.7245 -0.1346
  356MOL0     H48036   8.328   6.179   6.288  0.5768  0.7265 -0.6911
  356MOL0     H48037   8.394   6.148   6.451 -2.8191  0.3833  1.9780
  356MOL0     H48038   8.204   6.367   6.384  0.3019 -0.5400 -1.0025
  356MOL0     H48039   8.284   6.338   6.552  1.8357  0.2059 -0.0912
  356MOL0     H48040   8.180   6.145   6.584  1.8623  1.5836 -0.9991
  356MOL0     H48041   8.090   6.146   6.417  0.0551  0.5908 -0.6640
  356MOL0     H48042   9.084   5.879   6.180  2.6336 -1.3224 -1.7334
  356MOL0     H48043   9.198   5.684   6.202  1.6257 -1.1497 -2.6362
  356MOL0     H48044   9.218   5.270   5.895  0.0331  1.6566  0.2635
  356MOL0     H48045   9.343   5.055   5.837  1.5513 -1.2894 -0.4617
  356MOL0     H48046  11.124   5.541   6.416 -0.1102 -0.0260  0.6660
  356MOL0     H48047  11.242   5.392   6.555 -0.7963  1.7533 -0.7418
  356MOL0     H48048  11.087   5.147   7.114  0.2553 -0.1883 -0.0174
  356MOL0     H48049  11.281   5.047   7.268  1.4032 -2.3828  0.4447
  356MOL0     H48050  11.589   4.806   7.067  0.6506  2.1463  0.4318
  356MOL0     H48051  11.600   4.764   7.242 -0.4178  0.7058  0.1520
  356MOL0     H48052  11.481   4.600   7.074 -0.9355 -2.4220  2.1124
  356MOL0     H48053  11.360   4.719   7.036 -0.6907 -0.0458  0.2489
  356MOL0     H48054  11.292   4.713   7.275 -1.6662 -2.1961  0.7105
  356MOL0     H48055  11.423   4.587   7.300  0.0766 -1.5059 -1.5006
  356MOL0     H48056  11.157   4.554   7.138 -1.6235 -3.0633 -0.1683
  356MOL0     H48057  11.208   4.478   7.289  0.5636  1.4168  0.9129
  356MOL0     H48058  11.372   4.247   6.984 -2.8611  0.1225 -0.7512
  356MOL0     H48059  11.490   4.926   6.912 -0.6545  0.2275 -1.3150
  356MOL0     H48060  11.310   5.017   6.771 -0.0361 -0.5872  0.3052
  357MOL0     O48061   7.013   3.698   5.506 -0.0346 -0.7129 -0.3955
  357MOL0     C48062   7.023   3.582   5.549 -0.0638 -0.8544  0.4938
  357MOL0     O48063   7.134   3.526   5.606  0.4788 -0.0539  0.5275
  357MOL0     C48064   7.258   3.586   5.610  0.6293  0.8512 -0.5231
  357MOL0     C48065   7.282   3.719   5.594 -0.0396  0.2468 -0.3000
  357MOL0     C48066   7.414   3.768   5.583 -0.2337 -0.1375  0.3393
  357MOL0     C48067   7.520   3.687   5.601  0.2613  0.0478 -0.7902
  357MOL0     O48068   7.640   3.746   5.578 -0.1162  0.5802  0.4446
  357MOL0     C48069   7.745   3.662   5.528 -0.3908 -0.6965 -0.1457
  357MOL0     C48070   7.861   3.747   5.500 -0.3094 -0.0317  0.0448
  357MOL0     C48071   7.995   3.681   5.476 -0.3699 -0.1873 -0.8245
  357MOL0     C48072   8.059   3.618   5.601 -0.0173 -0.2144 -0.5026
  357MOL0     C48073   8.195   3.569   5.577  0.7474 -0.5788 -0.4169
  357MOL0     C48074   8.240   3.485   5.687 -0.6819  0.2274  0.4667
  357MOL0     C48075   8.390   3.434   5.682  0.2365  0.1173 -0.0706
  357MOL0     C48076   8.446   3.383   5.824 -0.1642 -0.7122 -0.5187
  357MOL0     N48077   8.397   3.252   5.866 -0.3134  0.7698  0.2687
  357MOL0     C48078   8.405   3.135   5.793  0.6558 -0.5540 -0.0228
  357MOL0     C48079   8.349   3.032   5.870  0.8067 -0.9726  1.1022
  357MOL0     C48080   8.334   2.887   5.835  0.1468 -0.2923 -0.4792
  357MOL0     C48081   8.199   2.828   5.847  0.3025 -0.4354  0.1306
  357MOL0     C48082   8.080   2.906   5.788  0.2196 -0.4030  0.0868
  357MOL0     C48083   7.958   2.820   5.773  0.2348  0.5403 -0.8106
  357MOL0     O48084   7.917   2.786   5.912  0.2184 -0.4087 -0.0498
  357MOL0     C48085   7.791   2.730   5.928  0.2133  0.1801  0.0330
  357MOL0     C48086   7.702   2.721   5.821  0.6195 -0.1894  0.6228
  357MOL0     C48087   7.572   2.670   5.842 -0.0595 -0.1120  0.2528
  357MOL0     C48088   7.476   2.660   5.724  1.2382  0.2108  0.1011
  357MOL0     C48089   7.532   2.622   5.975  0.7592  0.4522 -0.1516
  357MOL0     C48090   7.400   2.564   6.015 -0.5952  0.5667  0.4875
  357MOL0     O48091   7.412   2.463   6.115  0.0771  0.3273  0.0161
  357MOL0     C48092   7.288   2.420   6.160 -0.6663 -0.6421  0.2020
  357MOL0     C48093   7.223   2.309   6.099 -0.0250 -0.4234  0.0910
  357MOL0     C48094   7.091   2.277   6.132  0.1773  1.2986  0.6501
  357MOL0     C48095   7.028   2.341   6.239 -0.4617 -0.5476 -0.2815
  357MOL0     O48096   6.908   2.294   6.279 -0.1811  0.0786 -0.3737
  357MOL0     C48097   6.820   2.397   6.329 -0.5690 -0.4231  0.4047
  357MOL0     C48098   6.695   2.326   6.377 -0.4223 -0.8949 -0.2980
  357MOL0     C48099   6.614   2.276   6.259  0.0582 -0.6575 -0.5601
  357MOL0     C48100   6.484   2.215   6.308 -0.2641 -0.4029 -0.4429
  357MOL0     C48101   6.375   2.205   6.193 -1.3123  0.8835 -0.1844
  357MOL0     C48102   6.236   2.153   6.239 -0.0413 -0.9585  0.5096
  357MOL0     C48103   6.147   2.132   6.117  0.1206  0.5271 -0.6300
  357MOL0     C48104   6.008   2.060   6.150  0.0001  0.4494  0.5861
  357MOL0    Cl48105   5.895   2.178   6.222  0.1883 -0.3114 -0.2149
  357MOL0     C48106   7.097   2.447   6.299 -0.0164 -0.0007  0.1337
  357MOL0     C48107   7.218   2.488   6.253  0.2090  0.4158  0.0751
  357MOL0     O48108   7.296   2.623   5.977  0.0208  0.3588  0.0952
  357MOL0     C48109   7.624   2.635   6.076 -0.4052  0.3665  0.0447
  357MOL0     C48110   7.757   2.688   6.055 -0.3801  0.0029  0.5929
  357MOL0     N48111   8.310   3.088   5.986 -0.3270 -0.2338 -0.5132
  357MOL0     N48112   8.320   3.225   5.970  0.1845  0.1148 -0.6187
  357MOL0     C48113   7.500   3.547   5.627  0.4053  0.0454  0.3684
  357MOL0     C48114   7.366   3.497   5.631  0.2327 -0.4040 -0.8077
  357MOL0     C48115   6.910   3.481   5.526 -0.3966 -0.0097  0.4764
  357MOL0     C48116   6.909   3.370   5.600  1.0095  0.2683  0.6846
  357MOL0     C48117   6.801   3.277   5.591 -0.3144  0.2132  0.2418
  357MOL0     C48118   6.699   3.294   5.501  0.2458 -0.2178 -0.1004
  357MOL0     O48119   6.596   3.202   5.479  0.0623 -0.5009 -0.2303
  357MOL0     C48120   6.614   3.061   5.515 -0.4757  0.7382  0.8051
  357MOL0     C48121   6.539   3.054   5.649 -1.1559  0.5826  1.1512
  357MOL0     C48122   6.406   3.116   5.663  0.2576  0.6690  0.5960
  357MOL0     C48123   6.293   3.030   5.600 -0.2595 -0.9295  0.0393
  357MOL0     C48124   6.172   3.118   5.583 -0.2739  0.0417 -0.9331
  357MOL0     C48125   6.074   3.184   5.575  0.1633 -0.4776 -0.7780
  357MOL0     C48126   6.700   3.414   5.429  0.8226 -0.1287  0.2607
  357MOL0     C48127   6.804   3.505   5.437 -0.0095 -0.6382  0.6219
  357MOL0     H48128   7.197   3.787   5.585 -0.8198 -0.4589  1.4018
  357MOL0     H48129   7.437   3.873   5.573  0.3050 -0.1198  1.5494
  357MOL0     H48130   7.767   3.594   5.611 -1.3224 -0.4949  0.2813
  357MOL0     H48131   7.724   3.614   5.433 -0.3740 -2.1925  0.5833
  357MOL0     H48132   7.833   3.809   5.414  2.5157  2.8045  0.9696
  357MOL0     H48133   7.870   3.805   5.593  1.2186 -1.4588  0.8430
  357MOL0     H48134   7.986   3.595   5.409  0.9125 -1.4113  0.4605
  357MOL0     H48135   8.071   3.750   5.439 -0.4160  1.1188  1.3063
  357MOL0     H48136   8.061   3.684   5.688  1.7580 -0.8652 -0.0016
  357MOL0     H48137   8.001   3.529   5.624 -1.6985  0.4988 -1.7675
  357MOL0     H48138   8.204   3.499   5.493  1.5009 -1.4012  0.3327
  357MOL0     H48139   8.258   3.656   5.561 -0.2774  0.1126 -0.8030
  357MOL0     H48140   8.220   3.542   5.779 -1.0103 -0.4778  0.8476
  357MOL0     H48141   8.181   3.393   5.681 -0.7597  0.1610  1.9400
  357MOL0     H48142   8.406   3.359   5.604  1.7728 -1.5328  1.6965
  357MOL0     H48143   8.445   3.525   5.657  0.2426  0.4775  1.1613
  357MOL0     H48144   8.409   3.455   5.898  3.1250 -0.0913  0.6805
  357MOL0     H48145   8.555   3.374   5.822  0.0623  0.6766  1.8187
  357MOL0     H48146   8.441   3.110   5.693  1.9225  0.0128  0.2698
  357MOL0     H48147   8.372   2.872   5.733  0.9949  0.7186 -0.3351
  357MOL0     H48148   8.397   2.837   5.909  2.1067 -1.9486 -3.0465
  357MOL0     H48149   8.174   2.822   5.954 -0.8213 -1.4293 -0.1600
  357MOL0     H48150   8.194   2.728   5.801  3.4375 -1.4935  1.7621
  357MOL0     H48151   8.111   2.925   5.685 -1.5815 -1.4956 -0.6927
  357MOL0     H48152   8.067   2.996   5.848  1.0833  0.4297 -0.9359
  357MOL0     H48153   7.978   2.733   5.710 -3.3729 -1.4457  0.5064
  357MOL0     H48154   7.888   2.891   5.728 -2.5348 -1.1039  0.6624
  357MOL0     H48155   7.729   2.724   5.716 -4.4030 -0.5512 -0.9649
  357MOL0     H48156   7.441   2.560   5.698 -3.3904  2.1860 -2.6707
  357MOL0     H48157   7.385   2.719   5.736  0.5808 -0.8126  0.2611
  357MOL0     H48158   7.522   2.691   5.630  1.3302 -0.8709 -0.2167
  357MOL0     H48159   7.277   2.250   6.026 -0.8276 -0.5632 -0.4034
  357MOL0     H48160   7.059   2.182   6.092  2.4517  0.6877  0.1529
  357MOL0     H48161   6.862   2.441   6.420 -0.9225  1.5098 -0.3225
  357MOL0     H48162   6.802   2.469   6.249  4.6675 -1.7470 -2.4433
  357MOL0     H48163   6.723   2.239   6.437  0.9325  0.3260  0.8957
  357MOL0     H48164   6.636   2.389   6.444 -0.7118 -0.3146 -1.0822
  357MOL0     H48165   6.668   2.207   6.193 -1.2055 -0.2546 -2.1160
  357MOL0     H48166   6.586   2.361   6.195  1.3767 -1.3101 -2.0664
  357MOL0     H48167   6.519   2.117   6.340  1.7446  0.6923  0.9064
  357MOL0     H48168   6.435   2.256   6.397  0.7598  0.7618 -0.3917
  357MOL0     H48169   6.410   2.140   6.113 -2.0188 -0.0575  0.2560
  357MOL0     H48170   6.361   2.302   6.145  3.4626  3.2605  2.4130
  357MOL0     H48171   6.259   2.059   6.291  0.0829 -1.2060  0.0062
  357MOL0     H48172   6.199   2.227   6.312  1.3073  0.3348 -0.0748
  357MOL0     H48173   6.202   2.074   6.043 -1.3345 -0.2531 -1.1417
  357MOL0     H48174   6.127   2.228   6.068  0.1114  0.3618 -0.9518
  357MOL0     H48175   6.012   1.978   6.222 -2.7890  1.2567  1.8029
  357MOL0     H48176   5.960   2.028   6.057  0.7276 -0.9211  0.6706
  357MOL0     H48177   7.054   2.517   6.370 -1.6567 -1.5485  0.7296
  357MOL0     H48178   7.265   2.577   6.295  1.1379  0.4057 -0.8989
  357MOL0     H48179   7.599   2.613   6.179 -0.8661 -0.6687 -0.2826
  357MOL0     H48180   7.821   2.695   6.142  0.3084  2.1605 -0.0208
  357MOL0     H48181   7.584   3.479   5.639  1.4717  0.7518 -2.2533
  357MOL0     H48182   7.337   3.395   5.652 -0.7296 -0.5010 -2.4398
  357MOL0     H48183   6.983   3.356   5.678  0.6944  0.9576  1.1118
  357MOL0     H48184   6.799   3.201   5.669 -2.3493 -0.8992 -0.7886
  357MOL0     H48185   6.578   2.996   5.434 -2.1160  2.8083 -0.2230
  357MOL0     H48186   6.718   3.029   5.522 -0.0629  1.4414 -1.3942
  357MOL0     H48187   6.607   3.104   5.719 -1.2094  2.2203  0.0895
  357MOL0     H48188   6.530   2.950   5.680  1.2784 -0.5413 -1.4399
  357MOL0     H48189   6.403   3.215   5.616 -0.2739  0.1920 -0.3886
  357MOL0     H48190   6.386   3.137   5.769  1.9197 -2.0278  1.5529
  357MOL0     H48191   6.256   2.951   5.666 -0.6101 -1.3405 -0.6446
  357MOL0     H48192   6.308   2.979   5.505 -1.4788 -1.3443  0.0552
  357MOL0     H48193   5.988   3.244   5.556 -1.6081 -2.5980  0.0987
  357MOL0     H48194   6.609   3.435   5.373 -0.3937  0.1491  2.2222
  357MOL0     H48195   6.795   3.601   5.388  0.5802  0.2919  2.2386
  358MOL0     O48196   1.122   9.833   6.627 -0.2738  0.2849  0.4115
  358MOL0     C48197   1.104   9.732   6.559 -0.7318  0.2096 -0.0871
  358MOL0     O48198   0.994   9.697   6.493 -0.2229  0.4475  0.0913
  358MOL0     C48199   0.885   9.775   6.506  1.1095 -0.4807 -0.8154
  358MOL0     C48200   0.838   9.831   6.630  0.3938 -1.2715 -0.2779
  358MOL0     C48201   0.724   9.912   6.634  0.1754  0.5746  0.0725
  358MOL0     C48202   0.646   9.929   6.515 -0.3060 -0.1097  0.0760
  358MOL0     O48203   0.524   9.992   6.499  0.3739 -0.7788 -0.6850
  358MOL0     C48204   0.457  10.038   6.616  0.5242  0.3647 -0.0596
  358MOL0     C48205   0.327  10.102   6.562 -0.4288 -0.2373  0.3164
  358MOL0     C48206   0.230  10.001   6.480  0.7823  0.3440 -0.8883
  358MOL0     C48207   0.220  10.032   6.330  0.2706  0.4175  0.2301
  358MOL0     C48208   0.132   9.934   6.256  0.8053  0.2706  0.2024
  358MOL0     C48209  -0.017   9.954   6.300 -0.2891  0.3170  0.6032
  358MOL0     C48210  -0.106   9.848   6.212  1.1081 -0.5628  0.3127
  358MOL0     C48211  -0.255   9.867   6.261 -0.3478  0.0591  0.6095
  358MOL0     N48212  -0.288   9.820   6.396 -0.4057  0.3049 -1.0214
  358MOL0     C48213  -0.287   9.899   6.512 -0.4145  0.0263 -0.1311
  358MOL0     C48214  -0.347   9.818   6.600  0.7597  0.0456 -0.3979
  358MOL0     C48215  -0.402   9.864   6.740  0.1062  0.0977  0.1183
  358MOL0     C48216  -0.539   9.929   6.742 -0.3255 -0.4500 -0.2899
  358MOL0     C48217  -0.553  10.055   6.657  0.5255  0.0579 -0.2518
  358MOL0     C48218  -0.693  10.111   6.660  0.0742 -0.5836  0.7075
  358MOL0     O48219  -0.784  10.036   6.575  0.2123  0.1316 -0.0713
  358MOL0     C48220  -0.913  10.077   6.557 -0.5249  0.9550 -0.0549
  358MOL0     C48221  -0.965  10.206   6.552  0.2550  0.1131  0.4676
  358MOL0     C48222  -1.098  10.236   6.517  0.9783 -0.0042 -0.6400
  358MOL0     C48223  -1.133  10.390   6.496 -0.9599  0.6290  0.1414
  358MOL0     C48224  -1.191  10.132   6.510 -0.0162  0.6290 -0.3225
  358MOL0     C48225  -1.325  10.147   6.463  0.1543 -0.1087  0.3234
  358MOL0     O48226  -1.379  10.269   6.405  0.0915 -0.1534 -0.0885
  358MOL0     C48227  -1.509  10.268   6.358 -0.4290 -0.1264  0.0217
  358MOL0     C48228  -1.546  10.314   6.231  0.7586  0.6371  0.4678
  358MOL0     C48229  -1.676  10.338   6.196 -0.0188 -0.1613  0.2317
  358MOL0     C48230  -1.779  10.317   6.280 -0.1652  0.0769 -0.5872
  358MOL0     O48231  -1.909  10.327   6.237 -0.0388 -0.1210  0.8531
  358MOL0     C48232  -2.018  10.306   6.325 -0.3941  0.1294 -0.1372
  358MOL0     C48233  -2.144  10.307   6.239  0.6267 -0.0656 -0.9490
  358MOL0     C48234  -2.268  10.323   6.330  1.0386 -0.1304 -0.4588
  358MOL0     C48235  -2.268  10.442   6.423  0.6077  1.2051 -0.0228
  358MOL0     C48236  -2.412  10.472   6.462  0.1519 -0.6044 -0.8660
  358MOL0     C48237  -2.414  10.545   6.598 -0.3906 -1.1850  1.1247
  358MOL0     C48238  -2.341  10.682   6.584  0.2309  0.4948  0.6548
  358MOL0     C48239  -2.308  10.747   6.711  0.0598  0.4801  0.2069
  358MOL0    Cl48240  -2.151  10.669   6.778 -0.3435 -0.5546  0.1901
  358MOL0     C48241  -1.747  10.272   6.412  0.3536 -0.8859 -0.0493
  358MOL0     C48242  -1.616  10.248   6.453  0.5717  0.4274  0.2700
  358MOL0     O48243  -1.402  10.049   6.478  0.5179 -0.2493 -0.1985
  358MOL0     C48244  -1.141   9.998   6.522 -0.1488  0.4154  0.5864
  358MOL0     C48245  -1.002   9.977   6.539  0.8466  0.5271  1.2931
  358MOL0     N48246  -0.392   9.705   6.545 -0.7809 -0.4958  0.0209
  358MOL0     N48247  -0.349   9.704   6.422  0.2082  0.4701 -0.4703
  358MOL0     C48248   0.690   9.881   6.396 -0.5013  0.1514  0.3752
  358MOL0     C48249   0.814   9.804   6.391  0.6211 -1.9913  0.1867
  358MOL0     C48250   1.208   9.634   6.560  0.2575 -0.0432  0.4853
  358MOL0     C48251   1.301   9.636   6.667  0.1016  0.5476  0.6641
  358MOL0     C48252   1.389   9.530   6.669 -0.1618  0.9375  0.4529
  358MOL0     C48253   1.394   9.427   6.567  0.2697  0.3540  0.2971
  358MOL0     O48254   1.487   9.334   6.561  0.1308  0.3792 -0.4343
  358MOL0     C48255   1.583   9.325   6.672  0.0926 -0.2561  0.1405
  358MOL0     C48256   1.684   9.217   6.624 -0.1470 -0.8323  0.5270
  358MOL0     C48257   1.628   9.085   6.610  0.7658 -0.0862 -0.0277
  358MOL0     C48258   1.610   9.006   6.743  0.4056 -0.1777 -0.2974
  358MOL0     C48259   1.734   8.974   6.814 -0.1331 -0.1849  0.1712
  358MOL0     C48260   1.837   8.961   6.874 -0.5446  0.1156 -0.2338
  358MOL0     C48261   1.306   9.437   6.457  0.1073 -1.7764  0.9022
  358MOL0     C48262   1.220   9.541   6.450  0.4182  0.5033 -0.2165
  358MOL0     H48263   0.890   9.824   6.725  0.0996  3.0740  0.4230
  358MOL0     H48264   0.697   9.960   6.728  3.2541  1.9074  0.3867
  358MOL0     H48265   0.437   9.956   6.686 -2.5754 -0.2613 -1.4817
  358MOL0     H48266   0.523  10.111   6.664  2.6286 -1.2761 -0.2991
  358MOL0     H48267   0.267  10.139   6.646 -1.1378  0.8094 -0.6139
  358MOL0     H48268   0.348  10.182   6.490 -1.1381 -1.5339 -1.3891
  358MOL0     H48269   0.266   9.898   6.488 -0.4377 -0.0209  0.6682
  358MOL0     H48270   0.130  10.001   6.526  1.8238 -4.8213  2.1723
  358MOL0     H48271   0.177  10.132   6.326 -0.4674  0.1062  0.1290
  358MOL0     H48272   0.318  10.035   6.282 -0.6967  2.1748 -1.8077
  358MOL0     H48273   0.143   9.943   6.148  1.7709  0.5772  0.3181
  358MOL0     H48274   0.154   9.829   6.280  1.3070 -0.1100 -1.7463
  358MOL0     H48275  -0.047   9.925   6.401 -3.1820 -0.0437 -0.2578
  358MOL0     H48276  -0.042  10.060   6.290  0.6135  0.6884  2.0111
  358MOL0     H48277  -0.089   9.873   6.107  1.1903 -0.1167  0.4289
  358MOL0     H48278  -0.067   9.746   6.214 -1.1962 -1.4769  2.0627
  358MOL0     H48279  -0.321   9.813   6.194 -0.7453  0.6675  0.5046
  358MOL0     H48280  -0.271   9.975   6.248  1.1616 -0.0581 -3.5436
  358MOL0     H48281  -0.250   9.999   6.535  0.6850 -0.6776  1.3480
  358MOL0     H48282  -0.403   9.774   6.802  0.3768 -1.8200 -2.5029
  358MOL0     H48283  -0.331   9.933   6.785 -2.0894  2.5867 -0.0100
  358MOL0     H48284  -0.566   9.967   6.842 -4.1337  1.2825 -1.7427
  358MOL0     H48285  -0.607   9.849   6.712  0.2846 -1.0555 -0.0807
  358MOL0     H48286  -0.531  10.035   6.552  1.2152  0.1337 -0.1258
  358MOL0     H48287  -0.477  10.127   6.688  0.3372  0.0199  0.3216
  358MOL0     H48288  -0.685  10.218   6.638  2.1640 -0.3319  2.2984
  358MOL0     H48289  -0.738  10.105   6.759  0.6042  1.3504  1.1132
  358MOL0     H48290  -0.897  10.291   6.556 -0.1314  0.4453  0.1400
  358MOL0     H48291  -1.049  10.447   6.537  1.4727 -2.6765  0.2261
  358MOL0     H48292  -1.138  10.411   6.389  2.4652  1.2968 -0.0151
  358MOL0     H48293  -1.226  10.412   6.550 -1.4080  0.1980 -0.4459
  358MOL0     H48294  -1.470  10.326   6.154 -1.7341 -0.2350 -2.3312
  358MOL0     H48295  -1.699  10.351   6.091 -1.1853  0.4488  0.5512
  358MOL0     H48296  -2.008  10.209   6.375 -0.2131 -0.4057 -1.1863
  358MOL0     H48297  -2.025  10.378   6.406  0.4229  1.9477 -1.6186
  358MOL0     H48298  -2.140  10.392   6.170  2.2540 -0.2160 -1.0750
  358MOL0     H48299  -2.153  10.209   6.191 -2.0402 -1.5386  2.2205
  358MOL0     H48300  -2.275  10.239   6.400  0.7195  0.5618  0.3569
  358MOL0     H48301  -2.349  10.336   6.257 -0.2408  0.5635  1.0275
  358MOL0     H48302  -2.203  10.420   6.509  0.7177 -0.9572 -0.6047
  358MOL0     H48303  -2.227  10.525   6.364 -1.1911  0.7384 -2.0222
  358MOL0     H48304  -2.474  10.382   6.473 -1.6566  0.8391  1.7624
  358MOL0     H48305  -2.462  10.542   6.394 -2.0213 -1.1851  0.0530
  358MOL0     H48306  -2.522  10.562   6.606 -0.0659  1.4707  0.5676
  358MOL0     H48307  -2.380  10.480   6.680 -1.0943  0.2110  2.5824
  358MOL0     H48308  -2.418  10.745   6.539  1.2381 -0.0872 -2.1498
  358MOL0     H48309  -2.257  10.678   6.514  0.2769 -3.6033  0.7279
  358MOL0     H48310  -2.391  10.729   6.779 -0.4754  1.2158 -0.2308
  358MOL0     H48311  -2.298  10.855   6.692 -0.2213  0.6754  1.1285
  358MOL0     H48312  -1.819  10.268   6.494  1.6912  1.5554  1.3658
  358MOL0     H48313  -1.589  10.201   6.547  0.4976  0.6089  0.3813
  358MOL0     H48314  -1.208   9.914   6.514  0.5209  0.0395 -1.7209
  358MOL0     H48315  -0.978   9.871   6.549  0.0982  0.1726 -0.2248
  358MOL0     H48316   0.633   9.899   6.306 -1.9645  0.1901  1.2891
  358MOL0     H48317   0.829   9.758   6.293 -0.4639 -1.5625 -0.1915
  358MOL0     H48318   1.292   9.712   6.744  0.1511  1.3219 -0.0835
  358MOL0     H48319   1.466   9.525   6.744  1.3054  3.6481 -0.7050
  358MOL0     H48320   1.633   9.418   6.698 -1.9838  0.4023  2.1892
  358MOL0     H48321   1.537   9.308   6.770 -1.3121  1.5869 -0.1335
  358MOL0     H48322   1.774   9.208   6.686  1.5264 -0.3351 -1.6838
  358MOL0     H48323   1.726   9.245   6.527  0.6153 -4.7426 -0.4361
  358MOL0     H48324   1.694   9.031   6.541  2.0794  1.0591  0.2779
  358MOL0     H48325   1.525   9.104   6.578  1.2673  3.2150 -0.0469
  358MOL0     H48326   1.561   8.910   6.723  0.4095 -0.3859  0.6282
  358MOL0     H48327   1.547   9.057   6.817 -0.1537  1.3672 -1.7775
  358MOL0     H48328   1.937   8.947   6.912  0.8355  3.5973 -2.1362
  358MOL0     H48329   1.308   9.370   6.371  0.2854  2.3412 -2.6214
  358MOL0     H48330   1.156   9.551   6.363  3.5339  2.6193 -2.5090
  359MOL0     O48331   5.097   6.499  10.072 -0.1937  0.2178  0.1069
  359MOL0     C48332   5.094   6.627  10.074 -0.1530  0.8155  0.3768
  359MOL0     O48333   5.044   6.700  10.176  0.3247 -0.3624  0.3213
  359MOL0     C48334   4.969   6.641  10.273  0.0706 -0.5977  0.4170
  359MOL0     C48335   4.981   6.691  10.398  0.4305  0.7511  0.0782
  359MOL0     C48336   4.914   6.640  10.505  0.5988 -0.4512  0.2148
  359MOL0     C48337   4.822   6.532  10.489 -0.7614 -0.5089  0.1121
  359MOL0     O48338   4.768   6.473  10.594 -0.5271  0.3153  0.6914
  359MOL0     C48339   4.629   6.440  10.579  0.1067 -0.7051 -0.2571
  359MOL0     C48340   4.556   6.450  10.711 -1.0927  1.2141  0.0037
  359MOL0     C48341   4.408   6.441  10.695 -0.6990  0.3843  0.2422
  359MOL0     C48342   4.343   6.349  10.797  0.7632  0.8510 -0.2288
  359MOL0     C48343   4.187   6.366  10.799 -0.1551  0.1150  0.4021
  359MOL0     C48344   4.115   6.263  10.893  0.3371 -0.1427  0.6527
  359MOL0     C48345   4.180   6.257  11.033 -0.2710 -0.2630 -0.3060
  359MOL0     C48346   4.075   6.197  11.127 -0.2350 -0.3056 -0.2085
  359MOL0     N48347   4.028   6.053  11.106 -0.8948  0.1973 -0.3235
  359MOL0     C48348   3.930   5.998  11.025 -0.6230  0.5109 -0.4614
  359MOL0     C48349   3.903   5.871  11.064  0.4164  1.1451 -0.2587
  359MOL0     C48350   3.826   5.768  10.990 -0.3160 -0.3598 -0.8009
  359MOL0     C48351   3.695   5.744  11.068  0.5016  0.3669  0.1007
  359MOL0     C48352   3.717   5.678  11.199 -0.6903 -0.0261  0.0362
  359MOL0     C48353   3.585   5.645  11.266 -0.2051  0.0078 -0.2692
  359MOL0     O48354   3.559   5.502  11.248 -0.0830 -0.1239 -0.1531
  359MOL0     C48355   3.428   5.461  11.249  0.4240  0.1779  0.4481
  359MOL0     C48356   3.381   5.390  11.360  0.7798 -0.3027 -0.1836
  359MOL0     C48357   3.248   5.344  11.369  1.1005 -0.2441  0.3100
  359MOL0     C48358   3.224   5.248  11.488 -0.0921  0.6807 -0.0706
  359MOL0     C48359   3.149   5.406  11.287  0.3131 -0.0261  0.2532
  359MOL0     C48360   3.006   5.382  11.306 -0.3187 -0.6456  0.1493
  359MOL0     O48361   2.930   5.449  11.210 -0.1221  0.8123  0.2407
  359MOL0     C48362   2.799   5.427  11.199  0.1388  0.3483 -0.3043
  359MOL0     C48363   2.712   5.491  11.292  1.2308  0.0092  0.3143
  359MOL0     C48364   2.570   5.478  11.275 -0.4703 -0.9608 -0.5047
  359MOL0     C48365   2.519   5.410  11.162 -0.4470  0.0847 -0.8171
  359MOL0     O48366   2.388   5.416  11.118  0.0613 -0.0958  0.3805
  359MOL0     C48367   2.285   5.460  11.208  0.0871  0.2370 -0.5720
  359MOL0     C48368   2.146   5.446  11.151  0.6003  0.5019  0.2508
  359MOL0     C48369   2.102   5.299  11.130 -0.3066  0.5973  0.4083
  359MOL0     C48370   1.953   5.301  11.105  0.0002  0.6277 -0.3407
  359MOL0     C48371   1.899   5.168  11.054  0.7241  0.6273  0.1956
  359MOL0     C48372   1.745   5.176  11.031 -0.1253 -0.0363 -1.3533
  359MOL0     C48373   1.698   5.061  10.938 -0.1575  0.0746  0.4231
  359MOL0     C48374   1.547   5.034  10.956  0.0204  0.5699  0.1493
  359MOL0    Cl48375   1.495   4.911  10.849 -0.3995  0.0101  0.0256
  359MOL0     C48376   2.606   5.339  11.081 -0.0885 -0.2979  0.4549
  359MOL0     C48377   2.740   5.347  11.096  0.7358 -0.1407 -0.0792
  359MOL0     O48378   2.960   5.315  11.397 -0.4971 -0.1584 -0.5079
  359MOL0     C48379   3.200   5.481  11.175 -1.0045  0.0054  0.1735
  359MOL0     C48380   3.334   5.499  11.155 -1.4044 -0.1107  0.0329
  359MOL0     N48381   3.985   5.850  11.172  0.3673  0.5992  0.1297
  359MOL0     N48382   4.053   5.956  11.197 -0.0568 -0.8686  0.1810
  359MOL0     C48383   4.811   6.482  10.360  0.9723 -1.0283  0.4094
  359MOL0     C48384   4.878   6.540  10.255  0.0141  0.1612  0.1938
  359MOL0     C48385   5.154   6.688   9.960  0.3703  0.0656  0.8295
  359MOL0     C48386   5.174   6.825   9.952  0.2265  0.5450  0.1675
  359MOL0     C48387   5.235   6.893   9.845 -0.7946  0.7570  0.1927
  359MOL0     C48388   5.286   6.815   9.735 -0.3888 -0.5203  0.0824
  359MOL0     O48389   5.362   6.887   9.642 -0.2761  0.3602  0.3064
  359MOL0     C48390   5.442   6.813   9.542  0.3362 -0.3917  0.3275
  359MOL0     C48391   5.351   6.812   9.422  1.0140 -0.5149 -0.0348
  359MOL0     C48392   5.387   6.718   9.319 -0.2028  0.4845 -0.5461
  359MOL0     C48393   5.293   6.718   9.216  1.3270 -0.5985  0.4979
  359MOL0     C48394   5.297   6.600   9.126  0.3194  0.7923 -0.3359
  359MOL0     C48395   5.312   6.495   9.064  0.3109 -0.1071 -0.3377
  359MOL0     C48396   5.255   6.678   9.739  0.2001  0.4709 -0.2876
  359MOL0     C48397   5.191   6.615   9.841  0.6350  0.3086 -0.2392
  359MOL0     H48398   5.056   6.768  10.415  0.4702  0.7330 -0.0156
  359MOL0     H48399   4.939   6.674  10.605 -0.5303  0.2112  0.2866
  359MOL0     H48400   4.569   6.504  10.512 -2.7494 -2.8842  0.0005
  359MOL0     H48401   4.624   6.334  10.551  2.4983 -1.7699  2.8687
  359MOL0     H48402   4.596   6.378  10.784 -1.7337  0.6431 -0.1988
  359MOL0     H48403   4.579   6.551  10.746  0.0858  1.2512 -0.8013
  359MOL0     H48404   4.370   6.542  10.714  2.3256  1.4216  1.2285
  359MOL0     H48405   4.380   6.407  10.595 -0.3976 -0.7987  0.5418
  359MOL0     H48406   4.360   6.245  10.770  4.5721  0.9823  1.0766
  359MOL0     H48407   4.380   6.368  10.898  0.5563  2.6303 -0.4544
  359MOL0     H48408   4.161   6.461  10.848  0.1525  1.6710 -2.2568
  359MOL0     H48409   4.146   6.372  10.698  1.2351  0.8827 -0.1577
  359MOL0     H48410   4.010   6.287  10.881  0.4801 -0.3010 -1.1278
  359MOL0     H48411   4.119   6.164  10.847 -1.9440  0.3693 -0.7843
  359MOL0     H48412   4.256   6.179  11.027 -1.1377 -1.4250  2.3725
  359MOL0     H48413   4.214   6.356  11.064  0.9638  1.1564 -5.2564
  359MOL0     H48414   3.988   6.262  11.139 -0.8030 -0.9922 -0.5606
  359MOL0     H48415   4.111   6.199  11.230  0.2287  0.0099 -0.3727
  359MOL0     H48416   3.904   6.046  10.931  1.4867  0.5988 -1.0580
  359MOL0     H48417   3.787   5.810  10.896 -2.3363 -1.0342 -0.3156
  359MOL0     H48418   3.879   5.680  10.952 -2.1309 -0.5345 -3.1271
  359MOL0     H48419   3.627   5.681  11.010  1.9672 -0.6347 -0.5825
  359MOL0     H48420   3.635   5.834  11.083 -0.4765 -0.0765 -0.9324
  359MOL0     H48421   3.766   5.745  11.270 -0.2039  1.3284 -1.5205
  359MOL0     H48422   3.771   5.583  11.189 -2.7399 -1.2801  0.2723
  359MOL0     H48423   3.502   5.703  11.225 -1.4818 -0.5634  1.4118
  359MOL0     H48424   3.591   5.672  11.371  1.2325  1.3070 -0.6493
  359MOL0     H48425   3.459   5.361  11.430  1.7114 -1.2184 -1.5384
  359MOL0     H48426   3.317   5.195  11.509 -0.6015  0.1145  0.7924
  359MOL0     H48427   3.216   5.305  11.581 -0.2177  2.1201 -0.9203
  359MOL0     H48428   3.145   5.175  11.468  1.2718 -1.7782  2.7969
  359MOL0     H48429   2.737   5.558  11.374 -1.1821 -0.0431  1.1646
  359MOL0     H48430   2.502   5.529  11.342  0.8227 -1.3860  1.2025
  359MOL0     H48431   2.285   5.397  11.297 -0.9206 -2.1000 -2.1371
  359MOL0     H48432   2.293   5.565  11.238 -0.2461  0.3925 -1.0278
  359MOL0     H48433   2.079   5.503  11.216 -1.2769 -1.9847  0.6553
  359MOL0     H48434   2.147   5.496  11.053 -0.0234  2.2879  1.1110
  359MOL0     H48435   2.119   5.232  11.216  1.8582  0.4880 -0.0518
  359MOL0     H48436   2.149   5.244  11.048  0.1292  1.9697 -0.2781
  359MOL0     H48437   1.902   5.314  11.201  0.3128 -4.1299  0.7037
  359MOL0     H48438   1.921   5.376  11.032 -2.2482 -0.2070 -0.2707
  359MOL0     H48439   1.911   5.096  11.137  0.7723 -0.3963 -0.6756
  359MOL0     H48440   1.940   5.116  10.967  0.3975 -2.9209  1.9705
  359MOL0     H48441   1.709   5.176  11.134  2.7781 -0.4732 -0.2397
  359MOL0     H48442   1.715   5.270  10.983 -0.2187  0.7463  0.1729
  359MOL0     H48443   1.757   4.970  10.955  1.0163  0.2045 -2.3571
  359MOL0     H48444   1.706   5.079  10.830  0.2753 -0.3080  0.3864
  359MOL0     H48445   1.487   5.125  10.946  0.1353  0.5928 -0.3756
  359MOL0     H48446   1.521   5.006  11.058 -2.7028  2.4061  0.0663
  359MOL0     H48447   2.557   5.272  11.011 -1.2401  0.8200  0.1345
  359MOL0     H48448   2.812   5.302  11.028  0.4986  0.9897 -1.1063
  359MOL0     H48449   3.133   5.535  11.108 -0.0109  0.9205 -0.1155
  359MOL0     H48450   3.375   5.549  11.068 -1.8311 -1.6312 -1.0889
  359MOL0     H48451   4.737   6.408  10.332  0.0544  0.5495 -1.6482
  359MOL0     H48452   4.867   6.488  10.161  0.4083  0.1053  0.1741
  359MOL0     H48453   5.137   6.876  10.040 -2.2442 -0.9531  0.1071
  359MOL0     H48454   5.266   6.997   9.843 -1.0344  0.8206 -0.3034
  359MOL0     H48455   5.534   6.866   9.519 -0.7171  1.8624  1.0438
  359MOL0     H48456   5.462   6.710   9.574  0.8319  0.6475  3.6462
  359MOL0     H48457   5.363   6.912   9.379  0.1500 -0.5565 -0.3808
  359MOL0     H48458   5.246   6.793   9.446  1.0967 -1.8681 -0.6608
  359MOL0     H48459   5.397   6.617   9.361  0.9870 -0.2536 -2.4817
  359MOL0     H48460   5.485   6.734   9.274 -0.5190  0.4771 -1.2474
  359MOL0     H48461   5.310   6.809   9.158  1.4805 -0.4623  0.7526
  359MOL0     H48462   5.192   6.708   9.257  0.4538 -0.9115 -1.6235
  359MOL0     H48463   5.330   6.405   9.008 -0.6992 -1.2833  1.1224
  359MOL0     H48464   5.275   6.613   9.653  1.2683 -0.5206  0.6860
  359MOL0     H48465   5.182   6.508   9.827 -0.4668  0.5231 -1.3817
  360MOL0     O48466   3.297   7.767  10.961 -0.3655 -0.6505 -0.6268
  360MOL0     C48467   3.313   7.653  10.929 -0.2622  0.1675  0.6947
  360MOL0     O48468   3.223   7.550  10.936 -0.4228 -0.1201  0.5251
  360MOL0     C48469   3.085   7.558  10.963  0.5428  0.6194  0.0426
  360MOL0     C48470   3.022   7.429  10.972 -0.1997  0.3378  0.2166
  360MOL0     C48471   2.882   7.420  10.986  0.2292  0.0301 -0.2779
  360MOL0     C48472   2.798   7.533  11.003 -0.4701  0.0491 -0.6019
  360MOL0     O48473   2.659   7.514  11.022 -0.4009 -0.0506  0.7085
  360MOL0     C48474   2.580   7.626  11.070  0.0502  0.0030 -0.1617
  360MOL0     C48475   2.429   7.591  11.068 -0.4380  0.7862 -0.1352
  360MOL0     C48476   2.373   7.605  10.927 -0.1681  0.3901  0.5979
  360MOL0     C48477   2.228   7.549  10.908  0.0578 -0.0437 -0.7192
  360MOL0     C48478   2.225   7.485  10.769  0.0200 -0.0315 -0.3681
  360MOL0     C48479   2.093   7.419  10.733  0.4710 -0.3663 -0.8413
  360MOL0     C48480   1.975   7.509  10.774 -0.2048  0.0507  0.6234
  360MOL0     C48481   1.845   7.468  10.706  0.0070  0.2379 -0.0193
  360MOL0     N48482   1.843   7.465  10.552 -0.2863  0.5763  0.3688
  360MOL0     C48483   1.759   7.388  10.480 -0.5761  0.2387  0.0204
  360MOL0     C48484   1.779   7.432  10.355  1.0310 -0.0150 -0.3600
  360MOL0     C48485   1.700   7.394  10.230  0.2869  0.3789 -0.2206
  360MOL0     C48486   1.601   7.498  10.180  1.0947 -0.3643  0.8284
  360MOL0     C48487   1.492   7.526  10.281  0.1881  1.2156 -0.6345
  360MOL0     C48488   1.395   7.633  10.220 -0.0537  0.3681 -1.3518
  360MOL0     O48489   1.273   7.569  10.184 -0.8695 -0.7282 -0.4840
  360MOL0     C48490   1.152   7.640  10.177  0.3931 -1.1240  0.0389
  360MOL0     C48491   1.123   7.777  10.215 -0.3334  0.2721 -0.1953
  360MOL0     C48492   1.005   7.841  10.200 -0.3237 -0.9852  0.5480
  360MOL0     C48493   0.992   7.980  10.253 -0.1928 -0.3477  0.2350
  360MOL0     C48494   0.902   7.776  10.126  1.0521  0.2004 -0.2756
  360MOL0     C48495   0.773   7.840  10.084 -0.2003  0.2133 -0.3194
  360MOL0     O48496   0.727   7.810   9.956  0.2789  0.5752  0.5774
  360MOL0     C48497   0.599   7.848   9.929  0.6966 -1.0617 -0.0498
  360MOL0     C48498   0.522   7.757   9.862 -0.1727  0.4997  0.0339
  360MOL0     C48499   0.384   7.778   9.842 -0.8590  0.7194  0.7584
  360MOL0     C48500   0.328   7.899   9.892  0.3511 -0.4519  0.3029
  360MOL0     O48501   0.187   7.902   9.895 -0.2657  0.1312  0.0695
  360MOL0     C48502   0.106   7.978   9.983  0.6585 -0.2155 -0.7839
  360MOL0     C48503  -0.043   7.959   9.956 -0.1336 -0.4303 -0.2279
  360MOL0     C48504  -0.119   8.058  10.038  0.2714 -0.2318  1.2381
  360MOL0     C48505  -0.264   8.027  10.075 -0.5812  1.1051 -0.3878
  360MOL0     C48506  -0.362   8.018   9.955  0.3793  0.3598  0.4803
  360MOL0     C48507  -0.404   8.153   9.896 -0.0647 -0.1744 -0.7250
  360MOL0     C48508  -0.519   8.226   9.970  0.0599 -0.2399  0.0596
  360MOL0     C48509  -0.580   8.339   9.883 -0.4616  0.2407 -1.0348
  360MOL0    Cl48510  -0.665   8.280   9.736  0.1360 -0.4037 -0.0560
  360MOL0     C48511   0.408   7.994   9.940  0.4193 -0.0557  0.1973
  360MOL0     C48512   0.542   7.975   9.965 -0.1706 -0.0368 -1.0730
  360MOL0     O48513   0.709   7.896  10.181 -0.2564  0.1962  0.1535
  360MOL0     C48514   0.930   7.644  10.080  0.8711 -0.3761  1.0800
  360MOL0     C48515   1.052   7.577  10.112 -0.1822 -0.8282  0.4433
  360MOL0     N48516   1.879   7.528  10.345  0.9194  0.1197 -0.6148
  360MOL0     N48517   1.921   7.541  10.468  0.6125 -0.1374  0.3415
  360MOL0     C48518   2.860   7.658  10.996 -0.4413 -0.6606 -0.1091
  360MOL0     C48519   3.004   7.674  10.977  0.7955 -0.3098 -0.1405
  360MOL0     C48520   3.446   7.615  10.875 -0.1216  1.2271  0.1332
  360MOL0     C48521   3.544   7.709  10.855  0.0296  0.9288 -0.1907
  360MOL0     C48522   3.666   7.672  10.810 -0.9504 -0.1797  0.0274
  360MOL0     C48523   3.701   7.539  10.777  0.1098 -0.3315 -0.8053
  360MOL0     O48524   3.821   7.487  10.737  0.0276 -0.3725 -0.0980
  360MOL0     C48525   3.916   7.589  10.700  0.2980 -0.5111 -1.1720
  360MOL0     C48526   4.032   7.532  10.617  0.4064  0.5172 -0.0320
  360MOL0     C48527   4.146   7.641  10.616 -0.4485 -0.0256  0.2951
  360MOL0     C48528   4.264   7.590  10.532  0.5316  0.4466 -0.1970
  360MOL0     C48529   4.376   7.678  10.540  0.0674  0.6822 -0.1691
  360MOL0     C48530   4.465   7.753  10.533  0.1478 -0.5640 -0.6866
  360MOL0     C48531   3.603   7.449  10.794 -0.0470  0.1965 -0.3151
  360MOL0     C48532   3.469   7.484  10.832 -0.0079  0.2592  0.3120
  360MOL0     H48533   3.085   7.341  10.980  2.1164  1.8978  0.1033
  360MOL0     H48534   2.849   7.319  11.006 -0.6580  0.1844 -0.8939
  360MOL0     H48535   2.621   7.648  11.169 -1.1898 -2.4653  0.9867
  360MOL0     H48536   2.572   7.713  11.004 -3.7631 -1.2037 -1.5660
  360MOL0     H48537   2.397   7.497  11.115 -0.6133  1.0264  0.2326
  360MOL0     H48538   2.373   7.664  11.128 -3.6151 -1.8234  0.3769
  360MOL0     H48539   2.386   7.708  10.893  1.5620  0.7714  2.2316
  360MOL0     H48540   2.441   7.542  10.868 -1.7122 -0.3426 -0.4590
  360MOL0     H48541   2.214   7.469  10.981 -0.8337 -0.2382 -1.0886
  360MOL0     H48542   2.152   7.626  10.927  2.0593  1.5674  1.3068
  360MOL0     H48543   2.247   7.561  10.693  2.6343  0.4801  0.7777
  360MOL0     H48544   2.297   7.403  10.768 -0.2110 -0.2802  1.0177
  360MOL0     H48545   2.097   7.411  10.624 -0.8434  0.4397 -0.9626
  360MOL0     H48546   2.083   7.322  10.783  0.1651  1.7137  3.6523
  360MOL0     H48547   1.964   7.509  10.882 -1.6622  0.1019  0.4935
  360MOL0     H48548   2.002   7.609  10.740  2.2990 -1.1137 -1.0889
  360MOL0     H48549   1.764   7.537  10.733 -2.3712 -0.8494 -3.6894
  360MOL0     H48550   1.826   7.369  10.747  1.0867 -0.8780 -2.1005
  360MOL0     H48551   1.684   7.317  10.511  0.3827  0.5003  3.2615
  360MOL0     H48552   1.765   7.391  10.142  0.3709 -0.6020 -0.1289
  360MOL0     H48553   1.663   7.292  10.240 -0.2257  0.3663 -1.8525
  360MOL0     H48554   1.546   7.460  10.093  0.9526  2.0161 -0.2010
  360MOL0     H48555   1.647   7.594  10.156 -1.3951  0.8483  0.5997
  360MOL0     H48556   1.527   7.540  10.384  0.3957 -0.5895 -0.4260
  360MOL0     H48557   1.433   7.434  10.286  0.6885  0.9108 -0.2607
  360MOL0     H48558   1.440   7.686  10.136  1.9228  1.2050  0.1715
  360MOL0     H48559   1.387   7.703  10.304  1.3393 -1.6743  0.6022
  360MOL0     H48560   1.196   7.835  10.273 -2.6167  4.8622 -1.4217
  360MOL0     H48561   0.919   7.988  10.334 -2.0108  0.4801 -1.3865
  360MOL0     H48562   1.089   8.001  10.299 -1.0604 -0.3909  2.1846
  360MOL0     H48563   0.980   8.057  10.176  1.7790 -0.0505  0.1712
  360MOL0     H48564   0.564   7.661   9.836 -0.4087  0.8419 -1.8142
  360MOL0     H48565   0.315   7.703   9.802  0.0785  1.8154 -3.3866
  360MOL0     H48566   0.113   7.945  10.087 -3.4491 -2.4216 -0.9950
  360MOL0     H48567   0.127   8.086   9.982 -1.3714  0.2649  1.1496
  360MOL0     H48568  -0.079   7.965   9.853 -2.6024  0.8725  0.6422
  360MOL0     H48569  -0.073   7.861   9.996 -1.1869  0.7127  1.9982
  360MOL0     H48570  -0.114   8.155   9.987  2.3006 -0.4190  0.9888
  360MOL0     H48571  -0.065   8.066  10.133  2.1287  1.4436  0.1364
  360MOL0     H48572  -0.269   7.932  10.128 -1.0966  0.3574 -1.7223
  360MOL0     H48573  -0.304   8.102  10.143 -0.6558  0.6491  0.0732
  360MOL0     H48574  -0.451   7.963   9.988  0.4843  0.3139  0.6855
  360MOL0     H48575  -0.312   7.959   9.877 -4.3732 -2.1404 -1.0922
  360MOL0     H48576  -0.311   8.212   9.902 -0.4472  0.3092  1.6986
  360MOL0     H48577  -0.429   8.141   9.791 -0.5340  1.8505 -0.8777
  360MOL0     H48578  -0.491   8.270  10.066  0.2347  2.7901 -1.2547
  360MOL0     H48579  -0.606   8.162   9.990 -0.4854 -0.1980 -1.9311
  360MOL0     H48580  -0.499   8.404   9.849  0.2643  0.6247  1.2741
  360MOL0     H48581  -0.653   8.395   9.942 -0.5051 -0.5899 -0.2672
  360MOL0     H48582   0.366   8.089   9.973 -1.5406 -1.3949  1.8577
  360MOL0     H48583   0.600   8.048  10.020 -0.8025 -1.6753  1.9709
  360MOL0     H48584   0.868   7.586  10.012  1.6841 -0.2887  0.2412
  360MOL0     H48585   1.075   7.480  10.069  1.3090 -0.7064  0.8971
  360MOL0     H48586   2.795   7.744  11.006  2.2605  1.5207  0.0958
  360MOL0     H48587   3.052   7.772  10.973  0.2085  0.2648  3.4713
  360MOL0     H48588   3.541   7.815  10.879  0.5003  0.9692 -0.3079
  360MOL0     H48589   3.745   7.742  10.786 -0.8729 -0.4281 -0.4564
  360MOL0     H48590   3.870   7.663  10.635  0.6914  1.5612  0.7820
  360MOL0     H48591   3.960   7.643  10.785  2.0074 -1.0246 -1.6873
  360MOL0     H48592   4.001   7.492  10.520 -1.8843 -2.1407  1.6562
  360MOL0     H48593   4.070   7.444  10.669  0.3826 -1.2417 -2.7741
  360MOL0     H48594   4.169   7.663  10.720 -0.0575  0.2917  0.1451
  360MOL0     H48595   4.109   7.738  10.582 -0.2606  0.3492  1.1320
  360MOL0     H48596   4.239   7.584  10.425 -3.2907  1.1219  0.5322
  360MOL0     H48597   4.297   7.488  10.557 -1.4411 -0.1606  0.1168
  360MOL0     H48598   4.547   7.822  10.533 -1.1271  0.9914 -0.3853
  360MOL0     H48599   3.630   7.345  10.778  2.6837  1.2636 -4.0962
  360MOL0     H48600   3.382   7.419  10.835 -0.7051  1.1866  0.7338
  361MOL0     O48601   8.582   2.750   3.585  0.2277  0.4869 -0.6822
  361MOL0     C48602   8.625   2.686   3.490  0.3754 -0.2503 -0.1148
  361MOL0     O48603   8.553   2.616   3.388 -0.1794  0.3847  0.2974
  361MOL0     C48604   8.414   2.610   3.380  0.6011 -1.2064  0.4457
  361MOL0     C48605   8.326   2.614   3.494 -0.9976 -0.2228  0.5628
  361MOL0     C48606   8.183   2.609   3.484  0.2560 -0.4446  0.2833
  361MOL0     C48607   8.126   2.604   3.356  1.5461  0.3539 -0.4176
  361MOL0     O48608   7.988   2.585   3.344  0.6295 -0.4248  0.5595
  361MOL0     C48609   7.931   2.479   3.430  0.2761  0.6746 -0.4781
  361MOL0     C48610   7.815   2.415   3.341  0.3066  0.8953  0.2567
  361MOL0     C48611   7.863   2.320   3.224  0.6021  0.2788 -0.0975
  361MOL0     C48612   7.907   2.187   3.293 -0.1252 -0.2407  0.0300
  361MOL0     C48613   7.957   2.087   3.194  0.4982  0.0551  0.0940
  361MOL0     C48614   7.988   1.960   3.287  0.0375 -0.1882  0.7628
  361MOL0     C48615   8.038   1.838   3.218 -0.5390  0.7494 -0.6073
  361MOL0     C48616   8.095   1.730   3.318 -0.4428  0.0067  0.3502
  361MOL0     N48617   8.007   1.692   3.427 -1.1041 -0.0265  0.0105
  361MOL0     C48618   7.903   1.601   3.418  0.0677 -0.2672 -0.1293
  361MOL0     C48619   7.871   1.570   3.548 -0.3533  0.3193  0.1093
  361MOL0     C48620   7.751   1.484   3.588 -0.1648 -1.2917  0.0269
  361MOL0     C48621   7.669   1.563   3.688  0.2207  0.6457  0.4681
  361MOL0     C48622   7.536   1.491   3.727  0.6292 -0.7085  0.8471
  361MOL0     C48623   7.448   1.591   3.805 -0.2443 -0.4868 -0.1754
  361MOL0     O48624   7.326   1.517   3.843 -0.4194  0.0986 -0.3909
  361MOL0     C48625   7.206   1.580   3.822 -1.0231 -1.1093 -0.1132
  361MOL0     C48626   7.181   1.713   3.792  0.9218  0.0433  0.0723
  361MOL0     C48627   7.054   1.752   3.757  0.0706  0.0021 -1.5315
  361MOL0     C48628   7.042   1.899   3.727  0.3140  0.6781 -0.0819
  361MOL0     C48629   6.949   1.658   3.774  0.1601 -0.3209  0.1892
  361MOL0     C48630   6.807   1.690   3.762 -0.3335 -1.3596  0.3797
  361MOL0     O48631   6.734   1.588   3.730  0.6954 -0.8352  0.0316
  361MOL0     C48632   6.604   1.618   3.700  0.7519 -0.6172  0.4510
  361MOL0     C48633   6.557   1.570   3.579  0.5828 -0.1429  1.0621
  361MOL0     C48634   6.421   1.568   3.551  0.2435 -0.9615 -0.2351
  361MOL0     C48635   6.328   1.627   3.640 -0.0143 -0.4338 -0.0349
  361MOL0     O48636   6.192   1.631   3.637 -0.2345 -0.1534 -0.4916
  361MOL0     C48637   6.137   1.502   3.661  0.0784 -0.5712  0.4440
  361MOL0     C48638   6.011   1.504   3.743 -0.2693  0.9075  0.2041
  361MOL0     C48639   5.888   1.560   3.668  0.6493 -0.6348 -0.3625
  361MOL0     C48640   5.765   1.483   3.710  1.5434  0.8299  0.5000
  361MOL0     C48641   5.629   1.503   3.638  0.3136  0.1045  0.6757
  361MOL0     C48642   5.590   1.656   3.675 -0.5869  0.3985  0.5672
  361MOL0     C48643   5.572   1.699   3.822 -0.1017 -0.1373  0.3494
  361MOL0     C48644   5.440   1.640   3.876 -0.0456 -0.6938 -0.0338
  361MOL0    Cl48645   5.301   1.739   3.827  0.7966  0.7288 -0.3627
  361MOL0     C48646   6.379   1.682   3.760 -0.7562  0.1182 -0.3070
  361MOL0     C48647   6.518   1.674   3.787  0.4421  0.1925  0.2538
  361MOL0     O48648   6.766   1.809   3.776 -0.3702  0.3609  0.2579
  361MOL0     C48649   6.975   1.525   3.805  0.4718  0.4659 -0.7820
  361MOL0     C48650   7.105   1.488   3.818  0.0543  0.2690 -0.4768
  361MOL0     N48651   7.962   1.641   3.632 -0.8747 -0.0088 -0.1890
  361MOL0     N48652   8.039   1.717   3.554  0.8332  0.2064 -0.9069
  361MOL0     C48653   8.212   2.606   3.241  0.6448  0.0655  0.1378
  361MOL0     C48654   8.348   2.607   3.253 -0.9830 -0.9023 -0.1875
  361MOL0     C48655   8.771   2.683   3.475 -0.6202 -0.5168  0.4854
  361MOL0     C48656   8.831   2.587   3.392  0.3316 -0.1290 -0.5848
  361MOL0     C48657   8.970   2.593   3.373  0.6145  0.7829 -0.1159
  361MOL0     C48658   9.055   2.672   3.446 -0.2436 -0.2510 -0.4119
  361MOL0     O48659   9.191   2.649   3.434  0.7178 -0.3431  0.5418
  361MOL0     C48660   9.252   2.598   3.548  0.2642 -0.6660  0.9242
  361MOL0     C48661   9.406   2.615   3.550 -0.0107 -0.6165  0.2411
  361MOL0     C48662   9.458   2.766   3.521  0.3268  0.1835 -0.0965
  361MOL0     C48663   9.605   2.782   3.512  0.1977 -0.0829 -0.3881
  361MOL0     C48664   9.679   2.736   3.629 -0.0922 -0.9214  0.2358
  361MOL0     C48665   9.733   2.698   3.736 -0.1529 -0.2226  0.3786
  361MOL0     C48666   8.995   2.768   3.533  0.7239 -0.7868  0.3474
  361MOL0     C48667   8.852   2.771   3.550 -0.1233 -0.1694  0.3103
  361MOL0     H48668   8.367   2.630   3.594 -1.2650  0.6163  0.5458
  361MOL0     H48669   8.129   2.600   3.578 -2.7885  2.6450 -0.9214
  361MOL0     H48670   8.006   2.402   3.447  2.0242  2.4031  0.0428
  361MOL0     H48671   7.896   2.533   3.518 -1.9876  1.2087 -1.6378
  361MOL0     H48672   7.746   2.364   3.410  0.1959  1.3338  0.4773
  361MOL0     H48673   7.760   2.499   3.299  0.4182  0.7159 -0.2494
  361MOL0     H48674   7.782   2.297   3.153 -0.1269 -3.2501  1.6506
  361MOL0     H48675   7.945   2.360   3.164 -1.0308  2.0997 -1.2399
  361MOL0     H48676   7.986   2.205   3.367  0.4192  2.1261 -1.0325
  361MOL0     H48677   7.828   2.142   3.355  0.7137  0.3543  1.5946
  361MOL0     H48678   7.881   2.069   3.117 -1.0324  3.2413  0.7071
  361MOL0     H48679   8.048   2.122   3.144 -0.3987  0.5699 -1.2361
  361MOL0     H48680   8.058   1.988   3.366  0.1819  3.3798 -0.4523
  361MOL0     H48681   7.895   1.927   3.334 -1.3161  1.4845 -0.5992
  361MOL0     H48682   7.963   1.787   3.156  1.1739 -1.2501 -1.1786
  361MOL0     H48683   8.114   1.856   3.142 -0.1280  0.6965 -0.2112
  361MOL0     H48684   8.190   1.767   3.357 -0.6832 -0.3240  1.2976
  361MOL0     H48685   8.127   1.637   3.270  3.2864  0.6085  1.3672
  361MOL0     H48686   7.869   1.563   3.323  2.0259  1.4886 -1.6194
  361MOL0     H48687   7.688   1.463   3.501  1.3379 -0.6735 -1.2453
  361MOL0     H48688   7.796   1.389   3.619  1.9271 -0.4463 -0.2457
  361MOL0     H48689   7.650   1.653   3.630  0.8654 -0.1838 -1.0764
  361MOL0     H48690   7.728   1.587   3.777  0.7040  0.4337  0.2028
  361MOL0     H48691   7.555   1.395   3.776  3.2782 -0.4610  0.4633
  361MOL0     H48692   7.485   1.468   3.633  3.0436 -0.1572 -0.6970
  361MOL0     H48693   7.435   1.685   3.750 -0.5069 -0.6126 -0.3286
  361MOL0     H48694   7.502   1.609   3.898 -0.7944 -4.4041  1.0878
  361MOL0     H48695   7.266   1.779   3.796  0.8334  0.1382  3.4770
  361MOL0     H48696   7.059   1.966   3.812  0.3777  0.7940 -0.1843
  361MOL0     H48697   7.121   1.925   3.656  0.1715 -0.2975 -0.6038
  361MOL0     H48698   6.950   1.923   3.672  0.0885  0.6254  0.2663
  361MOL0     H48699   6.632   1.530   3.512  0.1682  0.4815  0.2042
  361MOL0     H48700   6.395   1.518   3.458  0.1620  1.0020 -1.3229
  361MOL0     H48701   6.116   1.451   3.567  0.9386 -0.5020  0.2085
  361MOL0     H48702   6.210   1.438   3.712  2.2674  1.5590  0.1374
  361MOL0     H48703   5.991   1.398   3.766 -0.9016  0.8556 -0.5586
  361MOL0     H48704   6.028   1.554   3.839  0.6457  1.4918 -0.2453
  361MOL0     H48705   5.902   1.566   3.560  0.2970 -0.1542 -0.3848
  361MOL0     H48706   5.885   1.661   3.710 -1.6178 -0.9043  0.2118
  361MOL0     H48707   5.792   1.377   3.703  1.2202  0.7671  0.1662
  361MOL0     H48708   5.761   1.502   3.818  3.0669  2.7849  0.2536
  361MOL0     H48709   5.556   1.441   3.690  0.2685 -1.3624 -1.0416
  361MOL0     H48710   5.646   1.479   3.532  2.3937 -2.2011  1.4507
  361MOL0     H48711   5.673   1.708   3.626  0.8133 -0.3345  2.0909
  361MOL0     H48712   5.497   1.685   3.624 -0.8442  0.0338  0.8206
  361MOL0     H48713   5.573   1.808   3.834  4.2582 -0.3351  4.2831
  361MOL0     H48714   5.655   1.669   3.886 -0.7742 -0.4888  1.0817
  361MOL0     H48715   5.437   1.657   3.984 -0.6108  3.7607 -0.5286
  361MOL0     H48716   5.415   1.539   3.844 -2.3383 -0.1814 -0.0495
  361MOL0     H48717   6.311   1.706   3.842  0.1476  0.2994  0.3996
  361MOL0     H48718   6.545   1.700   3.889 -2.2851 -1.6216  1.5588
  361MOL0     H48719   6.899   1.450   3.823 -0.0998  1.5512  1.8807
  361MOL0     H48720   7.120   1.382   3.829 -2.1606 -0.5442 -3.7172
  361MOL0     H48721   8.155   2.602   3.149  2.2501 -0.0589 -0.8973
  361MOL0     H48722   8.419   2.618   3.172  0.6495  4.6702  1.4936
  361MOL0     H48723   8.769   2.523   3.330  0.3197  1.9640 -2.8841
  361MOL0     H48724   9.020   2.528   3.301 -4.9748 -1.1626 -2.8587
  361MOL0     H48725   9.220   2.651   3.638  1.7753 -0.8077  1.5703
  361MOL0     H48726   9.237   2.490   3.553  0.1618 -0.6640  0.7079
  361MOL0     H48727   9.458   2.561   3.470  2.4860  3.6090 -1.3255
  361MOL0     H48728   9.435   2.588   3.652 -0.6810 -2.5916 -0.0479
  361MOL0     H48729   9.406   2.832   3.592  2.1863 -1.0513  2.5704
  361MOL0     H48730   9.421   2.804   3.426 -0.4437  0.8946  0.4640
  361MOL0     H48731   9.635   2.886   3.493 -0.3191  0.3187  0.8864
  361MOL0     H48732   9.631   2.724   3.423 -0.2047 -1.1807  0.1937
  361MOL0     H48733   9.771   2.665   3.830 -0.0220 -1.2650 -0.0210
  361MOL0     H48734   9.055   2.820   3.607 -0.9392 -0.7833  1.7510
  361MOL0     H48735   8.824   2.833   3.635  1.0111 -0.1755  0.7033
  362MOL0     O48736   4.524   2.576   4.502 -0.6618  0.7540 -1.0198
  362MOL0     C48737   4.580   2.609   4.401 -0.2905 -1.2250  0.6822
  362MOL0     O48738   4.508   2.678   4.301 -0.1100  0.5004  0.5883
  362MOL0     C48739   4.372   2.689   4.311 -0.1939  0.1055 -0.5146
  362MOL0     C48740   4.321   2.813   4.358  0.6912 -0.1371 -0.2652
  362MOL0     C48741   4.184   2.840   4.363 -0.4346  1.0290  0.0928
  362MOL0     C48742   4.096   2.739   4.313 -0.5204  0.3127  0.1873
  362MOL0     O48743   3.963   2.757   4.330  0.0796  0.4504  0.1441
  362MOL0     C48744   3.913   2.695   4.449  0.2515  0.2284  0.5001
  362MOL0     C48745   3.763   2.684   4.435  0.1953 -0.0483 -0.2960
  362MOL0     C48746   3.691   2.610   4.549 -0.5779  0.3544  1.1111
  362MOL0     C48747   3.555   2.551   4.499 -0.6188  0.1867 -0.3074
  362MOL0     C48748   3.584   2.412   4.435  0.4331 -0.2428  0.3751
  362MOL0     C48749   3.459   2.347   4.372 -0.2562  0.4755 -0.5819
  362MOL0     C48750   3.488   2.196   4.348  0.4829  0.7191 -0.4692
  362MOL0     C48751   3.600   2.170   4.252 -0.2870  0.1706 -0.4350
  362MOL0     N48752   3.620   2.033   4.226 -0.3706 -0.6298  0.1714
  362MOL0     C48753   3.593   1.969   4.103  0.1962 -0.0857 -0.6076
  362MOL0     C48754   3.629   1.839   4.131  0.5347  0.9443  0.4245
  362MOL0     C48755   3.624   1.718   4.044  0.4541  0.5979  0.5040
  362MOL0     C48756   3.502   1.623   4.067 -0.7904  0.3098  0.1963
  362MOL0     C48757   3.393   1.613   3.954 -0.2881 -0.0710  0.4583
  362MOL0     C48758   3.445   1.511   3.846  0.8658 -0.0124 -0.0887
  362MOL0     O48759   3.358   1.502   3.733 -0.5841 -0.3718 -0.4515
  362MOL0     C48760   3.410   1.458   3.614 -0.6673  0.3281  0.0407
  362MOL0     C48761   3.322   1.472   3.509 -0.3073  0.1610  0.7664
  362MOL0     C48762   3.353   1.419   3.380 -0.1308  0.1022 -0.3037
  362MOL0     C48763   3.266   1.455   3.266  0.7194  0.0154 -0.4416
  362MOL0     C48764   3.480   1.361   3.354  0.0274 -0.3562 -0.4129
  362MOL0     C48765   3.531   1.314   3.224  0.3371 -0.6129 -0.0841
  362MOL0     O48766   3.669   1.283   3.225 -0.6268 -1.2102 -0.1834
  362MOL0     C48767   3.745   1.235   3.124 -0.3804  0.5046  0.0780
  362MOL0     C48768   3.711   1.211   2.987 -0.3905 -0.2267 -0.0174
  362MOL0     C48769   3.808   1.163   2.897 -0.3610  0.6448 -0.0573
  362MOL0     C48770   3.937   1.133   2.945  0.5688 -0.6173 -0.0726
  362MOL0     O48771   4.042   1.082   2.871 -0.4250  0.0978 -0.0943
  362MOL0     C48772   4.014   1.062   2.733 -0.2018  0.6795  0.6152
  362MOL0     C48773   4.136   1.006   2.658  1.1581 -0.2631 -0.3014
  362MOL0     C48774   4.188   0.870   2.701  0.3321  0.1478 -0.3929
  362MOL0     C48775   4.327   0.855   2.650 -0.6201  0.2339 -0.1975
  362MOL0     C48776   4.365   0.709   2.647 -0.2653  0.5336  0.2648
  362MOL0     C48777   4.510   0.688   2.605 -0.6738  0.7500 -0.3981
  362MOL0     C48778   4.547   0.545   2.583 -0.1463  0.0838  0.4638
  362MOL0     C48779   4.675   0.527   2.506  0.4505  0.1963 -0.0245
  362MOL0    Cl48780   4.811   0.584   2.613 -0.1692  0.0625 -0.2401
  362MOL0     C48781   3.971   1.161   3.080  0.0289  0.1569  0.7524
  362MOL0     C48782   3.881   1.213   3.170  0.2898  0.0250 -0.5687
  362MOL0     O48783   3.453   1.271   3.139  0.5020 -0.3680 -0.1294
  362MOL0     C48784   3.567   1.354   3.466  0.3605  0.3999 -0.5124
  362MOL0     C48785   3.531   1.390   3.595  0.4002  0.1830 -0.3581
  362MOL0     N48786   3.680   1.831   4.259  0.1553 -0.7514  0.3344
  362MOL0     N48787   3.691   1.951   4.304  0.5611  0.0085  0.4741
  362MOL0     C48788   4.140   2.614   4.273 -1.6162  0.9549  0.7865
  362MOL0     C48789   4.283   2.591   4.264  0.5133 -0.4883 -0.2908
  362MOL0     C48790   4.730   2.614   4.390  1.5848  0.2153 -0.2143
  362MOL0     C48791   4.802   2.553   4.494 -0.1967 -0.0926  0.2070
  362MOL0     C48792   4.943   2.577   4.496  0.2850 -0.4175  0.7455
  362MOL0     C48793   5.015   2.642   4.397 -0.3410  0.5283  0.0658
  362MOL0     O48794   5.149   2.642   4.401  0.1386 -0.0862 -0.1095
  362MOL0     C48795   5.236   2.636   4.290 -0.9255 -0.2164  0.0094
  362MOL0     C48796   5.285   2.499   4.258 -0.0976  0.4100  0.0412
  362MOL0     C48797   5.182   2.402   4.200  0.7377 -0.7565  0.8556
  362MOL0     C48798   5.142   2.445   4.052  0.1325 -0.9112  0.2854
  362MOL0     C48799   5.260   2.394   3.962  1.0342  0.4784  0.5302
  362MOL0     C48800   5.355   2.351   3.898  0.0422 -0.6138  0.6192
  362MOL0     C48801   4.933   2.694   4.291 -0.5938  0.1291 -0.3167
  362MOL0     C48802   4.792   2.684   4.291 -0.1272 -0.1411 -0.4346
  362MOL0     H48803   4.394   2.882   4.398  2.1794 -3.1438  2.7162
  362MOL0     H48804   4.156   2.933   4.410  2.1278  2.3473 -0.8139
  362MOL0     H48805   3.951   2.593   4.455  0.0628  0.0771 -0.6028
  362MOL0     H48806   3.943   2.745   4.541  0.0735 -0.4392  0.9253
  362MOL0     H48807   3.737   2.790   4.427  1.0459  0.3416  1.5234
  362MOL0     H48808   3.735   2.631   4.343 -3.1744  0.1385  0.4956
  362MOL0     H48809   3.750   2.528   4.589 -1.1687 -0.3678  0.5312
  362MOL0     H48810   3.687   2.675   4.637 -0.6113  1.5788  0.2313
  362MOL0     H48811   3.493   2.532   4.587 -1.6250  1.1840 -0.7655
  362MOL0     H48812   3.499   2.618   4.433 -2.7706 -1.2602 -0.0480
  362MOL0     H48813   3.651   2.437   4.352 -2.2083  4.3722 -0.7143
  362MOL0     H48814   3.634   2.338   4.499  0.3367 -1.1287 -0.5628
  362MOL0     H48815   3.379   2.355   4.446 -0.6571 -2.3266 -0.6048
  362MOL0     H48816   3.422   2.395   4.280 -3.9003  2.3118  1.5907
  362MOL0     H48817   3.519   2.150   4.442 -1.3505 -0.4865 -0.4197
  362MOL0     H48818   3.395   2.145   4.322  0.1325  0.7061  0.7365
  362MOL0     H48819   3.696   2.204   4.291  1.3704  0.1112 -4.0841
  362MOL0     H48820   3.586   2.214   4.153  2.3990 -2.5625 -2.1916
  362MOL0     H48821   3.559   2.014   4.010  2.5837  2.4965 -0.3671
  362MOL0     H48822   3.634   1.741   3.938 -0.3013 -1.2603 -0.0109
  362MOL0     H48823   3.714   1.662   4.069 -0.5711 -1.2269  0.3269
  362MOL0     H48824   3.469   1.631   4.171  1.6851 -0.8043  1.1675
  362MOL0     H48825   3.543   1.522   4.056  1.8436  1.1784  1.1660
  362MOL0     H48826   3.374   1.709   3.906 -1.0867 -1.6342 -2.6275
  362MOL0     H48827   3.297   1.589   4.002 -0.4751  2.2574  1.3670
  362MOL0     H48828   3.457   1.413   3.892 -2.7850 -1.4944 -1.8894
  362MOL0     H48829   3.542   1.548   3.809  0.9015  0.2319  0.2429
  362MOL0     H48830   3.223   1.516   3.516 -0.4707 -0.4643  3.7786
  362MOL0     H48831   3.172   1.492   3.307  1.0851  0.8111 -0.3062
  362MOL0     H48832   3.315   1.537   3.213  1.9288 -1.3027 -1.4272
  362MOL0     H48833   3.240   1.365   3.210 -1.9499  0.0051  0.6851
  362MOL0     H48834   3.606   1.226   2.965 -0.1656 -0.7062 -1.5585
  362MOL0     H48835   3.786   1.148   2.792 -0.8873 -0.6317  0.2217
  362MOL0     H48836   3.931   0.991   2.728 -0.3565  0.8895  0.0986
  362MOL0     H48837   3.968   1.152   2.691  2.2758  1.0393 -1.5787
  362MOL0     H48838   4.119   1.005   2.550 -2.5591  1.6888  0.0857
  362MOL0     H48839   4.223   1.072   2.660  2.4029 -1.8125 -0.9550
  362MOL0     H48840   4.129   0.793   2.651  0.0020  0.4057 -0.4026
  362MOL0     H48841   4.179   0.845   2.807 -1.7169 -1.2200 -0.8346
  362MOL0     H48842   4.346   0.904   2.553 -1.2840  0.9215  0.0097
  362MOL0     H48843   4.390   0.911   2.719 -1.7384  2.0468 -0.5799
  362MOL0     H48844   4.298   0.667   2.571  0.6432  2.3378 -1.6318
  362MOL0     H48845   4.342   0.662   2.743  1.3156  0.9916  0.8991
  362MOL0     H48846   4.529   0.739   2.510  1.4351  0.8480  0.0339
  362MOL0     H48847   4.579   0.721   2.683 -0.8729 -2.2121  1.1566
  362MOL0     H48848   4.469   0.504   2.517  0.2584  1.8578 -1.2072
  362MOL0     H48849   4.549   0.487   2.676  1.9740 -1.4946 -0.4807
  362MOL0     H48850   4.683   0.595   2.421 -0.5983  0.7570  0.3044
  362MOL0     H48851   4.695   0.422   2.481 -0.7334  0.3848 -2.0580
  362MOL0     H48852   4.072   1.142   3.113  0.9272  2.4147 -0.4167
  362MOL0     H48853   3.908   1.238   3.272  2.5318 -0.7023 -0.9297
  362MOL0     H48854   3.661   1.302   3.455 -0.7926 -1.7971 -0.7193
  362MOL0     H48855   3.590   1.370   3.684  0.0822 -0.9127 -0.3709
  362MOL0     H48856   4.071   2.534   4.250  0.8262 -1.4196  1.2021
  362MOL0     H48857   4.335   2.503   4.228  4.9740  2.1833 -1.1170
  362MOL0     H48858   4.755   2.507   4.581  0.0966  0.0763  0.4602
  362MOL0     H48859   4.990   2.537   4.585 -1.6795  0.3249  2.1986
  362MOL0     H48860   5.199   2.683   4.199  0.5824 -0.9947 -1.0607
  362MOL0     H48861   5.324   2.693   4.321 -0.5893  0.1826 -1.5685
  362MOL0     H48862   5.312   2.466   4.359 -1.6851 -2.6070 -0.3824
  362MOL0     H48863   5.380   2.496   4.204  0.9880 -2.6179  1.8623
  362MOL0     H48864   5.102   2.401   4.275  2.5523  1.3777  2.9738
  362MOL0     H48865   5.223   2.300   4.203 -1.6817 -1.7874  1.7064
  362MOL0     H48866   5.114   2.551   4.049  1.6811 -0.4766  0.6378
  362MOL0     H48867   5.057   2.388   4.014  0.8333 -0.6379 -1.8372
  362MOL0     H48868   5.423   2.335   3.817  0.3860 -2.5326  1.2465
  362MOL0     H48869   4.980   2.753   4.213 -0.2312 -0.7418 -0.7635
  362MOL0     H48870   4.742   2.742   4.214  0.4957  1.1867  0.1339
  363MOL0     O48871   9.440  11.200   3.230 -0.3408 -0.3071 -0.0772
  363MOL0     C48872   9.418  11.275   3.130 -0.2112  0.2456  0.6164
  363MOL0     O48873   9.508  11.332   3.052  0.7207  0.0304  0.9181
  363MOL0     C48874   9.642  11.289   3.065  0.3838 -0.9762 -0.0638
  363MOL0     C48875   9.709  11.223   2.959  0.4450  0.0314 -0.6052
  363MOL0     C48876   9.842  11.183   2.985 -0.5483 -0.3629 -0.3046
  363MOL0     C48877   9.904  11.199   3.107 -1.8495 -0.1275 -0.2559
  363MOL0     O48878  10.027  11.135   3.124 -0.0950  0.3277 -0.5531
  363MOL0     C48879  10.074  11.115   3.260  0.1323 -0.6423  0.6242
  363MOL0     C48880  10.201  11.026   3.269  0.3563  0.8571  0.3246
  363MOL0     C48881  10.329  11.091   3.234 -0.7458 -0.3724 -0.5095
  363MOL0     C48882  10.449  11.049   3.319 -0.2288 -0.1021 -0.6081
  363MOL0     C48883  10.582  11.124   3.288 -0.3997 -0.7798  0.8618
  363MOL0     C48884  10.699  11.028   3.281  0.9397  0.5699 -0.3181
  363MOL0     C48885  10.836  11.094   3.266  0.1651  0.1644  0.8946
  363MOL0     C48886  10.942  10.981   3.251 -1.0183  0.0412  0.1165
  363MOL0     N48887  10.964  10.893   3.371 -0.3167 -0.2887  0.8839
  363MOL0     C48888  10.967  10.921   3.503  0.6155 -0.8788  0.6956
  363MOL0     C48889  10.963  10.800   3.564  0.1145 -0.8987 -0.1993
  363MOL0     C48890  10.958  10.778   3.709 -0.3854  0.2928 -0.6046
  363MOL0     C48891  10.835  10.848   3.771 -0.6708  0.2469  0.5825
  363MOL0     C48892  10.697  10.796   3.726 -1.1025  0.4551  0.0406
  363MOL0     C48893  10.577  10.832   3.812 -0.0908  0.9964  0.3441
  363MOL0     O48894  10.450  10.796   3.753  0.2671  0.7245 -0.1999
  363MOL0     C48895  10.336  10.809   3.832  0.4748 -0.0460 -0.7393
  363MOL0     C48896  10.264  10.931   3.832  0.6027  1.0532  0.2233
  363MOL0     C48897  10.140  10.946   3.890  0.1325 -0.2945  0.3793
  363MOL0     C48898  10.085  11.091   3.876  0.0301  0.2434 -0.5762
  363MOL0     C48899  10.082  10.837   3.964 -0.8612  0.3694 -0.8182
  363MOL0     C48900   9.940  10.846   4.022  0.0022 -0.5823  0.1718
  363MOL0     O48901   9.905  10.749   4.118 -0.1198 -0.4664  0.1459
  363MOL0     C48902   9.776  10.740   4.153 -0.2457  0.4285 -0.3190
  363MOL0     C48903   9.695  10.845   4.193  0.1074  0.0474  0.2982
  363MOL0     C48904   9.557  10.825   4.226 -0.7066 -0.1915 -0.5175
  363MOL0     C48905   9.502  10.694   4.236 -0.2509 -0.1740 -0.3917
  363MOL0     O48906   9.367  10.682   4.276 -0.3299 -0.0036  0.1985
  363MOL0     C48907   9.336  10.601   4.388  0.3763  0.5212  0.2793
  363MOL0     C48908   9.205  10.644   4.448 -0.1290  0.4919 -0.7311
  363MOL0     C48909   9.092  10.609   4.340  0.0958 -0.5847 -0.0512
  363MOL0     C48910   9.048  10.466   4.370  0.5099 -0.0279 -0.1834
  363MOL0     C48911   8.938  10.422   4.276 -0.3394 -0.1742 -0.5457
  363MOL0     C48912   8.810  10.509   4.307 -0.3777 -0.2708 -0.8962
  363MOL0     C48913   8.677  10.448   4.254 -0.1866  0.3327 -0.3570
  363MOL0     C48914   8.663  10.437   4.111 -0.7922 -0.0415  0.5657
  363MOL0    Cl48915   8.524  10.325   4.058  0.2521 -0.0340 -0.5162
  363MOL0     C48916   9.587  10.587   4.201  0.3444 -0.2670 -0.2381
  363MOL0     C48917   9.721  10.612   4.159  0.2689 -0.2132 -0.2864
  363MOL0     O48918   9.859  10.921   3.962 -0.1860  0.2115  0.0478
  363MOL0     C48919  10.159  10.715   3.977  0.3282  0.2843 -0.0315
  363MOL0     C48920  10.276  10.703   3.908 -0.0065  0.1748  0.2283
  363MOL0     N48921  10.966  10.699   3.471  0.2725 -0.0451  0.4905
  363MOL0     N48922  10.965  10.757   3.356 -0.6238 -0.2550 -0.1207
  363MOL0     C48923   9.840  11.272   3.205  0.5789 -0.2317 -0.7207
  363MOL0     C48924   9.707  11.321   3.181 -0.2686 -0.1684 -0.0219
  363MOL0     C48925   9.277  11.316   3.130 -0.1646  0.1858 -0.2904
  363MOL0     C48926   9.194  11.274   3.234  0.7474 -0.6052  0.6673
  363MOL0     C48927   9.065  11.325   3.260 -0.1381  0.3591 -0.1893
  363MOL0     C48928   9.015  11.432   3.179  0.6250  0.5675  0.6375
  363MOL0     O48929   8.893  11.482   3.185 -0.2848 -0.9774  0.6452
  363MOL0     C48930   8.799  11.416   3.264 -0.0283  0.3243 -0.3850
  363MOL0     C48931   8.692  11.519   3.291  0.6513  0.1659 -0.0002
  363MOL0     C48932   8.588  11.525   3.182  0.5497 -0.2085 -0.7087
  363MOL0     C48933   8.505  11.656   3.186  0.3721  0.5742  0.0714
  363MOL0     C48934   8.401  11.642   3.079  0.2181 -0.1301 -0.0506
  363MOL0     C48935   8.319  11.631   2.988  0.3812 -1.2393  0.7871
  363MOL0     C48936   9.101  11.477   3.074  0.4470  0.4494 -0.3935
  363MOL0     C48937   9.230  11.425   3.049  0.3911  1.1045  0.9908
  363MOL0     H48938   9.658  11.204   2.865  1.1436  3.9080 -1.9503
  363MOL0     H48939   9.883  11.121   2.906 -1.3439 -2.6503  0.9828
  363MOL0     H48940  10.093  11.213   3.305 -0.6372 -0.1890 -0.0065
  363MOL0     H48941   9.990  11.066   3.310 -1.7301  2.0354  0.3679
  363MOL0     H48942  10.209  10.997   3.374 -1.1283  2.4074  0.9346
  363MOL0     H48943  10.181  10.941   3.204 -3.3067  1.3034  0.6717
  363MOL0     H48944  10.361  11.071   3.131  1.0558 -0.4442  0.0277
  363MOL0     H48945  10.321  11.200   3.232  0.8734 -0.2288 -2.1037
  363MOL0     H48946  10.414  11.073   3.420 -0.4342  1.0747 -0.9454
  363MOL0     H48947  10.447  10.941   3.300  0.4944  0.0731 -1.8327
  363MOL0     H48948  10.582  11.163   3.186  5.6037  0.7366  1.0695
  363MOL0     H48949  10.595  11.209   3.355 -2.9534  2.3168 -2.1711
  363MOL0     H48950  10.693  10.969   3.373 -3.1135  1.0853 -0.1017
  363MOL0     H48951  10.667  10.977   3.190  1.0680 -0.9625  0.4695
  363MOL0     H48952  10.829  11.160   3.179 -3.6802 -0.1993  0.7231
  363MOL0     H48953  10.853  11.149   3.359  2.1651  1.3482 -0.1070
  363MOL0     H48954  11.035  11.036   3.235 -0.6280  0.0116  1.9694
  363MOL0     H48955  10.916  10.930   3.158  1.8019 -1.0365 -0.1866
  363MOL0     H48956  10.959  11.013   3.559 -0.3185 -0.3400 -0.2887
  363MOL0     H48957  10.951  10.670   3.723 -2.5361  0.5149  0.4318
  363MOL0     H48958  11.045  10.819   3.762 -0.9031 -0.6046  1.0045
  363MOL0     H48959  10.840  10.953   3.740 -0.4392 -0.6770 -2.9943
  363MOL0     H48960  10.843  10.841   3.880 -1.2622  0.2462  0.6301
  363MOL0     H48961  10.705  10.688   3.713  0.2663  0.3184  1.6336
  363MOL0     H48962  10.678  10.842   3.628 -0.9222  0.8002  0.1665
  363MOL0     H48963  10.574  10.940   3.832 -0.1367  0.7283  1.9340
  363MOL0     H48964  10.592  10.781   3.908 -2.0012  0.1127  0.2209
  363MOL0     H48965  10.305  11.007   3.766 -0.6724 -0.3950 -2.4039
  363MOL0     H48966  10.018  11.095   3.790  2.7059 -1.7278 -2.9483
  363MOL0     H48967  10.028  11.130   3.961  0.2562  0.6919 -0.6311
  363MOL0     H48968  10.167  11.161   3.859  0.0669 -0.3055 -2.9537
  363MOL0     H48969   9.737  10.945   4.187  0.8227 -0.2538  0.2425
  363MOL0     H48970   9.498  10.914   4.244  1.0531  1.0430 -0.6022
  363MOL0     H48971   9.334  10.493   4.373  0.0249  0.7953 -2.1554
  363MOL0     H48972   9.421  10.624   4.453  1.7839 -0.7480 -1.0250
  363MOL0     H48973   9.198  10.590   4.542  0.9692 -0.1270 -0.9891
  363MOL0     H48974   9.214  10.752   4.462 -1.1522  1.0323 -3.5137
  363MOL0     H48975   9.138  10.614   4.240 -1.0350  0.8442 -0.5339
  363MOL0     H48976   9.006  10.676   4.345  1.1172  1.0665 -2.3107
  363MOL0     H48977   9.133  10.399   4.361  0.6627  0.3886 -2.1951
  363MOL0     H48978   9.018  10.453   4.475  1.0187  0.2226 -0.0022
  363MOL0     H48979   8.925  10.315   4.295 -0.4823 -0.0155  0.2890
  363MOL0     H48980   8.965  10.447   4.173  0.0417  2.5342  0.1230
  363MOL0     H48981   8.795  10.520   4.414  2.7800  1.7259 -0.5330
  363MOL0     H48982   8.812  10.613   4.273  1.5071  0.2322  0.6009
  363MOL0     H48983   8.589  10.506   4.281 -0.2279  0.3927 -0.6172
  363MOL0     H48984   8.681  10.346   4.294  1.2738  1.3723  2.3935
  363MOL0     H48985   8.759  10.415   4.064 -1.7088 -1.2288 -0.8499
  363MOL0     H48986   8.620  10.532   4.078 -2.3553 -0.9411 -0.1364
  363MOL0     H48987   9.560  10.482   4.213 -0.2258 -0.0908  0.0367
  363MOL0     H48988   9.793  10.531   4.154 -0.2058 -1.1214  3.7721
  363MOL0     H48989  10.114  10.631   4.028 -1.7472  0.9030 -0.7425
  363MOL0     H48990  10.327  10.607   3.908 -1.7485 -0.8020 -0.9417
  363MOL0     H48991   9.894  11.299   3.295 -0.1488  0.0547 -0.3630
  363MOL0     H48992   9.655  11.381   3.255  0.3610  0.4058 -0.0371
  363MOL0     H48993   9.235  11.209   3.311  3.9985  2.2692  1.5815
  363MOL0     H48994   9.008  11.283   3.343  2.4112 -2.0424  0.5314
  363MOL0     H48995   8.765  11.324   3.214  1.4908 -1.0478  0.9614
  363MOL0     H48996   8.835  11.390   3.364 -1.5641 -0.7469 -0.0784
  363MOL0     H48997   8.738  11.618   3.300  2.2425 -0.6324  1.0240
  363MOL0     H48998   8.640  11.498   3.385  0.7716  0.1060  0.0524
  363MOL0     H48999   8.519  11.440   3.190  0.9805 -0.4599  0.5919
  363MOL0     H49000   8.638  11.525   3.085  0.2482  0.0932 -0.8689
  363MOL0     H49001   8.568  11.745   3.178  0.0635  0.8238  0.4040
  363MOL0     H49002   8.453  11.668   3.281 -1.3905  3.0637 -1.0813
  363MOL0     H49003   8.230  11.629   2.929  0.5088 -1.3958  0.5985
  363MOL0     H49004   9.078  11.563   3.013 -0.4238 -0.3746 -1.2414
  363MOL0     H49005   9.299  11.465   2.975 -0.2911  0.4539 -0.0211
  364MOL0     O49006   7.384   6.797   5.264 -0.3391 -0.3557  0.1216
  364MOL0     C49007   7.458   6.843   5.177 -0.2265 -0.3136 -1.1004
  364MOL0     O49008   7.420   6.908   5.058 -0.1710 -0.2304 -0.2571
  364MOL0     C49009   7.287   6.947   5.039 -0.2701  1.1342 -0.4603
  364MOL0     C49010   7.183   6.857   5.070  0.0677 -0.4816 -0.1427
  364MOL0     C49011   7.051   6.895   5.024  0.0788 -0.2075 -0.5682
  364MOL0     C49012   7.027   7.024   4.977  0.6035  0.8388 -0.0910
  364MOL0     O49013   6.906   7.076   4.929 -0.0222 -1.1410  0.5539
  364MOL0     C49014   6.786   7.011   4.975 -0.1614 -0.1829 -0.0815
  364MOL0     C49015   6.658   7.100   4.956  0.9190 -0.5340  0.0022
  364MOL0     C49016   6.674   7.240   5.022  0.3574  0.1704 -0.2904
  364MOL0     C49017   6.758   7.339   4.943 -0.1404 -0.4787 -0.0211
  364MOL0     C49018   6.761   7.479   4.999 -0.2869 -0.2065 -0.1189
  364MOL0     C49019   6.828   7.511   5.135  0.3071  0.1524 -0.7255
  364MOL0     C49020   6.953   7.432   5.160  0.4728  0.2333  0.4379
  364MOL0     C49021   7.013   7.441   5.298 -0.4937  0.3555 -0.6052
  364MOL0     N49022   7.156   7.406   5.310  0.2399  0.4440 -0.1608
  364MOL0     C49023   7.213   7.290   5.271  0.4325  0.4405  0.2614
  364MOL0     C49024   7.333   7.283   5.335  1.7558  0.1490 -0.0687
  364MOL0     C49025   7.438   7.174   5.321 -0.5778 -0.1396 -0.2160
  364MOL0     C49026   7.495   7.127   5.457  0.7147 -0.6514  0.4562
  364MOL0     C49027   7.391   7.099   5.565 -0.1292 -1.0674 -0.2187
  364MOL0     C49028   7.268   7.014   5.519  0.0412  0.3852  0.7277
  364MOL0     O49029   7.259   6.888   5.584  0.2906 -0.1738 -0.0525
  364MOL0     C49030   7.153   6.809   5.564  0.9848  0.1145 -0.3581
  364MOL0     C49031   7.066   6.817   5.454 -0.4804  0.4010 -0.6662
  364MOL0     C49032   6.970   6.721   5.431 -1.2505  0.0463 -0.2583
  364MOL0     C49033   6.889   6.741   5.311 -0.0283  0.1081 -0.1906
  364MOL0     C49034   6.958   6.611   5.523  1.0117  0.3909 -0.4461
  364MOL0     C49035   6.849   6.516   5.499 -0.4854 -0.5622 -0.6802
  364MOL0     O49036   6.824   6.444   5.610 -0.1728 -0.2214  0.2686
  364MOL0     C49037   6.737   6.337   5.594 -0.0798  0.3426  0.0427
  364MOL0     C49038   6.786   6.210   5.635 -0.2680  0.6242  0.4388
  364MOL0     C49039   6.702   6.099   5.630 -0.6859 -0.3178  0.1207
  364MOL0     C49040   6.575   6.110   5.572  0.2424  0.0038  0.5873
  364MOL0     O49041   6.489   6.014   5.535 -0.2334  0.1444 -0.2126
  364MOL0     C49042   6.536   5.881   5.528 -0.8706 -0.6563  0.1758
  364MOL0     C49043   6.412   5.788   5.520 -0.2610  0.2486 -0.1331
  364MOL0     C49044   6.460   5.644   5.503 -0.1827  0.1034  0.6779
  364MOL0     C49045   6.371   5.538   5.561 -0.1502  0.7547 -0.1358
  364MOL0     C49046   6.239   5.517   5.486  0.5476 -0.4414  0.0892
  364MOL0     C49047   6.260   5.432   5.360 -0.1524  0.4396 -0.4418
  364MOL0     C49048   6.127   5.397   5.287 -1.1037 -0.1179 -0.3156
  364MOL0     C49049   6.138   5.286   5.184  0.5002  0.0188  0.5054
  364MOL0    Cl49050   5.986   5.269   5.084  0.0752 -0.4471  0.0862
  364MOL0     C49051   6.530   6.236   5.541  0.1356  0.3677  0.0011
  364MOL0     C49052   6.605   6.351   5.561 -0.0758  0.0857  0.3568
  364MOL0     O49053   6.811   6.485   5.388 -0.0099  0.1634  0.0198
  364MOL0     C49054   7.039   6.603   5.641  0.6146 -0.8713 -0.0455
  364MOL0     C49055   7.139   6.702   5.654  0.2487  0.6687  0.3478
  364MOL0     N49056   7.348   7.407   5.392  0.1800 -0.4954 -0.5210
  364MOL0     N49057   7.241   7.482   5.384  1.1004  0.4659 -0.4026
  364MOL0     C49058   7.133   7.111   4.968 -0.3769 -0.1749  0.4386
  364MOL0     C49059   7.263   7.070   4.983  0.2919  0.3541  0.0446
  364MOL0     C49060   7.606   6.845   5.212  0.0763  0.1462  0.3117
  364MOL0     C49061   7.644   6.811   5.342 -0.8014  0.6643 -0.0661
  364MOL0     C49062   7.786   6.813   5.381  0.7892 -0.5840 -0.1286
  364MOL0     C49063   7.886   6.869   5.300  0.1211 -0.1201  1.3389
  364MOL0     O49064   8.013   6.871   5.348 -0.3563 -0.1736  0.4702
  364MOL0     C49065   8.128   6.930   5.277  0.1090 -0.3004 -0.3992
  364MOL0     C49066   8.225   6.819   5.244  0.7189 -0.4491 -0.3105
  364MOL0     C49067   8.356   6.862   5.188  0.6941 -0.4761  0.3572
  364MOL0     C49068   8.441   6.749   5.137 -0.1413 -0.0332  1.0744
  364MOL0     C49069   8.381   6.647   5.044 -0.9167  0.7229  0.3506
  364MOL0     C49070   8.339   6.550   4.981 -0.0612  0.5570 -0.2038
  364MOL0     C49071   7.844   6.924   5.169  0.1354  0.3116 -0.2310
  364MOL0     C49072   7.709   6.906   5.130 -0.0505  0.0156 -0.3723
  364MOL0     H49073   7.194   6.758   5.113 -0.1528 -1.4704 -2.2558
  364MOL0     H49074   6.960   6.838   5.034  0.3720 -0.4640  0.8635
  364MOL0     H49075   6.773   6.921   4.914  0.1471 -1.7923  2.0803
  364MOL0     H49076   6.793   6.988   5.082  2.8977  0.9527  0.0485
  364MOL0     H49077   6.637   7.120   4.850  1.2071  0.4292  0.1204
  364MOL0     H49078   6.566   7.061   4.999  0.1532 -0.0006 -1.1029
  364MOL0     H49079   6.574   7.284   5.026  0.2515 -0.0936 -0.0202
  364MOL0     H49080   6.709   7.228   5.125  2.9098 -0.1437 -1.0964
  364MOL0     H49081   6.860   7.299   4.931  1.6526  3.1194  1.5616
  364MOL0     H49082   6.715   7.341   4.842  1.6565 -1.0483 -0.8425
  364MOL0     H49083   6.823   7.534   4.927  0.7593 -0.9916  0.1484
  364MOL0     H49084   6.660   7.519   4.992 -0.8984 -1.3686  1.3820
  364MOL0     H49085   6.834   7.619   5.149 -1.6685  0.2825 -0.5592
  364MOL0     H49086   6.757   7.470   5.208  1.2371  2.0714  1.3821
  364MOL0     H49087   6.928   7.328   5.139 -1.6193  0.1040  3.0519
  364MOL0     H49088   7.024   7.469   5.084 -0.4016 -1.2880 -1.2028
  364MOL0     H49089   6.952   7.373   5.359 -1.0476  0.6598 -0.8078
  364MOL0     H49090   6.997   7.539   5.344  0.2051 -0.4378  1.4129
  364MOL0     H49091   7.178   7.214   5.202  1.2502  0.9248 -0.7070
  364MOL0     H49092   7.390   7.091   5.268  0.1064  0.8755 -2.5523
  364MOL0     H49093   7.519   7.212   5.258 -1.0643 -0.2350 -0.9118
  364MOL0     H49094   7.543   7.218   5.496 -2.1722  1.5474 -0.7111
  364MOL0     H49095   7.571   7.050   5.449  1.3359  0.0852 -0.9772
  364MOL0     H49096   7.353   7.193   5.605 -0.2113 -1.3975  0.4841
  364MOL0     H49097   7.445   7.046   5.644 -0.5321 -0.6775  0.3301
  364MOL0     H49098   7.265   6.996   5.411 -2.8310 -0.0199  0.7924
  364MOL0     H49099   7.178   7.070   5.547  0.4349  1.5997 -0.2923
  364MOL0     H49100   7.070   6.903   5.387 -1.1024  0.8920 -0.0895
  364MOL0     H49101   6.886   6.847   5.286 -0.3874  0.1483  0.0192
  364MOL0     H49102   6.935   6.684   5.229  0.2835 -0.0044  0.0624
  364MOL0     H49103   6.786   6.710   5.333 -0.6096  0.7011 -1.9135
  364MOL0     H49104   6.893   6.198   5.653 -0.1145  0.0186 -0.7689
  364MOL0     H49105   6.743   6.003   5.658  1.2075  0.3269 -0.3265
  364MOL0     H49106   6.604   5.876   5.442 -1.1190  2.8975 -0.3715
  364MOL0     H49107   6.589   5.866   5.622  1.7327 -0.7306 -1.2131
  364MOL0     H49108   6.367   5.792   5.620  2.5133 -0.9269  1.2687
  364MOL0     H49109   6.349   5.821   5.437  0.3813 -1.9384 -1.5788
  364MOL0     H49110   6.559   5.637   5.548 -0.0344 -0.2818  0.3011
  364MOL0     H49111   6.473   5.621   5.396 -2.4140  1.1375  0.1112
  364MOL0     H49112   6.419   5.440   5.569 -3.1375 -0.8276 -0.1178
  364MOL0     H49113   6.341   5.567   5.662 -1.4138 -0.5756 -0.0920
  364MOL0     H49114   6.204   5.618   5.463  1.3593  0.0127  0.8143
  364MOL0     H49115   6.166   5.466   5.550  0.8916 -0.6743  0.3000
  364MOL0     H49116   6.330   5.483   5.294  2.0386 -1.9278 -0.1287
  364MOL0     H49117   6.308   5.341   5.398 -1.1705  0.7622  1.7845
  364MOL0     H49118   6.093   5.479   5.223 -0.4132  0.5819  0.1940
  364MOL0     H49119   6.052   5.379   5.365  1.6295  0.4579  2.6755
  364MOL0     H49120   6.163   5.202   5.248 -1.7401 -0.6024  0.6343
  364MOL0     H49121   6.230   5.307   5.127 -0.4631  0.6884 -0.8652
  364MOL0     H49122   6.427   6.249   5.510  0.0748  1.8830  0.7624
  364MOL0     H49123   6.566   6.445   5.524 -1.0917 -0.7614 -0.8207
  364MOL0     H49124   7.010   6.529   5.715  0.4067 -0.6973  0.0496
  364MOL0     H49125   7.200   6.692   5.744  0.2494 -0.7037  0.2194
  364MOL0     H49126   7.121   7.211   4.928 -1.6335 -0.9779 -1.3616
  364MOL0     H49127   7.337   7.146   4.957  0.1778  0.8118  1.0145
  364MOL0     H49128   7.574   6.785   5.421 -2.1747 -0.9446 -1.7349
  364MOL0     H49129   7.807   6.769   5.478 -4.0203 -1.5052  0.7568
  364MOL0     H49130   8.087   6.982   5.189 -3.4196 -0.6958  0.8477
  364MOL0     H49131   8.181   7.008   5.332  2.3605  0.0020 -2.7584
  364MOL0     H49132   8.171   6.756   5.173  0.1381 -0.6017  0.2598
  364MOL0     H49133   8.246   6.755   5.330 -0.1992 -0.1144  0.1705
  364MOL0     H49134   8.413   6.902   5.273  1.6710  2.0246 -1.3902
  364MOL0     H49135   8.343   6.937   5.111 -0.6817 -1.4727 -0.4327
  364MOL0     H49136   8.476   6.697   5.226 -1.8507 -1.2804  1.0718
  364MOL0     H49137   8.533   6.779   5.087 -0.9038 -0.4174 -0.6293
  364MOL0     H49138   8.297   6.477   4.915 -0.1315  1.0214 -0.6730
  364MOL0     H49139   7.913   6.970   5.100  1.1012  1.0946  1.1972
  364MOL0     H49140   7.698   6.942   5.028  1.6659 -3.1530 -1.8000
  365MOL0     O49141   8.444  11.054   5.055  0.5134 -0.2643  0.1382
  365MOL0     C49142   8.534  11.032   4.968 -0.6290  0.2248  0.1814
  365MOL0     O49143   8.516  10.960   4.853 -0.2793  0.0056 -0.2850
  365MOL0     C49144   8.397  10.895   4.822 -0.6623  0.9697 -0.5354
  365MOL0     C49145   8.273  10.964   4.796  0.4898 -0.4225 -0.4299
  365MOL0     C49146   8.158  10.891   4.764  0.8069 -0.1108  0.1895
  365MOL0     C49147   8.153  10.747   4.748  0.3096 -0.7566 -0.2901
  365MOL0     O49148   8.038  10.675   4.731 -0.7463  0.4702  0.5945
  365MOL0     C49149   7.926  10.744   4.664 -0.0312 -0.0949  0.0954
  365MOL0     C49150   7.815  10.645   4.625 -0.3040  0.2310  0.2172
  365MOL0     C49151   7.694  10.732   4.579 -0.3725  0.8373  0.2195
  365MOL0     C49152   7.601  10.659   4.480  0.2669 -0.3747 -0.9462
  365MOL0     C49153   7.498  10.764   4.431 -0.5265  0.1134  0.4930
  365MOL0     C49154   7.393  10.702   4.341  0.9544  0.5200  0.3266
  365MOL0     C49155   7.273  10.805   4.312 -0.5753  0.9735  0.5097
  365MOL0     C49156   7.179  10.767   4.186 -0.2075  0.3818  0.4869
  365MOL0     N49157   7.073  10.866   4.174 -0.2395 -1.5554 -0.9883
  365MOL0     C49158   6.945  10.849   4.116  0.1859  0.0463 -0.4750
  365MOL0     C49159   6.888  10.971   4.113  0.8128  0.0123  0.7465
  365MOL0     C49160   6.742  10.993   4.057  0.4723 -0.0006  0.1134
  365MOL0     C49161   6.668  11.090   4.148 -0.0327 -0.0349 -0.5999
  365MOL0     C49162   6.528  11.042   4.189 -0.2734  0.6828  0.7288
  365MOL0     C49163   6.422  11.041   4.071 -0.1876  0.2315 -0.5661
  365MOL0     O49164   6.402  11.174   4.023 -0.1294  0.3189  0.3337
  365MOL0     C49165   6.298  11.197   3.940  0.5072 -0.3538  0.2355
  365MOL0     C49166   6.293  11.321   3.870 -0.9657  0.1430  0.7826
  365MOL0     C49167   6.186  11.361   3.789 -0.3443 -0.0073  0.4612
  365MOL0     C49168   6.198  11.504   3.733 -0.0010  0.6443 -0.0491
  365MOL0     C49169   6.085  11.270   3.770 -0.0908  0.1059 -0.0591
  365MOL0     C49170   5.973  11.297   3.670 -0.0855  0.6726  0.0867
  365MOL0     O49171   6.002  11.373   3.558  0.4731  1.1303  0.0563
  365MOL0     C49172   5.896  11.411   3.479 -0.7035  0.0681  0.1662
  365MOL0     C49173   5.805  11.503   3.524 -0.2513 -0.5868  0.3746
  365MOL0     C49174   5.690  11.546   3.456  0.7548  1.1642 -0.1857
  365MOL0     C49175   5.665  11.485   3.336  0.0542  0.4493 -0.0967
  365MOL0     O49176   5.554  11.497   3.261 -0.2835  0.3773 -0.1644
  365MOL0     C49177   5.457  11.592   3.309  0.1393 -0.8638  0.3468
  365MOL0     C49178   5.329  11.576   3.224 -0.0459 -0.4069 -0.6081
  365MOL0     C49179   5.229  11.696   3.255  0.5895  0.2735  1.2890
  365MOL0     C49180   5.102  11.682   3.161  0.4791  0.7267  0.4426
  365MOL0     C49181   5.021  11.555   3.183 -0.5652 -0.5764  0.0278
  365MOL0     C49182   4.893  11.561   3.102  0.5159 -0.7187 -0.3224
  365MOL0     C49183   4.819  11.421   3.098  0.6704 -0.0905  0.0365
  365MOL0     C49184   4.673  11.436   3.056 -0.5944 -0.8458  0.2504
  365MOL0    Cl49185   4.595  11.283   3.072 -0.1131 -0.2008  0.2790
  365MOL0     C49186   5.758  11.395   3.282 -0.4772  0.5109  0.4417
  365MOL0     C49187   5.873  11.360   3.352  0.3728  0.1164  0.3194
  365MOL0     O49188   5.865  11.253   3.698 -0.6029 -0.3712 -0.4150
  365MOL0     C49189   6.085  11.143   3.844  0.3381 -0.3013 -0.5222
  365MOL0     C49190   6.186  11.113   3.928 -0.1760  0.2025  0.0604
  365MOL0     N49191   6.975  11.054   4.175 -0.3908 -0.4729  0.3430
  365MOL0     N49192   7.089  11.003   4.200 -0.2970  0.5043 -0.0583
  365MOL0     C49193   8.275  10.683   4.759 -0.6486  0.5328  0.0945
  365MOL0     C49194   8.395  10.750   4.803  0.2535  0.2010  0.0334
  365MOL0     C49195   8.674  11.074   4.990 -0.7884  0.2945 -0.5569
  365MOL0     C49196   8.761  11.108   4.876 -0.4977  0.5990 -0.0278
  365MOL0     C49197   8.899  11.140   4.903  0.7412 -0.6692 -0.7718
  365MOL0     C49198   8.948  11.141   5.034 -0.4273  0.1132  0.3295
  365MOL0     O49199   9.081  11.159   5.042  0.0896  0.6007  0.2436
  365MOL0     C49200   9.146  11.155   5.172  0.0699 -0.6457  0.5047
  365MOL0     C49201   9.287  11.207   5.165  0.1955  0.1746 -0.2898
  365MOL0     C49202   9.317  11.326   5.072  0.6538  0.2714  0.2351
  365MOL0     C49203   9.234  11.445   5.110  0.2439 -0.8722 -0.4487
  365MOL0     C49204   9.275  11.553   5.023  0.9950 -0.2357 -0.3335
  365MOL0     C49205   9.282  11.647   4.945  0.4227 -0.5891 -0.5358
  365MOL0     C49206   8.862  11.113   5.136  0.5612 -0.3212  0.7293
  365MOL0     C49207   8.726  11.084   5.118 -0.1351 -0.2378 -0.0811
  365MOL0     H49208   8.274  11.073   4.796 -0.3505 -0.3955  1.0739
  365MOL0     H49209   8.073  10.958   4.749  1.2043  0.9353  2.1517
  365MOL0     H49210   7.890  10.825   4.729  1.7554  0.1486  0.8462
  365MOL0     H49211   7.963  10.796   4.576  2.9171 -0.3316  1.0745
  365MOL0     H49212   7.851  10.594   4.535  1.2006 -2.7942  2.3603
  365MOL0     H49213   7.799  10.566   4.699 -1.2716 -0.3808 -0.6115
  365MOL0     H49214   7.633  10.760   4.666 -0.2905  2.1949 -0.1354
  365MOL0     H49215   7.729  10.815   4.517  0.2165  1.6849  1.6328
  365MOL0     H49216   7.659  10.617   4.397  1.2510  1.5227 -1.2646
  365MOL0     H49217   7.547  10.577   4.529 -0.2568  1.8505  2.4735
  365MOL0     H49218   7.445  10.795   4.522  1.0153 -1.4357  1.9847
  365MOL0     H49219   7.548  10.844   4.377  1.4692 -2.9501 -2.6281
  365MOL0     H49220   7.445  10.676   4.249 -0.0528  0.2482 -0.1807
  365MOL0     H49221   7.344  10.612   4.379 -0.0637  0.0996 -1.8278
  365MOL0     H49222   7.214  10.793   4.404  2.0994 -0.4491  2.1694
  365MOL0     H49223   7.303  10.910   4.307 -0.8873  1.1746  2.0734
  365MOL0     H49224   7.133  10.668   4.196 -2.3771  1.1267 -1.2600
  365MOL0     H49225   7.232  10.766   4.091 -1.1408  2.0764 -0.1088
  365MOL0     H49226   6.900  10.755   4.084 -0.8554  0.3011  0.1850
  365MOL0     H49227   6.734  11.037   3.957  1.2764  1.8017  0.7819
  365MOL0     H49228   6.693  10.896   4.060  0.6962 -0.0982  1.0636
  365MOL0     H49229   6.659  11.177   4.081  0.1752  0.1003 -0.4514
  365MOL0     H49230   6.726  11.133   4.230 -1.6467  0.4188  0.3550
  365MOL0     H49231   6.487  11.101   4.271 -0.8611  0.0072  0.9358
  365MOL0     H49232   6.522  10.939   4.226 -1.0113  0.9501  1.3832
  365MOL0     H49233   6.332  11.007   4.123  0.3031  0.1772  0.2821
  365MOL0     H49234   6.453  10.964   4.000 -0.6165  0.1515 -0.6700
  365MOL0     H49235   6.380  11.385   3.870 -1.1083  0.4349 -1.7875
  365MOL0     H49236   6.294  11.518   3.683  2.3187 -1.8106  3.2704
  365MOL0     H49237   6.112  11.527   3.669 -0.2203  0.5232  0.1960
  365MOL0     H49238   6.193  11.569   3.821  2.1411  0.3300  0.3514
  365MOL0     H49239   5.846  11.556   3.609  1.4267 -0.3969 -0.4989
  365MOL0     H49240   5.638  11.631   3.500  1.7776  0.4060  2.7205
  365MOL0     H49241   5.421  11.556   3.406 -0.0570 -0.7703  0.3083
  365MOL0     H49242   5.499  11.693   3.314 -0.6309 -0.4714 -0.8361
  365MOL0     H49243   5.347  11.578   3.117 -0.8790 -1.6921 -0.8023
  365MOL0     H49244   5.289  11.476   3.248 -0.5106 -0.2755 -0.8281
  365MOL0     H49245   5.278  11.790   3.228  0.2031  0.2900  0.6473
  365MOL0     H49246   5.192  11.693   3.358 -0.5889  0.4412  0.8846
  365MOL0     H49247   5.043  11.774   3.164  0.5661  0.8245 -0.5324
  365MOL0     H49248   5.135  11.680   3.056 -0.2964  1.6502  0.1735
  365MOL0     H49249   4.996  11.544   3.289 -0.1238  1.7432  0.4426
  365MOL0     H49250   5.075  11.466   3.149 -1.1506 -1.1581  0.5920
  365MOL0     H49251   4.825  11.635   3.145  0.5213 -1.0992  0.3494
  365MOL0     H49252   4.917  11.598   3.001  2.1353  2.5082  1.1062
  365MOL0     H49253   4.820  11.371   3.195 -0.4965  0.8851  0.5769
  365MOL0     H49254   4.864  11.355   3.023 -0.5098  0.3526 -1.0937
  365MOL0     H49255   4.678  11.483   2.957  2.7064  1.3404  1.2759
  365MOL0     H49256   4.633  11.500   3.136  0.6767  0.2332  0.0644
  365MOL0     H49257   5.747  11.346   3.186 -0.4851 -0.5690  0.9809
  365MOL0     H49258   5.939  11.287   3.308 -0.9882 -1.8296  1.3482
  365MOL0     H49259   5.995  11.084   3.826  0.3176 -0.2216 -0.6785
  365MOL0     H49260   6.193  11.013   3.970 -0.2569  0.4701  0.7217
  365MOL0     H49261   8.281  10.576   4.745  1.0721  0.2258  2.5030
  365MOL0     H49262   8.486  10.691   4.803 -0.4168 -0.9586 -2.1547
  365MOL0     H49263   8.735  11.093   4.771 -0.1556  0.0289 -0.0349
  365MOL0     H49264   8.964  11.163   4.820 -2.0191  1.9529 -2.4093
  365MOL0     H49265   9.097  11.227   5.239  1.7927  0.0156  1.1302
  365MOL0     H49266   9.156  11.055   5.213 -1.5326 -0.1939  2.1259
  365MOL0     H49267   9.345  11.117   5.144  0.7873  0.3914  0.3908
  365MOL0     H49268   9.311  11.234   5.268  3.3571  1.3507 -1.2105
  365MOL0     H49269   9.292  11.302   4.968  0.4536  1.4906 -0.0182
  365MOL0     H49270   9.423  11.351   5.070  0.0910  3.0534 -2.2671
  365MOL0     H49271   9.243  11.473   5.215 -0.7225  0.0591 -0.5996
  365MOL0     H49272   9.127  11.429   5.098  0.6477 -3.1884 -1.5052
  365MOL0     H49273   9.300  11.722   4.871  2.6586 -0.8959 -0.3758
  365MOL0     H49274   8.905  11.108   5.236  0.9660  0.1791  0.5866
  365MOL0     H49275   8.657  11.069   5.201  0.0244 -1.6960 -0.1861
  366MOL0     O49276  10.026   3.732   1.973  0.5486  0.8040  0.1963
  366MOL0     C49277  10.145   3.707   2.000  0.6277  0.8424 -0.6170
  366MOL0     O49278  10.205   3.581   1.978  0.8273 -0.3717  0.4166
  366MOL0     C49279  10.120   3.500   1.910 -0.1856  0.1581 -0.6583
  366MOL0     C49280   9.999   3.448   1.957  0.1276 -0.1941  0.1316
  366MOL0     C49281   9.931   3.355   1.879  0.3456  0.2084  0.4646
  366MOL0     C49282   9.982   3.319   1.755 -0.5483  0.0058  0.1491
  366MOL0     O49283   9.927   3.214   1.681 -0.5551 -0.5074 -0.5687
  366MOL0     C49284   9.886   3.256   1.553  1.4476  0.1166  1.5789
  366MOL0     C49285   9.740   3.223   1.522  0.0789  0.2559 -0.0634
  366MOL0     C49286   9.706   3.065   1.515 -0.8711 -0.1140 -0.0371
  366MOL0     C49287   9.567   3.035   1.458  0.1079  0.4332  0.3820
  366MOL0     C49288   9.526   2.888   1.471  0.6704  0.5914 -0.1709
  366MOL0     C49289   9.384   2.858   1.408  0.1852  0.1631  0.1198
  366MOL0     C49290   9.273   2.905   1.499 -0.1960  0.3668 -0.4721
  366MOL0     C49291   9.130   2.861   1.443 -0.1569 -0.5239  0.2929
  366MOL0     N49292   9.079   2.969   1.357 -0.2397 -0.1034 -0.6032
  366MOL0     C49293   8.996   3.074   1.396 -0.9801  0.5899 -0.0635
  366MOL0     C49294   8.944   3.121   1.280  0.2584  0.2375  0.1903
  366MOL0     C49295   8.852   3.245   1.278  0.3320  0.2432 -0.0239
  366MOL0     C49296   8.704   3.220   1.241 -0.2805  0.4443 -0.0934
  366MOL0     C49297   8.611   3.343   1.272  0.2975  0.3374 -0.0871
  366MOL0     C49298   8.471   3.321   1.220  0.6038  0.3208  0.0621
  366MOL0     O49299   8.397   3.449   1.183  0.8778 -0.2818 -0.0670
  366MOL0     C49300   8.258   3.443   1.169 -0.1339 -0.4012  0.3941
  366MOL0     C49301   8.182   3.561   1.183 -0.1950  0.4414 -0.2531
  366MOL0     C49302   8.043   3.557   1.173 -0.1762 -0.2816 -0.0626
  366MOL0     C49303   7.977   3.694   1.204 -0.5170 -0.9558  0.0081
  366MOL0     C49304   7.974   3.431   1.137  0.3051 -0.0476  1.2421
  366MOL0     C49305   7.830   3.418   1.114 -0.1391 -0.0448  0.3105
  366MOL0     O49306   7.783   3.311   1.037  0.0769  0.3582  0.2224
  366MOL0     C49307   7.652   3.320   1.000  0.0132 -0.0506  0.2486
  366MOL0     C49308   7.585   3.422   0.925  0.0637 -0.2412  0.5523
  366MOL0     C49309   7.451   3.414   0.909  0.7399  0.5947 -0.3619
  366MOL0     C49310   7.377   3.301   0.942 -0.0931  0.3426  0.0489
  366MOL0     O49311   7.250   3.316   0.919 -0.5910 -0.2930  0.8343
  366MOL0     C49312   7.157   3.284   1.021 -0.2538  0.3936  0.2665
  366MOL0     C49313   7.019   3.339   0.970 -0.6567 -0.4164 -0.3360
  366MOL0     C49314   6.907   3.306   1.060  0.0310  0.0201  0.8274
  366MOL0     C49315   6.894   3.156   1.079 -0.1349  0.2634  0.6657
  366MOL0     C49316   6.790   3.102   1.177  0.6616  0.3516 -0.2713
  366MOL0     C49317   6.648   3.121   1.131 -1.0156 -0.2831  0.7036
  366MOL0     C49318   6.551   3.048   1.222  0.4994 -0.0569  0.7597
  366MOL0     C49319   6.401   3.069   1.190 -0.8979 -0.8607 -0.0441
  366MOL0    Cl49320   6.368   2.997   1.034 -0.2757 -0.4081  0.1101
  366MOL0     C49321   7.448   3.186   0.973  0.2463  0.6242 -0.2208
  366MOL0     C49322   7.580   3.193   1.006 -0.2393  0.0870  0.3201
  366MOL0     O49323   7.768   3.522   1.138 -0.7162 -0.9315 -0.0326
  366MOL0     C49324   8.053   3.315   1.130  0.1071  0.8826  0.3383
  366MOL0     C49325   8.191   3.322   1.133 -0.2300  0.2231 -0.2296
  366MOL0     N49326   8.994   3.053   1.172 -0.7632  0.5243  0.5920
  366MOL0     N49327   9.090   2.977   1.223  0.2631 -0.1525  0.7862
  366MOL0     C49328  10.092   3.388   1.699 -0.5040 -0.3584  0.7603
  366MOL0     C49329  10.166   3.472   1.785  0.3220 -0.0968  0.5769
  366MOL0     C49330  10.220   3.817   2.057 -0.0489  0.1696 -0.3622
  366MOL0     C49331  10.366   3.812   2.066 -0.5893  0.4659  0.1936
  366MOL0     C49332  10.433   3.918   2.114 -0.3873  0.4476 -0.6705
  366MOL0     C49333  10.365   4.028   2.174  0.4072  0.3895 -0.7272
  366MOL0     O49334  10.436   4.135   2.221  0.3622 -0.5291  0.7943
  366MOL0     C49335  10.368   4.249   2.280 -0.5867 -0.0777 -0.4713
  366MOL0     C49336  10.441   4.333   2.382 -1.1997 -0.1988  0.1936
  366MOL0     C49337  10.467   4.251   2.509 -0.3722 -0.1958  0.0408
  366MOL0     C49338  10.340   4.227   2.584  0.1635 -0.4597 -0.1534
  366MOL0     C49339  10.358   4.218   2.727 -0.0569  0.2355 -0.8485
  366MOL0     C49340  10.365   4.231   2.853 -0.6700  0.0657 -0.0681
  366MOL0     C49341  10.229   4.027   2.160 -0.4818 -0.2468 -0.0017
  366MOL0     C49342  10.153   3.927   2.109  0.1731  0.3872 -0.3691
  366MOL0     H49343   9.968   3.462   2.060 -1.0505  0.0629 -0.2416
  366MOL0     H49344   9.847   3.298   1.917 -2.9314  4.5511  0.5125
  366MOL0     H49345   9.905   3.359   1.523 -0.4146  0.0358 -0.1521
  366MOL0     H49346   9.942   3.197   1.480 -1.0309  0.5768 -0.8894
  366MOL0     H49347   9.669   3.269   1.592  0.4937 -0.8438  1.1282
  366MOL0     H49348   9.727   3.267   1.423 -1.3094 -0.4204 -0.2085
  366MOL0     H49349   9.774   3.005   1.453  0.4420  0.2622  0.9864
  366MOL0     H49350   9.708   3.030   1.619  1.8181 -1.5974 -0.4927
  366MOL0     H49351   9.502   3.091   1.526  0.1114 -0.2958  0.9931
  366MOL0     H49352   9.559   3.067   1.353  0.3128 -1.5119 -0.2566
  366MOL0     H49353   9.600   2.834   1.411  0.7057  0.5588 -0.0989
  366MOL0     H49354   9.543   2.851   1.573  1.8152  0.7676 -0.2826
  366MOL0     H49355   9.387   2.899   1.307  2.6281 -0.5878 -0.1610
  366MOL0     H49356   9.367   2.750   1.399  1.6547 -0.0871  0.0831
  366MOL0     H49357   9.275   2.861   1.599 -3.0756  0.4793 -0.2670
  366MOL0     H49358   9.274   3.014   1.511 -1.8018  0.2169  1.6474
  366MOL0     H49359   9.052   2.833   1.514 -1.3195  2.3436  0.2740
  366MOL0     H49360   9.139   2.764   1.393 -2.3402 -0.8261  0.3966
  366MOL0     H49361   8.983   3.118   1.495 -0.9624  1.3057 -0.3697
  366MOL0     H49362   8.853   3.290   1.377 -0.4436 -0.8422  0.4920
  366MOL0     H49363   8.892   3.313   1.202  1.5187 -0.2258  0.1480
  366MOL0     H49364   8.665   3.149   1.315 -1.0660  2.1677  1.2227
  366MOL0     H49365   8.700   3.186   1.137 -1.0053 -1.0851  0.3990
  366MOL0     H49366   8.654   3.430   1.221  0.2122 -0.6812 -1.9932
  366MOL0     H49367   8.604   3.360   1.380 -0.3420 -3.0663  0.5064
  366MOL0     H49368   8.420   3.259   1.295  3.8902 -0.5534  1.7966
  366MOL0     H49369   8.472   3.263   1.128 -2.0550 -0.8592  0.6941
  366MOL0     H49370   8.248   3.647   1.189 -1.9627  1.7447  1.5671
  366MOL0     H49371   7.938   3.735   1.111 -0.6075 -5.1442 -2.0173
  366MOL0     H49372   7.904   3.696   1.286 -0.4027  0.8242  0.1195
  366MOL0     H49373   8.051   3.771   1.230 -0.4907 -1.2495  0.8303
  366MOL0     H49374   7.637   3.514   0.901  0.8631 -1.5293 -3.4380
  366MOL0     H49375   7.416   3.511   0.874  2.7681  2.1335  1.5944
  366MOL0     H49376   7.155   3.174   1.013  0.4327  0.5160 -2.4686
  366MOL0     H49377   7.184   3.311   1.124  0.8929 -3.4097  1.1453
  366MOL0     H49378   7.022   3.447   0.953 -2.3412 -0.2399  0.2918
  366MOL0     H49379   7.003   3.282   0.878  0.7063 -0.6244 -0.4704
  366MOL0     H49380   6.818   3.353   1.016  1.8899 -0.1654 -3.6685
  366MOL0     H49381   6.936   3.354   1.154  1.2653 -1.9415  1.5163
  366MOL0     H49382   6.884   3.107   0.982 -0.4665  0.2783  0.6885
  366MOL0     H49383   6.989   3.116   1.116 -0.1958 -0.8957 -0.3598
  366MOL0     H49384   6.807   3.146   1.276  0.8707 -0.7037  0.1671
  366MOL0     H49385   6.801   2.994   1.186 -2.8535 -0.0785  0.1862
  366MOL0     H49386   6.642   3.230   1.129  1.3155 -0.0898  1.0558
  366MOL0     H49387   6.640   3.074   1.032  0.1198 -3.3698  1.9759
  366MOL0     H49388   6.565   3.091   1.322  1.6667 -0.4738  0.7892
  366MOL0     H49389   6.571   2.941   1.231  0.7457 -0.2010 -1.1153
  366MOL0     H49390   6.401   3.178   1.181 -1.3133 -0.8101  0.4909
  366MOL0     H49391   6.333   3.033   1.268  0.2053 -1.3321  0.7378
  366MOL0     H49392   7.399   3.091   0.989 -0.0679  0.9443  0.8284
  366MOL0     H49393   7.627   3.101   1.041  0.2850  0.5586  0.8733
  366MOL0     H49394   8.007   3.220   1.107 -3.2938  3.0061 -2.7252
  366MOL0     H49395   8.253   3.234   1.118 -4.1132 -3.2718  1.8699
  366MOL0     H49396  10.115   3.378   1.593 -0.3758 -1.4882  0.8867
  366MOL0     H49397  10.254   3.514   1.737  1.3168 -2.2859  0.3363
  366MOL0     H49398  10.416   3.722   2.032  1.6898  1.4974  0.6546
  366MOL0     H49399  10.541   3.916   2.107 -0.4051  2.0680 -2.2207
  366MOL0     H49400  10.357   4.328   2.205 -3.9489 -0.0025 -0.0659
  366MOL0     H49401  10.274   4.222   2.329 -0.0137 -2.2027 -0.4407
  366MOL0     H49402  10.382   4.423   2.397  1.5919  2.0560 -1.2917
  366MOL0     H49403  10.533   4.365   2.331  0.7382 -2.4314  2.0319
  366MOL0     H49404  10.526   4.311   2.579 -1.6115  1.8449 -0.5612
  366MOL0     H49405  10.514   4.157   2.479  4.6227  1.4520  1.6723
  366MOL0     H49406  10.309   4.129   2.546 -2.7153  0.8527 -1.5257
  366MOL0     H49407  10.262   4.294   2.548  0.9746  0.1679 -0.7873
  366MOL0     H49408  10.369   4.236   2.960  0.4939 -3.2112  0.1611
  366MOL0     H49409  10.171   4.112   2.196  0.1187 -0.5599  1.7592
  366MOL0     H49410  10.046   3.941   2.110  0.0141 -0.7504  0.3485
  367MOL0     O49411   3.767   8.100  10.120 -0.2207  0.1559 -0.0922
  367MOL0     C49412   3.835   8.173  10.049 -0.8028  0.1334 -0.2826
  367MOL0     O49413   3.785   8.260   9.955  0.1603  0.7272 -0.5581
  367MOL0     C49414   3.651   8.251   9.928  0.3286 -0.3118  0.1390
  367MOL0     C49415   3.586   8.125   9.903  0.6391 -0.0632 -0.0669
  367MOL0     C49416   3.453   8.123   9.862  0.2265 -0.7092 -0.2236
  367MOL0     C49417   3.383   8.241   9.852  0.6914  0.2059 -0.1349
  367MOL0     O49418   3.256   8.245   9.806  0.0619 -0.4205  0.5916
  367MOL0     C49419   3.151   8.174   9.889 -0.4429 -0.8267 -0.7564
  367MOL0     C49420   3.028   8.258   9.895  0.2362 -0.5223  0.2377
  367MOL0     C49421   2.908   8.180   9.950  0.1441 -0.2543 -0.1667
  367MOL0     C49422   2.847   8.089   9.848 -0.2020 -0.2548  0.7137
  367MOL0     C49423   2.753   7.994   9.905  0.2945  0.3729 -0.0486
  367MOL0     C49424   2.621   8.043   9.963  0.1440  1.2937  0.0982
  367MOL0     C49425   2.558   7.937  10.054  0.3425 -0.3001  0.1269
  367MOL0     C49426   2.517   7.811   9.969 -0.4110  0.1643  0.3089
  367MOL0     N49427   2.422   7.841   9.861 -0.4855 -0.4627 -0.7239
  367MOL0     C49428   2.291   7.850   9.881  0.0691  0.4506  0.0498
  367MOL0     C49429   2.238   7.850   9.753 -0.2151  0.6993  0.0783
  367MOL0     C49430   2.087   7.860   9.733  0.8146  0.5730  0.0925
  367MOL0     C49431   2.029   8.001   9.721  0.3528 -0.3692 -0.4572
  367MOL0     C49432   2.006   8.054   9.574  0.0673  0.0118  0.1565
  367MOL0     C49433   1.891   7.978   9.510  0.2886  0.2386  0.0908
  367MOL0     O49434   1.765   7.995   9.589 -0.5270  0.2322  0.6103
  367MOL0     C49435   1.654   7.928   9.545  0.0437 -0.0537  0.3844
  367MOL0     C49436   1.651   7.833   9.441  0.5618  0.4411  0.1973
  367MOL0     C49437   1.526   7.789   9.396  0.5404  1.1311  0.3736
  367MOL0     C49438   1.531   7.692   9.280 -0.2066 -0.7139  0.1500
  367MOL0     C49439   1.405   7.826   9.458 -0.9674 -1.0675 -0.3112
  367MOL0     C49440   1.271   7.767   9.427  0.0385  0.1138  0.2933
  367MOL0     O49441   1.179   7.773   9.529  0.1679  1.0048 -0.5990
  367MOL0     C49442   1.040   7.766   9.514  0.1928 -0.3163 -0.1229
  367MOL0     C49443   0.973   7.757   9.394  0.3443 -0.4868  0.0772
  367MOL0     C49444   0.830   7.749   9.382  0.1918  0.5659 -0.6128
  367MOL0     C49445   0.754   7.736   9.497 -0.3764 -0.0433  0.0004
  367MOL0     O49446   0.619   7.721   9.474  0.2222 -0.2938 -0.1311
  367MOL0     C49447   0.555   7.849   9.500  0.1496  0.6651 -0.1927
  367MOL0     C49448   0.407   7.813   9.496  0.5900  0.4857  0.1944
  367MOL0     C49449   0.314   7.933   9.545 -0.0032 -0.2772 -0.6698
  367MOL0     C49450   0.217   7.981   9.437  0.3613  0.0751 -0.3654
  367MOL0     C49451   0.123   8.089   9.489 -0.5801  0.3349  0.2648
  367MOL0     C49452   0.007   8.042   9.582 -0.6082  0.4370 -0.3978
  367MOL0     C49453  -0.113   7.996   9.506 -0.7963 -0.2427  0.7254
  367MOL0     C49454  -0.208   7.912   9.580 -0.4565 -0.0841 -0.1622
  367MOL0    Cl49455  -0.362   7.924   9.491  0.2571  0.3842  0.0041
  367MOL0     C49456   0.823   7.737   9.619  0.4904 -0.3227  0.7969
  367MOL0     C49457   0.957   7.752   9.627 -0.1333 -0.5267 -0.0873
  367MOL0     O49458   1.253   7.713   9.319  0.0436  0.1348 -0.5038
  367MOL0     C49459   1.418   7.911   9.567 -0.3798  0.0719 -0.3524
  367MOL0     C49460   1.536   7.970   9.604 -0.1563 -0.3189 -0.3157
  367MOL0     N49461   2.345   7.854   9.663  0.1381  0.1934  0.2900
  367MOL0     N49462   2.455   7.849   9.730 -0.3630 -0.1180  0.1414
  367MOL0     C49463   3.451   8.363   9.886  0.1610  0.0941 -0.4710
  367MOL0     C49464   3.579   8.366   9.923  0.5365  0.1388 -0.1010
  367MOL0     C49465   3.982   8.191  10.094 -0.6827 -1.6047  0.1412
  367MOL0     C49466   4.059   8.288  10.024 -0.3901 -0.3821 -0.0815
  367MOL0     C49467   4.196   8.309  10.028 -0.6074  0.6297 -0.3168
  367MOL0     C49468   4.270   8.208  10.101 -1.0087  0.4130 -0.3231
  367MOL0     O49469   4.405   8.219  10.111 -0.0674  0.2193  0.2067
  367MOL0     C49470   4.473   8.093  10.103 -0.0635  0.2439  0.4930
  367MOL0     C49471   4.629   8.112  10.120  0.9541 -0.6486  0.6595
  367MOL0     C49472   4.699   7.982  10.148  0.2227  0.4013  1.0291
  367MOL0     C49473   4.670   7.917  10.283 -0.1392  0.2206 -0.0424
  367MOL0     C49474   4.768   7.814  10.309 -0.2552  1.4254  1.0047
  367MOL0     C49475   4.872   7.749  10.327  0.2054  0.7155 -0.2584
  367MOL0     C49476   4.193   8.113  10.169  0.8402 -0.4580 -0.3608
  367MOL0     C49477   4.057   8.108  10.176  1.7008  0.1669 -1.4964
  367MOL0     H49478   3.627   8.025   9.902 -0.9155 -0.7835  2.0322
  367MOL0     H49479   3.400   8.031   9.838 -4.0159  1.5304 -0.4299
  367MOL0     H49480   3.133   8.072   9.855  1.3577 -1.7087  0.7693
  367MOL0     H49481   3.193   8.148   9.986 -0.9805  1.4018  0.1435
  367MOL0     H49482   3.044   8.346   9.960 -1.6168  0.3505 -0.4235
  367MOL0     H49483   3.002   8.297   9.796 -0.9849  0.8972  1.0581
  367MOL0     H49484   2.936   8.123  10.039  2.7273  1.5286  0.2477
  367MOL0     H49485   2.831   8.246   9.990 -1.0308 -2.1832  0.9139
  367MOL0     H49486   2.789   8.161   9.790  2.7703  0.8159 -1.1802
  367MOL0     H49487   2.920   8.036   9.786 -1.2513  0.4089 -1.1724
  367MOL0     H49488   2.724   7.920   9.829  0.0691 -0.0959  0.4855
  367MOL0     H49489   2.805   7.925   9.972 -1.9553 -1.1190  0.2367
  367MOL0     H49490   2.625   8.140  10.015  0.5338  1.7289 -0.7162
  367MOL0     H49491   2.560   8.062   9.874 -0.9001 -1.1328  0.2266
  367MOL0     H49492   2.624   7.913  10.138  1.4783  2.0036 -0.0226
  367MOL0     H49493   2.459   7.964  10.092 -0.2163 -3.2483  1.0845
  367MOL0     H49494   2.492   7.726  10.033  1.6799  0.0689  1.0769
  367MOL0     H49495   2.604   7.770   9.916  1.4073  0.9958  2.5143
  367MOL0     H49496   2.237   7.838   9.974 -1.2608  0.6426 -0.6688
  367MOL0     H49497   2.088   7.813   9.634  3.1502  2.5159 -0.9091
  367MOL0     H49498   2.041   7.804   9.815  1.1206  0.0486 -0.0879
  367MOL0     H49499   2.093   8.078   9.765 -1.4558  1.5569 -0.9889
  367MOL0     H49500   1.941   8.010   9.786  0.2609  0.6597 -0.6956
  367MOL0     H49501   2.094   8.037   9.511  0.2104 -4.1848  1.1886
  367MOL0     H49502   1.976   8.158   9.583  1.4663  0.2944  2.2862
  367MOL0     H49503   1.920   7.875   9.489  0.6046  0.4181 -0.3537
  367MOL0     H49504   1.875   8.030   9.415  1.9814 -2.2692 -1.6866
  367MOL0     H49505   1.736   7.815   9.377  0.3295  0.2432 -0.0593
  367MOL0     H49506   1.638   7.673   9.267  0.5257  0.1440  3.8031
  367MOL0     H49507   1.485   7.596   9.303 -0.4955 -0.3509  1.1377
  367MOL0     H49508   1.493   7.744   9.192  0.0216 -0.4058  0.2293
  367MOL0     H49509   1.024   7.777   9.300 -2.3315  1.0455 -1.1473
  367MOL0     H49510   0.780   7.741   9.286 -0.1422 -2.3474 -0.3009
  367MOL0     H49511   0.557   7.875   9.606  0.1917 -0.0195 -0.0156
  367MOL0     H49512   0.582   7.937   9.441 -2.2568  1.2523 -0.5082
  367MOL0     H49513   0.382   7.792   9.392 -1.0481  2.0073  0.2427
  367MOL0     H49514   0.396   7.728   9.564 -0.7412  1.8244  1.7250
  367MOL0     H49515   0.382   8.016   9.568  3.3740 -1.6030 -4.6288
  367MOL0     H49516   0.265   7.907   9.640  2.2175  2.7858  1.5289
  367MOL0     H49517   0.285   8.035   9.370  0.5150  3.6884  2.3730
  367MOL0     H49518   0.169   7.895   9.390  0.2808  0.9390 -1.9391
  367MOL0     H49519   0.086   8.149   9.407  1.3257  1.4761  0.1705
  367MOL0     H49520   0.181   8.160   9.549  0.0809 -1.2954  1.6794
  367MOL0     H49521   0.048   7.970   9.653  2.5082  0.3366 -2.1214
  367MOL0     H49522  -0.013   8.125   9.650  0.2584  1.3335 -1.1878
  367MOL0     H49523  -0.086   7.945   9.413  0.7091 -1.6276  1.8649
  367MOL0     H49524  -0.168   8.084   9.470  0.2458  0.5374  1.0009
  367MOL0     H49525  -0.225   7.950   9.681 -1.9623 -0.7110 -0.1590
  367MOL0     H49526  -0.178   7.807   9.587  1.3819  0.2351 -2.0748
  367MOL0     H49527   0.765   7.728   9.711  1.5638  2.3804  1.8317
  367MOL0     H49528   1.008   7.744   9.723 -0.1758 -0.5507 -0.0669
  367MOL0     H49529   1.329   7.929   9.626 -1.6743 -1.7329 -1.6399
  367MOL0     H49530   1.547   8.042   9.685  1.4412  0.1758 -0.9312
  367MOL0     H49531   3.396   8.456   9.882  0.0107  0.0322  0.1336
  367MOL0     H49532   3.631   8.461   9.934 -1.6639  1.6815 -2.0561
  367MOL0     H49533   3.997   8.360   9.973  0.1367 -0.1115 -0.3469
  367MOL0     H49534   4.241   8.398   9.985  0.0767  0.7438  0.5861
  367MOL0     H49535   4.429   8.015  10.165 -0.2889  0.8761  1.1355
  367MOL0     H49536   4.447   8.057  10.003  1.6290 -0.0703  0.1396
  367MOL0     H49537   4.657   8.173  10.206  1.8649 -0.7528  0.4469
  367MOL0     H49538   4.667   8.170  10.036 -1.8258  0.1299 -0.1786
  367MOL0     H49539   4.808   7.994  10.142  0.4793 -1.8157  0.6387
  367MOL0     H49540   4.681   7.920  10.060  0.8619  3.8989 -1.7987
  367MOL0     H49541   4.572   7.868  10.283  0.3690 -0.8158 -0.6546
  367MOL0     H49542   4.684   7.986  10.367  3.2176 -0.2223 -0.1167
  367MOL0     H49543   4.958   7.694  10.359  0.0050  0.0552 -0.8453
  367MOL0     H49544   4.240   8.038  10.231  0.8930 -0.6213 -0.5980
  367MOL0     H49545   4.010   8.037  10.242 -0.2038  0.7288 -2.1898
  368MOL0     O49546   0.243   4.557  10.398  0.6538 -0.4627  0.2874
  368MOL0     C49547   0.304   4.648  10.347  0.5173 -0.6754 -0.1735
  368MOL0     O49548   0.242   4.746  10.267 -0.4148  0.0857 -0.5601
  368MOL0     C49549   0.108   4.732  10.233  0.4471  0.2361 -0.4381
  368MOL0     C49550   0.011   4.823  10.266  0.1139  0.1399 -0.3887
  368MOL0     C49551  -0.118   4.810  10.217  0.3947  0.3032  0.7828
  368MOL0     C49552  -0.159   4.701  10.145 -1.1260 -0.1387  0.0929
  368MOL0     O49553  -0.283   4.699  10.081  0.2835 -0.5521 -0.1138
  368MOL0     C49554  -0.408   4.719  10.157 -0.6450  0.1105  0.4674
  368MOL0     C49555  -0.513   4.800  10.083 -0.0285 -0.2594 -0.2580
  368MOL0     C49556  -0.464   4.945  10.074 -0.4304 -0.0183 -0.0940
  368MOL0     C49557  -0.585   5.027  10.038  0.4537  0.5369  0.7198
  368MOL0     C49558  -0.551   5.175  10.008 -0.0449 -0.5417  0.8547
  368MOL0     C49559  -0.641   5.246   9.911  0.2552 -0.1826 -0.2925
  368MOL0     C49560  -0.775   5.263   9.984  0.1211 -0.3433  0.6603
  368MOL0     C49561  -0.879   5.313   9.891  0.5853 -0.6169 -0.5281
  368MOL0     N49562  -0.984   5.388   9.942  0.4461  0.3150 -0.9047
  368MOL0     C49563  -1.025   5.513   9.901  0.2304  0.0171 -0.1344
  368MOL0     C49564  -1.158   5.522   9.942 -0.3084  0.9140 -0.1564
  368MOL0     C49565  -1.250   5.640   9.918  0.6186  0.5472 -0.1968
  368MOL0     C49566  -1.398   5.600   9.897 -0.6652 -0.0710  0.3876
  368MOL0     C49567  -1.478   5.730   9.851 -0.3020  0.4625  1.0716
  368MOL0     C49568  -1.621   5.685   9.857 -0.5541  0.8881  0.4154
  368MOL0     O49569  -1.701   5.792   9.801  0.3106 -0.4658  0.0620
  368MOL0     C49570  -1.839   5.780   9.796  0.1616  0.7419  0.2955
  368MOL0     C49571  -1.920   5.664   9.835  0.0471 -0.1028 -0.0607
  368MOL0     C49572  -2.059   5.676   9.829 -0.1373  0.3394 -0.4652
  368MOL0     C49573  -2.135   5.550   9.876 -0.1080 -0.2131  0.1536
  368MOL0     C49574  -2.123   5.792   9.771  0.1036 -0.7891  0.2371
  368MOL0     C49575  -2.273   5.803   9.747  0.0228 -0.9769  0.1052
  368MOL0     O49576  -2.311   5.914   9.675  0.3978 -0.3852  0.2757
  368MOL0     C49577  -2.444   5.931   9.640  0.3693 -0.1394 -0.0020
  368MOL0     C49578  -2.501   6.051   9.677 -0.7914  0.5128  0.4243
  368MOL0     C49579  -2.643   6.068   9.658 -0.4558 -0.4558 -0.0134
  368MOL0     C49580  -2.721   5.962   9.610 -0.6267 -0.1556  0.2136
  368MOL0     O49581  -2.857   5.965   9.603 -0.3090 -0.1287  0.0356
  368MOL0     C49582  -2.931   6.043   9.700  0.2751  0.4381  0.2338
  368MOL0     C49583  -3.068   5.966   9.710 -0.9177 -0.0669  0.1636
  368MOL0     C49584  -3.130   5.949   9.570 -0.0496  0.1535 -0.6958
  368MOL0     C49585  -3.277   5.897   9.580 -0.1413 -0.1864  0.2605
  368MOL0     C49586  -3.330   5.860   9.446  0.4355  0.3121  0.4987
  368MOL0     C49587  -3.301   5.941   9.311  0.3511 -0.1452 -0.2985
  368MOL0     C49588  -3.163   5.905   9.251  0.5132  0.6736  0.0828
  368MOL0     C49589  -3.162   5.942   9.101 -0.3071  0.1934 -0.5456
  368MOL0    Cl49590  -3.221   6.119   9.077 -0.2055 -0.1277 -0.1783
  368MOL0     C49591  -2.662   5.839   9.573  0.0715  0.2098  0.7863
  368MOL0     C49592  -2.520   5.825   9.576 -0.4210 -0.4412 -0.9540
  368MOL0     O49593  -2.349   5.718   9.793  0.3697  0.0734 -0.2320
  368MOL0     C49594  -2.036   5.892   9.724  0.0009 -0.3542 -0.4238
  368MOL0     C49595  -1.898   5.890   9.739  0.3884 -0.5004 -0.4874
  368MOL0     N49596  -1.183   5.425  10.029 -0.0748 -0.3061  0.0533
  368MOL0     N49597  -1.083   5.347  10.027 -0.1085  1.3715  0.4881
  368MOL0     C49598  -0.066   4.604  10.119  0.2431 -0.1740  0.0732
  368MOL0     C49599   0.065   4.626  10.148 -0.8594 -0.1696 -1.1951
  368MOL0     C49600   0.443   4.655  10.367 -0.7439 -0.3425  0.5360
  368MOL0     C49601   0.528   4.696  10.264 -0.6312  0.5140  0.1253
  368MOL0     C49602   0.668   4.718  10.286 -0.2963  0.3990 -0.1847
  368MOL0     C49603   0.720   4.695  10.418  0.4072  0.0449  0.5093
  368MOL0     O49604   0.851   4.733  10.435 -0.0607 -0.0339 -0.7215
  368MOL0     C49605   0.907   4.744  10.565 -1.4229  0.7557 -0.6209
  368MOL0     C49606   1.012   4.858  10.577 -0.1479  0.3995  0.1875
  368MOL0     C49607   1.133   4.837  10.489 -0.7964  0.6696 -0.5851
  368MOL0     C49608   1.236   4.951  10.522  0.0156  0.1713  0.7718
  368MOL0     C49609   1.191   5.073  10.465  0.2892 -0.2958 -0.2970
  368MOL0     C49610   1.162   5.182  10.425 -0.5488  0.6385  0.5159
  368MOL0     C49611   0.634   4.646  10.519 -0.1650 -0.0333 -0.5458
  368MOL0     C49612   0.502   4.615  10.493  0.1528  0.3338 -0.2210
  368MOL0     H49613   0.035   4.911  10.324 -1.7515  0.7181 -0.4200
  368MOL0     H49614  -0.190   4.891  10.222 -0.8290 -0.7589  5.4929
  368MOL0     H49615  -0.447   4.617  10.157 -2.0475  0.5900 -1.1989
  368MOL0     H49616  -0.399   4.747  10.263  2.5684 -2.9099  1.1860
  368MOL0     H49617  -0.529   4.749   9.988  2.9430 -0.4824 -0.7163
  368MOL0     H49618  -0.612   4.795  10.131 -0.0611  1.5742 -0.0560
  368MOL0     H49619  -0.411   4.991  10.158  1.2669  1.2663 -1.7718
  368MOL0     H49620  -0.390   4.958   9.994 -1.0423  1.3479 -0.4672
  368MOL0     H49621  -0.632   4.972   9.957 -4.0520 -1.1078  4.0183
  368MOL0     H49622  -0.669   5.019  10.108  0.4748 -0.2040  0.6745
  368MOL0     H49623  -0.550   5.235  10.099 -0.0072  2.1486 -0.7977
  368MOL0     H49624  -0.454   5.193   9.961 -0.2195  1.6641  1.2602
  368MOL0     H49625  -0.599   5.344   9.887  0.4346 -0.6048 -1.8281
  368MOL0     H49626  -0.655   5.196   9.815  2.7271  2.4605 -2.2091
  368MOL0     H49627  -0.806   5.169  10.030 -0.1701 -1.5184 -1.7683
  368MOL0     H49628  -0.761   5.342  10.058  0.8644  0.9410 -0.7973
  368MOL0     H49629  -0.929   5.233   9.835 -0.2627  0.3623 -1.2134
  368MOL0     H49630  -0.836   5.383   9.819  0.4211 -2.1095 -2.1512
  368MOL0     H49631  -0.966   5.580   9.838 -0.3949  0.2756 -0.4519
  368MOL0     H49632  -1.239   5.703  10.007 -3.1301  3.2859 -1.4447
  368MOL0     H49633  -1.223   5.708   9.837 -1.2687  1.0763 -0.4158
  368MOL0     H49634  -1.436   5.558   9.990  0.0714  2.1147  1.7432
  368MOL0     H49635  -1.407   5.529   9.814 -0.7485  1.3596 -0.8829
  368MOL0     H49636  -1.450   5.754   9.748  1.7187 -0.5031  1.3535
  368MOL0     H49637  -1.450   5.811   9.919  2.1983  0.2609  0.3862
  368MOL0     H49638  -1.635   5.660   9.963 -2.1506 -1.1262 -0.2043
  368MOL0     H49639  -1.642   5.600   9.792  2.6300  1.7475 -1.9659
  368MOL0     H49640  -1.885   5.577   9.890  0.1843  0.9229  1.5649
  368MOL0     H49641  -2.174   5.582   9.973 -1.0786  1.0682 -0.6298
  368MOL0     H49642  -2.219   5.519   9.812 -1.4700 -0.1952  1.8654
  368MOL0     H49643  -2.078   5.457   9.885  0.0429 -0.1122  0.2437
  368MOL0     H49644  -2.439   6.131   9.713 -0.0399  0.8496 -1.4992
  368MOL0     H49645  -2.688   6.166   9.666  0.3527  0.1532 -2.1336
  368MOL0     H49646  -2.882   6.023   9.795 -1.6070 -2.4009  0.7587
  368MOL0     H49647  -2.938   6.146   9.664 -1.0774 -0.1966 -1.4948
  368MOL0     H49648  -3.051   5.865   9.749 -2.6087 -1.4177 -2.3015
  368MOL0     H49649  -3.140   6.019   9.773 -0.5345 -0.7394  1.2025
  368MOL0     H49650  -3.073   5.865   9.528 -0.5502 -1.7921  2.2223
  368MOL0     H49651  -3.134   6.043   9.514  0.3236  0.0891 -0.8332
  368MOL0     H49652  -3.283   5.817   9.654  0.9340 -2.8245 -2.3340
  368MOL0     H49653  -3.346   5.969   9.627 -2.1131 -1.8321  0.0372
  368MOL0     H49654  -3.438   5.848   9.452  0.3587  0.5874 -0.2477
  368MOL0     H49655  -3.287   5.759   9.442 -0.9768 -0.3574  1.6861
  368MOL0     H49656  -3.373   5.911   9.235 -1.4486  2.4286  0.2413
  368MOL0     H49657  -3.309   6.050   9.321  0.8137  0.3838 -4.3000
  368MOL0     H49658  -3.139   5.800   9.269 -1.0049  0.2998  0.0375
  368MOL0     H49659  -3.087   5.961   9.307  0.0765  0.0493  1.3295
  368MOL0     H49660  -3.222   5.868   9.049 -0.9206 -1.5514  2.4407
  368MOL0     H49661  -3.058   5.924   9.070 -0.1137 -1.0610  0.7532
  368MOL0     H49662  -2.721   5.756   9.536 -0.6216  0.6112  0.9717
  368MOL0     H49663  -2.469   5.734   9.546 -0.2860 -0.0923 -1.7945
  368MOL0     H49664  -2.070   5.983   9.676  2.9011  0.4864 -1.0867
  368MOL0     H49665  -1.837   5.966   9.692 -0.0334 -0.8276 -1.6202
  368MOL0     H49666  -0.091   4.526  10.047  0.1491 -0.6111  0.5730
  368MOL0     H49667   0.134   4.554  10.105  0.5052 -0.0210  0.6298
  368MOL0     H49668   0.491   4.718  10.164  1.2813  0.1136 -0.7024
  368MOL0     H49669   0.741   4.743  10.210 -0.2640 -1.1481 -0.6889
  368MOL0     H49670   0.821   4.768  10.628 -2.1232 -1.3574 -0.6875
  368MOL0     H49671   0.955   4.653  10.602 -0.3430  1.8852  0.9052
  368MOL0     H49672   1.043   4.874  10.681  1.9212 -0.6237 -0.2172
  368MOL0     H49673   0.959   4.950  10.551 -0.7340  0.4953  1.6160
  368MOL0     H49674   1.111   4.835  10.382  0.8359  0.4345 -0.9573
  368MOL0     H49675   1.179   4.742  10.516  0.1259  1.8538  2.5553
  368MOL0     H49676   1.329   4.927  10.470 -0.5470 -1.2791  0.3877
  368MOL0     H49677   1.242   4.978  10.627 -0.9373  1.8079  0.4463
  368MOL0     H49678   1.142   5.283  10.393  1.1786  0.8609  0.0375
  368MOL0     H49679   0.661   4.621  10.621 -0.3887  3.0704  0.3707
  368MOL0     H49680   0.445   4.560  10.567 -0.0113 -2.3437 -2.1624
  369MOL0     O49681   7.764   9.615   4.022 -0.7048  0.2495 -0.7232
  369MOL0     C49682   7.772   9.528   4.108 -0.5978  0.5202  0.8424
  369MOL0     O49683   7.690   9.507   4.213  0.9803 -0.1921 -0.1521
  369MOL0     C49684   7.576   9.579   4.239  1.2797  0.5718  0.3827
  369MOL0     C49685   7.507   9.554   4.359  0.4832 -0.2774  0.1028
  369MOL0     C49686   7.392   9.621   4.396  0.1236 -0.1854  0.2454
  369MOL0     C49687   7.340   9.727   4.321  0.6061  0.3331  0.0437
  369MOL0     O49688   7.228   9.788   4.381  0.2777 -0.0097  0.0546
  369MOL0     C49689   7.148   9.868   4.293 -0.3747 -0.8389  0.4726
  369MOL0     C49690   7.048   9.940   4.388  0.8697 -0.1443  0.6491
  369MOL0     C49691   6.968  10.040   4.312  0.2985 -0.2371 -0.5161
  369MOL0     C49692   6.874  10.120   4.409  0.9716  0.6075 -0.3122
  369MOL0     C49693   6.779  10.210   4.332  0.0792 -0.3976 -0.0184
  369MOL0     C49694   6.848  10.343   4.302 -0.4792  0.0529  0.3191
  369MOL0     C49695   6.761  10.460   4.259  0.3159  0.1245 -0.4815
  369MOL0     C49696   6.738  10.462   4.110 -0.0826  0.0126 -0.0382
  369MOL0     N49697   6.611  10.511   4.070  0.0290 -0.2875 -0.6125
  369MOL0     C49698   6.488  10.456   4.097 -0.2307 -0.6186  0.1213
  369MOL0     C49699   6.399  10.559   4.057 -0.0984  0.3036  0.5324
  369MOL0     C49700   6.244  10.563   4.086  0.2399  0.1359  0.2053
  369MOL0     C49701   6.139  10.543   3.972  0.3132 -0.1331 -0.6909
  369MOL0     C49702   5.995  10.543   4.020 -0.0942  0.7709 -0.0357
  369MOL0     C49703   5.938  10.686   4.002  0.3133  0.1126 -0.5889
  369MOL0     O49704   5.897  10.707   3.860  0.0668  0.3528 -0.1520
  369MOL0     C49705   5.765  10.688   3.829 -0.4120  0.7429  0.7306
  369MOL0     C49706   5.670  10.611   3.911  0.2770  0.4499 -0.1046
  369MOL0     C49707   5.536  10.600   3.868 -0.0966  0.1553 -0.7349
  369MOL0     C49708   5.453  10.526   3.970 -0.3524  0.2767  0.2392
  369MOL0     C49709   5.487  10.665   3.751 -0.6223  0.9454  0.0209
  369MOL0     C49710   5.341  10.665   3.711  0.1071  0.8363  0.3967
  369MOL0     O49711   5.310  10.751   3.613  0.0148 -0.5873  0.0056
  369MOL0     C49712   5.174  10.762   3.569  0.4147  0.7721  0.1179
  369MOL0     C49713   5.093  10.860   3.614 -0.4956  0.1194 -1.0921
  369MOL0     C49714   4.958  10.868   3.566  0.4812  0.1785 -0.2085
  369MOL0     C49715   4.910  10.774   3.479  0.4863 -0.0415 -0.0108
  369MOL0     O49716   4.786  10.771   3.407  0.0629 -0.1155  0.0410
  369MOL0     C49717   4.690  10.873   3.442  0.2854 -0.3252 -0.7553
  369MOL0     C49718   4.598  10.824   3.558  0.2074 -0.8366 -0.4540
  369MOL0     C49719   4.474  10.925   3.576 -0.4074  0.7547 -0.0910
  369MOL0     C49720   4.366  10.849   3.503  0.5095 -0.3087 -0.7632
  369MOL0     C49721   4.237  10.921   3.446  0.2141 -0.1266  0.1173
  369MOL0     C49722   4.252  10.979   3.304 -0.4733 -0.1231 -0.1828
  369MOL0     C49723   4.125  11.066   3.259 -0.4812  0.6597 -0.0548
  369MOL0     C49724   4.157  11.129   3.123 -0.8894 -0.2725  0.9536
  369MOL0    Cl49725   4.044  11.269   3.089  0.5570  0.1316 -0.1185
  369MOL0     C49726   4.992  10.666   3.442  0.4787  0.8046  0.2435
  369MOL0     C49727   5.119  10.665   3.490  1.2910  0.4475  0.2637
  369MOL0     O49728   5.271  10.573   3.755 -0.2719  0.0073 -0.4261
  369MOL0     C49729   5.574  10.745   3.684 -0.2822 -0.8023 -0.2352
  369MOL0     C49730   5.708  10.747   3.717 -0.8122  0.4725  0.2745
  369MOL0     N49731   6.464  10.651   3.988 -0.1229  0.5127  0.1426
  369MOL0     N49732   6.592  10.613   3.989 -0.0650 -0.6354 -0.2937
  369MOL0     C49733   7.403   9.752   4.193  0.5701  1.3780 -0.4065
  369MOL0     C49734   7.522   9.684   4.158 -0.4685 -0.7721 -0.2226
  369MOL0     C49735   7.868   9.413   4.085  0.2929 -0.2310 -0.1728
  369MOL0     C49736   7.886   9.315   4.180  0.0316 -0.0433  0.1089
  369MOL0     C49737   7.972   9.207   4.163 -0.5378 -0.0711 -0.7467
  369MOL0     C49738   8.038   9.197   4.041 -0.1707  0.1490  1.2911
  369MOL0     O49739   8.113   9.084   4.026  0.2070 -0.6183  0.7013
  369MOL0     C49740   8.118   9.002   3.905 -0.1442 -0.6969 -0.1121
  369MOL0     C49741   8.012   8.892   3.931 -0.4397  0.1188  0.5343
  369MOL0     C49742   8.058   8.799   4.042  0.6741  0.6685  0.1136
  369MOL0     C49743   7.981   8.663   4.043 -0.1935  0.6311 -0.2497
  369MOL0     C49744   8.048   8.565   4.130 -0.1412  0.0171  0.3749
  369MOL0     C49745   8.115   8.490   4.210 -0.2920 -1.2503 -0.7092
  369MOL0     C49746   8.024   9.294   3.940 -0.1947 -0.0805  0.0481
  369MOL0     C49747   7.934   9.404   3.963 -0.2275 -1.1245 -0.0541
  369MOL0     H49748   7.538   9.495   4.444 -0.3061 -0.7423  0.0718
  369MOL0     H49749   7.345   9.606   4.492 -1.3929  1.0237 -0.2741
  369MOL0     H49750   7.212   9.944   4.247 -2.3018  0.7114  0.2408
  369MOL0     H49751   7.116   9.802   4.212  2.5978 -1.3489 -0.4111
  369MOL0     H49752   6.974   9.878   4.439 -1.2954  0.7737 -1.2372
  369MOL0     H49753   7.097   9.999   4.467  0.9432  0.0850  0.4327
  369MOL0     H49754   7.036  10.115   4.269  0.4714  0.6308  1.1836
  369MOL0     H49755   6.908   9.991   4.234  0.4961 -1.5098  0.1173
  369MOL0     H49756   6.800  10.053   4.454 -1.2510  2.4884 -0.9264
  369MOL0     H49757   6.912  10.182   4.490 -0.5985  1.8600 -0.4742
  369MOL0     H49758   6.739  10.171   4.238 -1.6159 -1.5390  1.1167
  369MOL0     H49759   6.699  10.236   4.402 -0.2630 -0.4176 -0.3971
  369MOL0     H49760   6.890  10.380   4.396 -1.8094  2.5001  0.0314
  369MOL0     H49761   6.926  10.326   4.228  1.1771  2.8727  1.2437
  369MOL0     H49762   6.669  10.444   4.316 -0.1876  0.6943 -1.1164
  369MOL0     H49763   6.806  10.553   4.296  0.3014 -0.4949  1.1698
  369MOL0     H49764   6.754  10.360   4.074 -1.3222 -0.6557  1.2117
  369MOL0     H49765   6.816  10.514   4.054  0.8629 -1.6840 -0.3463
  369MOL0     H49766   6.471  10.367   4.157  2.4865 -0.4671  1.2404
  369MOL0     H49767   6.229  10.481   4.156  0.9431 -0.2779 -0.1280
  369MOL0     H49768   6.218  10.652   4.145  0.5240 -0.0704  0.6421
  369MOL0     H49769   6.164  10.443   3.936 -1.9804 -0.7985 -0.6108
  369MOL0     H49770   6.157  10.615   3.891  3.1813 -1.3331 -1.2532
  369MOL0     H49771   5.993  10.522   4.127 -0.6484 -2.3710 -0.5751
  369MOL0     H49772   5.939  10.466   3.966  1.3785 -0.5818  0.2986
  369MOL0     H49773   6.012  10.761   4.032 -1.5819  1.2720  1.4622
  369MOL0     H49774   5.853  10.706   4.067 -0.0685 -1.7151 -0.4858
  369MOL0     H49775   5.702  10.557   4.000 -2.2685 -0.6900  0.2307
  369MOL0     H49776   5.397  10.442   3.928 -1.7072  0.8691  0.7870
  369MOL0     H49777   5.515  10.484   4.049 -0.7376  0.3674  0.5933
  369MOL0     H49778   5.391  10.595   4.029  2.2207  1.4925  1.7035
  369MOL0     H49779   5.121  10.931   3.691 -1.6619  0.3412 -0.8569
  369MOL0     H49780   4.895  10.948   3.604 -2.6928 -2.7630  1.3257
  369MOL0     H49781   4.728  10.974   3.458 -0.8015 -0.1300  0.8414
  369MOL0     H49782   4.619  10.887   3.360 -2.0096  1.5507  1.4140
  369MOL0     H49783   4.584  10.716   3.546  1.7053 -0.9870 -1.0175
  369MOL0     H49784   4.652  10.826   3.653  0.3722 -2.1912 -0.4949
  369MOL0     H49785   4.498  11.023   3.533  0.5718  0.1699 -0.9366
  369MOL0     H49786   4.448  10.946   3.680  0.4366 -0.4923  0.4051
  369MOL0     H49787   4.403  10.794   3.416 -1.2664 -1.0483 -1.0947
  369MOL0     H49788   4.329  10.773   3.573 -0.0644  0.2942 -0.4076
  369MOL0     H49789   4.212  11.004   3.513  0.7459  0.7236 -0.6947
  369MOL0     H49790   4.154  10.850   3.447 -0.3639  0.5524  1.2216
  369MOL0     H49791   4.343  11.041   3.303 -0.2801 -0.2226  2.5627
  369MOL0     H49792   4.257  10.889   3.243 -1.3562 -0.3228  0.0307
  369MOL0     H49793   4.113  11.151   3.327  0.4948 -0.6999  1.9020
  369MOL0     H49794   4.036  11.002   3.260  0.8405 -1.3114 -1.6793
  369MOL0     H49795   4.142  11.053   3.046  0.7809 -0.0251  0.3315
  369MOL0     H49796   4.262  11.159   3.120 -0.8263 -0.5609 -1.4456
  369MOL0     H49797   4.949  10.590   3.378  0.3771 -2.7100  4.0365
  369MOL0     H49798   5.183  10.584   3.457  3.0226  2.7165 -2.4431
  369MOL0     H49799   5.549  10.804   3.596 -0.4030  0.0760  0.3744
  369MOL0     H49800   5.781  10.798   3.654  0.1324 -0.1240  0.8616
  369MOL0     H49801   7.362   9.827   4.126  0.6656  1.2718 -0.5820
  369MOL0     H49802   7.558   9.703   4.057 -0.8157  1.2143 -0.0140
  369MOL0     H49803   7.826   9.318   4.271  0.0021 -2.6500  0.2498
  369MOL0     H49804   7.976   9.134   4.242 -0.4721 -1.7300 -2.2209
  369MOL0     H49805   8.089   9.062   3.819  1.8285  1.9776  0.9437
  369MOL0     H49806   8.219   8.961   3.897  1.7885  3.0456  2.1589
  369MOL0     H49807   8.011   8.831   3.839  3.5663 -0.1844  0.5115
  369MOL0     H49808   7.914   8.940   3.933  0.6114  2.4025 -0.1753
  369MOL0     H49809   8.052   8.837   4.144  0.9344 -0.6705  0.6520
  369MOL0     H49810   8.164   8.780   4.021 -0.1244 -2.2809 -1.9927
  369MOL0     H49811   7.952   8.635   3.941 -1.0842  3.8827 -0.9949
  369MOL0     H49812   7.883   8.683   4.087 -1.3390  1.4741 -2.9689
  369MOL0     H49813   8.153   8.426   4.287 -1.3017 -0.4264  0.5209
  369MOL0     H49814   8.080   9.283   3.848  0.1211 -1.3653  0.3709
  369MOL0     H49815   7.926   9.488   3.896 -2.4896  0.2399  1.7771
  370MOL0     O49816   6.311   4.020   8.691  0.6058 -0.5397  0.3193
  370MOL0     C49817   6.361   3.908   8.686 -0.8436  0.7362 -0.0267
  370MOL0     O49818   6.292   3.793   8.680  0.1084  0.5170 -0.0857
  370MOL0     C49819   6.155   3.809   8.682 -0.9699 -0.6048 -0.0126
  370MOL0     C49820   6.076   3.766   8.791 -0.2122 -0.5771  0.3008
  370MOL0     C49821   5.938   3.796   8.784  0.0464 -0.2476 -0.1755
  370MOL0     C49822   5.878   3.858   8.670 -0.4696  0.1424 -0.5164
  370MOL0     O49823   5.743   3.868   8.678  0.2879 -0.4722 -0.7412
  370MOL0     C49824   5.681   3.935   8.571  0.6192  0.4516 -0.1271
  370MOL0     C49825   5.530   3.927   8.597 -0.8090  1.1987  0.3203
  370MOL0     C49826   5.465   3.785   8.567 -0.6016  0.2688  0.4932
  370MOL0     C49827   5.312   3.802   8.603 -0.6177  0.3664 -0.7226
  370MOL0     C49828   5.238   3.669   8.588  0.8603 -1.5282 -0.4041
  370MOL0     C49829   5.092   3.685   8.644 -0.7118 -0.0606 -0.1848
  370MOL0     C49830   5.007   3.559   8.628 -0.9721  0.6197  0.4261
  370MOL0     C49831   4.944   3.531   8.489 -0.4808 -0.4946 -0.9671
  370MOL0     N49832   4.888   3.396   8.476 -0.0439  0.5059 -0.1454
  370MOL0     C49833   4.785   3.346   8.553  0.4431 -0.5177  0.1996
  370MOL0     C49834   4.742   3.238   8.487 -0.7492 -0.8891 -0.2417
  370MOL0     C49835   4.626   3.161   8.531  0.2700 -0.2493  0.3177
  370MOL0     C49836   4.481   3.219   8.483  0.1217 -0.0868 -0.4427
  370MOL0     C49837   4.464   3.229   8.332  0.3446 -0.5898  0.1120
  370MOL0     C49838   4.323   3.242   8.293 -0.0170  0.2172  0.3591
  370MOL0     O49839   4.241   3.148   8.365  0.6272 -0.7172 -0.1338
  370MOL0     C49840   4.107   3.159   8.331  0.8513  0.4904  0.2927
  370MOL0     C49841   4.038   3.265   8.268 -0.8705  0.3005 -0.3508
  370MOL0     C49842   3.901   3.271   8.247  0.4587 -0.5865  0.6510
  370MOL0     C49843   3.847   3.384   8.173  0.5812  0.7011  0.3900
  370MOL0     C49844   3.825   3.166   8.305  0.5748 -0.8500 -0.4417
  370MOL0     C49845   3.673   3.165   8.300 -0.5869  1.3263  0.6316
  370MOL0     O49846   3.613   3.067   8.373  0.0382  0.6668 -0.4034
  370MOL0     C49847   3.481   3.059   8.372 -0.3254 -0.7758 -0.3000
  370MOL0     C49848   3.420   2.984   8.269  0.1459  0.1649 -0.5362
  370MOL0     C49849   3.279   2.969   8.264  0.5357  0.6081 -0.4803
  370MOL0     C49850   3.198   3.027   8.363  0.0307 -0.8131 -0.2228
  370MOL0     O49851   3.061   3.053   8.359  0.1474 -0.4307  0.5176
  370MOL0     C49852   2.994   2.971   8.259 -0.0509 -0.1126 -0.0068
  370MOL0     C49853   2.844   3.007   8.254  0.1935  0.1461  0.3416
  370MOL0     C49854   2.819   3.154   8.215  0.0308  0.3791  1.0071
  370MOL0     C49855   2.668   3.186   8.219 -1.4478 -0.7004 -0.3778
  370MOL0     C49856   2.651   3.324   8.174  0.5550 -0.0385  0.9799
  370MOL0     C49857   2.507   3.371   8.183 -0.4359 -0.3117  0.0900
  370MOL0     C49858   2.487   3.518   8.142  0.1151 -1.6986 -0.5384
  370MOL0     C49859   2.335   3.558   8.121 -0.7494 -0.8780 -0.3274
  370MOL0    Cl49860   2.255   3.575   8.278 -0.1764  0.1745  0.4222
  370MOL0     C49861   3.257   3.106   8.460 -0.8678 -0.0556  0.8039
  370MOL0     C49862   3.393   3.119   8.467 -0.2440 -0.3660  0.1260
  370MOL0     O49863   3.605   3.238   8.231  0.2580  0.4155  0.2026
  370MOL0     C49864   3.892   3.057   8.368  0.2963 -0.4415  0.7694
  370MOL0     C49865   4.028   3.055   8.390  0.0580  0.2304 -0.1121
  370MOL0     N49866   4.812   3.224   8.368 -0.6281 -0.3817 -0.7630
  370MOL0     N49867   4.900   3.322   8.361 -0.4475  0.6160  0.7268
  370MOL0     C49868   5.963   3.900   8.561  0.4612 -0.1124 -0.2136
  370MOL0     C49869   6.097   3.871   8.573 -0.6654 -0.4146  0.0420
  370MOL0     C49870   6.502   3.896   8.672 -0.8791  0.2142 -0.0941
  370MOL0     C49871   6.578   4.016   8.661 -0.1096  0.2446 -0.4597
  370MOL0     C49872   6.722   4.002   8.655 -0.1470  0.0687 -0.5635
  370MOL0     C49873   6.777   3.880   8.645 -0.5215 -0.4135  0.8118
  370MOL0     O49874   6.913   3.875   8.631  0.1923 -0.0305  0.2138
  370MOL0     C49875   6.976   3.758   8.590  0.2716 -0.3457  0.3838
  370MOL0     C49876   7.129   3.769   8.583  0.3951 -1.3434  0.4456
  370MOL0     C49877   7.172   3.865   8.467 -0.2693 -0.1861  0.6520
  370MOL0     C49878   7.318   3.873   8.416  0.0949  0.0933 -0.2277
  370MOL0     C49879   7.419   3.903   8.521  1.2052 -0.1557 -0.0569
  370MOL0     C49880   7.498   3.913   8.608  0.7285 -0.4627  0.0447
  370MOL0     C49881   6.699   3.766   8.649  0.0910 -0.1889 -0.3646
  370MOL0     C49882   6.562   3.772   8.661  0.7143  0.3684 -0.0607
  370MOL0     H49883   6.129   3.717   8.872 -0.3624  2.5700  2.4567
  370MOL0     H49884   5.876   3.762   8.867  1.2081  0.5392  1.0678
  370MOL0     H49885   5.717   4.038   8.565  0.0703  0.6535 -0.0360
  370MOL0     H49886   5.696   3.882   8.476 -0.7194 -1.9348  0.8993
  370MOL0     H49887   5.511   3.958   8.700  1.0977 -0.1002  1.1441
  370MOL0     H49888   5.484   3.991   8.522 -1.9260 -1.4094 -1.3724
  370MOL0     H49889   5.482   3.750   8.465  0.7700  0.9507  0.4675
  370MOL0     H49890   5.511   3.706   8.627  1.5465  0.5416 -0.7033
  370MOL0     H49891   5.302   3.837   8.706 -0.9830  1.9130 -1.2455
  370MOL0     H49892   5.271   3.879   8.536 -2.1787  0.3541  0.1825
  370MOL0     H49893   5.235   3.649   8.480  0.3721 -0.7853 -0.5358
  370MOL0     H49894   5.291   3.596   8.650 -2.5624 -1.1400  3.3201
  370MOL0     H49895   5.093   3.700   8.752 -0.1733  0.6889 -0.2855
  370MOL0     H49896   5.047   3.775   8.602  1.2657  2.5561  2.8374
  370MOL0     H49897   5.066   3.472   8.659  0.2657  2.3159  3.1630
  370MOL0     H49898   4.934   3.570   8.708  2.2290  3.9048  3.2107
  370MOL0     H49899   5.005   3.562   8.403  0.3385 -0.8735 -0.5325
  370MOL0     H49900   4.858   3.597   8.483 -1.5969 -1.7451  0.5233
  370MOL0     H49901   4.753   3.390   8.646  2.1967  1.9333 -0.2774
  370MOL0     H49902   4.638   3.062   8.485  1.7571 -0.1588  0.4572
  370MOL0     H49903   4.639   3.149   8.639  0.0470  0.6239  0.4525
  370MOL0     H49904   4.465   3.319   8.525 -1.0056 -0.7309  0.7140
  370MOL0     H49905   4.400   3.159   8.526 -0.9538  2.4997  1.4116
  370MOL0     H49906   4.500   3.134   8.291 -1.0629 -2.6570  3.2835
  370MOL0     H49907   4.535   3.309   8.310  0.7209 -1.2182 -1.0652
  370MOL0     H49908   4.314   3.232   8.184  1.4971  0.1074  0.2233
  370MOL0     H49909   4.293   3.343   8.323 -1.8423 -0.0045 -0.5733
  370MOL0     H49910   4.096   3.351   8.237 -2.3883  0.5996 -2.6811
  370MOL0     H49911   3.778   3.445   8.232  0.5597  0.9164  0.1422
  370MOL0     H49912   3.929   3.449   8.142  0.0800  0.7280 -0.9478
  370MOL0     H49913   3.790   3.352   8.086  0.6400 -0.9954  0.9224
  370MOL0     H49914   3.481   2.929   8.198  3.2794  3.1060 -0.4208
  370MOL0     H49915   3.235   2.905   8.188 -1.4990 -1.3115  2.1205
  370MOL0     H49916   3.037   2.981   8.159  1.9704 -4.1427  0.2222
  370MOL0     H49917   3.010   2.867   8.291  2.1991  0.1039 -0.3086
  370MOL0     H49918   2.808   2.938   8.176  0.1023  0.3384  0.2124
  370MOL0     H49919   2.805   2.988   8.354  1.4778  1.8523  1.2068
  370MOL0     H49920   2.843   3.164   8.108  1.4458 -1.3593  1.1219
  370MOL0     H49921   2.873   3.222   8.281  1.0610 -0.2604  0.8277
  370MOL0     H49922   2.614   3.120   8.151 -1.0556 -1.0346 -0.3622
  370MOL0     H49923   2.636   3.169   8.322  0.0294  0.4922  0.3162
  370MOL0     H49924   2.690   3.340   8.073  1.8417  0.9232  1.5909
  370MOL0     H49925   2.717   3.382   8.240 -1.2620 -1.5953  4.3885
  370MOL0     H49926   2.436   3.299   8.141  0.2938 -1.4469  0.7357
  370MOL0     H49927   2.481   3.376   8.289  0.6994 -0.1150  0.3773
  370MOL0     H49928   2.531   3.542   8.044 -0.1525 -0.2019 -0.3101
  370MOL0     H49929   2.526   3.587   8.217 -0.4202 -1.6148 -0.3333
  370MOL0     H49930   2.283   3.481   8.061 -0.2908 -1.4286 -0.0298
  370MOL0     H49931   2.325   3.652   8.067 -3.2129 -1.6758 -1.4277
  370MOL0     H49932   3.198   3.161   8.533 -1.2862  3.1177 -1.7163
  370MOL0     H49933   3.438   3.193   8.533  0.7971 -1.8618  1.1522
  370MOL0     H49934   3.835   2.969   8.396  2.8601 -3.2109 -1.9128
  370MOL0     H49935   4.076   2.976   8.447  1.8132  1.2704 -0.0400
  370MOL0     H49936   5.910   3.937   8.474 -2.7000 -2.8922  0.3146
  370MOL0     H49937   6.161   3.908   8.494  1.1736 -0.3625  1.4823
  370MOL0     H49938   6.554   4.120   8.644  3.1259  0.8522 -2.0464
  370MOL0     H49939   6.785   4.088   8.636 -1.1027  0.6532 -1.1958
  370MOL0     H49940   6.975   3.682   8.669  1.4218  0.6180  1.3690
  370MOL0     H49941   6.930   3.721   8.499 -0.1636  0.4935  0.2507
  370MOL0     H49942   7.173   3.669   8.583  0.5823 -1.2740  1.6931
  370MOL0     H49943   7.167   3.809   8.677  1.3434 -0.2910 -0.3530
  370MOL0     H49944   7.134   3.965   8.490  0.9805  1.0743 -2.3169
  370MOL0     H49945   7.115   3.828   8.382  1.5192 -1.8096  0.0933
  370MOL0     H49946   7.331   3.953   8.342  0.0297 -0.1394 -0.4906
  370MOL0     H49947   7.343   3.779   8.368  0.6526  0.8939 -1.5669
  370MOL0     H49948   7.571   3.938   8.683  0.8493  0.0141 -0.2276
  370MOL0     H49949   6.750   3.670   8.655  1.1299  0.3801  0.0786
  370MOL0     H49950   6.496   3.686   8.651 -0.2578  1.1822 -0.8805
  371MOL0     O49951   0.698   0.162  10.969 -0.6232  0.1985 -0.5651
  371MOL0     C49952   0.679   0.084  11.061 -0.0649 -0.1129 -0.5485
  371MOL0     O49953   0.577   0.094  11.157 -0.8501  0.0895 -0.3536
  371MOL0     C49954   0.496   0.205  11.163 -0.3778 -0.5083  0.2816
  371MOL0     C49955   0.364   0.192  11.200  0.5998  0.9598  0.4458
  371MOL0     C49956   0.281   0.307  11.217 -0.3637  0.4773 -1.1070
  371MOL0     C49957   0.334   0.430  11.213 -0.1412  0.1716  0.6325
  371MOL0     O49958   0.266   0.543  11.245  0.6509  0.0129  0.2352
  371MOL0     C49959   0.146   0.575  11.165 -0.2790 -0.7648 -0.1131
  371MOL0     C49960   0.066   0.696  11.227  0.0774  0.0355  0.4247
  371MOL0     C49961  -0.070   0.717  11.150  0.4434  0.1699 -0.7487
  371MOL0     C49962  -0.172   0.620  11.199  0.8099  0.3386  0.2145
  371MOL0     C49963  -0.320   0.634  11.152  0.2400 -0.2766 -0.1578
  371MOL0     C49964  -0.414   0.531  11.216 -0.0595 -0.4927 -0.3722
  371MOL0     C49965  -0.566   0.570  11.199 -0.0197  1.1051 -0.2969
  371MOL0     C49966  -0.665   0.478  11.272  1.0793 -0.4945  0.2961
  371MOL0     N49967  -0.807   0.523  11.245  0.5864  0.1881 -0.3013
  371MOL0     C49968  -0.876   0.627  11.316 -0.6209  0.2942  0.2550
  371MOL0     C49969  -1.000   0.638  11.255  0.3952  0.5154  0.0954
  371MOL0     C49970  -1.112   0.735  11.287 -0.3059 -0.0224 -0.3931
  371MOL0     C49971  -1.256   0.680  11.255  0.2008  0.0662  0.0351
  371MOL0     C49972  -1.365   0.787  11.266 -0.7666 -0.3035 -0.1699
  371MOL0     C49973  -1.365   0.867  11.395 -0.5755 -0.0624  0.9133
  371MOL0     O49974  -1.422   0.790  11.505 -0.1552  0.2039  0.5374
  371MOL0     C49975  -1.556   0.758  11.508  0.1313  0.4254 -0.2204
  371MOL0     C49976  -1.660   0.830  11.440  0.3570  0.2877 -0.6096
  371MOL0     C49977  -1.788   0.779  11.449 -0.0256  0.8133 -0.1351
  371MOL0     C49978  -1.892   0.856  11.379 -0.5856 -0.2989  0.4176
  371MOL0     C49979  -1.823   0.660  11.525 -0.2051 -0.6174 -0.1498
  371MOL0     C49980  -1.958   0.624  11.535  0.9071  0.4680 -0.7321
  371MOL0     O49981  -2.058   0.718  11.531  0.5236 -0.2635  0.3127
  371MOL0     C49982  -2.189   0.678  11.547 -0.4836  0.4027 -0.5161
  371MOL0     C49983  -2.247   0.583  11.457  0.0164 -0.3104  0.2903
  371MOL0     C49984  -2.384   0.545  11.465  0.7845  0.2935 -0.1366
  371MOL0     C49985  -2.468   0.599  11.570 -1.2163  0.1249 -0.0601
  371MOL0     O49986  -2.598   0.552  11.579 -0.1575  1.1357  0.4647
  371MOL0     C49987  -2.694   0.640  11.628  0.9698  0.0579  0.3433
  371MOL0     C49988  -2.837   0.583  11.590 -0.0497  1.1010  0.4302
  371MOL0     C49989  -2.943   0.671  11.645  0.0938 -0.0213 -0.2315
  371MOL0     C49990  -3.088   0.620  11.612  0.0974  0.4537 -1.2813
  371MOL0     C49991  -3.190   0.712  11.690  0.3547  0.2106 -0.9308
  371MOL0     C49992  -3.336   0.677  11.720  0.6673  0.3314 -0.0042
  371MOL0     C49993  -3.404   0.663  11.592  0.0889 -0.0608  0.5777
  371MOL0     C49994  -3.547   0.617  11.605 -0.9865  0.3058  0.0604
  371MOL0    Cl49995  -3.565   0.450  11.680 -0.1666 -0.4060  0.2599
  371MOL0     C49996  -2.406   0.684  11.659 -1.1924 -0.7282 -0.2072
  371MOL0     C49997  -2.273   0.735  11.647 -0.8294 -0.5034  0.6265
  371MOL0     O49998  -1.976   0.512  11.577 -0.2119 -0.4078 -0.6991
  371MOL0     C49999  -1.711   0.592  11.589  0.2244  0.9150  0.2737
  371MOL0     C50000  -1.583   0.637  11.573 -0.1975 -0.0931  0.2186
  371MOL0     N50001  -1.005   0.535  11.161 -0.4421 -0.0807 -0.0650
  371MOL0     N50002  -0.896   0.466  11.150 -0.8958  0.3480 -0.0796
  371MOL0     C50003   0.469   0.444  11.191 -0.3055  0.3121  0.0749
  371MOL0     C50004   0.553   0.333  11.167  0.0531  0.6585 -0.0079
  371MOL0     C50005   0.785  -0.018  11.078  0.1099  0.5679 -0.0007
  371MOL0     C50006   0.762  -0.115  11.178  0.3084  0.2923 -0.8195
  371MOL0     C50007   0.854  -0.215  11.207 -0.7522  0.3831  0.9532
  371MOL0     C50008   0.959  -0.234  11.118 -0.2213 -0.2735 -0.0444
  371MOL0     O50009   1.025  -0.352  11.136 -0.3481  0.1920 -0.2418
  371MOL0     C50010   1.146  -0.369  11.063 -0.5682  0.6596  0.0053
  371MOL0     C50011   1.202  -0.507  11.096 -0.2091  0.4701 -0.0680
  371MOL0     C50012   1.254  -0.598  10.981  0.2334  0.5876 -0.1173
  371MOL0     C50013   1.367  -0.703  11.028  0.1295 -0.8244 -0.0215
  371MOL0     C50014   1.367  -0.821  10.940 -0.4471 -0.1103 -0.5502
  371MOL0     C50015   1.368  -0.916  10.866 -0.2240  0.0087  0.3677
  371MOL0     C50016   0.984  -0.138  11.018 -1.0346 -0.3719 -0.3765
  371MOL0     C50017   0.902  -0.025  11.005 -0.1728  0.0062  0.1063
  371MOL0     H50018   0.320   0.094  11.210  0.6728  0.9197  0.3711
  371MOL0     H50019   0.180   0.287  11.252 -0.7290 -0.9577 -2.8151
  371MOL0     H50020   0.178   0.603  11.064  3.4030  3.6934  1.8937
  371MOL0     H50021   0.073   0.493  11.163  0.2848 -1.2502 -1.0918
  371MOL0     H50022   0.027   0.677  11.327 -1.9949  3.5129  0.4414
  371MOL0     H50023   0.117   0.792  11.217 -1.9633  0.9467 -2.6541
  371MOL0     H50024  -0.112   0.816  11.170  0.1126 -0.0409 -0.3864
  371MOL0     H50025  -0.048   0.714  11.043 -1.1853  2.1551 -1.2074
  371MOL0     H50026  -0.135   0.519  11.178 -1.1690 -0.4855  0.4041
  371MOL0     H50027  -0.168   0.625  11.308  0.7805  4.1095  0.1840
  371MOL0     H50028  -0.353   0.735  11.178  2.8742  0.8964 -1.0272
  371MOL0     H50029  -0.330   0.623  11.044 -0.5004  1.5847 -0.3080
  371MOL0     H50030  -0.407   0.431  11.172  1.9526 -0.5544 -0.0105
  371MOL0     H50031  -0.394   0.525  11.324  0.5112 -3.2629 -0.5602
  371MOL0     H50032  -0.584   0.675  11.223 -0.4570  1.3502 -1.5874
  371MOL0     H50033  -0.586   0.561  11.092 -2.9177  0.9620  0.1846
  371MOL0     H50034  -0.659   0.484  11.381 -0.3090 -1.6063  0.4536
  371MOL0     H50035  -0.645   0.377  11.235  3.2218 -0.4342  1.1461
  371MOL0     H50036  -0.842   0.683  11.403 -1.6987 -0.3597  1.1159
  371MOL0     H50037  -1.098   0.754  11.394  0.9233 -0.0008 -0.5438
  371MOL0     H50038  -1.094   0.826  11.229 -0.3908  0.7397  0.7505
  371MOL0     H50039  -1.273   0.592  11.317  1.8475 -0.1864  0.1653
  371MOL0     H50040  -1.251   0.647  11.151 -0.1364  0.6015 -0.1574
  371MOL0     H50041  -1.466   0.755  11.238 -0.9225 -0.1728  0.2436
  371MOL0     H50042  -1.340   0.863  11.192  1.4559 -1.0998 -0.3128
  371MOL0     H50043  -1.421   0.958  11.374 -0.1508 -0.2923 -1.4220
  371MOL0     H50044  -1.263   0.896  11.423 -1.0811  2.5698  0.2694
  371MOL0     H50045  -1.645   0.923  11.387 -0.4421 -0.0091 -1.3706
  371MOL0     H50046  -1.949   0.919  11.447  0.5634 -0.6837  1.7785
  371MOL0     H50047  -1.832   0.928  11.322  1.0493 -2.4561 -0.7453
  371MOL0     H50048  -1.947   0.789  11.312 -2.2326  0.0885  1.3511
  371MOL0     H50049  -2.174   0.539  11.389  0.9918 -1.2396  1.8716
  371MOL0     H50050  -2.433   0.467  11.407 -1.2714 -0.1171  2.0053
  371MOL0     H50051  -2.697   0.659  11.736 -3.4518  1.8267  0.1407
  371MOL0     H50052  -2.676   0.735  11.576 -0.5304  1.2803  1.9188
  371MOL0     H50053  -2.859   0.563  11.485 -1.2585  1.3590  0.6218
  371MOL0     H50054  -2.850   0.495  11.654 -2.7920  1.9122  1.1043
  371MOL0     H50055  -2.936   0.773  11.607 -1.4008 -0.2102 -1.1178
  371MOL0     H50056  -2.926   0.684  11.753  2.4247  1.0212 -0.6679
  371MOL0     H50057  -3.101   0.624  11.504 -1.1020 -0.2664 -1.1794
  371MOL0     H50058  -3.099   0.520  11.655  5.9635  0.5149  1.3840
  371MOL0     H50059  -3.192   0.815  11.653 -0.5783  1.7661  2.9741
  371MOL0     H50060  -3.152   0.713  11.792  0.8803 -3.8269 -0.9170
  371MOL0     H50061  -3.338   0.585  11.780  0.8387 -0.4294 -1.1324
  371MOL0     H50062  -3.379   0.753  11.785 -1.7745 -0.8386 -0.1275
  371MOL0     H50063  -3.353   0.595  11.523 -0.4190  2.1794 -2.1624
  371MOL0     H50064  -3.416   0.760  11.543  1.5551  0.4318  1.1337
  371MOL0     H50065  -3.592   0.614  11.505  1.3204  0.2161 -1.0436
  371MOL0     H50066  -3.607   0.683  11.668 -0.3744 -1.3255  2.4967
  371MOL0     H50067  -2.446   0.725  11.750  2.9724  2.4131  0.5344
  371MOL0     H50068  -2.226   0.798  11.722 -2.0265 -0.2979  1.2169
  371MOL0     H50069  -1.741   0.496  11.630  0.8999  0.6465  0.1672
  371MOL0     H50070  -1.502   0.580  11.616 -1.2231 -1.0515  0.9416
  371MOL0     H50071   0.513   0.543  11.196 -2.7351  1.4264  2.8638
  371MOL0     H50072   0.660   0.345  11.151 -0.0721 -0.8511 -2.4314
  371MOL0     H50073   0.676  -0.132  11.242  0.9840 -0.2172 -0.0157
  371MOL0     H50074   0.828  -0.287  11.284 -3.5799 -3.3350 -3.0000
  371MOL0     H50075   1.134  -0.366  10.954  2.5955  2.6263 -0.4312
  371MOL0     H50076   1.219  -0.294  11.095 -0.9108  0.7323  0.6199
  371MOL0     H50077   1.129  -0.561  11.157 -0.6572  0.5190 -0.5550
  371MOL0     H50078   1.278  -0.486  11.172  0.4323  1.5808 -0.9903
  371MOL0     H50079   1.300  -0.534  10.905 -1.3352  1.2863 -0.4994
  371MOL0     H50080   1.167  -0.654  10.946  0.8478  0.1570 -1.0210
  371MOL0     H50081   1.356  -0.734  11.132  1.9747 -1.7718 -0.0844
  371MOL0     H50082   1.461  -0.647  11.029 -1.7154  2.5575  0.5131
  371MOL0     H50083   1.384  -1.001  10.803 -0.9376 -0.7221  1.1547
  371MOL0     H50084   1.072  -0.139  10.955 -1.8986 -3.8415 -1.7414
  371MOL0     H50085   0.930   0.038  10.921 -2.1111  0.5283 -0.1818
  372MOL0     O50086   9.825   7.264   0.686 -0.2605 -0.0727 -0.4429
  372MOL0     C50087   9.870   7.201   0.780 -0.6917  0.6215  0.5265
  372MOL0     O50088   9.824   7.076   0.826  0.1543  0.3291  0.4812
  372MOL0     C50089   9.699   7.035   0.789  0.0668  0.5922 -0.1894
  372MOL0     C50090   9.604   6.998   0.888  0.9741 -0.2623  0.3398
  372MOL0     C50091   9.473   6.955   0.844 -0.5272 -0.1492 -0.3563
  372MOL0     C50092   9.453   6.920   0.714  0.4302 -0.9524  0.4996
  372MOL0     O50093   9.330   6.864   0.687 -0.7014  0.1428  0.6393
  372MOL0     C50094   9.321   6.801   0.561  0.1178 -0.2690  0.1386
  372MOL0     C50095   9.188   6.729   0.547 -0.5090 -0.3167 -0.1621
  372MOL0     C50096   9.153   6.621   0.654  0.5557 -0.0871  0.0295
  372MOL0     C50097   9.013   6.571   0.616  0.3260  0.0362 -0.1318
  372MOL0     C50098   8.941   6.475   0.723  0.6392 -0.4887  0.8973
  372MOL0     C50099   8.799   6.442   0.660  0.0563 -0.7398 -0.4169
  372MOL0     C50100   8.722   6.353   0.750 -0.6324  0.0601  0.3025
  372MOL0     C50101   8.586   6.329   0.677  0.4676  0.1684  0.3939
  372MOL0     N50102   8.467   6.280   0.755  0.3977 -1.6013  0.8372
  372MOL0     C50103   8.404   6.344   0.860  0.8716 -0.1586 -0.0322
  372MOL0     C50104   8.290   6.273   0.892 -0.4870 -0.4590  0.9649
  372MOL0     C50105   8.199   6.323   0.998  0.3202 -0.4998 -0.3369
  372MOL0     C50106   8.052   6.324   0.954 -1.3149  0.2361 -0.2780
  372MOL0     C50107   7.964   6.358   1.069 -0.7105 -0.7049  0.7185
  372MOL0     C50108   7.824   6.330   1.051  0.4793  0.7269  0.0693
  372MOL0     O50109   7.769   6.392   0.943 -0.4798  0.0864 -0.2496
  372MOL0     C50110   7.627   6.388   0.945 -0.8569 -0.5055  1.7182
  372MOL0     C50111   7.538   6.403   1.055  0.0905 -0.0948  1.1880
  372MOL0     C50112   7.399   6.387   1.034  1.1898  0.6684 -0.4673
  372MOL0     C50113   7.309   6.428   1.154  0.8593 -0.1337 -0.2659
  372MOL0     C50114   7.353   6.361   0.906 -0.3203  0.0445 -0.3347
  372MOL0     C50115   7.210   6.324   0.878 -0.3368 -0.7111  0.4100
  372MOL0     O50116   7.164   6.348   0.751  0.7521 -0.0882  0.3801
  372MOL0     C50117   7.033   6.363   0.733  0.3381 -0.0651  0.0506
  372MOL0     C50118   6.947   6.420   0.829 -0.7340  0.4924 -0.6721
  372MOL0     C50119   6.805   6.420   0.803  0.2562  0.2321  0.9047
  372MOL0     C50120   6.754   6.385   0.679 -0.3489  0.2031  0.8452
  372MOL0     O50121   6.625   6.408   0.643  0.4580  0.2162 -0.0941
  372MOL0     C50122   6.523   6.366   0.736  0.1368  0.7342  0.8134
  372MOL0     C50123   6.484   6.488   0.824 -0.1313 -0.2061 -0.1541
  372MOL0     C50124   6.427   6.450   0.961 -0.1100 -0.3923  0.2843
  372MOL0     C50125   6.364   6.570   1.022 -0.2607 -0.7677 -0.1221
  372MOL0     C50126   6.225   6.623   0.965  0.2174  0.4892 -0.4121
  372MOL0     C50127   6.120   6.513   0.996  0.3217  0.5851  0.2294
  372MOL0     C50128   5.964   6.557   0.990  0.1013 -0.3095 -0.6362
  372MOL0     C50129   5.873   6.443   1.030  0.2221  0.4650 -0.0997
  372MOL0    Cl50130   5.704   6.491   1.015 -0.1610  0.1066 -0.2107
  372MOL0     C50131   6.846   6.340   0.577 -0.6723  0.4637 -0.0153
  372MOL0     C50132   6.978   6.324   0.610 -0.4046  0.1815  0.1695
  372MOL0     O50133   7.147   6.277   0.972  0.0779 -0.7585  0.1331
  372MOL0     C50134   7.447   6.354   0.802 -0.3144  0.3506 -0.6476
  372MOL0     C50135   7.580   6.377   0.820 -0.4814 -0.9406 -0.4331
  372MOL0     N50136   8.276   6.172   0.794 -0.1171  0.7715  1.0181
  372MOL0     N50137   8.380   6.188   0.709  0.7276 -0.7378  0.8155
  372MOL0     C50138   9.540   6.951   0.618  0.2397  0.5869  0.5401
  372MOL0     C50139   9.668   7.007   0.654 -0.0204 -1.0124 -0.6429
  372MOL0     C50140   9.990   7.249   0.846  0.2379  0.9855 -0.4547
  372MOL0     C50141  10.054   7.368   0.809  0.6158  0.1118  1.3745
  372MOL0     C50142  10.173   7.398   0.866  0.1290  0.4403  0.2996
  372MOL0     C50143  10.227   7.324   0.970  0.4640  0.6117 -0.2480
  372MOL0     O50144  10.346   7.352   1.025 -0.3890 -0.3744 -0.1691
  372MOL0     C50145  10.454   7.275   0.973  0.0130 -0.0537 -0.1802
  372MOL0     C50146  10.568   7.262   1.079 -0.3170  0.2748  0.9143
  372MOL0     C50147  10.635   7.117   1.079 -0.9959  0.1420 -0.3649
  372MOL0     C50148  10.766   7.121   1.162  0.1524  0.0112  0.1303
  372MOL0     C50149  10.824   6.991   1.129 -0.0490 -0.1679 -0.1372
  372MOL0     C50150  10.877   6.884   1.107  0.1726 -0.4576  0.8382
  372MOL0     C50151  10.167   7.205   1.007 -0.3907 -0.3075  0.1495
  372MOL0     C50152  10.048   7.171   0.951  0.5363 -0.7928 -0.0153
  372MOL0     H50153   9.628   7.012   0.993 -1.6877 -0.2371  1.0215
  372MOL0     H50154   9.402   6.940   0.925 -1.6106  1.2390 -1.0068
  372MOL0     H50155   9.333   6.879   0.485  1.8566 -1.6620 -1.0869
  372MOL0     H50156   9.407   6.734   0.548  2.4723  2.9066 -2.1783
  372MOL0     H50157   9.117   6.812   0.548 -0.9068 -0.6513 -0.5871
  372MOL0     H50158   9.191   6.684   0.447 -1.6997  0.7593 -0.7119
  372MOL0     H50159   9.216   6.532   0.648  0.0337 -0.4620  0.0349
  372MOL0     H50160   9.165   6.664   0.754 -0.2383  2.0008 -0.7238
  372MOL0     H50161   8.949   6.659   0.616 -1.4213 -0.9778  4.2395
  372MOL0     H50162   9.018   6.524   0.517 -3.6076 -1.8121  0.3872
  372MOL0     H50163   9.004   6.386   0.727  0.1347 -1.0732 -1.7556
  372MOL0     H50164   8.927   6.528   0.817 -0.8550  0.4201  0.2128
  372MOL0     H50165   8.749   6.534   0.630  1.5412  0.5566  0.9085
  372MOL0     H50166   8.813   6.384   0.568  0.2658  1.7596 -2.0640
  372MOL0     H50167   8.777   6.260   0.770 -0.8455 -0.0812  0.2397
  372MOL0     H50168   8.706   6.397   0.848  0.9109 -2.0283  1.5858
  372MOL0     H50169   8.597   6.244   0.609 -1.3143  0.4320 -0.2869
  372MOL0     H50170   8.557   6.413   0.613 -2.3175 -2.7863 -2.6009
  372MOL0     H50171   8.436   6.438   0.903 -2.4893  1.5542 -0.8843
  372MOL0     H50172   8.218   6.249   1.077 -0.7237  0.5545  0.9334
  372MOL0     H50173   8.221   6.423   1.037  0.5585 -0.7564  0.1978
  372MOL0     H50174   8.031   6.234   0.896  0.3532  0.5248 -1.4312
  372MOL0     H50175   8.035   6.404   0.881 -1.8295  1.3396  1.0091
  372MOL0     H50176   7.963   6.464   1.097  0.1574 -0.3936 -0.3802
  372MOL0     H50177   8.007   6.316   1.160  0.9793  2.0966  1.3261
  372MOL0     H50178   7.786   6.370   1.145 -1.9182  0.8383 -0.8795
  372MOL0     H50179   7.798   6.225   1.036  0.6317  0.8797 -1.5007
  372MOL0     H50180   7.575   6.426   1.155 -2.4147  2.5846  1.6176
  372MOL0     H50181   7.216   6.478   1.126  0.6811  0.1490  0.7996
  372MOL0     H50182   7.301   6.330   1.204  1.6743 -0.9999 -1.7580
  372MOL0     H50183   7.356   6.499   1.222  0.6892 -0.8811  0.6611
  372MOL0     H50184   6.986   6.446   0.927 -2.6442 -1.4739  0.7051
  372MOL0     H50185   6.734   6.449   0.880 -2.4585  1.1839 -1.7504
  372MOL0     H50186   6.437   6.327   0.682  2.1036  0.2121 -2.1421
  372MOL0     H50187   6.557   6.280   0.795  0.1665 -0.5975 -1.0876
  372MOL0     H50188   6.571   6.553   0.832 -0.2036 -0.0259 -0.7789
  372MOL0     H50189   6.409   6.546   0.769  1.4370 -0.7426 -3.0830
  372MOL0     H50190   6.510   6.420   1.026  2.3564  3.4193 -0.7992
  372MOL0     H50191   6.348   6.375   0.948 -0.9916  0.4772  0.5446
  372MOL0     H50192   6.348   6.552   1.129 -0.6431  0.7476  0.1036
  372MOL0     H50193   6.436   6.652   1.014 -1.7116  0.7062  1.0063
  372MOL0     H50194   6.218   6.650   0.859  0.3111 -0.5481 -0.6888
  372MOL0     H50195   6.195   6.710   1.025  1.6115 -0.2793  1.4854
  372MOL0     H50196   6.126   6.421   0.938  0.5154  0.5917  0.2386
  372MOL0     H50197   6.133   6.489   1.102 -0.1741  1.1451  0.4209
  372MOL0     H50198   5.935   6.591   0.890  1.2526 -1.3957 -1.3575
  372MOL0     H50199   5.956   6.635   1.066 -0.2371 -0.7519 -0.2143
  372MOL0     H50200   5.906   6.417   1.131 -2.2449  1.0260  0.9125
  372MOL0     H50201   5.878   6.356   0.963 -3.7834  0.4894 -0.7105
  372MOL0     H50202   6.807   6.314   0.479 -0.7068  0.8080 -0.0928
  372MOL0     H50203   7.037   6.274   0.533  0.2059  1.5567 -0.2949
  372MOL0     H50204   7.414   6.347   0.699 -0.7411 -2.2736 -0.3959
  372MOL0     H50205   7.651   6.381   0.738  2.7577 -3.4646  1.9110
  372MOL0     H50206   9.528   6.948   0.510  2.3537  0.2248  0.2677
  372MOL0     H50207   9.740   7.028   0.575 -0.9758  1.3101 -0.9812
  372MOL0     H50208  10.019   7.447   0.744 -0.4560 -0.6306  1.0148
  372MOL0     H50209  10.215   7.493   0.837 -0.6901  0.0558 -2.4803
  372MOL0     H50210  10.422   7.170   0.965  1.4868 -0.5630  0.1492
  372MOL0     H50211  10.482   7.314   0.875  0.5347  0.2706  0.0935
  372MOL0     H50212  10.537   7.270   1.183  1.3273 -0.9040  1.5580
  372MOL0     H50213  10.636   7.343   1.050  0.1223 -0.1731  0.6625
  372MOL0     H50214  10.652   7.091   0.975 -0.5134  3.0487 -1.1106
  372MOL0     H50215  10.566   7.040   1.115 -0.4221  0.0486  0.5799
  372MOL0     H50216  10.749   7.139   1.268  2.6294  0.0475  0.5946
  372MOL0     H50217  10.823   7.208   1.128  1.7317 -1.0055  0.0669
  372MOL0     H50218  10.918   6.785   1.108 -1.2519 -1.0716  1.1660
  372MOL0     H50219  10.235   7.146   1.069  2.3605  3.3610  0.9429
  372MOL0     H50220  10.012   7.075   0.988  0.0401 -1.1323 -1.3024
  373MOL0     O50221   2.865   3.702   1.791  0.7807  0.2759  0.5720
  373MOL0     C50222   2.899   3.601   1.846  0.0987 -0.0755 -0.1675
  373MOL0     O50223   2.817   3.525   1.922  0.1872 -0.3871 -0.1511
  373MOL0     C50224   2.685   3.562   1.938  0.5615 -0.1551  0.0503
  373MOL0     C50225   2.585   3.541   1.836  0.2755 -0.2198 -0.7512
  373MOL0     C50226   2.452   3.583   1.863  0.6629  0.3789  0.6217
  373MOL0     C50227   2.419   3.640   1.982 -0.0954 -0.0536 -0.2514
  373MOL0     O50228   2.290   3.698   1.977 -0.1893  0.3962 -0.7258
  373MOL0     C50229   2.272   3.808   2.064 -0.2924  0.0083 -0.6776
  373MOL0     C50230   2.158   3.896   2.019 -0.1155 -0.1249  0.1879
  373MOL0     C50231   2.020   3.853   2.056  0.8645 -0.2280  0.7222
  373MOL0     C50232   1.928   3.971   2.069 -0.8184  0.2896  0.2397
  373MOL0     C50233   1.776   3.942   2.072 -0.3328  0.0903  0.7013
  373MOL0     C50234   1.687   4.068   2.105 -0.2930 -0.9116  0.5569
  373MOL0     C50235   1.536   4.012   2.141 -0.1535 -0.6789 -0.2420
  373MOL0     C50236   1.471   3.980   2.004  0.8592  0.1060 -0.7457
  373MOL0     N50237   1.332   3.930   2.023 -0.1831  0.0734  0.1298
  373MOL0     C50238   1.220   4.020   2.025 -1.2380 -0.0372 -0.3180
  373MOL0     C50239   1.120   3.941   2.066 -0.4068  0.4590  0.2441
  373MOL0     C50240   0.986   3.990   2.100 -0.4487  0.0763 -0.6255
  373MOL0     C50241   0.900   3.992   1.978  0.2443 -0.6287 -0.1172
  373MOL0     C50242   0.756   4.000   2.019  0.1796  0.5281  0.7978
  373MOL0     C50243   0.664   3.989   1.902  0.4510  0.2107  0.1939
  373MOL0     O50244   0.528   3.992   1.956  0.1537  0.5248 -0.2139
  373MOL0     C50245   0.453   3.882   1.930 -0.1628 -0.4843  0.4135
  373MOL0     C50246   0.511   3.756   1.906 -0.1260 -0.0244  0.5469
  373MOL0     C50247   0.418   3.653   1.867 -0.8150  0.3485 -1.0967
  373MOL0     C50248   0.475   3.522   1.829  0.4955  0.1368  0.0887
  373MOL0     C50249   0.274   3.666   1.876 -0.6730 -0.5497  0.3118
  373MOL0     C50250   0.177   3.569   1.838  0.7582  0.0513  1.0414
  373MOL0     O50251   0.057   3.617   1.815 -0.5223 -0.5600 -0.2375
  373MOL0     C50252  -0.032   3.534   1.752  0.6344 -0.3043  0.5993
  373MOL0     C50253  -0.152   3.510   1.814 -0.0934 -0.2598 -0.3468
  373MOL0     C50254  -0.248   3.422   1.770  0.2518  0.1185  0.2489
  373MOL0     C50255  -0.225   3.353   1.652 -0.1721 -0.2605  0.0259
  373MOL0     O50256  -0.328   3.271   1.609  0.1402 -0.6529 -0.3333
  373MOL0     C50257  -0.328   3.240   1.470  0.0743 -0.2979 -0.3581
  373MOL0     C50258  -0.450   3.163   1.449 -0.3959  0.2241 -0.4038
  373MOL0     C50259  -0.483   3.154   1.303 -0.8133  0.5501 -0.0262
  373MOL0     C50260  -0.606   3.072   1.268 -0.3098  0.1068  0.1244
  373MOL0     C50261  -0.630   3.084   1.119  0.2777  0.1794 -0.1740
  373MOL0     C50262  -0.734   2.976   1.069  0.6029  0.4663 -0.2683
  373MOL0     C50263  -0.878   3.008   1.113 -0.9181  0.1230 -0.7804
  373MOL0     C50264  -0.981   2.896   1.095  0.0166 -0.2347  0.2581
  373MOL0    Cl50265  -0.908   2.736   1.117 -0.0906  0.2359  0.0620
  373MOL0     C50266  -0.109   3.374   1.578 -0.2731 -0.3219  1.0043
  373MOL0     C50267  -0.008   3.469   1.628  0.0846 -0.5546 -0.2110
  373MOL0     O50268   0.206   3.452   1.818  0.7519 -0.2132 -0.2429
  373MOL0     C50269   0.222   3.789   1.924  0.1391 -0.6209  0.4657
  373MOL0     C50270   0.314   3.894   1.934  0.4254  1.0459 -0.3583
  373MOL0     N50271   1.163   3.812   2.065  0.7878  0.9670  0.1019
  373MOL0     N50272   1.293   3.801   2.050 -0.3003 -0.0626  0.1900
  373MOL0     C50273   2.513   3.664   2.087  0.4545 -0.1599  0.2456
  373MOL0     C50274   2.643   3.623   2.060 -0.1678  0.4521  0.6983
  373MOL0     C50275   3.027   3.546   1.825  0.2389 -1.1912 -0.6696
  373MOL0     C50276   3.110   3.619   1.748 -0.2240 -0.1095  0.1622
  373MOL0     C50277   3.240   3.580   1.727 -0.3176  0.3678  0.0345
  373MOL0     C50278   3.291   3.462   1.780  0.0278  0.0282  0.1417
  373MOL0     O50279   3.421   3.434   1.753 -0.0969 -0.2087 -0.2018
  373MOL0     C50280   3.487   3.322   1.803 -0.2268  0.8623  0.0318
  373MOL0     C50281   3.639   3.338   1.772  0.2433 -0.8615 -0.3477
  373MOL0     C50282   3.706   3.429   1.870  0.2744  0.0516 -0.3942
  373MOL0     C50283   3.847   3.448   1.863  0.0311 -0.0618 -0.5075
  373MOL0     C50284   3.887   3.563   1.946 -0.8533  0.2507  0.0553
  373MOL0     C50285   3.897   3.668   2.006 -0.2899 -0.1610  0.1813
  373MOL0     C50286   3.205   3.377   1.856 -0.8791  0.2073 -0.0645
  373MOL0     C50287   3.072   3.420   1.869 -0.8692 -0.4394 -0.2017
  373MOL0     H50288   2.604   3.499   1.737 -4.2866  0.9333 -2.3448
  373MOL0     H50289   2.376   3.567   1.788  2.1356 -1.0110 -0.6536
  373MOL0     H50290   2.244   3.769   2.162 -2.4626  1.4974 -0.6482
  373MOL0     H50291   2.355   3.880   2.061 -1.0125  0.8948  0.2144
  373MOL0     H50292   2.182   3.994   2.061 -0.1294  0.5548 -1.3156
  373MOL0     H50293   2.156   3.912   1.910 -0.6374  1.5442  0.4058
  373MOL0     H50294   1.968   3.797   1.978  0.8434  1.9593 -0.8992
  373MOL0     H50295   2.024   3.789   2.145  1.1412 -0.6165  0.4348
  373MOL0     H50296   1.950   4.023   2.163  0.3074  0.2712  0.0052
  373MOL0     H50297   1.954   4.041   1.989 -1.6737 -0.0926 -0.3774
  373MOL0     H50298   1.749   3.885   1.983  3.2142  0.3219 -0.6359
  373MOL0     H50299   1.760   3.876   2.158  0.4863 -0.2493  0.6002
  373MOL0     H50300   1.729   4.128   2.186 -3.4092  3.9878 -1.0169
  373MOL0     H50301   1.688   4.127   2.013  0.1112 -0.2374  0.9895
  373MOL0     H50302   1.538   3.932   2.216  1.7901 -0.3801  0.0661
  373MOL0     H50303   1.492   4.094   2.198  2.3624  1.1851 -0.8156
  373MOL0     H50304   1.528   3.915   1.938  0.9666  0.2347 -0.7798
  373MOL0     H50305   1.456   4.074   1.950  2.3542 -0.4105 -2.1145
  373MOL0     H50306   1.231   4.127   2.014  0.2195 -0.0627  0.6255
  373MOL0     H50307   0.951   3.915   2.173  1.2915  0.3460  0.5566
  373MOL0     H50308   0.986   4.088   2.147  0.9270 -0.5583  0.8236
  373MOL0     H50309   0.909   3.901   1.917  1.3805 -0.9509  0.5087
  373MOL0     H50310   0.929   4.069   1.906  1.3008 -3.2810 -2.7926
  373MOL0     H50311   0.737   4.095   2.069  0.0260  1.6254 -1.2405
  373MOL0     H50312   0.730   3.919   2.088 -0.2035 -0.5459 -0.5504
  373MOL0     H50313   0.682   3.900   1.842 -2.3529 -0.4159  0.1438
  373MOL0     H50314   0.673   4.084   1.848 -0.8341  2.5666  3.7803
  373MOL0     H50315   0.616   3.729   1.906 -0.0218  0.3436  1.2629
  373MOL0     H50316   0.436   3.442   1.892  1.5676 -0.2680  0.2494
  373MOL0     H50317   0.456   3.499   1.724  0.0827  1.0292 -0.0456
  373MOL0     H50318   0.583   3.519   1.840  1.1838  3.4144 -3.4583
  373MOL0     H50319  -0.168   3.564   1.907  0.6938 -2.0972  0.9139
  373MOL0     H50320  -0.341   3.403   1.824 -0.0357  0.5904 -0.0725
  373MOL0     H50321  -0.326   3.322   1.398 -2.9168 -1.1000 -1.5067
  373MOL0     H50322  -0.237   3.189   1.439 -0.0124 -1.0278  0.5363
  373MOL0     H50323  -0.439   3.064   1.495 -4.1886  0.4240  1.2936
  373MOL0     H50324  -0.533   3.201   1.508  1.2360 -0.6100  2.6419
  373MOL0     H50325  -0.404   3.100   1.250 -2.1595 -0.2701 -1.2358
  373MOL0     H50326  -0.488   3.256   1.265  0.2511  0.7795  0.4027
  373MOL0     H50327  -0.596   2.965   1.289  2.1946 -0.6692 -3.9739
  373MOL0     H50328  -0.692   3.110   1.325 -1.0023 -0.4842 -0.4982
  373MOL0     H50329  -0.535   3.067   1.066  0.3216 -0.7761  0.1846
  373MOL0     H50330  -0.672   3.183   1.103  0.0103  0.1869  0.5326
  373MOL0     H50331  -0.739   2.956   0.962 -0.8992 -2.9891  0.3321
  373MOL0     H50332  -0.707   2.878   1.110  2.0936  1.1861  0.5720
  373MOL0     H50333  -0.918   3.095   1.059  0.6781  0.1998 -1.9084
  373MOL0     H50334  -0.881   3.045   1.216 -0.9588 -0.6967 -0.4758
  373MOL0     H50335  -1.018   2.902   0.992  0.3783  0.8607  0.1742
  373MOL0     H50336  -1.063   2.911   1.166  2.3468  1.7621  2.7819
  373MOL0     H50337  -0.087   3.322   1.485  3.5113  1.4493  0.6745
  373MOL0     H50338   0.086   3.481   1.575 -0.2317  0.4427 -0.5604
  373MOL0     H50339   0.120   3.820   1.947 -0.3304 -1.2233 -0.7391
  373MOL0     H50340   0.280   3.991   1.970 -1.0876 -0.4931  2.7662
  373MOL0     H50341   2.477   3.723   2.170 -0.9653 -0.8623  0.1694
  373MOL0     H50342   2.721   3.632   2.135  0.0260 -2.9702  1.0518
  373MOL0     H50343   3.081   3.715   1.707  1.0314 -0.3321 -1.3361
  373MOL0     H50344   3.300   3.657   1.680 -0.0390  0.4585  0.5269
  373MOL0     H50345   3.479   3.311   1.912  0.4352  0.4783  0.0524
  373MOL0     H50346   3.447   3.232   1.756  1.6691 -0.1214  0.1970
  373MOL0     H50347   3.654   3.382   1.673  1.1632  0.0419  0.1765
  373MOL0     H50348   3.685   3.239   1.775 -0.8948 -1.4810  4.3288
  373MOL0     H50349   3.684   3.382   1.966 -0.2503 -1.6135 -1.2726
  373MOL0     H50350   3.653   3.524   1.857 -0.5357 -0.3094  0.2296
  373MOL0     H50351   3.868   3.458   1.756 -0.4575 -3.8340 -1.0766
  373MOL0     H50352   3.907   3.361   1.891  1.0927  1.0915  0.9682
  373MOL0     H50353   3.882   3.769   2.038 -1.3786 -0.5233  0.8543
  373MOL0     H50354   3.229   3.285   1.908  1.2064  1.5102  1.4536
  373MOL0     H50355   3.004   3.361   1.930  0.9141 -2.3012  0.0846
  374MOL0     O50356   9.512   1.476   9.384 -0.0576  0.5606 -0.4382
  374MOL0     C50357   9.546   1.380   9.460 -0.7325 -0.7241  0.1998
  374MOL0     O50358   9.458   1.312   9.538  0.0624 -0.1605 -0.6373
  374MOL0     C50359   9.337   1.372   9.557  0.2694 -0.3393 -0.1333
  374MOL0     C50360   9.324   1.482   9.644  0.4540  0.2875  0.2952
  374MOL0     C50361   9.197   1.538   9.665  0.5333 -0.2165  0.2924
  374MOL0     C50362   9.079   1.481   9.603  0.1012  0.0745 -0.4427
  374MOL0     O50363   8.952   1.520   9.628  0.6792 -0.4584 -0.5050
  374MOL0     C50364   8.936   1.640   9.702 -0.5533 -0.2613 -0.7776
  374MOL0     C50365   8.795   1.697   9.689  0.3703  0.0056 -0.8580
  374MOL0     C50366   8.737   1.773   9.806  0.0833 -0.3900  1.3155
  374MOL0     C50367   8.588   1.799   9.792  1.3549  0.0690 -0.1463
  374MOL0     C50368   8.521   1.879   9.914  0.8931 -0.0606  0.6104
  374MOL0     C50369   8.379   1.898   9.890 -0.0687  0.9261 -0.0371
  374MOL0     C50370   8.322   1.986   9.994  0.3690  1.0435 -0.2280
  374MOL0     C50371   8.386   2.122  10.013 -0.2464  0.2914  0.5486
  374MOL0     N50372   8.370   2.220   9.901 -1.0945 -0.5391 -0.2732
  374MOL0     C50373   8.475   2.247   9.810 -0.0245 -0.4528  0.7963
  374MOL0     C50374   8.425   2.354   9.731  0.3470  0.8137 -0.4166
  374MOL0     C50375   8.497   2.433   9.623 -0.6711 -0.2750 -0.1959
  374MOL0     C50376   8.427   2.429   9.484  0.5872  0.1476 -0.0802
  374MOL0     C50377   8.281   2.475   9.476  0.2203 -0.7808 -0.5523
  374MOL0     C50378   8.235   2.500   9.332 -0.4196  0.8473  0.3216
  374MOL0     O50379   8.232   2.370   9.267 -0.1805 -0.4581 -0.3752
  374MOL0     C50380   8.103   2.314   9.247 -0.0647 -0.2726  0.3324
  374MOL0     C50381   8.091   2.252   9.124  0.9319  0.2813 -0.2569
  374MOL0     C50382   7.965   2.205   9.075 -0.0411 -0.1074  0.2088
  374MOL0     C50383   7.968   2.138   8.944 -0.5481 -0.2157  0.2904
  374MOL0     C50384   7.850   2.219   9.155 -0.3088 -0.4540 -0.0401
  374MOL0     C50385   7.721   2.165   9.117  0.0079 -0.1073  0.7525
  374MOL0     O50386   7.626   2.192   9.208 -0.3481  0.2593 -0.1608
  374MOL0     C50387   7.492   2.189   9.180  0.8488 -0.5591 -0.0974
  374MOL0     C50388   7.418   2.310   9.189  0.5821 -0.0821 -1.2240
  374MOL0     C50389   7.279   2.318   9.149 -0.6266  0.0960  0.1967
  374MOL0     C50390   7.214   2.201   9.105 -0.3538 -0.2682  0.6931
  374MOL0     O50391   7.082   2.224   9.075  0.0163  0.3671 -0.0729
  374MOL0     C50392   6.997   2.107   9.101  0.3955  0.1946  0.9755
  374MOL0     C50393   6.849   2.154   9.071 -0.7842 -0.1456  0.6964
  374MOL0     C50394   6.744   2.034   9.078 -0.0593 -0.3237  0.2883
  374MOL0     C50395   6.595   2.086   9.059  0.2799  0.4609  0.0767
  374MOL0     C50396   6.545   2.132   9.201 -0.1501 -0.1801 -0.7674
  374MOL0     C50397   6.436   2.247   9.192 -0.1955  0.7328 -0.2866
  374MOL0     C50398   6.357   2.270   9.320  0.2491  0.4456 -0.2032
  374MOL0     C50399   6.228   2.344   9.298  0.4611  0.3628  0.7559
  374MOL0    Cl50400   6.148   2.356   9.461  0.0189 -0.1532  0.0886
  374MOL0     C50401   7.284   2.075   9.103 -0.0805  0.0598 -0.3430
  374MOL0     C50402   7.421   2.073   9.143 -1.1976  0.3602 -0.2778
  374MOL0     O50403   7.707   2.089   9.023 -0.0500  0.6083 -0.5476
  374MOL0     C50404   7.867   2.287   9.284 -0.2559  0.3973  0.1744
  374MOL0     C50405   7.995   2.333   9.328  1.0385  0.3345  0.3132
  374MOL0     N50406   8.292   2.370   9.778 -0.2863  0.1508  0.7103
  374MOL0     N50407   8.264   2.298   9.877 -0.1334 -0.0938  0.0779
  374MOL0     C50408   9.097   1.377   9.512 -1.2183  0.0722  0.0020
  374MOL0     C50409   9.224   1.319   9.487 -0.2406 -0.4781  0.2000
  374MOL0     C50410   9.693   1.335   9.456  0.3654 -0.2737 -0.3464
  374MOL0     C50411   9.773   1.392   9.354 -0.2646 -0.2607  0.1399
  374MOL0     C50412   9.910   1.362   9.355  0.5288  0.0674  0.0301
  374MOL0     C50413   9.967   1.298   9.463  0.5390  0.9593  0.1508
  374MOL0     O50414  10.102   1.278   9.451 -0.4583  0.0901  0.1244
  374MOL0     C50415  10.176   1.233   9.563  0.5610 -0.3268 -0.1537
  374MOL0     C50416  10.324   1.263   9.567 -0.6398 -0.7696  0.3611
  374MOL0     C50417  10.396   1.193   9.443  0.2102  0.0011  0.0567
  374MOL0     C50418  10.525   1.275   9.407 -1.6814  0.0252 -0.2534
  374MOL0     C50419  10.616   1.277   9.524  0.9781 -1.1984 -0.1923
  374MOL0     C50420  10.693   1.277   9.615  0.0446  0.3252  0.0968
  374MOL0     C50421   9.890   1.239   9.569 -0.7508 -0.6079  1.1839
  374MOL0     C50422   9.751   1.259   9.561 -0.0970 -0.3773  0.0084
  374MOL0     H50423   9.417   1.516   9.688  1.2936 -1.9307  0.3918
  374MOL0     H50424   9.178   1.619   9.735 -1.1191 -1.5695  1.4795
  374MOL0     H50425   8.978   1.622   9.801  0.3670 -3.0687 -1.5624
  374MOL0     H50426   9.002   1.710   9.648 -2.2696  1.6734 -0.4679
  374MOL0     H50427   8.784   1.758   9.600 -3.7208  0.4628 -0.2329
  374MOL0     H50428   8.731   1.610   9.669  1.8441 -0.8516 -1.9846
  374MOL0     H50429   8.744   1.715   9.898 -2.7851 -1.5115  0.9357
  374MOL0     H50430   8.806   1.857   9.807  0.5535 -0.7214 -0.0929
  374MOL0     H50431   8.559   1.845   9.697  1.0098 -0.1996 -0.1743
  374MOL0     H50432   8.529   1.707   9.789 -2.8786  2.5190  0.4772
  374MOL0     H50433   8.543   1.839  10.013 -0.3554 -1.7117  0.2562
  374MOL0     H50434   8.570   1.977   9.914 -0.9041  0.8739  0.4747
  374MOL0     H50435   8.365   1.949   9.795  2.2705  3.7248  0.9715
  374MOL0     H50436   8.332   1.799   9.900  1.0766  0.3069 -0.5649
  374MOL0     H50437   8.216   1.994   9.968  0.4558  2.6380 -0.1690
  374MOL0     H50438   8.332   1.931  10.089 -1.0515  1.6340  0.2939
  374MOL0     H50439   8.487   2.128  10.054 -0.9060  2.0209  2.0738
  374MOL0     H50440   8.324   2.168  10.090 -1.2603  2.6909 -1.5447
  374MOL0     H50441   8.567   2.188   9.806  0.8510  0.9233 -1.6397
  374MOL0     H50442   8.499   2.537   9.656 -0.1159 -0.7462  1.3359
  374MOL0     H50443   8.600   2.398   9.617  0.5601  2.8407  0.7469
  374MOL0     H50444   8.435   2.328   9.442  3.7826  0.1677  0.2303
  374MOL0     H50445   8.492   2.484   9.414  2.2132 -1.0022  0.4521
  374MOL0     H50446   8.253   2.562   9.537 -0.4417  0.4187 -2.4668
  374MOL0     H50447   8.225   2.391   9.518  1.5682 -0.9496  1.0308
  374MOL0     H50448   8.309   2.564   9.285 -2.8080  0.5768 -4.3572
  374MOL0     H50449   8.137   2.549   9.329 -0.9220 -0.1477 -0.1833
  374MOL0     H50450   8.180   2.227   9.067  1.8815  3.9148 -0.5802
  374MOL0     H50451   7.900   2.182   8.870  0.0998  1.2598  0.5541
  374MOL0     H50452   8.065   2.152   8.895  0.3221  1.0616  2.2687
  374MOL0     H50453   7.950   2.030   8.952 -1.1101 -0.1077  0.4767
  374MOL0     H50454   7.477   2.400   9.192 -1.2470  1.1463 -0.2181
  374MOL0     H50455   7.231   2.415   9.148  1.5742  1.2345 -0.9487
  374MOL0     H50456   7.028   2.025   9.036  0.1512  3.1383 -3.3006
  374MOL0     H50457   7.015   2.079   9.205  1.7974 -0.8505  0.4823
  374MOL0     H50458   6.826   2.235   9.140 -3.3020  0.2239 -0.4690
  374MOL0     H50459   6.853   2.191   8.968 -0.2200 -0.8376  0.4617
  374MOL0     H50460   6.751   1.985   9.176 -1.9453  0.2280  0.7368
  374MOL0     H50461   6.767   1.962   8.999 -3.2993 -2.4808  1.1169
  374MOL0     H50462   6.587   2.168   8.987 -3.7254  1.0057  0.8939
  374MOL0     H50463   6.537   2.002   9.022  0.7689  1.7712 -4.1673
  374MOL0     H50464   6.631   2.164   9.261 -2.0387  2.2847  0.8434
  374MOL0     H50465   6.498   2.049   9.254 -0.0410  0.8478  1.0376
  374MOL0     H50466   6.476   2.339   9.151 -0.5449  0.4707 -1.2359
  374MOL0     H50467   6.367   2.211   9.115  1.1107 -1.1744 -0.6312
  374MOL0     H50468   6.424   2.320   9.390 -1.0573 -0.7077  1.9864
  374MOL0     H50469   6.325   2.178   9.370  0.3246  1.6401  2.1799
  374MOL0     H50470   6.156   2.292   9.235  0.6058  2.1427 -0.9951
  374MOL0     H50471   6.246   2.441   9.251  1.0542 -0.1480 -0.0738
  374MOL0     H50472   7.227   1.992   9.064  0.2610  1.7798 -5.2317
  374MOL0     H50473   7.466   1.975   9.153 -0.6686  0.5656 -0.6095
  374MOL0     H50474   7.783   2.321   9.345 -1.4115 -1.3920 -0.3278
  374MOL0     H50475   7.989   2.396   9.416 -1.3271  0.9575 -0.2352
  374MOL0     H50476   9.008   1.345   9.458  0.9462 -3.1971 -1.9807
  374MOL0     H50477   9.242   1.237   9.418  0.2973  0.1733 -0.4496
  374MOL0     H50478   9.733   1.432   9.261 -4.0109 -0.3297  1.5295
  374MOL0     H50479   9.978   1.406   9.282 -0.5506  1.6654 -0.0575
  374MOL0     H50480  10.147   1.291   9.651 -0.9405  1.9765 -2.0287
  374MOL0     H50481  10.163   1.126   9.579  0.9112 -0.1779  1.1953
  374MOL0     H50482  10.367   1.222   9.658 -1.3560 -1.2362  0.5039
  374MOL0     H50483  10.340   1.371   9.569  0.4267 -0.8483 -1.4357
  374MOL0     H50484  10.337   1.201   9.351  1.9557  0.7014 -1.0416
  374MOL0     H50485  10.427   1.089   9.461  1.2275  0.3815  0.5672
  374MOL0     H50486  10.506   1.378   9.376 -0.9797  1.5785  3.8113
  374MOL0     H50487  10.575   1.224   9.324 -1.6243 -1.7458  0.8062
  374MOL0     H50488  10.760   1.272   9.699  0.1883  1.3283  0.0594
  374MOL0     H50489   9.930   1.181   9.652  0.5962 -0.0643  0.9459
  374MOL0     H50490   9.679   1.227   9.636 -0.0423 -1.5999 -0.4516
  375MOL0     O50491   5.017   9.484   6.374 -0.0173  0.3828 -0.0299
  375MOL0     C50492   4.951   9.478   6.476 -0.6833  0.6210 -0.1126
  375MOL0     O50493   4.825   9.428   6.480 -0.4976 -0.2942 -0.0090
  375MOL0     C50494   4.755   9.414   6.356 -0.5161 -0.2753 -0.4062
  375MOL0     C50495   4.686   9.290   6.331  0.0532 -0.2038 -0.0268
  375MOL0     C50496   4.599   9.281   6.221  0.4776  0.4167  0.1578
  375MOL0     C50497   4.588   9.388   6.139  0.3223 -0.1892 -0.1569
  375MOL0     O50498   4.490   9.373   6.040  0.7667 -0.0784 -0.8921
  375MOL0     C50499   4.498   9.263   5.958  0.6809  0.5942  0.1642
  375MOL0     C50500   4.438   9.302   5.823 -0.1038  0.0026 -0.1601
  375MOL0     C50501   4.285   9.342   5.835 -0.2799  0.0029 -0.0701
  375MOL0     C50502   4.206   9.331   5.707 -0.1288  0.2280  0.2299
  375MOL0     C50503   4.061   9.338   5.745  0.1740  0.0597 -0.0037
  375MOL0     C50504   3.952   9.362   5.638  0.1306  0.5704  1.4611
  375MOL0     C50505   3.811   9.323   5.686  0.2936 -0.5135 -0.2311
  375MOL0     C50506   3.700   9.402   5.610  0.6242 -0.1266  0.5174
  375MOL0     N50507   3.568   9.334   5.632  0.4149  0.2259  0.4512
  375MOL0     C50508   3.486   9.339   5.743 -0.5403  0.6435  0.5521
  375MOL0     C50509   3.389   9.249   5.721 -0.0238  0.0737  1.2854
  375MOL0     C50510   3.295   9.206   5.824 -0.9925 -0.3423 -0.0043
  375MOL0     C50511   3.168   9.285   5.822  0.1709  0.2559  0.2227
  375MOL0     C50512   3.087   9.273   5.948  0.0610 -0.0287  0.0734
  375MOL0     C50513   2.939   9.326   5.919 -1.2671  0.3889  0.2687
  375MOL0     O50514   2.878   9.363   6.038 -0.2983  0.2048  0.3921
  375MOL0     C50515   2.745   9.402   6.033 -0.0861  0.5713 -0.1920
  375MOL0     C50516   2.683   9.451   6.152 -0.0161  0.4944  0.3414
  375MOL0     C50517   2.550   9.484   6.163  0.0441 -0.3511  0.2426
  375MOL0     C50518   2.496   9.520   6.297  0.2142 -0.1844  0.0715
  375MOL0     C50519   2.469   9.476   6.040  0.4910 -0.3778 -0.1675
  375MOL0     C50520   2.322   9.507   6.047 -0.4356  0.0589 -0.1970
  375MOL0     O50521   2.287   9.629   6.097 -0.1675  0.7626  0.1158
  375MOL0     C50522   2.157   9.669   6.103 -0.0902  0.6668  0.5961
  375MOL0     C50523   2.076   9.678   5.981 -0.2240  0.1981  0.1826
  375MOL0     C50524   1.943   9.716   5.999 -0.6803 -0.2644  0.0481
  375MOL0     C50525   1.890   9.744   6.130  0.2430 -0.3905  0.7148
  375MOL0     O50526   1.756   9.768   6.152 -0.2502 -0.8581 -0.0482
  375MOL0     C50527   1.663   9.669   6.124  0.1406 -0.6859 -0.3581
  375MOL0     C50528   1.595   9.632   6.255 -0.7607 -0.2192  0.3620
  375MOL0     C50529   1.572   9.747   6.361  1.1336 -0.5941  0.1282
  375MOL0     C50530   1.460   9.830   6.314  0.1848 -0.4948  1.4298
  375MOL0     C50531   1.433   9.948   6.418 -0.3604  0.0192 -0.0948
  375MOL0     C50532   1.296  10.011   6.379  0.4784  0.1138 -0.1141
  375MOL0     C50533   1.261  10.125   6.478 -1.0412  0.7625 -0.7741
  375MOL0     C50534   1.109  10.168   6.461  0.8533 -0.2946 -0.4402
  375MOL0    Cl50535   1.056  10.283   6.589 -0.5062  0.5784 -0.0839
  375MOL0     C50536   1.969   9.744   6.241  0.7083 -0.1437 -0.0210
  375MOL0     C50537   2.104   9.705   6.223 -0.3902 -0.3201 -0.3041
  375MOL0     O50538   2.243   9.426   5.996 -1.0875  0.1077 -0.4356
  375MOL0     C50539   2.530   9.440   5.915 -0.0854  0.0158 -0.3264
  375MOL0     C50540   2.664   9.397   5.912 -0.3865 -0.4727 -0.7794
  375MOL0     N50541   3.418   9.192   5.595  0.4753 -0.0365 -0.0063
  375MOL0     N50542   3.532   9.236   5.546  0.2487  0.4521  0.5465
  375MOL0     C50543   4.653   9.508   6.163  0.3389 -0.5833  0.5193
  375MOL0     C50544   4.739   9.524   6.268  0.8582  0.7136  0.1685
  375MOL0     C50545   5.028   9.484   6.604  0.6312 -0.2933 -0.4893
  375MOL0     C50546   5.160   9.531   6.614  0.0169 -0.3376 -0.7188
  375MOL0     C50547   5.228   9.521   6.737 -0.3937  0.7573 -0.7246
  375MOL0     C50548   5.168   9.485   6.853 -0.3683 -1.0824  1.0378
  375MOL0     O50549   5.254   9.484   6.954 -0.1149  0.0867 -0.1731
  375MOL0     C50550   5.211   9.439   7.080 -0.1261 -0.7012  0.1562
  375MOL0     C50551   5.321   9.379   7.161 -0.0246 -0.2630 -0.4015
  375MOL0     C50552   5.424   9.476   7.210  0.5482  0.1072  0.1378
  375MOL0     C50553   5.540   9.404   7.285  0.1168 -0.5626  0.8328
  375MOL0     C50554   5.655   9.498   7.290 -0.7788  0.5278  0.6241
  375MOL0     C50555   5.752   9.578   7.277  0.1772  0.1950  0.1358
  375MOL0     C50556   5.035   9.451   6.844  0.3233  0.2231 -0.3685
  375MOL0     C50557   4.961   9.447   6.725 -0.0989  0.0348  0.1308
  375MOL0     H50558   4.711   9.206   6.395  0.7238  0.6798  0.9104
  375MOL0     H50559   4.540   9.192   6.204  1.0657 -0.4159  2.1819
  375MOL0     H50560   4.602   9.234   5.942  0.9794 -0.7535  3.5584
  375MOL0     H50561   4.443   9.173   5.987 -0.1144  0.1324 -2.5398
  375MOL0     H50562   4.491   9.395   5.800 -0.3140  0.8461  2.5310
  375MOL0     H50563   4.457   9.231   5.741 -1.3243  0.6033 -1.0014
  375MOL0     H50564   4.230   9.275   5.901 -4.5118  2.7157 -0.4936
  375MOL0     H50565   4.272   9.442   5.876  2.3295  0.2359  0.4099
  375MOL0     H50566   4.254   9.400   5.637  1.2327  1.7943  2.5624
  375MOL0     H50567   4.221   9.234   5.657 -3.3517 -0.2988  0.0933
  375MOL0     H50568   4.034   9.248   5.802  1.5188  0.8344  1.9672
  375MOL0     H50569   4.055   9.428   5.808 -0.8725 -1.8276  2.7638
  375MOL0     H50570   3.962   9.461   5.593  3.4864  0.4618  1.7026
  375MOL0     H50571   3.964   9.294   5.554 -1.0698 -0.5891  2.1918
  375MOL0     H50572   3.795   9.215   5.671  0.3672 -0.3403 -1.6632
  375MOL0     H50573   3.797   9.343   5.793 -1.5326 -0.5743 -0.4169
  375MOL0     H50574   3.715   9.408   5.501 -1.3856  1.6292  0.2551
  375MOL0     H50575   3.697   9.504   5.648 -1.3356 -1.0110  2.9865
  375MOL0     H50576   3.499   9.387   5.839  0.5007 -1.0838  1.3249
  375MOL0     H50577   3.275   9.100   5.803  0.7899 -0.5154 -1.0012
  375MOL0     H50578   3.339   9.212   5.923  0.6752  0.6329 -0.7556
  375MOL0     H50579   3.106   9.244   5.742 -0.3896  0.1004  0.7345
  375MOL0     H50580   3.184   9.393   5.811  1.2018 -0.0385 -1.5287
  375MOL0     H50581   3.121   9.344   6.023 -3.0084 -0.4323  2.0312
  375MOL0     H50582   3.092   9.175   5.996 -1.4860  0.0030  0.3469
  375MOL0     H50583   2.880   9.245   5.876  0.0815  0.2193 -1.3634
  375MOL0     H50584   2.944   9.406   5.844  1.2375 -0.7676 -0.9018
  375MOL0     H50585   2.749   9.457   6.238 -0.8928 -0.6998  1.1390
  375MOL0     H50586   2.400   9.467   6.301  1.1686 -1.9880  0.2789
  375MOL0     H50587   2.556   9.467   6.371  1.3732 -0.4265 -1.0073
  375MOL0     H50588   2.473   9.627   6.303 -4.1697 -0.7127 -2.4159
  375MOL0     H50589   2.108   9.664   5.878 -0.6105  0.0569  0.0813
  375MOL0     H50590   1.872   9.711   5.917 -1.4823  1.1856  0.6215
  375MOL0     H50591   1.585   9.704   6.055 -1.1239 -0.9281  0.9022
  375MOL0     H50592   1.718   9.585   6.082  3.9330  0.8654  1.0395
  375MOL0     H50593   1.505   9.572   6.240 -0.6982 -0.3365  0.4568
  375MOL0     H50594   1.662   9.560   6.301 -1.9459 -2.3443 -1.0895
  375MOL0     H50595   1.663   9.806   6.377  0.9947 -0.4394  0.3600
  375MOL0     H50596   1.555   9.702   6.459 -3.5645 -1.7751 -0.9403
  375MOL0     H50597   1.484   9.870   6.216 -3.4774 -2.9410 -0.7092
  375MOL0     H50598   1.373   9.774   6.280 -1.1777  2.2364  0.1135
  375MOL0     H50599   1.511  10.021   6.396 -0.9375 -0.0068 -2.4546
  375MOL0     H50600   1.440   9.915   6.522 -0.6088 -4.4354 -1.2984
  375MOL0     H50601   1.300  10.056   6.280 -2.1706 -0.1244 -0.4086
  375MOL0     H50602   1.225   9.927   6.375  0.5231  0.0617  0.1444
  375MOL0     H50603   1.323  10.214   6.464 -1.5363  1.1613 -0.4581
  375MOL0     H50604   1.278  10.087   6.579  0.9987 -1.8670 -1.9747
  375MOL0     H50605   1.046  10.080   6.473  2.5286 -1.4717  0.0971
  375MOL0     H50606   1.089  10.212   6.363 -3.3180 -0.0787  0.3409
  375MOL0     H50607   1.932   9.768   6.340  0.5027 -1.8896  0.3486
  375MOL0     H50608   2.168   9.709   6.310  1.4859 -0.8445 -1.6234
  375MOL0     H50609   2.473   9.431   5.823  1.2084 -0.6020 -1.0950
  375MOL0     H50610   2.695   9.365   5.813 -0.2628 -1.1868 -0.5166
  375MOL0     H50611   4.628   9.599   6.110  1.5772 -0.4680  0.0934
  375MOL0     H50612   4.801   9.611   6.282  3.3473 -1.0130  0.6022
  375MOL0     H50613   5.214   9.558   6.524  0.8924 -0.9575 -0.3847
  375MOL0     H50614   5.335   9.540   6.745 -0.4523  1.5418 -1.6361
  375MOL0     H50615   5.185   9.531   7.132 -0.8729 -0.8652  0.0895
  375MOL0     H50616   5.123   9.373   7.076 -1.3751  0.8831  0.2810
  375MOL0     H50617   5.362   9.292   7.108 -2.8231 -1.1541 -1.3467
  375MOL0     H50618   5.276   9.342   7.254  2.6770 -5.8627 -0.8495
  375MOL0     H50619   5.370   9.553   7.266 -0.9333  1.1231 -2.4963
  375MOL0     H50620   5.464   9.525   7.120  0.6144 -0.2789 -0.0451
  375MOL0     H50621   5.566   9.310   7.235  0.4882  0.3761 -0.8129
  375MOL0     H50622   5.516   9.369   7.386  1.8340  1.7928  2.1583
  375MOL0     H50623   5.829   9.652   7.268 -0.0815  0.3648 -0.8307
  375MOL0     H50624   4.986   9.430   6.938 -2.2777 -0.8510 -1.8482
  375MOL0     H50625   4.857   9.417   6.724  0.3494 -1.8874  2.5798
  376MOL0     O50626  10.813   5.837   6.720  0.1459 -0.2064  0.8802
  376MOL0     C50627  10.919   5.864   6.664 -0.7088 -0.5836 -0.6360
  376MOL0     O50628  10.937   5.958   6.567 -0.5146  0.1088 -0.4054
  376MOL0     C50629  10.857   6.062   6.534 -0.3865  0.0584 -0.9297
  376MOL0     C50630  10.769   6.127   6.627 -0.7591  0.0595 -0.2597
  376MOL0     C50631  10.689   6.227   6.588 -0.2579  0.1874 -0.7228
  376MOL0     C50632  10.689   6.270   6.456  0.1034 -0.7057  1.0533
  376MOL0     O50633  10.588   6.359   6.424 -0.0646  0.1048  0.4004
  376MOL0     C50634  10.572   6.413   6.290 -0.8090  0.6759 -0.0072
  376MOL0     C50635  10.464   6.514   6.277 -0.1828  0.0841  0.6758
  376MOL0     C50636  10.460   6.586   6.138  0.1632  0.0424 -0.2254
  376MOL0     C50637  10.430   6.495   6.018 -0.2810 -0.1402  1.4469
  376MOL0     C50638  10.443   6.563   5.881 -0.3411 -0.3384 -0.5604
  376MOL0     C50639  10.428   6.457   5.776  1.5945 -0.1208  0.3430
  376MOL0     C50640  10.451   6.506   5.639  0.4360 -0.0771  0.4900
  376MOL0     C50641  10.596   6.544   5.612 -0.3178 -0.0200  0.1105
  376MOL0     N50642  10.702   6.461   5.675 -0.2558  0.6442 -1.1937
  376MOL0     C50643  10.778   6.499   5.788  0.1381  0.3700 -0.1881
  376MOL0     C50644  10.833   6.379   5.832 -0.5546  0.4501 -0.1105
  376MOL0     C50645  10.950   6.358   5.935 -0.2384 -0.6640  0.7694
  376MOL0     C50646  10.920   6.436   6.062 -0.1518  0.1549 -0.4795
  376MOL0     C50647  11.045   6.433   6.150 -0.5814  0.2979  0.0958
  376MOL0     C50648  11.037   6.540   6.264 -0.5343  0.1037 -0.8084
  376MOL0     O50649  11.066   6.668   6.204 -0.3242 -0.3516 -0.1464
  376MOL0     C50650  10.967   6.745   6.151 -0.7355 -0.0644 -0.4231
  376MOL0     C50651  10.976   6.773   6.018 -0.3907  0.2568 -0.2006
  376MOL0     C50652  10.877   6.853   5.963 -0.1840 -0.3392  0.1805
  376MOL0     C50653  10.879   6.874   5.807 -0.2757  0.2100 -0.3760
  376MOL0     C50654  10.771   6.915   6.040 -0.5190  0.2876 -0.0913
  376MOL0     C50655  10.666   7.005   5.982  0.0245 -0.0816 -0.7395
  376MOL0     O50656  10.587   7.076   6.079 -0.4294  0.0642 -0.7177
  376MOL0     C50657  10.492   7.178   6.055  0.1715 -0.2138 -0.1449
  376MOL0     C50658  10.474   7.233   5.930  0.5137 -0.5601  0.1402
  376MOL0     C50659  10.372   7.325   5.917 -0.3303 -0.3791 -0.0507
  376MOL0     C50660  10.315   7.388   6.031  0.5719 -0.1702 -0.5112
  376MOL0     O50661  10.238   7.500   6.026  0.5816  0.2031 -0.3125
  376MOL0     C50662  10.096   7.486   6.011  0.4828  1.1222  0.7028
  376MOL0     C50663  10.061   7.518   5.865 -0.0677  0.1908 -0.3611
  376MOL0     C50664   9.912   7.568   5.857 -0.1912  0.2135  0.4719
  376MOL0     C50665   9.903   7.655   5.736  1.2189  0.5529 -0.0720
  376MOL0     C50666   9.761   7.687   5.701  0.1612  0.0076 -0.3070
  376MOL0     C50667   9.757   7.771   5.576  0.6705  0.2996  0.3227
  376MOL0     C50668   9.605   7.815   5.554 -0.3023 -0.1857  0.0194
  376MOL0     C50669   9.596   7.899   5.432 -0.6526 -0.8708 -0.4300
  376MOL0    Cl50670   9.432   7.894   5.353 -0.0050 -0.0286 -0.6007
  376MOL0     C50671  10.329   7.335   6.157 -0.0971  0.1392 -0.3306
  376MOL0     C50672  10.415   7.220   6.167  0.5374 -0.0543 -0.2007
  376MOL0     O50673  10.659   7.028   5.864  0.4014 -0.0710 -0.2610
  376MOL0     C50674  10.768   6.883   6.180 -0.8126  0.6156  1.1023
  376MOL0     C50675  10.862   6.802   6.235 -0.4854  0.5072  0.6778
  376MOL0     N50676  10.788   6.285   5.740 -1.0783 -0.0932 -0.7631
  376MOL0     N50677  10.717   6.335   5.643 -0.8561 -0.4300  0.0867
  376MOL0     C50678  10.786   6.221   6.365  0.0239  0.1813  0.4760
  376MOL0     C50679  10.867   6.109   6.405 -0.4913 -0.5070  0.1452
  376MOL0     C50680  11.033   5.781   6.704 -0.6931 -0.3026  0.4629
  376MOL0     C50681  11.164   5.830   6.664  0.2812  0.0944  0.0726
  376MOL0     C50682  11.282   5.764   6.708  0.5717  0.0361  0.1297
  376MOL0     C50683  11.273   5.639   6.766 -0.6682  0.1606  0.1048
  376MOL0     O50684  11.395   5.571   6.789 -0.4322 -0.4206 -0.8036
  376MOL0     C50685  11.383   5.446   6.850  0.2915  0.4128  0.6896
  376MOL0     C50686  11.524   5.379   6.865  0.3820  0.2277 -0.5352
  376MOL0     C50687  11.645   5.481   6.891  0.4797 -0.2053  0.7104
  376MOL0     C50688  11.734   5.525   6.769  0.5121  0.3757 -0.9968
  376MOL0     C50689  11.806   5.411   6.712  0.3888 -0.2062  0.5507
  376MOL0     C50690  11.850   5.308   6.666  0.2830 -1.0922 -0.3276
  376MOL0     C50691  11.146   5.593   6.803 -0.1481  0.6389  0.2149
  376MOL0     C50692  11.030   5.662   6.778  0.1718  0.1378 -0.0447
  376MOL0     H50693  10.770   6.086   6.728 -0.7129  0.7292  0.0213
  376MOL0     H50694  10.610   6.258   6.657  1.4923  2.7943  0.2872
  376MOL0     H50695  10.663   6.464   6.259 -0.8148  0.9126  0.3598
  376MOL0     H50696  10.549   6.331   6.221  1.7995  0.3961 -0.6244
  376MOL0     H50697  10.364   6.486   6.311 -0.6611  0.2928 -0.5207
  376MOL0     H50698  10.498   6.593   6.344  0.8163  2.1721 -2.1103
  376MOL0     H50699  10.392   6.671   6.150 -1.4093 -0.8975 -1.9280
  376MOL0     H50700  10.558   6.632   6.124  0.3554  0.5632  2.3267
  376MOL0     H50701  10.504   6.415   6.020  0.2658  0.1732 -1.8307
  376MOL0     H50702  10.336   6.440   6.031  0.8797 -2.3086  1.1156
  376MOL0     H50703  10.374   6.645   5.860  1.3229  1.2650 -0.0382
  376MOL0     H50704  10.545   6.603   5.879 -0.2371 -0.6101 -0.9024
  376MOL0     H50705  10.482   6.365   5.799  2.6833 -0.2207 -2.1838
  376MOL0     H50706  10.321   6.435   5.784  0.5932  3.5063 -0.7100
  376MOL0     H50707  10.429   6.424   5.570  1.1434  0.3814 -0.2971
  376MOL0     H50708  10.380   6.581   5.604  0.3720 -0.6862 -0.7520
  376MOL0     H50709  10.602   6.650   5.637 -0.9201  0.7499 -2.6496
  376MOL0     H50710  10.606   6.546   5.503  0.9601  4.4270  0.1332
  376MOL0     H50711  10.792   6.596   5.834 -0.7836  1.0289 -1.2477
  376MOL0     H50712  10.965   6.249   5.942  2.5384 -0.3852  0.4108
  376MOL0     H50713  11.043   6.400   5.895 -0.5390  1.0339  1.7654
  376MOL0     H50714  10.830   6.394   6.109  0.8479 -2.3825 -0.6527
  376MOL0     H50715  10.903   6.541   6.038 -2.2629 -0.3574 -1.5399
  376MOL0     H50716  11.133   6.459   6.091 -1.7406  0.3942 -1.6693
  376MOL0     H50717  11.065   6.334   6.192  0.6033  1.1031  1.5145
  376MOL0     H50718  11.120   6.522   6.333  1.6356 -0.0791 -3.3133
  376MOL0     H50719  10.950   6.534   6.329 -0.7375 -2.1055 -1.2252
  376MOL0     H50720  11.055   6.726   5.960 -0.9265 -2.8689  1.4227
  376MOL0     H50721  10.956   6.810   5.763 -0.3907  0.0083 -0.2855
  376MOL0     H50722  10.783   6.841   5.767  0.4627  0.2643 -2.2800
  376MOL0     H50723  10.901   6.980   5.788 -1.2872  0.4334 -0.3633
  376MOL0     H50724  10.528   7.205   5.840  0.6145  0.3337 -0.0890
  376MOL0     H50725  10.353   7.369   5.820  0.8797 -2.6477 -1.3884
  376MOL0     H50726  10.061   7.385   6.037 -1.5930  1.5217 -0.3101
  376MOL0     H50727  10.046   7.550   6.084  1.0325 -0.3189  2.4171
  376MOL0     H50728  10.130   7.594   5.828  2.6973 -2.6950 -1.5319
  376MOL0     H50729  10.078   7.432   5.800  3.2582 -1.5613  2.4998
  376MOL0     H50730   9.872   7.627   5.940 -1.7936  1.0453 -0.8420
  376MOL0     H50731   9.839   7.488   5.842 -1.0522  1.1055 -0.2079
  376MOL0     H50732   9.966   7.744   5.748  2.1419 -0.1841  0.6740
  376MOL0     H50733   9.942   7.599   5.651 -1.9066 -2.9691  0.5710
  376MOL0     H50734   9.722   7.739   5.789 -0.3914 -0.3412 -0.3432
  376MOL0     H50735   9.700   7.596   5.695 -0.0109 -0.3867  3.8878
  376MOL0     H50736   9.820   7.861   5.581 -1.1050  1.6975 -0.9820
  376MOL0     H50737   9.787   7.707   5.493  8.0023  0.0937  2.4232
  376MOL0     H50738   9.579   7.873   5.643 -0.8425  1.2082 -1.0125
  376MOL0     H50739   9.526   7.740   5.551  0.0910 -0.5869 -0.5849
  376MOL0     H50740   9.675   7.880   5.358 -0.0676 -0.8478  0.1868
  376MOL0     H50741   9.618   7.997   5.473 -0.7235 -1.9851  2.4814
  376MOL0     H50742  10.284   7.378   6.245  0.8301  2.0541 -0.7550
  376MOL0     H50743  10.424   7.179   6.268 -2.4518  0.4770  0.4049
  376MOL0     H50744  10.699   6.934   6.246 -0.9358  1.5825  0.2515
  376MOL0     H50745  10.868   6.788   6.342 -1.8974 -2.1665  0.4989
  376MOL0     H50746  10.774   6.246   6.261 -3.2687  2.7565  1.3157
  376MOL0     H50747  10.935   6.063   6.333 -0.8451  0.5179 -0.8849
  376MOL0     H50748  11.167   5.927   6.614 -4.1662  1.6608  2.3792
  376MOL0     H50749  11.379   5.813   6.696  1.4340 -0.5511  3.5177
  376MOL0     H50750  11.335   5.447   6.949 -0.0982 -1.8682  0.5902
  376MOL0     H50751  11.322   5.379   6.789  0.3007 -0.6832  1.8337
  376MOL0     H50752  11.546   5.325   6.773 -1.1862  1.5394 -1.7362
  376MOL0     H50753  11.516   5.305   6.945 -0.3500 -0.9499 -1.6708
  376MOL0     H50754  11.710   5.431   6.964  1.7344 -0.1768 -0.3421
  376MOL0     H50755  11.598   5.566   6.940  0.4762 -0.5510  1.3159
  376MOL0     H50756  11.808   5.593   6.811  0.9886 -1.7758  2.0304
  376MOL0     H50757  11.667   5.565   6.693 -0.5154  0.4148 -0.1008
  376MOL0     H50758  11.886   5.219   6.619  0.0423 -1.0124 -0.6739
  376MOL0     H50759  11.131   5.504   6.863  2.2367  0.2422  0.3392
  376MOL0     H50760  10.937   5.622   6.816 -0.0092  1.2981  0.7670
  377MOL0     O50761   6.221   1.799   7.359  0.2612  0.2356 -0.1230
  377MOL0     C50762   6.249   1.879   7.276  0.6129  0.2039  0.4422
  377MOL0     O50763   6.185   1.901   7.156  0.6391  0.5660 -0.2479
  377MOL0     C50764   6.050   1.869   7.137 -0.2938  0.3727 -0.4378
  377MOL0     C50765   5.995   1.744   7.176  0.2602 -0.0582 -0.3087
  377MOL0     C50766   5.861   1.731   7.129  0.5530 -0.5278 -0.7793
  377MOL0     C50767   5.791   1.828   7.054  0.0373 -0.1858  0.3304
  377MOL0     O50768   5.662   1.805   7.010 -0.3350  0.3447  0.6411
  377MOL0     C50769   5.606   1.673   7.015  0.5450 -0.6368 -0.5299
  377MOL0     C50770   5.462   1.659   6.950 -0.6540 -0.5666  0.1735
  377MOL0     C50771   5.351   1.725   7.022  0.3268 -0.3041 -0.1231
  377MOL0     C50772   5.220   1.706   6.948 -0.5171  0.9422 -0.0145
  377MOL0     C50773   5.097   1.760   7.018 -0.1831 -0.3270 -0.1016
  377MOL0     C50774   4.967   1.751   6.939 -1.0694 -0.3474 -0.0580
  377MOL0     C50775   4.852   1.836   6.984  0.8687 -0.0342  0.4189
  377MOL0     C50776   4.729   1.795   6.904 -0.2836 -0.3858 -0.3311
  377MOL0     N50777   4.617   1.772   6.998  0.1415  0.6051 -0.1011
  377MOL0     C50778   4.543   1.873   7.059  0.3005 -0.2100  0.5763
  377MOL0     C50779   4.444   1.801   7.113 -0.3651  0.2392 -0.2134
  377MOL0     C50780   4.331   1.872   7.184  0.6670  0.5375 -0.0803
  377MOL0     C50781   4.222   1.887   7.076 -0.6909 -0.3820 -0.3289
  377MOL0     C50782   4.095   1.968   7.119  0.0932 -0.1222  0.6895
  377MOL0     C50783   4.000   1.882   7.199 -0.4369 -0.1561 -0.2775
  377MOL0     O50784   3.886   1.950   7.254  0.5571  0.0852  0.0630
  377MOL0     C50785   3.754   1.944   7.202 -0.0217 -0.1526 -0.1624
  377MOL0     C50786   3.707   1.880   7.090 -0.9800  0.3215 -0.3358
  377MOL0     C50787   3.578   1.906   7.043  0.0182 -0.5314 -0.0825
  377MOL0     C50788   3.523   1.844   6.921 -0.3529 -0.4072  0.7637
  377MOL0     C50789   3.503   2.003   7.113  1.4262  0.3150  0.0481
  377MOL0     C50790   3.367   2.053   7.078  0.1321  0.2786  0.2002
  377MOL0     O50791   3.352   2.070   6.946  0.4694  0.1620 -0.3785
  377MOL0     C50792   3.225   2.104   6.900  0.2561  0.4468 -0.2406
  377MOL0     C50793   3.121   2.011   6.900 -0.3034 -0.6734  0.5408
  377MOL0     C50794   2.988   2.047   6.884 -0.5247 -0.5875  0.0283
  377MOL0     C50795   2.958   2.182   6.847 -0.8453  0.4416 -0.9821
  377MOL0     O50796   2.833   2.225   6.823  0.0869  0.1209 -0.5313
  377MOL0     C50797   2.741   2.118   6.776 -0.8696 -0.5713 -0.1634
  377MOL0     C50798   2.646   2.082   6.888  0.2740 -0.1887  0.6470
  377MOL0     C50799   2.562   2.194   6.941 -0.0696 -0.1073 -0.0446
  377MOL0     C50800   2.489   2.138   7.063 -0.3119  0.1018 -0.6203
  377MOL0     C50801   2.415   2.255   7.127  0.7319 -0.7117  0.5596
  377MOL0     C50802   2.310   2.304   7.038 -0.1534 -1.4164 -0.8247
  377MOL0     C50803   2.227   2.418   7.092 -0.6422 -0.0726  0.4489
  377MOL0     C50804   2.122   2.468   6.988  0.0707 -0.5064  0.0588
  377MOL0    Cl50805   1.994   2.558   7.065 -0.7614  0.0543 -0.0483
  377MOL0     C50806   3.058   2.273   6.840  0.2332 -0.5880 -0.0918
  377MOL0     C50807   3.196   2.236   6.869  0.7048  0.4460 -0.6925
  377MOL0     O50808   3.285   2.087   7.163  0.0522  0.0859 -0.2947
  377MOL0     C50809   3.559   2.079   7.219  0.3546  0.9430  0.2566
  377MOL0     C50810   3.681   2.039   7.272  0.1320 -0.0348 -0.5278
  377MOL0     N50811   4.464   1.665   7.097 -0.2813  0.0082  0.2794
  377MOL0     N50812   4.566   1.648   7.025  0.8532 -0.2003 -0.2660
  377MOL0     C50813   5.859   1.939   7.011  0.0130  0.2217 -0.0095
  377MOL0     C50814   5.986   1.968   7.057  1.0512  0.3902  0.8274
  377MOL0     C50815   6.371   1.960   7.310  0.0831  0.2041 -0.1087
  377MOL0     C50816   6.466   1.924   7.409 -0.0357 -0.3573 -0.9903
  377MOL0     C50817   6.578   2.000   7.436  0.6086  0.6213 -1.1335
  377MOL0     C50818   6.606   2.115   7.361 -0.4147  0.0385  0.5770
  377MOL0     O50819   6.725   2.188   7.379 -0.6513 -0.0427 -0.1174
  377MOL0     C50820   6.802   2.180   7.500 -0.1835 -1.4566 -0.2721
  377MOL0     C50821   6.912   2.281   7.482  0.4531 -0.3958  0.3944
  377MOL0     C50822   7.012   2.285   7.594  0.4192 -0.1136 -0.5033
  377MOL0     C50823   7.127   2.378   7.569  1.1237  0.9435  0.2511
  377MOL0     C50824   7.223   2.367   7.677  0.0058 -0.1888 -0.0415
  377MOL0     C50825   7.327   2.352   7.747  0.0070  0.0529  1.0745
  377MOL0     C50826   6.519   2.143   7.254 -0.8790 -0.5153  0.0918
  377MOL0     C50827   6.402   2.076   7.232 -0.2798  0.5997  0.0665
  377MOL0     H50828   6.048   1.673   7.238 -0.9024 -1.1974 -0.5739
  377MOL0     H50829   5.806   1.643   7.163 -0.6747 -0.7080 -3.0317
  377MOL0     H50830   5.669   1.604   6.958 -1.0383 -1.9609 -0.7435
  377MOL0     H50831   5.598   1.636   7.118  0.3231  1.4840  0.2638
  377MOL0     H50832   5.466   1.710   6.853 -2.6501 -0.4521  0.1116
  377MOL0     H50833   5.428   1.555   6.939 -2.8574  0.0096  1.1215
  377MOL0     H50834   5.353   1.697   7.128  1.3947  1.7667  0.4555
  377MOL0     H50835   5.361   1.834   7.025  0.8953 -0.1428 -3.6642
  377MOL0     H50836   5.233   1.757   6.852  1.0782  1.0198  0.2222
  377MOL0     H50837   5.207   1.598   6.934 -0.4956  1.0511 -0.9304
  377MOL0     H50838   5.090   1.703   7.111 -0.5983  0.3903  0.3153
  377MOL0     H50839   5.118   1.866   7.032 -0.9020 -0.3969  1.7511
  377MOL0     H50840   4.986   1.777   6.835  0.7485 -3.2433 -0.5606
  377MOL0     H50841   4.936   1.646   6.945 -1.2621 -0.2518  0.7026
  377MOL0     H50842   4.828   1.814   7.089 -1.8688  1.5243  0.2136
  377MOL0     H50843   4.881   1.940   6.971 -0.5593  0.3569  0.2018
  377MOL0     H50844   4.741   1.701   6.848 -1.6614  0.2607 -1.8046
  377MOL0     H50845   4.696   1.875   6.837  1.3478  0.9039  0.3395
  377MOL0     H50846   4.550   1.981   7.046 -0.2241 -0.1787  0.5246
  377MOL0     H50847   4.288   1.821   7.271  0.2370  1.8624  0.5054
  377MOL0     H50848   4.364   1.972   7.212 -2.1972  1.4688  0.2847
  377MOL0     H50849   4.214   1.789   7.029  0.7256 -0.0617 -1.3064
  377MOL0     H50850   4.279   1.947   7.004 -1.1322  0.1696 -0.2233
  377MOL0     H50851   4.037   1.992   7.029 -1.8611  0.0082  1.9300
  377MOL0     H50852   4.118   2.064   7.167 -0.3081  0.6408 -0.5902
  377MOL0     H50853   4.051   1.844   7.288  2.9597  1.3579 -1.3777
  377MOL0     H50854   3.970   1.799   7.135 -0.4914  0.2726 -0.8144
  377MOL0     H50855   3.780   1.824   7.032  5.3837  3.9960  3.0272
  377MOL0     H50856   3.573   1.749   6.901  3.0946  1.7511 -2.0285
  377MOL0     H50857   3.415   1.826   6.925 -0.0694 -2.2920  0.7684
  377MOL0     H50858   3.550   1.905   6.834 -0.9195 -0.3708  0.6110
  377MOL0     H50859   3.145   1.911   6.935  0.9649 -1.5125 -2.4354
  377MOL0     H50860   2.911   1.972   6.902 -1.9726  0.1220 -2.6701
  377MOL0     H50861   2.677   2.172   6.706  0.8331  2.4148  0.4160
  377MOL0     H50862   2.789   2.034   6.724  1.3829  1.1612 -1.0992
  377MOL0     H50863   2.577   2.005   6.853 -1.3674  0.4954  2.2221
  377MOL0     H50864   2.714   2.039   6.962  0.0402 -1.5258  0.1271
  377MOL0     H50865   2.491   2.232   6.866  0.6210  2.2542  0.3919
  377MOL0     H50866   2.619   2.282   6.972 -1.8802  1.9290 -2.0823
  377MOL0     H50867   2.423   2.057   7.032 -1.0455  0.8642 -1.0839
  377MOL0     H50868   2.553   2.098   7.143 -3.3531  1.4510  2.7660
  377MOL0     H50869   2.486   2.338   7.134 -1.5911  1.5316 -0.5848
  377MOL0     H50870   2.361   2.233   7.220 -1.1502 -0.3359 -0.4045
  377MOL0     H50871   2.354   2.356   6.952 -0.8385  0.3401 -0.1756
  377MOL0     H50872   2.235   2.232   7.007 -2.6583  0.7249 -0.1029
  377MOL0     H50873   2.284   2.496   7.144  0.4050 -1.1523  0.9713
  377MOL0     H50874   2.155   2.375   7.163 -0.7555  1.5880  1.3919
  377MOL0     H50875   2.074   2.386   6.935 -0.1332  1.7353 -3.6011
  377MOL0     H50876   2.160   2.533   6.908 -0.2990 -1.7765 -1.1892
  377MOL0     H50877   3.044   2.375   6.803  0.5775 -0.0817  1.1384
  377MOL0     H50878   3.275   2.310   6.876  0.9517  0.3631 -2.2357
  377MOL0     H50879   3.508   2.158   7.273  1.1810  0.4790  1.7828
  377MOL0     H50880   3.729   2.072   7.363  2.1282  0.6289 -1.7641
  377MOL0     H50881   5.827   2.009   6.934  3.0932  0.6579 -1.0360
  377MOL0     H50882   6.031   2.064   7.036  1.8539  0.0130  0.7748
  377MOL0     H50883   6.443   1.834   7.465 -1.4945  0.2583 -0.5529
  377MOL0     H50884   6.641   1.968   7.518 -1.2790 -0.9261 -0.1866
  377MOL0     H50885   6.738   2.207   7.584  0.5636  0.1535 -0.1762
  377MOL0     H50886   6.833   2.081   7.536 -3.2645 -1.0436  4.2244
  377MOL0     H50887   6.854   2.373   7.476 -1.3643 -1.1191  4.0940
  377MOL0     H50888   6.944   2.272   7.377 -1.3260  0.4204 -0.2678
  377MOL0     H50889   7.033   2.178   7.603 -4.5489 -1.2290  1.0853
  377MOL0     H50890   6.958   2.310   7.686 -1.9089 -1.8394 -1.2801
  377MOL0     H50891   7.078   2.476   7.578  1.3326  0.8625  3.7622
  377MOL0     H50892   7.178   2.368   7.473  3.7910 -2.0387  1.8067
  377MOL0     H50893   7.416   2.318   7.796  3.1731  0.8509 -3.4274
  377MOL0     H50894   6.537   2.234   7.197 -2.7378  0.1650  0.5103
  377MOL0     H50895   6.332   2.107   7.155  0.2722 -0.6817 -0.9880
  378MOL0     O50896   7.409   4.849   8.934  0.7023 -0.3465 -1.2166
  378MOL0     C50897   7.477   4.857   8.835 -0.6944  0.0764  0.3574
  378MOL0     O50898   7.434   4.842   8.706 -0.1719  0.0648  0.0446
  378MOL0     C50899   7.295   4.820   8.682 -0.3417  0.0293 -0.0270
  378MOL0     C50900   7.271   4.694   8.637 -0.0298 -0.1918  0.3301
  378MOL0     C50901   7.137   4.662   8.602  0.6452  0.3428 -0.0432
  378MOL0     C50902   7.024   4.751   8.631 -0.7274  0.0041  0.9562
  378MOL0     O50903   6.888   4.713   8.611 -0.6917 -0.0477  0.5609
  378MOL0     C50904   6.839   4.604   8.681 -0.6532  0.1729  0.4196
  378MOL0     C50905   6.780   4.496   8.590  0.0057 -0.0720 -0.2659
  378MOL0     C50906   6.681   4.553   8.480  0.0896 -0.0305 -0.6864
  378MOL0     C50907   6.533   4.537   8.525 -0.0717  0.2539  0.6173
  378MOL0     C50908   6.441   4.576   8.398 -0.0885  1.3116  0.3332
  378MOL0     C50909   6.302   4.504   8.400 -0.3442 -0.0062 -0.3980
  378MOL0     C50910   6.236   4.532   8.267 -0.7680 -0.2944  0.2148
  378MOL0     C50911   6.094   4.468   8.291 -1.0650  0.1176  0.6535
  378MOL0     N50912   6.025   4.463   8.159 -0.1518  0.5931 -0.5130
  378MOL0     C50913   5.962   4.348   8.109 -0.2693  0.5586 -0.7105
  378MOL0     C50914   5.919   4.385   7.985 -0.0595  0.6171  0.8524
  378MOL0     C50915   5.837   4.305   7.886  0.2389  0.2604  0.6759
  378MOL0     C50916   5.688   4.274   7.923 -1.2069  0.3033  0.8453
  378MOL0     C50917   5.631   4.162   7.839 -0.1159  0.3340 -0.5190
  378MOL0     C50918   5.500   4.103   7.886  0.4150 -0.1843  0.0667
  378MOL0     O50919   5.414   4.208   7.922  0.3345  0.0175  0.2850
  378MOL0     C50920   5.277   4.179   7.921  0.0593  0.1123 -0.2937
  378MOL0     C50921   5.198   4.291   7.894  0.4073  0.0430 -0.5573
  378MOL0     C50922   5.056   4.287   7.911  0.5116  0.2793 -0.5762
  378MOL0     C50923   4.989   4.414   7.878 -0.1398  0.0913  0.0847
  378MOL0     C50924   4.998   4.164   7.945  0.1527 -0.3916 -0.3574
  378MOL0     C50925   4.854   4.149   7.964 -0.3512 -0.6931 -0.2640
  378MOL0     O50926   4.792   4.236   8.046 -0.7910 -0.1904 -0.2147
  378MOL0     C50927   4.658   4.258   8.035 -0.1792  0.8332  0.4286
  378MOL0     C50928   4.575   4.208   8.137 -0.2353  0.1516  0.0517
  378MOL0     C50929   4.439   4.219   8.122 -0.2614 -0.6864  0.6067
  378MOL0     C50930   4.381   4.269   8.002 -0.1011 -0.0753 -0.2831
  378MOL0     O50931   4.246   4.276   7.995  0.1752  0.3487  0.0920
  378MOL0     C50932   4.180   4.372   7.911  0.2027  0.7614 -0.3329
  378MOL0     C50933   4.023   4.345   7.905 -0.5838  0.2683 -0.2530
  378MOL0     C50934   3.946   4.365   8.035  0.2048  0.1723  0.0299
  378MOL0     C50935   3.822   4.277   8.028  1.1888  0.4883  1.0426
  378MOL0     C50936   3.748   4.308   8.160  0.8185 -0.4620  0.0483
  378MOL0     C50937   3.603   4.248   8.171  0.1406 -0.3802 -0.7223
  378MOL0     C50938   3.504   4.342   8.115  0.0016  0.3593 -0.0517
  378MOL0     C50939   3.367   4.296   8.131 -0.4413  0.3164 -0.4173
  378MOL0    Cl50940   3.296   4.356   8.271  0.0995 -0.5395 -0.0068
  378MOL0     C50941   4.469   4.329   7.910 -0.1396  0.1183  0.9146
  378MOL0     C50942   4.609   4.317   7.918 -0.5541  0.2610  0.5815
  378MOL0     O50943   4.806   4.060   7.902  0.4200  0.4824  0.3474
  378MOL0     C50944   5.076   4.046   7.962 -0.6198 -0.0233 -0.3393
  378MOL0     C50945   5.215   4.054   7.953 -0.1189 -0.1821  0.3923
  378MOL0     N50946   5.968   4.512   7.954  0.4749 -0.1007 -0.1738
  378MOL0     N50947   6.032   4.554   8.062 -0.4541 -0.0944  0.7450
  378MOL0     C50948   7.062   4.882   8.672 -0.1411 -0.4780 -0.1672
  378MOL0     C50949   7.196   4.918   8.696  0.7282  0.7713 -0.7485
  378MOL0     C50950   7.615   4.899   8.859  0.0740 -0.3523 -1.3477
  378MOL0     C50951   7.690   4.935   8.753 -1.4253  0.2321 -0.0463
  378MOL0     C50952   7.824   4.969   8.774 -0.1189  0.3004  0.2638
  378MOL0     C50953   7.885   4.965   8.901 -0.7135 -0.2857 -0.5313
  378MOL0     O50954   8.018   4.988   8.921 -0.5479  0.2513 -0.7328
  378MOL0     C50955   8.112   5.007   8.817 -0.6442  0.2906  0.2595
  378MOL0     C50956   8.245   4.989   8.891 -0.4674  0.1069 -0.2122
  378MOL0     C50957   8.356   5.042   8.822  0.4737  0.3216  0.5856
  378MOL0     C50958   8.477   4.983   8.882 -0.1687  0.2331  0.4620
  378MOL0     C50959   8.588   5.056   8.830  0.2399  0.2058  0.6445
  378MOL0     C50960   8.670   5.121   8.772  0.0115 -0.1359 -0.6282
  378MOL0     C50961   7.805   4.940   9.011  0.3561 -0.5101 -0.4450
  378MOL0     C50962   7.668   4.905   8.989  1.0387 -0.0763  0.5068
  378MOL0     H50963   7.353   4.622   8.644  0.6080  0.6932  2.9635
  378MOL0     H50964   7.102   4.565   8.570  0.5236  0.5599 -0.5952
  378MOL0     H50965   6.919   4.569   8.748  0.4328  0.5160 -0.6746
  378MOL0     H50966   6.749   4.629   8.737 -1.0424 -1.5776  0.6577
  378MOL0     H50967   6.860   4.442   8.538 -0.4445 -0.1231 -0.9046
  378MOL0     H50968   6.718   4.428   8.650 -2.1259  1.8676 -0.1507
  378MOL0     H50969   6.691   4.661   8.467 -1.2853  0.0426 -1.2672
  378MOL0     H50970   6.699   4.507   8.383  0.0433 -0.0828 -0.6707
  378MOL0     H50971   6.532   4.433   8.559  1.3315  0.7734  2.3999
  378MOL0     H50972   6.511   4.588   8.619 -0.2821 -1.1803  1.3828
  378MOL0     H50973   6.439   4.685   8.400  1.9989  1.3879  1.2167
  378MOL0     H50974   6.491   4.554   8.304  2.6541  2.2942  1.4565
  378MOL0     H50975   6.329   4.399   8.411  0.5832  0.1951 -0.6281
  378MOL0     H50976   6.241   4.535   8.485 -1.7625  1.4452 -1.8701
  378MOL0     H50977   6.235   4.638   8.240  1.9885 -0.1135  0.4607
  378MOL0     H50978   6.278   4.467   8.188 -1.6587 -1.2655  0.5158
  378MOL0     H50979   6.050   4.534   8.366  3.6620 -0.8352  4.7266
  378MOL0     H50980   6.101   4.367   8.331 -2.4716 -0.4172 -0.3460
  378MOL0     H50981   5.945   4.254   8.159 -0.0447  1.5172  1.2539
  378MOL0     H50982   5.834   4.361   7.792  2.2390 -0.8057 -0.0740
  378MOL0     H50983   5.895   4.213   7.874 -0.8026 -0.2057 -1.3071
  378MOL0     H50984   5.625   4.363   7.911 -1.4223 -0.0214 -0.5618
  378MOL0     H50985   5.683   4.234   8.025  0.7307 -0.7095  0.5745
  378MOL0     H50986   5.697   4.075   7.841  0.8081  1.0291 -0.0191
  378MOL0     H50987   5.615   4.202   7.738  1.5489  0.7884 -0.6197
  378MOL0     H50988   5.514   4.034   7.970 -0.7548  0.2875  0.6774
  378MOL0     H50989   5.463   4.050   7.798  3.1747 -0.7434 -0.8529
  378MOL0     H50990   5.262   4.375   7.867  1.7633 -0.4667  0.9102
  378MOL0     H50991   5.058   4.498   7.895  1.8602 -1.1678 -1.3278
  378MOL0     H50992   4.975   4.424   7.770 -2.1220 -0.1881  0.2796
  378MOL0     H50993   4.902   4.446   7.936  1.5615  3.2101  1.1726
  378MOL0     H50994   4.607   4.149   8.222  2.7403  1.9020  0.3026
  378MOL0     H50995   4.371   4.167   8.189 -0.9335  0.8507  1.1583
  378MOL0     H50996   4.202   4.473   7.947 -0.1042 -0.0522  2.3515
  378MOL0     H50997   4.219   4.355   7.810 -0.0218  2.0731 -0.6589
  378MOL0     H50998   3.983   4.420   7.836 -1.7880  2.0527  2.2555
  378MOL0     H50999   4.012   4.242   7.869  0.5459 -0.7141  2.0221
  378MOL0     H51000   3.918   4.470   8.049 -0.1879 -0.2798  3.9393
  378MOL0     H51001   4.012   4.339   8.119 -0.2464  1.5425  0.8570
  378MOL0     H51002   3.763   4.303   7.940  0.9565 -1.0816  0.6973
  378MOL0     H51003   3.840   4.170   8.016 -2.8795 -0.0605 -2.6974
  378MOL0     H51004   3.747   4.412   8.193  1.5554 -0.3691 -0.2261
  378MOL0     H51005   3.805   4.255   8.237 -1.3135 -2.1445  0.5594
  378MOL0     H51006   3.599   4.158   8.109  0.5043  0.3069 -1.7787
  378MOL0     H51007   3.575   4.238   8.276 -2.1278  2.7599 -0.8706
  378MOL0     H51008   3.526   4.361   8.010  2.7446  0.4413  0.4437
  378MOL0     H51009   3.511   4.439   8.164 -2.7765 -0.1168  1.5000
  378MOL0     H51010   3.360   4.186   8.130 -0.1370  0.2931 -1.2229
  378MOL0     H51011   3.306   4.334   8.048 -0.8408 -0.9141 -0.7089
  378MOL0     H51012   4.424   4.379   7.825  2.8289  1.1934 -0.1271
  378MOL0     H51013   4.679   4.367   7.851  1.6073 -1.5646  1.3712
  378MOL0     H51014   5.032   3.950   7.987 -2.6004  0.3510 -2.1627
  378MOL0     H51015   5.276   3.964   7.963  0.8116  0.2580 -1.0359
  378MOL0     H51016   6.994   4.958   8.710  0.2211 -1.1205  1.8574
  378MOL0     H51017   7.222   5.016   8.734  1.5344  0.0539  0.6659
  378MOL0     H51018   7.650   4.939   8.652  1.3372  0.2133 -1.2276
  378MOL0     H51019   7.890   5.001   8.694 -1.3251 -0.9077 -1.2998
  378MOL0     H51020   8.102   4.922   8.748 -6.4227 -0.4727  1.4748
  378MOL0     H51021   8.116   5.098   8.757  4.0022  0.4309  0.4216
  378MOL0     H51022   8.258   4.882   8.913  0.8145 -0.1704 -2.0706
  378MOL0     H51023   8.234   5.027   8.993 -1.8274 -0.2831 -0.1895
  378MOL0     H51024   8.357   5.151   8.828 -2.9034  0.6563 -1.6098
  378MOL0     H51025   8.359   5.007   8.718  3.4420 -2.8201  1.5324
  378MOL0     H51026   8.480   4.880   8.845 -0.3958  0.4756 -0.2489
  378MOL0     H51027   8.483   4.989   8.991 -2.2341  0.8450  0.5728
  378MOL0     H51028   8.742   5.180   8.720  1.1313 -0.7652  0.1638
  378MOL0     H51029   7.861   4.938   9.104  0.8247 -2.6247 -0.7256
  378MOL0     H51030   7.608   4.874   9.074 -0.9487  0.9634 -0.4606
  379MOL0     O51031   3.138   5.884   7.192 -0.8183 -0.0924  0.4551
  379MOL0     C51032   3.144   6.005   7.203  0.2184  0.0001  0.0367
  379MOL0     O51033   3.032   6.087   7.204 -0.1388 -0.2189 -0.2059
  379MOL0     C51034   2.905   6.038   7.228 -0.4508 -0.1144  0.7009
  379MOL0     C51035   2.809   6.117   7.287 -0.2325  0.3883  0.6722
  379MOL0     C51036   2.672   6.073   7.313 -0.1928  0.3097  0.6211
  379MOL0     C51037   2.624   5.954   7.257 -0.5562 -0.0550 -0.1936
  379MOL0     O51038   2.494   5.915   7.286 -0.4085 -0.2642  0.0091
  379MOL0     C51039   2.449   5.786   7.244  0.1140  0.7688 -0.7969
  379MOL0     C51040   2.296   5.788   7.235 -0.0965  0.5467  0.2227
  379MOL0     C51041   2.249   5.901   7.146  0.9051 -0.6760 -0.8899
  379MOL0     C51042   2.153   6.002   7.222  0.4426 -0.4173  0.3056
  379MOL0     C51043   2.018   5.925   7.263 -1.2093 -0.7197  1.0863
  379MOL0     C51044   1.927   6.012   7.356 -1.1954 -0.5889  0.4386
  379MOL0     C51045   1.800   5.939   7.398  0.2953 -0.1462  0.5975
  379MOL0     C51046   1.701   6.021   7.485  0.6167  0.1554 -0.0977
  379MOL0     N51047   1.758   6.032   7.618  0.0222 -0.1393 -0.8452
  379MOL0     C51048   1.779   5.926   7.697 -0.5946 -0.4410 -0.9138
  379MOL0     C51049   1.847   5.970   7.804  0.2314 -0.7941 -0.0128
  379MOL0     C51050   1.900   5.884   7.917 -0.5854  0.1894 -0.7128
  379MOL0     C51051   1.997   5.963   8.013  0.9766 -0.4772 -0.5560
  379MOL0     C51052   2.059   5.874   8.129  0.0366 -0.3553  0.7624
  379MOL0     C51053   2.166   5.781   8.071 -0.5860 -1.1092  0.3119
  379MOL0     O51054   2.260   5.847   7.981 -0.5498  0.2910 -0.6166
  379MOL0     C51055   2.361   5.779   7.922 -0.8762  0.1792 -0.2228
  379MOL0     C51056   2.436   5.846   7.831 -0.5307 -0.4663  0.6525
  379MOL0     C51057   2.538   5.778   7.753  1.1368  0.1861  1.3079
  379MOL0     C51058   2.610   5.873   7.662 -0.1006 -0.1243  0.3270
  379MOL0     C51059   2.557   5.639   7.760  1.0701  0.1560 -0.1339
  379MOL0     C51060   2.658   5.570   7.675 -0.1268  0.2654 -0.0052
  379MOL0     O51061   2.777   5.633   7.650  0.4338  0.4467  0.7944
  379MOL0     C51062   2.863   5.550   7.588 -0.1219 -0.6661 -0.0085
  379MOL0     C51063   2.906   5.428   7.638  0.2452  0.1865  0.6253
  379MOL0     C51064   2.992   5.335   7.574  0.1984 -0.3487 -0.0548
  379MOL0     C51065   3.047   5.375   7.452  0.0622  0.3845  0.6110
  379MOL0     O51066   3.121   5.278   7.393 -0.2465 -0.0881 -0.8609
  379MOL0     C51067   3.202   5.316   7.285  0.6601  0.7338 -0.1936
  379MOL0     C51068   3.322   5.221   7.278 -0.7120 -0.7362 -0.5783
  379MOL0     C51069   3.287   5.090   7.199  0.4272  0.2635  0.0645
  379MOL0     C51070   3.396   4.989   7.191  0.0582 -0.0309  0.7384
  379MOL0     C51071   3.350   4.861   7.107  0.3603  0.3518 -0.0582
  379MOL0     C51072   3.272   4.762   7.193  0.3298  0.3653 -0.1796
  379MOL0     C51073   3.355   4.685   7.290 -0.2671  0.5028 -0.3140
  379MOL0     C51074   3.269   4.565   7.345 -0.4380  0.4940 -0.2110
  379MOL0    Cl51075   3.298   4.412   7.251  0.2709  0.0071  0.0065
  379MOL0     C51076   3.014   5.509   7.408  0.0441 -0.3215  0.9225
  379MOL0     C51077   2.926   5.597   7.473  0.7011 -0.3937  1.1432
  379MOL0     O51078   2.620   5.461   7.638 -0.2408 -0.2087 -0.4857
  379MOL0     C51079   2.486   5.575   7.860  0.2368  0.1016  0.0325
  379MOL0     C51080   2.382   5.642   7.932  0.6228  0.2113 -0.3911
  379MOL0     N51081   1.868   6.106   7.790  0.3134  0.2803  0.3915
  379MOL0     N51082   1.810   6.139   7.684  0.8104 -0.4548  0.1557
  379MOL0     C51083   2.713   5.876   7.193  0.1561 -0.3021 -0.4186
  379MOL0     C51084   2.850   5.913   7.175  0.1538  0.0795  0.6888
  379MOL0     C51085   3.274   6.075   7.196  0.3788  0.1173  0.4177
  379MOL0     C51086   3.399   6.006   7.164  0.1205 -0.7199 -0.1722
  379MOL0     C51087   3.519   6.077   7.151 -0.4493  0.5443  0.3214
  379MOL0     C51088   3.516   6.217   7.179  0.6006  0.6743  1.1142
  379MOL0     O51089   3.640   6.279   7.154 -0.4291 -0.2515  0.4979
  379MOL0     C51090   3.676   6.411   7.199  0.1816 -0.6408  0.4866
  379MOL0     C51091   3.827   6.452   7.170  0.1661  0.4200  0.2308
  379MOL0     C51092   3.848   6.472   7.016 -0.0369 -0.5214 -0.0961
  379MOL0     C51093   3.991   6.489   6.964 -0.6345 -0.6826  0.9775
  379MOL0     C51094   4.002   6.510   6.819  0.3578 -0.5010 -0.2025
  379MOL0     C51095   4.003   6.511   6.698 -0.4539 -0.7818 -0.1128
  379MOL0     C51096   3.398   6.284   7.208 -0.0540  0.2551  0.1141
  379MOL0     C51097   3.278   6.210   7.217  0.3606 -0.4554  0.1428
  379MOL0     H51098   2.847   6.207   7.333  1.5340 -1.0876  2.2272
  379MOL0     H51099   2.604   6.128   7.377  0.9210  1.1298  1.1312
  379MOL0     H51100   2.488   5.756   7.146 -0.5777 -2.5297 -0.1890
  379MOL0     H51101   2.500   5.720   7.314  0.7277  2.0213 -0.0328
  379MOL0     H51102   2.267   5.688   7.202  1.8562  0.0330 -0.0422
  379MOL0     H51103   2.258   5.791   7.337  0.6409 -1.3388  0.5813
  379MOL0     H51104   2.322   5.963   7.093 -0.3213 -1.6185 -3.9307
  379MOL0     H51105   2.199   5.865   7.056  0.6597  1.5279 -1.7032
  379MOL0     H51106   2.200   6.041   7.313 -0.5094 -1.8770  1.4764
  379MOL0     H51107   2.116   6.078   7.153  0.7788  0.6742  1.3001
  379MOL0     H51108   1.964   5.897   7.172 -0.4481  1.1331 -0.0124
  379MOL0     H51109   2.054   5.834   7.310  2.8393  0.0151 -0.1671
  379MOL0     H51110   1.995   6.041   7.436  1.0493 -0.1668 -1.5062
  379MOL0     H51111   1.892   6.097   7.295 -0.7969 -0.2001  0.7454
  379MOL0     H51112   1.739   5.912   7.311  0.4953 -0.7100  0.6299
  379MOL0     H51113   1.822   5.846   7.450  0.9627  0.6667  1.8061
  379MOL0     H51114   1.604   5.971   7.485  1.0004 -0.6373 -0.7846
  379MOL0     H51115   1.690   6.119   7.439  1.3687 -0.1295 -0.9206
  379MOL0     H51116   1.743   5.827   7.673 -1.3330 -0.6746  1.0073
  379MOL0     H51117   1.819   5.855   7.984 -1.8708 -2.8528 -3.3233
  379MOL0     H51118   1.955   5.809   7.860  0.8130  1.8171 -1.6108
  379MOL0     H51119   1.930   6.039   8.054  1.9493  0.0253  0.1486
  379MOL0     H51120   2.078   6.008   7.955 -0.2826 -1.1113 -2.9441
  379MOL0     H51121   1.979   5.819   8.180 -0.8236 -0.6531 -0.8512
  379MOL0     H51122   2.107   5.945   8.196  2.9025 -1.2558 -0.1756
  379MOL0     H51123   2.124   5.696   8.017  4.4570 -2.1800 -2.5961
  379MOL0     H51124   2.221   5.756   8.162  2.1766  3.1002  0.0732
  379MOL0     H51125   2.420   5.953   7.826  1.8367 -0.1175 -2.7976
  379MOL0     H51126   2.620   5.827   7.563  0.1777  2.9212 -1.2003
  379MOL0     H51127   2.555   5.967   7.654 -0.2377 -0.3080 -1.2622
  379MOL0     H51128   2.701   5.909   7.711 -0.1674  0.8943 -0.2601
  379MOL0     H51129   2.858   5.400   7.732 -2.0260  1.9366  0.0678
  379MOL0     H51130   3.013   5.240   7.623  1.2622 -1.0370 -1.7111
  379MOL0     H51131   3.147   5.305   7.191  0.2155  2.1695 -0.1240
  379MOL0     H51132   3.238   5.419   7.288  0.4979  0.9638 -3.0160
  379MOL0     H51133   3.402   5.268   7.220  0.0750 -2.2523 -0.7692
  379MOL0     H51134   3.356   5.184   7.375 -0.3676 -1.5384 -0.9943
  379MOL0     H51135   3.261   5.109   7.094  1.5524 -2.2523 -0.7403
  379MOL0     H51136   3.203   5.039   7.246  0.9076 -1.1449 -0.5643
  379MOL0     H51137   3.479   5.034   7.137 -0.4091 -1.0122 -0.8777
  379MOL0     H51138   3.435   4.967   7.291  0.4657 -3.4478 -0.0467
  379MOL0     H51139   3.429   4.794   7.069 -1.3679 -1.6025 -0.3745
  379MOL0     H51140   3.295   4.900   7.022  2.5556 -0.3323 -1.8984
  379MOL0     H51141   3.194   4.808   7.253  0.7408  1.0300 -0.1361
  379MOL0     H51142   3.220   4.698   7.121 -1.9910  1.5434  0.3633
  379MOL0     H51143   3.367   4.749   7.378 -2.6696 -0.2719  0.6787
  379MOL0     H51144   3.448   4.645   7.250 -0.4392 -0.1607 -0.0830
  379MOL0     H51145   3.162   4.586   7.333 -0.4008  1.1047  0.4633
  379MOL0     H51146   3.287   4.554   7.452  1.2687  1.0938 -0.3967
  379MOL0     H51147   3.064   5.547   7.320  0.5665 -0.0744  1.3111
  379MOL0     H51148   2.910   5.696   7.432  0.2827 -0.1616  1.8646
  379MOL0     H51149   2.511   5.469   7.868  2.1605  0.4468 -0.8622
  379MOL0     H51150   2.330   5.584   8.008 -0.2208 -1.4076 -2.1445
  379MOL0     H51151   2.690   5.777   7.154 -2.0410 -0.0953  0.2254
  379MOL0     H51152   2.918   5.846   7.122 -0.0580 -0.1243  0.6757
  379MOL0     H51153   3.379   5.900   7.148 -1.4319 -0.5340  0.3574
  379MOL0     H51154   3.604   6.015   7.122 -0.4764 -0.2912  1.8868
  379MOL0     H51155   3.601   6.479   7.157 -1.4943 -1.6195  1.7567
  379MOL0     H51156   3.659   6.422   7.307 -1.2528  2.6106  0.0382
  379MOL0     H51157   3.886   6.364   7.199  0.1662 -0.1118 -1.2944
  379MOL0     H51158   3.854   6.542   7.226  1.1195  2.6390 -3.4451
  379MOL0     H51159   3.796   6.562   6.981  1.8050  0.7619  0.3226
  379MOL0     H51160   3.801   6.390   6.961 -0.3454 -0.2605 -0.2220
  379MOL0     H51161   4.065   6.410   6.979  1.7198  0.6953 -2.2275
  379MOL0     H51162   4.034   6.579   7.009 -0.7338 -0.8552  1.4231
  379MOL0     H51163   4.006   6.508   6.591 -3.6531 -2.5447 -0.2818
  379MOL0     H51164   3.396   6.392   7.216 -0.2184  0.1727  1.4953
  379MOL0     H51165   3.184   6.263   7.229  0.3675 -0.5573  0.6791
  380MOL0     O51166   0.633   5.903  10.171 -0.1326 -0.1905  0.1661
  380MOL0     C51167   0.570   5.795  10.174 -0.4451  0.1856  0.1334
  380MOL0     O51168   0.626   5.671  10.192 -0.2129  0.1998  0.2187
  380MOL0     C51169   0.762   5.653  10.207 -0.2292 -0.1876  0.2561
  380MOL0     C51170   0.784   5.529  10.264  0.4143 -0.6880 -0.4793
  380MOL0     C51171   0.908   5.478  10.295  0.0918 -0.6654  0.3538
  380MOL0     C51172   1.017   5.567  10.270  0.4965  0.4216  0.5046
  380MOL0     O51173   1.136   5.518  10.313  0.2860 -0.0957 -0.5783
  380MOL0     C51174   1.249   5.608  10.327 -0.0112 -0.3601 -0.4316
  380MOL0     C51175   1.367   5.551  10.419 -0.2225 -0.7628 -0.4860
  380MOL0     C51176   1.425   5.420  10.370  0.1643 -0.5847  0.1930
  380MOL0     C51177   1.441   5.413  10.211 -0.3171  0.0808 -0.5493
  380MOL0     C51178   1.514   5.276  10.193  0.4285  0.7165  0.4599
  380MOL0     C51179   1.436   5.143  10.235  0.0296 -0.4904  0.9829
  380MOL0     C51180   1.523   5.026  10.197  0.4375  0.3725 -0.0516
  380MOL0     C51181   1.496   4.946  10.069 -0.1238  0.4656 -0.1527
  380MOL0     N51182   1.379   4.857  10.067 -0.3123 -0.4444 -0.1618
  380MOL0     C51183   1.250   4.886  10.100  0.6274  0.7327 -0.4612
  380MOL0     C51184   1.181   4.773  10.077 -0.6115  0.6974 -0.2745
  380MOL0     C51185   1.038   4.763  10.112  0.5790 -0.5033 -0.0009
  380MOL0     C51186   0.959   4.702   9.996  0.3811  0.7812 -0.2753
  380MOL0     C51187   0.964   4.790   9.872  0.9937 -1.7629  0.7149
  380MOL0     C51188   0.851   4.760   9.769  1.1453  0.0941  0.2404
  380MOL0     O51189   0.723   4.773   9.829  0.1850  0.0236  0.9228
  380MOL0     C51190   0.612   4.744   9.754 -0.2986  0.4611  0.0795
  380MOL0     C51191   0.495   4.726   9.831 -0.9118 -0.1812 -0.1558
  380MOL0     C51192   0.372   4.684   9.774 -0.1926  0.3358  1.0519
  380MOL0     C51193   0.254   4.676   9.864  0.2872 -1.2383 -0.0323
  380MOL0     C51194   0.366   4.665   9.635 -0.0743  0.3100 -0.4207
  380MOL0     C51195   0.240   4.618   9.571 -0.7778 -0.3613 -0.2333
  380MOL0     O51196   0.207   4.655   9.444 -0.1073 -0.2406  0.4352
  380MOL0     C51197   0.086   4.611   9.385 -0.0014  0.0428 -0.3273
  380MOL0     C51198   0.086   4.532   9.278  0.9202  0.5517 -0.4460
  380MOL0     C51199  -0.035   4.496   9.213  0.7050 -0.2066 -0.1637
  380MOL0     C51200  -0.159   4.539   9.262  0.0126 -0.3364 -0.0306
  380MOL0     O51201  -0.278   4.502   9.206 -0.2059  0.4021 -0.1433
  380MOL0     C51202  -0.304   4.511   9.069 -0.0442 -0.7729  0.2765
  380MOL0     C51203  -0.457   4.493   9.042 -0.3522  0.1500  0.7557
  380MOL0     C51204  -0.540   4.604   9.117  0.1586 -0.5477  0.1525
  380MOL0     C51205  -0.690   4.599   9.072 -0.9104  0.6475 -0.3079
  380MOL0     C51206  -0.787   4.681   9.157 -0.5447 -0.3332 -1.0953
  380MOL0     C51207  -0.921   4.686   9.091  0.4283  0.1161  0.1517
  380MOL0     C51208  -1.017   4.764   9.179 -0.1038 -0.3134  0.0383
  380MOL0     C51209  -1.143   4.806   9.109 -0.5963 -0.6902 -0.5814
  380MOL0    Cl51210  -1.260   4.867   9.232 -0.5860  0.0781 -0.1396
  380MOL0     C51211  -0.160   4.617   9.379 -0.8546 -0.6458  0.2549
  380MOL0     C51212  -0.035   4.650   9.436  0.3876 -0.1147 -0.2244
  380MOL0     O51213   0.179   4.537   9.642  0.4591 -0.2578  0.6498
  380MOL0     C51214   0.486   4.676   9.563 -0.0889 -0.0204 -0.7191
  380MOL0     C51215   0.608   4.723   9.618 -0.4656  0.1994  0.2366
  380MOL0     N51216   1.274   4.673  10.032  0.6723 -0.8438  0.5805
  380MOL0     N51217   1.392   4.724  10.029 -0.7299 -0.9380 -0.4788
  380MOL0     C51218   1.001   5.699  10.217  0.5126  0.5562 -0.2519
  380MOL0     C51219   0.870   5.741  10.186 -0.3020  0.8413  0.5633
  380MOL0     C51220   0.415   5.794  10.149 -0.4275  1.1899 -0.0404
  380MOL0     C51221   0.340   5.675  10.163 -0.1046  0.3542  0.0769
  380MOL0     C51222   0.207   5.675  10.136  1.5107  0.5364  0.0349
  380MOL0     C51223   0.134   5.795  10.107 -0.4028 -0.5708 -0.6194
  380MOL0     O51224  -0.004   5.786  10.110  0.3459 -0.0705 -0.2215
  380MOL0     C51225  -0.087   5.902  10.080  0.3520  0.6479  0.0692
  380MOL0     C51226  -0.228   5.852  10.060  0.4383  0.0661 -0.5886
  380MOL0     C51227  -0.246   5.769   9.934 -0.7439  0.3017 -0.8600
  380MOL0     C51228  -0.309   5.633   9.960  0.1133 -0.0190  0.1158
  380MOL0     C51229  -0.446   5.648  10.019 -0.4887  0.0839  0.6772
  380MOL0     C51230  -0.560   5.660  10.062 -0.1975  0.3828  0.4646
  380MOL0     C51231   0.212   5.918  10.095  0.6822  0.5921  0.6830
  380MOL0     C51232   0.347   5.917  10.116  0.1208 -0.1677  0.1405
  380MOL0     H51233   0.700   5.462  10.279  0.4397 -1.1080 -2.0686
  380MOL0     H51234   0.919   5.383  10.347  0.7366 -0.4736  0.5829
  380MOL0     H51235   1.285   5.639  10.228 -3.0016  1.2178 -1.1255
  380MOL0     H51236   1.220   5.698  10.381 -2.1578 -2.2828  1.8746
  380MOL0     H51237   1.445   5.625  10.439 -0.9382 -0.3279  0.8478
  380MOL0     H51238   1.334   5.541  10.523  1.8634 -0.9569  0.1895
  380MOL0     H51239   1.520   5.418  10.423  0.7478  0.3330 -0.7808
  380MOL0     H51240   1.356   5.339  10.395 -3.5257  2.1502 -0.2723
  380MOL0     H51241   1.351   5.415  10.149  2.1764 -0.2410 -4.5609
  380MOL0     H51242   1.506   5.494  10.176 -1.2812  2.2282  2.2850
  380MOL0     H51243   1.528   5.266  10.085 -0.6096  1.4214  0.2434
  380MOL0     H51244   1.604   5.268  10.255  0.6309 -0.2747  0.0553
  380MOL0     H51245   1.422   5.144  10.344 -2.2071 -1.2371  0.7577
  380MOL0     H51246   1.341   5.137  10.182  0.2638  0.4556  0.4387
  380MOL0     H51247   1.632   5.037  10.204  1.1190 -3.6729 -1.6479
  380MOL0     H51248   1.496   4.957  10.277 -0.3378  1.6866  0.8488
  380MOL0     H51249   1.586   4.885  10.060  0.9291  1.2445  3.3479
  380MOL0     H51250   1.490   5.014   9.983 -1.5796  0.3305 -0.1910
  380MOL0     H51251   1.205   4.977  10.140 -0.2457 -0.4060  1.2700
  380MOL0     H51252   1.043   4.716  10.210 -0.2091  0.8312  0.7095
  380MOL0     H51253   0.987   4.857  10.135 -0.3920 -0.6209 -1.5007
  380MOL0     H51254   0.854   4.679  10.016  0.3356  0.6936 -0.5964
  380MOL0     H51255   1.005   4.604   9.979 -2.3903 -0.8965  1.1956
  380MOL0     H51256   1.063   4.783   9.827  0.6820  2.5580 -1.0945
  380MOL0     H51257   0.968   4.894   9.905  0.6760 -0.7674 -2.1071
  380MOL0     H51258   0.869   4.657   9.739  1.0989  0.9244 -2.9363
  380MOL0     H51259   0.857   4.813   9.674 -0.8384 -2.1055 -1.2267
  380MOL0     H51260   0.503   4.747   9.938  3.2388 -3.1720  0.3728
  380MOL0     H51261   0.230   4.579   9.907 -0.0159 -1.5171 -0.8134
  380MOL0     H51262   0.266   4.748   9.946 -0.7739  1.3033 -1.9411
  380MOL0     H51263   0.163   4.720   9.821  0.2339  2.6444  3.3908
  380MOL0     H51264   0.181   4.500   9.237  0.5332  2.3637 -3.0037
  380MOL0     H51265  -0.010   4.432   9.129  5.1585  1.7010 -0.6136
  380MOL0     H51266  -0.269   4.611   9.039  1.5158 -1.0542  1.0308
  380MOL0     H51267  -0.246   4.446   9.001  0.4537  0.9056 -0.9709
  380MOL0     H51268  -0.465   4.505   8.933  2.7555  0.7685  0.5011
  380MOL0     H51269  -0.494   4.392   9.064 -0.7728  0.0073 -0.4792
  380MOL0     H51270  -0.509   4.708   9.107 -1.0533 -0.1087  0.7818
  380MOL0     H51271  -0.540   4.589   9.226  0.6569 -1.1328  0.0787
  380MOL0     H51272  -0.680   4.628   8.967  1.5195  2.4647  0.3172
  380MOL0     H51273  -0.721   4.495   9.082  1.6628 -0.1085  0.8704
  380MOL0     H51274  -0.744   4.779   9.180 -0.4878  0.3682 -3.8922
  380MOL0     H51275  -0.800   4.626   9.251  3.9014  0.9511  0.5155
  380MOL0     H51276  -0.891   4.724   8.993 -0.4794  0.7807  0.1162
  380MOL0     H51277  -0.963   4.586   9.083  1.9662 -0.6280  0.9736
  380MOL0     H51278  -0.969   4.850   9.226 -0.6528  0.5558 -0.9592
  380MOL0     H51279  -1.051   4.703   9.263  0.8616  0.8478  1.3052
  380MOL0     H51280  -1.191   4.721   9.059 -0.9793 -1.1125  0.4766
  380MOL0     H51281  -1.115   4.892   9.047  0.7370 -0.4083  0.3770
  380MOL0     H51282  -0.261   4.640   9.413 -2.9317 -5.2388 -1.8396
  380MOL0     H51283  -0.046   4.713   9.524 -1.7901  1.4103 -1.4807
  380MOL0     H51284   0.494   4.642   9.460 -1.7507 -1.8168 -0.3161
  380MOL0     H51285   0.692   4.732   9.550 -2.2190  2.7677 -1.7798
  380MOL0     H51286   1.080   5.767  10.187  0.3099  1.1239  0.4847
  380MOL0     H51287   0.855   5.839  10.141  1.0461  1.6996  1.8558
  380MOL0     H51288   0.381   5.578  10.190 -2.6813 -0.1753  2.4879
  380MOL0     H51289   0.149   5.584  10.145  2.7916 -0.4289 -1.0598
  380MOL0     H51290  -0.068   5.971  10.163  2.4661  0.9012 -0.5698
  380MOL0     H51291  -0.056   5.953   9.988 -2.6172  0.6817 -1.0355
  380MOL0     H51292  -0.293   5.938  10.043  0.1219  0.1852  1.0852
  380MOL0     H51293  -0.264   5.807  10.153  1.1454  0.1430 -0.2739
  380MOL0     H51294  -0.145   5.748   9.898  1.0496  2.3049  2.4439
  380MOL0     H51295  -0.294   5.829   9.856 -0.5362  0.1332 -1.1174
  380MOL0     H51296  -0.247   5.581  10.034 -0.8565  1.0366  1.7060
  380MOL0     H51297  -0.312   5.570   9.870  0.7323  1.3588 -0.9077
  380MOL0     H51298  -0.658   5.690  10.090  0.6724  0.9810  3.0936
  380MOL0     H51299   0.166   6.013  10.071  1.7308  0.1856 -3.7274
  380MOL0     H51300   0.402   6.007  10.089  0.1583 -0.0312  0.6717
  381MOL0     O51301   2.738   9.287   3.000 -0.0785  0.4464 -0.4286
  381MOL0     C51302   2.758   9.333   2.888  0.8894  0.1182  1.2807
  381MOL0     O51303   2.705   9.283   2.773  0.2120 -0.7024 -0.1679
  381MOL0     C51304   2.589   9.209   2.763 -0.2614  0.1019 -0.8632
  381MOL0     C51305   2.489   9.222   2.857  0.3593 -0.4437 -0.1527
  381MOL0     C51306   2.386   9.132   2.848 -0.5538  0.6413 -0.2927
  381MOL0     C51307   2.379   9.033   2.750  0.2452  0.7895  0.7035
  381MOL0     O51308   2.275   8.941   2.744 -0.4988 -0.1249 -0.9718
  381MOL0     C51309   2.169   8.940   2.844 -0.3090  0.6369  0.1668
  381MOL0     C51310   2.051   9.021   2.782 -0.2986 -0.6600 -0.3562
  381MOL0     C51311   1.928   9.027   2.871 -0.8889  0.0325  0.2612
  381MOL0     C51312   1.813   9.103   2.796 -0.0730 -0.3821 -0.1976
  381MOL0     C51313   1.743   9.020   2.686 -0.0684 -0.1784  0.5228
  381MOL0     C51314   1.627   9.106   2.629 -0.1989 -1.1112 -0.3265
  381MOL0     C51315   1.593   9.050   2.494  0.3221  0.8435 -0.6578
  381MOL0     C51316   1.502   9.151   2.413  0.4631  0.6648 -0.4467
  381MOL0     N51317   1.388   9.215   2.482 -0.2882  1.5002  1.0794
  381MOL0     C51318   1.264   9.163   2.475  0.1355 -0.1500  0.4389
  381MOL0     C51319   1.191   9.235   2.568 -0.1171 -0.0888  0.0220
  381MOL0     C51320   1.042   9.206   2.593  0.2824 -0.1971 -0.1572
  381MOL0     C51321   0.949   9.311   2.511 -0.7160  0.1318 -0.5312
  381MOL0     C51322   0.807   9.275   2.516 -0.0100 -0.4055  1.1703
  381MOL0     C51323   0.718   9.374   2.441 -0.2539 -0.2646  0.0027
  381MOL0     O51324   0.719   9.330   2.306 -0.1858 -0.4751 -0.6258
  381MOL0     C51325   0.618   9.379   2.233  0.8135 -0.3350  0.5711
  381MOL0     C51326   0.541   9.500   2.267 -0.0912 -0.1870 -0.1289
  381MOL0     C51327   0.429   9.542   2.186 -0.8427  0.3629 -0.3380
  381MOL0     C51328   0.360   9.676   2.229  0.1819  0.1089 -0.3892
  381MOL0     C51329   0.394   9.464   2.071 -0.1952 -0.1072  0.2566
  381MOL0     C51330   0.297   9.509   1.977  0.1814 -0.4949 -0.9873
  381MOL0     O51331   0.331   9.484   1.847 -0.2826 -0.1336  0.6568
  381MOL0     C51332   0.235   9.514   1.747  0.4249 -0.2650  0.3177
  381MOL0     C51333   0.097   9.476   1.749 -0.3336 -0.1104  0.2398
  381MOL0     C51334   0.007   9.508   1.645  0.3462 -0.6548  0.8358
  381MOL0     C51335   0.060   9.565   1.518 -0.0119  0.4878 -0.6383
  381MOL0     O51336  -0.002   9.610   1.408 -0.3005 -0.1367 -0.3920
  381MOL0     C51337  -0.144   9.615   1.386 -0.2227 -0.1842 -0.4570
  381MOL0     C51338  -0.227   9.718   1.459  0.0701  0.4611  0.0345
  381MOL0     C51339  -0.354   9.738   1.367 -0.3865 -0.2637 -0.8714
  381MOL0     C51340  -0.470   9.814   1.441  0.4101 -0.5378 -0.2095
  381MOL0     C51341  -0.574   9.883   1.352 -0.3201  1.0038 -0.1270
  381MOL0     C51342  -0.648   9.794   1.252  0.7071  0.2727  0.1938
  381MOL0     C51343  -0.734   9.878   1.149 -0.9631 -0.8434 -0.6176
  381MOL0     C51344  -0.838   9.788   1.082 -0.0889 -0.2040  0.4635
  381MOL0    Cl51345  -0.938   9.873   0.968 -0.0033 -0.1301  0.1498
  381MOL0     C51346   0.198   9.591   1.513  0.2450  0.0710 -0.2459
  381MOL0     C51347   0.277   9.560   1.625 -1.4821  0.1193  0.2788
  381MOL0     O51348   0.196   9.561   2.018  0.2116 -0.1409 -0.0996
  381MOL0     C51349   0.478   9.357   2.037 -0.2865 -0.3007  0.2407
  381MOL0     C51350   0.586   9.319   2.111 -0.3073 -0.2280  0.3123
  381MOL0     N51351   1.276   9.322   2.634 -1.0382  0.1423  0.6080
  381MOL0     N51352   1.390   9.320   2.567 -0.4270 -0.7620  0.7544
  381MOL0     C51353   2.475   9.025   2.649 -0.7251 -0.6171 -0.3865
  381MOL0     C51354   2.579   9.117   2.659 -0.3948 -0.1040 -0.1196
  381MOL0     C51355   2.863   9.439   2.901  0.5823  0.2940  0.7198
  381MOL0     C51356   2.935   9.465   3.018 -0.0035 -0.4219  0.0185
  381MOL0     C51357   3.017   9.584   3.025  0.1378 -0.3512  1.7408
  381MOL0     C51358   3.040   9.658   2.913  0.4053 -0.6497 -0.9821
  381MOL0     O51359   3.118   9.771   2.913 -0.9277  0.7302  0.5265
  381MOL0     C51360   3.222   9.787   3.014  0.4836 -0.8368 -0.9254
  381MOL0     C51361   3.299   9.914   3.002 -0.4141 -0.3589 -0.0337
  381MOL0     C51362   3.435   9.886   2.923  0.4809  0.1356 -0.5188
  381MOL0     C51363   3.548   9.845   3.012  0.0758 -0.3313  0.8390
  381MOL0     C51364   3.677   9.878   2.953 -1.1113  0.3480 -1.0955
  381MOL0     C51365   3.779   9.895   2.887 -0.4806  0.7507 -0.4273
  381MOL0     C51366   2.966   9.626   2.796  0.2629 -0.0957  0.5963
  381MOL0     C51367   2.880   9.516   2.785  1.0231  0.0512 -0.8604
  381MOL0     H51368   2.493   9.296   2.937  1.1121 -0.7787  0.1339
  381MOL0     H51369   2.305   9.150   2.918  0.2072 -1.2179  1.1505
  381MOL0     H51370   2.140   8.841   2.879  3.5921 -0.5124  0.6788
  381MOL0     H51371   2.192   8.983   2.941 -0.9562 -1.4977  1.3303
  381MOL0     H51372   2.084   9.121   2.751  1.8007 -0.6650  1.6026
  381MOL0     H51373   2.023   8.969   2.690 -2.4691  1.0198 -0.7413
  381MOL0     H51374   1.890   8.925   2.884 -0.6698 -0.4742 -2.5303
  381MOL0     H51375   1.944   9.073   2.969  0.8767 -0.9493  0.4632
  381MOL0     H51376   1.741   9.125   2.876 -2.0896 -1.6257 -1.5893
  381MOL0     H51377   1.847   9.201   2.760 -0.6817  0.1305  0.5787
  381MOL0     H51378   1.819   8.997   2.610  0.7014 -3.4783  2.1127
  381MOL0     H51379   1.702   8.925   2.721  1.2482 -2.5274 -3.5685
  381MOL0     H51380   1.532   9.094   2.683 -1.3900  1.5967 -1.6124
  381MOL0     H51381   1.654   9.211   2.625 -1.3436 -0.8237 -0.9721
  381MOL0     H51382   1.680   9.031   2.430  1.1360 -3.6077  1.3375
  381MOL0     H51383   1.536   8.958   2.511 -1.8393  2.1327 -0.5763
  381MOL0     H51384   1.453   9.089   2.338 -0.3634 -0.1097  0.6833
  381MOL0     H51385   1.564   9.226   2.364  2.0072 -1.4246 -1.8677
  381MOL0     H51386   1.222   9.079   2.419 -0.0438  0.5884 -0.5626
  381MOL0     H51387   1.005   9.106   2.572  1.2389 -0.8408  1.0688
  381MOL0     H51388   1.033   9.228   2.700  5.2238  1.2768  0.2438
  381MOL0     H51389   0.975   9.314   2.404 -1.3447 -0.2396 -0.6989
  381MOL0     H51390   0.955   9.408   2.561 -2.0996  2.2674 -4.0601
  381MOL0     H51391   0.777   9.262   2.620  1.4505  0.5224  1.7544
  381MOL0     H51392   0.799   9.179   2.464  0.7576 -0.1921  0.6416
  381MOL0     H51393   0.756   9.474   2.465 -2.1428  0.2787  0.9508
  381MOL0     H51394   0.617   9.364   2.482 -1.6855 -1.9466 -3.5318
  381MOL0     H51395   0.570   9.560   2.353  0.2107  2.7472 -2.1191
  381MOL0     H51396   0.408   9.757   2.174  1.7730 -2.2464 -2.7307
  381MOL0     H51397   0.257   9.687   2.194  0.3575  1.5823 -0.5115
  381MOL0     H51398   0.360   9.696   2.336  1.6789  0.0764 -0.3576
  381MOL0     H51399   0.059   9.412   1.828 -3.7914  0.6069 -0.6373
  381MOL0     H51400  -0.092   9.470   1.668  0.7064 -1.5481  0.9534
  381MOL0     H51401  -0.161   9.631   1.279 -0.4196  0.8034 -0.2840
  381MOL0     H51402  -0.176   9.510   1.392  1.6286 -0.7456  0.1689
  381MOL0     H51403  -0.251   9.680   1.559 -0.3414  0.0181 -0.2321
  381MOL0     H51404  -0.170   9.810   1.477  1.9269 -0.9622  1.9474
  381MOL0     H51405  -0.383   9.637   1.334  0.3609 -0.3655 -1.2258
  381MOL0     H51406  -0.330   9.796   1.277 -2.2939  0.6671 -0.8361
  381MOL0     H51407  -0.522   9.748   1.510 -0.0539 -1.0527 -1.0269
  381MOL0     H51408  -0.423   9.892   1.501 -2.4160 -0.4865  2.1019
  381MOL0     H51409  -0.518   9.956   1.293 -1.4294  0.6410 -1.6795
  381MOL0     H51410  -0.644   9.923   1.426  1.6114 -0.9979  3.0271
  381MOL0     H51411  -0.570   9.739   1.200 -0.1258 -2.0126  1.2307
  381MOL0     H51412  -0.705   9.715   1.301  0.9552  0.2902  0.5074
  381MOL0     H51413  -0.663   9.908   1.071 -0.1760 -0.3510  0.2668
  381MOL0     H51414  -0.771   9.966   1.203  1.1080 -0.1162 -0.2746
  381MOL0     H51415  -0.900   9.740   1.158  0.9703 -1.5978  0.4849
  381MOL0     H51416  -0.796   9.709   1.019 -1.8902 -1.8777  1.2475
  381MOL0     H51417   0.241   9.628   1.421 -1.1453  1.6054 -0.3291
  381MOL0     H51418   0.384   9.577   1.617 -1.7867  2.7018  0.7990
  381MOL0     H51419   0.454   9.291   1.955 -0.6731  0.0682  0.0554
  381MOL0     H51420   0.643   9.230   2.086 -1.1486 -0.5775 -0.4415
  381MOL0     H51421   2.476   8.946   2.576  2.7909 -2.2696  1.1902
  381MOL0     H51422   2.666   9.116   2.593  0.2814  0.6517  0.7313
  381MOL0     H51423   2.911   9.413   3.110  1.2845 -0.0969  0.5661
  381MOL0     H51424   3.064   9.603   3.121 -0.9066 -0.4161  2.2764
  381MOL0     H51425   3.174   9.779   3.111 -0.1976  0.8663 -1.0763
  381MOL0     H51426   3.289   9.702   3.000 -1.9931 -3.2765  1.1358
  381MOL0     H51427   3.317   9.938   3.107  0.2545 -2.6330  0.4165
  381MOL0     H51428   3.244   9.985   2.940 -0.1806 -0.7549 -0.7063
  381MOL0     H51429   3.468   9.968   2.857 -1.1063  0.9365 -0.3654
  381MOL0     H51430   3.417   9.802   2.855  0.3401 -2.8448  2.9143
  381MOL0     H51431   3.553   9.738   3.036  3.4249 -0.1734  1.2429
  381MOL0     H51432   3.535   9.896   3.108 -0.8663  0.2542  0.4197
  381MOL0     H51433   3.864   9.890   2.822  2.0777 -0.5357  2.7959
  381MOL0     H51434   2.964   9.685   2.705  1.2903 -1.2109 -0.1824
  381MOL0     H51435   2.826   9.487   2.696  0.7421  2.8125 -1.6620
  382MOL0     O51436   1.151   6.745   9.482  0.2043  0.0773 -0.7257
  382MOL0     C51437   1.230   6.659   9.441  0.5938  0.1589 -0.0690
  382MOL0     O51438   1.203   6.522   9.438 -0.4224 -0.3506  0.0673
  382MOL0     C51439   1.080   6.484   9.482  0.2872 -0.4997  1.1556
  382MOL0     C51440   0.981   6.477   9.389  0.7502  0.8013  0.4034
  382MOL0     C51441   0.854   6.417   9.421 -0.1729 -0.0315 -0.3007
  382MOL0     C51442   0.820   6.378   9.552 -0.6999  0.5512  0.6959
  382MOL0     O51443   0.707   6.308   9.589 -0.2438 -0.5090 -0.1462
  382MOL0     C51444   0.587   6.351   9.526  0.1780  0.0503  0.1307
  382MOL0     C51445   0.469   6.312   9.610  0.4136 -0.0763  0.1199
  382MOL0     C51446   0.336   6.314   9.536  0.5574 -0.7699  0.4290
  382MOL0     C51447   0.265   6.436   9.606  0.7237  1.3424  0.1899
  382MOL0     C51448   0.115   6.422   9.595  0.4686 -0.7440  0.1040
  382MOL0     C51449   0.037   6.547   9.639  0.7267  0.1756  0.1957
  382MOL0     C51450  -0.115   6.534   9.616  0.5328 -0.5227  1.2421
  382MOL0     C51451  -0.204   6.572   9.735 -0.1704  0.1671  0.7565
  382MOL0     N51452  -0.340   6.582   9.689  0.8746  0.4525 -0.1116
  382MOL0     C51453  -0.395   6.661   9.590  0.2692  0.4868  0.0934
  382MOL0     C51454  -0.530   6.645   9.611 -0.3028 -0.4982 -0.3582
  382MOL0     C51455  -0.622   6.731   9.533 -0.1275 -0.2182 -0.5765
  382MOL0     C51456  -0.605   6.881   9.534  0.9010 -0.8633 -0.9673
  382MOL0     C51457  -0.622   6.941   9.681  0.3487  0.2475  0.3183
  382MOL0     C51458  -0.749   7.030   9.703 -0.1616 -0.5050 -0.3488
  382MOL0     O51459  -0.859   6.941   9.695 -0.0112  0.5796  0.6178
  382MOL0     C51460  -0.990   6.996   9.706 -0.3289  0.6385 -0.5649
  382MOL0     C51461  -1.102   6.922   9.667  0.3457 -0.0110 -0.3693
  382MOL0     C51462  -1.228   6.975   9.652  0.4543 -0.3293 -0.2710
  382MOL0     C51463  -1.345   6.888   9.602 -0.5789 -0.2038  1.2174
  382MOL0     C51464  -1.252   7.112   9.685  0.5334 -0.5238 -0.3533
  382MOL0     C51465  -1.376   7.191   9.674 -0.2234 -0.7748  0.9298
  382MOL0     O51466  -1.367   7.330   9.681 -0.0569  0.3174 -0.3234
  382MOL0     C51467  -1.485   7.400   9.695  0.5864  0.2050  0.1075
  382MOL0     C51468  -1.545   7.416   9.818 -0.3107 -0.6717  0.7597
  382MOL0     C51469  -1.659   7.499   9.831 -0.0713 -0.0478  0.5415
  382MOL0     C51470  -1.723   7.551   9.718  0.2170 -1.1683 -1.0798
  382MOL0     O51471  -1.838   7.617   9.736  0.0426 -0.0820  0.5648
  382MOL0     C51472  -1.910   7.674   9.625 -0.1934 -0.2398 -0.6056
  382MOL0     C51473  -2.047   7.687   9.682  0.4532  0.3435  0.2528
  382MOL0     C51474  -2.150   7.677   9.571  0.2986 -0.9277  0.2744
  382MOL0     C51475  -2.142   7.801   9.475 -0.0631  0.2790  0.4258
  382MOL0     C51476  -2.259   7.810   9.381 -0.4163 -0.3660  0.2197
  382MOL0     C51477  -2.225   7.927   9.285 -0.1510 -0.5218 -0.4699
  382MOL0     C51478  -2.323   7.918   9.162 -0.0633 -0.1676  0.0522
  382MOL0     C51479  -2.304   8.037   9.064 -0.1491 -0.7323  0.4086
  382MOL0    Cl51480  -2.435   8.027   8.950  0.4349 -0.0217 -0.1288
  382MOL0     C51481  -1.663   7.534   9.593 -0.0645 -1.2029  0.2951
  382MOL0     C51482  -1.552   7.459   9.581  0.1694  0.4014 -0.2995
  382MOL0     O51483  -1.480   7.132   9.645  0.0806 -0.7703 -0.2329
  382MOL0     C51484  -1.140   7.182   9.733 -0.3027 -0.3444  0.7857
  382MOL0     C51485  -1.007   7.130   9.743 -0.2138  0.0097  0.0955
  382MOL0     N51486  -0.559   6.579   9.726 -0.0553  0.9233 -0.4432
  382MOL0     N51487  -0.443   6.539   9.766  0.1917  1.0380 -0.7116
  382MOL0     C51488   0.924   6.391   9.648  1.0778  0.3150  0.0161
  382MOL0     C51489   1.050   6.447   9.614  0.1782  0.5497  0.9557
  382MOL0     C51490   1.367   6.702   9.402  0.0708 -0.0048 -0.4444
  382MOL0     C51491   1.414   6.835   9.424 -1.0234  1.0688 -0.7621
  382MOL0     C51492   1.552   6.869   9.397 -0.4203  0.6863 -0.5477
  382MOL0     C51493   1.645   6.778   9.356  0.2676 -0.7943 -0.3415
  382MOL0     O51494   1.776   6.794   9.336  0.5851 -0.1352  0.4465
  382MOL0     C51495   1.844   6.891   9.413 -0.7717 -0.1089 -0.1153
  382MOL0     C51496   1.972   6.918   9.337  0.6229 -0.1383 -0.7730
  382MOL0     C51497   2.061   6.799   9.345 -0.4372  0.5778  0.1644
  382MOL0     C51498   2.201   6.818   9.281 -0.2009 -0.1616 -0.0099
  382MOL0     C51499   2.207   6.854   9.144  0.6388  0.6446  0.9233
  382MOL0     C51500   2.230   6.882   9.028  0.4801 -0.6092 -0.1225
  382MOL0     C51501   1.589   6.656   9.319  1.4061 -0.5334 -0.2765
  382MOL0     C51502   1.455   6.611   9.338 -0.8477  0.0434 -0.5817
  382MOL0     H51503   0.997   6.518   9.289 -1.3631  1.2031  0.1783
  382MOL0     H51504   0.776   6.413   9.346  1.4578 -3.3920 -1.9940
  382MOL0     H51505   0.591   6.460   9.520 -0.3899  0.1403  1.1504
  382MOL0     H51506   0.569   6.308   9.427 -0.7430  0.9332 -0.1035
  382MOL0     H51507   0.482   6.209   9.643  0.1552 -0.1241  0.0810
  382MOL0     H51508   0.475   6.384   9.692  0.2204 -1.5799  1.4969
  382MOL0     H51509   0.363   6.339   9.433  3.3650 -0.0368  1.2631
  382MOL0     H51510   0.272   6.226   9.548 -0.6294 -0.1848 -1.1934
  382MOL0     H51511   0.272   6.434   9.715 -2.8016  3.0175  0.5719
  382MOL0     H51512   0.301   6.532   9.569  3.6346  1.6998  3.4449
  382MOL0     H51513   0.087   6.389   9.494 -0.6795 -1.0672  0.5144
  382MOL0     H51514   0.080   6.349   9.669 -1.0298  1.0181  1.2156
  382MOL0     H51515   0.060   6.569   9.743 -1.1011  4.6031 -0.1119
  382MOL0     H51516   0.078   6.635   9.587 -1.0382  0.9676  0.0560
  382MOL0     H51517  -0.125   6.601   9.530  1.4381 -0.1166  1.4357
  382MOL0     H51518  -0.141   6.436   9.576 -0.0088  1.2270 -3.3066
  382MOL0     H51519  -0.168   6.658   9.792 -0.4904  0.5667  0.3648
  382MOL0     H51520  -0.198   6.495   9.813  1.3070 -0.8600 -0.3229
  382MOL0     H51521  -0.351   6.707   9.502  2.3306 -1.9302 -0.2229
  382MOL0     H51522  -0.612   6.710   9.426 -0.5752 -0.2422 -0.6168
  382MOL0     H51523  -0.727   6.713   9.561 -0.6307  0.0017 -2.1779
  382MOL0     H51524  -0.679   6.927   9.469 -0.4666 -2.5847 -0.7053
  382MOL0     H51525  -0.507   6.912   9.497  0.4489  0.4778 -1.0922
  382MOL0     H51526  -0.530   6.990   9.715 -0.8608  3.4268 -0.6738
  382MOL0     H51527  -0.635   6.856   9.749 -0.5374  0.4232  0.3898
  382MOL0     H51528  -0.748   7.117   9.635  1.2785 -0.5120 -0.3678
  382MOL0     H51529  -0.749   7.069   9.805  0.1249  2.2443 -1.3174
  382MOL0     H51530  -1.092   6.816   9.646  2.4330  0.2586 -0.9837
  382MOL0     H51531  -1.437   6.899   9.660 -1.3517  1.3269 -0.2328
  382MOL0     H51532  -1.376   6.921   9.502 -1.0665  0.4494  1.5784
  382MOL0     H51533  -1.325   6.780   9.604 -1.3957 -0.3599  2.6509
  382MOL0     H51534  -1.495   7.368   9.902 -1.9465  0.9192  2.7392
  382MOL0     H51535  -1.702   7.514   9.929 -1.4217  0.6420 -0.1224
  382MOL0     H51536  -1.867   7.767   9.586  1.2015 -0.5342  0.1546
  382MOL0     H51537  -1.912   7.608   9.538  1.5170 -0.1242 -0.7668
  382MOL0     H51538  -2.066   7.608   9.755 -0.3669 -0.4427 -0.7835
  382MOL0     H51539  -2.051   7.784   9.732  0.9642  0.1780  0.6267
  382MOL0     H51540  -2.253   7.675   9.606  0.3871 -0.8178  0.5478
  382MOL0     H51541  -2.144   7.581   9.518 -3.9842 -1.9577  1.2603
  382MOL0     H51542  -2.143   7.895   9.531  1.3166 -0.2504  1.4247
  382MOL0     H51543  -2.057   7.797   9.407  0.4381  1.1077  0.9779
  382MOL0     H51544  -2.359   7.815   9.425 -0.0629  0.3194  0.9720
  382MOL0     H51545  -2.257   7.724   9.313 -0.2132 -0.2400  0.0655
  382MOL0     H51546  -2.245   8.020   9.339  0.6468 -0.4424 -0.3004
  382MOL0     H51547  -2.120   7.914   9.257  0.9874 -1.7960  3.7093
  382MOL0     H51548  -2.421   7.935   9.207 -0.9009  2.8077 -2.5702
  382MOL0     H51549  -2.312   7.821   9.113  1.1425 -0.8274  1.5563
  382MOL0     H51550  -2.204   8.042   9.019  0.6779  2.1863  2.2891
  382MOL0     H51551  -2.318   8.127   9.124  0.7936 -0.0559 -0.3531
  382MOL0     H51552  -1.704   7.570   9.500 -0.3926  1.2958  1.3319
  382MOL0     H51553  -1.519   7.441   9.479  0.7698 -0.6207  0.0576
  382MOL0     H51554  -1.151   7.283   9.772 -3.1375  0.0969 -0.8873
  382MOL0     H51555  -0.932   7.197   9.785  0.9054  0.0448 -1.8092
  382MOL0     H51556   0.908   6.356   9.749  1.1918  2.5888  0.8899
  382MOL0     H51557   1.130   6.436   9.687  1.9268  0.8492 -0.8273
  382MOL0     H51558   1.343   6.907   9.462 -1.1334 -0.1870  1.5394
  382MOL0     H51559   1.588   6.968   9.426  0.0853  0.7888 -1.4824
  382MOL0     H51560   1.791   6.985   9.426  0.4078  0.5676 -0.0561
  382MOL0     H51561   1.857   6.860   9.517  0.4866  2.4110  0.5441
  382MOL0     H51562   2.019   6.998   9.395 -1.2480  0.9809 -0.7271
  382MOL0     H51563   1.950   6.941   9.232  1.5741 -1.0537 -1.1956
  382MOL0     H51564   2.009   6.714   9.300  2.2524 -0.5435 -1.0242
  382MOL0     H51565   2.070   6.773   9.451 -1.7076  0.9532  0.3890
  382MOL0     H51566   2.256   6.723   9.284 -3.2584 -2.2821 -2.9062
  382MOL0     H51567   2.254   6.895   9.338 -1.6693  1.1840 -0.3878
  382MOL0     H51568   2.260   6.906   8.928  2.6181 -2.9206 -0.1439
  382MOL0     H51569   1.654   6.593   9.261  3.0619  1.2264 -0.4310
  382MOL0     H51570   1.415   6.516   9.305  0.1541 -0.4325 -0.4659
  383MOL0     O51571   7.515   0.606  10.308  0.2457  0.4173 -0.1077
  383MOL0     C51572   7.509   0.621  10.191  0.0313 -0.5162  0.1523
  383MOL0     O51573   7.408   0.569  10.110  0.0476  0.0504 -0.1662
  383MOL0     C51574   7.280   0.539  10.161 -0.1039 -0.0370 -0.8604
  383MOL0     C51575   7.211   0.629  10.247 -0.2420 -0.2929 -0.3822
  383MOL0     C51576   7.073   0.612  10.268  1.1581  0.6430  1.2578
  383MOL0     C51577   7.003   0.515  10.187  1.0663 -0.1801 -0.5556
  383MOL0     O51578   6.861   0.501  10.186  0.1439  0.0516  0.5714
  383MOL0     C51579   6.777   0.595  10.245  0.4899  0.3876  0.2801
  383MOL0     C51580   6.640   0.521  10.233  0.0101  1.4611  0.2884
  383MOL0     C51581   6.544   0.570  10.124  0.3585  0.6894 -0.0214
  383MOL0     C51582   6.412   0.500  10.104  0.6042  0.4290 -0.5366
  383MOL0     C51583   6.330   0.580  10.000 -0.5712 -0.2774 -0.1961
  383MOL0     C51584   6.207   0.512   9.955  0.0520 -0.0568  0.1945
  383MOL0     C51585   6.094   0.506  10.070  0.0785 -0.6710 -0.0444
  383MOL0     C51586   6.028   0.643  10.081 -0.3508  0.2699 -0.0951
  383MOL0     N51587   5.924   0.665   9.981  0.0775 -0.3366  0.5680
  383MOL0     C51588   5.815   0.741  10.006  1.2090 -0.4247 -0.5639
  383MOL0     C51589   5.748   0.748   9.888  0.0088  0.4450 -0.7952
  383MOL0     C51590   5.611   0.819   9.868 -0.2730  0.5868 -0.1620
  383MOL0     C51591   5.509   0.709   9.837 -0.7678 -0.9250  0.6486
  383MOL0     C51592   5.390   0.780   9.761 -0.0905 -0.4952  0.7078
  383MOL0     C51593   5.283   0.691   9.706  0.1539 -0.3950 -0.3160
  383MOL0     O51594   5.169   0.760   9.677 -0.0711 -0.4224  1.0742
  383MOL0     C51595   5.063   0.693   9.626  0.7301 -0.0720  0.5313
  383MOL0     C51596   4.954   0.766   9.580 -0.6834  1.0811 -0.1284
  383MOL0     C51597   4.836   0.708   9.527  0.2347  0.2013 -0.1382
  383MOL0     C51598   4.740   0.812   9.474 -0.0283  0.5729  0.8323
  383MOL0     C51599   4.821   0.563   9.528 -0.3992 -0.3094  0.2638
  383MOL0     C51600   4.684   0.504   9.494 -0.5455 -0.2588  0.2982
  383MOL0     O51601   4.680   0.375   9.534 -0.2695 -0.2559 -0.0375
  383MOL0     C51602   4.560   0.317   9.547  0.4194  0.5823  0.4029
  383MOL0     C51603   4.489   0.262   9.437  0.4669 -0.1291  0.0601
  383MOL0     C51604   4.361   0.201   9.458 -0.0088  0.2119 -0.1401
  383MOL0     C51605   4.302   0.194   9.589  0.0337  0.1365  0.2800
  383MOL0     O51606   4.175   0.146   9.600 -0.4995 -0.1197 -0.3769
  383MOL0     C51607   4.147   0.011   9.558  0.1158  0.1290  0.1337
  383MOL0     C51608   4.059  -0.061   9.660 -0.2803  0.3258  0.4681
  383MOL0     C51609   4.044  -0.212   9.631  0.5604 -0.0168 -0.3443
  383MOL0     C51610   3.942  -0.268   9.725  0.7494  0.0666 -0.8966
  383MOL0     C51611   3.901  -0.412   9.715 -0.0488  0.4249  0.2390
  383MOL0     C51612   3.826  -0.455   9.583 -0.1257  0.2731  0.2299
  383MOL0     C51613   3.746  -0.594   9.602  0.2342 -0.8171  0.1810
  383MOL0     C51614   3.627  -0.587   9.704 -0.4356 -0.2181  0.3058
  383MOL0    Cl51615   3.502  -0.485   9.629  0.2631 -0.1814  0.4198
  383MOL0     C51616   4.377   0.256   9.689  0.3705 -0.2917 -0.1983
  383MOL0     C51617   4.497   0.320   9.670 -0.3148 -0.5680  0.4997
  383MOL0     O51618   4.596   0.565   9.439  0.3555 -0.0211 -0.2146
  383MOL0     C51619   4.929   0.488   9.572  0.7109  0.4010 -0.5170
  383MOL0     C51620   5.048   0.555   9.617 -0.6712  0.5042 -0.1705
  383MOL0     N51621   5.818   0.677   9.793  0.0220  0.4519  0.0981
  383MOL0     N51622   5.931   0.633   9.847 -0.1130  0.1996  0.1508
  383MOL0     C51623   7.066   0.425  10.108 -1.2799  0.5780 -0.6298
  383MOL0     C51624   7.209   0.441  10.097 -0.0515  0.3477 -0.2726
  383MOL0     C51625   7.630   0.674  10.127 -0.3461 -1.0887  0.0311
  383MOL0     C51626   7.742   0.723  10.204  0.0876  0.4772  0.1588
  383MOL0     C51627   7.860   0.754  10.137  0.1624  0.3650 -0.6335
  383MOL0     C51628   7.870   0.756   9.998  0.4130  0.2829  0.1844
  383MOL0     O51629   7.986   0.792   9.930  0.1107 -0.1675 -0.0286
  383MOL0     C51630   8.114   0.768  10.003  0.0538  0.1436 -0.7617
  383MOL0     C51631   8.222   0.816   9.910  0.3632 -0.0433  0.3875
  383MOL0     C51632   8.354   0.793   9.971  0.3474  0.7278 -0.2551
  383MOL0     C51633   8.458   0.868   9.884  0.9838  0.3447 -0.2248
  383MOL0     C51634   8.591   0.818   9.926  0.6961  0.1453  0.1930
  383MOL0     C51635   8.703   0.760   9.940  0.3982  0.1762 -0.0112
  383MOL0     C51636   7.757   0.715   9.922 -0.0345 -0.2991  0.0577
  383MOL0     C51637   7.637   0.680   9.985  0.3156 -0.6256 -0.1590
  383MOL0     H51638   7.265   0.713  10.291 -0.7152 -0.9493  1.5358
  383MOL0     H51639   7.035   0.688  10.336  3.9690  1.2285  2.3356
  383MOL0     H51640   6.800   0.620  10.349  2.8176 -2.1770  0.5055
  383MOL0     H51641   6.768   0.694  10.199  2.4544  0.5607  0.1506
  383MOL0     H51642   6.650   0.412  10.236  2.5062  1.5760 -1.1343
  383MOL0     H51643   6.593   0.548  10.328 -3.2354 -0.6041 -0.5274
  383MOL0     H51644   6.530   0.676  10.146 -4.2395  0.7493 -2.2129
  383MOL0     H51645   6.599   0.564  10.029  1.8024 -0.4103  0.8388
  383MOL0     H51646   6.416   0.398  10.065 -0.2518  0.2689 -0.2373
  383MOL0     H51647   6.363   0.489  10.201 -0.6137  1.3594 -1.0132
  383MOL0     H51648   6.299   0.671  10.053 -1.2257 -1.7815  2.1654
  383MOL0     H51649   6.392   0.600   9.912  1.0649  0.6655  1.1053
  383MOL0     H51650   6.173   0.569   9.868  0.8748 -0.1611 -0.2090
  383MOL0     H51651   6.219   0.404   9.939 -0.5738 -0.0471 -0.3828
  383MOL0     H51652   6.013   0.435  10.048 -0.6129 -0.0314  0.3723
  383MOL0     H51653   6.140   0.485  10.167 -0.6802  2.3468  1.0961
  383MOL0     H51654   6.100   0.724  10.073  3.7747 -3.1074 -0.4293
  383MOL0     H51655   5.987   0.647  10.183 -0.8728 -0.8808 -0.2415
  383MOL0     H51656   5.782   0.774  10.104  2.2284  0.2066 -0.4255
  383MOL0     H51657   5.589   0.867   9.964 -0.4472  3.5300 -1.5731
  383MOL0     H51658   5.620   0.895   9.790  0.2986  0.3844 -0.2967
  383MOL0     H51659   5.485   0.646   9.924  0.8885 -0.7498  1.2602
  383MOL0     H51660   5.552   0.641   9.763 -0.5899  0.9596 -1.0643
  383MOL0     H51661   5.428   0.837   9.675 -1.2188 -2.5998 -1.3019
  383MOL0     H51662   5.344   0.847   9.834 -1.2062  0.8357 -1.1384
  383MOL0     H51663   5.265   0.625   9.790  4.1293  0.9116  1.8247
  383MOL0     H51664   5.315   0.632   9.619 -2.5984 -0.2528 -1.5477
  383MOL0     H51665   4.960   0.874   9.595  0.6182  1.0393 -0.2304
  383MOL0     H51666   4.732   0.787   9.367  0.8687 -0.1744  0.9153
  383MOL0     H51667   4.642   0.818   9.521  0.1828  1.4978  1.1625
  383MOL0     H51668   4.773   0.915   9.485 -0.2934  0.7922 -0.3309
  383MOL0     H51669   4.541   0.269   9.342  2.1523  0.1473  0.9657
  383MOL0     H51670   4.321   0.171   9.362  2.8029  3.2340 -2.4558
  383MOL0     H51671   4.095   0.027   9.464 -1.1771 -0.6671  0.6860
  383MOL0     H51672   4.235  -0.053   9.544 -1.3010 -1.5747 -1.4257
  383MOL0     H51673   4.088  -0.051   9.765 -1.0539  0.4565  0.6768
  383MOL0     H51674   3.959  -0.017   9.660 -0.5374 -0.2461 -0.1544
  383MOL0     H51675   4.140  -0.259   9.651  0.1155 -0.0998  1.7935
  383MOL0     H51676   4.015  -0.230   9.527  0.0919  0.2063 -0.2570
  383MOL0     H51677   3.984  -0.248   9.824 -1.9177 -0.2337  0.3991
  383MOL0     H51678   3.853  -0.205   9.715  1.2868  0.9027 -0.6139
  383MOL0     H51679   3.838  -0.431   9.803  2.0197 -2.0906  1.3072
  383MOL0     H51680   3.992  -0.469   9.735 -0.3059  0.4151  1.4749
  383MOL0     H51681   3.771  -0.381   9.524 -1.5051 -0.6542  0.3000
  383MOL0     H51682   3.911  -0.472   9.517  0.4988  1.0557  0.8168
  383MOL0     H51683   3.809  -0.678   9.632 -1.2383 -2.8203 -2.0099
  383MOL0     H51684   3.712  -0.619   9.501  3.1224  0.3298 -1.1956
  383MOL0     H51685   3.650  -0.537   9.798 -0.1642 -0.4375  0.3593
  383MOL0     H51686   3.578  -0.683   9.722 -2.7086  0.8328  0.0787
  383MOL0     H51687   4.330   0.258   9.787 -1.4629 -0.6482 -1.0299
  383MOL0     H51688   4.540   0.377   9.752 -0.1136 -0.2406  0.1685
  383MOL0     H51689   4.912   0.383   9.593  1.5515  0.3584 -0.0160
  383MOL0     H51690   5.135   0.497   9.645  0.7197  2.7153  0.3077
  383MOL0     H51691   7.002   0.366  10.043 -1.9878  0.8244 -0.1554
  383MOL0     H51692   7.261   0.381  10.024  0.4328  1.5378 -0.9361
  383MOL0     H51693   7.739   0.716  10.312 -0.5910  1.4474  0.2142
  383MOL0     H51694   7.943   0.776  10.204  1.6316 -0.2682 -2.1658
  383MOL0     H51695   8.127   0.816  10.100  2.2693  0.3329 -1.1030
  383MOL0     H51696   8.125   0.660  10.021 -2.1025  0.3216  2.2647
  383MOL0     H51697   8.215   0.924   9.895  0.3300 -0.3321 -2.0734
  383MOL0     H51698   8.210   0.768   9.813 -0.3146  0.0098  0.4389
  383MOL0     H51699   8.371   0.685   9.969  1.6245  0.9054 -2.3835
  383MOL0     H51700   8.357   0.835  10.072 -0.9366 -1.2234  0.6604
  383MOL0     H51701   8.453   0.975   9.910  1.0550 -0.1830  2.1984
  383MOL0     H51702   8.446   0.859   9.776  0.1365  0.6032 -0.1615
  383MOL0     H51703   8.799   0.714   9.931  0.7958  1.0327 -0.1758
  383MOL0     H51704   7.759   0.720   9.813  0.0231  2.0455  0.1259
  383MOL0     H51705   7.550   0.641   9.932 -1.8534  0.1031  2.6066
  384MOL0     O51706   7.032   0.649   1.313 -0.5762 -0.3216 -1.2131
  384MOL0     C51707   7.066   0.532   1.348  0.0398  0.0178  0.5493
  384MOL0     O51708   7.028   0.468   1.458 -0.8250  0.4096 -0.5395
  384MOL0     C51709   6.943   0.538   1.543  0.3754  0.1263  0.1443
  384MOL0     C51710   6.997   0.594   1.662  0.4065 -0.0334 -0.2566
  384MOL0     C51711   6.918   0.662   1.745  0.2926 -0.0792  0.6777
  384MOL0     C51712   6.779   0.679   1.721 -0.5138 -1.1705  0.1489
  384MOL0     O51713   6.709   0.737   1.820  0.2655 -0.0907 -0.0709
  384MOL0     C51714   6.606   0.653   1.871  0.6591  0.3973 -0.1222
  384MOL0     C51715   6.642   0.514   1.920  0.0604  0.2868 -0.3202
  384MOL0     C51716   6.748   0.507   2.033 -0.4167  0.1168  0.8911
  384MOL0     C51717   6.719   0.600   2.148  0.0539  0.5437  0.2826
  384MOL0     C51718   6.818   0.599   2.267  0.0852 -0.2056 -0.4846
  384MOL0     C51719   6.948   0.659   2.242  0.6462 -0.1811 -0.1381
  384MOL0     C51720   6.958   0.805   2.211  0.4418 -0.4065 -0.0252
  384MOL0     C51721   7.099   0.857   2.173  0.1368  0.3450 -0.5638
  384MOL0     N51722   7.130   0.835   2.029  0.0145  0.3319  0.3704
  384MOL0     C51723   7.114   0.930   1.926 -0.0454  0.0348  0.5663
  384MOL0     C51724   7.184   0.886   1.823  0.7902  0.4623 -0.0324
  384MOL0     C51725   7.190   0.944   1.686 -0.3490  0.0826  0.7878
  384MOL0     C51726   7.053   0.966   1.624 -1.2376  0.7375 -0.1609
  384MOL0     C51727   7.050   1.043   1.496 -0.2189  0.3109 -0.0092
  384MOL0     C51728   6.916   1.113   1.462  0.5785  0.4086 -0.7403
  384MOL0     O51729   6.812   1.018   1.473  0.1025 -0.0748  0.1406
  384MOL0     C51730   6.685   1.065   1.471 -0.5688  0.5766 -0.8130
  384MOL0     C51731   6.594   0.984   1.523  0.2141  0.3991  0.3478
  384MOL0     C51732   6.454   1.015   1.528  0.1274  0.6125  0.1269
  384MOL0     C51733   6.366   0.904   1.583  0.5173  0.1224 -0.6944
  384MOL0     C51734   6.413   1.148   1.496  0.3729  0.2002  0.6662
  384MOL0     C51735   6.276   1.206   1.507 -0.3106  0.4902  0.0723
  384MOL0     O51736   6.266   1.338   1.459 -0.0146 -0.4352  0.4835
  384MOL0     C51737   6.147   1.404   1.474  1.3101 -0.6401  0.7809
  384MOL0     C51738   6.087   1.447   1.354  0.0121  0.5754 -0.5641
  384MOL0     C51739   5.962   1.511   1.362 -0.3269  0.0920 -0.0381
  384MOL0     C51740   5.899   1.536   1.487  0.2526 -0.1549  0.4453
  384MOL0     O51741   5.782   1.609   1.486  0.8199 -0.2667 -0.6170
  384MOL0     C51742   5.738   1.659   1.611 -0.2123  0.9057  0.7311
  384MOL0     C51743   5.621   1.758   1.594  0.1010  0.3475 -0.4385
  384MOL0     C51744   5.490   1.692   1.558  0.0410  0.7851 -0.4916
  384MOL0     C51745   5.388   1.794   1.506 -0.0789  0.5396  0.2368
  384MOL0     C51746   5.255   1.719   1.488 -0.2485 -0.1636 -0.6439
  384MOL0     C51747   5.152   1.831   1.481 -0.2401  0.0724 -0.4880
  384MOL0     C51748   5.014   1.771   1.437  0.3685  0.1242 -0.3798
  384MOL0     C51749   4.910   1.876   1.385 -0.1834 -0.0770 -0.0777
  384MOL0    Cl51750   4.960   1.972   1.240  0.1219 -0.1249  0.3719
  384MOL0     C51751   5.965   1.484   1.604  0.4649  0.3998  1.2911
  384MOL0     C51752   6.084   1.420   1.593 -0.0178  0.4457 -0.5880
  384MOL0     O51753   6.184   1.131   1.532 -0.8591 -0.4619 -0.0842
  384MOL0     C51754   6.511   1.228   1.424 -0.5803  0.5191  0.1498
  384MOL0     C51755   6.647   1.180   1.415 -0.8952 -0.5196 -0.4750
  384MOL0     N51756   7.256   0.778   1.863  0.7516  0.4115  0.0752
  384MOL0     N51757   7.219   0.745   1.979 -0.7741  0.0943 -0.3984
  384MOL0     C51758   6.724   0.608   1.615  0.1841 -0.3834  0.0098
  384MOL0     C51759   6.802   0.528   1.527 -0.0293 -0.0263  0.4569
  384MOL0     C51760   7.165   0.471   1.253 -0.1579  0.2272 -0.6208
  384MOL0     C51761   7.267   0.380   1.305 -0.1418 -1.1276 -0.1668
  384MOL0     C51762   7.356   0.321   1.213 -0.2385 -0.5028  0.5433
  384MOL0     C51763   7.352   0.348   1.076  0.1981  0.7369 -0.8432
  384MOL0     O51764   7.441   0.289   0.991  0.1906  0.7068 -0.8184
  384MOL0     C51765   7.469   0.338   0.854  0.0778  0.1073 -0.0264
  384MOL0     C51766   7.520   0.483   0.866 -0.1976  0.5505 -0.3154
  384MOL0     C51767   7.572   0.544   0.736 -0.1987 -0.5550 -0.0770
  384MOL0     C51768   7.589   0.692   0.745 -0.0734  0.3829  0.3654
  384MOL0     C51769   7.723   0.729   0.786 -0.7807  0.1230 -0.0271
  384MOL0     C51770   7.829   0.777   0.814 -0.2179  1.0189  0.3123
  384MOL0     C51771   7.251   0.422   1.027 -0.2013  0.2817  0.3125
  384MOL0     C51772   7.157   0.481   1.112  0.4679  0.2250  0.0591
  384MOL0     H51773   7.105   0.588   1.676  0.3496 -2.6411 -0.4214
  384MOL0     H51774   6.961   0.712   1.831  3.0700  1.5963 -1.5204
  384MOL0     H51775   6.559   0.702   1.957  1.6315  2.2833 -0.6052
  384MOL0     H51776   6.530   0.640   1.794  1.7151  2.5862 -1.6260
  384MOL0     H51777   6.549   0.475   1.963  0.9921 -2.3403 -0.4669
  384MOL0     H51778   6.661   0.449   1.834 -1.6923  0.5296 -0.9275
  384MOL0     H51779   6.761   0.401   2.054 -0.4429 -0.4412 -1.5791
  384MOL0     H51780   6.841   0.544   1.988 -0.4626 -0.8166 -0.0164
  384MOL0     H51781   6.720   0.704   2.115  0.7359  0.0367 -1.4045
  384MOL0     H51782   6.621   0.576   2.190  1.2524 -1.1963  2.2630
  384MOL0     H51783   6.768   0.651   2.349  1.4257  0.1655  0.1255
  384MOL0     H51784   6.833   0.497   2.304  1.1178  0.7154  1.7824
  384MOL0     H51785   7.014   0.640   2.327 -0.0532 -1.2008  0.1909
  384MOL0     H51786   6.991   0.616   2.151  1.6123  0.7966 -0.1633
  384MOL0     H51787   6.884   0.858   2.150 -1.3951 -0.6640  1.8593
  384MOL0     H51788   6.946   0.843   2.313 -2.7906  0.2659 -0.5680
  384MOL0     H51789   7.180   0.805   2.224  0.3179 -0.4598 -1.6245
  384MOL0     H51790   7.105   0.960   2.209  0.2070 -0.2067  1.0691
  384MOL0     H51791   7.043   1.010   1.908 -1.3994 -1.0955  0.7474
  384MOL0     H51792   7.231   1.045   1.694 -1.1991  0.5586 -0.5714
  384MOL0     H51793   7.256   0.892   1.617  0.3335  0.2204  1.3323
  384MOL0     H51794   6.994   1.017   1.701  0.3302  1.0081  0.8934
  384MOL0     H51795   6.998   0.872   1.610 -1.0862  0.7680 -1.0760
  384MOL0     H51796   7.063   0.976   1.411 -0.6055 -0.8679  0.8372
  384MOL0     H51797   7.132   1.115   1.509  0.0010 -0.4535  7.1346
  384MOL0     H51798   6.926   1.157   1.362  2.7453 -0.2421 -0.8777
  384MOL0     H51799   6.893   1.195   1.530 -0.1909  0.4373 -1.0351
  384MOL0     H51800   6.628   0.893   1.572 -1.6216 -0.4074  0.1881
  384MOL0     H51801   6.333   0.841   1.500  1.8881  0.3127 -1.4072
  384MOL0     H51802   6.425   0.836   1.645 -3.2857 -1.5844  1.3792
  384MOL0     H51803   6.286   0.945   1.646 -0.0683 -0.4437 -1.0622
  384MOL0     H51804   6.133   1.433   1.257 -2.0637  3.6137 -2.1502
  384MOL0     H51805   5.906   1.534   1.271 -0.9772 -0.9151  0.0808
  384MOL0     H51806   5.688   1.578   1.665 -0.5155  1.2942  1.0418
  384MOL0     H51807   5.821   1.700   1.670  0.9728  0.8108 -0.8040
  384MOL0     H51808   5.603   1.817   1.684 -1.7276 -2.2058  0.9709
  384MOL0     H51809   5.651   1.816   1.506 -4.9824 -0.5168 -3.1679
  384MOL0     H51810   5.452   1.647   1.650 -0.0650 -2.0570 -1.8281
  384MOL0     H51811   5.510   1.606   1.494 -1.7307  0.6795 -0.9436
  384MOL0     H51812   5.385   1.883   1.569  3.9612  1.9645 -1.2638
  384MOL0     H51813   5.413   1.835   1.408 -1.4677  1.1586  0.1230
  384MOL0     H51814   5.238   1.649   1.570 -0.8094  1.0398  0.2982
  384MOL0     H51815   5.252   1.661   1.396  2.9375  0.9482 -1.6037
  384MOL0     H51816   5.146   1.875   1.581  1.7485 -5.0925  2.2899
  384MOL0     H51817   5.187   1.899   1.402 -1.3670  0.0455 -1.0329
  384MOL0     H51818   4.976   1.706   1.517 -3.1397  1.4253 -0.8097
  384MOL0     H51819   5.037   1.698   1.359  1.2757  0.6911 -0.6608
  384MOL0     H51820   4.879   1.946   1.463  0.0451 -0.2573  0.1758
  384MOL0     H51821   4.819   1.823   1.357 -0.6864  1.2453 -1.0706
  384MOL0     H51822   5.924   1.505   1.702  2.0855 -1.4300  2.4290
  384MOL0     H51823   6.140   1.406   1.685 -0.8338  3.4366  0.4695
  384MOL0     H51824   6.494   1.333   1.403  1.0749  1.0226  1.0988
  384MOL0     H51825   6.723   1.249   1.380 -0.3175 -0.5483  0.6620
  384MOL0     H51826   6.618   0.629   1.607 -0.2708 -2.9828 -2.2099
  384MOL0     H51827   6.760   0.467   1.448 -1.0403 -1.7123  2.2334
  384MOL0     H51828   7.267   0.352   1.410  1.0486 -2.4696 -0.4854
  384MOL0     H51829   7.425   0.244   1.248  0.2959  0.1934  1.0463
  384MOL0     H51830   7.555   0.274   0.827  0.2845 -1.3327  3.5464
  384MOL0     H51831   7.386   0.324   0.785  0.0217 -0.8237  0.2054
  384MOL0     H51832   7.597   0.486   0.944 -0.2345 -1.9002 -0.1190
  384MOL0     H51833   7.443   0.558   0.889 -0.6791  0.2819 -1.0360
  384MOL0     H51834   7.508   0.514   0.652  2.4637 -4.4146 -0.9753
  384MOL0     H51835   7.665   0.491   0.715 -0.2519 -1.5122  1.8753
  384MOL0     H51836   7.505   0.740   0.797  0.1003  3.5436 -1.9896
  384MOL0     H51837   7.586   0.725   0.641 -0.0040  1.0384  0.5662
  384MOL0     H51838   7.930   0.807   0.832 -0.6744  2.8715 -0.0156
  384MOL0     H51839   7.237   0.423   0.919  2.3875  1.3984 -0.1037
  384MOL0     H51840   7.072   0.538   1.073 -0.2640 -1.3532 -0.7556
  385MOL0     O51841   7.025   6.277   8.869  0.1474  0.0668  0.7259
  385MOL0     C51842   6.992   6.221   8.974 -0.0446  0.4402 -0.0195
  385MOL0     O51843   6.876   6.230   9.035 -0.2289 -0.5672  0.7230
  385MOL0     C51844   6.775   6.301   8.968  0.0530  0.0293 -0.0779
  385MOL0     C51845   6.726   6.264   8.842  0.3252  0.1277 -0.2169
  385MOL0     C51846   6.645   6.351   8.763  0.1377 -0.3348  0.0955
  385MOL0     C51847   6.606   6.468   8.821  0.0249  0.6166  0.4043
  385MOL0     O51848   6.518   6.543   8.756  0.3963 -0.8151 -0.0864
  385MOL0     C51849   6.382   6.519   8.782  0.0988 -0.2996  0.1950
  385MOL0     C51850   6.316   6.440   8.672 -0.4197  0.1928  0.1401
  385MOL0     C51851   6.164   6.440   8.706  0.3101  1.1025  0.5712
  385MOL0     C51852   6.087   6.560   8.636  0.1561 -0.0762  0.3910
  385MOL0     C51853   5.943   6.535   8.618  0.0256 -0.0539  0.2004
  385MOL0     C51854   5.864   6.495   8.747 -0.1799 -0.0133  0.6601
  385MOL0     C51855   5.872   6.601   8.861 -0.1542  0.7571  0.0363
  385MOL0     C51856   5.844   6.745   8.829  0.0408  0.6448  0.4679
  385MOL0     N51857   5.706   6.770   8.781  0.2615 -0.3352 -1.0662
  385MOL0     C51858   5.600   6.773   8.869  0.4201  0.9987 -0.2406
  385MOL0     C51859   5.495   6.805   8.787 -0.9366 -0.0680 -0.2146
  385MOL0     C51860   5.363   6.829   8.852  1.3492 -0.1614 -0.6740
  385MOL0     C51861   5.270   6.916   8.765 -0.4115  0.3070 -0.0114
  385MOL0     C51862   5.138   6.944   8.828 -0.6623  0.6014 -0.5578
  385MOL0     C51863   5.034   6.986   8.725 -0.1878  0.3819  0.0277
  385MOL0     O51864   5.071   7.106   8.647  0.5836  1.1533 -0.3599
  385MOL0     C51865   4.960   7.152   8.577  0.1276  0.3433  0.0112
  385MOL0     C51866   4.962   7.139   8.441 -0.8136 -0.8087 -0.3943
  385MOL0     C51867   4.851   7.171   8.361 -0.3703  1.0371  0.5566
  385MOL0     C51868   4.862   7.148   8.209  0.2990 -0.1923  0.1980
  385MOL0     C51869   4.733   7.222   8.423  0.2393  0.3410 -0.7429
  385MOL0     C51870   4.605   7.272   8.362  0.9848 -0.1841  0.1179
  385MOL0     O51871   4.580   7.242   8.227 -0.1428  0.7934 -0.4255
  385MOL0     C51872   4.454   7.254   8.182  0.4761 -0.5308  0.0838
  385MOL0     C51873   4.419   7.335   8.075 -0.0592 -0.1915  0.2580
  385MOL0     C51874   4.282   7.359   8.050  0.5192  0.2214 -1.1171
  385MOL0     C51875   4.179   7.291   8.110 -0.1933 -0.0990  0.2348
  385MOL0     O51876   4.052   7.316   8.075  0.1319 -0.0649  0.1593
  385MOL0     C51877   3.950   7.283   8.171  0.4472  0.6738 -0.2501
  385MOL0     C51878   3.877   7.153   8.134  0.5939  0.0402  0.7439
  385MOL0     C51879   3.756   7.140   8.227  0.6610 -0.0461  0.0631
  385MOL0     C51880   3.634   7.216   8.178  0.1073 -0.4961  0.4217
  385MOL0     C51881   3.504   7.183   8.244  0.2443 -0.0455 -0.8759
  385MOL0     C51882   3.509   7.196   8.398  0.5003  0.1240 -0.5663
  385MOL0     C51883   3.381   7.148   8.456 -0.6883  0.0151  0.9924
  385MOL0     C51884   3.365   7.192   8.598 -0.4530 -0.3057  0.2238
  385MOL0    Cl51885   3.215   7.124   8.660  0.2332 -0.5411 -0.7303
  385MOL0     C51886   4.222   7.187   8.203 -0.0302 -1.1570  0.4277
  385MOL0     C51887   4.359   7.178   8.247  1.3760  0.5058 -0.0208
  385MOL0     O51888   4.523   7.330   8.431  0.2456 -0.5758 -0.0201
  385MOL0     C51889   4.740   7.226   8.563 -0.0784 -0.8730 -0.0401
  385MOL0     C51890   4.847   7.188   8.645 -0.3526 -0.0648  0.0934
  385MOL0     N51891   5.536   6.806   8.655  0.1045  0.1540  0.4113
  385MOL0     N51892   5.661   6.779   8.655  0.3289  0.0818  0.2576
  385MOL0     C51893   6.653   6.506   8.954 -0.0032  0.1340  0.0820
  385MOL0     C51894   6.741   6.426   9.026  0.4120  0.6385 -0.1054
  385MOL0     C51895   7.092   6.123   9.033  0.4215  0.5293 -0.2909
  385MOL0     C51896   7.223   6.118   8.993  0.2879 -0.1482  0.2291
  385MOL0     C51897   7.327   6.045   9.057 -0.1438 -0.4306  0.7639
  385MOL0     C51898   7.297   5.965   9.162  0.0670 -0.7557 -0.4023
  385MOL0     O51899   7.402   5.897   9.216 -0.3665  0.0895 -0.3058
  385MOL0     C51900   7.402   5.775   9.286  0.8250 -0.2779  0.3993
  385MOL0     C51901   7.372   5.800   9.436 -0.4225  0.7020  0.7731
  385MOL0     C51902   7.495   5.832   9.514  0.0270  0.5181 -0.2575
  385MOL0     C51903   7.468   5.857   9.665  0.6734 -0.4204  0.9320
  385MOL0     C51904   7.579   5.936   9.724 -0.1284  0.5596 -0.6148
  385MOL0     C51905   7.669   5.989   9.791  0.2882  0.0757  0.8452
  385MOL0     C51906   7.161   5.960   9.208  0.7003 -0.7878  0.0098
  385MOL0     C51907   7.060   6.039   9.145  0.4028  0.0727 -0.0871
  385MOL0     H51908   6.755   6.165   8.807 -1.3666 -1.3410  2.3156
  385MOL0     H51909   6.623   6.313   8.663  0.7259  0.2606 -0.2743
  385MOL0     H51910   6.365   6.463   8.875  2.7270 -0.0555  0.9228
  385MOL0     H51911   6.337   6.618   8.787  0.4743 -0.0619 -1.0426
  385MOL0     H51912   6.334   6.489   8.576 -2.1904 -0.4358 -0.5365
  385MOL0     H51913   6.347   6.335   8.671 -2.8058 -0.5797  0.5312
  385MOL0     H51914   6.126   6.344   8.671  1.1736 -0.2276  3.0463
  385MOL0     H51915   6.145   6.430   8.813 -2.7048 -2.5319 -0.0948
  385MOL0     H51916   6.105   6.649   8.697  0.4255 -0.2433  0.5566
  385MOL0     H51917   6.139   6.587   8.545  0.6887  2.0020  1.2557
  385MOL0     H51918   5.895   6.620   8.568  0.6675 -1.8491 -3.8313
  385MOL0     H51919   5.943   6.452   8.548  0.3959  0.1304 -0.0198
  385MOL0     H51920   5.764   6.478   8.707  1.4447 -2.3751 -2.9547
  385MOL0     H51921   5.908   6.397   8.771 -0.0682 -0.5151 -1.4314
  385MOL0     H51922   5.815   6.576   8.951  1.2934  0.6421  0.9701
  385MOL0     H51923   5.970   6.600   8.910 -0.8713 -1.3642  1.5638
  385MOL0     H51924   5.905   6.786   8.747 -1.7945 -0.2558 -1.4293
  385MOL0     H51925   5.861   6.803   8.920 -3.4567  1.5869  0.6331
  385MOL0     H51926   5.597   6.767   8.977  0.7064 -0.4969 -0.2929
  385MOL0     H51927   5.322   6.729   8.867 -0.2227  0.6206  0.6435
  385MOL0     H51928   5.385   6.877   8.948  1.2346 -0.7488 -0.3471
  385MOL0     H51929   5.234   6.853   8.683 -1.5418  1.0177 -0.0754
  385MOL0     H51930   5.315   7.011   8.734  0.6175  0.7035  2.4546
  385MOL0     H51931   5.145   7.027   8.899  1.0075  0.0636 -0.0495
  385MOL0     H51932   5.090   6.857   8.874  0.2510 -0.2045 -1.1021
  385MOL0     H51933   4.939   7.005   8.776 -0.7551 -1.2252 -0.3450
  385MOL0     H51934   5.008   6.897   8.666  2.6239 -0.8307  0.4669
  385MOL0     H51935   5.049   7.104   8.386  0.3028  0.4613  0.4819
  385MOL0     H51936   4.965   7.132   8.176  0.8519  4.0002 -0.6970
  385MOL0     H51937   4.798   7.061   8.187 -1.5369  0.7115  1.6803
  385MOL0     H51938   4.825   7.236   8.156 -2.0696 -2.0127 -1.4128
  385MOL0     H51939   4.503   7.377   8.021  0.1919 -1.3747 -0.3017
  385MOL0     H51940   4.261   7.435   7.975  1.7839  3.2594  1.3812
  385MOL0     H51941   3.996   7.279   8.270  0.0236 -1.5214 -0.1075
  385MOL0     H51942   3.870   7.358   8.172  0.2106  0.5368  3.1782
  385MOL0     H51943   3.845   7.160   8.029  0.5381  1.3577  0.8385
  385MOL0     H51944   3.954   7.077   8.149  0.7713  0.3682  1.5535
  385MOL0     H51945   3.780   7.172   8.329 -2.4280 -0.8168  1.1413
  385MOL0     H51946   3.734   7.033   8.225 -0.2136  0.1334 -1.5393
  385MOL0     H51947   3.651   7.321   8.201 -0.5189  0.0174 -1.3057
  385MOL0     H51948   3.613   7.202   8.071 -0.5156 -1.5140  0.6647
  385MOL0     H51949   3.479   7.079   8.224  1.5086 -0.0349 -2.6762
  385MOL0     H51950   3.419   7.243   8.209  0.6566  1.8949  1.1578
  385MOL0     H51951   3.590   7.136   8.441 -0.9403 -0.2554  1.8259
  385MOL0     H51952   3.519   7.302   8.423 -1.5673 -0.1642  1.9596
  385MOL0     H51953   3.376   7.039   8.457 -0.7480 -0.0281 -0.8784
  385MOL0     H51954   3.298   7.179   8.393  0.7031 -2.8240 -2.5816
  385MOL0     H51955   3.364   7.302   8.604  0.9504 -0.2576  0.1124
  385MOL0     H51956   3.451   7.150   8.651  0.8817  1.8882 -0.0448
  385MOL0     H51957   4.144   7.132   8.254 -0.5564 -1.4990 -0.7041
  385MOL0     H51958   4.393   7.101   8.315 -1.8519 -0.1278  1.0654
  385MOL0     H51959   4.657   7.269   8.620  0.2212  0.5533 -0.6412
  385MOL0     H51960   4.848   7.202   8.753  2.1575  1.1428 -0.0313
  385MOL0     H51961   6.615   6.600   8.993  0.3698 -0.4953  2.0583
  385MOL0     H51962   6.788   6.461   9.118  1.2707  2.4728 -1.1808
  385MOL0     H51963   7.244   6.191   8.916 -0.0356  1.2521  1.4252
  385MOL0     H51964   7.432   6.064   9.036 -0.7481  0.8747 -1.3859
  385MOL0     H51965   7.333   5.701   9.245  1.4579 -0.9271  0.4697
  385MOL0     H51966   7.501   5.728   9.278  1.4515  1.2440 -1.7265
  385MOL0     H51967   7.327   5.704   9.466 -1.1612  1.1759  1.2212
  385MOL0     H51968   7.301   5.883   9.443 -2.1738 -0.1959 -3.3066
  385MOL0     H51969   7.546   5.918   9.470  1.3487 -0.6072 -1.0364
  385MOL0     H51970   7.567   5.753   9.492 -0.5664  0.5576 -2.6518
  385MOL0     H51971   7.467   5.756   9.706  0.0371 -1.3994 -1.3167
  385MOL0     H51972   7.372   5.908   9.667  1.7036  1.7252 -0.3661
  385MOL0     H51973   7.744   6.044   9.844 -0.5708  3.7729 -1.3938
  385MOL0     H51974   7.122   5.896   9.287  1.4901 -1.7227 -0.3400
  385MOL0     H51975   6.962   6.025   9.191 -1.2947 -0.8632 -3.6550
  386MOL0     O51976  10.881   4.490   9.788 -0.0858 -0.5344 -0.5170
  386MOL0     C51977  10.903   4.414   9.884 -0.3137  0.9419 -0.2166
  386MOL0     O51978  10.809   4.371   9.973  0.6671  0.2642  0.2504
  386MOL0     C51979  10.688   4.438   9.969 -0.8743 -0.4503  1.3651
  386MOL0     C51980  10.609   4.448   9.854  0.0372  0.2660 -0.4947
  386MOL0     C51981  10.479   4.504   9.863  0.6316  0.5580 -0.7337
  386MOL0     C51982  10.432   4.562   9.984 -0.1701 -0.5891 -0.1618
  386MOL0     O51983  10.318   4.642   9.984  0.3508 -0.8004  0.1847
  386MOL0     C51984  10.290   4.731  10.095 -0.2561  0.3735  0.7247
  386MOL0     C51985  10.163   4.808  10.073  0.8189  0.1020 -0.2174
  386MOL0     C51986  10.176   4.919   9.975 -0.9846  0.3290  0.3271
  386MOL0     C51987  10.036   4.983   9.939  0.0900  0.1176  0.2664
  386MOL0     C51988  10.034   5.107   9.839 -0.0325 -0.4138  0.3237
  386MOL0     C51989   9.915   5.200   9.864 -0.0240 -0.3528  0.2301
  386MOL0     C51990   9.776   5.133   9.863  0.2406  0.2559 -0.0043
  386MOL0     C51991   9.669   5.241   9.884 -0.2006 -0.6193  0.4539
  386MOL0     N51992   9.663   5.315  10.013 -0.1574 -0.0160  0.3276
  386MOL0     C51993   9.720   5.285  10.135 -0.6254 -0.5257  0.0007
  386MOL0     C51994   9.688   5.390  10.208  0.2149  0.7483 -0.2333
  386MOL0     C51995   9.733   5.415  10.350 -0.5365 -0.0603  0.1653
  386MOL0     C51996   9.666   5.322  10.452 -0.1488 -0.0752  0.8120
  386MOL0     C51997   9.705   5.352  10.591  0.6536 -0.0557 -0.9146
  386MOL0     C51998   9.857   5.338  10.597 -0.0052 -0.1503 -0.2286
  386MOL0     O51999   9.903   5.339  10.728  0.6984  0.1901  0.2012
  386MOL0     C52000  10.040   5.345  10.737  0.0241 -0.3565  0.0285
  386MOL0     C52001  10.096   5.432  10.827  0.2123  0.5478 -0.5718
  386MOL0     C52002  10.228   5.442  10.853 -0.3225  0.3261  0.1532
  386MOL0     C52003  10.283   5.561  10.929 -0.8341 -0.3093 -0.4349
  386MOL0     C52004  10.317   5.357  10.784 -0.4250  0.0987  0.3454
  386MOL0     C52005  10.459   5.352  10.795 -0.9874  0.7495 -0.2897
  386MOL0     O52006  10.531   5.471  10.804  0.5715  0.4758  0.1858
  386MOL0     C52007  10.664   5.477  10.836  0.1625  0.2504 -0.0716
  386MOL0     C52008  10.770   5.415  10.765  0.3902 -0.0563  0.1246
  386MOL0     C52009  10.904   5.432  10.818 -0.6196  0.3448 -0.3842
  386MOL0     C52010  10.928   5.493  10.944 -0.2239  0.3063 -0.0412
  386MOL0     O52011  11.046   5.483  11.009 -0.1532  0.8588  0.0564
  386MOL0     C52012  11.150   5.554  10.947 -0.0939 -0.8743  0.8122
  386MOL0     C52013  11.260   5.602  11.041  0.5510  0.3731 -0.6525
  386MOL0     C52014  11.201   5.694  11.155 -0.7773  0.1811 -0.1243
  386MOL0     C52015  11.242   5.840  11.135 -0.0146 -1.0029 -1.3565
  386MOL0     C52016  11.179   5.938  11.239  0.1724 -0.4286  0.4991
  386MOL0     C52017  11.222   6.080  11.218  1.0081 -1.0156  0.4073
  386MOL0     C52018  11.345   6.115  11.306 -0.4327 -0.0911  0.3491
  386MOL0     C52019  11.383   6.265  11.296  1.0778  0.3189  0.2552
  386MOL0    Cl52020  11.251   6.377  11.374  0.5714 -0.3193 -0.2449
  386MOL0     C52021  10.822   5.568  11.002  0.0676  0.0140  0.4603
  386MOL0     C52022  10.692   5.558  10.945  0.5920  0.2881 -0.2619
  386MOL0     O52023  10.512   5.240  10.775  0.7069 -0.1015 -0.3867
  386MOL0     C52024  10.261   5.258  10.697  0.1725 -0.5580  0.4578
  386MOL0     C52025  10.122   5.244  10.679 -0.1084  0.2551  0.5133
  386MOL0     N52026   9.622   5.483  10.134 -0.2895  0.2704 -0.1953
  386MOL0     N52027   9.600   5.431  10.023  1.2565  0.4494  0.6448
  386MOL0     C52028  10.507   4.544  10.099 -0.5401 -0.3898 -0.8486
  386MOL0     C52029  10.630   4.481  10.091  0.2924  0.5994 -0.2782
  386MOL0     C52030  11.037   4.349   9.879  0.1527 -0.1722 -0.5904
  386MOL0     C52031  11.134   4.370   9.780  1.0669 -0.3777 -0.3246
  386MOL0     C52032  11.263   4.303   9.781 -0.8562  0.1545 -0.3435
  386MOL0     C52033  11.294   4.225   9.890 -0.5387  0.1501  0.0404
  386MOL0     O52034  11.418   4.170   9.907  0.1366  0.2201 -0.5470
  386MOL0     C52035  11.536   4.222   9.837 -0.0594 -0.2751  0.6472
  386MOL0     C52036  11.663   4.176   9.893  0.4693  0.1697  0.1080
  386MOL0     C52037  11.691   4.196  10.045  0.1662 -1.0733 -1.0620
  386MOL0     C52038  11.705   4.340  10.108  0.0346  0.0069  0.1966
  386MOL0     C52039  11.821   4.401  10.043 -0.1598 -0.2860 -0.4507
  386MOL0     C52040  11.926   4.441  10.003 -1.3393  0.2491 -0.7673
  386MOL0     C52041  11.205   4.219   9.997 -0.4130 -0.3406  0.0322
  386MOL0     C52042  11.075   4.267   9.991  0.3902  0.3698  0.0686
  386MOL0     H52043  10.650   4.407   9.763  3.4355  0.1503  0.9328
  386MOL0     H52044  10.409   4.489   9.782 -1.7917  0.0846  1.3434
  386MOL0     H52045  10.273   4.675  10.187 -2.0475 -1.2976 -0.5583
  386MOL0     H52046  10.385   4.784  10.109  0.4742 -0.1491 -1.7919
  386MOL0     H52047  10.085   4.734  10.053 -0.7566  0.0686  4.7173
  386MOL0     H52048  10.141   4.838  10.176 -3.4718 -0.4073 -0.8060
  386MOL0     H52049  10.238   4.993  10.027 -1.9959  0.3817  1.5089
  386MOL0     H52050  10.234   4.893   9.886  2.4473  1.4302  2.0621
  386MOL0     H52051   9.966   4.907   9.902 -0.6814  0.7887  0.3083
  386MOL0     H52052   9.993   5.013  10.035 -0.5191  0.2557 -0.0438
  386MOL0     H52053  10.130   5.159   9.843 -0.6155  0.8593 -1.0926
  386MOL0     H52054  10.031   5.065   9.738  1.4289 -0.1886  0.1647
  386MOL0     H52055   9.928   5.236   9.967 -1.6151  1.6628 -0.2056
  386MOL0     H52056   9.916   5.288   9.800 -0.0822  0.1451  0.9004
  386MOL0     H52057   9.762   5.076   9.771  1.2395  0.0148 -0.0080
  386MOL0     H52058   9.771   5.058   9.943  3.9048 -1.6488 -1.3226
  386MOL0     H52059   9.567   5.201   9.885 -0.6471  0.4872  1.0956
  386MOL0     H52060   9.683   5.311   9.801  1.5815 -1.0993  0.3258
  386MOL0     H52061   9.779   5.199  10.166  3.3246  1.2249 -1.9810
  386MOL0     H52062   9.842   5.407  10.352 -0.7025 -3.2066  0.8961
  386MOL0     H52063   9.704   5.517  10.377  0.2989 -0.1594  1.5742
  386MOL0     H52064   9.673   5.215  10.430 -0.4442  0.3785 -1.8361
  386MOL0     H52065   9.558   5.338  10.456 -0.3837 -0.8732 -1.0545
  386MOL0     H52066   9.648   5.291  10.662 -0.5135 -1.5653 -3.0546
  386MOL0     H52067   9.684   5.456  10.616 -0.7718 -1.1388  3.1644
  386MOL0     H52068   9.903   5.423  10.547 -1.6655  1.2639  0.5581
  386MOL0     H52069   9.881   5.240  10.553 -3.0012 -1.0060 -0.1988
  386MOL0     H52070  10.041   5.510  10.879  1.7209  3.4968 -3.0539
  386MOL0     H52071  10.199   5.592  10.992  0.4123  2.6321 -0.0614
  386MOL0     H52072  10.370   5.527  10.987  0.0600  0.3962 -1.3422
  386MOL0     H52073  10.312   5.649  10.872  0.3106  2.1210  3.4813
  386MOL0     H52074  10.749   5.361  10.674  0.0871 -0.8004  0.6254
  386MOL0     H52075  10.987   5.378  10.773  0.9411  1.3099  1.2414
  386MOL0     H52076  11.196   5.485  10.875  2.7602 -0.5328  2.1659
  386MOL0     H52077  11.115   5.644  10.895  0.3936 -2.2567 -2.1054
  386MOL0     H52078  11.282   5.513  11.101  0.7775  1.4820  0.9796
  386MOL0     H52079  11.345   5.645  10.988 -1.4490  0.9471 -3.6016
  386MOL0     H52080  11.245   5.654  11.247  0.9352 -2.1016 -1.8074
  386MOL0     H52081  11.092   5.682  11.152 -0.6957 -1.2480  1.0388
  386MOL0     H52082  11.350   5.846  11.148 -0.3761  0.5774  2.2524
  386MOL0     H52083  11.209   5.868  11.034 -0.6322  1.7307 -0.4958
  386MOL0     H52084  11.201   5.905  11.341 -0.7878  2.3384  1.7095
  386MOL0     H52085  11.071   5.931  11.224  0.0188 -1.5833  1.9303
  386MOL0     H52086  11.237   6.087  11.110 -1.6175  0.5514  0.0476
  386MOL0     H52087  11.145   6.155  11.240  1.1131 -0.2893 -1.4937
  386MOL0     H52088  11.430   6.057  11.269 -0.0588  1.3107 -1.1289
  386MOL0     H52089  11.320   6.098  11.411 -2.3297  2.0039  0.3071
  386MOL0     H52090  11.391   6.292  11.191 -0.5304  0.3126  0.1099
  386MOL0     H52091  11.478   6.281  11.349  0.1817  1.2291  1.6712
  386MOL0     H52092  10.846   5.627  11.090 -0.6217  0.0657  0.6167
  386MOL0     H52093  10.616   5.625  10.983 -0.8873 -0.6013 -1.5487
  386MOL0     H52094  10.324   5.186  10.646  1.2830  0.7318 -0.0474
  386MOL0     H52095  10.083   5.150  10.640  0.1001  0.5707 -0.4735
  386MOL0     H52096  10.468   4.573  10.195 -0.9505 -2.5389 -0.3092
  386MOL0     H52097  10.683   4.467  10.185  3.2924  0.4010 -1.8477
  386MOL0     H52098  11.101   4.435   9.700 -0.3326 -0.5852  0.0565
  386MOL0     H52099  11.330   4.324   9.698 -2.8280 -0.7953 -2.2885
  386MOL0     H52100  11.525   4.199   9.730  2.0656 -1.9773  0.7232
  386MOL0     H52101  11.541   4.331   9.839 -2.0223 -0.1313 -0.1663
  386MOL0     H52102  11.732   4.233   9.831 -0.4827 -0.8385 -2.0051
  386MOL0     H52103  11.675   4.071   9.862 -1.5487 -0.7309  2.0287
  386MOL0     H52104  11.777   4.132  10.066 -1.6742 -2.8800  1.7389
  386MOL0     H52105  11.606   4.149  10.096  0.1139 -2.2132 -2.1414
  386MOL0     H52106  11.718   4.329  10.216 -0.6248  0.2996  0.3095
  386MOL0     H52107  11.611   4.392  10.089 -0.0224 -0.4435 -0.7725
  386MOL0     H52108  12.019   4.477   9.963  0.3063 -1.7978  1.0133
  386MOL0     H52109  11.218   4.166  10.090 -3.2347  2.6718  2.4068
  386MOL0     H52110  11.010   4.243  10.074  1.6080 -0.3749  0.8375
  387MOL0     O52111   9.085   4.841   9.520  0.1086  0.7164  0.0702
  387MOL0     C52112   9.101   4.830   9.397  0.9294  0.2497 -0.8727
  387MOL0     O52113   9.007   4.860   9.311  0.6467 -0.0942  0.9069
  387MOL0     C52114   8.897   4.936   9.333 -0.3003  0.2712  0.0913
  387MOL0     C52115   8.776   4.904   9.256  0.4768  0.7550 -1.1439
  387MOL0     C52116   8.651   4.960   9.285  0.8448 -0.6835 -0.3464
  387MOL0     C52117   8.642   5.058   9.389 -0.0357  0.1355  0.6947
  387MOL0     O52118   8.525   5.119   9.416  0.8124  0.1261 -0.1906
  387MOL0     C52119   8.403   5.068   9.361  1.0317 -0.6031 -0.7943
  387MOL0     C52120   8.293   5.148   9.436  1.0030  0.6924  1.2077
  387MOL0     C52121   8.160   5.118   9.357  0.1076 -0.1217  0.2943
  387MOL0     C52122   8.049   5.193   9.426  0.2369  0.1129 -0.2192
  387MOL0     C52123   7.910   5.187   9.351  0.0849 -0.8510  0.0818
  387MOL0     C52124   7.803   5.284   9.412 -0.2544  0.5808  1.0639
  387MOL0     C52125   7.671   5.276   9.334 -0.2734 -0.1557  0.5940
  387MOL0     C52126   7.578   5.385   9.386 -0.2720  0.5548 -0.0800
  387MOL0     N52127   7.438   5.353   9.348  0.0378  0.5403  0.6095
  387MOL0     C52128   7.383   5.224   9.339  0.3852  0.1510 -0.4212
  387MOL0     C52129   7.254   5.235   9.305  0.1023  0.8893 -0.1663
  387MOL0     C52130   7.146   5.126   9.288  0.1763 -0.6251 -0.0584
  387MOL0     C52131   7.153   5.047   9.167  0.2081  0.4896 -0.6845
  387MOL0     C52132   7.042   4.954   9.149 -0.1494 -0.9126 -0.0799
  387MOL0     C52133   7.089   4.843   9.037 -0.5435  0.4734 -0.3173
  387MOL0     O52134   7.003   4.733   9.061  0.1032  0.2901 -0.1738
  387MOL0     C52135   6.869   4.752   9.050  0.0688 -0.5153 -0.3454
  387MOL0     C52136   6.790   4.691   9.147 -0.2700  0.3562  0.0531
  387MOL0     C52137   6.649   4.694   9.140  0.7266  0.1215  1.2060
  387MOL0     C52138   6.577   4.617   9.256 -0.0949 -0.2058  0.5658
  387MOL0     C52139   6.585   4.760   9.034 -0.1736  0.2237  0.2079
  387MOL0     C52140   6.437   4.771   9.014  0.1878 -0.1780 -0.2860
  387MOL0     O52141   6.384   4.779   8.885 -0.0867 -0.1781  0.5858
  387MOL0     C52142   6.252   4.752   8.857 -0.0081  0.5350 -0.4696
  387MOL0     C52143   6.222   4.770   8.725  0.7898 -0.2001 -0.8519
  387MOL0     C52144   6.083   4.762   8.673 -0.5317 -0.2382 -0.5918
  387MOL0     C52145   5.977   4.760   8.761  1.5036 -0.0643 -1.0446
  387MOL0     O52146   5.849   4.759   8.695 -0.1392 -0.1145  0.3063
  387MOL0     C52147   5.738   4.774   8.782  0.7003  0.3377  0.5181
  387MOL0     C52148   5.621   4.819   8.706  0.2556 -0.6561  0.6599
  387MOL0     C52149   5.549   4.711   8.634  0.0965 -0.4816  0.2772
  387MOL0     C52150   5.408   4.747   8.590  0.0636  0.2552 -0.1943
  387MOL0     C52151   5.405   4.864   8.483 -0.0122  0.7728  0.0428
  387MOL0     C52152   5.260   4.866   8.426  0.5977  0.7740 -0.1413
  387MOL0     C52153   5.220   5.002   8.362 -0.1141  0.2125  1.3094
  387MOL0     C52154   5.279   5.026   8.219  0.4808 -0.5905  0.3346
  387MOL0    Cl52155   5.217   5.188   8.154  0.1291 -0.0624  0.0955
  387MOL0     C52156   6.006   4.740   8.897  0.3024 -0.1594 -0.5416
  387MOL0     C52157   6.139   4.735   8.947 -0.1463 -0.4226 -0.4366
  387MOL0     O52158   6.375   4.759   9.116 -0.4798 -0.1330  0.7057
  387MOL0     C52159   6.662   4.822   8.930 -0.4487  1.3183 -0.3190
  387MOL0     C52160   6.804   4.817   8.948  0.8771 -0.4382  0.1327
  387MOL0     N52161   7.228   5.368   9.283  0.3335  0.0179  0.2327
  387MOL0     N52162   7.338   5.437   9.305  0.5840 -0.3452 -0.3168
  387MOL0     C52163   8.757   5.092   9.454 -0.4955 -1.1405  0.0272
  387MOL0     C52164   8.878   5.026   9.430  0.0131 -0.8119 -1.0041
  387MOL0     C52165   9.226   4.770   9.353  0.0685 -0.0120 -0.2244
  387MOL0     C52166   9.315   4.718   9.452  0.1001 -0.3944 -0.2766
  387MOL0     C52167   9.423   4.636   9.423  0.2663 -0.4020 -0.1512
  387MOL0     C52168   9.461   4.614   9.290  0.1958  0.5106  0.4520
  387MOL0     O52169   9.571   4.529   9.247  0.9997  0.9375  0.1244
  387MOL0     C52170   9.694   4.591   9.221  0.2497 -0.4115 -0.5195
  387MOL0     C52171   9.743   4.679   9.336  0.1460 -0.3283  0.1045
  387MOL0     C52172   9.789   4.595   9.447 -0.5094 -0.7037 -0.4058
  387MOL0     C52173   9.830   4.672   9.580  0.0808 -0.3249  0.0992
  387MOL0     C52174   9.735   4.762   9.637 -0.0461  0.3366 -0.2001
  387MOL0     C52175   9.631   4.817   9.672 -0.3864 -0.4869 -0.3375
  387MOL0     C52176   9.378   4.670   9.185  0.5201 -0.1876  0.4070
  387MOL0     C52177   9.261   4.740   9.221 -0.6885  0.0882 -0.5197
  387MOL0     H52178   8.784   4.824   9.183 -0.8492 -0.8737  0.3911
  387MOL0     H52179   8.572   4.931   9.217 -0.2400  1.9313 -0.3086
  387MOL0     H52180   8.387   5.067   9.253 -2.0771 -2.0773 -0.4613
  387MOL0     H52181   8.384   4.968   9.402 -3.3368  0.6226  0.8009
  387MOL0     H52182   8.278   5.106   9.536  1.8592 -1.5934  0.4373
  387MOL0     H52183   8.317   5.254   9.435  0.0198  0.9257  0.3058
  387MOL0     H52184   8.171   5.143   9.251  2.9417 -2.2126 -0.0300
  387MOL0     H52185   8.131   5.013   9.365 -1.9035  0.3610 -0.2023
  387MOL0     H52186   8.033   5.155   9.527  1.2414  2.2294  0.8094
  387MOL0     H52187   8.073   5.299   9.443  0.2681 -0.3854  3.5893
  387MOL0     H52188   7.927   5.207   9.245  0.3697 -2.0505 -0.1145
  387MOL0     H52189   7.873   5.084   9.350  1.3967 -1.3547 -1.9247
  387MOL0     H52190   7.790   5.262   9.518 -3.7668  1.2772  0.8782
  387MOL0     H52191   7.845   5.384   9.401  1.2043  0.0977  1.9163
  387MOL0     H52192   7.689   5.297   9.229 -2.7198 -0.7316  0.0022
  387MOL0     H52193   7.641   5.171   9.342  2.5523 -1.1886 -1.1908
  387MOL0     H52194   7.604   5.477   9.333  2.6321 -0.8076 -1.2123
  387MOL0     H52195   7.592   5.402   9.493  0.5182 -1.1140  0.1097
  387MOL0     H52196   7.433   5.130   9.361 -0.0492 -0.2068 -0.9267
  387MOL0     H52197   7.152   5.072   9.383 -0.4435  0.9463  0.9027
  387MOL0     H52198   7.051   5.179   9.277  0.5118  0.2942  1.2815
  387MOL0     H52199   7.249   4.994   9.162 -0.1999 -0.3056 -0.2535
  387MOL0     H52200   7.160   5.115   9.082  0.8508  0.5192 -0.6139
  387MOL0     H52201   6.948   5.005   9.125 -1.2547 -2.2362  1.2366
  387MOL0     H52202   7.034   4.893   9.240 -0.1255  3.0072  2.7954
  387MOL0     H52203   7.193   4.815   9.052 -0.0418  1.5570 -1.6692
  387MOL0     H52204   7.077   4.886   8.937 -4.4382 -1.0813 -0.7259
  387MOL0     H52205   6.843   4.643   9.229 -3.5825 -0.7675  1.6947
  387MOL0     H52206   6.516   4.693   9.305  1.8877  0.7028  1.7634
  387MOL0     H52207   6.522   4.527   9.228 -0.3753 -0.0303  0.5558
  387MOL0     H52208   6.653   4.587   9.329  0.7363  0.5747  0.0441
  387MOL0     H52209   6.304   4.793   8.657 -1.4688  2.0093 -3.0695
  387MOL0     H52210   6.060   4.772   8.568 -1.1646  1.1363 -0.3431
  387MOL0     H52211   5.712   4.692   8.850  0.1174  1.0317  1.1571
  387MOL0     H52212   5.763   4.852   8.855  3.2272  1.2862 -1.2336
  387MOL0     H52213   5.561   4.880   8.775  0.9033 -0.2262  0.8498
  387MOL0     H52214   5.656   4.887   8.628  1.9917 -2.6798 -0.3919
  387MOL0     H52215   5.532   4.638   8.713  0.1705  1.2726  1.9887
  387MOL0     H52216   5.606   4.663   8.554 -0.7965 -1.9230  0.4636
  387MOL0     H52217   5.358   4.655   8.556  2.6032 -0.0160 -3.8737
  387MOL0     H52218   5.345   4.776   8.674 -0.0790 -1.4977  0.3482
  387MOL0     H52219   5.487   4.849   8.413 -0.0246  2.6938 -0.4348
  387MOL0     H52220   5.420   4.961   8.531 -4.2061  1.8731 -0.4419
  387MOL0     H52221   5.240   4.780   8.361 -1.4142  0.5554  0.6899
  387MOL0     H52222   5.189   4.851   8.508  1.0124 -0.3643  0.0311
  387MOL0     H52223   5.248   5.089   8.422  2.5873 -0.5065  1.2365
  387MOL0     H52224   5.115   4.995   8.333  0.2704 -1.6660  0.1691
  387MOL0     H52225   5.260   4.942   8.152  1.5441 -1.2432  0.8242
  387MOL0     H52226   5.388   5.024   8.222  0.6171  1.0126 -1.6922
  387MOL0     H52227   5.927   4.727   8.970 -0.4822 -1.2931 -1.5562
  387MOL0     H52228   6.159   4.715   9.052  1.3516  1.6057 -0.2728
  387MOL0     H52229   6.614   4.867   8.844 -2.7192 -0.5542 -0.1134
  387MOL0     H52230   6.866   4.859   8.870 -1.9481  2.0563 -0.9732
  387MOL0     H52231   8.761   5.154   9.543  2.3959 -2.1603  0.7097
  387MOL0     H52232   8.966   5.057   9.485 -1.6182  1.5566  0.4428
  387MOL0     H52233   9.287   4.724   9.556  0.9024 -2.4809  0.1286
  387MOL0     H52234   9.482   4.588   9.500 -0.4561 -0.7008  0.2277
  387MOL0     H52235   9.764   4.507   9.217 -0.6100 -1.1180 -1.3493
  387MOL0     H52236   9.675   4.643   9.127 -2.7804  3.1427  1.7833
  387MOL0     H52237   9.670   4.754   9.366  1.2680  1.9355 -2.3442
  387MOL0     H52238   9.824   4.742   9.298 -0.1492 -0.5218 -0.8748
  387MOL0     H52239   9.878   4.537   9.418  0.2746 -0.2694  1.0504
  387MOL0     H52240   9.722   4.512   9.472  0.2042 -1.6495 -1.5039
  387MOL0     H52241   9.928   4.718   9.562  1.3500 -3.1041 -0.8140
  387MOL0     H52242   9.850   4.588   9.648 -1.4891 -1.0580 -0.3063
  387MOL0     H52243   9.545   4.878   9.692  1.8626  3.7684 -2.1855
  387MOL0     H52244   9.394   4.655   9.079 -0.3285  1.7027 -0.0228
  387MOL0     H52245   9.204   4.778   9.136  1.2402  2.4236 -0.9041
  388MOL0     O52246   7.722   7.236   7.746  0.6773 -0.1806  0.0877
  388MOL0     C52247   7.749   7.134   7.815  0.6166  0.4032 -0.7045
  388MOL0     O52248   7.729   7.007   7.780 -0.4569 -0.0666 -0.7075
  388MOL0     C52249   7.682   6.993   7.655  0.1906  0.0428  0.5458
  388MOL0     C52250   7.540   7.000   7.637  0.3285  0.0872 -0.3710
  388MOL0     C52251   7.473   6.957   7.522  0.1326  0.9865  0.0010
  388MOL0     C52252   7.545   6.918   7.411 -0.0008 -0.2937  0.4600
  388MOL0     O52253   7.467   6.897   7.293  0.5534 -0.5207 -0.0485
  388MOL0     C52254   7.541   6.845   7.182  0.4838  0.6492  0.0800
  388MOL0     C52255   7.447   6.808   7.062  0.1824 -0.1545 -0.4913
  388MOL0     C52256   7.345   6.699   7.109 -0.2282  0.1964  0.2882
  388MOL0     C52257   7.252   6.661   6.987  0.4798 -0.0471 -0.4332
  388MOL0     C52258   7.127   6.583   7.031  0.0469  0.3725 -0.1059
  388MOL0     C52259   7.032   6.658   7.128 -0.3987  0.3300 -0.0954
  388MOL0     C52260   6.898   6.683   7.065 -0.3339  0.4796  0.2785
  388MOL0     C52261   6.838   6.545   7.014 -0.4613 -0.1887 -0.3556
  388MOL0     N52262   6.694   6.540   7.035  0.6115  0.8507 -0.0162
  388MOL0     C52263   6.603   6.641   7.008  0.7906  0.8335  0.3789
  388MOL0     C52264   6.478   6.600   7.042 -0.5729 -0.3037 -0.2058
  388MOL0     C52265   6.347   6.660   7.040  0.2627 -0.2802  0.0558
  388MOL0     C52266   6.247   6.562   6.988  0.5735  0.1697 -0.7902
  388MOL0     C52267   6.259   6.542   6.830  0.2229  0.1056 -1.1663
  388MOL0     C52268   6.151   6.450   6.781  0.4518 -0.4955 -0.5842
  388MOL0     O52269   6.013   6.520   6.776 -0.9987  0.8889  0.1144
  388MOL0     C52270   5.910   6.448   6.720  0.4433  0.7615  0.8157
  388MOL0     C52271   5.907   6.317   6.679  0.4206  0.4790  0.2104
  388MOL0     C52272   5.785   6.257   6.637 -0.0547 -0.7321  0.6034
  388MOL0     C52273   5.787   6.116   6.587 -0.2782 -0.7716  0.6607
  388MOL0     C52274   5.663   6.341   6.617 -0.6385 -0.0392  0.2839
  388MOL0     C52275   5.537   6.296   6.562  0.7030  1.0403  0.7935
  388MOL0     O52276   5.494   6.171   6.600  0.7872  0.4827  0.5459
  388MOL0     C52277   5.363   6.143   6.560 -0.0995  0.5492 -0.3502
  388MOL0     C52278   5.339   6.092   6.431 -0.4109 -0.4220 -0.8023
  388MOL0     C52279   5.215   6.042   6.396 -0.3948  0.3528  0.3482
  388MOL0     C52280   5.107   6.059   6.492  0.0587 -0.1511 -0.6927
  388MOL0     O52281   4.985   6.005   6.487 -0.7088 -0.1352 -0.0319
  388MOL0     C52282   4.955   5.931   6.367 -0.2499 -0.0430  0.0363
  388MOL0     C52283   4.807   5.902   6.369  0.1452 -0.4726  0.0411
  388MOL0     C52284   4.764   5.814   6.481  0.0818 -1.2169  0.2416
  388MOL0     C52285   4.616   5.794   6.480  1.1612 -0.2857  0.2036
  388MOL0     C52286   4.573   5.696   6.597  0.3223  0.2853  0.8327
  388MOL0     C52287   4.427   5.705   6.603  0.6271  0.6497 -0.0377
  388MOL0     C52288   4.373   5.588   6.690 -0.2426 -0.6059 -0.4417
  388MOL0     C52289   4.311   5.469   6.619  0.5001 -0.5988 -0.6815
  388MOL0    Cl52290   4.432   5.387   6.525  0.6185 -0.1043  0.0367
  388MOL0     C52291   5.133   6.114   6.623 -0.0223 -0.6116  0.0660
  388MOL0     C52292   5.263   6.155   6.653  0.9678  0.4003  0.0360
  388MOL0     O52293   5.474   6.371   6.484 -0.5229  0.1673 -0.0230
  388MOL0     C52294   5.681   6.480   6.643  0.1017 -0.2228 -0.1806
  388MOL0     C52295   5.796   6.526   6.708  0.2397  0.4109  0.0438
  388MOL0     N52296   6.495   6.471   7.095 -0.3001 -0.0186  0.5205
  388MOL0     N52297   6.621   6.438   7.091  0.0124  0.0086  0.2165
  388MOL0     C52298   7.688   6.905   7.417  0.1217 -0.4468  0.8277
  388MOL0     C52299   7.755   6.946   7.541  0.7537  0.5153 -0.4642
  388MOL0     C52300   7.807   7.157   7.953  0.5410 -0.0580  0.7396
  388MOL0     C52301   7.888   7.065   8.021  0.5951  0.5223  0.2790
  388MOL0     C52302   7.935   7.084   8.146 -0.3398 -0.0414  0.3080
  388MOL0     C52303   7.919   7.210   8.205 -0.6579 -0.2498  0.1973
  388MOL0     O52304   7.956   7.242   8.334  0.6430  1.2295 -0.3783
  388MOL0     C52305   8.084   7.294   8.341  0.3583  0.4412 -0.3347
  388MOL0     C52306   8.180   7.178   8.384 -0.1251  0.4423  0.4434
  388MOL0     C52307   8.149   7.111   8.519  0.5999 -0.1916  0.3083
  388MOL0     C52308   8.125   7.213   8.639 -0.6770  0.0550  0.2745
  388MOL0     C52309   8.247   7.284   8.670 -1.2734 -0.1466  0.4757
  388MOL0     C52310   8.357   7.330   8.696 -0.5865  0.5506 -0.0116
  388MOL0     C52311   7.849   7.310   8.138 -1.0999 -0.3557  0.4052
  388MOL0     C52312   7.787   7.279   8.017 -0.0472 -0.5561 -0.3754
  388MOL0     H52313   7.478   7.042   7.715  0.7187 -3.6581  2.2573
  388MOL0     H52314   7.365   6.957   7.518  0.1310  1.8888 -0.0886
  388MOL0     H52315   7.618   6.918   7.155  1.3458 -0.7209 -1.3442
  388MOL0     H52316   7.589   6.753   7.216 -0.2253  0.7022  1.2939
  388MOL0     H52317   7.392   6.893   7.019  0.7925  1.0592  1.0187
  388MOL0     H52318   7.515   6.778   6.982  0.6780  0.7755 -0.4441
  388MOL0     H52319   7.398   6.611   7.146 -1.6264 -1.2781 -1.0677
  388MOL0     H52320   7.285   6.737   7.192 -1.2561 -0.3753 -0.1778
  388MOL0     H52321   7.224   6.752   6.933 -2.6642 -0.9388 -0.5193
  388MOL0     H52322   7.305   6.596   6.917 -0.6802  2.0139 -3.4410
  388MOL0     H52323   7.080   6.540   6.943  1.3472  0.9344 -1.1003
  388MOL0     H52324   7.158   6.493   7.086 -1.1133 -2.2055 -3.3811
  388MOL0     H52325   7.027   6.605   7.223  2.3080  3.5590  2.0733
  388MOL0     H52326   7.084   6.751   7.154 -1.3628  1.2878 -1.4376
  388MOL0     H52327   6.849   6.715   7.157 -3.5449  1.6032 -1.6403
  388MOL0     H52328   6.909   6.759   6.987  1.0689  0.8663  0.8257
  388MOL0     H52329   6.890   6.463   7.065  2.5482  1.4557 -0.5174
  388MOL0     H52330   6.857   6.528   6.908 -2.1245 -1.3809 -0.5015
  388MOL0     H52331   6.623   6.739   6.966 -0.9263  1.2774  0.5160
  388MOL0     H52332   6.321   6.699   7.139  2.2907 -0.4905  0.7150
  388MOL0     H52333   6.349   6.746   6.972  3.3757  0.2450  0.6200
  388MOL0     H52334   6.151   6.613   6.997  0.2227 -0.4025 -1.1811
  388MOL0     H52335   6.245   6.466   7.042  1.6297  1.7491  2.2990
  388MOL0     H52336   6.353   6.498   6.797  0.3006 -0.5154 -0.1687
  388MOL0     H52337   6.236   6.632   6.772 -0.7896 -0.1870 -1.2341
  388MOL0     H52338   6.138   6.363   6.846  0.5546 -1.7275 -2.1323
  388MOL0     H52339   6.185   6.425   6.680  2.9069  1.3377 -0.2961
  388MOL0     H52340   5.998   6.261   6.696  1.4304  2.6478  2.7180
  388MOL0     H52341   5.882   6.077   6.626 -0.0012  0.9616  1.8230
  388MOL0     H52342   5.709   6.042   6.605  0.4774 -2.0980 -1.1969
  388MOL0     H52343   5.775   6.115   6.479 -1.6775 -0.9897  0.7990
  388MOL0     H52344   5.424   6.077   6.366  0.4033 -1.9016  0.5194
  388MOL0     H52345   5.195   5.991   6.303  2.5299  0.3844 -0.4096
  388MOL0     H52346   4.977   5.983   6.272 -0.8201 -2.0287 -1.2393
  388MOL0     H52347   5.007   5.835   6.356 -1.5660 -0.8147  0.4227
  388MOL0     H52348   4.749   5.994   6.356 -0.7869 -0.5759  2.8427
  388MOL0     H52349   4.791   5.843   6.278  0.2362 -0.7280  0.1907
  388MOL0     H52350   4.777   5.871   6.573 -1.0048  1.2057 -1.0325
  388MOL0     H52351   4.819   5.719   6.478  1.4569 -0.4219 -0.5416
  388MOL0     H52352   4.567   5.891   6.487 -0.9694 -1.1032 -1.8833
  388MOL0     H52353   4.586   5.768   6.378  0.0392  2.4064 -0.2290
  388MOL0     H52354   4.612   5.719   6.697  3.0496 -2.8206  0.6367
  388MOL0     H52355   4.602   5.593   6.577  0.2410  0.0985  1.6528
  388MOL0     H52356   4.393   5.795   6.655  0.1072  0.9462 -0.8652
  388MOL0     H52357   4.383   5.688   6.504  0.7262  0.4198 -0.0439
  388MOL0     H52358   4.299   5.632   6.758 -2.7804 -4.5014 -0.3608
  388MOL0     H52359   4.451   5.543   6.752 -0.1618 -0.5218 -0.4815
  388MOL0     H52360   4.225   5.501   6.559  1.7024  0.0802 -2.0952
  388MOL0     H52361   4.273   5.401   6.696 -0.6920  2.2470  1.3946
  388MOL0     H52362   5.054   6.118   6.697 -0.6657  2.7403 -0.6176
  388MOL0     H52363   5.285   6.198   6.750  0.7565  0.2211  0.1639
  388MOL0     H52364   5.603   6.547   6.609  1.6630  0.7963 -1.8911
  388MOL0     H52365   5.798   6.632   6.730  0.1168 -0.4120  5.1605
  388MOL0     H52366   7.757   6.876   7.339  0.4644  2.6153 -0.1528
  388MOL0     H52367   7.860   6.924   7.554  0.1900 -2.0339  0.5104
  388MOL0     H52368   7.911   6.978   7.961 -0.5462  1.8592 -2.2533
  388MOL0     H52369   8.000   7.013   8.195 -1.8715 -0.4639  1.8281
  388MOL0     H52370   8.116   7.341   8.248  0.4250 -2.6293 -1.9908
  388MOL0     H52371   8.096   7.368   8.420  1.3998  0.1678 -0.2196
  388MOL0     H52372   8.284   7.210   8.392  0.5468 -1.4473 -0.1857
  388MOL0     H52373   8.177   7.096   8.312 -1.2301 -0.6656  1.6964
  388MOL0     H52374   8.219   7.029   8.542  2.9636  1.5443 -0.3754
  388MOL0     H52375   8.051   7.061   8.519  0.3081  0.3032  2.3573
  388MOL0     H52376   8.098   7.152   8.726 -0.1993  3.3530  2.9635
  388MOL0     H52377   8.056   7.294   8.616  0.3612  0.3509 -2.0760
  388MOL0     H52378   8.452   7.365   8.730  0.4393 -1.7461 -0.2810
  388MOL0     H52379   7.841   7.407   8.186  0.9060 -0.1684  0.4658
  388MOL0     H52380   7.735   7.365   7.976  0.0332  0.7714  2.0785
  389MOL0     O52381   8.645   3.581   2.854 -0.1986 -0.3308  0.0125
  389MOL0     C52382   8.573   3.489   2.807  0.6747 -0.2454  0.7064
  389MOL0     O52383   8.597   3.358   2.816 -0.2704  0.4308 -0.0090
  389MOL0     C52384   8.732   3.326   2.794  0.4167  0.7912 -0.0350
  389MOL0     C52385   8.809   3.297   2.900 -0.8829 -0.6207  0.1405
  389MOL0     C52386   8.933   3.235   2.878 -1.0280  0.5848 -0.2216
  389MOL0     C52387   8.979   3.201   2.748 -0.3780  0.5819 -0.1844
  389MOL0     O52388   9.101   3.147   2.719  0.1525  0.6194  0.3354
  389MOL0     C52389   9.177   3.072   2.821 -0.1344 -0.0777  0.9547
  389MOL0     C52390   9.269   2.974   2.749 -0.6674 -0.7880 -0.6224
  389MOL0     C52391   9.395   3.023   2.687  0.2519 -0.0138 -1.0265
  389MOL0     C52392   9.511   2.921   2.700 -0.1079  1.2791  0.6346
  389MOL0     C52393   9.641   2.975   2.635  0.1252  0.0827  0.2196
  389MOL0     C52394   9.652   2.942   2.486  0.6549  0.5647  0.0329
  389MOL0     C52395   9.793   2.981   2.434  0.1926 -0.0611 -0.4842
  389MOL0     C52396   9.808   3.136   2.426 -0.7162 -0.6442  0.2966
  389MOL0     N52397   9.712   3.192   2.329 -0.1038  0.3656 -0.5963
  389MOL0     C52398   9.685   3.156   2.196 -0.6663 -0.3133  0.2000
  389MOL0     C52399   9.610   3.258   2.144  0.3785  0.3827 -0.6343
  389MOL0     C52400   9.571   3.276   1.999  0.5179 -0.1134  0.5390
  389MOL0     C52401   9.421   3.229   1.965  0.1909  0.6188  0.8041
  389MOL0     C52402   9.387   3.247   1.812 -0.0280 -0.1355  1.0908
  389MOL0     C52403   9.251   3.198   1.781 -0.3641  0.4614  0.1811
  389MOL0     O52404   9.228   3.080   1.851  0.0510  0.1135 -0.4029
  389MOL0     C52405   9.103   3.020   1.843 -0.1714 -0.0062  1.4371
  389MOL0     C52406   8.995   3.075   1.768  0.4081 -0.2315  0.2609
  389MOL0     C52407   8.861   3.034   1.783 -0.0418 -0.2126 -0.8011
  389MOL0     C52408   8.756   3.120   1.711  0.1278 -0.2957 -0.0471
  389MOL0     C52409   8.834   2.928   1.869  0.6152 -1.2878  0.7432
  389MOL0     C52410   8.685   2.885   1.901  1.0241  0.9260 -0.2464
  389MOL0     O52411   8.580   2.932   1.830  0.3080  0.1793  0.4389
  389MOL0     C52412   8.456   2.913   1.883  0.4426  0.9959  0.0573
  389MOL0     C52413   8.365   2.846   1.800  0.0870  0.1999  0.6271
  389MOL0     C52414   8.230   2.845   1.826  1.3664 -0.0675 -0.3973
  389MOL0     C52415   8.189   2.901   1.946  0.2976 -0.1437  0.3416
  389MOL0     O52416   8.055   2.908   1.962 -0.2175  0.3230 -0.2657
  389MOL0     C52417   8.005   2.907   2.096  0.6796  0.0748 -0.3954
  389MOL0     C52418   7.846   2.869   2.089 -0.2825  0.4209 -0.7819
  389MOL0     C52419   7.761   2.970   2.026  0.2403  0.5845  0.5205
  389MOL0     C52420   7.644   2.899   1.966  0.6358 -0.1776  0.0463
  389MOL0     C52421   7.524   3.005   1.958 -0.3609 -0.2841  0.4273
  389MOL0     C52422   7.401   2.936   1.915 -0.1157  0.3970  0.1902
  389MOL0     C52423   7.278   3.034   1.912  0.3346 -0.1484 -0.1858
  389MOL0     C52424   7.185   2.992   2.028 -0.3084  0.7512  0.4804
  389MOL0    Cl52425   7.246   3.012   2.189  0.0887 -0.2907  0.2235
  389MOL0     C52426   8.288   2.947   2.039 -0.8388  0.5176  0.0897
  389MOL0     C52427   8.417   2.953   2.006 -0.5016  0.5298 -0.5522
  389MOL0     O52428   8.671   2.805   2.000  0.2539 -0.1670 -0.2347
  389MOL0     C52429   8.943   2.862   1.924 -0.2272 -0.7431 -0.5284
  389MOL0     C52430   9.078   2.904   1.911  0.1743  0.2409  0.4935
  389MOL0     N52431   9.583   3.346   2.245 -0.5472 -0.2820 -0.5411
  389MOL0     N52432   9.642   3.298   2.348  0.5192 -0.3131 -0.0823
  389MOL0     C52433   8.897   3.233   2.636 -0.6369 -0.4752 -0.6239
  389MOL0     C52434   8.770   3.293   2.662 -0.1609  0.6480  0.0920
  389MOL0     C52435   8.443   3.522   2.754 -0.0362 -0.6406  0.0029
  389MOL0     C52436   8.400   3.657   2.754 -0.2294  0.3542 -0.4674
  389MOL0     C52437   8.277   3.690   2.697 -0.5871 -0.4536  0.1479
  389MOL0     C52438   8.194   3.596   2.639 -0.2364  0.6568 -0.1345
  389MOL0     O52439   8.071   3.632   2.576 -0.3625  0.6875  0.4661
  389MOL0     C52440   7.973   3.703   2.640  1.1381 -0.4196 -0.2349
  389MOL0     C52441   7.922   3.643   2.766  0.6815 -0.2438 -0.6402
  389MOL0     C52442   7.872   3.509   2.726  0.7469  0.0649 -1.0884
  389MOL0     C52443   7.821   3.435   2.843  0.4003  0.5241 -0.0487
  389MOL0     C52444   7.926   3.394   2.939 -0.0395 -0.2114  0.2945
  389MOL0     C52445   7.992   3.367   3.029 -0.1226  0.0068 -0.1647
  389MOL0     C52446   8.233   3.459   2.656  0.1981 -0.2151 -0.4941
  389MOL0     C52447   8.350   3.424   2.714 -0.4128 -0.4070  0.3037
  389MOL0     H52448   8.769   3.315   3.000 -0.7867  1.4118 -0.1476
  389MOL0     H52449   8.997   3.215   2.963 -0.8730 -2.3258 -0.9342
  389MOL0     H52450   9.244   3.140   2.874 -0.3005 -0.3731  1.5539
  389MOL0     H52451   9.115   3.017   2.892  1.2642 -0.7360  1.7215
  389MOL0     H52452   9.289   2.898   2.825  1.9118 -0.2717 -0.6941
  389MOL0     H52453   9.227   2.924   2.661  1.9729 -2.1788 -1.2167
  389MOL0     H52454   9.372   3.038   2.581 -1.2132 -2.4749 -1.1330
  389MOL0     H52455   9.429   3.112   2.742  2.3240 -2.1540  1.4664
  389MOL0     H52456   9.533   2.907   2.806 -1.2469 -3.9620  0.4515
  389MOL0     H52457   9.497   2.825   2.649 -0.0229  1.0218  1.0850
  389MOL0     H52458   9.643   3.083   2.652 -1.2069 -0.3427  4.0032
  389MOL0     H52459   9.719   2.928   2.696 -0.5638  2.1083  2.8600
  389MOL0     H52460   9.635   2.835   2.473 -0.1941  0.6312  0.5274
  389MOL0     H52461   9.573   2.994   2.433 -1.8448 -0.0608  2.8635
  389MOL0     H52462   9.869   2.952   2.508  0.3928  0.5150 -0.4619
  389MOL0     H52463   9.818   2.931   2.340 -1.9089 -0.5564 -0.8283
  389MOL0     H52464   9.905   3.172   2.390 -0.8599 -0.4730  0.0808
  389MOL0     H52465   9.792   3.171   2.528  1.3193 -1.9082  1.1035
  389MOL0     H52466   9.728   3.073   2.139  0.7359  0.9809 -0.7038
  389MOL0     H52467   9.586   3.376   1.956 -1.9715 -0.4630 -1.3888
  389MOL0     H52468   9.630   3.205   1.941 -0.6109  0.1647 -1.0286
  389MOL0     H52469   9.352   3.283   2.030 -1.4063  1.0770 -1.1386
  389MOL0     H52470   9.414   3.123   1.993 -1.4701  0.5381  0.1848
  389MOL0     H52471   9.462   3.201   1.746  0.4845  2.0925  0.0397
  389MOL0     H52472   9.386   3.355   1.798 -4.6115 -0.0896  0.1568
  389MOL0     H52473   9.241   3.171   1.675 -1.5871  0.2375  0.3355
  389MOL0     H52474   9.175   3.270   1.813 -1.7432 -0.4989 -0.8047
  389MOL0     H52475   9.016   3.161   1.706  0.2096 -0.6236 -0.3666
  389MOL0     H52476   8.793   3.218   1.679  1.7406 -1.0454 -0.5714
  389MOL0     H52477   8.704   3.077   1.626  0.7100  1.2292 -1.2226
  389MOL0     H52478   8.689   3.157   1.789  0.0952  1.4359 -0.8505
  389MOL0     H52479   8.397   2.786   1.716 -1.2940  1.6189 -0.9935
  389MOL0     H52480   8.166   2.795   1.754  0.1147  0.1477  0.5207
  389MOL0     H52481   8.060   2.830   2.152 -0.3771 -0.8287 -0.5635
  389MOL0     H52482   8.022   3.007   2.135 -0.2821  0.3569 -0.6785
  389MOL0     H52483   7.844   2.770   2.044  0.2732 -1.1970  2.4268
  389MOL0     H52484   7.800   2.844   2.185  2.1268  1.8521  0.8772
  389MOL0     H52485   7.827   3.025   1.958  0.9784 -1.2449 -0.3305
  389MOL0     H52486   7.732   3.046   2.098  2.8453  3.9305 -1.5955
  389MOL0     H52487   7.672   2.869   1.865 -0.4044 -0.4318 -0.1717
  389MOL0     H52488   7.604   2.819   2.029 -0.7919 -0.0490 -0.6470
  389MOL0     H52489   7.562   3.078   1.885  3.2290  1.0307  3.3066
  389MOL0     H52490   7.511   3.052   2.056  1.8666  1.0182  0.1763
  389MOL0     H52491   7.417   2.897   1.814  1.5027 -0.2406  0.6642
  389MOL0     H52492   7.379   2.849   1.978 -3.1230 -0.2116 -1.4774
  389MOL0     H52493   7.233   3.018   1.813  1.0211  2.0264 -0.9007
  389MOL0     H52494   7.314   3.137   1.919  0.8522 -0.1094 -2.4369
  389MOL0     H52495   7.172   2.883   2.024 -0.0954  0.7540 -1.0052
  389MOL0     H52496   7.090   3.045   2.012 -1.3039 -1.5745 -2.3595
  389MOL0     H52497   8.274   2.982   2.141  0.1944  0.1964  0.3470
  389MOL0     H52498   8.500   2.983   2.069 -1.9979  0.2079  1.6826
  389MOL0     H52499   8.926   2.782   1.996 -0.8694  1.1742  1.5687
  389MOL0     H52500   9.156   2.840   1.952 -0.5154 -0.9146  0.0609
  389MOL0     H52501   8.908   3.196   2.535 -0.6809 -3.7666  0.4377
  389MOL0     H52502   8.693   3.300   2.585  0.4479 -0.5172 -0.6454
  389MOL0     H52503   8.468   3.735   2.787 -1.1696  0.9980 -0.0212
  389MOL0     H52504   8.255   3.796   2.686 -2.3401 -0.6931  1.1126
  389MOL0     H52505   8.009   3.804   2.660  2.5979 -0.8844 -0.4197
  389MOL0     H52506   7.891   3.718   2.569 -0.2110 -1.3442  1.0745
  389MOL0     H52507   7.850   3.706   2.819  0.4318  1.6953 -3.0912
  389MOL0     H52508   8.007   3.635   2.834  0.2817  0.8079  0.0058
  389MOL0     H52509   7.939   3.446   2.668  1.3435  1.3101 -1.7862
  389MOL0     H52510   7.772   3.515   2.681 -1.5072 -0.2499  3.2471
  389MOL0     H52511   7.763   3.346   2.819 -0.3601  0.1655  2.7031
  389MOL0     H52512   7.749   3.494   2.901 -0.1436  0.5577 -0.7443
  389MOL0     H52513   8.051   3.334   3.112  0.0084 -1.8238 -0.9306
  389MOL0     H52514   8.172   3.376   2.623 -1.8519  1.0333 -0.0102
  389MOL0     H52515   8.372   3.317   2.720  0.5048 -0.3466 -1.2729
  390MOL0     O52516   4.890   5.397   0.152 -0.3193  0.1185 -0.3676
  390MOL0     C52517   4.991   5.350   0.202 -0.1053  0.3314 -0.2771
  390MOL0     O52518   4.999   5.269   0.310 -0.8397  0.4476 -0.3508
  390MOL0     C52519   4.901   5.269   0.414  0.4701 -0.4119 -0.1171
  390MOL0     C52520   4.844   5.395   0.461 -0.4148 -0.5294 -0.4222
  390MOL0     C52521   4.763   5.396   0.573 -0.0648 -0.0160  0.0415
  390MOL0     C52522   4.722   5.273   0.630 -0.1258 -0.8405 -0.8235
  390MOL0     O52523   4.621   5.265   0.729 -1.0599  0.2710 -0.5948
  390MOL0     C52524   4.675   5.215   0.856  0.1843  0.5733  0.1156
  390MOL0     C52525   4.561   5.132   0.918  0.0681 -0.4800  0.4477
  390MOL0     C52526   4.436   5.213   0.942 -0.9092  0.2242 -0.2792
  390MOL0     C52527   4.313   5.144   1.010  0.9988  0.3644 -0.8313
  390MOL0     C52528   4.177   5.226   0.987  0.2581  0.0563  0.4974
  390MOL0     C52529   4.181   5.379   1.006  0.1864  0.1175  0.2620
  390MOL0     C52530   4.084   5.418   1.110  0.2983  0.1126 -0.6448
  390MOL0     C52531   3.939   5.424   1.048 -0.0879  0.1933  0.3648
  390MOL0     N52532   3.833   5.435   1.144  0.6505  0.4736 -0.0059
  390MOL0     C52533   3.806   5.535   1.227 -0.3165 -0.2540 -0.1747
  390MOL0     C52534   3.687   5.512   1.288  0.4185  0.3801 -0.3018
  390MOL0     C52535   3.612   5.586   1.389  0.5581  0.9556 -0.0368
  390MOL0     C52536   3.703   5.653   1.486 -0.6852  0.0635 -0.1640
  390MOL0     C52537   3.627   5.683   1.618 -0.5569 -1.0241  0.0724
  390MOL0     C52538   3.519   5.788   1.613  0.9889 -0.5532  0.6019
  390MOL0     O52539   3.453   5.775   1.741 -0.4909 -0.3563  0.8381
  390MOL0     C52540   3.322   5.793   1.758  0.9451 -0.3693  0.7409
  390MOL0     C52541   3.233   5.837   1.660 -1.0107 -0.0079  0.1688
  390MOL0     C52542   3.100   5.855   1.687  0.0748  0.4219  0.1661
  390MOL0     C52543   3.021   5.897   1.576 -0.0250  0.3716  0.0776
  390MOL0     C52544   3.051   5.825   1.824 -0.2961 -0.1116  0.4664
  390MOL0     C52545   2.903   5.820   1.862 -0.3454 -0.4262  0.8594
  390MOL0     O52546   2.800   5.867   1.780 -0.1323  0.3767 -0.2075
  390MOL0     C52547   2.658   5.877   1.812 -0.6714  0.5895 -0.2302
  390MOL0     C52548   2.581   5.942   1.712 -0.2375  0.3850 -0.1054
  390MOL0     C52549   2.447   5.982   1.750 -0.2550 -0.1979 -0.2061
  390MOL0     C52550   2.386   5.939   1.867 -0.2486  0.0373 -0.9165
  390MOL0     O52551   2.255   5.992   1.869 -0.5666 -0.1861  0.9088
  390MOL0     C52552   2.193   5.983   1.997 -0.0363  1.2473 -0.9457
  390MOL0     C52553   2.060   6.070   2.002 -0.7436 -0.2104 -0.0382
  390MOL0     C52554   1.973   6.045   2.128 -0.3963  0.4142 -0.2409
  390MOL0     C52555   1.824   6.098   2.111  0.1200  0.1262 -0.0979
  390MOL0     C52556   1.751   6.034   2.227  0.1746 -0.6673  1.0055
  390MOL0     C52557   1.616   6.101   2.246 -0.1291  0.3802  0.1653
  390MOL0     C52558   1.513   6.058   2.146  0.1215  0.4837  0.3298
  390MOL0     C52559   1.371   6.091   2.183 -0.0455 -0.9417 -0.3499
  390MOL0    Cl52560   1.303   6.015   2.333  0.2996  0.3302 -0.3271
  390MOL0     C52561   2.465   5.876   1.964  0.7357 -1.0156 -0.0496
  390MOL0     C52562   2.591   5.835   1.931 -0.1524 -0.7464 -0.1183
  390MOL0     O52563   2.882   5.758   1.965 -0.1976 -0.1542  0.4736
  390MOL0     C52564   3.149   5.799   1.921  0.2688 -0.2690  0.3930
  390MOL0     C52565   3.280   5.776   1.891 -0.0791  0.1458 -0.0980
  390MOL0     N52566   3.647   5.388   1.232  0.5968  0.0739  0.1463
  390MOL0     N52567   3.736   5.345   1.153  0.2958 -0.4716  0.0436
  390MOL0     C52568   4.781   5.154   0.591  0.6934  0.3963  0.3813
  390MOL0     C52569   4.866   5.157   0.481 -0.0540  0.0267 -0.4413
  390MOL0     C52570   5.117   5.395   0.140 -0.7253  1.1497 -0.0025
  390MOL0     C52571   5.125   5.475   0.027  0.5111  0.1262 -0.4091
  390MOL0     C52572   5.244   5.502  -0.034  0.6911  0.1861  0.3097
  390MOL0     C52573   5.368   5.456   0.011  0.0384  0.1730 -0.3099
  390MOL0     O52574   5.494   5.491  -0.047  0.9016  0.5785 -0.5557
  390MOL0     C52575   5.492   5.572  -0.169  0.8296  0.6004 -0.0056
  390MOL0     C52576   5.635   5.584  -0.222 -0.1700  0.2726 -0.3387
  390MOL0     C52577   5.652   5.702  -0.312  0.1819 -0.6412  0.3826
  390MOL0     C52578   5.792   5.764  -0.336  0.5866 -0.5502  0.7186
  390MOL0     C52579   5.788   5.869  -0.432 -0.3281  0.7130 -0.3432
  390MOL0     C52580   5.788   5.961  -0.507 -0.2325 -0.0220  0.8174
  390MOL0     C52581   5.369   5.376   0.131 -0.9055 -0.8510  0.3578
  390MOL0     C52582   5.242   5.345   0.182 -1.0326  0.6325 -0.4370
  390MOL0     H52583   4.869   5.490   0.416  0.3034 -0.4370  0.1534
  390MOL0     H52584   4.720   5.487   0.614 -2.2874 -0.9259 -0.0961
  390MOL0     H52585   4.759   5.145   0.850  0.8384  1.4604 -1.8599
  390MOL0     H52586   4.707   5.300   0.916 -0.8467  0.7149  0.4838
  390MOL0     H52587   4.536   5.046   0.855 -2.3425 -0.9998  1.9932
  390MOL0     H52588   4.604   5.089   1.009  4.2357  0.4167 -0.8756
  390MOL0     H52589   4.461   5.300   1.004 -0.3021 -0.3890  0.3568
  390MOL0     H52590   4.404   5.248   0.844  1.3486 -1.6710 -1.8012
  390MOL0     H52591   4.285   5.044   0.975 -0.6526  0.5422 -0.0959
  390MOL0     H52592   4.328   5.133   1.118 -0.2447 -1.4344 -0.7908
  390MOL0     H52593   4.134   5.195   0.892  0.0273 -1.6359  1.1206
  390MOL0     H52594   4.117   5.178   1.065 -0.0206 -0.3959  0.0066
  390MOL0     H52595   4.274   5.399   1.059 -0.4082 -0.6519  1.6272
  390MOL0     H52596   4.174   5.439   0.915 -2.3019 -0.0454  0.2820
  390MOL0     H52597   4.088   5.352   1.197  2.4516 -2.0426 -2.2288
  390MOL0     H52598   4.104   5.523   1.134 -0.9176  0.6750 -1.9103
  390MOL0     H52599   3.916   5.330   0.997 -0.5827  1.1924 -1.3515
  390MOL0     H52600   3.934   5.500   0.969 -0.4404 -1.2083 -1.0012
  390MOL0     H52601   3.867   5.625   1.234  0.7927 -1.0339  0.5062
  390MOL0     H52602   3.547   5.649   1.327  0.0804  0.9548  0.4583
  390MOL0     H52603   3.545   5.515   1.438 -0.3821  0.6780 -1.6454
  390MOL0     H52604   3.734   5.753   1.452  1.8162  1.1187  4.3689
  390MOL0     H52605   3.791   5.591   1.506  0.3438  1.3242 -0.6230
  390MOL0     H52606   3.705   5.711   1.690  0.3243  0.7127 -1.4884
  390MOL0     H52607   3.576   5.591   1.646  1.5475 -2.0960  0.5570
  390MOL0     H52608   3.445   5.753   1.541  0.7611 -2.2898  1.6303
  390MOL0     H52609   3.562   5.887   1.593 -0.8235 -0.2022 -2.1454
  390MOL0     H52610   3.278   5.869   1.567  3.2285 -4.0591  0.4236
  390MOL0     H52611   2.973   5.988   1.614  0.7735  0.3015  1.3136
  390MOL0     H52612   3.080   5.944   1.498 -0.4750  2.5945  1.0101
  390MOL0     H52613   2.953   5.821   1.535 -0.4097  1.0609 -0.5893
  390MOL0     H52614   2.610   5.972   1.612 -1.1801 -1.9689 -1.1641
  390MOL0     H52615   2.395   6.045   1.679  1.3937  0.9866 -0.4094
  390MOL0     H52616   2.183   5.879   2.029  1.0103  2.1903  3.0092
  390MOL0     H52617   2.264   6.023   2.070  0.7795 -2.7682  0.7124
  390MOL0     H52618   2.094   6.173   1.993 -0.4594 -0.4193 -1.9290
  390MOL0     H52619   2.003   6.049   1.911 -0.7244  0.5711 -0.2362
  390MOL0     H52620   2.024   6.089   2.214  0.4003  2.1875 -1.5755
  390MOL0     H52621   1.968   5.937   2.146 -2.5971  0.6348  0.7608
  390MOL0     H52622   1.829   6.205   2.133 -0.2962  0.2299 -0.5045
  390MOL0     H52623   1.777   6.078   2.015 -2.5474  3.3598  0.3755
  390MOL0     H52624   1.807   6.036   2.320 -0.3342 -4.7078  1.5828
  390MOL0     H52625   1.733   5.926   2.221  0.9644 -0.8759  2.1811
  390MOL0     H52626   1.585   6.082   2.349  0.9409 -3.6140 -0.1008
  390MOL0     H52627   1.643   6.207   2.239  1.2861  0.0192 -0.2768
  390MOL0     H52628   1.519   5.950   2.133  0.7637  0.5656 -0.0978
  390MOL0     H52629   1.529   6.107   2.050 -2.6001  0.4968 -0.1841
  390MOL0     H52630   1.314   6.045   2.102  0.0182 -0.5630 -0.6139
  390MOL0     H52631   1.356   6.200   2.188  0.3159 -0.7341 -2.7475
  390MOL0     H52632   2.425   5.855   2.062  1.7381 -0.6511  0.4506
  390MOL0     H52633   2.639   5.768   2.001 -1.6889 -1.1755  0.5683
  390MOL0     H52634   3.115   5.784   2.023  0.8617 -2.6759  0.2888
  390MOL0     H52635   3.351   5.746   1.967  1.1214  1.3525 -0.6902
  390MOL0     H52636   4.762   5.060   0.643  1.7965 -0.4721 -0.6988
  390MOL0     H52637   4.898   5.057   0.452 -2.3647 -1.1623  0.8843
  390MOL0     H52638   5.039   5.520  -0.021  0.5346  0.4339 -0.1608
  390MOL0     H52639   5.238   5.567  -0.120 -4.6185  0.1593  0.3479
  390MOL0     H52640   5.428   5.530  -0.247  0.3711  1.0028  0.1519
  390MOL0     H52641   5.459   5.672  -0.141  2.5575  1.0891  0.4389
  390MOL0     H52642   5.658   5.486  -0.263 -1.3662  0.2766 -1.0556
  390MOL0     H52643   5.703   5.596  -0.137 -1.3765  1.5593  0.5059
  390MOL0     H52644   5.595   5.792  -0.289  1.2771  0.7469 -1.9803
  390MOL0     H52645   5.623   5.671  -0.413 -1.5296  1.7353  0.0661
  390MOL0     H52646   5.855   5.683  -0.374 -1.1542 -1.5017 -0.2654
  390MOL0     H52647   5.837   5.799  -0.242  0.0621 -0.5785  0.9824
  390MOL0     H52648   5.793   6.053  -0.563 -2.2328  1.3607  2.7437
  390MOL0     H52649   5.453   5.321   0.172 -0.9743 -0.9122  0.4184
  390MOL0     H52650   5.225   5.284   0.270 -2.0940  3.1259  1.2433
  391MOL0     O52651  11.076   7.937   2.114 -0.0896 -0.4248 -0.1250
  391MOL0     C52652  11.132   7.995   2.016  0.4470 -0.2777 -0.6203
  391MOL0     O52653  11.072   8.099   1.956 -0.2338 -0.4539  0.8160
  391MOL0     C52654  10.968   8.183   2.005  0.0634  0.2567 -0.0808
  391MOL0     C52655  10.921   8.274   1.913 -0.7296  0.1280  0.1241
  391MOL0     C52656  10.834   8.376   1.944  0.4835  0.1695 -0.1250
  391MOL0     C52657  10.791   8.377   2.078 -0.3640 -0.3830 -0.2095
  391MOL0     O52658  10.693   8.476   2.105  0.0476  0.1329 -0.0909
  391MOL0     C52659  10.624   8.472   2.232  0.5849 -1.1873  0.9911
  391MOL0     C52660  10.502   8.568   2.225 -0.2130  0.2333  0.2614
  391MOL0     C52661  10.425   8.573   2.354  0.3388  0.6059  0.7321
  391MOL0     C52662  10.310   8.677   2.330  0.6903  0.1983  0.3430
  391MOL0     C52663  10.229   8.703   2.464  0.4742 -0.3785 -0.0252
  391MOL0     C52664  10.118   8.801   2.436 -0.2138 -0.4844  0.1263
  391MOL0     C52665  10.024   8.839   2.550 -0.2962  0.3418 -0.3359
  391MOL0     C52666   9.903   8.925   2.506  0.3630  0.2260 -0.3927
  391MOL0     N52667   9.794   8.859   2.435  0.3736  0.7498 -0.1798
  391MOL0     C52668   9.679   8.809   2.494 -0.2469  0.3501  0.6764
  391MOL0     C52669   9.601   8.754   2.400  0.0400  0.8211 -0.6325
  391MOL0     C52670   9.474   8.684   2.417  0.1450  0.2038  0.4083
  391MOL0     C52671   9.478   8.544   2.369  0.6082  0.2849 -0.4572
  391MOL0     C52672   9.385   8.459   2.458  0.4101 -0.4257 -0.4376
  391MOL0     C52673   9.365   8.322   2.403  0.1177  1.1064 -0.1702
  391MOL0     O52674   9.236   8.269   2.445 -0.6644 -0.1167  0.3348
  391MOL0     C52675   9.115   8.288   2.368  0.2072  0.9925 -0.3996
  391MOL0     C52676   9.117   8.359   2.249 -0.3939 -0.4804 -0.1178
  391MOL0     C52677   9.005   8.387   2.173  0.3284  0.2037 -0.1487
  391MOL0     C52678   9.010   8.488   2.053 -0.3643 -0.1767  0.3436
  391MOL0     C52679   8.877   8.322   2.214 -0.7109 -0.5762  0.2825
  391MOL0     C52680   8.752   8.331   2.141  0.7479 -0.2667 -0.2265
  391MOL0     O52681   8.637   8.267   2.193 -0.1806 -0.3022  0.0738
  391MOL0     C52682   8.519   8.281   2.124  0.4292  0.1540  0.3186
  391MOL0     C52683   8.455   8.166   2.082 -0.0965 -0.6217  0.1769
  391MOL0     C52684   8.315   8.178   2.042 -0.1048 -0.0201 -0.8676
  391MOL0     C52685   8.249   8.304   2.026  0.0878  0.8394  0.4354
  391MOL0     O52686   8.122   8.306   1.977 -0.5226  1.3974 -0.5877
  391MOL0     C52687   8.035   8.414   2.003 -0.0786 -0.7221  0.2460
  391MOL0     C52688   7.882   8.353   2.004 -0.5458 -0.4311  0.3389
  391MOL0     C52689   7.849   8.290   1.869  0.0563  0.4271 -0.2479
  391MOL0     C52690   7.697   8.251   1.866 -0.4740 -0.0811  0.0275
  391MOL0     C52691   7.673   8.199   1.731  1.2765  0.4614 -0.2468
  391MOL0     C52692   7.536   8.124   1.716 -0.2423  0.5884 -0.1278
  391MOL0     C52693   7.414   8.206   1.709 -0.3233 -0.0102  0.2453
  391MOL0     C52694   7.298   8.113   1.692 -0.2164 -0.5950 -0.2732
  391MOL0    Cl52695   7.142   8.194   1.706 -0.0177  0.1493 -0.1290
  391MOL0     C52696   8.331   8.416   2.064  0.1991 -0.4362  0.2013
  391MOL0     C52697   8.462   8.407   2.109 -0.0704 -0.5609 -0.6129
  391MOL0     O52698   8.754   8.398   2.041  0.0625  0.1221 -0.4877
  391MOL0     C52699   8.877   8.241   2.326 -0.3458 -0.1890 -0.1093
  391MOL0     C52700   8.994   8.227   2.408  0.1413  0.6666  0.3929
  391MOL0     N52701   9.666   8.766   2.284  0.4352  0.0740  0.2963
  391MOL0     N52702   9.779   8.832   2.299  0.0873  0.1868 -0.7079
  391MOL0     C52703  10.848   8.301   2.176 -0.2205  0.4733  0.1909
  391MOL0     C52704  10.948   8.209   2.141  0.6095 -0.5151 -0.4803
  391MOL0     C52705  11.255   7.937   1.955 -0.1679 -0.7931  1.5520
  391MOL0     C52706  11.349   7.858   2.028 -0.3382  0.2119 -0.6201
  391MOL0     C52707  11.466   7.807   1.975  0.4119  0.4236  0.7182
  391MOL0     C52708  11.507   7.839   1.845 -0.5102 -0.5505 -0.6630
  391MOL0     O52709  11.636   7.813   1.805 -0.2235  0.6485  0.3649
  391MOL0     C52710  11.698   7.867   1.683 -0.3025 -0.0642 -0.5148
  391MOL0     C52711  11.842   7.820   1.697  0.3642  0.0218  0.3731
  391MOL0     C52712  11.867   7.674   1.742  0.0562  0.4516 -1.0781
  391MOL0     C52713  12.014   7.656   1.758  0.2242  0.8915 -0.2529
  391MOL0     C52714  12.056   7.518   1.770 -0.6495 -0.3184 -0.1353
  391MOL0     C52715  12.097   7.405   1.761  0.0678  0.2003 -0.6785
  391MOL0     C52716  11.417   7.921   1.773  0.2607 -0.5180  0.2836
  391MOL0     C52717  11.298   7.972   1.821 -0.4040 -0.4059  0.1888
  391MOL0     H52718  10.941   8.265   1.807 -0.2112 -1.6156  0.3528
  391MOL0     H52719  10.781   8.433   1.869  1.5823 -0.3558 -1.3429
  391MOL0     H52720  10.606   8.371   2.270 -0.8996 -1.4333 -0.2502
  391MOL0     H52721  10.690   8.516   2.308 -0.3366  0.8808  0.6657
  391MOL0     H52722  10.544   8.668   2.207  1.7863 -0.7411 -0.7422
  391MOL0     H52723  10.430   8.544   2.146  1.7921 -1.8020 -1.0754
  391MOL0     H52724  10.387   8.473   2.373  1.4780  0.3136  1.5775
  391MOL0     H52725  10.490   8.614   2.432  0.1418  2.7079 -0.1364
  391MOL0     H52726  10.347   8.774   2.296 -1.4582  0.7410 -0.6652
  391MOL0     H52727  10.235   8.646   2.256  0.7481  2.0270 -0.5169
  391MOL0     H52728  10.196   8.619   2.526 -1.4551  0.6540  0.4261
  391MOL0     H52729  10.296   8.762   2.527  3.1915 -0.8244 -2.3301
  391MOL0     H52730  10.160   8.895   2.399  3.1546 -2.5069 -1.6895
  391MOL0     H52731  10.058   8.758   2.355  0.2482 -0.2149 -0.3687
  391MOL0     H52732   9.977   8.747   2.585 -3.9539  1.8589 -0.8399
  391MOL0     H52733  10.087   8.890   2.624 -0.2059 -2.1978  1.4500
  391MOL0     H52734   9.947   9.000   2.440  1.0564 -0.6561 -0.9595
  391MOL0     H52735   9.862   8.985   2.587 -0.9323 -0.9778 -0.1148
  391MOL0     H52736   9.651   8.802   2.598  0.6370  2.7882  1.1477
  391MOL0     H52737   9.437   8.690   2.520 -0.8624 -1.2891  0.1611
  391MOL0     H52738   9.402   8.730   2.349  0.1019  0.3656  0.5637
  391MOL0     H52739   9.574   8.492   2.375 -0.7047 -2.1656  3.7462
  391MOL0     H52740   9.452   8.548   2.263  3.3163  0.6554 -1.2024
  391MOL0     H52741   9.289   8.510   2.472  0.3234 -0.6523 -0.1949
  391MOL0     H52742   9.424   8.457   2.560  0.0835 -1.4430 -0.3185
  391MOL0     H52743   9.438   8.257   2.453 -1.1453  0.5880  1.0808
  391MOL0     H52744   9.388   8.314   2.297 -0.3892 -0.0889 -0.2132
  391MOL0     H52745   9.211   8.398   2.210 -0.9181 -0.2439 -1.1959
  391MOL0     H52746   8.921   8.550   2.039 -0.8253 -0.1222  2.9268
  391MOL0     H52747   9.104   8.545   2.054  0.3162 -1.2685  0.5045
  391MOL0     H52748   9.007   8.432   1.959 -0.6221 -1.2515  0.9721
  391MOL0     H52749   8.496   8.065   2.085  0.3492 -0.5696 -2.3113
  391MOL0     H52750   8.271   8.080   2.028  1.3714 -0.8898  0.2231
  391MOL0     H52751   8.070   8.465   2.093  2.6317 -1.8946 -0.0214
  391MOL0     H52752   8.040   8.491   1.927 -0.5801 -1.2489 -0.3320
  391MOL0     H52753   7.870   8.275   2.080 -1.1619 -0.1271  0.5553
  391MOL0     H52754   7.806   8.426   2.032 -0.3902 -1.1463  2.8142
  391MOL0     H52755   7.912   8.204   1.843  0.8691  1.4746 -1.9041
  391MOL0     H52756   7.866   8.357   1.784  0.2655  0.8689  0.1364
  391MOL0     H52757   7.685   8.171   1.940  1.0927 -0.6040 -0.2442
  391MOL0     H52758   7.636   8.337   1.893 -1.3457 -1.4515  2.7799
  391MOL0     H52759   7.753   8.130   1.704  1.6249 -0.0955  1.9747
  391MOL0     H52760   7.661   8.283   1.662 -0.8649 -0.8514 -1.5890
  391MOL0     H52761   7.534   8.070   1.621  1.3433  1.0944 -0.4887
  391MOL0     H52762   7.531   8.046   1.793 -0.3099  0.1104 -0.6086
  391MOL0     H52763   7.423   8.284   1.632  0.8694 -0.1640  0.2062
  391MOL0     H52764   7.407   8.259   1.804  1.2611 -1.6777  1.3560
  391MOL0     H52765   7.307   8.030   1.762  0.3454  0.1688  0.5810
  391MOL0     H52766   7.298   8.072   1.591  3.4443 -1.0568 -0.2249
  391MOL0     H52767   8.282   8.510   2.042  0.6211 -0.3674 -0.5024
  391MOL0     H52768   8.519   8.498   2.127 -1.0614 -0.3620  1.9429
  391MOL0     H52769   8.786   8.207   2.374 -1.0065  2.3749  0.5914
  391MOL0     H52770   8.984   8.169   2.500 -0.9763 -1.2392 -0.8561
  391MOL0     H52771  10.826   8.302   2.282 -2.7356 -2.4229 -0.1754
  391MOL0     H52772  11.006   8.158   2.218 -0.5852  1.2671  1.7123
  391MOL0     H52773  11.327   7.837   2.132  2.3175 -1.0013 -0.2268
  391MOL0     H52774  11.532   7.768   2.052 -0.3351 -0.7728  0.7735
  391MOL0     H52775  11.650   7.832   1.591 -3.2692 -0.1548  0.9411
  391MOL0     H52776  11.702   7.976   1.680  0.8504  0.0397  2.1098
  391MOL0     H52777  11.887   7.892   1.766 -1.6786  3.1295 -1.3088
  391MOL0     H52778  11.897   7.829   1.603 -1.2505 -1.9243 -0.8159
  391MOL0     H52779  11.830   7.605   1.666 -0.1653  0.7152 -1.2116
  391MOL0     H52780  11.816   7.648   1.835 -2.6744 -0.5590 -2.7391
  391MOL0     H52781  12.055   7.730   1.828  4.1480 -0.3085 -1.0184
  391MOL0     H52782  12.062   7.673   1.662  2.3664 -3.7498 -0.3068
  391MOL0     H52783  12.135   7.306   1.751  1.5635  0.7594 -0.8491
  391MOL0     H52784  11.442   7.948   1.671 -2.1267  2.2723  0.3135
  391MOL0     H52785  11.245   8.037   1.751 -3.7396 -2.2151  0.8206
  392MOL0     O52786   9.248   5.237   1.009 -0.5041 -0.3406 -0.5951
  392MOL0     C52787   9.282   5.296   0.908  0.8096 -0.2172  0.9693
  392MOL0     O52788   9.222   5.262   0.792  0.1480  0.3230  0.7366
  392MOL0     C52789   9.126   5.168   0.791  0.4200  0.1140 -0.3814
  392MOL0     C52790   8.995   5.205   0.754 -0.9355  0.2322  0.3731
  392MOL0     C52791   8.889   5.113   0.747  0.6130  0.6847  0.4888
  392MOL0     C52792   8.904   4.986   0.803 -0.1867 -0.5220  0.5078
  392MOL0     O52793   8.798   4.901   0.786 -0.3029  0.7377 -0.1828
  392MOL0     C52794   8.784   4.816   0.894 -0.6637  0.0293  0.5931
  392MOL0     C52795   8.641   4.790   0.926  0.3118  0.3440  0.7136
  392MOL0     C52796   8.582   4.676   0.836  0.0336 -0.0486 -0.0380
  392MOL0     C52797   8.433   4.660   0.876  0.2204 -0.5383  0.5206
  392MOL0     C52798   8.363   4.551   0.790  0.2952  0.3702  0.7344
  392MOL0     C52799   8.333   4.605   0.650 -0.0518  0.7397  0.2457
  392MOL0     C52800   8.253   4.496   0.570  0.6402 -0.2319 -0.5449
  392MOL0     C52801   8.252   4.523   0.422 -0.4152  0.0106  0.2062
  392MOL0     N52802   8.201   4.406   0.349  0.1766 -0.0062 -0.1204
  392MOL0     C52803   8.072   4.366   0.365 -0.1347 -0.3480 -0.7824
  392MOL0     C52804   8.062   4.246   0.299  1.0793  0.2988  0.5459
  392MOL0     C52805   7.936   4.164   0.281 -0.8730 -0.2458 -0.1468
  392MOL0     C52806   7.894   4.163   0.140 -0.2743 -0.5549 -0.0971
  392MOL0     C52807   7.821   4.293   0.120  0.4310  0.0240 -0.4584
  392MOL0     C52808   7.765   4.311  -0.018 -0.3777 -0.0136  0.2428
  392MOL0     O52809   7.677   4.429  -0.023 -0.0287 -0.1365 -0.3504
  392MOL0     C52810   7.546   4.426   0.004 -0.4151  0.1411  0.2244
  392MOL0     C52811   7.484   4.319   0.062  0.2344  0.2157 -0.7133
  392MOL0     C52812   7.341   4.322   0.092 -0.1409 -0.3168 -0.5830
  392MOL0     C52813   7.279   4.205   0.155  0.0205  0.1748  0.1976
  392MOL0     C52814   7.266   4.439   0.067 -0.7951  0.5175  0.0744
  392MOL0     C52815   7.125   4.468   0.121 -0.7079 -0.3067  0.8523
  392MOL0     O52816   7.089   4.599   0.098  0.3407 -0.2473  0.2624
  392MOL0     C52817   6.965   4.644   0.139 -0.2920 -1.5392  0.2252
  392MOL0     C52818   6.961   4.766   0.209 -0.5153 -0.0042 -0.3950
  392MOL0     C52819   6.838   4.832   0.237 -0.1938  0.4066 -0.1191
  392MOL0     C52820   6.717   4.770   0.195  0.3736  0.4468  0.0716
  392MOL0     O52821   6.608   4.847   0.221 -0.0613 -0.3383  0.2092
  392MOL0     C52822   6.481   4.788   0.193  0.0437 -0.1219  0.2384
  392MOL0     C52823   6.382   4.870   0.269  0.4843  0.3111  0.2620
  392MOL0     C52824   6.233   4.839   0.234  0.1916  0.0114 -0.1516
  392MOL0     C52825   6.180   4.747   0.341  0.7701  0.5042  0.4808
  392MOL0     C52826   6.029   4.711   0.326 -0.1500  0.2208 -0.4948
  392MOL0     C52827   5.973   4.690   0.190  0.1456  0.2219 -0.0614
  392MOL0     C52828   5.820   4.665   0.208 -0.1159 -0.8267  1.0025
  392MOL0     C52829   5.745   4.644   0.076 -0.9629 -0.3329 -0.0968
  392MOL0    Cl52830   5.563   4.664   0.087  0.0123  0.2093  0.0471
  392MOL0     C52831   6.721   4.647   0.129  0.4365  0.7739  0.2706
  392MOL0     C52832   6.845   4.593   0.093  0.1125  0.4348  0.4780
  392MOL0     O52833   7.055   4.379   0.171 -0.7284  0.4662 -0.4501
  392MOL0     C52834   7.333   4.547   0.003  0.0362 -0.2705  0.6724
  392MOL0     C52835   7.471   4.538  -0.036  0.6938 -0.1625  0.4034
  392MOL0     N52836   8.185   4.216   0.253 -0.1440 -0.2387  0.8758
  392MOL0     N52837   8.273   4.316   0.283 -0.0785  0.1193  0.4189
  392MOL0     C52838   9.035   4.950   0.842  0.1214  0.3305  0.2829
  392MOL0     C52839   9.143   5.035   0.832  0.0768 -0.4593 -0.1442
  392MOL0     C52840   9.379   5.409   0.910  0.2497  0.0623 -0.0848
  392MOL0     C52841   9.433   5.453   1.034 -0.3504 -0.5514  0.3806
  392MOL0     C52842   9.542   5.547   1.029 -0.2619 -0.4863  0.2804
  392MOL0     C52843   9.585   5.609   0.912  0.6595  0.8867  0.0393
  392MOL0     O52844   9.686   5.700   0.907 -0.0157 -0.3629 -0.2372
  392MOL0     C52845   9.753   5.749   1.025 -0.0794 -0.1411 -0.4977
  392MOL0     C52846   9.668   5.839   1.108  0.5483 -0.0474 -0.4087
  392MOL0     C52847   9.742   5.878   1.247  0.4525 -0.5654  0.2953
  392MOL0     C52848   9.641   5.968   1.323 -0.2730  0.2320  0.0255
  392MOL0     C52849   9.632   6.094   1.251  0.2199  0.2618 -0.4783
  392MOL0     C52850   9.629   6.193   1.183 -0.5004 -0.5863  0.3419
  392MOL0     C52851   9.518   5.572   0.793  0.0851  0.0033 -0.1670
  392MOL0     C52852   9.419   5.472   0.789 -0.2024  0.5955 -0.0879
  392MOL0     H52853   8.975   5.311   0.738  0.3746  1.0010  3.0870
  392MOL0     H52854   8.792   5.146   0.709  0.5647  1.5790  1.3354
  392MOL0     H52855   8.849   4.729   0.879 -1.6142 -0.2688 -2.3650
  392MOL0     H52856   8.824   4.872   0.979 -0.1113 -1.5023  1.3848
  392MOL0     H52857   8.646   4.761   1.032  0.7293 -1.2034  0.2970
  392MOL0     H52858   8.583   4.881   0.909  0.7386  0.1791 -1.9238
  392MOL0     H52859   8.610   4.687   0.731 -0.9971  1.9404 -0.1515
  392MOL0     H52860   8.641   4.592   0.874  0.2215  0.9574  2.0343
  392MOL0     H52861   8.432   4.634   0.982 -0.4707 -2.4115  0.1071
  392MOL0     H52862   8.381   4.754   0.857  2.2215  1.0343  2.3254
  392MOL0     H52863   8.434   4.468   0.787  0.6172  0.6251  1.2491
  392MOL0     H52864   8.275   4.501   0.832  0.7381 -0.5428  0.6186
  392MOL0     H52865   8.273   4.697   0.649 -1.3431 -0.0806  0.6769
  392MOL0     H52866   8.424   4.627   0.593 -0.9018  1.8146 -0.7624
  392MOL0     H52867   8.309   4.406   0.594  2.9077  1.2558  0.0773
  392MOL0     H52868   8.149   4.499   0.602 -0.0193 -0.3833 -2.5071
  392MOL0     H52869   8.356   4.544   0.398 -0.2746 -0.7310  0.1498
  392MOL0     H52870   8.196   4.613   0.396 -0.9166 -1.1387 -3.1401
  392MOL0     H52871   7.991   4.417   0.415  0.4735  0.9351 -1.0681
  392MOL0     H52872   7.959   4.062   0.314 -0.8724 -0.1040  0.2957
  392MOL0     H52873   7.849   4.201   0.335 -1.6304 -1.4377 -0.5188
  392MOL0     H52874   7.830   4.077   0.118  0.4360 -2.1176  3.3038
  392MOL0     H52875   7.978   4.155   0.070 -0.6984 -0.9510 -0.5678
  392MOL0     H52876   7.896   4.369   0.144  2.0425 -1.0941 -1.7516
  392MOL0     H52877   7.729   4.299   0.179  0.5251  0.1742 -0.3262
  392MOL0     H52878   7.703   4.228  -0.052  0.5848 -0.8415  0.4780
  392MOL0     H52879   7.852   4.320  -0.084 -0.1288  0.9224  0.6827
  392MOL0     H52880   7.533   4.230   0.100  0.7413  0.1080 -1.6016
  392MOL0     H52881   7.352   4.124   0.168  0.6580  0.5219 -1.0082
  392MOL0     H52882   7.243   4.226   0.256 -1.3439 -2.8188  0.4495
  392MOL0     H52883   7.191   4.168   0.101  0.6067 -1.3421  0.2143
  392MOL0     H52884   7.056   4.811   0.235 -2.1885  2.8965  1.2679
  392MOL0     H52885   6.832   4.930   0.284  0.7270  0.8262 -0.8387
  392MOL0     H52886   6.461   4.805   0.087 -0.3540 -1.6434  0.0408
  392MOL0     H52887   6.470   4.686   0.231 -2.8123  0.4116  1.1330
  392MOL0     H52888   6.389   4.852   0.377  1.0049  2.7207  0.6712
  392MOL0     H52889   6.391   4.976   0.246 -1.0358  0.1789 -1.1232
  392MOL0     H52890   6.231   4.795   0.134 -2.3072 -1.1685  0.3605
  392MOL0     H52891   6.178   4.933   0.230  1.9835  1.0656 -2.2084
  392MOL0     H52892   6.235   4.653   0.335 -0.5871 -0.2561 -2.4222
  392MOL0     H52893   6.201   4.796   0.436  1.1526  1.9602 -0.3185
  392MOL0     H52894   5.979   4.799   0.368 -2.6087 -1.3799  0.1480
  392MOL0     H52895   5.999   4.632   0.394 -0.4305 -1.5125 -2.5385
  392MOL0     H52896   5.979   4.781   0.130  0.4635 -0.0336 -0.4223
  392MOL0     H52897   6.029   4.616   0.132  0.1832  1.5412 -1.8034
  392MOL0     H52898   5.771   4.740   0.271 -1.8566 -1.7178  0.7855
  392MOL0     H52899   5.812   4.572   0.265  3.3444 -1.1708  1.1419
  392MOL0     H52900   5.770   4.553   0.022  1.1608  1.6209 -2.6675
  392MOL0     H52901   5.781   4.732   0.022  0.2084 -0.7728 -0.0551
  392MOL0     H52902   6.628   4.610   0.086  1.7434 -1.9884 -0.4055
  392MOL0     H52903   6.830   4.508   0.027 -0.1973  0.9127 -0.0813
  392MOL0     H52904   7.282   4.640  -0.024 -0.6550 -0.9583 -0.4837
  392MOL0     H52905   7.515   4.622  -0.090 -1.8077  0.6907 -0.4485
  392MOL0     H52906   9.060   4.847   0.868  0.5122  0.3539  0.0048
  392MOL0     H52907   9.235   4.987   0.863 -0.8707 -0.1946  3.5067
  392MOL0     H52908   9.394   5.427   1.132 -0.0210  1.6430  1.1603
  392MOL0     H52909   9.587   5.576   1.124 -0.6984  0.4220  0.2266
  392MOL0     H52910   9.786   5.674   1.097  0.8887  0.8020  0.0586
  392MOL0     H52911   9.843   5.800   0.990  0.5197  0.0233  1.2080
  392MOL0     H52912   9.569   5.798   1.134 -0.6599  1.4713 -2.3695
  392MOL0     H52913   9.666   5.933   1.053  1.4175  0.0504 -0.2812
  392MOL0     H52914   9.827   5.946   1.233  0.4832 -0.2437  1.8745
  392MOL0     H52915   9.760   5.791   1.311  1.6780 -0.4939  0.0774
  392MOL0     H52916   9.676   5.992   1.424 -0.1794  0.7006 -0.1158
  392MOL0     H52917   9.540   5.926   1.328  0.3164 -1.3129 -0.5071
  392MOL0     H52918   9.645   6.279   1.122  0.7147 -1.3616 -0.4713
  392MOL0     H52919   9.543   5.626   0.703  1.1652  1.1604  0.7759
  392MOL0     H52920   9.372   5.433   0.699 -0.4239 -3.1022  1.4212
  393MOL0     O52921   9.730  10.651  11.261 -0.1154 -0.0176 -0.3944
  393MOL0     C52922   9.646  10.670  11.179  0.1737  0.7472  0.3258
  393MOL0     O52923   9.662  10.622  11.041  0.0299  0.4087 -0.3953
  393MOL0     C52924   9.780  10.546  11.025  0.0879 -0.0006  0.0197
  393MOL0     C52925   9.903  10.596  11.053  1.0529 -0.0933 -0.5475
  393MOL0     C52926  10.021  10.518  11.032  0.5792  0.8750 -0.2222
  393MOL0     C52927  10.008  10.388  10.987 -0.3991  0.4524  0.5836
  393MOL0     O52928  10.131  10.328  10.968 -0.2015 -1.0598  0.2220
  393MOL0     C52929  10.135  10.199  10.913  0.0093  0.1088 -0.3850
  393MOL0     C52930  10.285  10.158  10.880 -0.3524 -0.4739 -0.0721
  393MOL0     C52931  10.369  10.131  10.999  0.2400 -0.3343 -0.4278
  393MOL0     C52932  10.519  10.123  10.958 -1.1040  0.2850 -0.3589
  393MOL0     C52933  10.562   9.989  10.894  0.4949  0.5109 -0.4910
  393MOL0     C52934  10.712   9.959  10.870 -0.1589 -0.1121 -1.8296
  393MOL0     C52935  10.800   9.966  11.002  0.2269  0.2224  0.3621
  393MOL0     C52936  10.793   9.850  11.098 -0.0008  0.7552 -0.9444
  393MOL0     N52937  10.678   9.866  11.194  0.1055 -0.5364 -0.0293
  393MOL0     C52938  10.675   9.961  11.289 -0.2369  0.1371 -0.8848
  393MOL0     C52939  10.556   9.943  11.351 -0.3215  0.2009 -0.1652
  393MOL0     C52940  10.513  10.017  11.479  0.0839 -0.8687  0.6530
  393MOL0     C52941  10.366  10.061  11.466 -0.0728  0.8342  0.6899
  393MOL0     C52942  10.354  10.176  11.365 -1.2199 -0.3870  0.0162
  393MOL0     C52943  10.220  10.236  11.322 -0.2570 -1.1006 -0.2064
  393MOL0     O52944  10.153  10.296  11.435 -0.1626  0.1019  0.2577
  393MOL0     C52945  10.023  10.331  11.427 -0.6967  0.2495 -0.0237
  393MOL0     C52946   9.968  10.385  11.536  0.3159  0.1071 -0.1890
  393MOL0     C52947   9.833  10.425  11.541 -0.4298 -0.8709  1.0019
  393MOL0     C52948   9.792  10.480  11.671  0.4650 -0.0521  0.0127
  393MOL0     C52949   9.747  10.398  11.430  0.0436 -0.6878 -0.5551
  393MOL0     C52950   9.594  10.409  11.439  0.7016  0.1836  0.3432
  393MOL0     O52951   9.533  10.366  11.326 -0.0331 -0.2389 -0.0783
  393MOL0     C52952   9.399  10.365  11.300 -0.0017 -0.3633 -0.2659
  393MOL0     C52953   9.348  10.416  11.175  0.3874  0.5235  0.2928
  393MOL0     C52954   9.209  10.406  11.158 -0.0856  0.6834 -0.3657
  393MOL0     C52955   9.122  10.362  11.255 -0.2312  0.1755  0.0231
  393MOL0     O52956   8.984  10.357  11.238 -0.7170 -0.1039 -0.1013
  393MOL0     C52957   8.921  10.486  11.225 -0.1503  0.6801 -0.0567
  393MOL0     C52958   8.810  10.483  11.118  0.0069  0.4885 -0.4338
  393MOL0     C52959   8.708  10.589  11.144  0.2682  0.0695  0.4483
  393MOL0     C52960   8.580  10.552  11.070 -0.0383 -0.7776 -0.0036
  393MOL0     C52961   8.472  10.645  11.106  0.7633 -0.6834 -0.5872
  393MOL0     C52962   8.331  10.610  11.042  0.0941  0.4530 -0.3238
  393MOL0     C52963   8.228  10.711  11.105  0.5733 -0.0991 -0.0032
  393MOL0     C52964   8.092  10.710  11.032 -0.2450 -0.7168  0.0196
  393MOL0    Cl52965   7.961  10.808  11.121 -0.4689 -0.0826  0.0303
  393MOL0     C52966   9.175  10.301  11.367 -1.1771  1.0677  0.0397
  393MOL0     C52967   9.311  10.309  11.394 -0.4527 -0.0292 -0.8115
  393MOL0     O52968   9.544  10.461  11.536  0.4172  0.1912 -0.3507
  393MOL0     C52969   9.805  10.343  11.318  0.2068 -0.1394 -0.2261
  393MOL0     C52970   9.938  10.320  11.314  0.2951 -0.0661  0.3142
  393MOL0     N52971  10.498   9.825  11.293  0.0556 -0.4488  0.3490
  393MOL0     N52972  10.571   9.782  11.195 -0.8119  0.0605  0.2964
  393MOL0     C52973   9.880  10.339  10.957 -0.8546 -0.4117  0.7880
  393MOL0     C52974   9.764  10.418  10.977  0.0090 -0.2566  0.4630
  393MOL0     C52975   9.525  10.741  11.215  0.8771  0.0642 -0.0909
  393MOL0     C52976   9.486  10.767  11.350 -0.0246 -0.0686 -0.0703
  393MOL0     C52977   9.368  10.827  11.392  0.9050 -0.5269 -0.0686
  393MOL0     C52978   9.277  10.858  11.290 -1.2150 -0.9763  0.2932
  393MOL0     O52979   9.162  10.910  11.328  0.3982 -0.1617  0.0805
  393MOL0     C52980   9.145  11.051  11.343  0.0470  1.4821  0.1452
  393MOL0     C52981   9.076  11.104  11.217  0.5058  0.1299  0.1919
  393MOL0     C52982   8.939  11.045  11.188  0.4778 -0.8064  0.0576
  393MOL0     C52983   8.859  11.140  11.101 -0.3365 -0.4157 -0.1789
  393MOL0     C52984   8.724  11.092  11.075  0.8107  0.2164 -0.3319
  393MOL0     C52985   8.613  11.044  11.072  0.1431  0.2261  0.7533
  393MOL0     C52986   9.310  10.844  11.155  0.3196  0.5314 -0.0458
  393MOL0     C52987   9.432  10.785  11.117  0.0632 -1.2457 -0.2308
  393MOL0     H52988   9.919  10.694  11.097  0.9229 -0.3658  0.1151
  393MOL0     H52989  10.123  10.546  11.058  0.2887 -0.1227  2.2774
  393MOL0     H52990  10.098  10.124  10.983 -0.1891 -0.3124 -0.9300
  393MOL0     H52991  10.066  10.195  10.829 -0.5879  3.1251 -0.1651
  393MOL0     H52992  10.287  10.072  10.812  1.2401 -0.5778  0.0876
  393MOL0     H52993  10.329  10.242  10.825  1.1468 -0.1712  1.5156
  393MOL0     H52994  10.354  10.213  11.069 -0.2124 -0.0985 -0.7922
  393MOL0     H52995  10.339  10.038  11.048 -1.9495  2.0382  3.1491
  393MOL0     H52996  10.546  10.197  10.882  0.8488 -0.3645 -0.3398
  393MOL0     H52997  10.582  10.132  11.047  2.9773  0.4648 -3.0139
  393MOL0     H52998  10.509   9.910  10.948 -2.1634  1.3801 -1.6557
  393MOL0     H52999  10.514   9.994  10.795 -1.0622  1.7504  0.2826
  393MOL0     H53000  10.721   9.863  10.819  3.4906 -0.3749 -0.9437
  393MOL0     H53001  10.744  10.041  10.805  0.2803 -1.6379 -3.6379
  393MOL0     H53002  10.905   9.952  10.976 -0.2093 -0.5225 -1.1651
  393MOL0     H53003  10.800  10.069  11.039 -2.2359  0.8677 -1.1153
  393MOL0     H53004  10.884   9.848  11.159 -0.3065  1.1801 -0.4679
  393MOL0     H53005  10.790   9.758  11.038  2.5247 -0.5092  0.6614
  393MOL0     H53006  10.760  10.025  11.310 -0.6128  0.2302  0.4658
  393MOL0     H53007  10.526   9.955  11.568  0.9792 -0.5771  0.7329
  393MOL0     H53008  10.582  10.100  11.497 -0.1193 -0.5794  0.1127
  393MOL0     H53009  10.338  10.088  11.568 -2.1899 -1.5472  0.8384
  393MOL0     H53010  10.307   9.974  11.435  2.0846 -0.3755 -0.2462
  393MOL0     H53011  10.407  10.159  11.271  1.9165  1.8379  1.1704
  393MOL0     H53012  10.409  10.260  11.409  0.7537 -1.4120 -0.3437
  393MOL0     H53013  10.152  10.174  11.263 -0.8675  1.3965 -2.3312
  393MOL0     H53014  10.238  10.320  11.255  1.2940 -0.2530  1.2091
  393MOL0     H53015  10.025  10.396  11.628  0.0519  1.3086 -0.1522
  393MOL0     H53016   9.746  10.412  11.742  0.9132  0.2456  0.5951
  393MOL0     H53017   9.880  10.525  11.719  0.8008  1.7599 -2.1095
  393MOL0     H53018   9.723  10.563  11.651  0.5082 -0.5938 -2.8488
  393MOL0     H53019   9.418  10.460  11.105  0.7982 -0.0598  0.3256
  393MOL0     H53020   9.168  10.453  11.069  3.0505  2.5570 -0.9956
  393MOL0     H53021   8.875  10.514  11.321 -1.1859  1.9997 -0.8993
  393MOL0     H53022   8.992  10.566  11.204 -1.9111  2.2159 -0.4197
  393MOL0     H53023   8.856  10.503  11.020  1.1626  2.9227  0.5343
  393MOL0     H53024   8.765  10.384  11.129 -4.2238  2.0060 -1.9904
  393MOL0     H53025   8.748  10.686  11.115  2.1122 -0.9645 -0.6710
  393MOL0     H53026   8.681  10.590  11.251 -0.9149 -0.6631  0.1815
  393MOL0     H53027   8.599  10.555  10.962  4.4721  0.8925  0.6327
  393MOL0     H53028   8.551  10.453  11.105 -1.1289  0.8658  4.4027
  393MOL0     H53029   8.504  10.747  11.086 -0.2265 -0.5255 -1.4674
  393MOL0     H53030   8.455  10.638  11.214 -1.0516 -0.3857 -0.8105
  393MOL0     H53031   8.353  10.610  10.935  1.2511 -3.0711 -0.2038
  393MOL0     H53032   8.292  10.511  11.069 -3.6754  1.4410 -1.5669
  393MOL0     H53033   8.269  10.812  11.109 -1.4541  0.8979 -2.0359
  393MOL0     H53034   8.224  10.692  11.213  1.1222 -0.7759 -0.0915
  393MOL0     H53035   8.048  10.611  11.013 -0.4332 -0.6526  0.1243
  393MOL0     H53036   8.112  10.761  10.937  4.9908 -2.2577 -0.0346
  393MOL0     H53037   9.117  10.246  11.440  1.9606 -1.6811  0.6559
  393MOL0     H53038   9.338  10.265  11.489 -2.8195 -1.9353 -0.9407
  393MOL0     H53039   9.747  10.302  11.236 -0.0104  1.4958 -0.9107
  393MOL0     H53040   9.981  10.275  11.225  0.5562  1.8810 -0.5711
  393MOL0     H53041   9.876  10.244  10.904  0.3312 -0.6475  1.0974
  393MOL0     H53042   9.665  10.375  10.967  1.1897 -2.9174 -0.6810
  393MOL0     H53043   9.555  10.732  11.426  0.9304 -2.8238 -2.0435
  393MOL0     H53044   9.350  10.845  11.497  1.1843  0.6817 -0.2143
  393MOL0     H53045   9.064  11.075  11.414 -1.1198  0.9298 -0.9545
  393MOL0     H53046   9.243  11.093  11.365  0.8133  0.5397 -1.3684
  393MOL0     H53047   9.134  11.064  11.133 -2.8294 -0.6100 -1.9395
  393MOL0     H53048   9.066  11.213  11.214 -3.1360 -0.0279  1.4333
  393MOL0     H53049   8.887  11.026  11.282 -1.1427  1.0353 -0.3934
  393MOL0     H53050   8.950  10.950  11.134  3.8910 -0.7878  0.5275
  393MOL0     H53051   8.902  11.169  11.005 -0.1913  2.7649  0.7450
  393MOL0     H53052   8.849  11.229  11.164  0.6620 -1.0298  0.8927
  393MOL0     H53053   8.516  11.002  11.054  0.1799  1.0290 -1.7058
  393MOL0     H53054   9.228  10.872  11.089  1.7588  1.5092 -1.5111
  393MOL0     H53055   9.434  10.779  11.009 -0.5002  0.4450 -0.3685
  394MOL0     O53056   9.343   0.539  11.232 -0.3965 -0.1041 -0.0894
  394MOL0     C53057   9.382   0.528  11.117 -0.1429 -0.0462  0.0019
  394MOL0     O53058   9.314   0.569  11.003 -0.0168 -0.1470 -0.1043
  394MOL0     C53059   9.211   0.656  11.017 -0.1151 -0.4114  0.3079
  394MOL0     C53060   9.097   0.618  11.080 -0.5381  0.9374 -0.7037
  394MOL0     C53061   8.988   0.701  11.107  0.4153 -0.0009  0.0127
  394MOL0     C53062   8.987   0.829  11.047 -0.3205  0.5940 -0.2367
  394MOL0     O53063   8.881   0.913  11.059  0.6110 -0.0951 -0.2806
  394MOL0     C53064   8.848   0.992  10.945 -0.4604 -0.0044  0.2559
  394MOL0     C53065   8.711   1.056  10.962  0.2980  0.2662  0.0191
  394MOL0     C53066   8.587   0.953  10.977 -0.3782 -0.4989 -0.0505
  394MOL0     C53067   8.460   1.035  10.979 -0.5312  0.1599 -0.1149
  394MOL0     C53068   8.338   0.948  10.995  1.3725 -0.8232 -0.0471
  394MOL0     C53069   8.217   1.047  11.022  0.3913  0.5343 -1.1638
  394MOL0     C53070   8.090   0.968  11.041  0.8767  0.7344  0.0454
  394MOL0     C53071   7.979   1.059  11.090  0.0204 -0.3037  0.0785
  394MOL0     N53072   7.847   0.997  11.065 -0.3881 -0.4783  0.4308
  394MOL0     C53073   7.760   0.965  11.162 -0.3779  0.2546 -0.7470
  394MOL0     C53074   7.666   0.891  11.108  0.4968  1.1295 -1.0708
  394MOL0     C53075   7.536   0.829  11.181 -1.2379  0.3741 -0.1327
  394MOL0     C53076   7.431   0.814  11.064  0.0340  0.3377 -0.3498
  394MOL0     C53077   7.298   0.770  11.137 -0.0843  0.2287 -0.8182
  394MOL0     C53078   7.188   0.759  11.044  0.4867 -0.5937 -0.2924
  394MOL0     O53079   7.076   0.723  11.128  0.2818  0.2104  0.2838
  394MOL0     C53080   6.957   0.689  11.072 -0.0692 -0.1581 -0.5532
  394MOL0     C53081   6.850   0.663  11.155  0.5077 -0.2691  0.1769
  394MOL0     C53082   6.723   0.636  11.101 -0.2418  0.5405  0.5318
  394MOL0     C53083   6.611   0.619  11.210  0.2411  0.5690 -0.0618
  394MOL0     C53084   6.696   0.620  10.963  0.3357  0.4018 -0.2887
  394MOL0     C53085   6.569   0.583  10.909 -0.0469 -0.4041  0.3594
  394MOL0     O53086   6.488   0.685  10.859  0.1866 -0.2477  0.9200
  394MOL0     C53087   6.377   0.652  10.782  0.2191 -0.1067 -0.7956
  394MOL0     C53088   6.388   0.581  10.660 -0.7598  0.1507  0.4470
  394MOL0     C53089   6.264   0.530  10.609  0.5194  0.4604 -0.6802
  394MOL0     C53090   6.144   0.558  10.673  0.0427 -0.2574  0.1561
  394MOL0     O53091   6.024   0.520  10.607 -0.1907  0.3567 -0.2486
  394MOL0     C53092   5.896   0.579  10.630 -0.6465  0.1509  0.3277
  394MOL0     C53093   5.812   0.525  10.509  0.1956 -0.4572 -0.2726
  394MOL0     C53094   5.680   0.602  10.504 -0.1533  0.0371 -0.9520
  394MOL0     C53095   5.607   0.565  10.384  0.2755  0.2278 -0.3528
  394MOL0     C53096   5.488   0.658  10.364 -0.2256  0.1056  0.4768
  394MOL0     C53097   5.445   0.666  10.213 -0.3102 -0.1555  0.2724
  394MOL0     C53098   5.384   0.541  10.161 -0.4165  0.2683 -0.8534
  394MOL0     C53099   5.252   0.556  10.092  0.2465  0.2753  0.5500
  394MOL0    Cl53100   5.215   0.396  10.027  0.3614  0.0575 -0.1372
  394MOL0     C53101   6.139   0.628  10.789 -0.3125  0.8637  0.1666
  394MOL0     C53102   6.258   0.677  10.849  0.0861  0.4579 -0.6126
  394MOL0     O53103   6.549   0.465  10.914  0.0358  0.5508  0.0429
  394MOL0     C53104   6.808   0.636  10.881  0.4872 -0.2180  0.5576
  394MOL0     C53105   6.938   0.675  10.931  0.1500  0.4213 -0.2140
  394MOL0     N53106   7.704   0.869  10.973 -0.5746 -0.3418  0.0103
  394MOL0     N53107   7.810   0.938  10.948  0.5091  0.1504 -0.0586
  394MOL0     C53108   9.108   0.868  10.992  0.6652  0.1679  0.2453
  394MOL0     C53109   9.218   0.786  10.975 -0.8615  0.7706  0.2925
  394MOL0     C53110   9.518   0.474  11.106  0.1416 -0.0550 -0.2790
  394MOL0     C53111   9.559   0.411  10.983 -0.4192  0.4432 -0.6316
  394MOL0     C53112   9.692   0.365  10.973 -0.4385  0.7880  0.2596
  394MOL0     C53113   9.788   0.394  11.074 -0.0984  0.1495 -0.0301
  394MOL0     O53114   9.919   0.361  11.077 -0.1543 -0.5799  0.3189
  394MOL0     C53115   9.979   0.299  10.970 -0.0953  0.3332  0.0402
  394MOL0     C53116  10.128   0.270  11.004  0.2089 -0.2971  0.4926
  394MOL0     C53117  10.147   0.136  11.082  0.5977  0.5808  0.7607
  394MOL0     C53118  10.153   0.007  11.002 -0.5491  0.2398 -1.1814
  394MOL0     C53119  10.241   0.016  10.886  0.8861 -0.3748 -0.2882
  394MOL0     C53120  10.318   0.037  10.795 -0.5022  0.0632  0.1954
  394MOL0     C53121   9.747   0.455  11.195 -0.0300  0.0379  0.2405
  394MOL0     C53122   9.611   0.494  11.208 -0.2398 -0.3541 -0.3751
  394MOL0     H53123   9.098   0.513  11.108  0.2271  1.1432  0.1021
  394MOL0     H53124   8.906   0.668  11.170  2.0904 -4.2838  0.2586
  394MOL0     H53125   8.914   1.077  10.924 -1.0447 -0.0686 -2.1912
  394MOL0     H53126   8.860   0.928  10.857  1.2620  0.7263 -0.0768
  394MOL0     H53127   8.716   1.120  11.051 -0.5928 -0.1050  0.3522
  394MOL0     H53128   8.704   1.121  10.875  0.3923 -0.5011 -0.5734
  394MOL0     H53129   8.581   0.880  10.896 -0.8014  0.2522 -0.7109
  394MOL0     H53130   8.592   0.906  11.076 -1.7650  0.6311  0.6085
  394MOL0     H53131   8.473   1.100  11.066  0.5759 -1.4495  0.9809
  394MOL0     H53132   8.446   1.086  10.883 -0.6797  0.0472 -0.1543
  394MOL0     H53133   8.317   0.896  10.901 -1.7071  0.8194 -0.4015
  394MOL0     H53134   8.352   0.874  11.075  0.5959 -1.5131 -0.5284
  394MOL0     H53135   8.241   1.089  11.120 -2.2177 -1.0614  0.2661
  394MOL0     H53136   8.224   1.127  10.948  3.6525  1.7456  0.2546
  394MOL0     H53137   8.066   0.916  10.947 -0.4820  0.8999  0.2733
  394MOL0     H53138   8.101   0.874  11.095  0.2358 -0.5281 -1.9004
  394MOL0     H53139   7.987   1.148  11.027  0.5666 -1.8096 -2.1044
  394MOL0     H53140   7.989   1.092  11.194  1.1155  0.8687 -0.3666
  394MOL0     H53141   7.774   0.987  11.267  2.5924  2.9432 -1.5344
  394MOL0     H53142   7.545   0.726  11.218 -1.2114 -0.6581 -2.8175
  394MOL0     H53143   7.519   0.905  11.257 -4.3365 -0.2146 -0.1114
  394MOL0     H53144   7.468   0.742  10.990  1.2998 -0.3028  0.8768
  394MOL0     H53145   7.404   0.911  11.019 -0.6922  0.1368 -0.3623
  394MOL0     H53146   7.280   0.848  11.213  0.6444  0.6682 -1.0909
  394MOL0     H53147   7.301   0.672  11.185 -0.3378  1.0283  0.9356
  394MOL0     H53148   7.216   0.681  10.972 -0.0630 -0.5234 -0.5977
  394MOL0     H53149   7.181   0.856  10.994 -0.1047 -0.8965 -0.8188
  394MOL0     H53150   6.858   0.671  11.263 -2.1525 -0.1503  0.4299
  394MOL0     H53151   6.576   0.711  11.260 -1.4811 -1.2714  2.3699
  394MOL0     H53152   6.520   0.574  11.168 -1.2192  4.0048 -0.9739
  394MOL0     H53153   6.652   0.555  11.289 -1.8587  0.3201  0.9011
  394MOL0     H53154   6.484   0.550  10.620  0.8096  3.4522  1.3471
  394MOL0     H53155   6.281   0.457  10.531  3.2244  1.7601 -1.4473
  394MOL0     H53156   5.857   0.555  10.729 -1.4752  0.9709  0.2132
  394MOL0     H53157   5.906   0.687  10.614 -0.3509 -0.0665 -1.0484
  394MOL0     H53158   5.852   0.550  10.411 -2.5625  3.4324 -0.6601
  394MOL0     H53159   5.803   0.417  10.523 -0.5178 -0.5934 -1.6889
  394MOL0     H53160   5.702   0.709  10.506  1.0269 -0.2037  0.8477
  394MOL0     H53161   5.609   0.587  10.586 -2.0843 -0.6347 -2.6485
  394MOL0     H53162   5.681   0.576  10.304  1.1921  0.3702  0.4951
  394MOL0     H53163   5.578   0.460  10.381  1.6038 -0.1591 -0.6754
  394MOL0     H53164   5.514   0.761  10.391 -2.3152  1.2395 -1.4568
  394MOL0     H53165   5.399   0.625  10.417 -0.3932 -1.8382 -0.9018
  394MOL0     H53166   5.370   0.746  10.204 -0.2633 -0.0637  0.6592
  394MOL0     H53167   5.529   0.695  10.149 -1.0642 -1.5822 -1.4515
  394MOL0     H53168   5.366   0.476  10.247 -2.3085  0.1986 -1.2617
  394MOL0     H53169   5.453   0.486  10.097 -0.6376 -1.0479  0.0032
  394MOL0     H53170   5.251   0.632  10.013  1.3253  2.7428  2.7767
  394MOL0     H53171   5.174   0.591  10.159 -1.1469  1.1721 -1.4313
  394MOL0     H53172   6.047   0.629  10.846 -0.0546  2.9273  0.5937
  394MOL0     H53173   6.259   0.719  10.949  3.1230 -2.3756  0.7568
  394MOL0     H53174   6.793   0.627  10.774  0.5415 -0.5826  0.5775
  394MOL0     H53175   7.002   0.707  10.850 -0.2463  0.5423 -0.4859
  394MOL0     H53176   9.107   0.970  10.954 -1.5644  0.0273 -0.2044
  394MOL0     H53177   9.314   0.805  10.929  0.0301 -2.6327  0.5195
  394MOL0     H53178   9.490   0.411  10.900  2.4538 -0.7826 -3.2048
  394MOL0     H53179   9.714   0.314  10.880 -0.4979 -0.3500  0.8487
  394MOL0     H53180   9.928   0.205  10.950 -1.8741  0.9640  1.3514
  394MOL0     H53181   9.970   0.362  10.880  3.6642 -0.2240 -0.8924
  394MOL0     H53182  10.153   0.354  11.070  1.8712  0.2065 -0.7329
  394MOL0     H53183  10.188   0.276  10.913 -1.0776 -0.4811 -0.3933
  394MOL0     H53184  10.058   0.127  11.146  1.2267 -0.3628  1.5340
  394MOL0     H53185  10.232   0.148  11.149  0.1599 -1.7800  1.8381
  394MOL0     H53186  10.051  -0.028  10.983 -0.1738 -0.6995 -1.5070
  394MOL0     H53187  10.203  -0.070  11.062  0.4259 -0.9732 -3.4403
  394MOL0     H53188  10.400   0.033  10.726 -1.4504  0.8194 -1.0274
  394MOL0     H53189   9.819   0.472  11.275 -0.8109  1.6310  0.6447
  394MOL0     H53190   9.579   0.548  11.296 -0.2457  0.6321 -0.9704
  395MOL0     O53191  11.280   1.168   2.928  0.3669 -0.1027  0.6036
  395MOL0     C53192  11.317   1.100   2.834  0.1238 -1.3292  0.1460
  395MOL0     O53193  11.237   1.017   2.767 -0.8916 -0.0540  0.0081
  395MOL0     C53194  11.105   1.029   2.796  0.4860 -0.4061 -0.1589
  395MOL0     C53195  11.047   0.982   2.908  0.9073  0.7190 -0.5420
  395MOL0     C53196  10.902   0.983   2.937  0.5696  0.3242 -0.3141
  395MOL0     C53197  10.818   1.030   2.837  0.2628  0.0597  0.0562
  395MOL0     O53198  10.683   1.045   2.869 -0.2461 -0.1885 -0.2163
  395MOL0     C53199  10.598   1.073   2.770  0.3478  0.4718  0.2507
  395MOL0     C53200  10.455   1.070   2.808  1.1480 -1.2814 -0.5146
  395MOL0     C53201  10.365   1.055   2.685 -1.2249  0.4132 -0.2588
  395MOL0     C53202  10.223   1.055   2.724  0.3660  0.2497 -1.5227
  395MOL0     C53203  10.128   1.063   2.597  0.1418 -0.8434 -0.1578
  395MOL0     C53204   9.983   1.001   2.615 -1.1150 -0.6190 -0.1146
  395MOL0     C53205   9.914   0.999   2.477  0.3276 -0.2569  0.0969
  395MOL0     C53206   9.971   0.897   2.383  0.3976  0.3023  0.0580
  395MOL0     N53207   9.888   0.889   2.260 -0.5533 -0.5401 -0.2492
  395MOL0     C53208   9.752   0.877   2.244  0.3815 -0.4070 -0.2282
  395MOL0     C53209   9.730   0.864   2.107 -0.3766 -0.4700  0.1796
  395MOL0     C53210   9.601   0.861   2.039  0.4243  0.5092 -0.1988
  395MOL0     C53211   9.523   0.991   2.056  0.1416 -0.6564  1.1246
  395MOL0     C53212   9.388   0.982   1.981  0.4565  0.4361  0.3951
  395MOL0     C53213   9.335   1.115   1.923 -0.1537  0.4170 -0.3564
  395MOL0     O53214   9.221   1.087   1.846 -0.6545 -0.1153 -0.4625
  395MOL0     C53215   9.096   1.087   1.893 -0.0002 -0.3169  0.0855
  395MOL0     C53216   9.062   1.061   2.032 -0.3886  0.1608 -0.2049
  395MOL0     C53217   8.941   1.099   2.089  0.1471 -0.1975 -0.4834
  395MOL0     C53218   8.925   1.071   2.241  0.2239 -0.2604  0.3496
  395MOL0     C53219   8.840   1.161   2.002  0.4365  0.3517  0.7561
  395MOL0     C53220   8.707   1.203   2.041 -0.3994  0.1309 -1.0110
  395MOL0     O53221   8.660   1.193   2.170  0.3221  0.3214 -1.0202
  395MOL0     C53222   8.547   1.260   2.195 -0.1552 -0.1501  0.4395
  395MOL0     C53223   8.413   1.217   2.183  0.2955 -0.4463  0.0476
  395MOL0     C53224   8.311   1.304   2.211  0.3160  0.2001 -0.4744
  395MOL0     C53225   8.336   1.430   2.266 -0.1597 -0.0070  0.5012
  395MOL0     O53226   8.219   1.498   2.301 -0.1192  0.8825 -0.1532
  395MOL0     C53227   8.224   1.582   2.423  0.0521 -0.0266  0.2899
  395MOL0     C53228   8.160   1.504   2.545  0.4002  0.3572  0.3180
  395MOL0     C53229   8.026   1.451   2.509  0.2550  0.2103 -0.0301
  395MOL0     C53230   7.928   1.566   2.478  0.6167 -0.6001 -0.6630
  395MOL0     C53231   7.786   1.517   2.467 -0.1287 -0.7905  0.2799
  395MOL0     C53232   7.724   1.520   2.606 -0.7422  0.1438  0.5733
  395MOL0     C53233   7.572   1.473   2.600 -0.0214  0.5122  0.0912
  395MOL0     C53234   7.478   1.577   2.546  0.8146  0.1397  0.2202
  395MOL0    Cl53235   7.506   1.741   2.618  0.2790  0.1084 -0.4641
  395MOL0     C53236   8.467   1.478   2.282  0.4896  0.5177  0.0834
  395MOL0     C53237   8.567   1.390   2.244 -0.2832 -0.0631  0.0232
  395MOL0     O53238   8.646   1.261   1.958  0.4762 -0.2266  0.6198
  395MOL0     C53239   8.873   1.160   1.859 -0.1073  0.6163  0.8390
  395MOL0     C53240   9.002   1.141   1.813  0.3143  0.6884  0.3916
  395MOL0     N53241   9.855   0.855   2.047  0.2119 -0.2322  0.2422
  395MOL0     N53242   9.944   0.869   2.137 -0.0972 -0.2474  0.1486
  395MOL0     C53243  10.880   1.067   2.712 -0.2277 -1.1458 -0.1039
  395MOL0     C53244  11.014   1.068   2.697  0.2354  0.7560  0.5648
  395MOL0     C53245  11.462   1.127   2.795 -0.2065  0.3902 -0.0856
  395MOL0     C53246  11.535   1.222   2.857 -0.1624 -0.4394 -0.0692
  395MOL0     C53247  11.666   1.246   2.810  0.6393  0.2581  0.0269
  395MOL0     C53248  11.732   1.165   2.716 -0.5233 -0.6220 -0.6061
  395MOL0     O53249  11.860   1.196   2.690 -0.3103 -0.3966  0.6358
  395MOL0     C53250  11.927   1.133   2.572  0.1413 -0.4432  0.0757
  395MOL0     C53251  12.073   1.173   2.578 -0.0426  0.1955  0.2921
  395MOL0     C53252  12.151   1.095   2.466  0.4748  0.2914 -0.1863
  395MOL0     C53253  12.280   1.157   2.422  0.0428 -0.2900  0.4815
  395MOL0     C53254  12.363   1.173   2.543  0.4730 -0.3572 -0.4051
  395MOL0     C53255  12.426   1.180   2.645  0.3895  0.6056  0.1312
  395MOL0     C53256  11.649   1.079   2.648 -0.3260  0.5988  0.4242
  395MOL0     C53257  11.517   1.051   2.685  0.1457 -0.6295  0.2275
  395MOL0     H53258  11.106   0.928   2.982  1.7432  2.3515  0.0290
  395MOL0     H53259  10.867   0.953   3.035 -0.3519  1.5134 -0.2600
  395MOL0     H53260  10.619   1.177   2.744 -0.3526  0.6489  0.3716
  395MOL0     H53261  10.601   0.999   2.690 -0.5750 -2.1137  2.4798
  395MOL0     H53262  10.443   0.979   2.867 -0.8296 -0.0392  1.1257
  395MOL0     H53263  10.424   1.157   2.867 -0.0615 -2.9457  1.4414
  395MOL0     H53264  10.381   1.138   2.615 -0.0432  0.2438 -0.2202
  395MOL0     H53265  10.390   0.960   2.637  0.7580  0.5612  0.3876
  395MOL0     H53266  10.190   0.968   2.781  5.0627 -0.7770  0.0679
  395MOL0     H53267  10.215   1.144   2.787  0.5961 -1.5618  1.2377
  395MOL0     H53268  10.124   1.166   2.562 -1.9913  0.0339  2.3828
  395MOL0     H53269  10.175   0.991   2.529  0.1791 -2.7935  1.8345
  395MOL0     H53270   9.981   0.904   2.665 -2.0250  0.7456  2.7129
  395MOL0     H53271   9.923   1.059   2.685 -1.1867 -0.4972 -0.2751
  395MOL0     H53272   9.812   0.972   2.505  0.8972 -1.7813  0.8564
  395MOL0     H53273   9.925   1.096   2.429  3.2642 -0.8773 -0.7193
  395MOL0     H53274   9.968   0.799   2.431  0.7732  0.9702  1.5010
  395MOL0     H53275  10.071   0.923   2.348 -0.0194  1.1363 -0.5577
  395MOL0     H53276   9.666   0.876   2.310  1.0856 -0.5314  0.7004
  395MOL0     H53277   9.612   0.846   1.931 -2.1249  2.7728 -0.8751
  395MOL0     H53278   9.546   0.784   2.094  1.4708  1.9352  3.1153
  395MOL0     H53279   9.580   1.072   2.010 -3.1910  1.0121 -0.4026
  395MOL0     H53280   9.513   1.019   2.161  0.9567  0.4413  0.9228
  395MOL0     H53281   9.308   0.933   2.038  0.7997 -1.0370 -0.3279
  395MOL0     H53282   9.403   0.912   1.898  1.5984  2.4034 -1.1618
  395MOL0     H53283   9.406   1.163   1.855  0.5762  1.3052  1.0070
  395MOL0     H53284   9.306   1.182   2.004  0.2524 -1.5342  1.4827
  395MOL0     H53285   9.124   1.019   2.110 -0.9959  0.0203  0.2099
  395MOL0     H53286   8.888   1.167   2.278  2.9094  1.9901 -2.2352
  395MOL0     H53287   8.856   0.986   2.243  0.1596 -0.1913  2.2701
  395MOL0     H53288   9.021   1.056   2.290  0.7601 -3.0644 -1.3201
  395MOL0     H53289   8.387   1.121   2.140 -0.1958 -1.5976  2.7285
  395MOL0     H53290   8.213   1.257   2.204 -0.0273  0.7180  0.5076
  395MOL0     H53291   8.325   1.584   2.467  1.2166  0.9300 -2.2619
  395MOL0     H53292   8.185   1.683   2.405  2.0194  1.2833  2.6852
  395MOL0     H53293   8.225   1.418   2.568 -0.3275  0.0642  1.3843
  395MOL0     H53294   8.151   1.565   2.636 -1.0909 -1.0123  1.1354
  395MOL0     H53295   7.983   1.406   2.599  1.0495  0.1187  0.3159
  395MOL0     H53296   8.024   1.377   2.428  0.9407  0.1011  0.0463
  395MOL0     H53297   7.942   1.650   2.546  4.3399 -0.6146 -1.2030
  395MOL0     H53298   7.964   1.606   2.382 -0.0819  1.6885 -0.0233
  395MOL0     H53299   7.785   1.418   2.422  0.1501 -0.9993  0.7262
  395MOL0     H53300   7.738   1.585   2.396  1.4496 -0.8745 -0.9131
  395MOL0     H53301   7.784   1.460   2.674  1.0684 -0.9691 -1.8269
  395MOL0     H53302   7.738   1.622   2.643  3.9272  0.3044 -0.9702
  395MOL0     H53303   7.551   1.443   2.703 -0.2478  0.8064  0.1325
  395MOL0     H53304   7.576   1.378   2.545  2.2477 -0.3549  1.6513
  395MOL0     H53305   7.378   1.542   2.573  0.0106  0.6731 -1.8784
  395MOL0     H53306   7.484   1.608   2.441 -1.9491  2.3702  0.5934
  395MOL0     H53307   8.487   1.580   2.312  0.3800  1.5271 -2.9570
  395MOL0     H53308   8.669   1.427   2.253 -0.4807  0.6490 -0.5736
  395MOL0     H53309   8.799   1.181   1.782 -0.1017  1.5375  1.0720
  395MOL0     H53310   9.028   1.159   1.709 -0.2696 -2.7688 -0.4863
  395MOL0     H53311  10.817   1.096   2.628 -0.3885 -3.2906 -0.7789
  395MOL0     H53312  11.053   1.076   2.595  1.5322 -4.3714  0.4128
  395MOL0     H53313  11.492   1.288   2.931 -1.2068  0.3008 -1.2798
  395MOL0     H53314  11.721   1.329   2.853  0.3586  0.6323 -0.3308
  395MOL0     H53315  11.925   1.024   2.559  1.3271 -0.3253 -1.3936
  395MOL0     H53316  11.884   1.188   2.488 -2.2557  0.6307  1.8848
  395MOL0     H53317  12.105   1.160   2.681 -1.2495 -2.3499  0.4294
  395MOL0     H53318  12.099   1.277   2.557  1.5264 -0.5465 -1.7655
  395MOL0     H53319  12.085   1.085   2.379  0.2218 -0.6927  0.1134
  395MOL0     H53320  12.177   0.997   2.506 -0.7851  0.5059  1.2611
  395MOL0     H53321  12.271   1.259   2.382  1.7598 -0.2344  0.1411
  395MOL0     H53322  12.321   1.098   2.340 -2.0454 -1.4179  0.1977
  395MOL0     H53323  12.480   1.164   2.737  1.3768 -2.0631 -0.8180
  395MOL0     H53324  11.683   1.026   2.560 -2.1369 -0.7729  0.4899
  395MOL0     H53325  11.444   0.984   2.642 -0.8245  0.4570  0.1274
  396MOL0     O53326   2.284   1.730   1.379 -0.0911 -0.7157 -0.3272
  396MOL0     C53327   2.371   1.691   1.304  0.1631  0.3375 -0.5331
  396MOL0     O53328   2.347   1.637   1.180  0.8658  1.1920 -0.2871
  396MOL0     C53329   2.233   1.666   1.114  0.2000 -0.2809 -0.1435
  396MOL0     C53330   2.162   1.556   1.052  0.5426 -0.1239 -0.5381
  396MOL0     C53331   2.040   1.579   0.992  0.2878  0.4437 -0.5425
  396MOL0     C53332   1.988   1.708   0.988  0.3566  0.8613  0.6552
  396MOL0     O53333   1.858   1.717   0.946  0.5871  0.1484 -0.6881
  396MOL0     C53334   1.829   1.797   0.826  0.4705 -0.7792 -0.4397
  396MOL0     C53335   1.707   1.742   0.753  0.3251  0.6906  0.0697
  396MOL0     C53336   1.587   1.741   0.850  0.0655 -0.0225 -0.8290
  396MOL0     C53337   1.460   1.692   0.786  0.3827  0.3258 -0.3039
  396MOL0     C53338   1.355   1.644   0.891  0.0047 -0.9634  0.4417
  396MOL0     C53339   1.232   1.576   0.822  0.2666  0.9494 -0.1491
  396MOL0     C53340   1.116   1.531   0.912  0.4020  0.0447  0.8732
  396MOL0     C53341   1.048   1.409   0.840 -1.2322  1.0258 -0.2182
  396MOL0     N53342   0.987   1.422   0.706  0.0401  0.0466 -0.2004
  396MOL0     C53343   0.903   1.530   0.688  0.6516 -0.3012  0.3591
  396MOL0     C53344   0.867   1.519   0.560  1.3818 -0.0499 -0.9814
  396MOL0     C53345   0.774   1.611   0.484  0.1606 -0.0977  0.7546
  396MOL0     C53346   0.628   1.556   0.467  0.4773  0.6428 -0.7718
  396MOL0     C53347   0.529   1.661   0.421  0.1260 -0.3614  0.4856
  396MOL0     C53348   0.379   1.604   0.421 -0.0037  0.1202  0.5188
  396MOL0     O53349   0.379   1.492   0.331 -0.7087 -0.0848  0.0294
  396MOL0     C53350   0.265   1.462   0.271 -0.5095 -0.2417 -0.7350
  396MOL0     C53351   0.273   1.338   0.204 -0.7012 -0.6292 -0.0708
  396MOL0     C53352   0.157   1.274   0.155  0.5178 -0.0056  1.0764
  396MOL0     C53353   0.169   1.131   0.111  0.6945  0.4743 -0.3860
  396MOL0     C53354   0.029   1.338   0.165 -0.0386  0.5908 -0.5970
  396MOL0     C53355  -0.109   1.274   0.134 -0.3919  0.0305  0.3757
  396MOL0     O53356  -0.111   1.148   0.081 -0.4872 -0.1471  0.0451
  396MOL0     C53357  -0.232   1.113   0.040 -0.2224  0.0850  0.6159
  396MOL0     C53358  -0.272   1.110  -0.095 -0.6285 -0.1859 -0.0957
  396MOL0     C53359  -0.392   1.067  -0.127 -0.4079  0.4459  0.5316
  396MOL0     C53360  -0.481   1.016  -0.030 -0.3665  0.4232  0.9150
  396MOL0     O53361  -0.602   0.969  -0.077 -0.1946  0.0426 -0.1329
  396MOL0     C53362  -0.711   0.962   0.020  1.3853 -0.6992 -0.1403
  396MOL0     C53363  -0.845   0.963  -0.058  0.5838  0.0178  1.0235
  396MOL0     C53364  -0.860   1.086  -0.154  0.2697 -0.2097  0.5586
  396MOL0     C53365  -1.009   1.112  -0.214  0.1996  0.8362 -0.8055
  396MOL0     C53366  -1.112   1.168  -0.122 -0.3778  0.3903 -0.4631
  396MOL0     C53367  -1.235   1.212  -0.207 -0.1715 -0.0782 -0.4292
  396MOL0     C53368  -1.361   1.257  -0.121 -0.0071 -0.0478 -0.5865
  396MOL0     C53369  -1.494   1.245  -0.195 -0.0985  0.3649 -0.8923
  396MOL0    Cl53370  -1.516   1.347  -0.339  0.0418  0.0051  0.5083
  396MOL0     C53371  -0.451   1.028   0.106  0.2805 -1.0691  0.9942
  396MOL0     C53372  -0.320   1.060   0.140  0.7167 -0.3253 -0.8198
  396MOL0     O53373  -0.205   1.341   0.160  0.5292 -0.7421  0.6609
  396MOL0     C53374   0.033   1.467   0.213  0.4753 -0.0493 -0.2896
  396MOL0     C53375   0.144   1.531   0.275  0.6651 -0.5014  0.2167
  396MOL0     N53376   0.936   1.417   0.498 -0.3640 -0.5495 -0.7228
  396MOL0     N53377   1.011   1.361   0.590 -0.0703  0.0289  0.4872
  396MOL0     C53378   2.055   1.816   1.038 -0.2102 -0.0272 -0.7287
  396MOL0     C53379   2.183   1.799   1.105  0.3285  0.1399 -0.2399
  396MOL0     C53380   2.510   1.699   1.346 -0.2061 -0.0453  0.7302
  396MOL0     C53381   2.549   1.734   1.472  1.7146  0.1242  0.4083
  396MOL0     C53382   2.683   1.755   1.507  0.5781 -0.4197  0.2288
  396MOL0     C53383   2.783   1.756   1.416  0.0970  1.1450  0.3622
  396MOL0     O53384   2.918   1.777   1.435  0.1543  0.0289  0.0961
  396MOL0     C53385   2.965   1.787   1.574 -0.4636 -0.0507 -0.4267
  396MOL0     C53386   3.003   1.931   1.592 -0.6477  0.5131  0.5187
  396MOL0     C53387   3.089   1.943   1.721 -0.4818 -0.2235  0.3222
  396MOL0     C53388   3.095   2.080   1.795 -0.3092 -0.3300  0.2752
  396MOL0     C53389   2.982   2.167   1.778 -0.0543 -0.3317  0.3952
  396MOL0     C53390   2.884   2.242   1.763 -0.2428  1.1470  0.3513
  396MOL0     C53391   2.742   1.730   1.287  1.6550 -0.1586 -0.2773
  396MOL0     C53392   2.608   1.698   1.249  0.8230  0.0534 -0.3144
  396MOL0     H53393   2.202   1.455   1.050  0.8487 -0.0425 -3.5069
  396MOL0     H53394   1.986   1.495   0.948 -0.0880  0.7823 -0.7365
  396MOL0     H53395   1.798   1.896   0.860 -0.7187 -2.0107  2.3632
  396MOL0     H53396   1.915   1.801   0.759 -0.2672 -0.0836 -1.3782
  396MOL0     H53397   1.677   1.807   0.670  2.2228  0.6809 -0.6625
  396MOL0     H53398   1.715   1.640   0.715  0.4710  1.1808 -1.2537
  396MOL0     H53399   1.608   1.667   0.927  0.7395  0.7239 -0.2750
  396MOL0     H53400   1.565   1.839   0.894 -0.9015  0.2292 -1.8335
  396MOL0     H53401   1.410   1.760   0.717 -1.6720 -0.5995  0.1850
  396MOL0     H53402   1.490   1.609   0.721  0.6291 -0.2948  0.5758
  396MOL0     H53403   1.408   1.578   0.960  1.5508  0.0544  0.2844
  396MOL0     H53404   1.321   1.725   0.956 -1.5015 -1.4041  0.2389
  396MOL0     H53405   1.196   1.642   0.742  1.6938 -0.1561 -1.7615
  396MOL0     H53406   1.270   1.486   0.774 -0.7915  0.0626  0.6343
  396MOL0     H53407   1.156   1.485   1.003  3.3276 -1.5946 -1.0979
  396MOL0     H53408   1.038   1.605   0.934 -0.7989 -0.5478 -1.1654
  396MOL0     H53409   0.974   1.373   0.912  1.0118 -0.6341  1.3891
  396MOL0     H53410   1.118   1.325   0.841 -0.9780  1.2358  0.2553
  396MOL0     H53411   0.867   1.600   0.762 -1.8206  1.2932 -2.1667
  396MOL0     H53412   0.770   1.703   0.542 -0.5222 -0.2697  0.9937
  396MOL0     H53413   0.824   1.625   0.387  0.0976 -3.2099  0.1586
  396MOL0     H53414   0.587   1.525   0.564  1.9816 -1.8649 -0.8734
  396MOL0     H53415   0.633   1.473   0.396  2.8990 -0.4783  0.5990
  396MOL0     H53416   0.566   1.693   0.323  0.9144 -0.2891  0.8015
  396MOL0     H53417   0.523   1.752   0.481  0.6194  0.1380 -0.2072
  396MOL0     H53418   0.309   1.683   0.390 -0.5186 -0.4616  0.1716
  396MOL0     H53419   0.345   1.576   0.521  0.0057 -0.7260  0.2909
  396MOL0     H53420   0.365   1.281   0.202  0.2148  0.8002 -0.5079
  396MOL0     H53421   0.117   1.067   0.182  0.6973  1.7645  0.8460
  396MOL0     H53422   0.125   1.115   0.012  0.2134 -0.8390  0.0216
  396MOL0     H53423   0.275   1.105   0.111  0.5182 -0.3024 -1.2577
  396MOL0     H53424  -0.202   1.149  -0.168 -0.1839 -0.7890  0.0067
  396MOL0     H53425  -0.412   1.070  -0.233  2.0329  2.3713  0.0373
  396MOL0     H53426  -0.716   0.869   0.078  0.2583  0.5525  1.8561
  396MOL0     H53427  -0.711   1.047   0.089  2.1227 -1.2038  0.5073
  396MOL0     H53428  -0.852   0.867  -0.110  1.2903 -0.3167  1.5389
  396MOL0     H53429  -0.925   0.975   0.015 -0.4455  2.2284 -0.3431
  396MOL0     H53430  -0.803   1.061  -0.244  0.8058  0.3913  0.7207
  396MOL0     H53431  -0.817   1.183  -0.125  1.3504  1.0335 -4.2230
  396MOL0     H53432  -0.998   1.185  -0.294  3.7567 -0.7189 -1.9210
  396MOL0     H53433  -1.037   1.013  -0.251  1.0269  0.6276 -0.8808
  396MOL0     H53434  -1.068   1.255  -0.071 -1.5804 -0.3721  2.0553
  396MOL0     H53435  -1.143   1.105  -0.038 -1.4515  2.6481  0.9536
  396MOL0     H53436  -1.202   1.295  -0.269  1.5796  0.6976  1.4292
  396MOL0     H53437  -1.263   1.121  -0.260  0.3729  0.5519 -1.8365
  396MOL0     H53438  -1.348   1.359  -0.085  0.1398  0.0761 -0.9910
  396MOL0     H53439  -1.367   1.194  -0.031  1.3078  1.7661  0.8582
  396MOL0     H53440  -1.574   1.266  -0.123 -0.6429  2.4984 -2.0129
  396MOL0     H53441  -1.503   1.140  -0.223  3.1260 -1.4041  3.5463
  396MOL0     H53442  -0.519   1.001   0.187 -3.2108 -0.2965 -1.4380
  396MOL0     H53443  -0.288   1.046   0.243  0.7205 -0.7718 -0.8819
  396MOL0     H53444  -0.060   1.523   0.209  1.1270  0.9934 -1.3631
  396MOL0     H53445   0.123   1.621   0.333  1.8719  0.2043 -0.3965
  396MOL0     H53446   2.010   1.915   1.033  1.5193  0.8425 -0.0453
  396MOL0     H53447   2.220   1.888   1.156 -1.9479  0.6101  0.7128
  396MOL0     H53448   2.478   1.750   1.553 -3.2082 -4.6622 -2.2520
  396MOL0     H53449   2.709   1.778   1.610 -0.5979 -0.4877  0.5571
  396MOL0     H53450   2.896   1.768   1.656 -0.4906 -0.1595 -0.4749
  396MOL0     H53451   3.047   1.715   1.588  0.6590  1.5309  1.7203
  396MOL0     H53452   2.905   1.979   1.602 -0.7169  0.5319 -0.2115
  396MOL0     H53453   3.053   1.974   1.505  1.4177  0.3921  1.5752
  396MOL0     H53454   3.192   1.914   1.695  0.1395  0.9038  1.3863
  396MOL0     H53455   3.058   1.863   1.789  2.2739 -2.3998 -0.7371
  396MOL0     H53456   3.182   2.132   1.754 -0.1600 -0.9496 -0.2145
  396MOL0     H53457   3.117   2.063   1.901  1.6817  0.6494  0.0543
  396MOL0     H53458   2.806   2.305   1.727 -0.9540 -0.6138 -1.3668
  396MOL0     H53459   2.811   1.742   1.203 -0.2601  2.3235 -1.6537
  396MOL0     H53460   2.577   1.707   1.146  1.9536 -1.1100 -0.7819
  397MOL0     O53461   1.613   7.901  10.185  0.5595  1.4793  0.7853
  397MOL0     C53462   1.685   7.979  10.132 -0.4895  0.2353 -0.5139
  397MOL0     O53463   1.648   8.085  10.057  0.6612  0.5111 -0.2660
  397MOL0     C53464   1.516   8.093  10.007  0.6361 -0.2705 -0.0075
  397MOL0     C53465   1.429   7.989   9.976  0.5956 -0.0770  0.1282
  397MOL0     C53466   1.297   8.008   9.929  0.5535  0.4967 -0.0756
  397MOL0     C53467   1.251   8.135   9.909  0.2127  0.1262 -0.3070
  397MOL0     O53468   1.123   8.168   9.878  0.2395  0.5463 -0.1615
  397MOL0     C53469   1.029   8.065   9.841  0.4271 -0.2777  0.3878
  397MOL0     C53470   0.896   8.130   9.819  0.5136  0.0273  0.6411
  397MOL0     C53471   0.879   8.223   9.693 -0.0774  0.0757  0.0697
  397MOL0     C53472   0.870   8.142   9.566  0.1059 -0.2516  0.4941
  397MOL0     C53473   0.817   8.225   9.449  0.7667  0.3160  0.3520
  397MOL0     C53474   0.672   8.252   9.461  0.3656  0.0921  1.5223
  397MOL0     C53475   0.606   8.302   9.327  0.3669  0.2868 -0.0723
  397MOL0     C53476   0.466   8.366   9.352  0.1830  0.1953  0.4824
  397MOL0     N53477   0.430   8.485   9.261 -0.2710 -0.2875  0.1325
  397MOL0     C53478   0.379   8.614   9.289 -0.4425 -0.7264  0.5454
  397MOL0     C53479   0.383   8.679   9.173  1.1031 -0.1729  0.6911
  397MOL0     C53480   0.339   8.815   9.156 -0.0344 -0.7366 -0.4804
  397MOL0     C53481   0.187   8.824   9.162  0.5306  0.1791  0.8180
  397MOL0     C53482   0.123   8.755   9.035 -0.7160 -0.6031 -0.5641
  397MOL0     C53483  -0.023   8.716   9.054 -0.6856  0.2227  0.3895
  397MOL0     O53484  -0.065   8.672   8.926  0.5321 -0.1433  0.3306
  397MOL0     C53485  -0.180   8.596   8.939 -0.8043  0.9433 -0.3996
  397MOL0     C53486  -0.201   8.509   8.830  0.7335  0.2489  0.2903
  397MOL0     C53487  -0.318   8.429   8.820  0.3228 -0.3004  0.3468
  397MOL0     C53488  -0.326   8.350   8.696  0.3239  0.5022 -0.3449
  397MOL0     C53489  -0.416   8.432   8.923  0.3518  0.0493 -0.4738
  397MOL0     C53490  -0.545   8.365   8.913 -0.9007 -0.5059 -0.6361
  397MOL0     O53491  -0.613   8.350   9.030  0.7710 -0.3611  0.2113
  397MOL0     C53492  -0.738   8.299   9.015  1.0441 -0.5249 -0.5744
  397MOL0     C53493  -0.767   8.183   9.088  0.2776 -0.3949  1.0338
  397MOL0     C53494  -0.898   8.120   9.079  0.0171 -0.6666 -0.0751
  397MOL0     C53495  -0.998   8.184   9.007 -0.1330  0.2479  0.3861
  397MOL0     O53496  -1.122   8.123   8.995 -0.4786 -0.0228  0.8184
  397MOL0     C53497  -1.152   8.034   9.100  0.1440  0.1395  0.9452
  397MOL0     C53498  -1.301   7.996   9.071 -0.5235 -0.5200 -0.7418
  397MOL0     C53499  -1.394   8.109   9.130 -0.4030  0.3962  0.3426
  397MOL0     C53500  -1.526   8.077   9.073  0.8651  0.4902  0.0671
  397MOL0     C53501  -1.635   8.170   9.130 -0.5600  0.4168  0.4395
  397MOL0     C53502  -1.775   8.124   9.081  0.6017  0.7749 -0.6236
  397MOL0     C53503  -1.836   8.001   9.152 -0.6709 -0.1263  0.0590
  397MOL0     C53504  -1.851   8.022   9.302 -0.5364  0.4125  0.7217
  397MOL0    Cl53505  -1.962   8.161   9.347 -0.6237  0.3010  0.0236
  397MOL0     C53506  -0.967   8.302   8.937 -0.1736  0.2226  0.2224
  397MOL0     C53507  -0.841   8.363   8.935 -0.1045  0.0732 -0.8660
  397MOL0     O53508  -0.582   8.331   8.802  0.0567  0.1597 -0.5499
  397MOL0     C53509  -0.396   8.517   9.035 -0.3752 -0.8058 -0.1531
  397MOL0     C53510  -0.284   8.604   9.038  0.4901  0.1396 -0.0663
  397MOL0     N53511   0.445   8.602   9.079  0.0856  0.8425 -0.4985
  397MOL0     N53512   0.474   8.492   9.136 -0.5285 -0.6664 -0.6218
  397MOL0     C53513   1.338   8.240   9.932 -0.1690 -0.6068 -0.5349
  397MOL0     C53514   1.470   8.219   9.985 -0.3822 -0.8367 -0.2949
  397MOL0     C53515   1.829   7.958  10.134 -0.2942  0.1158  0.3347
  397MOL0     C53516   1.913   8.064  10.097 -0.7149 -0.6671  0.4853
  397MOL0     C53517   2.049   8.062  10.124 -0.1033 -0.3127 -0.3045
  397MOL0     C53518   2.102   7.953  10.189  0.3643 -0.3391 -0.3862
  397MOL0     O53519   2.231   7.962  10.232 -0.1634 -0.5344 -0.2383
  397MOL0     C53520   2.261   7.893  10.355 -0.5398 -1.1231  0.5826
  397MOL0     C53521   2.417   7.890  10.368  0.5112  0.5750  0.9641
  397MOL0     C53522   2.466   7.824  10.497 -0.9219 -0.4379  0.1144
  397MOL0     C53523   2.614   7.812  10.488 -0.0237  0.0534 -0.0955
  397MOL0     C53524   2.659   7.731  10.597 -0.5239 -0.8302  0.0756
  397MOL0     C53525   2.712   7.670  10.686 -0.5195 -0.6069  0.3775
  397MOL0     C53526   2.018   7.841  10.212 -0.3157  0.4285 -0.1449
  397MOL0     C53527   1.886   7.840  10.192  0.0926 -1.2764  0.2883
  397MOL0     H53528   1.458   7.888  10.004  1.7098  1.0259  3.3935
  397MOL0     H53529   1.232   7.922   9.920  2.8383 -1.2699 -0.6660
  397MOL0     H53530   1.063   8.008   9.753  0.4961  1.7150 -0.9451
  397MOL0     H53531   1.019   7.994   9.924  0.1910  0.1058  0.6852
  397MOL0     H53532   0.825   8.046   9.820  0.3964  0.1252  1.5108
  397MOL0     H53533   0.869   8.173   9.916 -0.5649 -0.3330  0.5132
  397MOL0     H53534   0.787   8.282   9.701 -0.4131 -0.6223  1.8709
  397MOL0     H53535   0.964   8.291   9.679 -1.8338  2.1701 -1.0024
  397MOL0     H53536   0.963   8.096   9.531 -0.1912  0.1376 -0.9086
  397MOL0     H53537   0.803   8.058   9.587  1.4459 -1.3467  0.5140
  397MOL0     H53538   0.880   8.315   9.453  0.3760  0.5615  3.0215
  397MOL0     H53539   0.828   8.157   9.365 -0.0852 -2.2156  2.1649
  397MOL0     H53540   0.630   8.154   9.487  0.2704 -0.3644 -0.2439
  397MOL0     H53541   0.648   8.320   9.543 -0.0151  0.6204  0.9808
  397MOL0     H53542   0.665   8.381   9.278 -3.0553  1.2688 -3.0727
  397MOL0     H53543   0.587   8.219   9.259 -1.7204  1.1702 -0.6307
  397MOL0     H53544   0.461   8.396   9.457  1.1523 -0.3675  0.6991
  397MOL0     H53545   0.388   8.289   9.343  0.5643 -0.0156 -1.6799
  397MOL0     H53546   0.338   8.637   9.387  0.0362  2.0204  0.1759
  397MOL0     H53547   0.373   8.876   9.240 -1.9216  1.3139 -1.1349
  397MOL0     H53548   0.382   8.864   9.068 -0.6684  2.8171  1.0231
  397MOL0     H53549   0.159   8.930   9.159 -0.6900 -0.0416  2.5339
  397MOL0     H53550   0.147   8.785   9.256 -0.5627 -2.4750 -0.6299
  397MOL0     H53551   0.182   8.668   9.005 -3.1613 -1.6813 -2.5737
  397MOL0     H53552   0.137   8.829   8.957  2.5420 -1.0160 -0.5242
  397MOL0     H53553  -0.084   8.803   9.080  1.5609  2.0751 -0.1967
  397MOL0     H53554  -0.029   8.637   9.130  1.7493 -0.7151 -0.2995
  397MOL0     H53555  -0.131   8.506   8.747  0.5458  0.9243  0.1017
  397MOL0     H53556  -0.389   8.395   8.619  0.1522  0.3713 -0.2818
  397MOL0     H53557  -0.227   8.345   8.650 -0.3153  0.1123 -1.7424
  397MOL0     H53558  -0.352   8.246   8.720 -0.6792  1.2803  2.2649
  397MOL0     H53559  -0.686   8.146   9.150  1.4006  2.6563  1.5890
  397MOL0     H53560  -0.914   8.025   9.128 -1.4093  1.1860  3.3617
  397MOL0     H53561  -1.101   7.938   9.102 -2.3006 -1.3857 -1.7989
  397MOL0     H53562  -1.144   8.084   9.197 -0.0549 -1.8231  2.0065
  397MOL0     H53563  -1.319   7.973   8.965 -0.3252  1.1059 -1.1496
  397MOL0     H53564  -1.324   7.898   9.114 -0.5407 -1.0619 -1.9334
  397MOL0     H53565  -1.351   8.206   9.101 -0.8196  1.4185  2.8821
  397MOL0     H53566  -1.404   8.099   9.239 -0.8354 -1.8727  0.1381
  397MOL0     H53567  -1.519   8.086   8.964 -3.8342  2.7360 -0.2720
  397MOL0     H53568  -1.551   7.970   9.080 -0.8328  0.7979 -0.8726
  397MOL0     H53569  -1.609   8.269   9.093  0.4679  1.0279  2.5933
  397MOL0     H53570  -1.634   8.177   9.240 -0.1595 -0.3767  0.4971
  397MOL0     H53571  -1.848   8.205   9.076 -0.4972 -0.2059 -0.9812
  397MOL0     H53572  -1.757   8.080   8.983 -0.0276 -2.6967  0.6648
  397MOL0     H53573  -1.771   7.915   9.134  2.1154  1.7413  0.4550
  397MOL0     H53574  -1.935   7.984   9.107  0.3016 -1.1679 -1.8238
  397MOL0     H53575  -1.748   8.022   9.338 -0.1063 -0.2188 -0.4681
  397MOL0     H53576  -1.898   7.927   9.328  0.3168 -1.3489 -3.3765
  397MOL0     H53577  -1.045   8.353   8.882  2.8397  2.5132 -2.2778
  397MOL0     H53578  -0.835   8.461   8.889 -2.3589  0.3088 -0.7476
  397MOL0     H53579  -0.468   8.520   9.116  0.6994  2.1832  0.8319
  397MOL0     H53580  -0.270   8.668   9.125  2.7369 -1.4987  0.8603
  397MOL0     H53581   1.300   8.341   9.929  1.1182 -0.1042 -0.4612
  397MOL0     H53582   1.532   8.305  10.010 -0.2913 -0.2970 -2.2339
  397MOL0     H53583   1.872   8.156  10.056 -0.1362 -0.0756  1.1968
  397MOL0     H53584   2.098   8.153  10.092 -2.1819  0.9321 -0.1734
  397MOL0     H53585   2.215   7.945  10.439 -0.6854 -1.0608  0.4635
  397MOL0     H53586   2.225   7.790  10.365  1.8712 -1.8484  3.1013
  397MOL0     H53587   2.456   7.991  10.383  4.4658 -0.7572  0.9253
  397MOL0     H53588   2.455   7.842  10.277  0.5481  0.6638  0.9324
  397MOL0     H53589   2.420   7.726  10.513  0.7223 -1.1811  0.5102
  397MOL0     H53590   2.445   7.892  10.580 -2.3630 -2.1123  1.1902
  397MOL0     H53591   2.649   7.914  10.507 -1.7745  0.3571  1.9420
  397MOL0     H53592   2.640   7.770  10.391 -0.2914  2.1152 -1.1173
  397MOL0     H53593   2.769   7.632  10.768  1.6236 -1.1219 -1.2683
  397MOL0     H53594   2.048   7.751  10.265  0.0490 -0.1908 -1.3725
  397MOL0     H53595   1.813   7.764  10.219 -2.1132  0.4020 -0.5405
  398MOL0     O53596   3.765   7.905   5.413  0.7229  0.3951 -0.0538
  398MOL0     C53597   3.866   7.977   5.409  0.2808  0.0560 -0.1107
  398MOL0     O53598   3.874   8.111   5.399 -0.1952 -0.5750 -0.1066
  398MOL0     C53599   3.758   8.182   5.384 -0.4475 -0.4747 -0.8834
  398MOL0     C53600   3.760   8.292   5.294 -0.3622 -0.6945 -0.4548
  398MOL0     C53601   3.652   8.383   5.283  0.7385  0.0574 -0.6664
  398MOL0     C53602   3.533   8.359   5.355  0.2295 -0.3660 -0.2096
  398MOL0     O53603   3.433   8.445   5.349 -0.1360 -0.4893 -0.1045
  398MOL0     C53604   3.302   8.397   5.380  0.5272  0.1377  0.3226
  398MOL0     C53605   3.198   8.500   5.326  0.4687  0.1768  0.4016
  398MOL0     C53606   3.058   8.501   5.391  0.4735  0.2964 -0.7751
  398MOL0     C53607   2.952   8.595   5.327  0.0018  0.0915 -0.3651
  398MOL0     C53608   2.844   8.517   5.259 -0.1727 -0.3182  0.1870
  398MOL0     C53609   2.737   8.620   5.203 -0.6586  0.0454 -0.6913
  398MOL0     C53610   2.616   8.560   5.141  0.0579  0.2506 -0.0027
  398MOL0     C53611   2.513   8.507   5.244  0.1353  0.3577 -0.7616
  398MOL0     N53612   2.446   8.613   5.314  0.5919 -0.3307 -0.3095
  398MOL0     C53613   2.339   8.701   5.278 -1.1914 -0.5535  0.0144
  398MOL0     C53614   2.307   8.770   5.395  0.1184 -0.5078 -0.5481
  398MOL0     C53615   2.208   8.873   5.436 -1.1806 -0.0358  0.8755
  398MOL0     C53616   2.172   8.870   5.584  0.6747  0.1148  0.6309
  398MOL0     C53617   2.072   8.766   5.620  0.7520  0.8346  0.7659
  398MOL0     C53618   1.938   8.765   5.538  0.6042 -0.9263 -1.0332
  398MOL0     O53619   1.849   8.678   5.608 -0.7633  0.4992  0.4266
  398MOL0     C53620   1.733   8.641   5.544 -0.8454 -0.8697  0.0786
  398MOL0     C53621   1.687   8.709   5.435  1.2298  0.6643 -0.2901
  398MOL0     C53622   1.570   8.655   5.368  0.5785 -0.0711 -0.2517
  398MOL0     C53623   1.513   8.743   5.259  0.0530 -0.4108  1.0912
  398MOL0     C53624   1.501   8.537   5.418  0.2298 -0.8357 -0.4054
  398MOL0     C53625   1.379   8.467   5.372 -0.5505 -0.5422  0.8671
  398MOL0     O53626   1.348   8.353   5.433 -0.2269  0.5517 -0.2163
  398MOL0     C53627   1.240   8.277   5.385  0.1000  0.1215 -0.5359
  398MOL0     C53628   1.121   8.250   5.458  0.3077 -0.7889 -0.3337
  398MOL0     C53629   1.020   8.168   5.407 -0.5200 -0.4710  0.5831
  398MOL0     C53630   1.033   8.123   5.270 -0.2841  0.3803  0.0812
  398MOL0     O53631   0.939   8.041   5.218 -0.0308  0.0439  0.4459
  398MOL0     C53632   0.905   8.040   5.074  0.3190  0.0700 -1.0045
  398MOL0     C53633   0.784   7.933   5.045 -0.6748  0.5616  0.1201
  398MOL0     C53634   0.650   7.974   5.103 -0.2951 -0.2632  0.9169
  398MOL0     C53635   0.528   7.920   5.017  0.5398 -0.2209 -0.8591
  398MOL0     C53636   0.407   7.965   5.084  0.0398 -0.3248 -0.3376
  398MOL0     C53637   0.304   7.853   5.057 -0.7326  0.2347 -0.7157
  398MOL0     C53638   0.164   7.884   5.106 -0.2720 -1.4592  0.0838
  398MOL0     C53639   0.079   7.760   5.105  0.0611 -0.3392  0.2930
  398MOL0    Cl53640  -0.091   7.800   5.149 -0.1644 -0.3705 -0.0587
  398MOL0     C53641   1.152   8.152   5.198  0.3112  0.5137  0.4487
  398MOL0     C53642   1.254   8.222   5.258 -0.2571  0.1149  0.8574
  398MOL0     O53643   1.320   8.515   5.268 -0.3186 -0.4583  0.0019
  398MOL0     C53644   1.563   8.480   5.532 -0.3913  0.3456 -0.3414
  398MOL0     C53645   1.678   8.524   5.590 -1.2506 -0.0382  0.5573
  398MOL0     N53646   2.396   8.717   5.494  0.1553  0.0997 -0.0630
  398MOL0     N53647   2.480   8.631   5.442  0.2366 -0.1163 -0.2488
  398MOL0     C53648   3.537   8.251   5.449 -0.1241  0.0564  0.4412
  398MOL0     C53649   3.646   8.170   5.454  0.6814  1.0314 -1.0252
  398MOL0     C53650   3.994   7.901   5.402 -0.3152  0.2025 -0.0826
  398MOL0     C53651   4.110   7.971   5.350  0.7802  0.1007  0.3756
  398MOL0     C53652   4.239   7.922   5.352  0.3563 -0.0653 -0.0734
  398MOL0     C53653   4.254   7.792   5.404  1.3253 -0.0098 -0.6769
  398MOL0     O53654   4.367   7.718   5.405 -0.1411 -0.3976 -0.9390
  398MOL0     C53655   4.481   7.803   5.432  0.5584  0.1444 -0.9404
  398MOL0     C53656   4.589   7.718   5.490 -0.3196 -0.3092  0.2122
  398MOL0     C53657   4.716   7.807   5.515  1.4710 -0.1686 -0.1544
  398MOL0     C53658   4.810   7.802   5.391  0.3682 -0.8778 -0.3776
  398MOL0     C53659   4.766   7.903   5.294 -0.2610 -0.5930 -0.1063
  398MOL0     C53660   4.757   7.995   5.215  0.2705 -0.2081 -0.1476
  398MOL0     C53661   4.142   7.717   5.444 -0.1332 -0.9061  0.3798
  398MOL0     C53662   4.017   7.771   5.453 -0.1828  0.4457  0.0771
  398MOL0     H53663   3.849   8.331   5.245 -1.5693  2.0412 -0.6150
  398MOL0     H53664   3.662   8.471   5.220  1.2187  2.1086  2.0710
  398MOL0     H53665   3.278   8.307   5.322 -1.0828 -1.1153  2.7537
  398MOL0     H53666   3.283   8.371   5.485  0.1858 -1.3547 -0.0803
  398MOL0     H53667   3.235   8.602   5.341  0.1112 -0.0506  3.3586
  398MOL0     H53668   3.192   8.482   5.218 -2.5955  0.3578  0.4317
  398MOL0     H53669   3.029   8.395   5.392  0.9995  0.1076 -2.4984
  398MOL0     H53670   3.055   8.524   5.498 -1.1383 -1.4771 -0.3649
  398MOL0     H53671   2.902   8.658   5.401 -0.7743  1.4149 -1.9289
  398MOL0     H53672   3.005   8.665   5.261  3.0168 -1.3319  0.3609
  398MOL0     H53673   2.882   8.465   5.170  0.5752  0.4802  0.0203
  398MOL0     H53674   2.810   8.432   5.319 -0.6566 -1.6187 -1.8256
  398MOL0     H53675   2.707   8.687   5.284  0.5286 -3.5561  3.1173
  398MOL0     H53676   2.791   8.676   5.126 -0.0356  0.0884 -0.2310
  398MOL0     H53677   2.568   8.636   5.079 -0.9643 -0.0673  0.3807
  398MOL0     H53678   2.649   8.481   5.073  2.5509  2.1120 -1.1123
  398MOL0     H53679   2.551   8.444   5.325 -0.2131  2.4933  1.1572
  398MOL0     H53680   2.449   8.448   5.178  1.7411 -0.0569 -2.0358
  398MOL0     H53681   2.297   8.702   5.178 -0.5370 -1.3995 -0.2906
  398MOL0     H53682   2.264   8.963   5.411  0.7118 -1.4160 -0.1866
  398MOL0     H53683   2.122   8.867   5.369 -0.4718  0.1319 -0.0713
  398MOL0     H53684   2.117   8.959   5.615 -0.1801 -0.2693  0.2449
  398MOL0     H53685   2.261   8.868   5.648  0.4328 -2.4862  0.9990
  398MOL0     H53686   2.049   8.762   5.727 -0.9093 -0.6266  0.3979
  398MOL0     H53687   2.120   8.669   5.609 -0.6342  0.2621 -0.7124
  398MOL0     H53688   1.961   8.740   5.434  3.2794  0.7073 -0.9261
  398MOL0     H53689   1.903   8.868   5.546 -0.9605 -1.5114  0.3655
  398MOL0     H53690   1.736   8.803   5.414  1.8969  0.6681  1.1903
  398MOL0     H53691   1.528   8.696   5.161  0.4555  1.2949  0.2962
  398MOL0     H53692   1.405   8.743   5.276  0.0546  0.1310  1.0876
  398MOL0     H53693   1.552   8.845   5.254 -3.2682  0.9644  1.2940
  398MOL0     H53694   1.114   8.290   5.559  3.2875  0.7509 -0.6149
  398MOL0     H53695   0.946   8.130   5.476 -1.2035  1.0301  0.7152
  398MOL0     H53696   0.877   8.141   5.045  0.1613 -0.1140 -1.5068
  398MOL0     H53697   0.993   8.011   5.016 -0.0270  0.0229 -1.5170
  398MOL0     H53698   0.779   7.919   4.936 -3.5663  1.6970  0.0165
  398MOL0     H53699   0.817   7.839   5.089  3.2082  1.7546  0.1002
  398MOL0     H53700   0.653   8.084   5.106  1.1295 -0.2242 -0.4714
  398MOL0     H53701   0.651   7.918   5.197 -1.6416 -1.5244  0.2147
  398MOL0     H53702   0.536   7.964   4.917  0.7896  2.0885  0.0975
  398MOL0     H53703   0.542   7.812   5.008  1.9884 -0.2910  1.4408
  398MOL0     H53704   0.382   8.062   5.041  1.0891  0.0177 -0.2036
  398MOL0     H53705   0.421   7.982   5.192 -3.5593  0.0956  0.2057
  398MOL0     H53706   0.305   7.841   4.948  2.6150  3.1902 -1.2035
  398MOL0     H53707   0.338   7.762   5.108  0.2953  1.0345  0.0837
  398MOL0     H53708   0.132   7.957   5.031  0.2638 -1.0359  0.2585
  398MOL0     H53709   0.165   7.933   5.203  1.0036  0.2703 -0.7406
  398MOL0     H53710   0.113   7.689   5.180 -2.4972  0.9357  2.8890
  398MOL0     H53711   0.086   7.705   5.011  7.2047 -1.9662  1.2390
  398MOL0     H53712   1.172   8.120   5.096 -0.2232  0.3511  0.3908
  398MOL0     H53713   1.346   8.231   5.201 -1.2281 -0.0734 -0.8096
  398MOL0     H53714   1.521   8.388   5.571  1.2094  0.0595  0.7832
  398MOL0     H53715   1.722   8.467   5.671 -0.0012 -0.0909 -0.1377
  398MOL0     H53716   3.457   8.224   5.516  1.5981 -0.6836  2.3290
  398MOL0     H53717   3.638   8.088   5.525  1.7559  0.2619 -1.7680
  398MOL0     H53718   4.094   8.074   5.321 -1.2944 -0.0495  0.8078
  398MOL0     H53719   4.320   7.981   5.310 -1.0389  2.1176  0.1337
  398MOL0     H53720   4.519   7.856   5.344  1.0428  1.2322 -0.1139
  398MOL0     H53721   4.455   7.876   5.510  0.2961 -0.4542 -0.4608
  398MOL0     H53722   4.610   7.633   5.425 -2.3077  1.0111 -2.3289
  398MOL0     H53723   4.554   7.665   5.579  0.9419 -0.4909  0.6260
  398MOL0     H53724   4.760   7.766   5.606 -0.2392 -0.1216  0.7278
  398MOL0     H53725   4.684   7.910   5.532  0.0898 -0.7497  0.8952
  398MOL0     H53726   4.804   7.701   5.349 -2.0784 -0.8701 -0.1638
  398MOL0     H53727   4.912   7.835   5.416 -1.2281  3.6854  1.2542
  398MOL0     H53728   4.751   8.070   5.139 -2.2996 -1.4325 -1.2966
  398MOL0     H53729   4.167   7.618   5.481  1.4045 -0.4550  0.6083
  398MOL0     H53730   3.937   7.711   5.495  0.3790 -1.1832 -1.0686
  399MOL0     O53731   9.382   5.408   0.439  0.5613 -0.2715  0.6403
  399MOL0     C53732   9.436   5.327   0.360 -1.5328 -0.4909 -0.3420
  399MOL0     O53733   9.377   5.226   0.289  0.4008 -0.0038 -0.6481
  399MOL0     C53734   9.241   5.202   0.298  0.0047  0.5021 -0.0051
  399MOL0     C53735   9.174   5.181   0.419  0.2285 -0.7624  0.2449
  399MOL0     C53736   9.040   5.136   0.411  0.7119 -0.2415  0.0084
  399MOL0     C53737   8.972   5.107   0.289  0.5032 -0.4208  0.0364
  399MOL0     O53738   8.850   5.051   0.270  0.5179 -0.6605 -0.3657
  399MOL0     C53739   8.749   5.119   0.355  0.5203 -0.0383 -0.3566
  399MOL0     C53740   8.617   5.085   0.290 -0.3850 -0.2167  0.1394
  399MOL0     C53741   8.575   4.942   0.328  0.6963 -0.2368 -0.5136
  399MOL0     C53742   8.461   4.887   0.244 -0.0884 -1.1482  0.0443
  399MOL0     C53743   8.341   4.983   0.213  0.7373  0.1129  0.2992
  399MOL0     C53744   8.244   5.008   0.324  0.4038  0.5785  0.0977
  399MOL0     C53745   8.127   5.110   0.301 -0.2279 -0.1011  0.5076
  399MOL0     C53746   8.018   5.048   0.212 -0.7868  0.3884 -0.9906
  399MOL0     N53747   7.897   5.128   0.196  0.5084 -0.2707  0.1495
  399MOL0     C53748   7.886   5.268   0.177 -0.3022  0.4112 -0.2521
  399MOL0     C53749   7.752   5.293   0.177 -0.4120 -0.6953  0.5310
  399MOL0     C53750   7.684   5.431   0.176  0.1079  0.3967 -0.4394
  399MOL0     C53751   7.529   5.430   0.185  0.5488 -0.2566 -0.2734
  399MOL0     C53752   7.478   5.387   0.320  0.9962  0.2920 -0.2623
  399MOL0     C53753   7.333   5.372   0.323  0.0068  0.8009 -0.4612
  399MOL0     O53754   7.272   5.337   0.449 -0.0796 -0.7899 -0.6031
  399MOL0     C53755   7.139   5.375   0.458 -0.2024  1.4704  0.2852
  399MOL0     C53756   7.089   5.508   0.447 -0.3033 -0.1228 -0.3587
  399MOL0     C53757   6.956   5.527   0.462 -0.3417  0.2891 -0.2556
  399MOL0     C53758   6.914   5.671   0.446  0.4196 -0.3138 -0.0806
  399MOL0     C53759   6.861   5.421   0.476 -0.9316  0.4484 -0.7274
  399MOL0     C53760   6.714   5.438   0.501 -1.2235 -0.7848 -0.0914
  399MOL0     O53761   6.672   5.566   0.527 -0.6242 -0.3760  0.4367
  399MOL0     C53762   6.536   5.587   0.529 -0.0928  0.2701  0.2956
  399MOL0     C53763   6.438   5.548   0.429  0.4134 -0.0594 -0.6827
  399MOL0     C53764   6.307   5.603   0.434  0.2946 -0.3583  0.1914
  399MOL0     C53765   6.263   5.657   0.552  0.0408  0.3126 -0.0322
  399MOL0     O53766   6.135   5.699   0.573 -0.5526 -0.4359  0.5426
  399MOL0     C53767   6.051   5.720   0.451  0.1979 -0.0519  0.7301
  399MOL0     C53768   5.912   5.770   0.494 -0.0749 -0.1438  0.2848
  399MOL0     C53769   5.839   5.669   0.578 -0.0526 -0.4085  0.0640
  399MOL0     C53770   5.686   5.682   0.557 -0.0514  0.6536 -0.5207
  399MOL0     C53771   5.594   5.612   0.666 -0.7268 -0.5961 -1.3082
  399MOL0     C53772   5.457   5.591   0.614  1.0120  0.1810 -0.1160
  399MOL0     C53773   5.383   5.719   0.556  0.6542  0.5796 -0.4501
  399MOL0     C53774   5.241   5.690   0.522  0.0523 -0.1068  0.1807
  399MOL0    Cl53775   5.249   5.584   0.372 -0.0766  0.3351 -0.0498
  399MOL0     C53776   6.360   5.678   0.658  0.2793  0.4164 -0.1900
  399MOL0     C53777   6.493   5.658   0.638 -0.4801  0.6761 -1.0493
  399MOL0     O53778   6.637   5.344   0.500 -0.0860  0.4033 -0.5388
  399MOL0     C53779   6.905   5.289   0.473  0.0901 -0.2563  0.4345
  399MOL0     C53780   7.043   5.268   0.464 -0.4054 -0.2896  0.5372
  399MOL0     N53781   7.690   5.172   0.198  0.1194 -0.2489  0.2069
  399MOL0     N53782   7.769   5.074   0.208 -0.3937 -0.3154 -0.9021
  399MOL0     C53783   9.055   5.123   0.175  0.1712 -0.0580 -0.5794
  399MOL0     C53784   9.180   5.169   0.175 -0.3344 -1.0317 -0.8917
  399MOL0     C53785   9.583   5.344   0.343  0.1022 -0.6191  0.5830
  399MOL0     C53786   9.654   5.439   0.417  0.3791  0.2699 -0.3679
  399MOL0     C53787   9.794   5.443   0.410 -0.7109 -0.2277 -0.4881
  399MOL0     C53788   9.863   5.354   0.324  0.5279 -0.1659  0.2016
  399MOL0     O53789  10.004   5.358   0.312 -0.1689 -1.0599 -0.1796
  399MOL0     C53790  10.069   5.486   0.346 -0.6234 -0.2506 -0.4229
  399MOL0     C53791  10.212   5.470   0.290  1.4607  0.0145 -0.6789
  399MOL0     C53792  10.297   5.360   0.358 -0.1186 -0.0376 -0.1317
  399MOL0     C53793  10.394   5.414   0.463 -0.3331 -0.0216 -0.0465
  399MOL0     C53794  10.501   5.495   0.396 -0.3651  0.0040  0.0992
  399MOL0     C53795  10.595   5.555   0.349 -0.8832  1.4494 -0.2161
  399MOL0     C53796   9.786   5.262   0.256  0.5624 -0.5209 -0.2035
  399MOL0     C53797   9.649   5.263   0.248  0.1179 -0.8768 -0.5312
  399MOL0     H53798   9.226   5.184   0.514  0.5463 -1.5963  0.1021
  399MOL0     H53799   8.994   5.118   0.507  1.2599  0.8474  0.4882
  399MOL0     H53800   8.754   5.086   0.459  2.0371 -0.0283 -0.4080
  399MOL0     H53801   8.764   5.227   0.355  0.2207  0.0097  0.4571
  399MOL0     H53802   8.548   5.163   0.323 -2.2253 -1.9564  0.5805
  399MOL0     H53803   8.627   5.083   0.181  1.8788 -2.0504  0.3014
  399MOL0     H53804   8.653   4.865   0.325 -0.0200 -1.1570  1.9908
  399MOL0     H53805   8.549   4.944   0.434  1.5473 -2.0671 -0.2230
  399MOL0     H53806   8.498   4.849   0.148 -2.8060  1.4774 -2.2672
  399MOL0     H53807   8.440   4.794   0.297  0.7040 -0.6282  1.3187
  399MOL0     H53808   8.385   5.077   0.177  0.8434  0.0008  0.1418
  399MOL0     H53809   8.299   4.946   0.120  1.3730  0.6877 -0.2282
  399MOL0     H53810   8.188   4.922   0.363 -5.0004  2.8877 -1.6466
  399MOL0     H53811   8.312   5.044   0.402  0.6248 -0.5082  0.4218
  399MOL0     H53812   8.086   5.147   0.395 -1.1962 -1.1733  0.5346
  399MOL0     H53813   8.168   5.199   0.251  0.7112 -1.4245 -1.1932
  399MOL0     H53814   7.989   4.951   0.254  2.1778 -0.8635 -1.6387
  399MOL0     H53815   8.061   5.021   0.115 -1.0968  0.5718 -1.1791
  399MOL0     H53816   7.968   5.339   0.170  0.2132 -0.0827  0.5629
  399MOL0     H53817   7.731   5.486   0.258 -2.7444 -0.0100  1.5981
  399MOL0     H53818   7.715   5.487   0.087  2.1878  1.7136  1.0318
  399MOL0     H53819   7.500   5.351   0.115  1.6834  0.0711 -1.1473
  399MOL0     H53820   7.492   5.528   0.151  2.1199 -0.2218 -2.0556
  399MOL0     H53821   7.507   5.459   0.397  3.9220 -0.6680 -0.3110
  399MOL0     H53822   7.521   5.291   0.352  0.0211 -0.3727 -0.9016
  399MOL0     H53823   7.301   5.293   0.254  0.0052 -0.4082  0.8542
  399MOL0     H53824   7.295   5.468   0.289 -0.6872  1.7557  2.6546
  399MOL0     H53825   7.165   5.585   0.439  0.3016 -0.2979  2.4012
  399MOL0     H53826   7.007   5.727   0.435  1.6850 -1.5349  3.2350
  399MOL0     H53827   6.842   5.670   0.363 -0.9564 -2.3706  1.0488
  399MOL0     H53828   6.867   5.705   0.539 -1.7699 -1.8417 -0.5569
  399MOL0     H53829   6.471   5.495   0.340  4.1368  0.0828  0.4214
  399MOL0     H53830   6.234   5.584   0.356 -1.0587 -0.8398  1.5138
  399MOL0     H53831   6.095   5.798   0.388 -1.3607 -0.7867 -1.3859
  399MOL0     H53832   6.045   5.626   0.396  1.5552  0.8551 -1.1052
  399MOL0     H53833   5.923   5.868   0.541  1.1716  1.1161 -2.4124
  399MOL0     H53834   5.856   5.785   0.402 -0.2477 -1.6578  0.1080
  399MOL0     H53835   5.851   5.698   0.683 -3.7491 -1.8730  1.0523
  399MOL0     H53836   5.869   5.567   0.555 -0.6925 -0.3536 -1.1080
  399MOL0     H53837   5.667   5.789   0.566 -0.2717  0.5080  1.2927
  399MOL0     H53838   5.655   5.651   0.457 -0.0715 -0.0469 -0.3068
  399MOL0     H53839   5.590   5.678   0.754  0.6029 -2.0402 -0.1088
  399MOL0     H53840   5.634   5.515   0.697  0.2841  0.2104  0.0733
  399MOL0     H53841   5.464   5.504   0.547 -0.5916 -0.8139  0.9400
  399MOL0     H53842   5.397   5.557   0.699 -1.2682  0.4893 -1.5158
  399MOL0     H53843   5.432   5.753   0.465 -0.3880  1.4084 -0.7275
  399MOL0     H53844   5.395   5.807   0.621 -2.9327 -1.1268  2.9104
  399MOL0     H53845   5.202   5.790   0.500  3.1451  1.1478 -0.1829
  399MOL0     H53846   5.193   5.632   0.602 -0.1094 -1.4194 -0.8418
  399MOL0     H53847   6.339   5.712   0.759  2.6314 -1.6963  1.1419
  399MOL0     H53848   6.564   5.684   0.716  0.6196 -1.4642 -1.2706
  399MOL0     H53849   6.841   5.204   0.492  2.0084 -2.1959 -1.1736
  399MOL0     H53850   7.074   5.165   0.475  3.6491  0.3501 -2.4491
  399MOL0     H53851   9.005   5.094   0.083 -0.2938 -4.1555  0.7628
  399MOL0     H53852   9.239   5.163   0.085  3.4845 -2.1284  1.4418
  399MOL0     H53853   9.606   5.489   0.500  1.2738 -0.5823  0.7039
  399MOL0     H53854   9.861   5.491   0.480 -0.2708 -1.2648 -0.1870
  399MOL0     H53855  10.021   5.572   0.297 -1.4961  0.8213  2.1316
  399MOL0     H53856  10.066   5.510   0.452 -2.1140  1.5879 -0.8317
  399MOL0     H53857  10.270   5.563   0.292 -1.4992  1.9866 -0.1480
  399MOL0     H53858  10.187   5.441   0.187 -3.2624  0.9773 -0.0389
  399MOL0     H53859  10.356   5.309   0.281  1.4266 -0.4917  1.3106
  399MOL0     H53860  10.231   5.290   0.410 -0.5936  1.4981  1.4232
  399MOL0     H53861  10.442   5.333   0.519  1.1804  0.2132 -0.9305
  399MOL0     H53862  10.336   5.477   0.531  1.9971  0.1589  1.9225
  399MOL0     H53863  10.689   5.602   0.326  0.3637 -1.3891 -1.3741
  399MOL0     H53864   9.831   5.198   0.181 -1.4582  1.6644 -3.4927
  399MOL0     H53865   9.599   5.187   0.189  1.1971 -1.5138 -0.6458
  400MOL0     O53866   1.724   2.760   4.121 -0.7513 -0.1835  0.4808
  400MOL0     C53867   1.744   2.714   4.005 -0.1862  1.0608 -0.3203
  400MOL0     O53868   1.643   2.688   3.904  0.3976 -0.8455 -0.2688
  400MOL0     C53869   1.514   2.747   3.906  0.2124  0.8796 -0.8265
  400MOL0     C53870   1.416   2.687   3.982  0.2291 -0.3546  0.2254
  400MOL0     C53871   1.292   2.756   4.005 -0.5335 -0.1914 -0.4528
  400MOL0     C53872   1.261   2.878   3.947 -0.0764 -1.0044  0.2058
  400MOL0     O53873   1.143   2.934   3.985  1.1249  0.0931  0.3811
  400MOL0     C53874   1.043   2.921   3.877  0.2207  0.7147 -0.3660
  400MOL0     C53875   0.919   2.974   3.941  0.3265  0.0217 -0.3173
  400MOL0     C53876   0.932   3.124   3.974 -0.4285 -0.6270 -0.0167
  400MOL0     C53877   0.966   3.225   3.862  0.2952  0.0148  0.1456
  400MOL0     C53878   0.885   3.349   3.860 -0.7176  0.6905 -0.1438
  400MOL0     C53879   0.758   3.325   3.779  0.1439 -0.6178 -0.7556
  400MOL0     C53880   0.653   3.437   3.785 -0.2106  0.5746 -1.0135
  400MOL0     C53881   0.695   3.555   3.701 -1.5746 -0.0577 -0.1039
  400MOL0     N53882   0.608   3.673   3.703  0.0100 -0.1211 -0.1151
  400MOL0     C53883   0.469   3.691   3.684 -0.1222 -0.1615  0.5763
  400MOL0     C53884   0.452   3.827   3.682 -0.4929  0.0814 -0.2215
  400MOL0     C53885   0.318   3.891   3.682 -0.2067  0.6940  0.4296
  400MOL0     C53886   0.251   3.882   3.542 -0.3145  0.0705  0.9892
  400MOL0     C53887   0.266   4.007   3.446 -0.8730 -0.2706 -0.3628
  400MOL0     C53888   0.164   4.110   3.484  0.7234 -0.2219 -0.8508
  400MOL0     O53889   0.034   4.055   3.443 -0.3420  0.3952 -0.2924
  400MOL0     C53890  -0.053   4.157   3.420  1.0183 -0.2765  0.2778
  400MOL0     C53891  -0.116   4.172   3.297  0.0481 -0.1568 -0.4530
  400MOL0     C53892  -0.204   4.283   3.267 -0.2502 -0.1497 -0.9242
  400MOL0     C53893  -0.245   4.298   3.129  0.3635 -0.1835 -0.5947
  400MOL0     C53894  -0.221   4.387   3.370 -0.0787 -0.7524  0.3372
  400MOL0     C53895  -0.299   4.514   3.346  0.9774  0.1888 -0.4418
  400MOL0     O53896  -0.314   4.596   3.452 -0.1016  0.2085  0.7405
  400MOL0     C53897  -0.431   4.658   3.472 -0.2259 -0.0528 -0.7959
  400MOL0     C53898  -0.433   4.792   3.508  0.3492 -1.0339  0.2709
  400MOL0     C53899  -0.559   4.856   3.538  0.4782 -0.0967  0.8036
  400MOL0     C53900  -0.677   4.783   3.531  0.1409  0.1392  0.0614
  400MOL0     O53901  -0.807   4.815   3.551 -1.0648 -0.3620 -0.1357
  400MOL0     C53902  -0.820   4.960   3.561  0.1553  0.0126  0.1514
  400MOL0     C53903  -0.973   4.989   3.563 -0.7966 -0.4604 -0.0117
  400MOL0     C53904  -1.042   4.924   3.447  0.5415  0.0155 -0.7068
  400MOL0     C53905  -1.193   4.944   3.452 -0.0871 -0.1310  0.5301
  400MOL0     C53906  -1.271   4.928   3.318 -0.5834  0.1007  0.3327
  400MOL0     C53907  -1.275   4.770   3.283  0.2374 -0.4002  0.7236
  400MOL0     C53908  -1.146   4.716   3.216 -0.8858  0.0544  0.9915
  400MOL0     C53909  -1.137   4.568   3.260 -0.9955 -1.0512 -0.1473
  400MOL0    Cl53910  -1.069   4.545   3.428 -0.1879 -0.2935 -0.4676
  400MOL0     C53911  -0.669   4.646   3.508 -0.4134 -0.0896  0.2493
  400MOL0     C53912  -0.553   4.576   3.482  0.0253 -0.0003 -0.0283
  400MOL0     O53913  -0.358   4.537   3.238  0.5998  0.0051  0.3723
  400MOL0     C53914  -0.149   4.371   3.495 -0.7957 -0.4756  0.4355
  400MOL0     C53915  -0.070   4.257   3.520 -0.7852 -0.5073 -0.0160
  400MOL0     N53916   0.575   3.893   3.694 -0.2345  0.7444 -0.0067
  400MOL0     N53917   0.665   3.799   3.704 -0.3816  0.0707  0.2595
  400MOL0     C53918   1.360   2.939   3.871  0.5168  0.0689 -0.5576
  400MOL0     C53919   1.488   2.875   3.859 -0.0078  0.2702 -0.1130
  400MOL0     C53920   1.871   2.666   3.966  0.1314  0.0985  0.3342
  400MOL0     C53921   1.892   2.577   3.857  0.8960  0.6016 -0.2632
  400MOL0     C53922   2.020   2.534   3.823  0.3850  1.7468  1.0292
  400MOL0     C53923   2.139   2.576   3.887  0.1563 -0.3737  0.3691
  400MOL0     O53924   2.273   2.543   3.855  0.4357 -0.0314 -0.0661
  400MOL0     C53925   2.286   2.522   3.717 -0.6310  0.7900 -0.2845
  400MOL0     C53926   2.433   2.501   3.691 -0.8804 -0.4979 -0.3042
  400MOL0     C53927   2.477   2.492   3.550 -0.4557  0.0493  0.4857
  400MOL0     C53928   2.389   2.398   3.462 -0.7086  0.7455 -0.3293
  400MOL0     C53929   2.255   2.445   3.433 -0.7140 -0.0687  0.3891
  400MOL0     C53930   2.150   2.496   3.407  0.1539  0.3585  0.3821
  400MOL0     C53931   2.116   2.650   3.999  0.1074 -0.4143 -0.9210
  400MOL0     C53932   1.991   2.700   4.035  0.8809  0.4336 -0.2266
  400MOL0     H53933   1.429   2.590   4.030 -0.3393 -1.4142 -1.6615
  400MOL0     H53934   1.210   2.719   4.066  1.5432  2.0561  4.2902
  400MOL0     H53935   1.065   2.973   3.784 -1.1507 -3.2464 -3.1521
  400MOL0     H53936   1.026   2.817   3.850 -0.9763  0.6633  0.5011
  400MOL0     H53937   0.830   2.967   3.878  0.6087  1.6932 -0.9480
  400MOL0     H53938   0.898   2.923   4.036  2.1199  2.9307  1.8047
  400MOL0     H53939   0.838   3.160   4.016 -0.0290  1.5099 -0.8272
  400MOL0     H53940   1.009   3.145   4.049  1.0364 -1.0210 -1.3483
  400MOL0     H53941   1.073   3.246   3.856  0.3660 -0.7371 -3.0554
  400MOL0     H53942   0.941   3.178   3.766  0.5252  0.1364  0.0239
  400MOL0     H53943   0.859   3.372   3.964  2.0136  0.8478  0.5856
  400MOL0     H53944   0.941   3.435   3.822  1.8638 -0.4107  0.9492
  400MOL0     H53945   0.787   3.320   3.674 -0.4128  0.1388 -0.9514
  400MOL0     H53946   0.705   3.233   3.806 -1.0920  0.3383  0.1488
  400MOL0     H53947   0.558   3.388   3.760 -2.9635  3.5393  2.3975
  400MOL0     H53948   0.632   3.467   3.889 -0.6175 -1.9487 -0.2868
  400MOL0     H53949   0.701   3.516   3.598 -0.2965 -2.9812  0.9653
  400MOL0     H53950   0.793   3.580   3.741 -0.6958 -2.0815 -0.8359
  400MOL0     H53951   0.393   3.614   3.683  0.1234 -0.3991 -0.8457
  400MOL0     H53952   0.260   3.842   3.761 -0.3882  0.8343  0.3851
  400MOL0     H53953   0.322   3.995   3.715  1.3806  0.4473  1.1071
  400MOL0     H53954   0.144   3.876   3.562 -0.1823 -0.8718  1.5037
  400MOL0     H53955   0.280   3.786   3.498  2.2748  1.6981 -1.1810
  400MOL0     H53956   0.251   3.972   3.344  0.0382  0.4202 -0.7424
  400MOL0     H53957   0.369   4.044   3.455 -0.7490 -1.0019  2.5348
  400MOL0     H53958   0.184   4.200   3.425  0.5551  0.2655 -0.1638
  400MOL0     H53959   0.171   4.140   3.588 -5.1628  1.1951 -0.4759
  400MOL0     H53960  -0.083   4.097   3.226  3.1045  0.9141 -0.3038
  400MOL0     H53961  -0.238   4.403   3.099  1.8131 -0.5724 -1.7476
  400MOL0     H53962  -0.162   4.270   3.063  0.1807  2.8547 -2.3035
  400MOL0     H53963  -0.339   4.255   3.095 -1.1457  1.5697  1.1428
  400MOL0     H53964  -0.336   4.840   3.524  0.0162 -0.5596  0.9295
  400MOL0     H53965  -0.546   4.952   3.586 -0.8755  1.1470 -1.1385
  400MOL0     H53966  -0.776   5.005   3.651  1.0199 -0.4370 -0.0400
  400MOL0     H53967  -0.778   5.009   3.472  0.8038  3.5432  2.2005
  400MOL0     H53968  -1.001   4.953   3.662  1.8907 -0.7021  0.7236
  400MOL0     H53969  -0.984   5.097   3.550  0.1420 -0.4305 -0.6575
  400MOL0     H53970  -1.030   4.816   3.460 -0.0638  0.2535  3.0349
  400MOL0     H53971  -0.992   4.964   3.359  0.1285  1.5097 -0.2925
  400MOL0     H53972  -1.246   4.882   3.525 -2.3482 -0.4517 -1.2707
  400MOL0     H53973  -1.212   5.049   3.478  0.0789  0.5905 -1.9938
  400MOL0     H53974  -1.221   4.988   3.241  2.4598 -0.4697  1.7110
  400MOL0     H53975  -1.378   4.948   3.331 -0.6539 -0.0375 -0.0211
  400MOL0     H53976  -1.302   4.712   3.371 -1.0124  2.3751  2.2755
  400MOL0     H53977  -1.357   4.762   3.211 -0.8858  0.5552  1.8714
  400MOL0     H53978  -1.057   4.772   3.246 -0.1640 -1.2483  1.3470
  400MOL0     H53979  -1.147   4.718   3.107  0.3542 -0.0280  0.9618
  400MOL0     H53980  -1.070   4.513   3.193  0.8164  0.8145  0.0267
  400MOL0     H53981  -1.233   4.516   3.255 -2.6444  1.8898 -1.3679
  400MOL0     H53982  -0.759   4.588   3.525  0.7908 -1.8511  1.0016
  400MOL0     H53983  -0.562   4.470   3.462 -1.6758  0.2554 -0.8172
  400MOL0     H53984  -0.155   4.446   3.573 -1.0237 -1.4628  1.3904
  400MOL0     H53985  -0.015   4.238   3.611  0.8289 -1.5905 -1.1468
  400MOL0     H53986   1.334   3.033   3.823 -2.6584 -1.3432 -1.8730
  400MOL0     H53987   1.562   2.929   3.802 -0.8657  1.7567  0.1134
  400MOL0     H53988   1.811   2.546   3.792 -1.7186  2.8759  1.6355
  400MOL0     H53989   2.045   2.479   3.733  0.8936  3.0358  0.3631
  400MOL0     H53990   2.236   2.429   3.689  1.6572 -0.7946  0.5218
  400MOL0     H53991   2.238   2.603   3.662 -1.6606  0.8345  0.6364
  400MOL0     H53992   2.478   2.416   3.743  1.2279 -0.0690 -1.3385
  400MOL0     H53993   2.494   2.580   3.737 -0.1820 -1.3016  0.1627
  400MOL0     H53994   2.574   2.442   3.554  0.6622  2.0866  0.2134
  400MOL0     H53995   2.481   2.589   3.500 -4.7663  0.4334  0.5355
  400MOL0     H53996   2.382   2.306   3.521  0.9082  1.4050  0.9678
  400MOL0     H53997   2.445   2.375   3.371  1.5647  1.7093  0.7412
  400MOL0     H53998   2.055   2.542   3.388  0.5633  1.7646  1.5824
  400MOL0     H53999   2.204   2.672   4.058 -0.7006  0.3753  0.0175
  400MOL0     H54000   1.990   2.760   4.125  0.4759  0.9482 -0.5641
  401MOL0     O54001   4.406   3.929   9.363 -0.1114  0.1388 -0.1401
  401MOL0     C54002   4.372   3.823   9.423  0.0638 -1.1547  0.1044
  401MOL0     O54003   4.248   3.786   9.440  0.0540  1.7921 -1.0413
  401MOL0     C54004   4.143   3.840   9.380  0.0652 -0.3982 -0.6882
  401MOL0     C54005   4.035   3.877   9.458 -0.0188  0.3491 -0.2215
  401MOL0     C54006   3.923   3.936   9.409  0.5547 -0.4731  0.1728
  401MOL0     C54007   3.909   3.952   9.272 -0.6897 -0.1077 -0.4841
  401MOL0     O54008   3.800   4.021   9.229 -0.6338 -0.1134  0.8126
  401MOL0     C54009   3.821   4.129   9.139 -0.4882  0.2977 -0.8287
  401MOL0     C54010   3.687   4.198   9.081  0.0802 -0.3040  0.0681
  401MOL0     C54011   3.577   4.222   9.184  1.0302  0.2499 -0.3553
  401MOL0     C54012   3.436   4.208   9.108 -0.3046 -1.1987 -0.3007
  401MOL0     C54013   3.325   4.255   9.212 -0.4457  0.6617 -0.0802
  401MOL0     C54014   3.197   4.309   9.136 -0.8719  0.1431 -0.7672
  401MOL0     C54015   3.082   4.345   9.233  0.2837 -0.5037 -1.0761
  401MOL0     C54016   3.026   4.232   9.324 -0.3475 -1.0859  0.4639
  401MOL0     N54017   2.893   4.258   9.384  0.7567 -0.6024 -0.7913
  401MOL0     C54018   2.840   4.213   9.505 -0.4078 -0.2168  0.1832
  401MOL0     C54019   2.704   4.225   9.490 -0.2166 -0.2897  0.2926
  401MOL0     C54020   2.609   4.183   9.597  0.2209  0.9610  0.3021
  401MOL0     C54021   2.459   4.149   9.554 -0.2744 -1.0857 -0.1921
  401MOL0     C54022   2.350   4.122   9.668  0.1698 -0.8453  0.0970
  401MOL0     C54023   2.366   4.231   9.780  0.4672 -0.6361  0.4738
  401MOL0     O54024   2.282   4.204   9.889  0.1613 -0.5442  0.1838
  401MOL0     C54025   2.146   4.200   9.865 -0.1991 -0.4288  0.6059
  401MOL0     C54026   2.073   4.122   9.949 -0.2428  0.5265  0.2364
  401MOL0     C54027   1.932   4.106   9.928  0.9492  0.5864  0.5086
  401MOL0     C54028   1.848   4.019  10.018 -0.0560  0.3088 -0.1631
  401MOL0     C54029   1.869   4.169   9.815  0.6234  0.0713 -0.9920
  401MOL0     C54030   1.728   4.166   9.789  0.1858 -0.1881  0.5865
  401MOL0     O54031   1.652   4.212   9.890  1.0498  0.4373  0.2249
  401MOL0     C54032   1.519   4.199   9.900 -0.0075 -0.4043 -0.6186
  401MOL0     C54033   1.455   4.307   9.956 -0.3753  0.4573 -0.4782
  401MOL0     C54034   1.323   4.292   9.999  0.0477 -0.0779 -0.7482
  401MOL0     C54035   1.253   4.174   9.982  0.2564 -0.5030  0.4944
  401MOL0     O54036   1.114   4.184   9.989  0.3873 -0.3517  0.5477
  401MOL0     C54037   1.023   4.077   9.956  0.0419 -0.0751  0.2963
  401MOL0     C54038   0.882   4.128   9.985  0.3171 -0.1383  0.1317
  401MOL0     C54039   0.788   4.000  10.001 -0.7593  0.8277  0.1625
  401MOL0     C54040   0.745   3.919   9.877 -1.6070 -0.3773 -1.3833
  401MOL0     C54041   0.641   3.814   9.915  0.2009 -0.1690 -0.0737
  401MOL0     C54042   0.545   3.755   9.811 -0.7895  0.6169 -0.3903
  401MOL0     C54043   0.473   3.625   9.849  0.0562 -0.5517 -0.0209
  401MOL0     C54044   0.349   3.660   9.920  1.0579 -0.2912 -0.7660
  401MOL0    Cl54045   0.370   3.691  10.092  0.4045 -0.8688 -0.3560
  401MOL0     C54046   1.316   4.064   9.928 -0.1565  0.2577 -0.1205
  401MOL0     C54047   1.451   4.076   9.895  0.3756 -0.0306 -0.0636
  401MOL0     O54048   1.691   4.116   9.681  0.1879  0.3834 -0.8419
  401MOL0     C54049   1.952   4.245   9.734 -0.6457 -0.0651  0.7363
  401MOL0     C54050   2.085   4.255   9.756  0.8533  0.5162 -0.1595
  401MOL0     N54051   2.668   4.281   9.369  0.1123  0.0130  0.0107
  401MOL0     N54052   2.788   4.299   9.306  0.2028  0.3954  0.0095
  401MOL0     C54053   4.018   3.921   9.191  0.4083  0.2829  0.9958
  401MOL0     C54054   4.129   3.857   9.244 -0.8355  0.2728 -0.3577
  401MOL0     C54055   4.476   3.721   9.462 -0.2931  0.0176  0.5435
  401MOL0     C54056   4.614   3.744   9.441 -0.1705 -0.1602 -0.8401
  401MOL0     C54057   4.712   3.644   9.477 -0.0184  0.0767 -0.1053
  401MOL0     C54058   4.676   3.524   9.546  1.1337 -0.7490 -0.2661
  401MOL0     O54059   4.762   3.434   9.594 -0.2944  0.1259  0.0407
  401MOL0     C54060   4.900   3.465   9.596 -0.1716 -0.0497 -1.4258
  401MOL0     C54061   4.919   3.561   9.713  0.2495  0.6807  0.2313
  401MOL0     C54062   4.853   3.491   9.838 -0.1582 -0.3911  0.1698
  401MOL0     C54063   4.914   3.544   9.969 -0.7961 -0.0957 -0.3094
  401MOL0     C54064   4.850   3.683  10.001 -0.6415  1.1836 -0.6871
  401MOL0     C54065   4.789   3.778  10.027 -0.2434 -0.1698  0.1679
  401MOL0     C54066   4.536   3.502   9.567 -1.3343 -0.1327 -0.5684
  401MOL0     C54067   4.443   3.598   9.522 -0.0975  0.9757  0.2438
  401MOL0     H54068   4.038   3.843   9.561  3.0363 -0.0313 -0.3375
  401MOL0     H54069   3.855   3.965   9.488  0.8264 -3.6224  1.7175
  401MOL0     H54070   3.879   4.209   9.185  0.1440 -0.7742  0.3052
  401MOL0     H54071   3.880   4.096   9.053  0.4304  3.3022 -1.4674
  401MOL0     H54072   3.722   4.292   9.037 -2.2216  0.8793  0.6290
  401MOL0     H54073   3.651   4.135   9.000  1.9791 -1.5674  0.1288
  401MOL0     H54074   3.583   4.144   9.261 -0.2930  1.4274  1.0041
  401MOL0     H54075   3.577   4.317   9.238 -1.0205  0.0428  0.0728
  401MOL0     H54076   3.441   4.274   9.021  2.0884  0.9070  1.2832
  401MOL0     H54077   3.410   4.105   9.084  0.8289 -1.4968 -0.2832
  401MOL0     H54078   3.313   4.169   9.279 -0.7534  1.1285  0.4799
  401MOL0     H54079   3.369   4.330   9.278  2.3631 -1.3004  0.4585
  401MOL0     H54080   3.230   4.393   9.074  0.2143  2.7181  2.9556
  401MOL0     H54081   3.163   4.225   9.075 -0.9509  0.8676 -1.7356
  401MOL0     H54082   3.104   4.421   9.309 -1.1247  0.1084 -1.2524
  401MOL0     H54083   3.010   4.393   9.166  2.0738  4.0018 -0.1237
  401MOL0     H54084   3.104   4.203   9.395  2.3782  3.9190 -0.0556
  401MOL0     H54085   3.007   4.152   9.252  0.7059  0.2630 -1.4075
  401MOL0     H54086   2.893   4.190   9.597 -1.1527  2.0121  1.2583
  401MOL0     H54087   2.655   4.093   9.640  0.2384  1.1689  0.7244
  401MOL0     H54088   2.616   4.261   9.674 -1.4621 -0.2533  1.7668
  401MOL0     H54089   2.466   4.070   9.479  1.5416 -2.3093  1.1908
  401MOL0     H54090   2.430   4.238   9.496 -0.8374 -2.4765 -2.1308
  401MOL0     H54091   2.355   4.021   9.710 -1.1897 -0.7965  0.4271
  401MOL0     H54092   2.253   4.127   9.616 -2.2749  0.8670  4.2929
  401MOL0     H54093   2.349   4.326   9.728  2.2637 -0.9573 -0.7941
  401MOL0     H54094   2.469   4.227   9.814  1.1010  0.9219 -1.1071
  401MOL0     H54095   2.124   4.077  10.034  1.0236  1.5218  0.0355
  401MOL0     H54096   1.904   3.988  10.107 -2.4155 -1.3070  0.8497
  401MOL0     H54097   1.759   4.074  10.051 -0.1339 -1.2324  2.4817
  401MOL0     H54098   1.815   3.930   9.963  4.5685 -0.6447 -1.8209
  401MOL0     H54099   1.509   4.399   9.975  0.3706 -0.1164  0.2149
  401MOL0     H54100   1.277   4.382  10.037  0.8903  1.0834 -2.3943
  401MOL0     H54101   1.038   4.065   9.849  3.4054  2.5211  0.3206
  401MOL0     H54102   1.044   3.985  10.012 -1.5474  0.2393  1.4885
  401MOL0     H54103   0.888   4.184  10.078  2.9532  1.6614 -0.9965
  401MOL0     H54104   0.857   4.199   9.905  0.3184  0.5133  0.7093
  401MOL0     H54105   0.695   4.036  10.045 -1.0746  0.4085 -0.1565
  401MOL0     H54106   0.844   3.929  10.062 -0.4816 -1.0281 -2.0988
  401MOL0     H54107   0.701   3.989   9.804 -0.0247 -0.9859 -3.0001
  401MOL0     H54108   0.833   3.869   9.835  0.1721 -1.4484  3.0965
  401MOL0     H54109   0.580   3.849   9.999 -0.9827  2.1674 -1.8017
  401MOL0     H54110   0.705   3.731   9.948 -1.1018 -0.8433  0.8418
  401MOL0     H54111   0.483   3.841   9.785  0.7116  0.5923 -4.8672
  401MOL0     H54112   0.606   3.745   9.721  2.0133  2.8135  1.0805
  401MOL0     H54113   0.534   3.552   9.903 -0.8520 -1.4873 -0.2191
  401MOL0     H54114   0.458   3.575   9.753  0.5785 -0.1028 -0.3474
  401MOL0     H54115   0.275   3.580   9.916  0.8698 -0.2067  0.6827
  401MOL0     H54116   0.297   3.744   9.874 -1.2733 -0.5668  1.1793
  401MOL0     H54117   1.264   3.970   9.911 -0.6674  0.3851  0.7013
  401MOL0     H54118   1.498   3.986   9.855  0.1415  0.4878 -1.5505
  401MOL0     H54119   1.916   4.295   9.645  1.7748  1.6992  0.6455
  401MOL0     H54120   2.144   4.313   9.686  0.4981  0.3987 -0.5626
  401MOL0     H54121   4.006   3.938   9.084 -0.6933 -0.2683  1.0237
  401MOL0     H54122   4.213   3.828   9.182  0.2784  2.1090  0.2234
  401MOL0     H54123   4.646   3.828   9.380 -1.1267 -0.2521 -1.4922
  401MOL0     H54124   4.807   3.685   9.446 -0.6359  1.7704  0.1481
  401MOL0     H54125   4.951   3.373   9.625 -1.3464  0.5336  3.4034
  401MOL0     H54126   4.954   3.497   9.506  0.8640  0.5729 -0.5998
  401MOL0     H54127   4.861   3.653   9.697  1.0638  0.8340 -2.0393
  401MOL0     H54128   5.024   3.586   9.727  0.5316  2.2837 -3.6055
  401MOL0     H54129   4.882   3.386   9.841  0.6579 -0.1704  0.4233
  401MOL0     H54130   4.744   3.497   9.846 -0.2570 -2.2394  0.4421
  401MOL0     H54131   5.023   3.543   9.958 -0.4934 -2.4559  2.0002
  401MOL0     H54132   4.889   3.472  10.047 -1.6101 -1.5241 -1.8392
  401MOL0     H54133   4.729   3.867  10.030 -0.5926 -0.0326 -4.4897
  401MOL0     H54134   4.498   3.409   9.609  0.3641 -0.3017  0.6696
  401MOL0     H54135   4.340   3.569   9.542 -0.3760  1.9077  0.1920
  402MOL0     O54136   0.528   5.512   9.906  0.5737 -0.3899  0.0028
  402MOL0     C54137   0.559   5.485   9.787  0.8382 -0.1391  0.3837
  402MOL0     O54138   0.468   5.452   9.694  0.5548 -0.1103 -0.2031
  402MOL0     C54139   0.335   5.467   9.709 -0.3339  0.7290 -0.2119
  402MOL0     C54140   0.269   5.569   9.778  0.0704 -0.8205 -0.5475
  402MOL0     C54141   0.128   5.566   9.788 -0.2429  0.4565  0.1110
  402MOL0     C54142   0.054   5.468   9.716  0.0809  0.1025  0.7181
  402MOL0     O54143  -0.086   5.482   9.725 -0.7950  0.1049 -0.1707
  402MOL0     C54144  -0.165   5.363   9.703 -0.4529 -0.8146  0.0012
  402MOL0     C54145  -0.146   5.267   9.825 -0.5055  0.7899 -0.3742
  402MOL0     C54146  -0.174   5.327   9.965 -0.2469  0.1719 -0.8394
  402MOL0     C54147  -0.149   5.229  10.086 -0.1313 -0.5570  0.3454
  402MOL0     C54148  -0.006   5.164  10.079 -0.6984  0.6770  1.5541
  402MOL0     C54149   0.114   5.247  10.125 -0.2290  0.1775  0.0530
  402MOL0     C54150   0.245   5.172  10.130 -0.1957  0.1477  0.6421
  402MOL0     C54151   0.319   5.175   9.992 -0.2092  0.3087  0.4800
  402MOL0     N54152   0.455   5.124  10.022  0.5597  0.3916 -0.7495
  402MOL0     C54153   0.567   5.197  10.048  0.1745  0.4430  0.3704
  402MOL0     C54154   0.667   5.106  10.086  0.0337  0.3752  0.5267
  402MOL0     C54155   0.802   5.147  10.135  0.5257  0.7769 -0.2349
  402MOL0     C54156   0.838   5.067  10.266 -0.7635 -0.3946  0.1777
  402MOL0     C54157   0.766   5.119  10.401 -0.2938  0.4932  0.1555
  402MOL0     C54158   0.609   5.088  10.414  0.4460 -0.4897  0.9179
  402MOL0     O54159   0.561   5.116  10.546  0.6555  0.1189 -0.1518
  402MOL0     C54160   0.437   5.064  10.571 -0.2494  0.1002  0.4332
  402MOL0     C54161   0.326   5.135  10.542 -0.4497  0.3268 -0.0933
  402MOL0     C54162   0.203   5.086  10.549 -0.1736  0.2485  1.0794
  402MOL0     C54163   0.096   5.177  10.477  0.0998  0.0597 -1.0614
  402MOL0     C54164   0.179   4.964  10.615  0.1693  0.6304 -0.1304
  402MOL0     C54165   0.040   4.904  10.640 -0.0130  0.1833  0.1360
  402MOL0     O54166   0.042   4.777  10.682 -0.1011  0.2563  0.2150
  402MOL0     C54167  -0.081   4.727  10.725 -0.4078  0.7516  0.3669
  402MOL0     C54168  -0.164   4.650  10.634  0.3454 -0.5159 -0.0097
  402MOL0     C54169  -0.290   4.614  10.679  0.4145  0.3702  0.0321
  402MOL0     C54170  -0.334   4.641  10.809  0.0116 -0.4956 -0.1772
  402MOL0     O54171  -0.454   4.593  10.845 -0.0936  0.3033 -0.0283
  402MOL0     C54172  -0.450   4.510  10.961  0.5887 -0.2669  0.0274
  402MOL0     C54173  -0.574   4.419  10.944 -0.4065 -0.0970  0.0760
  402MOL0     C54174  -0.707   4.501  10.942 -0.4664 -0.7462 -0.1077
  402MOL0     C54175  -0.822   4.407  10.911 -0.2490 -0.5959  0.5338
  402MOL0     C54176  -0.967   4.462  10.919  0.0470  0.4164 -0.0305
  402MOL0     C54177  -1.077   4.357  10.872  0.1999 -0.4845  0.6993
  402MOL0     C54178  -1.220   4.413  10.883 -0.7262 -0.8514 -0.0724
  402MOL0     C54179  -1.335   4.323  10.831 -0.0886  0.0041  0.1366
  402MOL0    Cl54180  -1.334   4.306  10.668 -0.1621  0.7061 -0.3941
  402MOL0     C54181  -0.248   4.711  10.899 -0.5779 -0.3276  0.7184
  402MOL0     C54182  -0.127   4.762  10.849 -0.5451  1.0902 -0.0742
  402MOL0     O54183  -0.065   4.974  10.630 -0.5898 -0.4172  0.1633
  402MOL0     C54184   0.289   4.893  10.659 -0.0440  0.7999 -0.0142
  402MOL0     C54185   0.417   4.937  10.633 -0.6960 -0.1856  0.5779
  402MOL0     N54186   0.611   4.979  10.066  0.4672 -1.0607 -0.3906
  402MOL0     N54187   0.487   4.992  10.023 -0.1850 -0.4141 -0.2952
  402MOL0     C54188   0.123   5.374   9.636 -0.3712 -1.0385  0.1275
  402MOL0     C54189   0.265   5.373   9.636 -0.5398 -0.3992  0.1776
  402MOL0     C54190   0.693   5.528   9.740 -0.3672  0.8364 -0.2321
  402MOL0     C54191   0.772   5.613   9.815  1.3022 -0.9804 -0.6900
  402MOL0     C54192   0.898   5.649   9.769  0.6622  0.0658  0.7640
  402MOL0     C54193   0.946   5.605   9.648 -1.2527  0.4915  0.2982
  402MOL0     O54194   1.068   5.643   9.588 -0.1187 -0.8512  0.4820
  402MOL0     C54195   1.176   5.684   9.672  0.4491  0.0149 -0.1467
  402MOL0     C54196   1.243   5.567   9.735  0.0663 -0.6508  0.6801
  402MOL0     C54197   1.310   5.474   9.630 -0.1116  0.8567 -0.1744
  402MOL0     C54198   1.391   5.359   9.688  0.0469  0.8305  0.3629
  402MOL0     C54199   1.326   5.280   9.788  0.3265  0.3104  0.3036
  402MOL0     C54200   1.303   5.200   9.883  0.1253 -0.2511  0.8279
  402MOL0     C54201   0.870   5.511   9.572 -0.1643 -0.4286  0.0952
  402MOL0     C54202   0.745   5.478   9.616  0.5338  1.0058 -0.5902
  402MOL0     H54203   0.326   5.643   9.833  0.7078 -1.3225 -0.5340
  402MOL0     H54204   0.083   5.634   9.860 -1.6212 -0.1447 -0.1477
  402MOL0     H54205  -0.266   5.400   9.679  0.1898  0.2597 -1.2099
  402MOL0     H54206  -0.129   5.305   9.618  2.5262 -1.2487  1.4688
  402MOL0     H54207  -0.212   5.180   9.809 -1.1607  1.5977 -2.3606
  402MOL0     H54208  -0.043   5.233   9.810 -0.7392 -0.2524  0.2546
  402MOL0     H54209  -0.111   5.416   9.979  1.1652 -0.9328  0.1578
  402MOL0     H54210  -0.277   5.362   9.965  0.2210  1.7285  1.0882
  402MOL0     H54211  -0.144   5.277  10.184  3.0495 -0.7593  0.3873
  402MOL0     H54212  -0.226   5.152  10.084 -0.4881 -0.2236 -1.9635
  402MOL0     H54213  -0.018   5.073  10.138  4.2904  0.4597  2.6538
  402MOL0     H54214   0.018   5.132   9.977  0.8739  3.1043  1.0861
  402MOL0     H54215   0.118   5.326  10.050 -0.0794 -0.4989 -0.6582
  402MOL0     H54216   0.101   5.285  10.227  2.5916 -0.5445  0.7620
  402MOL0     H54217   0.314   5.222  10.199  1.7675  0.9223 -1.7220
  402MOL0     H54218   0.231   5.069  10.163 -0.8081  0.4045  1.2195
  402MOL0     H54219   0.324   5.277   9.953  0.6704 -0.3115 -1.1279
  402MOL0     H54220   0.276   5.128   9.902  3.5173  3.2218 -3.2309
  402MOL0     H54221   0.578   5.305  10.046  3.4877  0.2318 -2.5709
  402MOL0     H54222   0.882   5.126  10.063  1.4984  0.4345  0.9177
  402MOL0     H54223   0.806   5.255  10.146  1.1985  0.9799 -2.0946
  402MOL0     H54224   0.947   5.059  10.278 -0.6338  0.5231 -0.3077
  402MOL0     H54225   0.808   4.962  10.259  1.6798 -1.1907  0.4784
  402MOL0     H54226   0.784   5.225  10.420  1.9948  0.1259  0.3292
  402MOL0     H54227   0.822   5.073  10.483  0.2042 -1.7229 -1.3515
  402MOL0     H54228   0.593   4.983  10.389  2.9215 -0.8985  0.8142
  402MOL0     H54229   0.549   5.159  10.355  0.8966  0.0536  1.1108
  402MOL0     H54230   0.345   5.230  10.493  2.2885 -0.7438 -1.3219
  402MOL0     H54231   0.127   5.279  10.455  1.5222  0.2921  1.5990
  402MOL0     H54232   0.050   5.136  10.387 -2.9191  1.1252 -0.1304
  402MOL0     H54233   0.011   5.193  10.545  0.3726 -0.2085 -0.6462
  402MOL0     H54234  -0.138   4.641  10.529 -0.2064  1.6903 -0.3958
  402MOL0     H54235  -0.358   4.568  10.608 -0.1129  2.5642 -1.0025
  402MOL0     H54236  -0.358   4.451  10.960  1.2788  0.7739 -0.5865
  402MOL0     H54237  -0.450   4.566  11.055  0.8928  1.8939 -1.1773
  402MOL0     H54238  -0.564   4.350  10.859 -1.4829  0.1507 -0.2726
  402MOL0     H54239  -0.562   4.349  11.027  2.8391  0.1659 -0.0614
  402MOL0     H54240  -0.700   4.575  10.862 -0.7554  1.2657  1.6586
  402MOL0     H54241  -0.718   4.552  11.038 -1.1823  2.5321 -1.7669
  402MOL0     H54242  -0.797   4.366  10.813  0.7406 -2.2921  1.4575
  402MOL0     H54243  -0.821   4.325  10.984 -0.5133 -1.1586 -0.0816
  402MOL0     H54244  -0.974   4.548  10.851  3.2752 -0.8805 -2.2156
  402MOL0     H54245  -0.995   4.490  11.021  0.8360  0.7005  0.1101
  402MOL0     H54246  -1.059   4.325  10.769  1.4761  2.1322  0.0093
  402MOL0     H54247  -1.059   4.267  10.931  5.3060 -0.0301  0.2235
  402MOL0     H54248  -1.214   4.507  10.828  0.3928 -2.1057 -2.2602
  402MOL0     H54249  -1.238   4.440  10.987  4.1531  1.0318  0.5411
  402MOL0     H54250  -1.433   4.364  10.856  0.4315  2.1181 -1.0789
  402MOL0     H54251  -1.321   4.222  10.871 -0.9553 -0.2735 -0.2420
  402MOL0     H54252  -0.268   4.735  11.003  3.9254  0.5746  1.5756
  402MOL0     H54253  -0.071   4.821  10.920  1.0769  0.8910 -1.1202
  402MOL0     H54254   0.273   4.808  10.725  0.9573  0.1683 -0.5544
  402MOL0     H54255   0.508   4.884  10.659  1.0806 -0.0021 -4.1691
  402MOL0     H54256   0.076   5.301   9.570  0.0254 -2.6571  1.5548
  402MOL0     H54257   0.312   5.289   9.587  1.9741  1.1214 -0.1998
  402MOL0     H54258   0.738   5.654   9.909  2.9880 -0.8366 -0.1056
  402MOL0     H54259   0.945   5.728   9.827 -1.4693  1.5327  0.6090
  402MOL0     H54260   1.242   5.747   9.611  0.9367  0.4778  0.8352
  402MOL0     H54261   1.137   5.745   9.754 -0.1136 -1.7877  1.0030
  402MOL0     H54262   1.167   5.512   9.792 -1.0795  1.1842  1.0049
  402MOL0     H54263   1.331   5.596   9.793 -1.0011  2.3742  0.9213
  402MOL0     H54264   1.364   5.528   9.552 -0.2631 -1.6862 -2.1522
  402MOL0     H54265   1.231   5.428   9.570 -0.8582  0.8276  0.8061
  402MOL0     H54266   1.481   5.395   9.738 -0.2768 -0.0843  1.6732
  402MOL0     H54267   1.422   5.301   9.601  0.2991  2.2424 -0.5079
  402MOL0     H54268   1.259   5.130   9.951 -1.2448 -1.0986 -0.8478
  402MOL0     H54269   0.911   5.482   9.476  0.3274  2.0184 -0.5074
  402MOL0     H54270   0.684   5.418   9.549 -2.4795  3.4000 -0.2186
  403MOL0     O54271   8.235  11.213   7.636 -0.2313  0.2924  0.1294
  403MOL0     C54272   8.281  11.212   7.745  0.1759 -0.3074  0.0320
  403MOL0     O54273   8.210  11.202   7.868 -0.4483 -0.1993  0.6094
  403MOL0     C54274   8.081  11.165   7.863  0.0968  1.0592 -0.6035
  403MOL0     C54275   7.976  11.238   7.922 -0.2372  0.2494  0.2092
  403MOL0     C54276   7.842  11.189   7.938  0.8109 -0.6679 -0.6533
  403MOL0     C54277   7.806  11.065   7.881 -0.4044 -0.1232 -0.3708
  403MOL0     O54278   7.678  11.002   7.898  0.2440 -0.3948 -0.4293
  403MOL0     C54279   7.569  11.085   7.837  0.1654  0.5941 -0.2975
  403MOL0     C54280   7.589  11.117   7.688  0.4898  0.6585  0.5016
  403MOL0     C54281   7.458  11.176   7.637  0.5529  0.7153  0.0890
  403MOL0     C54282   7.476  11.255   7.507 -0.0599 -0.0067  0.4687
  403MOL0     C54283   7.336  11.294   7.445  0.3771 -0.0696 -0.0515
  403MOL0     C54284   7.256  11.381   7.552  0.4595  0.3677  0.3586
  403MOL0     C54285   7.122  11.415   7.483  0.5849  0.6782  0.2023
  403MOL0     C54286   7.023  11.491   7.581 -0.0086  0.0510 -0.7354
  403MOL0     N54287   6.903  11.531   7.508  0.1489 -0.5291  1.2440
  403MOL0     C54288   6.805  11.455   7.456 -0.5378 -0.4313 -0.6994
  403MOL0     C54289   6.717  11.546   7.406  0.0190 -0.1293  0.3260
  403MOL0     C54290   6.587  11.520   7.332  0.0144 -0.6528 -1.2239
  403MOL0     C54291   6.466  11.596   7.380 -0.2737  0.6599 -0.8074
  403MOL0     C54292   6.347  11.564   7.296  0.0894 -0.4719 -0.0170
  403MOL0     C54293   6.218  11.632   7.344 -0.2855 -0.5498  0.3949
  403MOL0     O54294   6.109  11.563   7.279 -1.0336  0.1147  0.6310
  403MOL0     C54295   5.979  11.587   7.320  1.1943  0.2227 -1.2850
  403MOL0     C54296   5.886  11.506   7.273  0.6664  0.3533  0.2031
  403MOL0     C54297   5.753  11.538   7.298  0.9277  0.4564  0.2814
  403MOL0     C54298   5.658  11.445   7.234 -0.3555 -0.4011  0.2060
  403MOL0     C54299   5.702  11.625   7.393  0.3260  0.0586  0.1916
  403MOL0     C54300   5.560  11.646   7.445 -0.5316 -1.0478  0.2821
  403MOL0     O54301   5.541  11.762   7.517  0.1580  0.6411 -0.4862
  403MOL0     C54302   5.416  11.793   7.561  0.2259  0.1273  0.0810
  403MOL0     C54303   5.335  11.714   7.643  0.1613 -0.1522 -0.5764
  403MOL0     C54304   5.206  11.759   7.673 -0.5007 -0.8017 -0.6236
  403MOL0     C54305   5.156  11.888   7.644  0.0487  0.2080  0.4302
  403MOL0     O54306   5.024  11.935   7.672  0.5096 -0.8082 -0.3129
  403MOL0     C54307   4.950  11.869   7.777 -0.0410 -0.4019  0.2987
  403MOL0     C54308   4.822  11.944   7.808 -1.4391 -0.4841  0.0898
  403MOL0     C54309   4.718  11.935   7.699  0.3420 -0.0999 -0.2117
  403MOL0     C54310   4.592  11.882   7.768  0.1557  0.1444  0.0789
  403MOL0     C54311   4.533  11.995   7.847  0.1559  0.3585  0.8839
  403MOL0     C54312   4.389  11.982   7.888  0.4674 -0.0076 -0.3721
  403MOL0     C54313   4.290  12.026   7.780  0.2008  0.6920 -0.1910
  403MOL0     C54314   4.147  11.974   7.809 -0.8290  0.1197  0.2670
  403MOL0    Cl54315   4.156  11.798   7.828  0.0365 -0.3973  0.0488
  403MOL0     C54316   5.239  11.969   7.564  0.0648  0.0509  1.2500
  403MOL0     C54317   5.369  11.920   7.528  1.5111 -0.0690 -0.3388
  403MOL0     O54318   5.474  11.563   7.427  0.1041  0.3512 -0.1343
  403MOL0     C54319   5.808  11.708   7.447  1.0373 -0.2088 -0.1782
  403MOL0     C54320   5.939  11.694   7.410  0.2481  0.5061  0.5657
  403MOL0     N54321   6.760  11.676   7.429 -0.3960 -0.6325  0.1383
  403MOL0     N54322   6.871  11.663   7.483  0.0691 -0.9425  0.7037
  403MOL0     C54323   7.909  10.991   7.820 -0.3936 -0.5808 -0.1695
  403MOL0     C54324   8.047  11.043   7.815  0.3876 -0.1525 -0.6339
  403MOL0     C54325   8.422  11.232   7.752  0.2887  0.2737  0.4251
  403MOL0     C54326   8.472  11.310   7.859 -0.3312 -0.0596  0.6256
  403MOL0     C54327   8.609  11.323   7.883 -0.2952  0.5962  0.0701
  403MOL0     C54328   8.704  11.258   7.796  0.6538 -0.7790  0.1781
  403MOL0     O54329   8.838  11.264   7.805  0.3418 -0.3790 -0.3117
  403MOL0     C54330   8.891  11.320   7.925  0.0954 -1.3991 -0.1763
  403MOL0     C54331   9.034  11.313   7.921  0.5776 -0.8176 -0.4697
  403MOL0     C54332   9.068  11.165   7.913 -0.2228  0.0418 -0.2453
  403MOL0     C54333   9.214  11.149   7.882 -0.8510  0.1589 -0.0564
  403MOL0     C54334   9.302  11.154   7.998 -0.6485  0.0339  0.7506
  403MOL0     C54335   9.365  11.163   8.098 -0.5703 -0.8788 -0.2800
  403MOL0     C54336   8.646  11.187   7.693  0.5760  0.8968  0.5799
  403MOL0     C54337   8.513  11.171   7.674  0.6088 -0.0902  0.1471
  403MOL0     H54338   8.009  11.334   7.962  0.8532 -0.3849  0.9162
  403MOL0     H54339   7.770  11.245   7.996 -0.1320 -0.5221 -1.9345
  403MOL0     H54340   7.475  11.031   7.848  0.1281  0.8747  0.9405
  403MOL0     H54341   7.574  11.179   7.893  4.1020  0.7600 -0.6580
  403MOL0     H54342   7.671  11.190   7.686  1.7928 -0.5929  3.0420
  403MOL0     H54343   7.611  11.026   7.631  0.0098  1.3162 -0.7757
  403MOL0     H54344   7.389  11.091   7.626  0.1191  1.1457 -0.5971
  403MOL0     H54345   7.423  11.250   7.709 -0.3976 -0.7532  1.1948
  403MOL0     H54346   7.543  11.341   7.519  1.7506 -0.6853 -3.3519
  403MOL0     H54347   7.517  11.196   7.425 -1.2037 -0.3788  0.1498
  403MOL0     H54348   7.356  11.353   7.356 -2.0104  0.8279 -0.0426
  403MOL0     H54349   7.275  11.206   7.424  1.1556 -0.5963 -0.1667
  403MOL0     H54350   7.227  11.327   7.643 -2.6705  2.1983  0.5675
  403MOL0     H54351   7.310  11.470   7.586  0.5648  0.3523  0.2328
  403MOL0     H54352   7.150  11.466   7.391  1.9146 -0.1880  0.1000
  403MOL0     H54353   7.072  11.321   7.459  0.0827  1.3948 -1.6825
  403MOL0     H54354   7.072  11.580   7.621  0.8048 -0.8330  0.3355
  403MOL0     H54355   6.986  11.432   7.665 -0.5780 -1.1011 -1.7583
  403MOL0     H54356   6.803  11.346   7.462 -0.8249 -0.4714 -1.4469
  403MOL0     H54357   6.596  11.548   7.227 -0.5317 -0.5109 -1.2390
  403MOL0     H54358   6.567  11.413   7.341  1.7231 -0.8545  1.1514
  403MOL0     H54359   6.497  11.700   7.388  2.5842 -0.1459 -0.2210
  403MOL0     H54360   6.440  11.570   7.483 -5.1701  0.2544 -1.8957
  403MOL0     H54361   6.330  11.456   7.299  0.5827 -0.5271  2.3269
  403MOL0     H54362   6.362  11.589   7.190 -2.4905  0.2449 -0.2649
  403MOL0     H54363   6.226  11.739   7.322  2.2054 -0.5781  0.9114
  403MOL0     H54364   6.200  11.622   7.451 -1.0576  0.3088  0.3588
  403MOL0     H54365   5.914  11.424   7.208 -0.9144  1.3870 -1.9227
  403MOL0     H54366   5.692  11.401   7.140  1.0763  1.0941 -0.0176
  403MOL0     H54367   5.646  11.368   7.311 -1.0452 -0.8513 -0.3377
  403MOL0     H54368   5.560  11.490   7.215 -0.6744 -2.1291 -2.9133
  403MOL0     H54369   5.365  11.620   7.689 -1.9649  1.1495  4.1210
  403MOL0     H54370   5.149  11.697   7.741 -0.3595 -2.9967 -2.4071
  403MOL0     H54371   4.923  11.764   7.758 -0.2233 -0.6914  1.9686
  403MOL0     H54372   5.006  11.883   7.870  3.2609 -1.9897 -1.2427
  403MOL0     H54373   4.789  11.900   7.903 -1.6037 -1.8213 -0.5671
  403MOL0     H54374   4.856  12.048   7.815  0.1812 -1.0406  1.0096
  403MOL0     H54375   4.756  11.867   7.622 -0.6978  1.7239 -2.4560
  403MOL0     H54376   4.699  12.033   7.654  1.2869  1.2686  2.1812
  403MOL0     H54377   4.526  11.843   7.690 -0.2030  1.9779 -0.5616
  403MOL0     H54378   4.603  11.791   7.829 -1.0482 -2.1607 -2.8812
  403MOL0     H54379   4.532  12.087   7.787 -1.8505 -0.2140 -0.0141
  403MOL0     H54380   4.604  12.009   7.929  1.5521 -0.4670 -0.1429
  403MOL0     H54381   4.375  11.878   7.918  2.1864  0.4163  2.2746
  403MOL0     H54382   4.373  12.046   7.976  1.1632 -1.6059  0.9721
  403MOL0     H54383   4.315  11.974   7.687 -2.8633  1.1794 -1.4075
  403MOL0     H54384   4.292  12.132   7.755  0.7753  1.1928  1.7675
  403MOL0     H54385   4.089  12.010   7.724  0.7462 -0.1211 -0.9618
  403MOL0     H54386   4.125  12.023   7.904  3.0360  1.7685  0.5327
  403MOL0     H54387   5.201  12.065   7.533  0.3960  0.6574  2.6733
  403MOL0     H54388   5.426  11.991   7.469  0.5651  1.1959  0.2051
  403MOL0     H54389   5.793  11.797   7.507  0.9740 -0.2939 -0.0670
  403MOL0     H54390   6.025  11.754   7.440  4.0512 -4.2132  0.2756
  403MOL0     H54391   7.881  10.899   7.770 -1.9601  0.5728 -1.5410
  403MOL0     H54392   8.122  10.982   7.767  0.0743 -1.1517  0.1304
  403MOL0     H54393   8.412  11.339   7.944 -0.5617  0.6159  0.2366
  403MOL0     H54394   8.651  11.366   7.974  2.7414  3.3499 -2.3860
  403MOL0     H54395   8.858  11.424   7.930 -1.7046 -1.9394 -0.1282
  403MOL0     H54396   8.854  11.269   8.014  0.2971 -0.4508  0.4665
  403MOL0     H54397   9.077  11.362   8.009  1.6874 -3.8544  0.8271
  403MOL0     H54398   9.063  11.363   7.829 -3.4172 -0.9551 -1.9968
  403MOL0     H54399   9.014  11.115   7.832 -1.1850  0.8358 -0.1243
  403MOL0     H54400   9.043  11.117   8.008 -1.8683  2.2561  0.5375
  403MOL0     H54401   9.242  11.227   7.811 -2.0937  1.3039  0.6534
  403MOL0     H54402   9.229  11.052   7.834 -1.0967 -0.5202  1.1878
  403MOL0     H54403   9.429  11.163   8.185 -1.5093  0.4347  0.4526
  403MOL0     H54404   8.714  11.144   7.620 -0.2530  1.2324 -0.4218
  403MOL0     H54405   8.477  11.103   7.597  0.8544  1.8271 -1.7485
  404MOL0     O54406   9.848   7.640   1.344  0.9802 -0.4073 -0.1842
  404MOL0     C54407   9.940   7.621   1.274 -0.6425  0.1500  0.8063
  404MOL0     O54408   9.937   7.632   1.129  1.1758 -0.7636 -0.5408
  404MOL0     C54409   9.829   7.646   1.048 -0.4746 -0.1843 -0.1861
  404MOL0     C54410   9.702   7.686   1.098 -0.5863 -0.6998  0.4630
  404MOL0     C54411   9.597   7.707   1.011 -0.5689  0.0510 -0.4544
  404MOL0     C54412   9.611   7.683   0.873  0.3400 -1.0781 -0.5065
  404MOL0     O54413   9.502   7.712   0.794  0.1306 -0.1568  0.4127
  404MOL0     C54414   9.488   7.659   0.664  0.0088 -1.2129  0.1548
  404MOL0     C54415   9.355   7.701   0.610 -0.4885 -0.7241  0.9614
  404MOL0     C54416   9.236   7.637   0.681 -0.4810  0.2579  0.1491
  404MOL0     C54417   9.116   7.621   0.589  0.8821  0.5213  0.2607
  404MOL0     C54418   9.036   7.494   0.610 -0.4360  0.3911  0.3600
  404MOL0     C54419   8.925   7.471   0.510 -0.7340 -0.0542 -0.1119
  404MOL0     C54420   8.823   7.363   0.555 -0.6881 -0.3957  0.3684
  404MOL0     C54421   8.757   7.399   0.687 -0.5196  0.3513  0.0114
  404MOL0     N54422   8.620   7.341   0.684  0.4086  0.3489  0.4568
  404MOL0     C54423   8.498   7.382   0.634 -0.5062 -0.8138 -0.5319
  404MOL0     C54424   8.411   7.281   0.654  0.4306 -0.0257  0.9318
  404MOL0     C54425   8.265   7.268   0.603 -0.4083 -0.5310  0.1752
  404MOL0     C54426   8.180   7.155   0.679 -0.6743  0.9072 -0.2060
  404MOL0     C54427   8.167   7.194   0.824 -0.0311  0.6185  0.2575
  404MOL0     C54428   8.018   7.189   0.871  0.4089 -0.4181 -0.0862
  404MOL0     O54429   8.023   7.186   1.013 -0.2836 -0.4295  0.1418
  404MOL0     C54430   7.913   7.240   1.074 -1.3406 -0.1902  0.3345
  404MOL0     C54431   7.943   7.319   1.184  0.1211 -0.3990  0.0703
  404MOL0     C54432   7.839   7.384   1.263  0.9028 -0.2242  0.3044
  404MOL0     C54433   7.879   7.472   1.366 -0.1003  0.0071 -0.8566
  404MOL0     C54434   7.703   7.360   1.223 -0.4622  0.2133 -1.2036
  404MOL0     C54435   7.580   7.415   1.287 -0.9783 -0.3327  0.4892
  404MOL0     O54436   7.602   7.509   1.378  0.4012 -0.0709  0.9260
  404MOL0     C54437   7.508   7.566   1.452  0.9348 -0.0660 -0.0381
  404MOL0     C54438   7.513   7.706   1.484  0.3088 -0.7775  0.0577
  404MOL0     C54439   7.402   7.768   1.538 -0.0993  0.4275 -0.0361
  404MOL0     C54440   7.292   7.701   1.588  0.7537 -0.1819  0.1079
  404MOL0     O54441   7.183   7.784   1.631 -0.1735  0.6815  0.8846
  404MOL0     C54442   7.059   7.754   1.567  0.1840 -0.3693 -0.4986
  404MOL0     C54443   6.947   7.833   1.624 -0.5837  0.0613 -0.3920
  404MOL0     C54444   6.813   7.807   1.566  0.0168 -0.1212  0.1413
  404MOL0     C54445   6.704   7.870   1.659  0.3506 -0.5587 -0.3337
  404MOL0     C54446   6.578   7.876   1.575 -0.9440  0.5139  0.1497
  404MOL0     C54447   6.459   7.923   1.658  0.9467 -0.3648 -0.6668
  404MOL0     C54448   6.339   7.951   1.574  0.1136 -0.0955 -0.0864
  404MOL0     C54449   6.225   8.002   1.659 -0.1807 -0.2796  0.2204
  404MOL0    Cl54450   6.074   8.031   1.571  0.0377 -0.0366 -0.0671
  404MOL0     C54451   7.296   7.565   1.568  0.6680 -0.8773  0.1174
  404MOL0     C54452   7.400   7.496   1.504 -0.1562  0.4925  1.0585
  404MOL0     O54453   7.474   7.369   1.250 -0.0534  0.8062  0.3991
  404MOL0     C54454   7.681   7.285   1.112  0.4507  0.2893  0.6095
  404MOL0     C54455   7.778   7.225   1.032 -0.2168 -0.0987  0.0331
  404MOL0     N54456   8.476   7.174   0.705 -0.5915  0.2783 -0.2506
  404MOL0     N54457   8.602   7.209   0.723 -0.2224  0.6226 -0.0095
  404MOL0     C54458   9.742   7.643   0.825  0.0467  0.3291 -0.1634
  404MOL0     C54459   9.848   7.623   0.917 -0.4318  0.1646 -0.2748
  404MOL0     C54460  10.068   7.585   1.338 -0.5744  0.0303  0.3258
  404MOL0     C54461  10.088   7.550   1.475 -0.6039 -0.7000  0.9914
  404MOL0     C54462  10.211   7.515   1.526  0.2959  0.4367  1.2010
  404MOL0     C54463  10.323   7.516   1.448  0.0963  0.5155  0.5101
  404MOL0     O54464  10.444   7.480   1.512 -0.8047  0.0104 -0.2076
  404MOL0     C54465  10.563   7.453   1.425  1.6819  0.1339 -0.3379
  404MOL0     C54466  10.693   7.442   1.508 -0.7798  0.0346  0.1852
  404MOL0     C54467  10.819   7.401   1.430 -0.1192  0.5256 -0.4311
  404MOL0     C54468  10.870   7.524   1.352  0.6069 -0.1841  0.1205
  404MOL0     C54469  10.791   7.544   1.235 -0.0560 -0.3470  0.5814
  404MOL0     C54470  10.726   7.561   1.133 -0.1364 -0.2894  0.1172
  404MOL0     C54471  10.310   7.565   1.310 -0.0053  0.7826  0.6361
  404MOL0     C54472  10.189   7.582   1.252 -0.6734  0.8594  0.5445
  404MOL0     H54473   9.682   7.706   1.203 -1.1330  0.5144  0.1553
  404MOL0     H54474   9.500   7.730   1.053  0.5040 -1.3958  3.1967
  404MOL0     H54475   9.558   7.713   0.599  1.0204 -2.3149  0.2989
  404MOL0     H54476   9.500   7.551   0.653 -2.1029 -1.6817  1.8165
  404MOL0     H54477   9.336   7.807   0.628 -1.2465 -0.7543  0.4130
  404MOL0     H54478   9.361   7.674   0.505 -0.4666  1.2772  0.4117
  404MOL0     H54479   9.265   7.543   0.729 -2.6314  1.2650  3.7810
  404MOL0     H54480   9.199   7.700   0.762  3.0108  1.2289  1.1853
  404MOL0     H54481   9.044   7.702   0.597  0.5757  0.2020  0.8241
  404MOL0     H54482   9.145   7.626   0.483 -0.1156  0.9256 -0.0075
  404MOL0     H54483   9.111   7.414   0.615  1.6369  2.1669 -0.6436
  404MOL0     H54484   8.998   7.498   0.712  0.5961  0.9634  0.7396
  404MOL0     H54485   8.874   7.567   0.498 -1.5479 -0.3527  0.7755
  404MOL0     H54486   8.966   7.441   0.413  0.4883  1.2375 -0.0166
  404MOL0     H54487   8.750   7.352   0.475  0.3068  0.6201 -0.7076
  404MOL0     H54488   8.873   7.265   0.551  1.2295  0.5804 -2.3278
  404MOL0     H54489   8.748   7.506   0.703 -0.6517  0.4456 -0.6686
  404MOL0     H54490   8.815   7.358   0.771 -2.9230 -1.6681  0.7951
  404MOL0     H54491   8.471   7.481   0.598  0.8424 -0.3915 -0.4390
  404MOL0     H54492   8.203   7.358   0.609  0.1562 -0.1423  0.2295
  404MOL0     H54493   8.264   7.247   0.496  0.6140 -2.4063  0.4825
  404MOL0     H54494   8.226   7.056   0.672  0.5407  1.1577  2.8737
  404MOL0     H54495   8.083   7.163   0.629 -1.7754  2.3393  2.0228
  404MOL0     H54496   8.203   7.295   0.845  0.4062  0.0289  2.5932
  404MOL0     H54497   8.222   7.124   0.887  2.4456  2.4212  0.2416
  404MOL0     H54498   7.970   7.098   0.835 -1.0738  0.2343  0.1788
  404MOL0     H54499   7.962   7.273   0.829  0.5690  0.1496  0.7923
  404MOL0     H54500   8.043   7.331   1.225 -0.0169 -1.9083  0.9017
  404MOL0     H54501   7.826   7.458   1.461  0.4723  3.3450  0.0724
  404MOL0     H54502   7.979   7.452   1.404 -0.4887  0.7288  0.6387
  404MOL0     H54503   7.857   7.576   1.339 -1.2139 -0.4157 -1.6514
  404MOL0     H54504   7.591   7.773   1.448 -1.9952  1.6845 -0.7303
  404MOL0     H54505   7.419   7.875   1.539 -2.0082  0.7531  1.4279
  404MOL0     H54506   7.071   7.766   1.459 -0.9382  1.4949 -0.4516
  404MOL0     H54507   7.031   7.648   1.579 -0.2571 -0.1529  0.4382
  404MOL0     H54508   6.942   7.820   1.733  0.2736  2.6589  0.0176
  404MOL0     H54509   6.971   7.938   1.605 -0.8790 -0.0209 -1.2750
  404MOL0     H54510   6.790   7.700   1.566 -2.1988  0.2752  2.3659
  404MOL0     H54511   6.812   7.856   1.468  0.6410  1.2133  0.7812
  404MOL0     H54512   6.695   7.809   1.749 -0.2965 -0.1332 -0.1014
  404MOL0     H54513   6.730   7.971   1.691 -0.5935 -0.3241 -0.2600
  404MOL0     H54514   6.547   7.775   1.548  0.2252  0.1888 -0.0131
  404MOL0     H54515   6.600   7.935   1.486  0.9391 -0.7181 -0.2726
  404MOL0     H54516   6.430   7.850   1.733  0.3009  1.1732  0.6517
  404MOL0     H54517   6.488   8.016   1.707 -0.1715  0.6862 -1.9024
  404MOL0     H54518   6.307   7.860   1.521  0.6016  0.3897 -1.2434
  404MOL0     H54519   6.361   8.024   1.496  2.3711  1.0907  1.5385
  404MOL0     H54520   6.240   8.096   1.713 -2.3303  0.3327 -0.1579
  404MOL0     H54521   6.207   7.926   1.735  2.9756 -0.7116  0.6728
  404MOL0     H54522   7.205   7.511   1.596  0.9986 -1.4152  0.1626
  404MOL0     H54523   7.385   7.390   1.485 -1.9834  1.0939 -1.3525
  404MOL0     H54524   7.580   7.269   1.075 -0.1220  0.4970  1.9994
  404MOL0     H54525   7.760   7.177   0.936 -0.9170  0.5555 -0.1750
  404MOL0     H54526   9.767   7.631   0.720 -0.8229 -0.3416 -0.3029
  404MOL0     H54527   9.945   7.597   0.876 -0.1677 -1.2362  1.1334
  404MOL0     H54528   9.996   7.556   1.533 -0.6679  0.9297  0.7700
  404MOL0     H54529  10.236   7.496   1.630  0.8542  2.1583  1.4099
  404MOL0     H54530  10.553   7.359   1.371 -1.4385 -1.6505  2.9310
  404MOL0     H54531  10.564   7.544   1.363  2.3471  0.3375 -0.0343
  404MOL0     H54532  10.685   7.378   1.596  0.8641 -2.3884 -1.3208
  404MOL0     H54533  10.722   7.541   1.544  1.1687  0.4231 -2.1740
  404MOL0     H54534  10.805   7.314   1.365  1.1507 -0.4126  0.5078
  404MOL0     H54535  10.899   7.384   1.502  2.1369  0.1416 -2.8813
  404MOL0     H54536  10.974   7.503   1.326  0.5789 -0.3492  0.1462
  404MOL0     H54537  10.857   7.616   1.411 -0.1921 -0.5260  0.4856
  404MOL0     H54538  10.668   7.582   1.045 -0.4365  2.4486  0.8714
  404MOL0     H54539  10.392   7.604   1.250 -0.6076  1.0362 -0.0394
  404MOL0     H54540  10.192   7.599   1.145  1.0422 -0.6450  0.3150
  405MOL0     O54541   6.806   1.836   2.096  0.4429 -0.6906 -0.5048
  405MOL0     C54542   6.799   1.935   2.173  0.7586  0.6411 -0.2517
  405MOL0     O54543   6.693   2.020   2.180 -0.5958 -0.2536 -0.4462
  405MOL0     C54544   6.583   1.997   2.095  1.5741  0.4257 -0.8721
  405MOL0     C54545   6.584   1.960   1.969  0.2944  0.4890 -0.3636
  405MOL0     C54546   6.467   1.925   1.907 -0.3254  0.2512  0.5030
  405MOL0     C54547   6.340   1.956   1.970 -0.0706 -0.4013  0.4131
  405MOL0     O54548   6.212   1.931   1.916 -0.0358 -0.1023  0.0958
  405MOL0     C54549   6.210   1.881   1.789  0.6505  0.1633  0.3829
  405MOL0     C54550   6.071   1.865   1.737  0.8980  0.2158 -0.6324
  405MOL0     C54551   6.026   2.000   1.680  0.2972  0.3998  0.3409
  405MOL0     C54552   5.870   1.994   1.667  0.1514 -0.2843 -0.6436
  405MOL0     C54553   5.811   2.143   1.636 -0.5479 -0.0696 -0.0729
  405MOL0     C54554   5.669   2.132   1.578 -0.1047  0.4053 -0.3802
  405MOL0     C54555   5.634   2.271   1.533  0.0651 -0.2684  0.1759
  405MOL0     C54556   5.502   2.295   1.451  0.0040  0.9212  0.6204
  405MOL0     N54557   5.464   2.434   1.446 -0.0125  0.0041 -0.2030
  405MOL0     C54558   5.372   2.498   1.528 -0.7170  1.0682 -0.2409
  405MOL0     C54559   5.347   2.619   1.473  0.1192 -0.3579  0.6454
  405MOL0     C54560   5.273   2.739   1.524  0.1948  0.0061 -0.9061
  405MOL0     C54561   5.119   2.736   1.529  0.6278  0.1552 -0.3978
  405MOL0     C54562   5.065   2.723   1.387 -0.0044 -0.5025 -0.5282
  405MOL0     C54563   4.911   2.705   1.387 -0.2753 -1.1666  0.6621
  405MOL0     O54564   4.854   2.828   1.412 -0.4548 -0.3354 -0.1892
  405MOL0     C54565   4.717   2.851   1.395 -0.5087 -0.2012 -0.1145
  405MOL0     C54566   4.683   2.982   1.429 -0.0943  0.3967 -0.0124
  405MOL0     C54567   4.551   3.026   1.400  0.1851  0.7501 -0.4945
  405MOL0     C54568   4.520   3.165   1.435  0.1380  0.2780  0.0711
  405MOL0     C54569   4.454   2.933   1.351 -0.7915  0.3550  0.6307
  405MOL0     C54570   4.316   2.967   1.328  0.5475 -0.1291 -0.0871
  405MOL0     O54571   4.249   2.878   1.252  0.5988  0.5945  0.0124
  405MOL0     C54572   4.113   2.882   1.211 -0.7084  0.4126 -0.3132
  405MOL0     C54573   4.043   2.995   1.186 -0.5860  0.4052  0.3917
  405MOL0     C54574   3.909   2.989   1.152 -0.2960  0.1026  0.7506
  405MOL0     C54575   3.842   2.867   1.129  0.8178  0.5826 -0.6033
  405MOL0     O54576   3.702   2.854   1.117  0.0896 -0.1723  0.1306
  405MOL0     C54577   3.629   2.972   1.130 -0.5271 -0.5097  0.0470
  405MOL0     C54578   3.480   2.942   1.094 -0.1169 -0.2145 -0.4459
  405MOL0     C54579   3.401   3.072   1.117  0.9830  0.2452  0.3699
  405MOL0     C54580   3.266   3.087   1.043  0.6952  0.5438  0.3048
  405MOL0     C54581   3.167   3.183   1.118 -0.2437  0.1260 -0.5271
  405MOL0     C54582   3.045   3.218   1.026  0.7513  0.0127  0.4890
  405MOL0     C54583   2.982   3.347   1.094 -0.7941  0.1937 -0.8612
  405MOL0     C54584   2.852   3.382   1.025  0.3017  0.3123  0.1151
  405MOL0    Cl54585   2.875   3.415   0.860  0.4420  0.1413  0.1282
  405MOL0     C54586   3.918   2.755   1.148  1.1257  0.1675 -0.2732
  405MOL0     C54587   4.050   2.764   1.190  0.1032 -0.3333 -0.8396
  405MOL0     O54588   4.250   3.054   1.396 -1.4704 -0.2144  0.1269
  405MOL0     C54589   4.495   2.801   1.314 -0.5120  0.4861  0.8381
  405MOL0     C54590   4.624   2.759   1.337 -0.2871 -1.2047  0.6844
  405MOL0     N54591   5.416   2.615   1.347  0.3404  0.3315 -0.1714
  405MOL0     N54592   5.482   2.507   1.337  0.0336 -0.2015 -0.0902
  405MOL0     C54593   6.341   2.004   2.100  0.2315 -0.7306  0.0812
  405MOL0     C54594   6.462   2.030   2.160  0.6821 -0.2634  0.2432
  405MOL0     C54595   6.913   1.953   2.270  0.0079  0.0057  0.7935
  405MOL0     C54596   6.947   2.080   2.317  0.5030  0.8260 -0.2774
  405MOL0     C54597   7.049   2.092   2.406 -0.0637  0.0313 -0.9359
  405MOL0     C54598   7.122   1.982   2.453  0.3620  0.3504 -0.0189
  405MOL0     O54599   7.216   1.993   2.546  0.0043  0.7037  0.5963
  405MOL0     C54600   7.271   2.119   2.590 -0.4965  0.3822 -0.4205
  405MOL0     C54601   7.418   2.097   2.627 -0.3572 -0.6300  0.2663
  405MOL0     C54602   7.508   2.063   2.503  0.2238  0.0929 -0.3889
  405MOL0     C54603   7.654   2.093   2.526 -0.5414  0.0926  0.1442
  405MOL0     C54604   7.706   2.022   2.646  0.5708 -0.3059 -0.2639
  405MOL0     C54605   7.745   1.969   2.742  0.8553  0.4427 -0.5547
  405MOL0     C54606   7.094   1.857   2.398 -1.0904 -0.5257 -0.4156
  405MOL0     C54607   6.995   1.841   2.311 -0.2361  0.1070  0.5083
  405MOL0     H54608   6.681   1.949   1.922 -0.8970  0.2223 -2.9089
  405MOL0     H54609   6.470   1.876   1.810 -1.4061 -1.5644  1.3347
  405MOL0     H54610   6.277   1.928   1.717 -0.2197  1.0887  0.1599
  405MOL0     H54611   6.245   1.778   1.792 -0.8937 -0.4250 -0.3438
  405MOL0     H54612   6.062   1.783   1.665  3.6799  1.9742 -3.1875
  405MOL0     H54613   6.008   1.831   1.820  1.2723 -1.9549 -1.1694
  405MOL0     H54614   6.048   2.097   1.724 -1.8360  0.8089  0.6113
  405MOL0     H54615   6.073   2.003   1.581  0.1297 -0.2098  0.2392
  405MOL0     H54616   5.850   1.929   1.581  0.7092  0.6430 -1.4898
  405MOL0     H54617   5.820   1.939   1.748  1.8758  0.3548  0.9382
  405MOL0     H54618   5.812   2.207   1.725 -4.7075  0.5387 -0.2592
  405MOL0     H54619   5.881   2.184   1.563 -1.4763  2.1898  0.1987
  405MOL0     H54620   5.661   2.059   1.497 -0.0274 -0.2010  0.1444
  405MOL0     H54621   5.596   2.103   1.655 -2.0183  1.9890 -1.4887
  405MOL0     H54622   5.648   2.343   1.614  2.6481 -2.1552  1.5379
  405MOL0     H54623   5.722   2.281   1.468 -0.6845  2.4086 -0.5685
  405MOL0     H54624   5.422   2.237   1.497  1.0506  0.2936  1.7229
  405MOL0     H54625   5.519   2.244   1.355 -1.1345 -0.5668  1.1613
  405MOL0     H54626   5.337   2.468   1.627 -0.1403 -0.0974 -0.3747
  405MOL0     H54627   5.308   2.758   1.626 -1.1935 -1.8694 -0.0308
  405MOL0     H54628   5.297   2.827   1.464 -0.8235 -0.8142 -2.5634
  405MOL0     H54629   5.081   2.828   1.572 -2.9418 -0.3018 -2.2313
  405MOL0     H54630   5.086   2.667   1.607 -1.4872 -0.2572 -1.5766
  405MOL0     H54631   5.105   2.630   1.345  0.2338  0.1408 -1.7523
  405MOL0     H54632   5.097   2.805   1.322 -0.7341 -0.8644 -1.3659
  405MOL0     H54633   4.875   2.633   1.460 -0.3663 -1.5812  0.2176
  405MOL0     H54634   4.870   2.676   1.289 -4.2494  1.9262  1.1521
  405MOL0     H54635   4.748   3.060   1.468  0.8193  0.4803 -1.6441
  405MOL0     H54636   4.436   3.179   1.504 -1.6828 -0.6564 -1.8380
  405MOL0     H54637   4.603   3.227   1.467  1.8072 -0.5910 -2.3265
  405MOL0     H54638   4.491   3.218   1.344 -0.4746  1.9158  1.1821
  405MOL0     H54639   4.102   3.086   1.194  0.9770 -0.2904 -2.1868
  405MOL0     H54640   3.850   3.078   1.133 -1.7641 -1.2704 -1.7444
  405MOL0     H54641   3.644   3.007   1.233  0.4109  1.4778 -0.7213
  405MOL0     H54642   3.668   3.054   1.069  0.2181 -0.3577  0.7140
  405MOL0     H54643   3.478   2.927   0.986 -0.2878 -0.2398 -0.4392
  405MOL0     H54644   3.435   2.853   1.140  0.5486 -0.8182 -0.9448
  405MOL0     H54645   3.471   3.148   1.084 -0.5403  2.3487  1.6939
  405MOL0     H54646   3.389   3.084   1.225  0.0291 -1.7031  0.5299
  405MOL0     H54647   3.289   3.132   0.946 -0.0431 -2.0973 -1.2235
  405MOL0     H54648   3.218   2.990   1.027  2.1948 -0.7934  3.1371
  405MOL0     H54649   3.220   3.276   1.137 -0.5044  0.2550 -0.4241
  405MOL0     H54650   3.140   3.147   1.218 -1.1299 -0.9380 -1.1236
  405MOL0     H54651   3.070   3.237   0.921 -0.3055  3.0006  0.6786
  405MOL0     H54652   2.970   3.138   1.024 -1.9278  2.3758 -1.0989
  405MOL0     H54653   3.058   3.425   1.082 -2.6109  2.0315 -0.8831
  405MOL0     H54654   2.963   3.332   1.200 -2.5592 -4.2356 -1.5881
  405MOL0     H54655   2.788   3.460   1.067  0.4279  0.0597  0.7828
  405MOL0     H54656   2.790   3.293   1.041  0.6263  0.1328  0.3789
  405MOL0     H54657   3.873   2.656   1.151 -1.5144  1.2754  2.3477
  405MOL0     H54658   4.120   2.682   1.203 -0.2906 -0.1871  4.6890
  405MOL0     H54659   4.427   2.728   1.272  0.7068  0.2568 -0.8383
  405MOL0     H54660   4.659   2.664   1.299  0.0063 -1.2090  0.9569
  405MOL0     H54661   6.244   2.017   2.146 -0.3793 -0.7018 -1.1603
  405MOL0     H54662   6.466   2.074   2.259  0.4329 -0.3395  0.2876
  405MOL0     H54663   6.902   2.170   2.276 -0.9331  0.7963  1.1149
  405MOL0     H54664   7.069   2.193   2.438  1.2470 -0.4227 -0.2231
  405MOL0     H54665   7.267   2.193   2.510  2.3854  1.6981  0.5155
  405MOL0     H54666   7.225   2.154   2.683 -4.9733  0.5737 -2.4725
  405MOL0     H54667   7.435   2.029   2.711 -2.9511  0.8013  2.0975
  405MOL0     H54668   7.447   2.194   2.668 -1.5617 -1.1768  2.5885
  405MOL0     H54669   7.477   2.126   2.420  0.2754  1.0922  0.3358
  405MOL0     H54670   7.490   1.959   2.473 -2.8281  0.6993 -1.0084
  405MOL0     H54671   7.683   2.198   2.538  0.3103 -0.2138  0.8117
  405MOL0     H54672   7.720   2.060   2.444  0.4777 -1.9078  1.6912
  405MOL0     H54673   7.783   1.924   2.832  0.3172 -0.0042 -0.5471
  405MOL0     H54674   7.149   1.769   2.432 -1.4313 -0.6407 -0.1522
  405MOL0     H54675   6.977   1.746   2.263  2.8946 -1.2303  1.7132
  406MOL0     O54676   0.310   8.832   9.513  0.1196  0.2718 -0.2253
  406MOL0     C54677   0.277   8.869   9.630  0.1825  0.1569 -0.1768
  406MOL0     O54678   0.146   8.891   9.664 -0.3397  0.0462  0.4076
  406MOL0     C54679   0.044   8.870   9.583 -0.9065  0.2854  0.0608
  406MOL0     C54680   0.027   8.771   9.493  0.4782  0.1455 -0.5791
  406MOL0     C54681  -0.095   8.761   9.427  0.1345 -1.0795  0.5508
  406MOL0     C54682  -0.189   8.868   9.436  0.4272  0.9908 -0.3262
  406MOL0     O54683  -0.299   8.866   9.352 -0.1756  0.1390  0.3656
  406MOL0     C54684  -0.398   8.970   9.342 -0.0083  0.4372  0.0601
  406MOL0     C54685  -0.529   8.911   9.288 -0.7707 -0.1761  0.0395
  406MOL0     C54686  -0.538   8.889   9.133  0.8307 -0.0359  0.7100
  406MOL0     C54687  -0.651   8.809   9.074  0.4857  0.4982  0.0835
  406MOL0     C54688  -0.784   8.876   9.049 -1.0184  1.1358  0.4854
  406MOL0     C54689  -0.899   8.773   9.016 -0.2237  0.0219 -0.3952
  406MOL0     C54690  -1.044   8.823   8.994  0.5318  0.2978 -0.9307
  406MOL0     C54691  -1.149   8.706   8.979  0.4551 -0.8955  0.1107
  406MOL0     N54692  -1.288   8.761   8.967  0.4279  0.6557 -0.1401
  406MOL0     C54693  -1.322   8.885   8.991  0.6095 -0.4253 -0.4678
  406MOL0     C54694  -1.457   8.891   8.960  0.0876 -0.1891 -0.8641
  406MOL0     C54695  -1.538   9.014   8.977 -0.4241 -0.3413 -0.3130
  406MOL0     C54696  -1.480   9.145   8.916  0.4518  0.4259 -0.0304
  406MOL0     C54697  -1.453   9.129   8.765  0.4330 -0.6813 -0.1867
  406MOL0     C54698  -1.397   9.268   8.716 -0.2930  0.0813  0.0276
  406MOL0     O54699  -1.319   9.248   8.606 -0.1207 -0.2842  0.4342
  406MOL0     C54700  -1.243   9.338   8.539  0.1054  0.4198  0.5494
  406MOL0     C54701  -1.233   9.474   8.576 -0.2912 -0.2758 -0.0028
  406MOL0     C54702  -1.135   9.556   8.525  0.3982 -0.3654  0.5868
  406MOL0     C54703  -1.135   9.702   8.567  0.1042  0.8580  0.2556
  406MOL0     C54704  -1.049   9.513   8.424  0.6414 -0.7933  0.7257
  406MOL0     C54705  -0.938   9.607   8.371  0.6633  0.2282  0.0456
  406MOL0     O54706  -0.884   9.705   8.446  0.2071 -0.0705  0.2220
  406MOL0     C54707  -0.789   9.790   8.401 -1.4289  0.4323 -0.4812
  406MOL0     C54708  -0.774   9.899   8.480 -0.5458 -0.1984 -0.1038
  406MOL0     C54709  -0.680  10.002   8.448  0.3107 -0.3208  0.6385
  406MOL0     C54710  -0.602   9.995   8.333 -0.1293  0.5195  0.3528
  406MOL0     O54711  -0.496  10.084   8.322  0.0001  0.7078 -0.0639
  406MOL0     C54712  -0.412  10.089   8.215 -0.0621  0.1878 -0.8937
  406MOL0     C54713  -0.274  10.048   8.260  0.4985  0.5449 -0.7030
  406MOL0     C54714  -0.289   9.900   8.308 -0.7549  0.2274  0.2606
  406MOL0     C54715  -0.148   9.840   8.330 -0.1408  0.0319  0.6971
  406MOL0     C54716  -0.073   9.889   8.465 -0.1645  0.2312  0.0870
  406MOL0     C54717   0.063   9.816   8.492  0.7413 -0.2424  0.4356
  406MOL0     C54718   0.116   9.811   8.629  1.0925  0.7148 -0.3576
  406MOL0     C54719   0.118   9.955   8.692  0.7440  1.0692  0.6928
  406MOL0    Cl54720   0.195   9.946   8.848 -0.1750  0.0933 -0.3787
  406MOL0     C54721  -0.623   9.878   8.258 -0.6325 -0.1119  0.5768
  406MOL0     C54722  -0.716   9.778   8.290 -0.9095 -0.9100  1.1166
  406MOL0     O54723  -0.910   9.582   8.257 -0.2551  0.3562 -0.2474
  406MOL0     C54724  -1.046   9.382   8.394  0.4596 -0.1508 -0.8446
  406MOL0     C54725  -1.144   9.292   8.453 -0.5828 -0.0873  0.0594
  406MOL0     N54726  -1.497   8.763   8.937 -0.7458 -0.2472  0.2557
  406MOL0     N54727  -1.399   8.684   8.941  0.6226  0.0261  0.1210
  406MOL0     C54728  -0.161   8.976   9.518  0.1244 -0.1452 -0.3405
  406MOL0     C54729  -0.046   8.974   9.589 -0.2580 -0.0459  0.5698
  406MOL0     C54730   0.383   8.889   9.730 -0.1517 -0.7064 -0.6967
  406MOL0     C54731   0.335   8.904   9.865 -0.4800 -0.9010 -0.0389
  406MOL0     C54732   0.420   8.906   9.973  1.2069 -0.3814  0.1187
  406MOL0     C54733   0.555   8.902   9.957 -0.7892 -0.7571  0.4303
  406MOL0     O54734   0.653   8.913  10.054  0.3319  0.3142 -0.0893
  406MOL0     C54735   0.615   8.965  10.184  0.2268 -0.2224 -0.3769
  406MOL0     C54736   0.742   8.991  10.260  0.6058 -0.7170 -0.5499
  406MOL0     C54737   0.821   8.867  10.275 -0.0308  0.5320 -0.1367
  406MOL0     C54738   0.950   8.901  10.343 -0.3087 -0.5901 -1.1486
  406MOL0     C54739   0.954   8.936  10.493  0.3545 -0.1406 -0.0655
  406MOL0     C54740   0.959   8.975  10.605  0.2755 -0.9079 -0.0025
  406MOL0     C54741   0.611   8.888   9.826 -0.0198 -0.2266 -0.1875
  406MOL0     C54742   0.525   8.877   9.716  0.6068  0.2957 -0.9257
  406MOL0     H54743   0.104   8.695   9.483 -0.1835 -0.6794  0.4523
  406MOL0     H54744  -0.120   8.674   9.367 -1.6954 -1.3094  1.5760
  406MOL0     H54745  -0.422   9.007   9.442  0.4949 -0.2663  0.4487
  406MOL0     H54746  -0.364   9.051   9.276 -0.1542 -2.4957 -4.0309
  406MOL0     H54747  -0.556   8.820   9.342 -0.8440 -0.4057 -0.3785
  406MOL0     H54748  -0.606   8.986   9.309 -0.2907  0.1047  0.8140
  406MOL0     H54749  -0.546   8.988   9.087  1.4706 -0.2190  0.1969
  406MOL0     H54750  -0.444   8.844   9.099  0.1802 -0.7316 -0.2578
  406MOL0     H54751  -0.619   8.761   8.981  1.0109  1.2435 -0.1254
  406MOL0     H54752  -0.677   8.732   9.148  0.6584  0.8054  0.4700
  406MOL0     H54753  -0.808   8.928   9.143  2.9694 -1.5336  3.2875
  406MOL0     H54754  -0.761   8.937   8.961  1.9219 -0.9063 -0.3090
  406MOL0     H54755  -0.866   8.727   8.922  1.2192 -2.1180  1.0697
  406MOL0     H54756  -0.903   8.694   9.092  0.8271  0.9486  0.6414
  406MOL0     H54757  -1.068   8.886   9.080 -0.6604  0.0390 -1.0506
  406MOL0     H54758  -1.049   8.888   8.906 -1.2830  3.0073  1.0164
  406MOL0     H54759  -1.123   8.629   9.052  0.5533 -0.8366  0.1386
  406MOL0     H54760  -1.115   8.669   8.882  0.1626  2.2043 -1.3077
  406MOL0     H54761  -1.264   8.969   9.030 -0.5458  0.0547  0.2710
  406MOL0     H54762  -1.634   8.996   8.928 -0.6920 -0.9317  0.4094
  406MOL0     H54763  -1.546   9.025   9.086 -0.7606 -0.2655 -0.3453
  406MOL0     H54764  -1.389   9.178   8.968  0.6334 -0.6655  0.3813
  406MOL0     H54765  -1.552   9.224   8.941 -1.3099 -0.9558 -0.5036
  406MOL0     H54766  -1.538   9.092   8.706  1.3260  0.2481 -2.1335
  406MOL0     H54767  -1.377   9.053   8.745 -1.2587 -2.8367  1.1352
  406MOL0     H54768  -1.335   9.318   8.792 -0.3175 -1.2354  0.9626
  406MOL0     H54769  -1.481   9.336   8.700 -1.9006 -1.7953  0.0238
  406MOL0     H54770  -1.305   9.525   8.639 -1.2273  1.0584 -2.0419
  406MOL0     H54771  -1.215   9.721   8.639 -0.0809  1.9830 -0.2380
  406MOL0     H54772  -1.047   9.736   8.621  1.0605  1.1942 -1.4381
  406MOL0     H54773  -1.158   9.765   8.481 -1.1971 -1.2630 -1.0698
  406MOL0     H54774  -0.840   9.900   8.565 -3.9376 -0.0799 -2.5389
  406MOL0     H54775  -0.686  10.079   8.525 -3.2047  0.9444 -0.6514
  406MOL0     H54776  -0.441  10.027   8.129  2.1710  1.7802 -2.9606
  406MOL0     H54777  -0.407  10.188   8.170  2.4720  0.5326  0.0031
  406MOL0     H54778  -0.200  10.047   8.180  1.9778 -2.4746  0.5521
  406MOL0     H54779  -0.243  10.118   8.339  0.8355  0.2586 -0.5816
  406MOL0     H54780  -0.341   9.836   8.236  0.0670 -3.0030  2.3444
  406MOL0     H54781  -0.339   9.890   8.404  1.4408 -0.8666  1.3582
  406MOL0     H54782  -0.169   9.732   8.332  1.2713 -0.2535  2.0127
  406MOL0     H54783  -0.080   9.863   8.247 -0.8773  0.0764  0.0941
  406MOL0     H54784  -0.139   9.865   8.549 -0.4681 -0.1054 -0.2422
  406MOL0     H54785  -0.063   9.998   8.469  0.7721  0.1260  1.3813
  406MOL0     H54786   0.052   9.715   8.450  1.7586  0.4052 -1.5441
  406MOL0     H54787   0.140   9.865   8.432 -0.6822  0.1919 -1.0982
  406MOL0     H54788   0.219   9.775   8.619  0.4127 -1.6086  0.4804
  406MOL0     H54789   0.056   9.745   8.692  1.1013 -0.8991 -1.9865
  406MOL0     H54790   0.018   9.999   8.695  0.4678  0.6343 -1.2577
  406MOL0     H54791   0.171  10.019   8.621  0.0169  3.1390  1.8974
  406MOL0     H54792  -0.568   9.846   8.170 -1.4683 -2.0303  0.7031
  406MOL0     H54793  -0.718   9.698   8.217 -1.8619  2.4159 -2.8615
  406MOL0     H54794  -0.967   9.347   8.328  1.1605  0.5316 -0.3636
  406MOL0     H54795  -1.126   9.186   8.436  1.3880 -0.2216  2.4339
  406MOL0     H54796  -0.225   9.063   9.518 -1.6427 -1.3136  1.9108
  406MOL0     H54797  -0.041   9.056   9.661  1.3832  0.3989  0.0066
  406MOL0     H54798   0.228   8.902   9.877 -0.6681 -6.0993 -0.2191
  406MOL0     H54799   0.380   8.919  10.073  0.3233  1.0019 -0.3846
  406MOL0     H54800   0.563   9.060  10.173 -0.0053 -0.2885  0.1480
  406MOL0     H54801   0.547   8.900  10.241  1.2780 -1.3219 -0.3150
  406MOL0     H54802   0.714   9.027  10.359 -0.2187 -1.0532 -0.6488
  406MOL0     H54803   0.788   9.076  10.210 -1.6671 -1.1769 -3.7842
  406MOL0     H54804   0.828   8.830  10.173 -2.1671  0.7180 -0.3929
  406MOL0     H54805   0.774   8.790  10.337 -0.5140  1.0598  0.1587
  406MOL0     H54806   1.012   8.968  10.283  1.1518  0.4660  1.3410
  406MOL0     H54807   1.002   8.804  10.337 -0.3801 -0.6556 -0.7647
  406MOL0     H54808   0.976   9.009  10.705 -1.0751  4.5586 -1.3377
  406MOL0     H54809   0.717   8.875   9.812  0.5264 -1.2202  3.7635
  406MOL0     H54810   0.571   8.854   9.620  1.0912  1.0645 -0.8905
  407MOL0     O54811   6.077   5.805   8.060  0.1085 -0.1107  0.4139
  407MOL0     C54812   6.129   5.854   7.965 -0.4818  0.7470 -0.4478
  407MOL0     O54813   6.071   5.940   7.880 -0.4197 -0.0020 -1.0151
  407MOL0     C54814   5.937   5.958   7.909 -0.2347 -0.4733 -0.9479
  407MOL0     C54815   5.837   5.888   7.841 -0.6255 -0.0237 -0.0715
  407MOL0     C54816   5.705   5.915   7.863 -1.2232  0.2589 -0.2941
  407MOL0     C54817   5.670   6.036   7.936  0.1651  0.9516  0.3715
  407MOL0     O54818   5.546   6.083   7.964 -1.0356 -0.2704 -1.0580
  407MOL0     C54819   5.451   6.044   7.863 -0.0700 -0.1110  0.1749
  407MOL0     C54820   5.336   6.145   7.884  0.0321  0.3508  1.1893
  407MOL0     C54821   5.227   6.118   7.787  0.2708  0.0191  1.0924
  407MOL0     C54822   5.108   6.206   7.830 -0.2617 -0.3937 -0.7191
  407MOL0     C54823   4.987   6.172   7.745  0.8620 -1.2017 -0.3686
  407MOL0     C54824   4.866   6.255   7.796 -0.5276  0.1994 -0.0071
  407MOL0     C54825   4.748   6.225   7.711  0.4908  0.8029  0.0229
  407MOL0     C54826   4.615   6.270   7.782  0.2540  0.2387 -1.2399
  407MOL0     N54827   4.519   6.290   7.682 -0.1426  0.1289  0.7028
  407MOL0     C54828   4.464   6.404   7.642  0.7352 -0.9835 -0.0026
  407MOL0     C54829   4.347   6.366   7.582 -1.0695  0.2492  0.6411
  407MOL0     C54830   4.254   6.460   7.515  0.2198 -0.3892  0.1433
  407MOL0     C54831   4.192   6.555   7.616 -0.0325  0.0048 -0.4954
  407MOL0     C54832   4.096   6.667   7.554  0.1411  0.2025  0.2955
  407MOL0     C54833   3.966   6.597   7.506 -0.2265  0.3863 -0.3118
  407MOL0     O54834   3.877   6.698   7.458 -0.3765 -0.7978 -0.5100
  407MOL0     C54835   3.776   6.738   7.551 -0.7327  0.2676  0.6472
  407MOL0     C54836   3.784   6.728   7.694  0.1134 -0.5632  0.0484
  407MOL0     C54837   3.697   6.794   7.778  0.4579 -0.2745 -0.6217
  407MOL0     C54838   3.719   6.761   7.924 -0.2593  0.3183  0.2940
  407MOL0     C54839   3.586   6.863   7.720  0.4095  0.2962 -0.1336
  407MOL0     C54840   3.481   6.938   7.805  0.1030 -0.0711  0.9377
  407MOL0     O54841   3.370   6.983   7.727 -0.7249  0.1150  0.6507
  407MOL0     C54842   3.260   7.030   7.783  0.3969 -0.7176  0.0453
  407MOL0     C54843   3.154   6.943   7.796 -0.1314 -0.3492 -0.9096
  407MOL0     C54844   3.032   6.985   7.842 -0.3096 -1.2274  0.9247
  407MOL0     C54845   3.008   7.118   7.868 -0.6417  0.7877 -0.1789
  407MOL0     O54846   2.888   7.167   7.915 -0.1185  0.3301  0.0558
  407MOL0     C54847   2.802   7.080   7.985 -0.8852 -0.1957 -0.1654
  407MOL0     C54848   2.721   7.158   8.095  0.0830 -0.3694 -0.0539
  407MOL0     C54849   2.622   7.266   8.042 -0.6301  0.4157  0.3701
  407MOL0     C54850   2.554   7.332   8.165  0.5062  0.7209  0.0437
  407MOL0     C54851   2.465   7.454   8.112  0.3784  0.6895  0.3574
  407MOL0     C54852   2.469   7.573   8.210 -0.5041  0.6982 -0.1628
  407MOL0     C54853   2.405   7.706   8.164 -0.3042  0.6001  0.4153
  407MOL0     C54854   2.501   7.787   8.074 -0.6437 -0.1068  0.5982
  407MOL0    Cl54855   2.635   7.861   8.167 -0.3675 -0.2129  0.4253
  407MOL0     C54856   3.109   7.215   7.853  0.2674  1.0502 -0.4151
  407MOL0     C54857   3.236   7.176   7.805  0.3559 -0.7176  0.5013
  407MOL0     O54858   3.484   6.952   7.929 -0.1565  0.1465  0.1380
  407MOL0     C54859   3.580   6.869   7.578 -0.3136  0.4397 -0.1115
  407MOL0     C54860   3.673   6.805   7.498  0.4011 -0.1352 -0.3030
  407MOL0     N54861   4.331   6.230   7.581 -1.3934  0.1980 -0.3305
  407MOL0     N54862   4.439   6.189   7.630  0.2842  0.2072  0.2038
  407MOL0     C54863   5.766   6.118   7.989 -0.2447 -0.0727  0.9891
  407MOL0     C54864   5.900   6.071   7.984 -0.1897 -0.0353  0.0675
  407MOL0     C54865   6.278   5.826   7.973  0.8241 -0.2585 -1.2812
  407MOL0     C54866   6.348   5.764   8.080  0.5988  0.5882  0.8656
  407MOL0     C54867   6.489   5.734   8.062  0.4950 -0.2183  0.6036
  407MOL0     C54868   6.562   5.779   7.954  0.1280  0.5020  0.1725
  407MOL0     O54869   6.698   5.762   7.953  0.9707 -0.2857 -0.0687
  407MOL0     C54870   6.766   5.803   7.835  0.0935  0.9183  0.0340
  407MOL0     C54871   6.911   5.782   7.869 -0.4176 -0.2870 -0.1720
  407MOL0     C54872   6.948   5.634   7.911  0.0163  0.6474  0.6108
  407MOL0     C54873   6.927   5.534   7.794 -0.2776  0.4622  0.7292
  407MOL0     C54874   7.010   5.568   7.678 -0.2624  0.0215 -0.1761
  407MOL0     C54875   7.069   5.605   7.580  0.6878  0.4296  0.0799
  407MOL0     C54876   6.489   5.847   7.850 -0.0113  0.0184 -0.5512
  407MOL0     C54877   6.349   5.868   7.859 -0.6793 -0.2473 -0.2020
  407MOL0     H54878   5.868   5.802   7.783  0.4164 -0.2730  0.8153
  407MOL0     H54879   5.632   5.845   7.824  0.5426 -2.8382  1.5446
  407MOL0     H54880   5.487   6.050   7.760 -0.7216  0.6465 -0.0188
  407MOL0     H54881   5.415   5.942   7.879  0.1273 -0.2668 -0.3484
  407MOL0     H54882   5.304   6.132   7.988  2.1360 -2.0356  1.6309
  407MOL0     H54883   5.379   6.243   7.863 -0.2579  0.1268 -0.5746
  407MOL0     H54884   5.245   6.140   7.681 -0.6495  2.1597  1.3144
  407MOL0     H54885   5.205   6.012   7.795  0.7169  0.0422  3.2011
  407MOL0     H54886   5.088   6.193   7.936  0.1822 -0.9069 -0.6987
  407MOL0     H54887   5.128   6.314   7.827  0.0749 -0.3128  2.0520
  407MOL0     H54888   5.013   6.190   7.640 -0.0729  1.5930 -0.1921
  407MOL0     H54889   4.960   6.067   7.759  1.0614 -1.2123 -0.0476
  407MOL0     H54890   4.840   6.242   7.902 -1.6830 -2.8169 -0.5668
  407MOL0     H54891   4.891   6.361   7.783  3.1441 -0.7393 -1.8298
  407MOL0     H54892   4.760   6.263   7.609 -4.4488 -0.7122 -1.4188
  407MOL0     H54893   4.751   6.117   7.693  0.4050  0.7622  0.2471
  407MOL0     H54894   4.647   6.365   7.825  2.8882 -0.8523 -0.5709
  407MOL0     H54895   4.595   6.199   7.863  2.0668 -1.5210 -2.2157
  407MOL0     H54896   4.484   6.508   7.669 -2.4823 -0.1293 -0.4516
  407MOL0     H54897   4.317   6.512   7.441 -1.3876 -0.6790 -1.5109
  407MOL0     H54898   4.174   6.409   7.461 -1.0956  1.1848  0.5471
  407MOL0     H54899   4.256   6.606   7.689 -2.3701  1.0358  0.9641
  407MOL0     H54900   4.119   6.500   7.677  0.4751  0.6347  0.7246
  407MOL0     H54901   4.150   6.711   7.469 -0.9127  0.9539 -0.0067
  407MOL0     H54902   4.082   6.742   7.632  0.5986  1.6555 -0.9676
  407MOL0     H54903   3.916   6.545   7.587 -1.7715  1.4285 -0.5470
  407MOL0     H54904   3.991   6.521   7.431  1.7289  2.5430 -2.0227
  407MOL0     H54905   3.870   6.675   7.732  1.8311 -0.3911 -3.2095
  407MOL0     H54906   3.623   6.757   7.975  0.2718 -3.3712  1.3110
  407MOL0     H54907   3.770   6.665   7.938  0.0855  0.5671  0.7866
  407MOL0     H54908   3.778   6.841   7.970  0.4199  1.5962 -2.5587
  407MOL0     H54909   3.168   6.836   7.784  1.5738 -0.0980 -1.4765
  407MOL0     H54910   2.953   6.911   7.836 -1.4787  0.0341 -3.5093
  407MOL0     H54911   2.737   7.025   7.917  0.8764 -1.8716 -0.6077
  407MOL0     H54912   2.873   7.013   8.034  0.1940  0.5698 -0.6153
  407MOL0     H54913   2.660   7.080   8.142  1.1773 -0.8695  0.5699
  407MOL0     H54914   2.791   7.197   8.169 -1.6059  2.3320  0.2349
  407MOL0     H54915   2.550   7.217   7.976  1.5017 -2.6377  0.1098
  407MOL0     H54916   2.672   7.344   7.984  3.4880 -2.9379 -1.0689
  407MOL0     H54917   2.491   7.258   8.216  2.4946 -1.9042 -1.0475
  407MOL0     H54918   2.618   7.375   8.242 -1.7916  1.7933  1.4378
  407MOL0     H54919   2.363   7.416   8.103  0.7415 -0.3129  0.3112
  407MOL0     H54920   2.506   7.482   8.015 -0.2301  0.4427  0.0282
  407MOL0     H54921   2.417   7.547   8.303 -1.1651 -1.8440 -1.1436
  407MOL0     H54922   2.575   7.592   8.227 -0.0478 -1.1124 -0.7009
  407MOL0     H54923   2.381   7.779   8.242 -0.8097  0.7512  0.1198
  407MOL0     H54924   2.308   7.683   8.119 -3.1874  3.4395  4.4889
  407MOL0     H54925   2.434   7.866   8.040 -2.4340 -1.7954  0.0318
  407MOL0     H54926   2.539   7.732   7.987  2.5183  1.6361  0.7112
  407MOL0     H54927   3.083   7.320   7.845 -0.5587  0.7279 -3.3425
  407MOL0     H54928   3.314   7.242   7.771  3.0774 -2.1255  3.5327
  407MOL0     H54929   3.506   6.923   7.519 -1.5631  0.6041  1.5356
  407MOL0     H54930   3.667   6.795   7.390 -2.4353 -0.8397 -0.1487
  407MOL0     H54931   5.746   6.211   8.042  0.5364  1.0408 -0.6080
  407MOL0     H54932   5.981   6.122   8.034 -0.9949  1.2970  0.0422
  407MOL0     H54933   6.286   5.736   8.165  0.8534 -1.4382  0.4469
  407MOL0     H54934   6.543   5.692   8.146  1.0338  0.4035  0.5840
  407MOL0     H54935   6.737   5.750   7.743  2.0711  0.3750 -0.3087
  407MOL0     H54936   6.756   5.908   7.806  1.5743  0.4228 -2.5790
  407MOL0     H54937   6.931   5.851   7.951  1.2284  0.1025 -0.8572
  407MOL0     H54938   6.968   5.815   7.782 -0.3234 -0.4109 -0.1578
  407MOL0     H54939   6.882   5.599   7.991 -2.6907 -2.5961 -2.7071
  407MOL0     H54940   7.049   5.622   7.952  1.1656 -0.7452 -2.3342
  407MOL0     H54941   6.823   5.504   7.779 -0.1284 -0.8877  2.1266
  407MOL0     H54942   6.957   5.438   7.837  1.1439  0.4969 -0.1014
  407MOL0     H54943   7.100   5.637   7.483  0.3808 -0.6737 -0.3906
  407MOL0     H54944   6.542   5.871   7.758 -1.6356  0.1080 -1.5011
  407MOL0     H54945   6.307   5.917   7.772 -1.0492  0.5103  0.3939
  408MOL0     O54946   8.269   7.470   7.466 -0.2616 -0.8464  0.2676
  408MOL0     C54947   8.305   7.356   7.504 -0.0158 -0.3729  0.1521
  408MOL0     O54948   8.235   7.240   7.486 -0.1860  0.1390 -0.0782
  408MOL0     C54949   8.136   7.252   7.397  0.5081 -0.0618  1.4335
  408MOL0     C54950   8.011   7.194   7.434 -0.5645  0.3860  0.4400
  408MOL0     C54951   7.893   7.203   7.352 -0.5689  0.2386  0.6416
  408MOL0     C54952   7.900   7.249   7.221 -0.1660  0.3662  0.6585
  408MOL0     O54953   7.798   7.252   7.132  0.0299  0.5644 -0.5809
  408MOL0     C54954   7.659   7.251   7.186 -0.8188 -0.3266  0.4073
  408MOL0     C54955   7.568   7.270   7.065 -0.2899  0.2789 -0.2869
  408MOL0     C54956   7.416   7.274   7.113 -0.3745 -0.1082  0.1612
  408MOL0     C54957   7.309   7.334   7.022  0.5255 -0.6776  0.1817
  408MOL0     C54958   7.272   7.247   6.909  0.5886 -0.4493 -0.2997
  408MOL0     C54959   7.193   7.319   6.792  0.2462  0.7820 -0.5820
  408MOL0     C54960   7.057   7.378   6.833 -0.3177 -0.3431  0.2203
  408MOL0     C54961   7.008   7.467   6.715  0.2934 -0.2142  0.1257
  408MOL0     N54962   6.874   7.524   6.730 -0.0003  0.2003 -0.7319
  408MOL0     C54963   6.750   7.460   6.763  0.7755  0.1556  0.2320
  408MOL0     C54964   6.662   7.557   6.776  0.5365 -0.1375  0.0218
  408MOL0     C54965   6.518   7.543   6.826  0.0668  0.5029 -0.4210
  408MOL0     C54966   6.414   7.542   6.712  0.0013 -0.0919 -0.3535
  408MOL0     C54967   6.270   7.565   6.764 -0.0750 -0.6089 -0.4257
  408MOL0     C54968   6.173   7.562   6.648  0.1256  0.6942  0.1353
  408MOL0     O54969   6.049   7.589   6.707  0.1563  0.0369 -0.5922
  408MOL0     C54970   5.941   7.609   6.627 -0.0413  0.8392 -0.6233
  408MOL0     C54971   5.934   7.559   6.498 -0.6135 -0.2639  0.3662
  408MOL0     C54972   5.834   7.593   6.410  0.2312  0.2791  0.7254
  408MOL0     C54973   5.842   7.527   6.274  0.3613 -0.7626  0.0367
  408MOL0     C54974   5.738   7.688   6.448 -0.2169 -0.1892  0.5560
  408MOL0     C54975   5.623   7.739   6.366  0.5926 -0.5425  0.2630
  408MOL0     O54976   5.549   7.838   6.420  0.4376  0.4451 -0.2087
  408MOL0     C54977   5.441   7.892   6.352  0.0319  0.4815 -0.3497
  408MOL0     C54978   5.448   8.029   6.321 -0.1185  0.0708  0.5771
  408MOL0     C54979   5.349   8.089   6.245  0.2162 -0.1867  0.6747
  408MOL0     C54980   5.241   8.014   6.195 -0.9451  0.2932  0.3886
  408MOL0     O54981   5.140   8.067   6.110 -0.6380 -0.7448  0.4154
  408MOL0     C54982   5.171   8.191   6.041  0.1543 -0.1355 -0.7293
  408MOL0     C54983   5.046   8.217   5.954  0.3646  0.7684  0.7264
  408MOL0     C54984   4.915   8.233   6.028  0.1026  0.1013 -0.6869
  408MOL0     C54985   4.812   8.309   5.949  0.4977 -0.8454  0.3263
  408MOL0     C54986   4.664   8.282   5.999  0.6492 -0.2640  0.3617
  408MOL0     C54987   4.616   8.368   6.114 -0.4484 -0.0065 -0.3194
  408MOL0     C54988   4.470   8.356   6.138  0.0906  0.0387 -0.3343
  408MOL0     C54989   4.423   8.407   6.280 -0.7605 -0.4956 -0.2011
  408MOL0    Cl54990   4.259   8.352   6.290  0.2074  0.0837 -0.0959
  408MOL0     C54991   5.234   7.876   6.227 -0.6277 -0.2184 -0.8271
  408MOL0     C54992   5.334   7.823   6.304  0.0453  0.2832 -0.2126
  408MOL0     O54993   5.605   7.691   6.253  0.5603 -0.5697 -0.4095
  408MOL0     C54994   5.743   7.731   6.586 -0.2239 -1.2463  0.3481
  408MOL0     C54995   5.849   7.696   6.669  0.0530  0.0402  0.6981
  408MOL0     N54996   6.724   7.677   6.763  0.2435 -0.3384 -0.7070
  408MOL0     N54997   6.846   7.656   6.733  0.7494 -0.3155  0.7424
  408MOL0     C54998   8.026   7.296   7.177  0.2475 -0.3135 -0.0784
  408MOL0     C54999   8.134   7.299   7.261 -0.1243  0.4888  0.2168
  408MOL0     C55000   8.430   7.331   7.573 -0.7240 -0.3244 -0.5090
  408MOL0     C55001   8.489   7.441   7.640 -0.3265  0.3839  0.2161
  408MOL0     C55002   8.622   7.424   7.704 -0.1832 -0.1142  0.2115
  408MOL0     C55003   8.677   7.300   7.712 -0.4403 -0.3890  0.2304
  408MOL0     O55004   8.789   7.272   7.782  0.5773  0.1304  0.0561
  408MOL0     C55005   8.910   7.304   7.718 -0.9646  0.5632  0.2081
  408MOL0     C55006   9.015   7.326   7.834 -0.3977 -0.3234  0.4856
  408MOL0     C55007   8.981   7.452   7.917 -0.5522  0.0205  0.7177
  408MOL0     C55008   9.087   7.505   8.011 -0.1902  0.6361  0.3074
  408MOL0     C55009   9.040   7.605   8.103  0.1958 -0.0288 -0.1181
  408MOL0     C55010   9.005   7.694   8.185 -1.0888  0.5539 -0.4448
  408MOL0     C55011   8.608   7.194   7.653  0.0303 -0.1121 -0.1420
  408MOL0     C55012   8.486   7.203   7.586  0.5965  0.0354 -0.1553
  408MOL0     H55013   8.012   7.144   7.531  1.0726 -0.4713  0.0118
  408MOL0     H55014   7.799   7.162   7.388 -0.6476 -0.6698 -0.5201
  408MOL0     H55015   7.633   7.153   7.227 -1.4103 -0.7080 -0.8061
  408MOL0     H55016   7.652   7.332   7.258 -1.5857 -1.2160  1.3613
  408MOL0     H55017   7.596   7.361   7.012 -1.1309 -0.0485 -1.3519
  408MOL0     H55018   7.580   7.191   6.990  2.3618  2.3761 -2.2725
  408MOL0     H55019   7.393   7.173   7.147 -0.7964  0.0346  0.3100
  408MOL0     H55020   7.410   7.346   7.196  1.5012 -1.9206  1.9613
  408MOL0     H55021   7.221   7.373   7.075  0.6261  1.3935 -1.0651
  408MOL0     H55022   7.358   7.424   6.984 -1.5571 -0.5594 -2.5065
  408MOL0     H55023   7.358   7.188   6.875  0.4624 -2.6756  2.8130
  408MOL0     H55024   7.206   7.177   6.961  0.3764  1.3481  2.0300
  408MOL0     H55025   7.252   7.400   6.748  0.1675  0.1095 -1.9727
  408MOL0     H55026   7.173   7.255   6.706  0.0610  1.7395 -1.2724
  408MOL0     H55027   6.987   7.295   6.848 -1.2250  0.4091  0.2253
  408MOL0     H55028   7.083   7.439   6.920  0.8639 -1.4614  0.6752
  408MOL0     H55029   7.016   7.409   6.623 -0.2182 -0.9730  0.5479
  408MOL0     H55030   7.077   7.550   6.699  0.9042 -0.8034 -0.3350
  408MOL0     H55031   6.732   7.353   6.768 -0.6968  0.2193 -2.1918
  408MOL0     H55032   6.509   7.454   6.889 -2.2576 -0.0687 -1.4490
  408MOL0     H55033   6.490   7.627   6.890 -2.1025  1.2504 -2.2257
  408MOL0     H55034   6.416   7.450   6.652  0.8868  0.0419 -0.5465
  408MOL0     H55035   6.432   7.624   6.641 -0.7738  0.1749 -0.2515
  408MOL0     H55036   6.270   7.667   6.804 -1.0219 -0.4205 -0.8821
  408MOL0     H55037   6.225   7.502   6.842 -2.8729  3.6511  1.8468
  408MOL0     H55038   6.161   7.465   6.598 -0.3324  0.2833  1.0039
  408MOL0     H55039   6.186   7.638   6.572 -2.9312  2.3918  1.1320
  408MOL0     H55040   5.995   7.478   6.461  2.2107  0.3391  3.2349
  408MOL0     H55041   5.852   7.606   6.199  0.7787  0.6391  1.4963
  408MOL0     H55042   5.925   7.456   6.269 -0.3106 -1.8384  2.4802
  408MOL0     H55043   5.754   7.463   6.266  0.1772 -0.4743 -0.2400
  408MOL0     H55044   5.514   8.095   6.377  0.7626  0.6442 -1.0651
  408MOL0     H55045   5.364   8.193   6.219  2.7554 -1.2094 -2.7914
  408MOL0     H55046   5.179   8.268   6.117 -0.4460 -2.0352  1.3818
  408MOL0     H55047   5.261   8.181   5.979 -0.8255 -1.6267 -2.0000
  408MOL0     H55048   5.058   8.308   5.895 -0.2329  0.2145 -0.2720
  408MOL0     H55049   5.035   8.129   5.890 -2.5415 -0.9113  3.2366
  408MOL0     H55050   4.932   8.268   6.130  1.5718 -1.3733 -0.3703
  408MOL0     H55051   4.865   8.135   6.032  0.1046  0.0675 -1.2720
  408MOL0     H55052   4.840   8.414   5.948 -0.4655 -0.4978 -2.6730
  408MOL0     H55053   4.815   8.276   5.844 -1.7674 -0.5208  0.1148
  408MOL0     H55054   4.651   8.175   6.021 -1.4197 -0.4555 -1.4801
  408MOL0     H55055   4.596   8.301   5.916  0.4672 -0.9712  0.3426
  408MOL0     H55056   4.659   8.336   6.210  1.6912  1.6910 -0.6201
  408MOL0     H55057   4.642   8.472   6.089  0.3911 -0.4012 -1.1293
  408MOL0     H55058   4.432   8.254   6.127 -3.6636  0.6775  3.8119
  408MOL0     H55059   4.418   8.409   6.057  1.0349  0.6189 -0.5788
  408MOL0     H55060   4.425   8.517   6.287  0.8767 -0.4401 -0.9916
  408MOL0     H55061   4.478   8.369   6.366 -1.2564  2.6346  1.6441
  408MOL0     H55062   5.150   7.817   6.194 -1.6624  0.6363  0.2171
  408MOL0     H55063   5.329   7.719   6.338  0.1036 -0.5003 -2.4615
  408MOL0     H55064   5.662   7.798   6.612  0.7940  0.2121 -0.1768
  408MOL0     H55065   5.861   7.745   6.765 -1.5454  0.4243  0.7342
  408MOL0     H55066   8.047   7.327   7.075  1.6370  0.6449  0.4682
  408MOL0     H55067   8.234   7.323   7.226  0.3582 -0.1204  1.1472
  408MOL0     H55068   8.436   7.536   7.649 -1.6873 -0.1771 -1.5101
  408MOL0     H55069   8.658   7.499   7.774 -0.7672 -0.0747  0.4734
  408MOL0     H55070   8.940   7.226   7.647  2.1331  1.7639  0.0209
  408MOL0     H55071   8.905   7.392   7.653  0.7554 -0.9966 -2.2432
  408MOL0     H55072   9.106   7.351   7.780 -1.5606  1.0603 -0.9138
  408MOL0     H55073   9.019   7.237   7.897 -0.5826 -2.5077 -2.4362
  408MOL0     H55074   8.897   7.416   7.978 -0.4559 -1.0664  0.2364
  408MOL0     H55075   8.930   7.521   7.850 -1.3492 -0.0816  1.2028
  408MOL0     H55076   9.165   7.553   7.952 -1.3792 -0.8894 -2.7253
  408MOL0     H55077   9.134   7.416   8.052 -0.9180 -0.1216 -0.4714
  408MOL0     H55078   8.989   7.775   8.254  1.9043  1.2006 -0.4008
  408MOL0     H55079   8.656   7.097   7.655 -0.8257 -0.5329  0.7286
  408MOL0     H55080   8.436   7.117   7.543  0.3803  0.5414 -0.9379
  409MOL0     O55081   8.816   7.554   1.026 -0.3135 -0.1678  0.4408
  409MOL0     C55082   8.885   7.528   1.125  0.2199 -0.0148 -0.8821
  409MOL0     O55083   8.884   7.417   1.196  0.6000  0.2070  0.9817
  409MOL0     C55084   8.798   7.311   1.168 -0.8245 -0.8233 -0.7583
  409MOL0     C55085   8.806   7.212   1.260  1.4065 -0.6188 -0.1515
  409MOL0     C55086   8.710   7.111   1.272 -0.9849 -0.2340 -0.1086
  409MOL0     C55087   8.607   7.110   1.183  0.3731  0.1032  0.3542
  409MOL0     O55088   8.505   7.024   1.205  0.4368  0.1315 -0.9048
  409MOL0     C55089   8.467   6.934   1.100  0.6402 -0.0653 -0.2746
  409MOL0     C55090   8.404   6.816   1.182 -0.0730  0.0454  0.5448
  409MOL0     C55091   8.320   6.733   1.085  0.2408 -0.6350 -0.5015
  409MOL0     C55092   8.191   6.814   1.043 -0.0486  0.1911 -0.6692
  409MOL0     C55093   8.105   6.725   0.948 -0.2587  0.4798 -0.2410
  409MOL0     C55094   7.972   6.786   0.909  0.2004  0.0324 -0.1679
  409MOL0     C55095   7.880   6.797   1.026  0.4578 -0.1481  1.0352
  409MOL0     C55096   7.741   6.806   0.966 -0.0300 -0.3853  0.2411
  409MOL0     N55097   7.635   6.831   1.068  0.5782  0.4239 -0.0892
  409MOL0     C55098   7.599   6.748   1.169  0.4098 -0.5355 -0.5796
  409MOL0     C55099   7.510   6.813   1.244  0.5879  0.3595  0.9584
  409MOL0     C55100   7.437   6.755   1.362 -0.3416 -0.5167 -0.4081
  409MOL0     C55101   7.291   6.761   1.331 -0.2770 -0.1115  0.7673
  409MOL0     C55102   7.206   6.708   1.437  0.2456  0.1399 -0.0598
  409MOL0     C55103   7.063   6.714   1.394  0.4967  0.1548 -0.5326
  409MOL0     O55104   6.987   6.652   1.498  0.2401  0.4177  0.3055
  409MOL0     C55105   6.846   6.673   1.493 -0.3292  0.1985  0.1890
  409MOL0     C55106   6.772   6.742   1.397  0.8598 -0.9616 -0.8245
  409MOL0     C55107   6.633   6.746   1.396 -0.3832 -0.4136 -0.7482
  409MOL0     C55108   6.578   6.852   1.308 -0.4092 -0.1205 -0.6079
  409MOL0     C55109   6.563   6.668   1.493  1.1279  0.1018 -0.0002
  409MOL0     C55110   6.411   6.663   1.482 -0.9021  0.4259 -0.1386
  409MOL0     O55111   6.350   6.693   1.364 -0.3948  0.2729  0.0363
  409MOL0     C55112   6.213   6.690   1.343  0.2291 -0.0646 -0.0346
  409MOL0     C55113   6.132   6.576   1.384 -0.3568 -0.5375  0.1472
  409MOL0     C55114   5.998   6.577   1.373 -0.6111  0.8744  0.1304
  409MOL0     C55115   5.932   6.692   1.335 -0.0039  0.5226  0.0941
  409MOL0     O55116   5.797   6.703   1.327  0.2614  0.1202 -0.5899
  409MOL0     C55117   5.716   6.599   1.383 -0.3491  0.4095 -0.9443
  409MOL0     C55118   5.571   6.656   1.411 -0.1710 -0.4481 -1.0940
  409MOL0     C55119   5.480   6.636   1.292 -0.2298  0.0220 -0.4047
  409MOL0     C55120   5.333   6.629   1.332 -0.0888  0.8077 -0.9322
  409MOL0     C55121   5.249   6.566   1.227 -0.2949 -0.7001 -0.0408
  409MOL0     C55122   5.099   6.564   1.283  0.4087 -1.1288 -0.3173
  409MOL0     C55123   5.010   6.499   1.179  0.2379  0.1027 -0.0429
  409MOL0     C55124   4.965   6.609   1.075 -1.0576  0.3101 -0.1654
  409MOL0    Cl55125   4.872   6.526   0.961 -0.1280  0.0481  0.8894
  409MOL0     C55126   6.007   6.807   1.309  0.4747 -0.0775 -0.7449
  409MOL0     C55127   6.144   6.811   1.320  1.0184  0.2387  0.1465
  409MOL0     O55128   6.353   6.621   1.582 -0.4070 -0.0573  0.2150
  409MOL0     C55129   6.639   6.602   1.590 -0.1141 -0.6081  0.4282
  409MOL0     C55130   6.771   6.601   1.593  0.9459 -0.0493  0.6829
  409MOL0     N55131   7.495   6.937   1.189 -0.4599  0.0043 -0.2870
  409MOL0     N55132   7.575   6.952   1.096 -0.5784 -0.0466  0.5198
  409MOL0     C55133   8.611   7.192   1.067  0.1094  0.0666  0.1371
  409MOL0     C55134   8.710   7.293   1.062  0.3223 -0.0383 -0.5635
  409MOL0     C55135   8.979   7.641   1.171 -0.4102  0.3297 -0.2773
  409MOL0     C55136   8.931   7.769   1.181  0.2869  0.7218 -0.3318
  409MOL0     C55137   9.017   7.870   1.217 -0.8237  0.2005 -0.5015
  409MOL0     C55138   9.154   7.843   1.235  0.6720  0.0841  0.3409
  409MOL0     O55139   9.239   7.949   1.263 -0.5771 -0.7868  0.8658
  409MOL0     C55140   9.212   8.049   1.358 -0.1721 -0.0993 -0.5852
  409MOL0     C55141   9.343   8.134   1.368 -0.4714 -0.2210  0.0284
  409MOL0     C55142   9.470   8.042   1.399  0.2267 -0.3478  0.0742
  409MOL0     C55143   9.589   8.135   1.402 -0.4379 -0.0802 -1.0417
  409MOL0     C55144   9.595   8.241   1.507  0.0562 -0.2248  0.7032
  409MOL0     C55145   9.610   8.313   1.600 -0.3426  0.4074  0.2286
  409MOL0     C55146   9.203   7.720   1.220 -0.1944  0.7068  0.2002
  409MOL0     C55147   9.113   7.618   1.193 -0.6046 -0.6679 -0.3849
  409MOL0     H55148   8.894   7.214   1.324  0.2684 -1.6042  1.4987
  409MOL0     H55149   8.710   7.044   1.358  0.6504  1.5610  1.3783
  409MOL0     H55150   8.396   6.977   1.029  2.8421  0.9036 -2.0040
  409MOL0     H55151   8.541   6.887   1.034  2.3399  1.2731  0.5846
  409MOL0     H55152   8.466   6.751   1.244 -1.6792 -0.4757  1.6842
  409MOL0     H55153   8.339   6.872   1.250 -3.3365  1.6946 -3.5342
  409MOL0     H55154   8.373   6.705   0.994 -2.2980 -3.9549 -1.1365
  409MOL0     H55155   8.285   6.640   1.131 -0.0752 -1.5046 -2.4451
  409MOL0     H55156   8.127   6.822   1.132 -0.5774 -1.6321 -0.8278
  409MOL0     H55157   8.210   6.913   1.002  0.2749  0.4019 -0.0308
  409MOL0     H55158   8.161   6.703   0.857 -0.6169 -1.5243 -0.0236
  409MOL0     H55159   8.089   6.634   1.006  0.3651  0.4864 -0.0541
  409MOL0     H55160   7.996   6.870   0.843 -1.7176 -0.7762 -2.0309
  409MOL0     H55161   7.928   6.711   0.842  1.8295 -2.5724  1.4823
  409MOL0     H55162   7.873   6.710   1.092 -0.0122 -0.8515  0.0793
  409MOL0     H55163   7.891   6.886   1.089 -0.5996  0.4973  0.3371
  409MOL0     H55164   7.719   6.719   0.903  0.9841  1.2033 -2.5134
  409MOL0     H55165   7.740   6.891   0.897  0.5867 -1.2923 -0.9236
  409MOL0     H55166   7.639   6.649   1.187  1.6993  0.3973  2.4618
  409MOL0     H55167   7.454   6.648   1.371 -1.4511 -0.5382  3.5711
  409MOL0     H55168   7.468   6.802   1.456  0.1924 -0.8544 -0.4150
  409MOL0     H55169   7.281   6.705   1.238 -0.3434  1.0436  0.0664
  409MOL0     H55170   7.271   6.867   1.311 -3.0355 -0.9130 -1.2393
  409MOL0     H55171   7.218   6.776   1.522 -0.8153  0.1729  0.0656
  409MOL0     H55172   7.222   6.601   1.454 -1.9925 -0.4695 -1.4224
  409MOL0     H55173   7.048   6.658   1.302 -0.4270 -1.8644  0.7585
  409MOL0     H55174   7.036   6.820   1.386  0.5212  0.1087 -1.2914
  409MOL0     H55175   6.838   6.810   1.342  2.6666 -0.1513  2.1064
  409MOL0     H55176   6.480   6.896   1.332  0.1977  0.4345  0.9618
  409MOL0     H55177   6.649   6.934   1.297 -0.6412  0.6864  2.7362
  409MOL0     H55178   6.557   6.800   1.214 -1.4976  1.3151 -1.1994
  409MOL0     H55179   6.166   6.486   1.434 -2.3139 -1.4190 -0.0148
  409MOL0     H55180   5.946   6.482   1.384  0.6711  0.1877  0.4815
  409MOL0     H55181   5.713   6.515   1.314  2.6765 -0.6553  0.0602
  409MOL0     H55182   5.764   6.556   1.472 -0.9519  2.5448  0.5150
  409MOL0     H55183   5.533   6.594   1.493 -1.6432  1.6585 -0.1042
  409MOL0     H55184   5.581   6.758   1.447  0.1980 -0.8704  0.0517
  409MOL0     H55185   5.514   6.536   1.264  2.5344  1.2113 -1.5560
  409MOL0     H55186   5.499   6.705   1.210 -2.8136  0.0918 -1.0335
  409MOL0     H55187   5.319   6.583   1.430  1.9900  2.3735  0.1873
  409MOL0     H55188   5.310   6.735   1.338  0.6344  0.9947 -1.3971
  409MOL0     H55189   5.273   6.463   1.200 -2.0576 -1.0214 -0.4879
  409MOL0     H55190   5.255   6.635   1.142 -2.5659  1.4479  1.4106
  409MOL0     H55191   5.106   6.501   1.373 -1.4533  1.8499  2.1155
  409MOL0     H55192   5.065   6.665   1.310  0.2791 -0.8720 -1.4089
  409MOL0     H55193   4.920   6.462   1.230  0.6392 -0.6518  0.1234
  409MOL0     H55194   5.056   6.420   1.119 -1.8442 -2.0431  1.0286
  409MOL0     H55195   5.054   6.646   1.024 -1.1104  0.9589  0.1943
  409MOL0     H55196   4.914   6.691   1.126  0.0227  0.3836  0.8388
  409MOL0     H55197   5.941   6.891   1.289  0.5457  0.5897  1.6201
  409MOL0     H55198   6.195   6.906   1.308 -0.6996  1.2415  0.4047
  409MOL0     H55199   6.585   6.548   1.668 -1.9648  0.3178 -0.1444
  409MOL0     H55200   6.811   6.537   1.670  2.5150 -2.6012 -2.0338
  409MOL0     H55201   8.529   7.187   0.996 -1.5807 -0.0991  2.0104
  409MOL0     H55202   8.706   7.358   0.974  2.9885  1.0107 -0.0368
  409MOL0     H55203   8.830   7.795   1.150  0.9474  1.5666 -1.8722
  409MOL0     H55204   8.965   7.959   1.250 -2.7110 -2.2052  3.9489
  409MOL0     H55205   9.133   8.112   1.316 -1.4598 -2.4121 -1.8167
  409MOL0     H55206   9.181   8.002   1.452  0.1470 -1.0555 -0.9487
  409MOL0     H55207   9.331   8.212   1.443 -0.5019  0.4533 -0.6640
  409MOL0     H55208   9.353   8.186   1.272 -0.2839 -1.8306 -0.8644
  409MOL0     H55209   9.473   7.959   1.327 -2.4456  1.2796 -2.0905
  409MOL0     H55210   9.461   7.998   1.499  0.3093  0.2766  0.3650
  409MOL0     H55211   9.598   8.184   1.304 -0.8063 -0.0683 -1.0714
  409MOL0     H55212   9.679   8.077   1.422 -0.3258  0.4435  0.0688
  409MOL0     H55213   9.618   8.380   1.683 -3.3105 -0.9674  1.8045
  409MOL0     H55214   9.308   7.694   1.213 -0.5127 -0.2675 -1.5620
  409MOL0     H55215   9.155   7.518   1.196  2.6369  0.4994  4.1406
  410MOL0     O55216   2.017  10.288   4.411  0.2624 -0.1337 -0.4126
  410MOL0     C55217   2.076  10.391   4.402  0.8942 -0.8359  0.3259
  410MOL0     O55218   2.016  10.517   4.388 -0.4015 -0.1552  0.2703
  410MOL0     C55219   1.882  10.514   4.402  1.9891 -0.1476  0.6198
  410MOL0     C55220   1.828  10.506   4.533 -0.2083  0.2396  0.5112
  410MOL0     C55221   1.692  10.514   4.551 -0.1021  0.9193 -0.7493
  410MOL0     C55222   1.607  10.510   4.434  0.7621 -0.3242 -0.1990
  410MOL0     O55223   1.468  10.490   4.445 -0.3089  0.0591  0.1699
  410MOL0     C55224   1.402  10.564   4.546  0.0019 -0.7800 -0.7829
  410MOL0     C55225   1.259  10.578   4.501  0.9592 -0.1587 -0.6258
  410MOL0     C55226   1.183  10.691   4.578 -0.2599  0.1492  0.8111
  410MOL0     C55227   1.197  10.686   4.733  1.2352  0.0878 -0.2612
  410MOL0     C55228   1.143  10.810   4.809 -0.0369  0.0612  0.4112
  410MOL0     C55229   0.994  10.830   4.779  0.0534 -0.4243 -1.2573
  410MOL0     C55230   0.943  10.963   4.839  0.1315  0.1988 -0.3877
  410MOL0     C55231   0.790  10.945   4.857  0.3885  0.3140 -0.3647
  410MOL0     N55232   0.741  11.048   4.934 -0.1349 -0.1202  0.9137
  410MOL0     C55233   0.750  11.058   5.076 -0.1458 -0.1445 -0.0782
  410MOL0     C55234   0.677  11.169   5.100 -0.6022  0.4839 -0.1679
  410MOL0     C55235   0.658  11.245   5.231 -0.5306 -0.1666 -0.5242
  410MOL0     C55236   0.712  11.392   5.227  1.2802  0.2067  0.2252
  410MOL0     C55237   0.865  11.396   5.241  0.4348  0.3865 -0.4444
  410MOL0     C55238   0.943  11.349   5.117  0.4534  0.5463  0.8493
  410MOL0     O55239   0.980  11.212   5.138  0.1204  0.1107 -0.1486
  410MOL0     C55240   1.093  11.166   5.078  0.0100  0.1029 -0.3570
  410MOL0     C55241   1.162  11.058   5.144  0.3552  0.4035  0.3459
  410MOL0     C55242   1.278  11.002   5.094 -0.5229 -0.5418  0.7146
  410MOL0     C55243   1.354  10.902   5.172 -0.4661 -0.0472  0.4524
  410MOL0     C55244   1.326  11.056   4.968 -0.5695 -1.0681 -0.4032
  410MOL0     C55245   1.444  10.988   4.893  0.0175  0.4816  0.2292
  410MOL0     O55246   1.507  11.069   4.800  0.6729  0.6102 -0.1842
  410MOL0     C55247   1.594  11.010   4.721 -0.0537 -0.2365  0.1676
  410MOL0     C55248   1.538  10.948   4.609  0.2534 -0.7572  0.0348
  410MOL0     C55249   1.628  10.886   4.523  0.4315  0.6722 -0.6316
  410MOL0     C55250   1.768  10.881   4.545 -1.2121  0.3008 -0.0361
  410MOL0     O55251   1.848  10.824   4.445  0.3042  0.8351 -0.0924
  410MOL0     C55252   1.994  10.829   4.451  1.2851 -0.5160 -0.8720
  410MOL0     C55253   2.038  10.868   4.305 -0.0941 -0.2865  0.2445
  410MOL0     C55254   2.184  10.892   4.296 -0.0033 -0.7835  0.7620
  410MOL0     C55255   2.237  10.876   4.150  0.1280  0.0171 -0.3900
  410MOL0     C55256   2.377  10.895   4.134 -0.2505  0.7740  0.4189
  410MOL0     C55257   2.439  10.827   4.008  0.3267 -0.2047 -0.0677
  410MOL0     C55258   2.368  10.870   3.874  0.1012  0.3935 -0.3302
  410MOL0     C55259   2.451  10.834   3.761  0.0721  0.2304 -0.3565
  410MOL0    Cl55260   2.512  10.667   3.775 -0.0684  0.0952 -0.3586
  410MOL0     C55261   1.819  10.942   4.662 -0.1998 -0.4882  0.7499
  410MOL0     C55262   1.734  11.007   4.751 -1.0067 -0.4852 -0.4142
  410MOL0     O55263   1.462  10.866   4.904  0.2327  0.4593  0.4973
  410MOL0     C55264   1.264  11.168   4.911  1.2598 -0.0564  0.8095
  410MOL0     C55265   1.144  11.214   4.963  0.6778  0.1919 -0.3783
  410MOL0     N55266   0.626  11.221   4.980 -0.1531  0.8159 -0.6560
  410MOL0     N55267   0.660  11.144   4.885 -0.2406 -0.1721 -0.6361
  410MOL0     C55268   1.656  10.525   4.306  0.1301 -0.4716 -0.9194
  410MOL0     C55269   1.798  10.526   4.292 -0.0535  1.3870 -0.3634
  410MOL0     C55270   2.227  10.401   4.402 -0.1578  0.3176  0.0189
  410MOL0     C55271   2.303  10.301   4.468 -0.8702  0.4232 -0.1857
  410MOL0     C55272   2.443  10.302   4.465 -0.2957 -0.0064  0.8868
  410MOL0     C55273   2.510  10.407   4.397  0.3082  0.9052 -0.1914
  410MOL0     O55274   2.646  10.401   4.362  0.7005  0.5169 -0.3182
  410MOL0     C55275   2.705  10.266   4.373 -0.8902 -0.1928 -0.2419
  410MOL0     C55276   2.827  10.246   4.290  0.8333  0.1045  0.0127
  410MOL0     C55277   2.805  10.301   4.144 -0.9951  0.0252 -0.2028
  410MOL0     C55278   2.728  10.212   4.046 -0.3887 -0.3382 -0.9432
  410MOL0     C55279   2.586  10.209   4.080 -0.0758  0.1590  0.6931
  410MOL0     C55280   2.473  10.201   4.111 -0.5623 -0.4081 -0.6912
  410MOL0     C55281   2.440  10.515   4.344  0.5137  0.2653  0.3348
  410MOL0     C55282   2.303  10.508   4.346 -0.2241  0.2421  0.0831
  410MOL0     H55283   1.894  10.496   4.619 -1.7460 -2.0687  1.5320
  410MOL0     H55284   1.653  10.493   4.650 -0.6400 -0.3679 -1.2155
  410MOL0     H55285   1.418  10.522   4.646  4.4280  2.2334  0.1162
  410MOL0     H55286   1.443  10.665   4.537 -1.1175 -0.3196 -0.8638
  410MOL0     H55287   1.240  10.603   4.396 -1.1313  0.9348 -0.0622
  410MOL0     H55288   1.207  10.488   4.535 -0.2629  0.0761 -1.7606
  410MOL0     H55289   1.241  10.779   4.547  1.5806 -0.1689  3.0105
  410MOL0     H55290   1.080  10.688   4.541 -0.5011  1.4421  1.3242
  410MOL0     H55291   1.138  10.601   4.768  1.1839  1.0337  2.2307
  410MOL0     H55292   1.303  10.676   4.761  2.1142  2.4517 -2.3363
  410MOL0     H55293   1.143  10.779   4.914 -1.6497 -4.1536 -0.6162
  410MOL0     H55294   1.206  10.898   4.798 -0.5287  0.8858  3.2121
  410MOL0     H55295   0.978  10.830   4.671 -0.1112 -0.5105 -1.2333
  410MOL0     H55296   0.940  10.745   4.820  1.3525 -1.2499 -1.1997
  410MOL0     H55297   0.982  10.986   4.938 -0.5513  1.9881 -0.4894
  410MOL0     H55298   0.966  11.047   4.772  1.2315  0.9240  0.8615
  410MOL0     H55299   0.770  10.844   4.894 -1.3736  0.9938  0.6990
  410MOL0     H55300   0.733  10.942   4.764 -1.0733 -1.1542  0.5144
  410MOL0     H55301   0.794  10.988   5.147  0.6779 -0.1302 -0.5658
  410MOL0     H55302   0.553  11.251   5.262 -0.0809  2.7359  0.8140
  410MOL0     H55303   0.713  11.174   5.294  1.4737  0.6630 -1.2439
  410MOL0     H55304   0.669  11.461   5.300 -6.1943 -0.0862 -2.9873
  410MOL0     H55305   0.685  11.434   5.129 -0.4201 -1.9790 -0.3043
  410MOL0     H55306   0.888  11.337   5.330 -0.4913  2.9394  1.6072
  410MOL0     H55307   0.901  11.497   5.263  1.6010 -0.2668  0.8108
  410MOL0     H55308   1.038  11.403   5.112 -0.7089  2.6000 -0.5950
  410MOL0     H55309   0.884  11.354   5.025 -1.2562 -0.1456  1.8357
  410MOL0     H55310   1.142  11.022   5.244  2.0716 -0.4103  0.4472
  410MOL0     H55311   1.363  10.927   5.277  0.8282 -2.6143  1.0367
  410MOL0     H55312   1.299  10.807   5.170 -1.5830  0.5383  1.6388
  410MOL0     H55313   1.453  10.881   5.131 -0.1306 -2.9053  2.4603
  410MOL0     H55314   1.430  10.950   4.595  0.3349 -1.6945 -0.8452
  410MOL0     H55315   1.601  10.841   4.428  0.1587  1.1204 -0.7697
  410MOL0     H55316   2.032  10.906   4.519  2.0815 -0.8114 -0.9799
  410MOL0     H55317   2.041  10.736   4.482  1.6571 -0.3812 -1.0274
  410MOL0     H55318   2.005  10.787   4.240 -2.1696  0.5313  0.2035
  410MOL0     H55319   1.985  10.955   4.265  0.0338 -1.1455 -1.9153
  410MOL0     H55320   2.233  10.824   4.366  1.1214  0.4989  1.2833
  410MOL0     H55321   2.194  10.997   4.327 -3.5141 -0.1519  0.1280
  410MOL0     H55322   2.218  10.774   4.113  2.2374  0.3664 -2.7580
  410MOL0     H55323   2.179  10.945   4.088 -0.8070 -1.0815 -0.7730
  410MOL0     H55324   2.423  10.852   4.224  2.1848 -1.2907 -1.6348
  410MOL0     H55325   2.397  11.002   4.140 -0.1955  0.8854 -1.3141
  410MOL0     H55326   2.544  10.855   3.995  0.2563  0.0505 -0.0946
  410MOL0     H55327   2.427  10.719   4.017 -0.0770 -0.4921 -2.9842
  410MOL0     H55328   2.347  10.977   3.885  1.3535  0.5588  0.7864
  410MOL0     H55329   2.271  10.821   3.863 -0.3197  1.3148 -0.9034
  410MOL0     H55330   2.535  10.905   3.758  0.1730  0.3058  2.0269
  410MOL0     H55331   2.398  10.841   3.666  0.2660 -0.6485 -0.5461
  410MOL0     H55332   1.923  10.929   4.692  0.0274 -2.2639 -0.6514
  410MOL0     H55333   1.781  11.051   4.839 -1.9007  0.5247 -0.4297
  410MOL0     H55334   1.300  11.226   4.826 -2.0632  3.6850  1.6435
  410MOL0     H55335   1.081  11.286   4.912 -0.9338 -0.2424  0.9286
  410MOL0     H55336   1.583  10.523   4.226 -1.9024 -1.1884  0.8557
  410MOL0     H55337   1.837  10.530   4.190  0.1232  1.2221 -0.3035
  410MOL0     H55338   2.261  10.217   4.523 -1.9900 -0.4169 -2.2252
  410MOL0     H55339   2.492  10.211   4.498 -0.7584 -1.3043 -1.7135
  410MOL0     H55340   2.725  10.256   4.480  0.5097  2.9771 -0.0663
  410MOL0     H55341   2.636  10.186   4.346  0.9155 -1.4337 -1.3120
  410MOL0     H55342   2.856  10.141   4.285 -1.8875 -0.7687  0.5259
  410MOL0     H55343   2.915  10.286   4.341  0.9719 -3.4068  2.9133
  410MOL0     H55344   2.906  10.298   4.102 -0.6615 -0.8525  0.6220
  410MOL0     H55345   2.767  10.403   4.139 -0.8092  0.1713  1.1161
  410MOL0     H55346   2.768  10.111   4.041 -1.7023 -1.0146  1.0181
  410MOL0     H55347   2.736  10.266   3.951 -0.2557  0.7653 -0.3310
  410MOL0     H55348   2.368  10.185   4.127 -1.2338  0.1839 -3.7013
  410MOL0     H55349   2.477  10.602   4.290 -0.2342 -0.0790 -0.7694
  410MOL0     H55350   2.244  10.595   4.317  0.1212  0.4204 -0.0832
  411MOL0     O55351   6.308   0.503   6.557  0.3570  0.7391 -0.6564
  411MOL0     C55352   6.353   0.439   6.655  0.1810 -0.3296  0.3899
  411MOL0     O55353   6.283   0.358   6.739 -0.7889 -0.3206 -0.6575
  411MOL0     C55354   6.152   0.315   6.727 -0.0247  0.0986 -0.0540
  411MOL0     C55355   6.079   0.261   6.841 -0.1448 -1.0667  0.6746
  411MOL0     C55356   5.941   0.239   6.826  0.4617  0.3570 -0.3799
  411MOL0     C55357   5.867   0.256   6.711 -0.7230 -0.0051 -0.4396
  411MOL0     O55358   5.733   0.226   6.730  0.0075  0.2852  0.3340
  411MOL0     C55359   5.657   0.231   6.605 -0.6699 -0.2824 -0.2267
  411MOL0     C55360   5.504   0.204   6.594  0.0640  0.8025 -0.1542
  411MOL0     C55361   5.460   0.220   6.448 -0.1714 -0.0747  0.3661
  411MOL0     C55362   5.381   0.103   6.380 -0.2771  0.1853  0.0775
  411MOL0     C55363   5.339   0.121   6.231 -0.5828  0.1472  0.2543
  411MOL0     C55364   5.440   0.191   6.151 -0.1958  0.1220 -0.0878
  411MOL0     C55365   5.573   0.131   6.133 -0.2616 -0.0971 -0.4379
  411MOL0     C55366   5.670   0.232   6.068 -0.9359 -0.2405 -0.0282
  411MOL0     N55367   5.741   0.323   6.168  0.0055 -0.5172 -0.0116
  411MOL0     C55368   5.874   0.347   6.156 -0.4454 -1.0520 -0.0756
  411MOL0     C55369   5.895   0.448   6.251 -0.8953 -0.4295  0.0766
  411MOL0     C55370   6.027   0.520   6.290  0.2858  0.3559  0.0022
  411MOL0     C55371   6.071   0.617   6.183 -0.4039 -0.1717  0.5046
  411MOL0     C55372   6.169   0.726   6.242 -0.0414  0.0153  0.7741
  411MOL0     C55373   6.259   0.772   6.120 -0.5544 -0.1068 -0.6505
  411MOL0     O55374   6.323   0.898   6.157  0.3348  0.0669 -0.4478
  411MOL0     C55375   6.451   0.896   6.211 -0.6324 -0.9849 -0.5548
  411MOL0     C55376   6.562   0.884   6.126  0.6845  0.7816  0.1926
  411MOL0     C55377   6.686   0.875   6.173  0.1623 -0.5724 -0.4383
  411MOL0     C55378   6.792   0.856   6.083  0.2595  0.1246  0.8884
  411MOL0     C55379   6.716   0.895   6.310  0.1461  0.5302  0.5124
  411MOL0     C55380   6.859   0.883   6.362 -0.0353 -0.0754 -0.2548
  411MOL0     O55381   6.879   0.808   6.475 -0.2724  0.1546 -0.0611
  411MOL0     C55382   7.002   0.806   6.533 -1.1772  0.0066  0.2816
  411MOL0     C55383   7.081   0.684   6.535  0.6728 -0.8241  0.0420
  411MOL0     C55384   7.197   0.668   6.610 -0.2071  0.0760 -0.2174
  411MOL0     C55385   7.239   0.775   6.688  1.2342 -0.1392  0.7256
  411MOL0     O55386   7.359   0.756   6.744  0.2173  0.3352  0.4237
  411MOL0     C55387   7.376   0.813   6.869 -1.0246 -0.4786 -0.5693
  411MOL0     C55388   7.510   0.782   6.939  0.2917 -0.0375  1.1111
  411MOL0     C55389   7.625   0.856   6.868  0.2162 -0.2810 -0.0438
  411MOL0     C55390   7.767   0.813   6.938 -0.2709  0.3147  1.3570
  411MOL0     C55391   7.880   0.898   6.874  0.4542  0.4908 -0.2204
  411MOL0     C55392   8.007   0.853   6.951 -0.3844 -0.2148 -0.2725
  411MOL0     C55393   8.132   0.926   6.897 -0.3602 -0.0304 -0.1494
  411MOL0     C55394   8.147   1.069   6.953 -0.6024  0.0635  0.0512
  411MOL0    Cl55395   8.157   1.071   7.125  0.2869 -0.3958 -0.1910
  411MOL0     C55396   7.162   0.895   6.698  0.4472 -0.3522  0.2927
  411MOL0     C55397   7.041   0.907   6.619  0.4234  0.0086 -0.0441
  411MOL0     O55398   6.943   0.944   6.311  0.5681 -0.4518  0.5510
  411MOL0     C55399   6.607   0.912   6.400  0.1911 -0.5153 -0.6024
  411MOL0     C55400   6.475   0.909   6.349 -0.7094  0.2504 -0.2644
  411MOL0     N55401   5.781   0.472   6.322  0.1284 -1.2242 -0.3028
  411MOL0     N55402   5.692   0.397   6.270  0.3379  0.2845 -0.1333
  411MOL0     C55403   5.945   0.281   6.596 -0.0311  0.5548 -0.1896
  411MOL0     C55404   6.080   0.314   6.606 -0.3279  0.3201  0.4741
  411MOL0     C55405   6.492   0.465   6.704  0.2184  0.0259 -1.4382
  411MOL0     C55406   6.583   0.562   6.651  0.5782 -0.3495  0.2371
  411MOL0     C55407   6.715   0.573   6.705  0.2838 -0.2292  0.0577
  411MOL0     C55408   6.758   0.488   6.806  0.1359  0.0737 -0.0139
  411MOL0     O55409   6.885   0.503   6.844  0.0290  0.5415  0.4680
  411MOL0     C55410   6.945   0.442   6.960  0.7916 -0.2187 -0.3254
  411MOL0     C55411   7.092   0.495   6.970  0.1568 -0.1290  0.1201
  411MOL0     C55412   7.195   0.426   7.055  0.1173 -0.0146  0.0429
  411MOL0     C55413   7.173   0.452   7.202 -0.0862  0.6639  0.4360
  411MOL0     C55414   7.279   0.390   7.278 -0.9160  0.8510  0.4803
  411MOL0     C55415   7.377   0.333   7.338 -0.2579  0.5592  0.4670
  411MOL0     C55416   6.672   0.395   6.869  0.0807  0.0267 -0.1714
  411MOL0     C55417   6.541   0.389   6.815 -0.7082 -0.0444  0.8134
  411MOL0     H55418   6.129   0.254   6.938 -1.5365  3.0790  1.8969
  411MOL0     H55419   5.894   0.200   6.916 -1.5282  0.4417 -1.3527
  411MOL0     H55420   5.670   0.335   6.576 -0.1003 -0.2708  0.0505
  411MOL0     H55421   5.706   0.173   6.526 -0.4115 -1.2598  0.6277
  411MOL0     H55422   5.488   0.100   6.622  1.6004  0.8050  0.8533
  411MOL0     H55423   5.448   0.262   6.669  0.3877 -1.1011  1.6395
  411MOL0     H55424   5.399   0.310   6.439 -0.6116 -0.5307 -2.2564
  411MOL0     H55425   5.551   0.228   6.388  0.1221  0.4071  0.8666
  411MOL0     H55426   5.450   0.019   6.379 -1.4936 -0.8526 -1.1506
  411MOL0     H55427   5.296   0.062   6.436 -0.4195 -1.2877 -1.1542
  411MOL0     H55428   5.326   0.025   6.180  0.8896  0.0100  0.1191
  411MOL0     H55429   5.246   0.178   6.218 -1.3865 -1.5744 -2.4513
  411MOL0     H55430   5.399   0.194   6.050 -2.5068  0.1280  0.7644
  411MOL0     H55431   5.441   0.287   6.203 -4.8811 -0.5003  1.6830
  411MOL0     H55432   5.615   0.089   6.225 -0.3349  0.1089 -0.3115
  411MOL0     H55433   5.575   0.043   6.067 -0.0536 -0.8609  0.5665
  411MOL0     H55434   5.625   0.291   5.988 -2.7732 -0.9171  0.4657
  411MOL0     H55435   5.736   0.170   6.007 -1.3296 -0.4944 -0.1994
  411MOL0     H55436   5.935   0.328   6.068  1.0415 -0.9531  0.9107
  411MOL0     H55437   6.028   0.568   6.388  0.4009 -0.1386  0.2414
  411MOL0     H55438   6.109   0.448   6.287  1.0025  1.1895 -1.9413
  411MOL0     H55439   5.984   0.675   6.151 -0.5550  0.5043  2.0839
  411MOL0     H55440   6.123   0.567   6.101 -0.2166  0.7216  0.0700
  411MOL0     H55441   6.228   0.688   6.325  2.7171 -0.1574 -1.1273
  411MOL0     H55442   6.117   0.818   6.271  1.2121  0.0076  3.3206
  411MOL0     H55443   6.192   0.790   6.036  0.6745  1.8689 -1.2873
  411MOL0     H55444   6.330   0.693   6.093 -0.7218 -0.5782  0.2483
  411MOL0     H55445   6.537   0.855   6.024  2.1842 -3.6506  0.8622
  411MOL0     H55446   6.871   0.797   6.130  0.7008 -0.1032 -0.1056
  411MOL0     H55447   6.754   0.787   6.008 -0.8261 -2.2898  3.4834
  411MOL0     H55448   6.815   0.959   6.053 -0.8116  0.1648  0.1158
  411MOL0     H55449   7.044   0.614   6.461 -2.9531  1.2024 -0.3110
  411MOL0     H55450   7.250   0.575   6.595 -0.8515 -0.2438 -0.5618
  411MOL0     H55451   7.372   0.922   6.866  0.9854 -0.2521  1.7415
  411MOL0     H55452   7.299   0.792   6.944  0.5785 -2.1366  0.7180
  411MOL0     H55453   7.503   0.801   7.047 -3.0356  0.5513  0.9015
  411MOL0     H55454   7.525   0.674   6.930 -1.4769 -0.3423  1.5739
  411MOL0     H55455   7.611   0.962   6.892  1.3090 -0.1510  0.0787
  411MOL0     H55456   7.621   0.839   6.760 -1.9532  0.3397 -0.1076
  411MOL0     H55457   7.753   0.826   7.046 -1.4981 -0.9716  1.3937
  411MOL0     H55458   7.793   0.710   6.909 -2.6146 -0.4032  1.6036
  411MOL0     H55459   7.876   1.007   6.880 -0.9947  0.5274 -1.3292
  411MOL0     H55460   7.893   0.863   6.771  1.2428  0.3854 -0.0887
  411MOL0     H55461   8.000   0.872   7.059  3.1053 -0.8842  0.1754
  411MOL0     H55462   8.031   0.747   6.939 -1.1239 -0.5020  0.6327
  411MOL0     H55463   8.147   0.910   6.790  2.8823  1.7415 -0.0990
  411MOL0     H55464   8.222   0.872   6.929  0.5439  0.9814 -0.8978
  411MOL0     H55465   8.067   1.131   6.914 -1.4265 -0.7979  0.3349
  411MOL0     H55466   8.241   1.112   6.918  1.2908 -2.0261  2.1510
  411MOL0     H55467   7.184   0.988   6.750 -2.1409  0.4127  0.1836
  411MOL0     H55468   6.973   0.991   6.633 -2.4386 -1.9096 -1.5121
  411MOL0     H55469   6.620   0.923   6.507  0.5755 -1.2686 -0.5616
  411MOL0     H55470   6.390   0.922   6.416 -1.6732  0.3790 -1.4834
  411MOL0     H55471   5.896   0.274   6.500  3.3051 -0.7144 -1.9532
  411MOL0     H55472   6.126   0.348   6.514  1.6012  3.1804  2.3272
  411MOL0     H55473   6.550   0.639   6.581 -0.1491 -0.6803  0.2054
  411MOL0     H55474   6.790   0.642   6.668 -2.1830  2.3724 -0.4765
  411MOL0     H55475   6.898   0.462   7.056  3.0896 -2.1808  1.3255
  411MOL0     H55476   6.937   0.333   6.956  1.3097 -0.2758  0.0728
  411MOL0     H55477   7.093   0.593   7.019  0.0324 -0.3505  0.5757
  411MOL0     H55478   7.118   0.492   6.864 -0.1168 -1.9537  0.0850
  411MOL0     H55479   7.292   0.456   7.013  0.2067  0.2150  0.4091
  411MOL0     H55480   7.177   0.319   7.039  2.1447 -0.4112  0.0894
  411MOL0     H55481   7.074   0.412   7.228 -1.3169  3.2557  0.0513
  411MOL0     H55482   7.160   0.557   7.231 -1.0014  0.5170  0.5966
  411MOL0     H55483   7.457   0.284   7.390  1.4800  0.1241 -2.4156
  411MOL0     H55484   6.712   0.334   6.950  2.8816  3.6012  1.4424
  411MOL0     H55485   6.480   0.313   6.862  0.1090 -1.1497  0.1250
  412MOL0     O55486   8.404   0.698   6.816  0.0985  0.2623  0.3274
  412MOL0     C55487   8.457   0.655   6.710  0.4083 -0.5298 -0.9573
  412MOL0     O55488   8.407   0.551   6.633 -0.6431 -0.7720 -0.7824
  412MOL0     C55489   8.280   0.503   6.650  0.5593  0.6412  0.9125
  412MOL0     C55490   8.164   0.580   6.675  0.6049 -0.5333  0.3661
  412MOL0     C55491   8.036   0.520   6.694  0.4949  0.3735 -0.2319
  412MOL0     C55492   8.026   0.373   6.681  0.1806  0.6643 -0.4154
  412MOL0     O55493   7.904   0.300   6.694 -0.1317 -0.1771  0.0417
  412MOL0     C55494   7.842   0.320   6.824  0.0564 -0.2432 -0.3840
  412MOL0     C55495   7.700   0.293   6.787 -0.1463 -0.2911 -0.1767
  412MOL0     C55496   7.629   0.420   6.736  0.3265 -0.2700  0.1996
  412MOL0     C55497   7.662   0.436   6.585  0.4905 -0.0113 -0.1578
  412MOL0     C55498   7.578   0.559   6.550  0.2808  0.1660  0.3601
  412MOL0     C55499   7.627   0.622   6.422 -0.9351 -0.7070  0.5055
  412MOL0     C55500   7.568   0.762   6.380 -0.6619  0.2346  0.1521
  412MOL0     C55501   7.588   0.811   6.236 -0.6755 -0.1553  0.2249
  412MOL0     N55502   7.536   0.944   6.208  0.0567 -0.4482 -0.8126
  412MOL0     C55503   7.405   0.982   6.243  0.1673 -0.4273 -0.8828
  412MOL0     C55504   7.377   1.080   6.154  1.0736 -0.5163 -0.3137
  412MOL0     C55505   7.233   1.138   6.142 -0.2618 -0.3482  0.5505
  412MOL0     C55506   7.134   1.043   6.075 -1.1106 -0.0684  0.9042
  412MOL0     C55507   7.179   0.999   5.930 -0.7596 -0.3230  0.6075
  412MOL0     C55508   7.063   0.938   5.853  0.9632  0.1928 -0.0752
  412MOL0     O55509   6.969   1.036   5.822  0.0889 -0.0466  0.1273
  412MOL0     C55510   6.846   1.004   5.777  0.4486 -0.3844  0.0320
  412MOL0     C55511   6.812   0.877   5.727  0.3098  0.4595 -0.2324
  412MOL0     C55512   6.680   0.845   5.693  0.8857  0.2925  0.3331
  412MOL0     C55513   6.661   0.698   5.651  0.2471 -0.5256  0.1359
  412MOL0     C55514   6.571   0.936   5.710  0.4384 -1.1850  0.5423
  412MOL0     C55515   6.428   0.921   5.683 -0.1408 -0.3708 -0.2936
  412MOL0     O55516   6.331   0.985   5.757 -0.4664  0.5540 -0.1224
  412MOL0     C55517   6.193   0.961   5.740 -0.5894  0.2611 -0.6799
  412MOL0     C55518   6.109   0.976   5.845  0.2836 -0.1113 -0.4260
  412MOL0     C55519   5.974   0.970   5.833 -0.5184  1.0010 -0.4370
  412MOL0     C55520   5.913   0.930   5.713  0.5397  0.0682  0.0330
  412MOL0     O55521   5.777   0.905   5.703 -0.0513  0.1130 -0.4842
  412MOL0     C55522   5.696   1.018   5.749  0.1815 -1.0974  0.3019
  412MOL0     C55523   5.545   0.983   5.756 -0.3797 -1.3911 -0.3145
  412MOL0     C55524   5.469   1.111   5.793 -0.2048  0.2609 -0.5468
  412MOL0     C55525   5.324   1.100   5.765 -0.5273  0.3630  0.0451
  412MOL0     C55526   5.251   1.227   5.811  0.0835 -0.1999  0.3516
  412MOL0     C55527   5.093   1.216   5.809 -0.6643 -0.1673 -1.1483
  412MOL0     C55528   5.043   1.304   5.701  0.0697  0.1374  0.0001
  412MOL0     C55529   5.084   1.274   5.550  0.0620  0.5719  0.5062
  412MOL0    Cl55530   5.088   1.099   5.513 -0.2843  0.2873  0.2448
  412MOL0     C55531   5.997   0.922   5.599  0.0272  0.1765 -0.7037
  412MOL0     C55532   6.136   0.940   5.619  0.4641  1.0922  0.6694
  412MOL0     O55533   6.402   0.834   5.596  0.1140 -0.2431  0.0141
  412MOL0     C55534   6.611   1.060   5.758 -0.1717  0.0453  0.2068
  412MOL0     C55535   6.743   1.091   5.798 -0.5711  0.0565  0.4955
  412MOL0     N55536   7.487   1.093   6.073  0.6844 -0.0255 -0.9007
  412MOL0     N55537   7.587   1.019   6.111 -0.7385  0.7146 -0.1100
  412MOL0     C55538   8.146   0.303   6.655  0.4308 -0.9826 -1.2324
  412MOL0     C55539   8.266   0.368   6.628 -0.7374 -0.5361 -0.4828
  412MOL0     C55540   8.585   0.709   6.667 -0.7029 -0.5935  0.7006
  412MOL0     C55541   8.653   0.800   6.743  0.0882  0.0027 -0.2580
  412MOL0     C55542   8.771   0.853   6.705  0.5204 -0.7719 -0.2881
  412MOL0     C55543   8.825   0.822   6.577 -0.4401 -1.2479  0.4083
  412MOL0     O55544   8.945   0.869   6.521  0.5125 -0.2419  0.2674
  412MOL0     C55545   9.036   0.946   6.605  0.0132  0.8643 -0.5692
  412MOL0     C55546   9.170   0.960   6.525  0.3999  0.6186  0.5863
  412MOL0     C55547   9.258   0.833   6.497  0.4705  0.3217 -1.0176
  412MOL0     C55548   9.244   0.791   6.349  0.9064 -0.4762  0.2961
  412MOL0     C55549   9.329   0.862   6.255  0.3455  0.8865 -0.2108
  412MOL0     C55550   9.385   0.908   6.162 -0.3750  0.0307 -0.4797
  412MOL0     C55551   8.766   0.729   6.501  0.0718  0.7005 -0.1463
  412MOL0     C55552   8.643   0.674   6.546  0.3603  0.2744  0.2169
  412MOL0     H55553   8.176   0.688   6.674  1.4824 -0.5816  1.7879
  412MOL0     H55554   7.945   0.579   6.701 -1.1345 -2.2346  2.8678
  412MOL0     H55555   7.890   0.248   6.892  2.0373  2.0432  0.8025
  412MOL0     H55556   7.854   0.414   6.878 -0.8239 -0.5461  0.3633
  412MOL0     H55557   7.695   0.203   6.725 -2.7323  0.5609 -1.3337
  412MOL0     H55558   7.654   0.263   6.881  1.8162 -1.5320  0.4402
  412MOL0     H55559   7.524   0.398   6.757 -0.2256  1.3579 -0.7265
  412MOL0     H55560   7.655   0.503   6.803  0.4210 -1.1718  1.3120
  412MOL0     H55561   7.768   0.464   6.580  0.5295  0.1711  1.3165
  412MOL0     H55562   7.644   0.348   6.522  2.5081 -0.5889 -0.0103
  412MOL0     H55563   7.473   0.529   6.541  0.1256 -1.1238  4.3095
  412MOL0     H55564   7.584   0.632   6.631  1.3067 -0.6781  1.0867
  412MOL0     H55565   7.734   0.641   6.434 -0.9385 -0.6343  0.4219
  412MOL0     H55566   7.599   0.557   6.339  0.6002 -1.9886  0.9287
  412MOL0     H55567   7.461   0.744   6.394 -0.6439  0.8206  1.0826
  412MOL0     H55568   7.611   0.836   6.448 -2.2671  0.5353  0.8776
  412MOL0     H55569   7.555   0.733   6.168 -2.2506 -1.7771  2.6540
  412MOL0     H55570   7.696   0.823   6.232 -0.0593 -4.4205 -0.6222
  412MOL0     H55571   7.348   0.933   6.320  3.5077  1.5850  3.3137
  412MOL0     H55572   7.198   1.160   6.243 -2.1346 -0.6311  0.0026
  412MOL0     H55573   7.236   1.235   6.092 -1.2321 -0.6180 -0.0571
  412MOL0     H55574   7.038   1.095   6.079 -2.8120 -2.9164  0.0914
  412MOL0     H55575   7.124   0.953   6.137  2.6278 -1.2800  0.0161
  412MOL0     H55576   7.257   0.922   5.932  0.8725  1.1202 -1.7336
  412MOL0     H55577   7.224   1.080   5.872 -0.7351  0.6272  1.9225
  412MOL0     H55578   7.020   0.855   5.910  1.4975  0.2962  0.4941
  412MOL0     H55579   7.110   0.896   5.763 -0.2724  2.0678 -1.6819
  412MOL0     H55580   6.895   0.811   5.706 -1.2255 -0.8376 -2.8038
  412MOL0     H55581   6.606   0.648   5.732 -1.4494  1.5447  0.3730
  412MOL0     H55582   6.606   0.693   5.557  2.2800  1.7958 -1.3102
  412MOL0     H55583   6.755   0.643   5.638  0.7876 -0.0476  1.7628
  412MOL0     H55584   6.153   0.994   5.943 -0.0998  0.5498 -0.3675
  412MOL0     H55585   5.913   0.976   5.922 -0.8853  0.0915 -0.6168
  412MOL0     H55586   5.739   1.066   5.837  3.0195 -2.0310 -0.4737
  412MOL0     H55587   5.710   1.093   5.670  0.2513  0.6947  1.9445
  412MOL0     H55588   5.516   0.938   5.661  0.3117 -0.5788 -0.9251
  412MOL0     H55589   5.544   0.906   5.834 -1.3215 -0.2719  0.8505
  412MOL0     H55590   5.513   1.191   5.732  1.6132 -0.2994 -0.0112
  412MOL0     H55591   5.480   1.138   5.898  0.7554 -0.9595 -0.3202
  412MOL0     H55592   5.299   1.076   5.661 -1.5817  1.5113  0.0142
  412MOL0     H55593   5.300   1.014   5.829  0.5444  0.1087  0.1145
  412MOL0     H55594   5.284   1.312   5.751 -0.8836  0.9435  1.3680
  412MOL0     H55595   5.282   1.247   5.914 -1.4639 -0.6121  0.9294
  412MOL0     H55596   5.060   1.112   5.810  0.4228 -0.5501  1.1009
  412MOL0     H55597   5.056   1.255   5.904 -0.8006 -1.0100 -0.8522
  412MOL0     H55598   5.067   1.409   5.720 -0.7401  0.1052  1.3762
  412MOL0     H55599   4.934   1.298   5.708  0.0431 -0.0013 -0.4803
  412MOL0     H55600   5.185   1.312   5.529  0.6438 -2.4740 -3.2506
  412MOL0     H55601   5.014   1.311   5.475 -1.7779 -4.5190 -0.6709
  412MOL0     H55602   5.965   0.879   5.504 -0.4226  4.0334 -2.4995
  412MOL0     H55603   6.201   0.944   5.531  2.3745  1.2817  2.0352
  412MOL0     H55604   6.535   1.136   5.773  0.0491  0.1952  0.5742
  412MOL0     H55605   6.761   1.191   5.836 -2.1580  1.5011 -2.2557
  412MOL0     H55606   8.150   0.196   6.637 -0.8436 -0.9784 -1.6427
  412MOL0     H55607   8.359   0.317   6.607 -0.3776 -0.6621  1.2292
  412MOL0     H55608   8.611   0.826   6.839 -0.1360  0.1058 -0.3815
  412MOL0     H55609   8.811   0.925   6.775 -2.6380  0.4958  0.3767
  412MOL0     H55610   9.005   1.049   6.625 -0.5961  0.7706 -1.0271
  412MOL0     H55611   9.051   0.895   6.701 -0.4647 -2.9291 -2.3382
  412MOL0     H55612   9.232   1.028   6.585  0.7421 -1.1049  2.3341
  412MOL0     H55613   9.154   1.014   6.432 -1.2466 -0.1038  0.4250
  412MOL0     H55614   9.230   0.753   6.567  0.7046 -0.7673 -2.1263
  412MOL0     H55615   9.358   0.869   6.523 -0.7091  1.3973  2.6402
  412MOL0     H55616   9.138   0.800   6.324  0.9713  1.3524  0.5129
  412MOL0     H55617   9.278   0.688   6.335  1.7923 -0.3136  1.1420
  412MOL0     H55618   9.453   0.958   6.095 -2.1186  0.9124 -1.6562
  412MOL0     H55619   8.810   0.704   6.405 -1.5634  1.1483 -1.0719
  412MOL0     H55620   8.590   0.614   6.473  0.9363  1.0152 -0.8329
  413MOL0     O55621   9.280   9.948   0.286  0.3661 -0.2673 -0.3282
  413MOL0     C55622   9.335   9.876   0.203  1.0042 -0.2291 -0.2625
  413MOL0     O55623   9.270   9.784   0.123 -0.4228 -0.4549  0.2136
  413MOL0     C55624   9.133   9.809   0.110  0.0983  0.3928  0.1040
  413MOL0     C55625   9.084   9.916   0.041  0.3823  0.1282  0.5732
  413MOL0     C55626   8.949   9.948   0.045 -0.5001  0.1850 -0.8151
  413MOL0     C55627   8.860   9.866   0.122 -0.7657  1.2900 -0.7790
  413MOL0     O55628   8.729   9.896   0.125 -0.4795 -0.1747 -0.1552
  413MOL0     C55629   8.679   9.952   0.249  0.7126  0.3821 -0.2624
  413MOL0     C55630   8.535   9.986   0.224  0.1275 -0.2977  0.1962
  413MOL0     C55631   8.475  10.039   0.355 -0.4220  0.2851  0.2416
  413MOL0     C55632   8.327  10.077   0.334  0.2376  0.2698  0.5914
  413MOL0     C55633   8.243   9.959   0.291 -0.9028  0.3358 -0.0016
  413MOL0     C55634   8.091   9.983   0.301  0.0689 -0.8668  0.0239
  413MOL0     C55635   8.009   9.873   0.233  0.7443  0.4461  0.0835
  413MOL0     C55636   8.000   9.746   0.321  1.2603 -0.4455  0.2418
  413MOL0     N55637   7.909   9.637   0.274 -0.8268 -0.7281  1.2636
  413MOL0     C55638   7.771   9.650   0.273 -0.0642  0.4820 -0.3275
  413MOL0     C55639   7.728   9.527   0.226  0.7575  0.1381 -0.6912
  413MOL0     C55640   7.586   9.497   0.192 -0.5091  0.2940  0.1804
  413MOL0     C55641   7.572   9.351   0.140  0.1932 -0.3693  0.4070
  413MOL0     C55642   7.435   9.319   0.092 -0.9297 -0.3966 -0.2448
  413MOL0     C55643   7.321   9.319   0.198 -0.1691  0.6691  0.1341
  413MOL0     O55644   7.237   9.435   0.172 -0.0972 -0.0822  0.8294
  413MOL0     C55645   7.138   9.458   0.258 -0.0331  0.5815 -0.4432
  413MOL0     C55646   7.115   9.404   0.388 -0.2935  0.0630 -0.3307
  413MOL0     C55647   6.998   9.421   0.466 -1.0102  0.3761  0.7190
  413MOL0     C55648   6.988   9.332   0.589 -0.0793  0.3550 -1.0043
  413MOL0     C55649   6.895   9.508   0.413 -0.2792  0.7457 -0.5975
  413MOL0     C55650   6.764   9.542   0.480 -0.4656 -0.8108 -0.0974
  413MOL0     O55651   6.707   9.439   0.549  0.8983 -0.0498  0.8080
  413MOL0     C55652   6.585   9.461   0.601  0.0116  0.9398  0.5922
  413MOL0     C55653   6.564   9.472   0.738  0.2986  0.1041  0.8879
  413MOL0     C55654   6.434   9.478   0.785  0.5510 -0.2831 -1.1465
  413MOL0     C55655   6.318   9.503   0.717  0.3369  0.2748 -0.6416
  413MOL0     O55656   6.197   9.524   0.779  0.6744 -0.2132 -0.1498
  413MOL0     C55657   6.077   9.543   0.694  0.8440  0.4847  0.1626
  413MOL0     C55658   5.945   9.475   0.744 -0.4099 -0.1041 -0.5394
  413MOL0     C55659   5.868   9.551   0.857  0.2641  0.5155  0.5045
  413MOL0     C55660   5.720   9.505   0.864 -0.1990 -0.6278  1.0742
  413MOL0     C55661   5.659   9.579   0.983  0.2531 -0.5654  0.0628
  413MOL0     C55662   5.508   9.576   0.968 -0.3301  0.8093  0.2494
  413MOL0     C55663   5.430   9.668   1.061 -1.2461 -0.4712 -0.4100
  413MOL0     C55664   5.436   9.815   1.027 -0.8676 -0.1141 -0.2378
  413MOL0    Cl55665   5.363   9.846   0.864 -0.0288  0.0743 -0.3106
  413MOL0     C55666   6.350   9.501   0.576  0.5401 -0.6820  0.3712
  413MOL0     C55667   6.478   9.483   0.519  0.6657 -0.0848 -0.0824
  413MOL0     O55668   6.720   9.659   0.474  0.0094 -0.4603  0.0268
  413MOL0     C55669   6.923   9.564   0.292  0.0839  0.8939 -0.1698
  413MOL0     C55670   7.036   9.536   0.213  0.3832  0.0253 -0.3353
  413MOL0     N55671   7.836   9.445   0.209 -0.7078 -0.3341 -0.1098
  413MOL0     N55672   7.943   9.509   0.242  0.0407  0.9315 -0.1005
  413MOL0     C55673   8.908   9.749   0.191  0.2679 -0.4726 -0.1153
  413MOL0     C55674   9.046   9.726   0.186 -0.7686  0.7067 -1.3191
  413MOL0     C55675   9.477   9.896   0.202 -0.4147 -0.3181  0.4413
  413MOL0     C55676   9.546  10.003   0.253  0.1893  0.7164  0.3448
  413MOL0     C55677   9.691  10.012   0.236 -0.1944 -0.2342  0.7142
  413MOL0     C55678   9.761   9.908   0.175  0.2756 -0.1860 -0.1040
  413MOL0     O55679   9.898   9.901   0.156 -0.3165 -0.3956  0.1314
  413MOL0     C55680   9.977  10.020   0.179 -0.2467 -0.6883 -0.4839
  413MOL0     C55681  10.034  10.023   0.322  0.3324 -0.5262 -0.5402
  413MOL0     C55682  10.058   9.884   0.389  0.4405  0.5937  0.1148
  413MOL0     C55683  10.161   9.878   0.494 -0.2713  0.4440 -0.3047
  413MOL0     C55684  10.138   9.976   0.599  0.4222  0.3604 -1.0458
  413MOL0     C55685  10.115  10.053   0.689  0.6515 -1.2030  0.6554
  413MOL0     C55686   9.688   9.801   0.132  0.4646 -0.7139  0.1059
  413MOL0     C55687   9.550   9.799   0.136 -0.4309  0.6723  0.0718
  413MOL0     H55688   9.154   9.981  -0.011  0.0982 -0.7209 -0.9479
  413MOL0     H55689   8.906  10.029  -0.013 -0.1494  0.8755 -0.1297
  413MOL0     H55690   8.686   9.889   0.338  0.3623  2.5239  1.3638
  413MOL0     H55691   8.725  10.048   0.272  1.8511 -0.3416  0.6227
  413MOL0     H55692   8.516  10.058   0.143 -3.8439  2.5192  3.2524
  413MOL0     H55693   8.488   9.888   0.207 -0.0386 -0.6338  2.3180
  413MOL0     H55694   8.483   9.953   0.423 -0.4703 -0.0228 -0.1423
  413MOL0     H55695   8.526  10.130   0.389 -1.9150  0.7075  1.4335
  413MOL0     H55696   8.283  10.114   0.427  1.3597  2.2790  0.3704
  413MOL0     H55697   8.305  10.151   0.258 -1.1372 -0.2935  0.4070
  413MOL0     H55698   8.262   9.942   0.184  0.6630  2.6154 -0.1607
  413MOL0     H55699   8.262   9.874   0.357 -0.6895 -0.9815 -1.7034
  413MOL0     H55700   8.058   9.997   0.404 -1.6696  2.0697 -0.8113
  413MOL0     H55701   8.070  10.077   0.248  0.3298  0.0307  1.4392
  413MOL0     H55702   7.909   9.912   0.215  0.5118  0.3945  1.1468
  413MOL0     H55703   8.044   9.855   0.131 -0.4402 -0.1487 -0.2456
  413MOL0     H55704   7.962   9.777   0.419 -2.2520  0.0317 -1.0895
  413MOL0     H55705   8.103   9.715   0.339  1.5651  1.0440  1.2473
  413MOL0     H55706   7.707   9.737   0.286  0.4575  0.8913 -0.4195
  413MOL0     H55707   7.520   9.503   0.279 -1.7717 -7.2029  0.3835
  413MOL0     H55708   7.556   9.571   0.118  2.1583 -1.0419 -2.4410
  413MOL0     H55709   7.598   9.295   0.230 -0.7225  0.7415  1.4003
  413MOL0     H55710   7.643   9.335   0.058 -0.8592  3.1597 -1.4085
  413MOL0     H55711   7.440   9.217   0.055  3.0444 -1.7789  3.2075
  413MOL0     H55712   7.407   9.391   0.015 -0.5144 -0.0738 -0.0996
  413MOL0     H55713   7.353   9.303   0.301 -0.8332  0.2206  0.2689
  413MOL0     H55714   7.255   9.234   0.186  0.0396  0.5699 -0.3437
  413MOL0     H55715   7.181   9.333   0.437  2.4985  2.3538 -0.5317
  413MOL0     H55716   6.910   9.371   0.655 -1.5428  0.7628 -2.8726
  413MOL0     H55717   6.968   9.228   0.563  2.2309 -0.1919 -0.8047
  413MOL0     H55718   7.081   9.336   0.647 -2.1537  1.7540  2.5392
  413MOL0     H55719   6.652   9.485   0.800  0.5025  1.0400  0.4142
  413MOL0     H55720   6.434   9.472   0.894 -0.9860 -0.1564 -1.1115
  413MOL0     H55721   6.053   9.647   0.671  1.3719  0.7069  0.6099
  413MOL0     H55722   6.092   9.504   0.593  0.1623 -0.7059  0.4982
  413MOL0     H55723   5.876   9.466   0.660 -1.3086  1.0419  0.0487
  413MOL0     H55724   5.963   9.371   0.773 -3.2879 -0.2434  1.1904
  413MOL0     H55725   5.869   9.657   0.832  3.0932  0.5507  0.4184
  413MOL0     H55726   5.922   9.543   0.952 -2.6493 -0.9528  2.1969
  413MOL0     H55727   5.670   9.546   0.775  1.4204 -0.4446  0.2070
  413MOL0     H55728   5.709   9.397   0.880 -0.2629 -0.3168  3.3944
  413MOL0     H55729   5.680   9.687   0.989 -0.1283 -0.4829 -0.1070
  413MOL0     H55730   5.697   9.538   1.077  1.1706 -2.9130 -1.2486
  413MOL0     H55731   5.471   9.589   0.866  0.6539 -2.3221 -0.6206
  413MOL0     H55732   5.467   9.477   0.990  0.2783  0.4030 -0.3981
  413MOL0     H55733   5.475   9.658   1.160 -0.0127  3.3528 -0.4448
  413MOL0     H55734   5.331   9.627   1.083 -0.8692 -0.1077  2.3121
  413MOL0     H55735   5.540   9.849   1.027 -0.6852 -0.6422  0.7387
  413MOL0     H55736   5.385   9.875   1.103  0.2054  2.6972 -1.5684
  413MOL0     H55737   6.270   9.521   0.505  1.1027  0.1416 -0.0635
  413MOL0     H55738   6.491   9.479   0.411  1.5014 -0.6217  0.0392
  413MOL0     H55739   6.846   9.631   0.254 -1.2092  0.5081  1.6623
  413MOL0     H55740   7.044   9.579   0.114  0.9743  0.7117  0.0007
  413MOL0     H55741   8.840   9.682   0.242 -0.5754  0.4063 -0.0571
  413MOL0     H55742   9.080   9.631   0.225  0.9697  1.8555  0.1154
  413MOL0     H55743   9.501  10.087   0.305  3.6977  3.1111 -0.2008
  413MOL0     H55744   9.739  10.097   0.283 -0.8644 -0.9000  2.7309
  413MOL0     H55745  10.052  10.035   0.101 -0.4829 -0.9244 -0.7563
  413MOL0     H55746   9.913  10.110   0.180  1.2525  0.4117  0.6700
  413MOL0     H55747   9.977  10.090   0.388  2.8560  0.1514  1.1281
  413MOL0     H55748  10.133  10.071   0.325 -0.4269  1.0762  1.4488
  413MOL0     H55749  10.088   9.810   0.315 -0.0166 -0.0947  0.5918
  413MOL0     H55750   9.957   9.870   0.429  0.4429  2.6964  0.9790
  413MOL0     H55751  10.253   9.906   0.442  1.5277  1.3065  3.0323
  413MOL0     H55752  10.171   9.775   0.531  2.4184  0.5227 -0.5973
  413MOL0     H55753  10.087  10.123   0.766  0.5286  0.6636 -0.9855
  413MOL0     H55754   9.743   9.713   0.102 -0.3356 -1.4511  0.7440
  413MOL0     H55755   9.505   9.714   0.086 -0.5391  1.4225 -1.1512
  414MOL0     O55756   1.464   0.178   4.277  0.3375 -0.1205 -0.3992
  414MOL0     C55757   1.495   0.076   4.343 -0.3052 -0.0740 -0.6831
  414MOL0     O55758   1.410  -0.013   4.415 -0.1116 -1.0292  0.2129
  414MOL0     C55759   1.270  -0.009   4.432  0.0300 -0.3005 -0.4864
  414MOL0     C55760   1.192   0.096   4.373  0.2364 -0.5022 -0.1501
  414MOL0     C55761   1.052   0.075   4.379 -0.2509  0.0214 -0.2406
  414MOL0     C55762   0.988  -0.018   4.465  0.1060 -0.2499 -0.4093
  414MOL0     O55763   0.851  -0.033   4.492  0.5764 -0.2225  0.7938
  414MOL0     C55764   0.754   0.061   4.436 -0.6421  0.1996  0.3215
  414MOL0     C55765   0.723   0.016   4.290 -0.7366 -0.2529  0.6145
  414MOL0     C55766   0.633  -0.104   4.285 -0.5592  0.1785 -0.6372
  414MOL0     C55767   0.495  -0.064   4.236 -0.0187  1.4036 -0.4228
  414MOL0     C55768   0.393  -0.176   4.215 -0.4909 -0.2722  0.2428
  414MOL0     C55769   0.260  -0.129   4.158 -0.2647 -0.7904 -0.5299
  414MOL0     C55770   0.265  -0.064   4.016 -0.2504  0.0322 -0.3672
  414MOL0     C55771   0.335  -0.150   3.908  0.7059 -0.4374  0.2340
  414MOL0     N55772   0.356  -0.061   3.792 -0.4159 -0.6772 -0.0518
  414MOL0     C55773   0.465   0.015   3.782  0.1627  0.4154 -0.1365
  414MOL0     C55774   0.455   0.081   3.664  0.5236  0.0373  0.2532
  414MOL0     C55775   0.558   0.149   3.575  0.1878 -0.3716 -0.4532
  414MOL0     C55776   0.672   0.045   3.541  0.3291 -0.4356  0.0069
  414MOL0     C55777   0.792   0.125   3.488  0.3640  0.5562 -0.1435
  414MOL0     C55778   0.909   0.040   3.445  0.5611 -0.5874 -0.5169
  414MOL0     O55779   0.990   0.008   3.562  0.7876 -0.1738 -0.4846
  414MOL0     C55780   1.115  -0.050   3.548  0.0838  0.3626 -0.4625
  414MOL0     C55781   1.166  -0.107   3.658 -0.1084  0.6525 -0.0930
  414MOL0     C55782   1.299  -0.142   3.668 -0.2478 -0.0959 -0.4498
  414MOL0     C55783   1.341  -0.199   3.809  0.3758 -0.4454 -0.3185
  414MOL0     C55784   1.383  -0.135   3.555 -0.0578  0.1446  0.0742
  414MOL0     C55785   1.537  -0.151   3.562  0.4215  0.0893  0.3718
  414MOL0     O55786   1.603  -0.186   3.441  0.3129  0.1078 -0.1761
  414MOL0     C55787   1.738  -0.208   3.450 -0.6773  1.0971  1.2743
  414MOL0     C55788   1.793  -0.286   3.552 -0.3781 -0.0235 -0.5268
  414MOL0     C55789   1.930  -0.315   3.548 -0.2294 -0.4193 -0.9206
  414MOL0     C55790   2.012  -0.277   3.439 -0.2660 -0.0829  0.6650
  414MOL0     O55791   2.144  -0.320   3.433 -0.1027  0.3686 -0.0787
  414MOL0     C55792   2.218  -0.353   3.312 -0.0438  0.4960 -0.1967
  414MOL0     C55793   2.153  -0.485   3.256 -0.2826 -0.6892 -0.1421
  414MOL0     C55794   2.227  -0.550   3.132  0.3232 -0.0593  0.3727
  414MOL0     C55795   2.151  -0.673   3.077 -0.5946  0.6122  0.2245
  414MOL0     C55796   2.245  -0.796   3.095 -0.4724  0.2971 -0.0085
  414MOL0     C55797   2.198  -0.925   3.033 -0.3901  0.2864  0.7479
  414MOL0     C55798   2.317  -1.025   3.005 -0.8484 -0.7371 -0.3753
  414MOL0     C55799   2.344  -1.109   3.132 -0.0703  0.1634  0.9915
  414MOL0    Cl55800   2.494  -1.204   3.124  0.1938  0.3000  0.3313
  414MOL0     C55801   1.950  -0.215   3.330 -0.2291 -0.2060  0.0663
  414MOL0     C55802   1.818  -0.168   3.337 -0.3234 -0.2444 -0.5729
  414MOL0     O55803   1.586  -0.130   3.669 -1.0273 -0.1609 -0.0856
  414MOL0     C55804   1.329  -0.097   3.430 -0.4908 -0.4460  0.4290
  414MOL0     C55805   1.191  -0.059   3.430 -0.0589 -0.7682 -0.1234
  414MOL0     N55806   0.331   0.043   3.606 -0.0440 -0.8186  0.4017
  414MOL0     N55807   0.269  -0.031   3.690  0.9889  0.8130  0.3728
  414MOL0     C55808   1.072  -0.115   4.525 -0.6111 -0.5799  0.6648
  414MOL0     C55809   1.214  -0.113   4.504  0.5649 -0.0187  0.1013
  414MOL0     C55810   1.649   0.057   4.350 -1.1966  0.1648  0.3311
  414MOL0     C55811   1.742   0.135   4.265  0.2106  0.0060  0.1499
  414MOL0     C55812   1.881   0.121   4.270 -0.2355  0.8650  0.3379
  414MOL0     C55813   1.937   0.007   4.332  1.0332  0.4314  0.5634
  414MOL0     O55814   2.070  -0.025   4.329 -0.4574  0.2729  0.8017
  414MOL0     C55815   2.166   0.075   4.295 -0.5795  0.0508  1.0017
  414MOL0     C55816   2.246   0.004   4.188  0.0627 -0.1727  0.6076
  414MOL0     C55817   2.363   0.092   4.151  0.8608  0.4841 -1.0667
  414MOL0     C55818   2.468   0.012   4.072 -0.5342 -0.5324  0.2444
  414MOL0     C55819   2.573   0.104   4.050 -0.9853 -0.4500 -0.1401
  414MOL0     C55820   2.671   0.173   4.040  0.0336  0.8666  0.1272
  414MOL0     C55821   1.853  -0.078   4.404 -0.1592  0.8935 -0.1233
  414MOL0     C55822   1.711  -0.053   4.419  0.1846  0.3347 -0.4013
  414MOL0     H55823   1.234   0.160   4.296 -2.2952 -1.4822 -2.5221
  414MOL0     H55824   0.988   0.153   4.338  1.7155  2.1599  0.5527
  414MOL0     H55825   0.662   0.062   4.495 -0.8564 -2.4655  0.1508
  414MOL0     H55826   0.802   0.159   4.444 -0.8242  0.2407  0.9824
  414MOL0     H55827   0.682   0.103   4.239 -0.6804 -0.1628  0.7224
  414MOL0     H55828   0.811  -0.013   4.232 -0.0191  0.3605  1.3723
  414MOL0     H55829   0.675  -0.174   4.213  1.8322  0.1483  0.6969
  414MOL0     H55830   0.623  -0.144   4.387  0.9037  0.8326 -0.2063
  414MOL0     H55831   0.462   0.009   4.310  0.9582 -2.1024  3.9267
  414MOL0     H55832   0.514  -0.018   4.139  2.5774 -0.4731 -0.8970
  414MOL0     H55833   0.426  -0.258   4.150 -1.6355 -1.2028  0.7861
  414MOL0     H55834   0.371  -0.222   4.313 -0.3810  1.2240  0.9953
  414MOL0     H55835   0.186  -0.209   4.164  0.1137 -1.3422 -2.5940
  414MOL0     H55836   0.215  -0.047   4.214 -3.1613 -1.1037 -2.1791
  414MOL0     H55837   0.165  -0.040   3.979  0.4628  1.3242 -1.5744
  414MOL0     H55838   0.330   0.024   4.021  0.0017 -0.1878  0.2350
  414MOL0     H55839   0.284  -0.243   3.880  0.1267 -0.7835  2.2540
  414MOL0     H55840   0.436  -0.176   3.942  0.7122 -0.1137  0.4723
  414MOL0     H55841   0.536   0.030   3.863  0.5532  1.1145 -0.5936
  414MOL0     H55842   0.509   0.184   3.484  0.4892 -0.6619 -0.7287
  414MOL0     H55843   0.601   0.238   3.622 -1.0772  0.3344 -0.5816
  414MOL0     H55844   0.633  -0.030   3.472  1.2639  0.1006 -1.1441
  414MOL0     H55845   0.702  -0.008   3.632  2.5429  2.0780  0.8847
  414MOL0     H55846   0.839   0.194   3.558  1.6671  0.7971 -1.2232
  414MOL0     H55847   0.755   0.168   3.394  2.4111 -1.6019 -2.0729
  414MOL0     H55848   0.970   0.104   3.381  3.0649 -2.5884 -0.2587
  414MOL0     H55849   0.891  -0.052   3.388  2.1200  0.0616 -2.1643
  414MOL0     H55850   1.103  -0.114   3.747 -0.3716 -1.2871 -0.3937
  414MOL0     H55851   1.398  -0.130   3.873 -2.0224  1.6461 -0.2800
  414MOL0     H55852   1.248  -0.224   3.860 -1.0233 -0.3487 -2.6827
  414MOL0     H55853   1.393  -0.294   3.795  0.7978 -0.3858  0.6980
  414MOL0     H55854   1.732  -0.327   3.632 -2.6435  2.0137 -1.0737
  414MOL0     H55855   1.990  -0.365   3.624  2.1783 -0.8697 -2.9910
  414MOL0     H55856   2.233  -0.274   3.238 -0.7570 -0.2961 -1.2070
  414MOL0     H55857   2.322  -0.371   3.342 -0.2433 -0.5348 -0.0960
  414MOL0     H55858   2.145  -0.564   3.331 -1.1093 -0.4094  0.0736
  414MOL0     H55859   2.052  -0.456   3.226 -0.5239 -1.0343  0.3368
  414MOL0     H55860   2.333  -0.555   3.158 -0.2117  1.1435  3.1344
  414MOL0     H55861   2.221  -0.475   3.053 -0.8488  0.1973  0.6893
  414MOL0     H55862   2.055  -0.698   3.123 -0.3929 -2.1839 -0.7157
  414MOL0     H55863   2.112  -0.658   2.976 -1.7330 -0.8136  0.4297
  414MOL0     H55864   2.249  -0.822   3.201 -1.1675  0.7976  0.1521
  414MOL0     H55865   2.342  -0.761   3.059 -1.0571  0.5339 -1.4409
  414MOL0     H55866   2.117  -0.982   3.080  0.4207 -3.0969 -1.5560
  414MOL0     H55867   2.166  -0.892   2.933  0.7849  2.0434  0.9086
  414MOL0     H55868   2.409  -0.973   2.979 -0.5767  0.7849  3.0935
  414MOL0     H55869   2.288  -1.094   2.925 -1.2305  0.4446 -1.2763
  414MOL0     H55870   2.258  -1.177   3.133 -2.1282  2.5758  0.0412
  414MOL0     H55871   2.334  -1.052   3.225 -4.3202  0.9085  0.3029
  414MOL0     H55872   2.010  -0.189   3.244 -0.9311 -0.9814 -0.6664
  414MOL0     H55873   1.766  -0.120   3.254 -0.0721  2.8714  0.8971
  414MOL0     H55874   1.388  -0.099   3.339 -1.5245 -3.5898 -0.3030
  414MOL0     H55875   1.150  -0.039   3.332  0.3169  0.7152  0.0005
  414MOL0     H55876   1.023  -0.198   4.573 -0.1688 -2.0201 -1.2502
  414MOL0     H55877   1.271  -0.199   4.540 -1.0822 -1.2154 -0.0351
  414MOL0     H55878   1.706   0.219   4.206 -0.2044  0.0634  0.4779
  414MOL0     H55879   1.944   0.204   4.240  0.6776  0.4193  0.9953
  414MOL0     H55880   2.132   0.172   4.259  0.6844 -0.0082 -0.4652
  414MOL0     H55881   2.224   0.108   4.381  1.2635  1.0951 -0.5447
  414MOL0     H55882   2.177   0.005   4.104  0.8059  0.6802 -0.0082
  414MOL0     H55883   2.274  -0.100   4.209  0.3116 -0.3478 -0.5734
  414MOL0     H55884   2.408   0.128   4.245  1.4140 -1.1522 -0.6727
  414MOL0     H55885   2.316   0.174   4.097 -4.1889 -1.1191  0.3920
  414MOL0     H55886   2.426  -0.018   3.975 -1.0414  0.3060  0.2007
  414MOL0     H55887   2.502  -0.066   4.141 -0.8910  0.7895  1.9994
  414MOL0     H55888   2.753   0.238   4.015  0.2420 -0.8114 -4.3292
  414MOL0     H55889   1.902  -0.152   4.466  1.8835  2.3223  0.0496
  414MOL0     H55890   1.660  -0.127   4.479  2.6309 -1.6661 -0.6660
  415MOL0     O55891   9.584   8.383   8.574  0.1795 -0.2686  0.1722
  415MOL0     C55892   9.661   8.358   8.669 -0.0830 -0.2029  0.3083
  415MOL0     O55893   9.628   8.316   8.786 -0.3901 -0.6453 -0.3602
  415MOL0     C55894   9.502   8.349   8.829  0.0917  0.4365 -0.0288
  415MOL0     C55895   9.467   8.460   8.909  0.7334  0.5974 -0.2048
  415MOL0     C55896   9.342   8.478   8.966  0.1650  0.4771  0.9095
  415MOL0     C55897   9.234   8.388   8.923 -0.0034  0.0720  0.3091
  415MOL0     O55898   9.098   8.404   8.955  0.0585  0.3311  0.9481
  415MOL0     C55899   9.063   8.532   9.011  0.4342  1.0388  0.2522
  415MOL0     C55900   8.909   8.550   9.014 -0.4316  1.0016 -0.3645
  415MOL0     C55901   8.865   8.658   9.120 -0.0259  1.3987  0.3768
  415MOL0     C55902   8.717   8.659   9.141  0.1545 -0.2493  1.1439
  415MOL0     C55903   8.676   8.752   9.256 -0.2981  0.8529  0.6024
  415MOL0     C55904   8.524   8.761   9.247  0.6966 -0.0435 -0.2673
  415MOL0     C55905   8.469   8.860   9.355 -0.4307  0.4806  0.2398
  415MOL0     C55906   8.322   8.885   9.311 -0.5056  0.2369  0.2952
  415MOL0     N55907   8.240   8.932   9.419 -0.6194  0.4455  0.4702
  415MOL0     C55908   8.228   8.867   9.539  0.0020  1.1218  1.0820
  415MOL0     C55909   8.134   8.946   9.598 -0.2209 -0.7488 -0.0710
  415MOL0     C55910   8.075   8.912   9.732 -0.2421 -0.0472 -0.3683
  415MOL0     C55911   8.114   9.018   9.836 -0.1999  0.6309  0.2157
  415MOL0     C55912   8.095   8.956   9.984 -0.1369 -0.5348 -0.6055
  415MOL0     C55913   7.949   8.958  10.033 -0.2981 -0.4684 -0.7991
  415MOL0     O55914   7.890   8.835   9.992  0.3157 -0.1412 -0.3992
  415MOL0     C55915   7.760   8.833  10.018 -0.2211 -0.3820 -0.0018
  415MOL0     C55916   7.684   8.923  10.097  0.5584 -1.0254  0.3841
  415MOL0     C55917   7.544   8.902  10.120  0.3089  0.1957 -0.0271
  415MOL0     C55918   7.475   9.000  10.210 -0.4162  0.5626  0.1007
  415MOL0     C55919   7.478   8.800  10.048  0.0116  0.5567  0.3322
  415MOL0     C55920   7.328   8.774  10.035  0.3279 -0.7750 -0.1684
  415MOL0     O55921   7.283   8.715   9.927  0.4248  0.7299  0.3467
  415MOL0     C55922   7.158   8.706   9.889 -0.0076 -0.4283  0.4575
  415MOL0     C55923   7.114   8.582   9.840 -0.5651 -0.5181  0.6228
  415MOL0     C55924   6.977   8.561   9.801 -0.2512  0.3506  0.5263
  415MOL0     C55925   6.884   8.669   9.806 -0.3226  0.5824 -0.8274
  415MOL0     O55926   6.752   8.624   9.781 -0.5793 -0.7525  0.2259
  415MOL0     C55927   6.648   8.715   9.772 -0.0143 -1.2093 -0.0466
  415MOL0     C55928   6.514   8.680   9.704 -0.1819 -0.3917  0.2155
  415MOL0     C55929   6.389   8.753   9.761 -0.4031 -0.5564  0.7080
  415MOL0     C55930   6.270   8.756   9.668  0.1490 -0.7144  0.0040
  415MOL0     C55931   6.289   8.845   9.543  0.4200 -0.6472  0.5239
  415MOL0     C55932   6.253   8.989   9.573  0.3305  0.0794  0.4487
  415MOL0     C55933   6.272   9.081   9.448 -0.9721  0.4595  0.4566
  415MOL0     C55934   6.288   9.222   9.495 -0.4364 -0.5131 -0.1031
  415MOL0    Cl55935   6.434   9.264   9.597 -0.4966 -0.3455 -0.0623
  415MOL0     C55936   6.930   8.791   9.855 -0.1183  0.4217  0.0659
  415MOL0     C55937   7.060   8.810   9.898 -0.3138 -0.4443  0.3070
  415MOL0     O55938   7.253   8.813  10.121  0.4733 -0.5012  0.2609
  415MOL0     C55939   7.553   8.714   9.963  0.4937  0.7431  0.3737
  415MOL0     C55940   7.690   8.730   9.954  0.1026 -0.3008 -0.0404
  415MOL0     N55941   8.097   9.047   9.520  0.0254 -0.5641 -0.0416
  415MOL0     N55942   8.152   9.037   9.403 -0.3597 -0.0521 -0.3099
  415MOL0     C55943   9.268   8.279   8.844  0.0892 -0.0926  0.3085
  415MOL0     C55944   9.400   8.256   8.799  0.2348  0.4990 -0.2552
  415MOL0     C55945   9.803   8.389   8.658 -0.4726  0.5536  0.1712
  415MOL0     C55946   9.888   8.425   8.769  0.6732 -0.8122  0.5837
  415MOL0     C55947  10.021   8.449   8.748  1.1537  0.3339  0.1969
  415MOL0     C55948  10.083   8.448   8.623 -0.2103  0.7662  0.3888
  415MOL0     O55949  10.209   8.488   8.618 -0.1850 -0.0394  0.2807
  415MOL0     C55950  10.280   8.476   8.491  0.4678  0.2629 -0.5533
  415MOL0     C55951  10.426   8.457   8.533  0.7262  0.0856 -0.2837
  415MOL0     C55952  10.510   8.416   8.409  0.0510  0.3085 -0.5056
  415MOL0     C55953  10.662   8.404   8.440 -0.2440  0.6392 -0.5895
  415MOL0     C55954  10.739   8.355   8.323  0.9565 -0.5272 -0.7682
  415MOL0     C55955  10.823   8.338   8.236  0.4644  1.1190  0.6848
  415MOL0     C55956  10.001   8.404   8.513 -0.0812  0.1694 -0.0378
  415MOL0     C55957   9.867   8.376   8.530 -0.8528 -0.1262  0.1729
  415MOL0     H55958   9.532   8.547   8.916 -0.9228  1.8374  0.4134
  415MOL0     H55959   9.312   8.558   9.032 -0.5229 -1.4725  3.1221
  415MOL0     H55960   9.104   8.546   9.111 -0.9379  5.4677  0.4156
  415MOL0     H55961   9.107   8.607   8.946  0.5999 -0.7063 -1.7594
  415MOL0     H55962   8.871   8.579   8.916 -0.9552  0.8889 -0.2016
  415MOL0     H55963   8.853   8.458   9.034  0.6529  0.6499  1.2819
  415MOL0     H55964   8.923   8.626   9.208  0.2706 -0.8331 -0.5440
  415MOL0     H55965   8.906   8.754   9.090  2.3432  1.0135  1.9933
  415MOL0     H55966   8.668   8.707   9.055  0.8493  2.2981  2.1058
  415MOL0     H55967   8.676   8.558   9.153  2.0992 -1.1266  0.6972
  415MOL0     H55968   8.699   8.704   9.352  0.5017 -1.3863 -0.6557
  415MOL0     H55969   8.737   8.843   9.252  0.8560  0.0492 -1.6201
  415MOL0     H55970   8.502   8.807   9.150  0.4898  1.0751  0.2860
  415MOL0     H55971   8.482   8.661   9.247 -1.0908  0.6722 -0.0906
  415MOL0     H55972   8.478   8.816   9.455  1.6978 -0.2680 -0.2403
  415MOL0     H55973   8.529   8.951   9.352 -0.2996  0.4059  0.5113
  415MOL0     H55974   8.273   8.793   9.277  0.8200  0.5694 -2.8633
  415MOL0     H55975   8.325   8.955   9.227 -1.2774 -1.4370 -1.2024
  415MOL0     H55976   8.258   8.769   9.575 -0.5421 -0.2804 -1.9979
  415MOL0     H55977   7.966   8.910   9.723 -0.1442  0.3145 -1.8814
  415MOL0     H55978   8.114   8.815   9.764 -1.4226  0.5985  3.6379
  415MOL0     H55979   8.056   9.110   9.833 -2.8045 -0.9284 -0.0758
  415MOL0     H55980   8.219   9.044   9.819 -0.0767  0.1568  0.2349
  415MOL0     H55981   8.149   9.018  10.055  0.6215 -1.0336 -0.7370
  415MOL0     H55982   8.140   8.857   9.993  0.6552 -0.4732 -3.1489
  415MOL0     H55983   7.895   9.042   9.990 -1.0982 -0.5031  0.0990
  415MOL0     H55984   7.951   8.965  10.143 -1.9568 -2.5480 -0.5652
  415MOL0     H55985   7.725   9.014  10.140 -1.7285  0.4433 -0.3425
  415MOL0     H55986   7.546   9.051  10.275  2.7800 -1.4675 -1.5477
  415MOL0     H55987   7.428   9.074  10.145 -1.7843 -2.2268 -2.3486
  415MOL0     H55988   7.395   8.942  10.256 -0.3018 -0.7036 -1.2342
  415MOL0     H55989   7.198   8.516   9.823 -0.0588  0.0375  0.9312
  415MOL0     H55990   6.943   8.468   9.756  1.7797 -0.9013  1.4127
  415MOL0     H55991   6.623   8.761   9.868 -1.3669 -0.9228 -0.5136
  415MOL0     H55992   6.674   8.809   9.723 -1.4984 -0.5729  0.3335
  415MOL0     H55993   6.524   8.696   9.596  0.3474  0.9875  0.4387
  415MOL0     H55994   6.500   8.573   9.718 -0.3132 -0.2832  0.9659
  415MOL0     H55995   6.419   8.857   9.771 -4.0511  0.8066 -0.5916
  415MOL0     H55996   6.367   8.706   9.858 -0.4735  0.9001  1.4302
  415MOL0     H55997   6.228   8.657   9.647 -1.7794  0.4262 -1.9578
  415MOL0     H55998   6.187   8.801   9.723 -1.0949 -3.9130  0.9907
  415MOL0     H55999   6.221   8.823   9.461 -0.9335  3.8392  0.1698
  415MOL0     H56000   6.393   8.834   9.510  2.2672  0.2832  5.1202
  415MOL0     H56001   6.149   8.994   9.604 -0.2479 -2.0709 -0.9186
  415MOL0     H56002   6.308   9.024   9.661  0.5887  0.5654  0.1008
  415MOL0     H56003   6.188   9.066   9.379 -0.0694  1.5383 -0.9209
  415MOL0     H56004   6.356   9.040   9.391 -1.5509 -1.6288  0.9964
  415MOL0     H56005   6.195   9.242   9.547  0.3604  1.4746  0.6526
  415MOL0     H56006   6.302   9.282   9.404  2.6598  1.1033  1.2803
  415MOL0     H56007   6.861   8.875   9.861 -1.6555 -0.5281 -2.4301
  415MOL0     H56008   7.078   8.909   9.940  0.4022 -0.4868  0.1145
  415MOL0     H56009   7.504   8.642   9.898 -1.8604  0.7159  2.0682
  415MOL0     H56010   7.739   8.646   9.905 -0.3650 -0.3074 -0.5121
  415MOL0     H56011   9.199   8.199   8.819 -0.2525  0.5806 -1.0551
  415MOL0     H56012   9.417   8.179   8.724  1.1124 -0.2039  0.6383
  415MOL0     H56013   9.840   8.433   8.866 -1.8986 -1.4761 -0.5506
  415MOL0     H56014  10.089   8.484   8.825  0.9901  0.8469  0.1098
  415MOL0     H56015  10.266   8.376   8.449  2.6813 -1.0373  1.5316
  415MOL0     H56016  10.272   8.567   8.431 -2.1934  0.6130  0.2434
  415MOL0     H56017  10.424   8.374   8.604 -1.3945 -0.3614 -0.7764
  415MOL0     H56018  10.468   8.551   8.571 -0.3440  1.0121 -1.2856
  415MOL0     H56019  10.493   8.497   8.338 -1.1293  0.0695 -0.5297
  415MOL0     H56020  10.467   8.325   8.365  0.7111  0.0631 -0.6490
  415MOL0     H56021  10.672   8.340   8.528 -1.9796  0.1378 -0.7038
  415MOL0     H56022  10.712   8.494   8.476  0.7569 -1.0615  2.6341
  415MOL0     H56023  10.891   8.306   8.161  2.2163 -1.7046  3.2565
  415MOL0     H56024  10.041   8.417   8.413 -0.2116 -2.4371 -0.5080
  415MOL0     H56025   9.812   8.351   8.440  0.6270  0.3902 -0.9015
  416MOL0     O56026   4.746   9.135   7.645 -1.0246 -0.2743  0.0996
  416MOL0     C56027   4.756   9.027   7.705 -0.3874 -0.0101 -0.5747
  416MOL0     O56028   4.653   8.940   7.735  0.4149 -0.0546 -0.1605
  416MOL0     C56029   4.522   8.990   7.711 -0.3033  0.2619  1.1350
  416MOL0     C56030   4.430   8.893   7.665 -0.6655  0.2748 -0.8713
  416MOL0     C56031   4.292   8.931   7.642 -0.6951 -0.4789  0.3420
  416MOL0     C56032   4.253   9.065   7.651  0.2350  0.1705 -0.4352
  416MOL0     O56033   4.127   9.108   7.621 -0.1822 -0.3562  0.0669
  416MOL0     C56034   4.042   9.056   7.515  0.1996  0.5468 -0.2350
  416MOL0     C56035   4.108   9.096   7.379  0.1955  0.1182 -0.3060
  416MOL0     C56036   4.123   9.248   7.362 -0.2431  0.5949 -0.8460
  416MOL0     C56037   4.197   9.294   7.238 -0.2403  0.5093  0.6690
  416MOL0     C56038   4.210   9.447   7.252  0.5701 -0.1871  0.5716
  416MOL0     C56039   4.286   9.507   7.136  0.3428 -0.2458 -0.2889
  416MOL0     C56040   4.297   9.656   7.140  0.4263 -0.3473 -0.3881
  416MOL0     C56041   4.201   9.722   7.040 -0.1086 -0.6943  0.2521
  416MOL0     N56042   4.214   9.870   7.045  0.1149 -0.7563  0.4822
  416MOL0     C56043   4.160   9.950   7.144 -0.3063  0.1952 -0.5654
  416MOL0     C56044   4.185  10.081   7.098 -0.1193  0.6738  0.1999
  416MOL0     C56045   4.139  10.200   7.191  0.7907 -0.0535  0.3873
  416MOL0     C56046   4.082  10.308   7.091 -0.0834 -0.6501 -0.4114
  416MOL0     C56047   3.974  10.251   6.998  0.2748  0.0829  0.4198
  416MOL0     C56048   3.839  10.231   7.077  0.6898  0.0107  0.4567
  416MOL0     O56049   3.851  10.111   7.151 -0.0044  1.0021  0.1854
  416MOL0     C56050   3.757  10.111   7.254  0.2129 -0.0916  0.8828
  416MOL0     C56051   3.801  10.081   7.380 -0.2801 -0.5874 -0.0780
  416MOL0     C56052   3.714  10.076   7.490 -1.0378  0.8526 -0.0658
  416MOL0     C56053   3.778  10.048   7.615 -0.0444 -0.0768 -0.3700
  416MOL0     C56054   3.574  10.103   7.471 -0.5172  0.8302 -0.5974
  416MOL0     C56055   3.470  10.082   7.576 -0.2255  0.3813 -0.3581
  416MOL0     O56056   3.348  10.114   7.539  0.2921  0.3371  0.4138
  416MOL0     C56057   3.241  10.043   7.576  0.2053 -0.5061  0.2291
  416MOL0     C56058   3.199  10.031   7.712  0.0272  0.4785  0.2960
  416MOL0     C56059   3.083   9.961   7.745 -0.5158  0.5679  0.7109
  416MOL0     C56060   3.010   9.899   7.649 -0.4754 -0.1741  1.1576
  416MOL0     O56061   2.880   9.858   7.661  0.5330 -0.5988  0.3898
  416MOL0     C56062   2.819   9.871   7.787 -0.0051  0.1505  0.7178
  416MOL0     C56063   2.673   9.798   7.782  0.4960 -0.6771  0.6425
  416MOL0     C56064   2.562   9.876   7.702  0.8983  0.2409  0.8924
  416MOL0     C56065   2.433   9.790   7.713 -0.4325  0.1841 -0.6008
  416MOL0     C56066   2.312   9.857   7.650 -0.1634 -0.2130  0.2498
  416MOL0     C56067   2.178   9.787   7.681 -1.0634  0.2369 -0.2706
  416MOL0     C56068   2.070   9.821   7.580 -0.2205  0.3628 -0.5405
  416MOL0     C56069   1.931   9.808   7.632  0.9219 -1.0310  0.2263
  416MOL0    Cl56070   1.866   9.644   7.618 -0.1313 -0.0627 -0.1890
  416MOL0     C56071   3.057   9.894   7.519  0.1367  0.2804 -0.1844
  416MOL0     C56072   3.166   9.975   7.478 -1.0911 -0.2373 -0.4175
  416MOL0     O56073   3.494  10.024   7.677 -0.2445 -0.0833  0.1034
  416MOL0     C56074   3.533  10.125   7.333 -0.0105 -0.2648  0.6494
  416MOL0     C56075   3.623  10.125   7.233 -0.4572 -0.2680  0.6105
  416MOL0     N56076   4.268  10.070   6.986 -0.0366  0.4365  0.6591
  416MOL0     N56077   4.280   9.946   6.963  0.0171  0.1156 -0.0181
  416MOL0     C56078   4.338   9.156   7.706  0.3722  0.2809 -0.3094
  416MOL0     C56079   4.470   9.126   7.735 -0.6326  0.0813 -0.0651
  416MOL0     C56080   4.885   8.984   7.764  0.6482 -0.9560  0.6785
  416MOL0     C56081   4.994   9.068   7.793  0.9514  0.4528 -1.1283
  416MOL0     C56082   5.106   9.015   7.857 -0.3987  0.5763  0.6281
  416MOL0     C56083   5.126   8.880   7.886 -0.0749 -0.0135 -0.3743
  416MOL0     O56084   5.238   8.823   7.936  1.7187 -0.2737  0.4094
  416MOL0     C56085   5.350   8.914   7.948  0.8334 -0.3834  0.3134
  416MOL0     C56086   5.467   8.836   8.001  0.2921 -0.7279 -1.2472
  416MOL0     C56087   5.589   8.928   7.997 -0.0718  0.2753  0.3728
  416MOL0     C56088   5.712   8.868   8.062  0.2580  0.0957 -0.1856
  416MOL0     C56089   5.698   8.867   8.206  0.2002 -0.0467 -0.1512
  416MOL0     C56090   5.688   8.907   8.316  0.3467 -0.4338 -0.1832
  416MOL0     C56091   5.018   8.795   7.857 -0.3116  0.3149  0.3892
  416MOL0     C56092   4.909   8.845   7.791 -0.0529 -0.8373  0.3409
  416MOL0     H56093   4.445   8.785   7.665 -0.5787  0.1479  2.9849
  416MOL0     H56094   4.224   8.846   7.640 -0.4626 -0.6747  0.7229
  416MOL0     H56095   4.043   8.946   7.522 -1.0278  0.6084  1.8474
  416MOL0     H56096   3.937   9.076   7.540  0.9220  0.1314  3.8272
  416MOL0     H56097   4.206   9.046   7.383  0.1345 -0.0573 -0.9286
  416MOL0     H56098   4.058   9.051   7.293  2.2114  0.3097 -1.6497
  416MOL0     H56099   4.022   9.289   7.364  0.4586  2.4886  1.8531
  416MOL0     H56100   4.176   9.283   7.452 -1.5545 -2.7604  1.4577
  416MOL0     H56101   4.292   9.239   7.235  0.0237  0.8388 -4.0910
  416MOL0     H56102   4.146   9.266   7.145  0.3708  2.0827 -0.1741
  416MOL0     H56103   4.110   9.491   7.258  0.0783 -1.3687  1.4707
  416MOL0     H56104   4.263   9.464   7.346  1.3790 -1.3584  0.3539
  416MOL0     H56105   4.386   9.463   7.133  0.4821  0.0904 -0.6571
  416MOL0     H56106   4.231   9.478   7.046  1.4342 -0.7771 -0.8115
  416MOL0     H56107   4.271   9.682   7.244 -2.3958 -1.6122 -0.6911
  416MOL0     H56108   4.399   9.684   7.112  0.0317  0.4114 -1.0912
  416MOL0     H56109   4.105   9.686   7.077  0.4193 -1.8991  0.4948
  416MOL0     H56110   4.222   9.688   6.939  3.6460  0.8644  0.3276
  416MOL0     H56111   4.088   9.939   7.225 -1.0476  0.0615 -1.2308
  416MOL0     H56112   4.056  10.166   7.254  0.2149  1.1829  0.3085
  416MOL0     H56113   4.221  10.239   7.253  0.7411 -1.1242  1.1600
  416MOL0     H56114   4.167  10.339   7.029 -0.6079  2.5415  0.3074
  416MOL0     H56115   4.066  10.405   7.140 -0.7219 -0.4305 -1.0414
  416MOL0     H56116   3.996  10.158   6.945  3.0463  1.2466 -0.6808
  416MOL0     H56117   3.964  10.325   6.918 -1.4719 -3.5248 -2.9566
  416MOL0     H56118   3.754  10.230   7.008 -1.3469  1.8817  2.7543
  416MOL0     H56119   3.819  10.318   7.140  0.9489 -0.7965  1.7041
  416MOL0     H56120   3.905  10.050   7.391 -0.6487 -2.1108 -0.6285
  416MOL0     H56121   3.887  10.043   7.615 -0.0413 -1.7463  1.9808
  416MOL0     H56122   3.741  10.114   7.694 -2.1520  0.2120 -1.5443
  416MOL0     H56123   3.746   9.946   7.638 -1.8914  0.2389 -1.3917
  416MOL0     H56124   3.249  10.083   7.793  3.5692  0.7594 -1.8277
  416MOL0     H56125   3.067   9.989   7.849  2.6549  1.5452  1.0421
  416MOL0     H56126   2.884   9.823   7.860  2.0821 -0.2301 -1.2837
  416MOL0     H56127   2.804   9.976   7.815 -0.5856 -0.0496  1.1719
  416MOL0     H56128   2.687   9.691   7.765 -0.7220 -0.8105  0.3632
  416MOL0     H56129   2.631   9.800   7.883  1.7526  1.7993  1.1820
  416MOL0     H56130   2.600   9.880   7.600  0.7975 -2.2261  0.6885
  416MOL0     H56131   2.544   9.975   7.744 -1.6097  0.6436 -0.9192
  416MOL0     H56132   2.449   9.691   7.669 -1.5868  1.0273 -3.0850
  416MOL0     H56133   2.407   9.770   7.817 -1.5612 -2.7076 -1.3364
  416MOL0     H56134   2.339   9.848   7.544 -0.0901  1.1582  0.1333
  416MOL0     H56135   2.305   9.962   7.680  0.5662  0.0248 -0.4018
  416MOL0     H56136   2.195   9.680   7.698  2.8350  0.6112 -0.9059
  416MOL0     H56137   2.149   9.822   7.781 -0.9808  0.7891 -0.4331
  416MOL0     H56138   2.080   9.767   7.485  1.4050  1.2086 -0.8740
  416MOL0     H56139   2.092   9.925   7.554  0.8184  0.3348  0.1711
  416MOL0     H56140   1.863   9.870   7.572  1.5232 -1.1077 -0.5520
  416MOL0     H56141   1.919   9.846   7.734  1.8997 -1.8151  0.6484
  416MOL0     H56142   2.996   9.851   7.440 -0.7332 -0.1101  0.6892
  416MOL0     H56143   3.202  10.005   7.380 -1.8653  0.2119 -0.5670
  416MOL0     H56144   3.430  10.138   7.303  0.8571  2.7249 -1.4163
  416MOL0     H56145   3.583  10.147   7.135  2.7266  0.0159 -0.7399
  416MOL0     H56146   4.311   9.256   7.738  0.3743 -0.8052  3.6557
  416MOL0     H56147   4.531   9.207   7.772 -1.4279  0.2916  0.8237
  416MOL0     H56148   4.982   9.176   7.801  1.3687  0.3408  2.9251
  416MOL0     H56149   5.178   9.095   7.872  0.1226  0.5073 -1.1607
  416MOL0     H56150   5.373   8.967   7.855 -0.9761 -0.5687 -0.2846
  416MOL0     H56151   5.325   8.995   8.017 -1.3465 -0.3130 -0.4772
  416MOL0     H56152   5.481   8.754   7.930 -0.5797  0.3799 -2.7600
  416MOL0     H56153   5.444   8.805   8.103 -0.8161  3.3028 -0.0539
  416MOL0     H56154   5.558   9.019   8.048 -1.7592  0.0056 -0.0926
  416MOL0     H56155   5.616   8.957   7.895  0.2128 -2.9104 -0.5664
  416MOL0     H56156   5.791   8.933   8.024  0.2253 -1.4823 -3.2343
  416MOL0     H56157   5.731   8.762   8.042 -0.6214 -0.6545  2.4950
  416MOL0     H56158   5.689   8.935   8.419 -3.2921 -1.5042  0.2520
  416MOL0     H56159   5.023   8.691   7.888  2.4720  0.1957 -0.2428
  416MOL0     H56160   4.838   8.768   7.761  1.9388 -0.8917 -5.5019
  417MOL0     O56161   2.226  10.301   4.908 -0.0520 -0.5672  0.6807
  417MOL0     C56162   2.286  10.204   4.869 -0.4067 -0.0935 -0.0738
  417MOL0     O56163   2.226  10.085   4.839 -0.4618 -0.3023  0.2160
  417MOL0     C56164   2.090  10.081   4.818  0.0638 -0.1576 -0.4615
  417MOL0     C56165   2.026  10.178   4.741 -0.6145  0.4260  0.0169
  417MOL0     C56166   1.890  10.179   4.734 -0.0864 -0.7032  0.1061
  417MOL0     C56167   1.815  10.079   4.800  0.3865  0.4825 -0.4891
  417MOL0     O56168   1.681  10.083   4.800 -0.8024  0.3008 -0.0874
  417MOL0     C56169   1.614  10.142   4.688  0.0331  0.1378  0.1869
  417MOL0     C56170   1.478  10.080   4.692 -0.0783 -0.8195 -0.1747
  417MOL0     C56171   1.388  10.153   4.593  0.4845 -0.3519 -0.1671
  417MOL0     C56172   1.249  10.101   4.608  0.2064  0.5010 -0.2519
  417MOL0     C56173   1.170  10.167   4.494 -0.6384 -0.1841 -0.4821
  417MOL0     C56174   1.030  10.098   4.491 -0.0727  0.1573 -0.7204
  417MOL0     C56175   0.955  10.120   4.357  0.2578  0.5964  0.4156
  417MOL0     C56176   0.932  10.267   4.342  0.5398 -0.0937 -0.5244
  417MOL0     N56177   0.818  10.285   4.255  0.0269  0.1789 -0.0424
  417MOL0     C56178   0.823  10.271   4.118  0.0960  0.7361 -0.5015
  417MOL0     C56179   0.695  10.273   4.081  0.6070  0.5378  0.6711
  417MOL0     C56180   0.635  10.231   3.943  0.0820 -0.9775 -0.6363
  417MOL0     C56181   0.632  10.079   3.940 -0.2748 -0.2632 -0.2747
  417MOL0     C56182   0.564  10.006   4.066  0.2607  0.2613 -0.2415
  417MOL0     C56183   0.422  10.051   4.096 -0.3381  0.8082  0.5727
  417MOL0     O56184   0.331  10.006   3.991 -0.2444 -0.1081  0.6898
  417MOL0     C56185   0.198  10.035   4.001  0.0665 -1.6022  0.5877
  417MOL0     C56186   0.097   9.972   3.915 -0.4479  1.0984 -0.7473
  417MOL0     C56187  -0.047   9.986   3.927  0.0141 -0.4535  0.3782
  417MOL0     C56188  -0.134   9.937   3.821  0.4907  0.4525  0.1185
  417MOL0     C56189  -0.098  10.059   4.036  0.4517 -0.0171 -0.4308
  417MOL0     C56190  -0.248  10.078   4.066 -0.3879 -0.2672 -0.0913
  417MOL0     O56191  -0.271  10.153   4.175 -0.0253  0.2239 -0.3997
  417MOL0     C56192  -0.394  10.180   4.226  1.3411  0.2252 -0.7130
  417MOL0     C56193  -0.511  10.090   4.211  0.0375 -0.6969  0.4084
  417MOL0     C56194  -0.636  10.116   4.271  0.4618  0.7891  0.2153
  417MOL0     C56195  -0.645  10.228   4.345  0.5119 -0.0285 -0.9507
  417MOL0     O56196  -0.763  10.243   4.414 -0.6607 -0.6002 -0.3290
  417MOL0     C56197  -0.882  10.256   4.328 -0.5950 -0.7470  0.3601
  417MOL0     C56198  -1.007  10.278   4.410  0.2093 -0.3922  0.3950
  417MOL0     C56199  -1.143  10.287   4.339  0.5768  0.2422 -0.0599
  417MOL0     C56200  -1.252  10.291   4.452  0.6203 -0.3691  0.2918
  417MOL0     C56201  -1.381  10.340   4.400  0.0493  0.7742  0.7031
  417MOL0     C56202  -1.488  10.336   4.516  0.8697 -0.1550  0.2902
  417MOL0     C56203  -1.616  10.395   4.454 -0.5465 -0.0845 -0.4554
  417MOL0     C56204  -1.724  10.387   4.562  0.0681 -0.7627  0.0480
  417MOL0    Cl56205  -1.689  10.523   4.689 -0.0365 -0.0505 -0.4274
  417MOL0     C56206  -0.534  10.311   4.376  0.1993  0.6825  0.2033
  417MOL0     C56207  -0.407  10.283   4.318  0.0576  0.8370 -0.4709
  417MOL0     O56208  -0.335  10.039   3.991 -0.0762  0.2059  0.1885
  417MOL0     C56209  -0.004  10.126   4.118 -0.4395  0.4430  0.6781
  417MOL0     C56210   0.136  10.116   4.108  0.6154 -0.1594  0.2285
  417MOL0     N56211   0.620  10.293   4.194  0.5131  0.9646  0.0027
  417MOL0     N56212   0.694  10.312   4.300 -0.7123 -0.7283 -0.0237
  417MOL0     C56213   1.878   9.968   4.855  0.1561  0.0126 -0.1522
  417MOL0     C56214   2.015   9.971   4.868 -0.9637  0.7981 -0.7415
  417MOL0     C56215   2.430  10.229   4.850  0.3515  0.7146  0.6940
  417MOL0     C56216   2.509  10.117   4.826 -0.0646 -0.9252  0.6652
  417MOL0     C56217   2.644  10.123   4.782  0.4641  0.4318  0.5627
  417MOL0     C56218   2.704  10.245   4.770  0.3273 -0.6754 -0.0102
  417MOL0     O56219   2.838  10.228   4.740 -0.7919  0.7878  0.1321
  417MOL0     C56220   2.912  10.342   4.685  0.2777 -0.2215 -0.0628
  417MOL0     C56221   3.030  10.361   4.782  0.0913 -0.6315  1.4159
  417MOL0     C56222   2.983  10.416   4.914  0.1030 -0.5143  0.1846
  417MOL0     C56223   3.097  10.410   5.014 -0.1663 -0.6829  0.7979
  417MOL0     C56224   3.086  10.513   5.117 -0.2050  0.3950  0.1197
  417MOL0     C56225   3.078  10.594   5.210  0.1677 -1.0020  1.0848
  417MOL0     C56226   2.634  10.362   4.807  0.6901 -0.0463 -0.6765
  417MOL0     C56227   2.496  10.348   4.854 -0.8823  0.2112  0.1053
  417MOL0     H56228   2.085  10.257   4.696  2.4081 -1.4159  0.4195
  417MOL0     H56229   1.840  10.264   4.689  0.7687 -0.8395 -1.1361
  417MOL0     H56230   1.598  10.249   4.701  1.8124  0.5132 -0.4652
  417MOL0     H56231   1.655  10.125   4.588  0.4817  0.8035  0.2565
  417MOL0     H56232   1.494   9.975   4.666 -1.2652 -1.0650  0.0298
  417MOL0     H56233   1.432  10.104   4.789  1.8981 -1.0979  0.8816
  417MOL0     H56234   1.388  10.261   4.607  1.3046 -0.5490  1.6123
  417MOL0     H56235   1.418  10.130   4.491  0.3796  0.1661 -0.3152
  417MOL0     H56236   1.241   9.996   4.579 -2.1805  0.2961  0.8985
  417MOL0     H56237   1.192  10.109   4.701 -0.9958  2.6645 -1.1060
  417MOL0     H56238   1.154  10.273   4.515  2.0583  0.6782 -2.2398
  417MOL0     H56239   1.220  10.157   4.397  0.1180  2.4622 -0.4444
  417MOL0     H56240   1.049   9.990   4.503  0.2992  0.3865  1.1323
  417MOL0     H56241   0.966  10.134   4.573 -2.8593  1.3494 -3.2524
  417MOL0     H56242   1.006  10.083   4.268  0.3842 -0.1642  0.7942
  417MOL0     H56243   0.861  10.064   4.362  1.7764 -2.2142 -0.1483
  417MOL0     H56244   1.017  10.313   4.290 -0.1242  1.0738 -0.5979
  417MOL0     H56245   0.917  10.314   4.439  1.3786 -2.3079  0.7391
  417MOL0     H56246   0.910  10.251   4.056 -0.6136  2.2303 -2.0640
  417MOL0     H56247   0.537  10.279   3.940  0.5166  0.0001  0.2267
  417MOL0     H56248   0.692  10.270   3.858 -1.0479  0.8004 -0.6286
  417MOL0     H56249   0.733  10.039   3.925  0.5908  1.3420  0.9634
  417MOL0     H56250   0.565  10.058   3.857 -1.2821  3.9185 -0.7255
  417MOL0     H56251   0.625  10.025   4.155 -0.9288  0.3527  0.5811
  417MOL0     H56252   0.559   9.897   4.051 -1.1994  0.0914  1.1292
  417MOL0     H56253   0.417  10.160   4.108 -0.4655  0.5647  3.3509
  417MOL0     H56254   0.381  10.010   4.188 -0.9772  0.2434  0.0517
  417MOL0     H56255   0.121   9.901   3.836 -1.7167  0.9876 -1.0664
  417MOL0     H56256  -0.195  10.013   3.770  1.7062  1.1036 -0.4319
  417MOL0     H56257  -0.070   9.896   3.741  0.0947 -0.6523  0.3582
  417MOL0     H56258  -0.198   9.857   3.857 -0.1261  0.8799 -0.0132
  417MOL0     H56259  -0.506  10.009   4.140 -1.7562 -0.6748  0.2346
  417MOL0     H56260  -0.714  10.042   4.266  0.0946  1.2498 -1.7224
  417MOL0     H56261  -0.864  10.348   4.271  0.9171 -1.9701 -1.2298
  417MOL0     H56262  -0.886  10.161   4.276  0.8811 -0.8026  0.3150
  417MOL0     H56263  -1.018  10.196   4.481 -3.0828 -0.2763  0.1514
  417MOL0     H56264  -0.990  10.365   4.474  1.0744 -0.6294  0.4996
  417MOL0     H56265  -1.163  10.204   4.271  0.9654 -0.3919  0.5892
  417MOL0     H56266  -1.142  10.381   4.282  1.1821 -0.1400 -0.7022
  417MOL0     H56267  -1.271  10.193   4.496 -0.0879 -0.5051 -0.2899
  417MOL0     H56268  -1.225  10.370   4.522  1.9130 -0.1856 -0.3699
  417MOL0     H56269  -1.419  10.271   4.324 -1.4463  0.3598  1.7718
  417MOL0     H56270  -1.368  10.442   4.361  5.0462  0.7022  1.5921
  417MOL0     H56271  -1.495  10.238   4.564  3.3620 -0.3541  0.3270
  417MOL0     H56272  -1.448  10.405   4.592 -2.7563  2.2102  0.3420
  417MOL0     H56273  -1.642  10.333   4.368  0.0171 -0.4367 -0.3782
  417MOL0     H56274  -1.594  10.499   4.429  0.9469 -0.5718 -1.3088
  417MOL0     H56275  -1.730  10.285   4.601  2.4522 -1.8866 -2.1885
  417MOL0     H56276  -1.828  10.410   4.537  1.1593  3.4126 -1.5738
  417MOL0     H56277  -0.548  10.397   4.441  1.5505 -0.6245  2.3363
  417MOL0     H56278  -0.317  10.340   4.342  0.4402 -0.4019  1.1886
  417MOL0     H56279  -0.035  10.188   4.202 -4.1000  0.0754 -0.2222
  417MOL0     H56280   0.192  10.164   4.188  0.0848 -2.3520  1.9983
  417MOL0     H56281   1.812   9.888   4.889 -1.3817 -0.1672 -3.1598
  417MOL0     H56282   2.067   9.890   4.917 -0.6312 -0.1150 -2.5051
  417MOL0     H56283   2.456  10.022   4.825 -1.3907 -0.2217 -0.5281
  417MOL0     H56284   2.707  10.037   4.759  1.5663  0.9210  1.6592
  417MOL0     H56285   2.952  10.317   4.586  2.0444  1.1600  0.2463
  417MOL0     H56286   2.847  10.428   4.667  0.7568  0.2607  0.4568
  417MOL0     H56287   3.089  10.441   4.736 -0.9454  0.0343  1.2216
  417MOL0     H56288   3.085  10.267   4.789 -1.5168 -1.8872 -1.1088
  417MOL0     H56289   2.904  10.352   4.956 -2.3752  2.0615 -0.2320
  417MOL0     H56290   2.939  10.514   4.896  0.4921 -0.6819 -1.9504
  417MOL0     H56291   3.190  10.425   4.958 -0.2742 -1.8807  0.2664
  417MOL0     H56292   3.094  10.311   5.059  0.7489 -0.9231  0.3709
  417MOL0     H56293   3.073  10.670   5.286  0.9066  1.2392 -0.9746
  417MOL0     H56294   2.679  10.460   4.809 -0.0147  0.3286 -2.0102
  417MOL0     H56295   2.441  10.437   4.884  1.4818  1.9817 -0.5336
  418MOL0     O56296   0.089   0.425  10.460 -1.0198  0.6741 -0.4949
  418MOL0     C56297   0.161   0.332  10.488 -0.3356 -0.7833 -0.8884
  418MOL0     O56298   0.120   0.201  10.479 -0.1234 -0.0326  0.1389
  418MOL0     C56299  -0.005   0.165  10.446 -0.1755  0.4361 -0.3088
  418MOL0     C56300  -0.068   0.193  10.327  0.1594  0.0475 -0.1019
  418MOL0     C56301  -0.204   0.168  10.314  0.4334 -0.4788 -0.2783
  418MOL0     C56302  -0.286   0.124  10.420 -0.4828 -0.0678  0.1182
  418MOL0     O56303  -0.417   0.115  10.391 -0.5588 -0.1349  0.1657
  418MOL0     C56304  -0.476  -0.018  10.414 -0.5020  0.2253 -0.4211
  418MOL0     C56305  -0.623  -0.019  10.360 -0.6377  0.0307  0.0383
  418MOL0     C56306  -0.685  -0.164  10.390  0.3408  0.8185  0.3101
  418MOL0     C56307  -0.834  -0.167  10.331  0.1508  0.2392  0.4543
  418MOL0     C56308  -0.951  -0.110  10.419  0.0111 -0.2699  0.7060
  418MOL0     C56309  -1.085  -0.104  10.353 -0.3923  0.2027 -0.2305
  418MOL0     C56310  -1.185  -0.017  10.423  0.2710  0.3741  0.3515
  418MOL0     C56311  -1.262  -0.083  10.535  0.1207  0.1542  0.1578
  418MOL0     N56312  -1.366   0.012  10.572  0.2582 -0.4280  0.0045
  418MOL0     C56313  -1.470   0.067  10.487  0.6384 -0.8034 -0.6319
  418MOL0     C56314  -1.537   0.148  10.579 -0.1399 -0.2135  0.1648
  418MOL0     C56315  -1.655   0.223  10.532  0.1687  0.1922  0.5935
  418MOL0     C56316  -1.783   0.149  10.496 -0.7161  0.0855  0.2936
  418MOL0     C56317  -1.837   0.115  10.635  0.2662  0.4729  0.0176
  418MOL0     C56318  -1.982   0.061  10.620  0.1699  0.3749 -0.6822
  418MOL0     O56319  -2.068   0.160  10.560  0.2107  0.5041  0.2255
  418MOL0     C56320  -2.204   0.147  10.583 -0.6954 -0.2804  0.5164
  418MOL0     C56321  -2.266   0.016  10.611  0.2786 -1.1715  0.2198
  418MOL0     C56322  -2.405   0.008  10.624  1.0560  0.0354  0.1896
  418MOL0     C56323  -2.466  -0.125  10.654  0.9088  0.3554  0.2558
  418MOL0     C56324  -2.487   0.126  10.630  0.1040  0.1648 -0.1860
  418MOL0     C56325  -2.639   0.124  10.634 -0.1223  0.2282 -0.6577
  418MOL0     O56326  -2.688   0.177  10.753  0.2874 -0.4065  0.0470
  418MOL0     C56327  -2.820   0.165  10.781  0.0773  0.3976 -0.6126
  418MOL0     C56328  -2.929   0.247  10.731 -0.1355 -0.7657 -0.9359
  418MOL0     C56329  -3.065   0.220  10.783 -0.5934 -0.1586  0.5248
  418MOL0     C56330  -3.088   0.112  10.871  0.3347  0.1164 -0.3346
  418MOL0     O56331  -3.226   0.089  10.905  0.0548 -0.6707  0.4679
  418MOL0     C56332  -3.262  -0.049  10.934  0.4162 -0.3317 -0.5713
  418MOL0     C56333  -3.413  -0.065  10.957  0.4643 -0.3260 -0.6656
  418MOL0     C56334  -3.447  -0.032  11.096  0.4680 -0.7504  0.2548
  418MOL0     C56335  -3.607  -0.032  11.110  0.4901 -0.3634 -0.0251
  418MOL0     C56336  -3.657  -0.008  11.259  0.7024 -0.0301  0.2184
  418MOL0     C56337  -3.812  -0.027  11.273  0.0116  0.4347  0.1696
  418MOL0     C56338  -3.873  -0.160  11.237 -0.5086  0.3189 -0.6226
  418MOL0     C56339  -4.024  -0.159  11.254  0.6585 -0.0606 -0.6458
  418MOL0    Cl56340  -4.075  -0.163  11.433 -0.6072  0.0643 -0.3825
  418MOL0     C56341  -2.984   0.027  10.915  0.6296 -0.1267  0.0925
  418MOL0     C56342  -2.855   0.065  10.877 -0.4370 -0.4994 -0.7345
  418MOL0     O56343  -2.702   0.111  10.526 -0.1354 -0.3480  0.5050
  418MOL0     C56344  -2.425   0.251  10.616 -0.3213 -0.8861  0.6813
  418MOL0     C56345  -2.288   0.257  10.580  0.2228  0.0578 -0.0101
  418MOL0     N56346  -1.479   0.143  10.702 -0.6287  0.5699  0.0598
  418MOL0     N56347  -1.381   0.059  10.701 -0.4085 -0.0594  0.2670
  418MOL0     C56348  -0.217   0.104  10.541  0.8659  0.3306  0.0431
  418MOL0     C56349  -0.077   0.108  10.549  0.4899 -0.3045  0.6941
  418MOL0     C56350   0.300   0.354  10.544  0.3891 -0.5985  1.3847
  418MOL0     C56351   0.362   0.263  10.631  0.1001  0.0577 -0.2559
  418MOL0     C56352   0.486   0.292  10.688  0.2640  0.0374  0.2848
  418MOL0     C56353   0.558   0.412  10.650  0.6174 -0.5032  0.3177
  418MOL0     O56354   0.682   0.426  10.707 -0.1990 -1.1498 -0.2849
  418MOL0     C56355   0.766   0.544  10.682  0.5514 -0.6601 -0.2014
  418MOL0     C56356   0.903   0.533  10.754  0.2066 -0.4304 -0.2365
  418MOL0     C56357   0.897   0.476  10.896 -0.1546  1.1171  0.5584
  418MOL0     C56358   0.807   0.550  11.005  0.4173  0.3564 -0.8096
  418MOL0     C56359   0.852   0.689  11.017  0.4672 -0.2686  0.0526
  418MOL0     C56360   0.900   0.796  11.019  0.8753  0.5401 -0.0098
  418MOL0     C56361   0.496   0.506  10.566 -0.2287 -0.4249  0.9037
  418MOL0     C56362   0.365   0.478  10.514  0.1689  1.1263 -0.3018
  418MOL0     H56363  -0.004   0.230  10.247 -1.0795  0.8598 -0.7561
  418MOL0     H56364  -0.253   0.196  10.221 -0.3251 -1.6765 -0.2617
  418MOL0     H56365  -0.424  -0.098  10.362 -0.0179 -0.1649  0.6276
  418MOL0     H56366  -0.475  -0.024  10.523 -1.6269  0.4718 -0.3799
  418MOL0     H56367  -0.679   0.060  10.411  0.0293 -1.2154  2.8996
  418MOL0     H56368  -0.624   0.003  10.253 -3.5336  1.8597  0.3517
  418MOL0     H56369  -0.624  -0.241  10.341 -1.1715  1.7694 -3.4475
  418MOL0     H56370  -0.684  -0.177  10.498  0.6685  0.5866  0.2818
  418MOL0     H56371  -0.828  -0.106  10.240  0.6170 -0.6150 -0.0933
  418MOL0     H56372  -0.861  -0.270  10.305  2.0626 -0.2146  0.1693
  418MOL0     H56373  -0.960  -0.169  10.511  2.7963 -2.4234 -0.2606
  418MOL0     H56374  -0.913  -0.014  10.455  0.0698  0.6295 -1.6428
  418MOL0     H56375  -1.075  -0.077  10.248  1.7559 -1.3110 -0.4809
  418MOL0     H56376  -1.124  -0.205  10.367 -0.6728  0.4252  0.7028
  418MOL0     H56377  -1.149   0.084  10.445 -1.7426  1.0101  1.0035
  418MOL0     H56378  -1.255  -0.005  10.340  2.0782  0.7592 -1.1966
  418MOL0     H56379  -1.192  -0.097  10.618  0.5677 -0.7245 -0.3637
  418MOL0     H56380  -1.313  -0.170  10.493 -0.1165  0.5292 -0.3412
  418MOL0     H56381  -1.509   0.050  10.387 -0.4128  0.8731 -0.5448
  418MOL0     H56382  -1.684   0.298  10.606 -2.6251 -1.6561  1.5499
  418MOL0     H56383  -1.631   0.280  10.442 -2.4872 -0.0872 -0.3908
  418MOL0     H56384  -1.771   0.065  10.427 -2.2955  1.9506 -2.4684
  418MOL0     H56385  -1.850   0.217  10.442  1.1821 -0.1303 -2.5608
  418MOL0     H56386  -1.838   0.198  10.705 -3.0497  0.7361 -0.2094
  418MOL0     H56387  -1.770   0.044  10.686  0.6912 -0.1073 -1.2901
  418MOL0     H56388  -2.017   0.047  10.722  2.0533  0.3794  0.0079
  418MOL0     H56389  -1.982  -0.030  10.560 -0.1939  0.9481 -1.5822
  418MOL0     H56390  -2.210  -0.075  10.629 -1.0798 -1.7876  1.5741
  418MOL0     H56391  -2.559  -0.111  10.710 -0.6964 -0.5421 -2.0144
  418MOL0     H56392  -2.489  -0.171  10.557  2.3470  2.0799 -0.9506
  418MOL0     H56393  -2.398  -0.193  10.706 -0.1956 -1.5366 -0.6546
  418MOL0     H56394  -2.900   0.317  10.653  1.5410  1.2828  1.4067
  418MOL0     H56395  -3.145   0.276  10.736  0.1117  2.0282  1.8056
  418MOL0     H56396  -3.232  -0.108  10.847 -0.7479  1.0171 -1.9407
  418MOL0     H56397  -3.197  -0.086  11.014 -0.0273  1.3382  0.6009
  418MOL0     H56398  -3.470  -0.010  10.882 -0.7118 -2.1036 -1.1469
  418MOL0     H56399  -3.445  -0.168  10.937  0.4149 -0.1004 -1.8103
  418MOL0     H56400  -3.405   0.064  11.128  1.0746 -0.5957 -0.9325
  418MOL0     H56401  -3.401  -0.109  11.159 -1.4831 -0.3605  2.2697
  418MOL0     H56402  -3.661   0.043  11.052 -0.0070 -1.1041 -0.5333
  418MOL0     H56403  -3.644  -0.129  11.076  0.5058 -0.6467  0.7360
  418MOL0     H56404  -3.644   0.099  11.280 -0.0857  0.3516 -1.1094
  418MOL0     H56405  -3.599  -0.072  11.325 -0.6935 -3.6765 -1.8035
  418MOL0     H56406  -3.828  -0.007  11.379  1.2053 -0.3981  0.5369
  418MOL0     H56407  -3.855   0.053  11.212 -0.5493 -1.1405 -1.5827
  418MOL0     H56408  -3.827  -0.241  11.295  0.3555  1.8730  0.9518
  418MOL0     H56409  -3.856  -0.173  11.130 -2.0831  4.5350 -1.5724
  418MOL0     H56410  -4.071  -0.244  11.204  0.2576  0.3968 -1.0642
  418MOL0     H56411  -4.066  -0.067  11.212 -0.3791  0.1916  0.8387
  418MOL0     H56412  -3.004  -0.054  10.985 -1.4014  0.7183  0.5709
  418MOL0     H56413  -2.774   0.000  10.908 -0.1179  0.5360  0.7007
  418MOL0     H56414  -2.486   0.341  10.614  3.3814  1.8680 -0.1680
  418MOL0     H56415  -2.246   0.351  10.545 -0.3003  0.9761  1.7184
  418MOL0     H56416  -0.277   0.070  10.625 -1.0023  2.3807 -0.3464
  418MOL0     H56417  -0.022   0.091  10.641  0.8785 -0.2281  0.4788
  418MOL0     H56418   0.307   0.173  10.657 -0.9065  0.5897 -0.4959
  418MOL0     H56419   0.520   0.233  10.773 -0.0684  0.7381  0.9138
  418MOL0     H56420   0.781   0.572  10.578  0.2756  0.1128 -0.0386
  418MOL0     H56421   0.714   0.631  10.724  2.4305  1.7649 -2.5340
  418MOL0     H56422   0.944   0.634  10.765 -0.8391  0.4922 -3.5387
  418MOL0     H56423   0.980   0.484  10.694  1.1564  1.8782 -1.0236
  418MOL0     H56424   0.998   0.474  10.936 -0.0704  1.0964  0.3441
  418MOL0     H56425   0.868   0.370  10.889 -2.9102  1.8726 -0.7518
  418MOL0     H56426   0.804   0.494  11.099  0.4411 -1.3550 -1.7714
  418MOL0     H56427   0.706   0.562  10.964  0.1443 -1.2229 -0.6873
  418MOL0     H56428   0.938   0.894  11.001 -0.0184  1.1440  1.2481
  418MOL0     H56429   0.546   0.595  10.531 -0.5176  0.3299  2.3132
  418MOL0     H56430   0.340   0.547  10.435  2.4977 -2.9207 -5.0976
  419MOL0     O56431   9.766   7.552   4.250  0.2939 -0.4020  0.3264
  419MOL0     C56432   9.829   7.457   4.213  0.0492  0.1112  0.9569
  419MOL0     O56433   9.779   7.360   4.129 -0.2827  0.2063 -0.0976
  419MOL0     C56434   9.652   7.367   4.080 -0.0397  0.3932 -1.4578
  419MOL0     C56435   9.624   7.396   3.949 -0.2764 -0.4832  0.0204
  419MOL0     C56436   9.493   7.393   3.906  0.6984  0.0451  0.1875
  419MOL0     C56437   9.382   7.374   3.988 -0.3178  0.0381 -0.5640
  419MOL0     O56438   9.252   7.369   3.942 -0.3090  0.1789 -0.1881
  419MOL0     C56439   9.146   7.320   4.032 -0.0441 -1.0285 -0.6578
  419MOL0     C56440   9.011   7.322   3.951 -0.8226 -0.6183  0.7127
  419MOL0     C56441   9.001   7.204   3.854  0.0429 -0.7593  1.0538
  419MOL0     C56442   8.857   7.206   3.805  0.2088  0.2160 -0.3120
  419MOL0     C56443   8.828   7.089   3.714 -0.3457 -0.3449 -0.1769
  419MOL0     C56444   8.684   7.047   3.703  0.6884 -0.2343 -0.0502
  419MOL0     C56445   8.584   7.165   3.668  0.2963 -0.7834 -0.2997
  419MOL0     C56446   8.437   7.137   3.649 -0.3302  0.1978  1.1343
  419MOL0     N56447   8.343   7.248   3.645 -0.0906  0.1573  0.0183
  419MOL0     C56448   8.212   7.233   3.688 -0.6217 -0.1718 -0.1179
  419MOL0     C56449   8.150   7.335   3.626 -0.0022 -0.0070  0.3333
  419MOL0     C56450   8.001   7.370   3.626  0.0783 -0.1758  0.4296
  419MOL0     C56451   7.962   7.511   3.576 -0.5976  0.2999  0.1024
  419MOL0     C56452   7.845   7.555   3.657  0.0780  0.1536  0.5039
  419MOL0     C56453   7.800   7.695   3.615 -0.6014  1.1497 -0.0127
  419MOL0     O56454   7.675   7.730   3.679 -0.6901  0.5301 -0.3335
  419MOL0     C56455   7.561   7.699   3.615  0.0290  0.0587 -0.4857
  419MOL0     C56456   7.541   7.618   3.499 -0.1722  0.2750 -0.3592
  419MOL0     C56457   7.420   7.605   3.443  0.1439  0.1183 -0.3270
  419MOL0     C56458   7.417   7.519   3.319  0.0837 -0.0670 -0.5411
  419MOL0     C56459   7.309   7.670   3.497 -0.4895  0.0115 -0.7534
  419MOL0     C56460   7.171   7.669   3.439 -0.0858  0.1156 -0.0041
  419MOL0     O56461   7.121   7.540   3.410 -0.6035 -0.3291  0.3933
  419MOL0     C56462   7.004   7.529   3.346 -0.0460  0.3136 -0.2236
  419MOL0     C56463   7.012   7.474   3.221  0.5577  0.5612 -0.7717
  419MOL0     C56464   6.903   7.460   3.139 -0.2178  0.0622 -0.0190
  419MOL0     C56465   6.778   7.505   3.176  0.5482 -0.0638 -0.4116
  419MOL0     O56466   6.673   7.513   3.092  0.4656  0.0621  0.0531
  419MOL0     C56467   6.613   7.394   3.035  0.0585 -0.6538 -0.6465
  419MOL0     C56468   6.456   7.387   3.057 -0.0084 -0.3639 -0.3437
  419MOL0     C56469   6.400   7.252   3.017  0.5724 -0.6803  0.3917
  419MOL0     C56470   6.245   7.261   3.043  0.1124  0.4403 -0.1929
  419MOL0     C56471   6.192   7.116   3.025 -1.0148 -0.4001 -0.1727
  419MOL0     C56472   6.041   7.120   3.044  0.2843 -0.2073  0.0276
  419MOL0     C56473   5.969   6.982   3.030  0.3364 -1.0974  0.1213
  419MOL0     C56474   6.029   6.881   3.119  0.9818  0.3300 -0.6195
  419MOL0    Cl56475   5.916   6.741   3.123 -0.1781  0.1557  0.0906
  419MOL0     C56476   6.762   7.551   3.312 -0.6137  0.5941 -0.1091
  419MOL0     C56477   6.879   7.576   3.393  0.3449  0.9271  0.3259
  419MOL0     O56478   7.115   7.782   3.419  0.2600 -0.5791 -0.2258
  419MOL0     C56479   7.326   7.746   3.613 -0.8857  0.4005  0.4879
  419MOL0     C56480   7.454   7.754   3.676  1.0388  0.7428  0.2559
  419MOL0     N56481   8.236   7.398   3.539 -0.3449 -0.0925  0.5238
  419MOL0     N56482   8.347   7.342   3.549 -0.0026  0.6631  0.2398
  419MOL0     C56483   9.419   7.360   4.129  0.3398 -1.1239 -0.6438
  419MOL0     C56484   9.550   7.356   4.173  0.0295 -0.6964  0.1729
  419MOL0     C56485   9.957   7.431   4.279 -0.0037  0.3798 -0.0860
  419MOL0     C56486  10.055   7.348   4.217 -0.2293 -0.5465 -0.3350
  419MOL0     C56487  10.190   7.332   4.269  1.0310 -0.3156 -0.1880
  419MOL0     C56488  10.222   7.395   4.394  0.0853 -0.1100 -0.0010
  419MOL0     O56489  10.336   7.376   4.469 -0.2922  0.1869  0.0439
  419MOL0     C56490  10.423   7.270   4.428  0.2066 -0.8323 -0.0726
  419MOL0     C56491  10.556   7.289   4.494  0.2438  0.3154 -0.1060
  419MOL0     C56492  10.592   7.442   4.479 -0.3099  0.0830 -0.1135
  419MOL0     C56493  10.611   7.494   4.335 -0.2651 -0.8085 -0.4431
  419MOL0     C56494  10.737   7.447   4.277  0.4577  0.3387  0.2582
  419MOL0     C56495  10.838   7.404   4.232 -0.2831 -0.5506 -0.1153
  419MOL0     C56496  10.121   7.473   4.453  0.0204 -0.1521  0.2204
  419MOL0     C56497   9.991   7.490   4.405 -0.7174  0.3940 -0.2637
  419MOL0     H56498   9.693   7.426   3.871 -0.4404  0.0264  0.0707
  419MOL0     H56499   9.474   7.394   3.799 -3.0214  2.1557  0.6734
  419MOL0     H56500   9.174   7.222   4.072  1.2576 -0.8247 -1.0334
  419MOL0     H56501   9.141   7.390   4.116 -4.4785  0.4754 -1.8923
  419MOL0     H56502   8.941   7.319   4.035 -0.4766 -1.9038  0.9812
  419MOL0     H56503   9.003   7.420   3.903  1.3026 -1.0650 -0.6638
  419MOL0     H56504   9.073   7.214   3.772  0.2501  4.6320  1.5189
  419MOL0     H56505   9.018   7.103   3.891 -0.3008 -0.6262  1.5803
  419MOL0     H56506   8.798   7.202   3.897  2.0791 -1.3456  0.8778
  419MOL0     H56507   8.830   7.295   3.746 -2.7739  0.9435  1.8941
  419MOL0     H56508   8.867   7.126   3.619 -0.8563  3.3392  0.8899
  419MOL0     H56509   8.884   7.003   3.753 -0.7507  0.2610  1.8915
  419MOL0     H56510   8.670   6.969   3.628 -0.0219 -2.2695  2.0460
  419MOL0     H56511   8.643   7.007   3.797 -1.4861  3.3941  0.7054
  419MOL0     H56512   8.592   7.250   3.737  1.2598 -0.6050 -0.6103
  419MOL0     H56513   8.624   7.202   3.573  1.8215  1.3467  1.0835
  419MOL0     H56514   8.411   7.071   3.732  3.3106 -0.6859  1.7360
  419MOL0     H56515   8.426   7.087   3.552  1.7082 -1.0338  1.4802
  419MOL0     H56516   8.167   7.153   3.746 -0.9770  1.0014  1.2630
  419MOL0     H56517   7.951   7.296   3.563  0.0441  0.3653 -0.1880
  419MOL0     H56518   7.966   7.347   3.727 -2.2916  0.8124 -0.1175
  419MOL0     H56519   7.937   7.506   3.470 -3.5220 -2.0300  0.7667
  419MOL0     H56520   8.045   7.580   3.591 -1.7374  1.2866  2.3582
  419MOL0     H56521   7.884   7.556   3.759  2.2547 -2.0319 -0.1931
  419MOL0     H56522   7.758   7.488   3.652 -0.7812  1.0865  2.1555
  419MOL0     H56523   7.786   7.696   3.507  0.3018  0.3832 -0.1553
  419MOL0     H56524   7.881   7.764   3.638  0.0582  0.4123 -0.0687
  419MOL0     H56525   7.626   7.572   3.450  0.9393  0.6822  1.1192
  419MOL0     H56526   7.415   7.413   3.345  0.0112  0.5880  2.4741
  419MOL0     H56527   7.333   7.546   3.254  0.0388 -0.5574 -0.6890
  419MOL0     H56528   7.508   7.549   3.266  0.3930  3.0416  1.4300
  419MOL0     H56529   7.109   7.444   3.181  0.6663  1.5886 -1.3369
  419MOL0     H56530   6.920   7.414   3.042 -0.2076 -0.6709  0.3236
  419MOL0     H56531   6.636   7.383   2.929  0.5395 -0.8442 -0.5258
  419MOL0     H56532   6.654   7.305   3.083  0.4155 -0.6940 -1.0216
  419MOL0     H56533   6.433   7.391   3.164  1.4618 -1.4162  0.0447
  419MOL0     H56534   6.409   7.473   3.008 -3.6136 -2.1225 -0.3334
  419MOL0     H56535   6.436   7.168   3.076  3.5919  0.1110 -0.1410
  419MOL0     H56536   6.427   7.217   2.917  1.5302 -0.7462  0.6647
  419MOL0     H56537   6.230   7.292   3.147  0.0722 -0.3122  0.0311
  419MOL0     H56538   6.202   7.338   2.978 -0.3541  3.2553  3.1322
  419MOL0     H56539   6.235   7.061   3.110  2.5365  1.6251 -0.4336
  419MOL0     H56540   6.225   7.060   2.937 -1.2284 -1.5641  0.4694
  419MOL0     H56541   6.030   7.149   3.149  0.5177  0.1575 -0.0469
  419MOL0     H56542   6.003   7.196   2.975  1.1136  0.2927  0.1072
  419MOL0     H56543   5.972   6.953   2.924  2.5449 -2.0721  0.3880
  419MOL0     H56544   5.862   6.994   3.050  0.5233 -1.6899  1.5801
  419MOL0     H56545   6.056   6.916   3.219  0.0416 -1.0653  0.1572
  419MOL0     H56546   6.118   6.853   3.062  1.4352  1.3412 -0.4377
  419MOL0     H56547   6.668   7.589   3.349 -1.9834 -1.1884 -1.5473
  419MOL0     H56548   6.862   7.626   3.488 -1.3534 -1.3333  1.3195
  419MOL0     H56549   7.243   7.799   3.660 -2.1032 -1.0745  0.0737
  419MOL0     H56550   7.461   7.803   3.772 -0.1428  0.4767  0.4973
  419MOL0     H56551   9.341   7.356   4.204  0.0960  2.2643 -0.5367
  419MOL0     H56552   9.567   7.330   4.277  1.5637 -0.8643 -0.0876
  419MOL0     H56553  10.027   7.300   4.124  0.9298 -0.3103 -0.8215
  419MOL0     H56554  10.266   7.272   4.221  0.7194 -1.0463  0.2038
  419MOL0     H56555  10.376   7.172   4.440  1.6068 -1.7133 -1.4181
  419MOL0     H56556  10.442   7.276   4.320 -0.6837 -1.5209 -0.2712
  419MOL0     H56557  10.640   7.235   4.450 -0.9683 -2.4466  0.8105
  419MOL0     H56558  10.559   7.264   4.600  0.8278 -3.2538 -0.8423
  419MOL0     H56559  10.684   7.461   4.533  0.1257  0.2305 -0.8888
  419MOL0     H56560  10.522   7.505   4.536 -0.5435 -1.5266  1.4392
  419MOL0     H56561  10.618   7.603   4.338 -5.8190 -0.1711  2.7389
  419MOL0     H56562  10.519   7.473   4.280  0.0499 -0.9728 -0.9138
  419MOL0     H56563  10.926   7.372   4.180 -1.3124  0.7568 -2.8336
  419MOL0     H56564  10.146   7.521   4.547 -0.5894 -1.3734  1.0391
  419MOL0     H56565   9.915   7.548   4.457 -0.6292  0.9300 -0.7287
  420MOL0     O56566   4.983  10.221   5.104 -0.4668 -0.0382  0.2649
  420MOL0     C56567   5.040  10.239   5.213 -0.4641  0.0680 -0.8069
  420MOL0     O56568   4.987  10.312   5.318 -0.4278 -0.2799  0.0337
  420MOL0     C56569   4.853  10.328   5.333  0.5609 -0.3565 -0.1665
  420MOL0     C56570   4.762  10.219   5.317  0.6251 -1.0509 -0.1981
  420MOL0     C56571   4.626  10.250   5.320  0.3664 -0.0735  0.4243
  420MOL0     C56572   4.575  10.372   5.351 -0.3769 -0.2369 -0.1624
  420MOL0     O56573   4.443  10.391   5.356  0.0633  0.4147  0.4095
  420MOL0     C56574   4.396  10.439   5.227  0.1305 -0.1143  0.1083
  420MOL0     C56575   4.241  10.476   5.244 -0.2384  0.2342  0.6236
  420MOL0     C56576   4.157  10.369   5.301  0.0780  0.6803  0.1895
  420MOL0     C56577   4.151  10.240   5.222 -0.3706 -0.7384 -0.0972
  420MOL0     C56578   4.051  10.144   5.285 -0.1498 -0.0259 -0.1349
  420MOL0     C56579   4.059  10.107   5.438 -0.8428  0.0303  0.2745
  420MOL0     C56580   3.950  10.003   5.473  0.6896  0.0101 -0.7078
  420MOL0     C56581   3.947  10.006   5.627 -0.3288  0.3856 -0.5511
  420MOL0     N56582   3.846   9.906   5.670 -0.4859 -0.6149 -0.4936
  420MOL0     C56583   3.712   9.923   5.674 -0.1064  0.1296  0.1167
  420MOL0     C56584   3.655   9.814   5.743  0.2722  0.2507 -1.0594
  420MOL0     C56585   3.507   9.807   5.774  0.3068 -0.2587  0.4703
  420MOL0     C56586   3.485   9.793   5.930 -0.6143 -0.3490  0.0501
  420MOL0     C56587   3.342   9.769   5.979 -0.3910 -0.2784 -1.1676
  420MOL0     C56588   3.269   9.646   5.927 -0.3905 -0.0797  0.2878
  420MOL0     O56589   3.137   9.636   5.978 -0.2499  0.1357 -1.0969
  420MOL0     C56590   3.031   9.714   5.934  0.5155 -0.3607 -0.0975
  420MOL0     C56591   3.036   9.803   5.826 -0.2135 -1.1171 -0.1630
  420MOL0     C56592   2.920   9.856   5.765  0.1505  0.1205 -0.6056
  420MOL0     C56593   2.948   9.953   5.652 -0.4065 -0.0910 -0.3979
  420MOL0     C56594   2.792   9.828   5.815 -0.0717 -0.2011 -0.2012
  420MOL0     C56595   2.662   9.874   5.757 -0.5759  0.5539 -0.5396
  420MOL0     O56596   2.555   9.828   5.830 -0.8667 -0.5080  1.1445
  420MOL0     C56597   2.441   9.863   5.780  0.9359  0.2407 -0.2266
  420MOL0     C56598   2.416  10.004   5.776  0.9305 -0.6699 -0.3536
  420MOL0     C56599   2.287  10.042   5.729 -1.1558  0.1963 -0.6919
  420MOL0     C56600   2.197   9.952   5.679  0.0943 -0.2638  0.2646
  420MOL0     O56601   2.084  10.001   5.629 -0.1874  0.0402  0.1907
  420MOL0     C56602   1.961   9.967   5.705  0.7726 -0.0777 -0.2956
  420MOL0     C56603   1.848  10.072   5.667  0.2789  0.3663 -1.0366
  420MOL0     C56604   1.712  10.018   5.698 -0.5141  0.4685 -0.5428
  420MOL0     C56605   1.618  10.140   5.722  0.6756 -0.4644  0.2953
  420MOL0     C56606   1.472  10.086   5.725  0.4288  1.1692  0.6639
  420MOL0     C56607   1.373  10.187   5.781  0.1258 -0.5022  1.0883
  420MOL0     C56608   1.233  10.129   5.822 -0.7600 -0.5378  0.5830
  420MOL0     C56609   1.134  10.243   5.849 -0.2881  0.1966  0.0486
  420MOL0    Cl56610   1.204  10.355   5.982  0.2132 -0.0599  0.2097
  420MOL0     C56611   2.219   9.812   5.678 -0.0548 -0.6933 -0.0746
  420MOL0     C56612   2.346   9.769   5.731 -0.4371  0.0645  0.9347
  420MOL0     O56613   2.662   9.926   5.648 -0.1336  0.2543  0.6872
  420MOL0     C56614   2.787   9.750   5.932  0.6499  0.0267 -0.4293
  420MOL0     C56615   2.905   9.695   5.995  0.0825  0.0217  0.5656
  420MOL0     N56616   3.762   9.738   5.787 -0.3317  0.7677 -1.0455
  420MOL0     N56617   3.874   9.797   5.745  0.5235 -1.0472  0.0230
  420MOL0     C56618   4.657  10.480   5.380 -0.2628  0.3981  0.2463
  420MOL0     C56619   4.796  10.460   5.362  0.0116 -0.1817 -0.1144
  420MOL0     C56620   5.179  10.207   5.224  0.7654  0.3689  1.3029
  420MOL0     C56621   5.263  10.211   5.110  0.5670 -0.1212 -0.6110
  420MOL0     C56622   5.395  10.182   5.119 -0.2356 -0.5194  0.1786
  420MOL0     C56623   5.451  10.135   5.238  0.5173  0.5680  0.0756
  420MOL0     O56624   5.581  10.109   5.228 -0.5586  0.5003 -0.1043
  420MOL0     C56625   5.638  10.034   5.340 -1.0176  0.2538  0.9738
  420MOL0     C56626   5.781  10.001   5.315 -0.3754  0.2777  0.9612
  420MOL0     C56627   5.805   9.948   5.181  1.0380 -0.9905  1.0304
  420MOL0     C56628   5.944   9.899   5.152  0.0930 -0.0818  0.7489
  420MOL0     C56629   5.986   9.894   5.015  0.5706 -0.6715 -0.1267
  420MOL0     C56630   6.009   9.867   4.906  0.0366 -0.0854 -0.0650
  420MOL0     C56631   5.363  10.117   5.352 -0.1311 -0.3980 -0.2327
  420MOL0     C56632   5.226  10.155   5.343 -0.3359  0.2680  0.9006
  420MOL0     H56633   4.794  10.119   5.289  0.7174 -0.7269 -1.2829
  420MOL0     H56634   4.556  10.173   5.290 -0.5239  1.2441 -1.0065
  420MOL0     H56635   4.438  10.535   5.197 -1.6643  1.3333  1.9080
  420MOL0     H56636   4.418  10.368   5.146  1.2633 -1.5487  1.6080
  420MOL0     H56637   4.230  10.572   5.295 -2.1447 -0.1504  1.0283
  420MOL0     H56638   4.212  10.502   5.142 -0.1680  0.4703  0.6618
  420MOL0     H56639   4.199  10.344   5.399 -0.0033  2.4687  0.7142
  420MOL0     H56640   4.060  10.412   5.326  0.4225  1.1721  0.7136
  420MOL0     H56641   4.119  10.266   5.121 -0.8488  2.3606  0.7548
  420MOL0     H56642   4.254  10.202   5.219  0.3907  1.0136  1.9575
  420MOL0     H56643   3.955  10.195   5.273  1.1128  2.0468 -2.2305
  420MOL0     H56644   4.040  10.056   5.221 -3.8197  0.9910 -1.1236
  420MOL0     H56645   4.156  10.074   5.476 -0.2396  1.8520  0.4429
  420MOL0     H56646   4.045  10.206   5.483  1.3586  0.5313 -0.0223
  420MOL0     H56647   3.854  10.042   5.439  0.2293  0.7958  1.3897
  420MOL0     H56648   3.972   9.901   5.439 -1.7331 -0.9621  0.4453
  420MOL0     H56649   3.923  10.107   5.661  1.9647  1.0583 -0.7756
  420MOL0     H56650   4.046   9.982   5.667  0.8911  1.4481 -2.7414
  420MOL0     H56651   3.659  10.006   5.629  0.9505  0.1157 -1.2295
  420MOL0     H56652   3.464   9.896   5.728 -0.9120 -1.9770 -1.8758
  420MOL0     H56653   3.456   9.722   5.727  1.8808 -1.4418  0.7989
  420MOL0     H56654   3.529   9.882   5.978 -1.8853 -0.3238  1.2539
  420MOL0     H56655   3.554   9.713   5.959  1.0701  0.5871 -1.1781
  420MOL0     H56656   3.296   9.862   5.944  0.0001 -0.5460 -2.4314
  420MOL0     H56657   3.338   9.770   6.088  0.2029 -2.6102 -1.0589
  420MOL0     H56658   3.323   9.561   5.969  0.1136  0.4207  0.6723
  420MOL0     H56659   3.265   9.649   5.818 -0.5341  0.5558  0.3055
  420MOL0     H56660   3.132   9.821   5.778  0.8233  0.3889  2.2906
  420MOL0     H56661   3.049   9.993   5.657 -0.7546  0.7153  0.9619
  420MOL0     H56662   2.946   9.893   5.561 -1.3404 -1.3542  0.4271
  420MOL0     H56663   2.882  10.041   5.651  0.0291  0.2888  1.2855
  420MOL0     H56664   2.483  10.076   5.821 -0.7632  0.3172  0.7134
  420MOL0     H56665   2.262  10.148   5.730 -2.1887  0.2204  4.7608
  420MOL0     H56666   1.931   9.870   5.666  0.5942 -0.4577  0.7393
  420MOL0     H56667   1.968   9.961   5.814 -0.3122 -2.7707 -0.3079
  420MOL0     H56668   1.858  10.164   5.726  1.0448 -0.5550  0.3368
  420MOL0     H56669   1.850  10.092   5.560 -2.8550 -0.5709 -1.3510
  420MOL0     H56670   1.709   9.956   5.788 -0.1324  0.9886 -0.1623
  420MOL0     H56671   1.682   9.959   5.612 -1.6071  2.1055 -1.3272
  420MOL0     H56672   1.637  10.194   5.815 -0.2090 -0.4106  0.4494
  420MOL0     H56673   1.634  10.204   5.635  0.8361  0.8640  1.2681
  420MOL0     H56674   1.482   9.996   5.786 -1.3731 -0.1808 -0.9184
  420MOL0     H56675   1.437  10.054   5.626  0.4615  2.8654  0.0665
  420MOL0     H56676   1.417  10.245   5.863  3.9293  1.9136 -2.2872
  420MOL0     H56677   1.358  10.255   5.697 -0.4653 -3.7118 -1.6234
  420MOL0     H56678   1.236  10.062   5.909  0.4251 -0.0283  0.9479
  420MOL0     H56679   1.193  10.063   5.745  1.9750  0.7479 -2.1228
  420MOL0     H56680   1.036  10.204   5.879 -0.6005  1.1153  0.2549
  420MOL0     H56681   1.122  10.298   5.756 -1.0071 -2.4728 -1.5195
  420MOL0     H56682   2.148   9.745   5.631 -1.0723 -0.0948  0.5790
  420MOL0     H56683   2.381   9.667   5.731  0.7297  0.3073 -2.9184
  420MOL0     H56684   2.689   9.739   5.977  0.8611 -1.2895 -0.2413
  420MOL0     H56685   2.889   9.633   6.082 -2.4977 -1.3223 -0.7567
  420MOL0     H56686   4.624  10.582   5.397 -0.9863  0.6238 -2.1363
  420MOL0     H56687   4.876  10.533   5.368 -0.1213  0.0490 -0.9383
  420MOL0     H56688   5.216  10.249   5.020 -0.5425 -0.8108 -0.3416
  420MOL0     H56689   5.455  10.186   5.029  0.5902  0.5983  0.7603
  420MOL0     H56690   5.651  10.092   5.431 -2.4734  3.5462 -0.7367
  420MOL0     H56691   5.578   9.945   5.363  1.4598 -1.3724  1.4673
  420MOL0     H56692   5.814   9.923   5.384  2.4452 -0.9112 -1.5105
  420MOL0     H56693   5.835  10.096   5.320  0.3677 -0.0369 -0.4542
  420MOL0     H56694   5.784  10.025   5.106  1.1318 -1.5528  0.4164
  420MOL0     H56695   5.735   9.866   5.164  0.2284  0.1657 -1.9187
  420MOL0     H56696   5.951   9.800   5.199 -1.6871 -0.8415 -0.5027
  420MOL0     H56697   6.007   9.976   5.199 -1.2950  0.1650  2.3165
  420MOL0     H56698   6.042   9.832   4.810  2.7680 -3.3570  1.8153
  420MOL0     H56699   5.410  10.094   5.447  1.9307 -0.5438 -1.2317
  420MOL0     H56700   5.163  10.142   5.431 -1.7617 -0.4671 -0.1896
  421MOL0     O56701   5.047   8.442   7.460  0.0903  0.4830 -0.0163
  421MOL0     C56702   5.048   8.560   7.491  0.8719  1.0163 -0.8394
  421MOL0     O56703   4.938   8.651   7.489 -0.8406 -0.2689 -0.0474
  421MOL0     C56704   4.809   8.622   7.473 -0.5704  0.5954 -0.6243
  421MOL0     C56705   4.758   8.521   7.547 -0.0548 -0.7826 -0.8115
  421MOL0     C56706   4.627   8.485   7.530  0.0409  0.5778 -0.2291
  421MOL0     C56707   4.538   8.551   7.444  1.6984  0.5540 -0.1264
  421MOL0     O56708   4.410   8.499   7.414  0.2531 -0.1638 -0.0989
  421MOL0     C56709   4.310   8.592   7.349 -0.5670 -0.4055 -0.0105
  421MOL0     C56710   4.183   8.501   7.329 -0.5861 -0.4376  0.6712
  421MOL0     C56711   4.073   8.565   7.244 -0.9470  0.0487  1.1413
  421MOL0     C56712   3.983   8.645   7.332 -0.0654 -0.4991 -0.4901
  421MOL0     C56713   3.873   8.724   7.268  0.0398  0.0558  0.0281
  421MOL0     C56714   3.798   8.653   7.163 -0.3516 -0.4222  0.3675
  421MOL0     C56715   3.724   8.524   7.191 -1.1380 -0.4183 -0.5473
  421MOL0     C56716   3.605   8.514   7.088 -1.3975 -0.6600  0.2734
  421MOL0     N56717   3.515   8.626   7.082  0.4845  0.3314 -0.7314
  421MOL0     C56718   3.493   8.703   6.974  0.0372 -0.2166 -0.4757
  421MOL0     C56719   3.408   8.803   7.012 -0.1568  0.7353 -0.6471
  421MOL0     C56720   3.369   8.915   6.921 -0.3314  0.2307  0.4587
  421MOL0     C56721   3.340   9.029   7.008  0.1418  0.2143 -0.6938
  421MOL0     C56722   3.203   9.025   7.077  0.1364 -0.0833  0.6768
  421MOL0     C56723   3.084   9.063   6.991 -0.0778 -0.3137 -0.5058
  421MOL0     O56724   3.022   8.945   6.934 -0.2341  0.1151  0.5265
  421MOL0     C56725   2.905   8.972   6.863 -0.4426 -0.7961  0.1115
  421MOL0     C56726   2.860   9.096   6.821  0.1525  0.0356 -0.9659
  421MOL0     C56727   2.735   9.118   6.762 -0.3064 -0.0652  0.8555
  421MOL0     C56728   2.712   9.265   6.731 -0.1868  0.5077  0.0142
  421MOL0     C56729   2.656   8.999   6.731  0.0759 -0.2470 -0.7099
  421MOL0     C56730   2.521   9.009   6.666  0.0597 -0.9078  0.3900
  421MOL0     O56731   2.457   8.896   6.648 -0.3779  0.4471  0.6393
  421MOL0     C56732   2.338   8.887   6.579  0.4114  0.0157 -0.3331
  421MOL0     C56733   2.221   8.941   6.636 -0.1630  0.3880  0.8679
  421MOL0     C56734   2.106   8.914   6.570 -0.5822  0.2259  0.2651
  421MOL0     C56735   2.097   8.838   6.451  0.0348  0.7915  0.3186
  421MOL0     O56736   1.981   8.807   6.389 -0.2303 -0.3578  0.7778
  421MOL0     C56737   1.869   8.791   6.466  0.0903 -0.1514  0.0384
  421MOL0     C56738   1.763   8.761   6.368 -0.1111  0.0305 -1.0526
  421MOL0     C56739   1.631   8.742   6.446 -0.2776 -0.2901 -0.3337
  421MOL0     C56740   1.512   8.812   6.380  0.2657  0.0482 -0.0681
  421MOL0     C56741   1.367   8.768   6.415 -0.1960 -1.0140  0.1289
  421MOL0     C56742   1.257   8.821   6.317 -0.0174 -0.1839 -0.4800
  421MOL0     C56743   1.244   8.981   6.317 -0.5755  0.5889 -0.3566
  421MOL0     C56744   1.133   9.011   6.217  0.4252 -0.1150 -0.4116
  421MOL0    Cl56745   0.979   8.958   6.289  0.1369  0.4785 -0.5091
  421MOL0     C56746   2.211   8.800   6.388 -0.8147  0.1220 -0.5821
  421MOL0     C56747   2.333   8.826   6.457 -0.3718 -0.4128 -0.3599
  421MOL0     O56748   2.463   9.115   6.652 -0.4325  0.2320 -0.3619
  421MOL0     C56749   2.704   8.881   6.777 -0.1527  0.1828 -0.4308
  421MOL0     C56750   2.831   8.863   6.829 -0.8519 -0.6361  0.3725
  421MOL0     N56751   3.375   8.767   7.139 -0.1221  0.9232  0.1357
  421MOL0     N56752   3.439   8.667   7.188 -0.6217 -0.4899 -0.1477
  421MOL0     C56753   4.598   8.664   7.385 -0.0005  0.3755  0.7658
  421MOL0     C56754   4.720   8.701   7.407  0.2221  0.7647  0.1848
  421MOL0     C56755   5.179   8.611   7.522  0.3324  1.6157  0.3410
  421MOL0     C56756   5.299   8.532   7.511  0.1232  0.2278  0.5445
  421MOL0     C56757   5.421   8.601   7.544 -0.6924 -0.2196 -0.6255
  421MOL0     C56758   5.429   8.738   7.581 -0.2721 -0.1020 -0.4467
  421MOL0     O56759   5.546   8.811   7.594  0.1067  0.7275  0.3667
  421MOL0     C56760   5.671   8.750   7.568  0.5880  0.1163 -0.0725
  421MOL0     C56761   5.781   8.849   7.615 -0.5089  0.1243  0.1321
  421MOL0     C56762   5.920   8.805   7.573 -1.0412  0.2202 -0.0912
  421MOL0     C56763   6.010   8.923   7.580 -0.2203 -0.8954 -0.5899
  421MOL0     C56764   6.149   8.880   7.555  0.9234 -0.2788 -0.6621
  421MOL0     C56765   6.265   8.862   7.530  0.3673 -0.4847 -0.7361
  421MOL0     C56766   5.308   8.806   7.592  0.1840  0.3822 -0.4203
  421MOL0     C56767   5.186   8.738   7.561  0.5316 -0.7302 -0.2569
  421MOL0     H56768   4.819   8.455   7.608  2.3710  2.0331  0.0220
  421MOL0     H56769   4.601   8.393   7.583 -0.1651 -0.6207 -2.2769
  421MOL0     H56770   4.282   8.678   7.411  3.2001  1.1761 -0.1905
  421MOL0     H56771   4.351   8.622   7.252 -0.2518  1.5876  0.6872
  421MOL0     H56772   4.219   8.407   7.287 -2.2707 -0.3659 -1.0488
  421MOL0     H56773   4.152   8.473   7.430 -0.3223 -0.8921  0.6303
  421MOL0     H56774   4.115   8.632   7.168 -1.1970  0.3873  1.2972
  421MOL0     H56775   4.020   8.489   7.186 -0.0980  0.9406 -0.9263
  421MOL0     H56776   3.931   8.580   7.402 -1.3190  1.2725  0.3060
  421MOL0     H56777   4.045   8.711   7.394 -0.2346 -0.6954 -0.1122
  421MOL0     H56778   3.797   8.753   7.341 -0.8634 -2.6415  0.2553
  421MOL0     H56779   3.917   8.816   7.228  1.2026 -1.2813 -1.9846
  421MOL0     H56780   3.738   8.723   7.105  1.2271 -0.5046 -1.4531
  421MOL0     H56781   3.872   8.629   7.086  0.9936  0.6487  1.2604
  421MOL0     H56782   3.792   8.439   7.189 -1.1135 -0.3897 -2.3919
  421MOL0     H56783   3.670   8.531   7.286 -1.0797  0.0114 -0.5393
  421MOL0     H56784   3.553   8.420   7.109  1.0834 -2.1454  0.2973
  421MOL0     H56785   3.647   8.497   6.988 -0.2123 -0.5394  0.7331
  421MOL0     H56786   3.523   8.696   6.870 -0.7561  0.1590 -0.7343
  421MOL0     H56787   3.455   8.937   6.857 -0.4122  0.2118  0.3437
  421MOL0     H56788   3.283   8.883   6.862  0.5094 -1.7668  0.2187
  421MOL0     H56789   3.345   9.118   6.944  0.1023  1.9809  1.6480
  421MOL0     H56790   3.422   9.048   7.078 -0.2124 -3.1847  0.7982
  421MOL0     H56791   3.212   9.113   7.142  0.6471 -0.5664  1.2682
  421MOL0     H56792   3.192   8.936   7.139  4.1945  1.6572  4.3708
  421MOL0     H56793   3.120   9.126   6.909  2.4855 -0.0276  0.7565
  421MOL0     H56794   3.012   9.124   7.047  3.2746  4.0220 -0.3926
  421MOL0     H56795   2.937   9.172   6.834  1.0785 -0.9288 -0.7229
  421MOL0     H56796   2.611   9.280   6.692 -0.8445 -2.4457  0.4027
  421MOL0     H56797   2.716   9.322   6.824 -0.4478  1.3419 -0.4728
  421MOL0     H56798   2.795   9.296   6.666  0.5646  2.0996  1.6430
  421MOL0     H56799   2.222   8.995   6.730  0.9726  1.1322  0.4430
  421MOL0     H56800   2.021   8.955   6.624 -1.2529 -0.9689  0.1575
  421MOL0     H56801   1.883   8.708   6.536  0.4252  0.2974  0.5098
  421MOL0     H56802   1.839   8.879   6.523 -0.0224 -1.7331  2.6016
  421MOL0     H56803   1.755   8.839   6.291  2.3837  1.3699 -0.0498
  421MOL0     H56804   1.785   8.669   6.313  1.0471  0.2067 -0.9006
  421MOL0     H56805   1.640   8.775   6.550  0.9502  2.8674 -1.3333
  421MOL0     H56806   1.607   8.635   6.452 -1.6295  0.0939  2.9011
  421MOL0     H56807   1.519   8.918   6.406 -1.5649  0.2850 -0.4113
  421MOL0     H56808   1.523   8.795   6.272  0.1435 -0.1950 -0.0429
  421MOL0     H56809   1.348   8.814   6.512 -0.5909  2.4453 -1.4348
  421MOL0     H56810   1.363   8.659   6.413  2.7563 -1.2329  0.8807
  421MOL0     H56811   1.284   8.771   6.224  1.2141 -1.4638  0.5320
  421MOL0     H56812   1.160   8.783   6.351 -0.2465  0.9167  0.1603
  421MOL0     H56813   1.339   9.019   6.278  0.4272 -0.9896  0.4157
  421MOL0     H56814   1.222   9.017   6.418 -0.1289 -0.8366  0.2832
  421MOL0     H56815   1.162   8.963   6.123  0.8900 -0.6344 -0.0043
  421MOL0     H56816   1.126   9.120   6.214 -0.9341 -0.1197  0.9257
  421MOL0     H56817   2.211   8.744   6.295 -1.6770  2.1172 -1.8486
  421MOL0     H56818   2.420   8.772   6.421 -2.4366 -2.7289 -2.1616
  421MOL0     H56819   2.642   8.794   6.756 -0.3399  0.5941 -1.6530
  421MOL0     H56820   2.870   8.765   6.855  1.3182  0.6563  2.5079
  421MOL0     H56821   4.542   8.727   7.317 -3.1195 -1.5060  1.3680
  421MOL0     H56822   4.771   8.783   7.356  0.6355  0.2180 -0.2891
  421MOL0     H56823   5.300   8.425   7.493  0.1056  0.3134 -0.0147
  421MOL0     H56824   5.516   8.549   7.542 -0.9862 -0.7903 -0.2069
  421MOL0     H56825   5.682   8.660   7.630 -0.1410 -0.8650 -1.3116
  421MOL0     H56826   5.679   8.725   7.462  1.5579  0.3334 -0.0567
  421MOL0     H56827   5.779   8.853   7.724 -0.3934  0.2431  0.1300
  421MOL0     H56828   5.766   8.953   7.585 -0.1881  0.2820  0.5215
  421MOL0     H56829   5.929   8.764   7.472 -0.4445  0.3126 -0.0793
  421MOL0     H56830   5.964   8.729   7.637 -0.4903 -1.6693 -2.5489
  421MOL0     H56831   6.006   8.981   7.673 -0.8512 -0.6926 -0.7379
  421MOL0     H56832   5.988   8.995   7.501 -0.7157 -2.5244 -2.0063
  421MOL0     H56833   6.365   8.844   7.497 -0.5161 -0.6131 -3.5954
  421MOL0     H56834   5.313   8.911   7.617  2.4571 -0.3859  3.1978
  421MOL0     H56835   5.101   8.806   7.555  0.1493 -1.1800 -0.0634
  422MOL0     O56836   2.310   8.786   1.279 -0.3126  0.2432  0.3790
  422MOL0     C56837   2.256   8.811   1.170 -0.0983 -0.0047 -0.0840
  422MOL0     O56838   2.118   8.812   1.145  0.1070  0.0558  0.2127
  422MOL0     C56839   2.026   8.863   1.230  0.2638 -0.1958 -0.1638
  422MOL0     C56840   2.062   8.946   1.339  0.5406  0.6397  0.6959
  422MOL0     C56841   1.966   8.995   1.426 -0.9296 -0.5578 -1.1548
  422MOL0     C56842   1.832   8.965   1.406 -0.4289  0.3006 -0.6153
  422MOL0     O56843   1.743   9.011   1.493  0.4227 -0.3695 -0.4959
  422MOL0     C56844   1.751   9.152   1.506 -0.2025 -0.8559  0.2241
  422MOL0     C56845   1.620   9.213   1.518  0.8433 -0.4891 -0.0145
  422MOL0     C56846   1.544   9.203   1.382 -0.1651  0.2923 -0.0439
  422MOL0     C56847   1.392   9.239   1.388  0.3941  0.1035  0.4356
  422MOL0     C56848   1.328   9.201   1.251  0.1246 -0.2734 -0.7703
  422MOL0     C56849   1.174   9.214   1.254  0.2782 -0.7260  0.4915
  422MOL0     C56850   1.100   9.178   1.116 -0.7236 -0.0054 -0.0346
  422MOL0     C56851   1.114   9.037   1.064  0.1373 -0.2325  0.6216
  422MOL0     N56852   1.012   8.957   1.145  0.3857 -0.5396 -0.1199
  422MOL0     C56853   0.886   8.934   1.106  0.4080 -0.3671 -0.2924
  422MOL0     C56854   0.822   8.899   1.217  0.4832  0.3473 -0.7648
  422MOL0     C56855   0.681   8.859   1.233 -0.1984 -0.6312 -0.4227
  422MOL0     C56856   0.656   8.739   1.135 -0.4190  0.0112 -0.3264
  422MOL0     C56857   0.509   8.696   1.142 -0.5005  0.0524  0.1699
  422MOL0     C56858   0.480   8.566   1.067  0.0955  0.2651 -0.7087
  422MOL0     O56859   0.487   8.585   0.923 -0.5361 -0.2089  0.2921
  422MOL0     C56860   0.389   8.659   0.849  0.3766 -1.0983 -0.3856
  422MOL0     C56861   0.405   8.681   0.712  1.0701 -0.0760 -0.3635
  422MOL0     C56862   0.329   8.766   0.634 -0.0017 -0.1820  0.1536
  422MOL0     C56863   0.383   8.786   0.495  0.3602 -0.2207 -0.5891
  422MOL0     C56864   0.216   8.831   0.687 -0.3291  0.9385 -0.1848
  422MOL0     C56865   0.120   8.913   0.612 -0.2272 -1.0095  0.8956
  422MOL0     O56866   0.002   8.935   0.674 -0.3778 -0.7206 -1.0436
  422MOL0     C56867  -0.102   9.013   0.632  0.2320 -0.0497 -0.4992
  422MOL0     C56868  -0.115   9.078   0.508 -0.0894  0.7458  0.1482
  422MOL0     C56869  -0.237   9.135   0.469 -0.3802  0.4297  0.5492
  422MOL0     C56870  -0.351   9.127   0.551 -1.0462  0.2179  0.4781
  422MOL0     O56871  -0.465   9.190   0.511  0.6758 -0.2603  0.0970
  422MOL0     C56872  -0.535   9.264   0.614  0.3221 -0.5961 -0.0354
  422MOL0     C56873  -0.445   9.366   0.678  0.3658  0.9571  0.6351
  422MOL0     C56874  -0.527   9.451   0.775  1.1822 -0.1746  0.6813
  422MOL0     C56875  -0.447   9.564   0.817  0.3775 -1.0084 -0.0877
  422MOL0     C56876  -0.519   9.696   0.842  0.1619 -0.3052  0.4659
  422MOL0     C56877  -0.587   9.758   0.721  0.0313 -0.0539 -0.5602
  422MOL0     C56878  -0.629   9.902   0.753  0.3852 -0.0779 -0.2387
  422MOL0     C56879  -0.624   9.984   0.626 -0.0390  0.4732  0.4250
  422MOL0    Cl56880  -0.776   9.967   0.524 -0.3469 -0.1874  0.5551
  422MOL0     C56881  -0.338   9.061   0.667 -0.4598  0.6194 -0.2184
  422MOL0     C56882  -0.213   9.002   0.711 -0.8733 -0.1980  0.4877
  422MOL0     O56883   0.164   8.970   0.506 -0.5501  0.4921 -0.5262
  422MOL0     C56884   0.186   8.797   0.819 -0.4783  0.5683  0.1115
  422MOL0     C56885   0.269   8.712   0.898  0.2548 -1.1745  0.3106
  422MOL0     N56886   0.912   8.889   1.318  0.7549  0.5388  0.2683
  422MOL0     N56887   1.028   8.931   1.280 -0.3020  0.1117 -0.2843
  422MOL0     C56888   1.803   8.885   1.300  0.1935 -0.5579  0.9756
  422MOL0     C56889   1.896   8.832   1.208  0.9554  0.1344  0.3226
  422MOL0     C56890   2.341   8.837   1.054  0.0104 -0.2444 -0.1350
  422MOL0     C56891   2.280   8.864   0.927  0.5457  0.2443  0.8917
  422MOL0     C56892   2.357   8.901   0.811  0.4606 -0.7674 -0.6159
  422MOL0     C56893   2.496   8.898   0.814  0.6405  0.2940 -0.6555
  422MOL0     O56894   2.555   8.927   0.702 -0.0427  0.5780  0.0889
  422MOL0     C56895   2.697   8.921   0.699 -0.3470 -0.6657 -0.6608
  422MOL0     C56896   2.748   8.951   0.564  0.0721 -0.8551  0.4152
  422MOL0     C56897   2.689   8.857   0.459  0.0057 -0.4532  0.5736
  422MOL0     C56898   2.717   8.917   0.321 -0.4652  0.5799  0.4334
  422MOL0     C56899   2.864   8.894   0.298  0.1161  0.5071 -0.2529
  422MOL0     C56900   2.983   8.854   0.283 -0.3697  0.4386  0.3576
  422MOL0     C56901   2.556   8.862   0.935  0.1434 -0.3272 -0.5376
  422MOL0     C56902   2.482   8.833   1.051  0.5832  0.0362  0.4829
  422MOL0     H56903   2.165   8.972   1.360  1.4244  1.2761 -3.4856
  422MOL0     H56904   2.001   9.058   1.507 -0.2599 -1.4533 -0.7254
  422MOL0     H56905   1.791   9.179   1.604 -2.5814 -3.3238  2.0123
  422MOL0     H56906   1.812   9.196   1.426  2.2006 -1.1293  1.7919
  422MOL0     H56907   1.571   9.163   1.602  1.8192  0.1088  0.9275
  422MOL0     H56908   1.624   9.318   1.549 -0.3860  0.3300 -2.3536
  422MOL0     H56909   1.591   9.277   1.315  2.0103 -1.3559 -0.4748
  422MOL0     H56910   1.553   9.099   1.350  0.3195  0.3016  0.0449
  422MOL0     H56911   1.336   9.182   1.463 -2.6828  1.4615 -0.6539
  422MOL0     H56912   1.384   9.347   1.396 -1.3107  0.0430 -0.0554
  422MOL0     H56913   1.369   9.267   1.174 -1.6678  0.4370 -1.1615
  422MOL0     H56914   1.348   9.099   1.218 -1.1332 -1.7965  2.6756
  422MOL0     H56915   1.139   9.156   1.340 -3.0399  0.8661  0.3473
  422MOL0     H56916   1.142   9.316   1.275  0.2054 -0.1357 -2.1732
  422MOL0     H56917   0.993   9.201   1.119 -0.8866 -0.7234 -0.2371
  422MOL0     H56918   1.142   9.251   1.046 -1.2939 -0.8283 -1.2808
  422MOL0     H56919   1.220   9.013   1.077  0.8082  1.2148 -1.5681
  422MOL0     H56920   1.104   9.025   0.956 -1.4520 -1.5444  0.8799
  422MOL0     H56921   0.840   8.931   1.008  0.8545  0.3368 -0.5311
  422MOL0     H56922   0.654   8.830   1.335 -1.6360 -0.4061 -0.7111
  422MOL0     H56923   0.624   8.943   1.191 -1.7632 -2.7462 -2.8567
  422MOL0     H56924   0.719   8.657   1.171  0.4777  1.3367  1.2629
  422MOL0     H56925   0.698   8.759   1.036  3.0400 -1.1869  0.7589
  422MOL0     H56926   0.439   8.776   1.117 -1.1230 -0.5569 -0.0633
  422MOL0     H56927   0.493   8.667   1.247  0.4876 -0.6812  0.1336
  422MOL0     H56928   0.380   8.536   1.098  0.8015 -1.5226 -0.0094
  422MOL0     H56929   0.547   8.485   1.098  1.1545  0.3867 -2.5592
  422MOL0     H56930   0.494   8.627   0.680  1.7384 -1.3819  3.1846
  422MOL0     H56931   0.396   8.894   0.489 -1.5102  0.0353 -0.5956
  422MOL0     H56932   0.481   8.742   0.477 -0.2239 -1.7548 -0.1935
  422MOL0     H56933   0.309   8.756   0.420 -0.6839  1.2690 -0.2019
  422MOL0     H56934  -0.025   9.088   0.448 -1.3614  3.8680 -1.4125
  422MOL0     H56935  -0.233   9.184   0.372  1.3827 -2.7458 -1.1846
  422MOL0     H56936  -0.622   9.314   0.571 -0.2190  1.6861  3.3311
  422MOL0     H56937  -0.567   9.194   0.691 -1.8393  1.4771  1.0747
  422MOL0     H56938  -0.370   9.313   0.738 -1.8302 -0.5721  2.1350
  422MOL0     H56939  -0.398   9.415   0.592 -0.3936 -2.7945 -2.1687
  422MOL0     H56940  -0.557   9.392   0.862  1.4362 -0.9184  0.2664
  422MOL0     H56941  -0.619   9.484   0.727  0.5413 -0.2800  1.7861
  422MOL0     H56942  -0.386   9.534   0.902  0.6980 -2.0230 -0.6688
  422MOL0     H56943  -0.373   9.581   0.738 -0.5198 -1.2719 -1.0100
  422MOL0     H56944  -0.447   9.770   0.880 -2.2579 -0.0487  5.2369
  422MOL0     H56945  -0.599   9.682   0.916  1.0613 -0.6973  1.3926
  422MOL0     H56946  -0.511   9.757   0.641  2.7602  1.1303  1.8358
  422MOL0     H56947  -0.668   9.691   0.691 -0.1231 -0.3236  0.4208
  422MOL0     H56948  -0.562   9.948   0.826 -1.5414  4.1683 -0.8238
  422MOL0     H56949  -0.730   9.904   0.794  0.7018  1.5589  0.5527
  422MOL0     H56950  -0.531   9.963   0.571  0.7529 -0.5455  2.0852
  422MOL0     H56951  -0.620  10.088   0.657  2.7632  1.6794 -3.1849
  422MOL0     H56952  -0.417   9.051   0.741 -1.6277 -0.2770 -1.5157
  422MOL0     H56953  -0.212   8.952   0.808 -2.9960  1.3123  1.3495
  422MOL0     H56954   0.100   8.829   0.877 -0.6260 -0.4225  0.4456
  422MOL0     H56955   0.243   8.691   1.001 -0.2284 -1.2884  0.1691
  422MOL0     H56956   1.701   8.851   1.286  0.8155 -1.5024 -1.8935
  422MOL0     H56957   1.857   8.763   1.133 -1.5033  3.9845 -2.3443
  422MOL0     H56958   2.172   8.873   0.913  0.1357 -4.0840 -0.1537
  422MOL0     H56959   2.303   8.926   0.720  1.1972 -0.3329 -0.9402
  422MOL0     H56960   2.720   9.003   0.767  0.2301 -0.0641 -1.5535
  422MOL0     H56961   2.738   8.824   0.729 -1.1735 -1.4177 -1.8321
  422MOL0     H56962   2.857   8.941   0.568  0.2486  0.7607  0.3629
  422MOL0     H56963   2.711   9.051   0.538  0.6516 -0.1974  1.9696
  422MOL0     H56964   2.583   8.833   0.473  0.0316  0.0573  1.7247
  422MOL0     H56965   2.737   8.760   0.470 -1.0281 -0.9544  0.7652
  422MOL0     H56966   2.685   9.022   0.315 -2.3433  0.0771  0.8333
  422MOL0     H56967   2.653   8.870   0.246 -4.8476  1.4260  3.3003
  422MOL0     H56968   3.083   8.825   0.259 -0.4023 -0.4187  1.1858
  422MOL0     H56969   2.657   8.829   0.956 -0.1738 -1.4728 -0.7441
  422MOL0     H56970   2.538   8.810   1.141  0.3758  2.9933  1.4656
  423MOL0     O56971  10.984   9.295   3.963  0.2202 -0.9327  1.0486
  423MOL0     C56972  11.057   9.299   3.864 -0.2942  0.7267  0.6281
  423MOL0     O56973  11.031   9.372   3.751 -0.6261 -0.4580  0.0449
  423MOL0     C56974  10.917   9.451   3.757  0.2443  0.0400 -0.4122
  423MOL0     C56975  10.929   9.587   3.774  0.0800 -0.1338 -0.0856
  423MOL0     C56976  10.819   9.668   3.792  0.4779  0.0771  0.0563
  423MOL0     C56977  10.688   9.623   3.770 -0.3968 -0.1181  0.4998
  423MOL0     O56978  10.581   9.705   3.772  0.5334  1.1552 -0.1823
  423MOL0     C56979  10.555   9.768   3.903 -0.2265  0.2635  0.3254
  423MOL0     C56980  10.465   9.890   3.876  0.0701 -0.0006  0.7214
  423MOL0     C56981  10.415   9.940   4.010  0.5958 -0.6455 -0.9622
  423MOL0     C56982  10.313   9.856   4.094  0.2790 -0.3800  0.6363
  423MOL0     C56983  10.215   9.935   4.174  0.0329 -0.7659 -0.3587
  423MOL0     C56984  10.122   9.833   4.242  0.1495 -0.1315 -0.5415
  423MOL0     C56985  10.007   9.900   4.322 -1.0003 -0.0619 -0.0022
  423MOL0     C56986   9.923   9.801   4.404 -0.0245 -0.2460  0.4987
  423MOL0     N56987   9.798   9.858   4.451 -0.3411  0.5095  0.6242
  423MOL0     C56988   9.709   9.941   4.381  0.0543 -0.1014 -0.8267
  423MOL0     C56989   9.607   9.951   4.470 -0.0256 -0.1737 -0.2617
  423MOL0     C56990   9.476  10.018   4.443 -0.5097 -0.0942  0.8885
  423MOL0     C56991   9.349   9.933   4.439 -0.5020 -0.2385  0.0655
  423MOL0     C56992   9.262   9.963   4.312 -0.7327 -0.0502  0.4165
  423MOL0     C56993   9.150   9.867   4.312  0.1752  0.1812 -0.6326
  423MOL0     O56994   9.074   9.875   4.441  0.2828 -0.4200  0.7063
  423MOL0     C56995   9.040   9.759   4.491  0.2450 -0.0125  0.6554
  423MOL0     C56996   8.955   9.677   4.417  0.2672 -1.0137 -0.2754
  423MOL0     C56997   8.921   9.542   4.465  0.4248 -0.0798  0.2607
  423MOL0     C56998   8.827   9.440   4.392  0.3175  0.2858  0.1517
  423MOL0     C56999   8.948   9.507   4.601 -1.2577 -0.2103  0.5536
  423MOL0     C57000   8.906   9.385   4.670  0.6303 -0.6927  0.3990
  423MOL0     O57001   8.994   9.320   4.750  0.1786 -0.0176 -0.7237
  423MOL0     C57002   8.953   9.221   4.836  0.3429  0.3339 -0.0867
  423MOL0     C57003   8.887   9.108   4.784 -1.1886 -0.4881 -0.0972
  423MOL0     C57004   8.833   9.022   4.876 -0.6716  0.5947  0.1647
  423MOL0     C57005   8.862   9.026   5.013  0.1975  0.5419  0.7515
  423MOL0     O57006   8.819   8.936   5.108 -0.8977  0.3573 -0.4772
  423MOL0     C57007   8.677   8.906   5.105  0.2500  0.2196  0.0081
  423MOL0     C57008   8.653   8.773   5.177  0.1769 -0.1163  0.3233
  423MOL0     C57009   8.512   8.717   5.146  0.9444 -0.0101  0.3486
  423MOL0     C57010   8.514   8.562   5.169  0.0297  0.0079  0.6696
  423MOL0     C57011   8.396   8.505   5.092 -0.0742 -0.2804  1.0661
  423MOL0     C57012   8.261   8.521   5.172  0.0706 -0.8542  0.2172
  423MOL0     C57013   8.150   8.441   5.097 -0.2500 -0.0967  0.2521
  423MOL0     C57014   8.118   8.312   5.176  0.3267 -0.5845 -0.3466
  423MOL0    Cl57015   8.263   8.209   5.203  0.0749 -0.0448  0.0504
  423MOL0     C57016   8.946   9.122   5.053 -0.0146 -0.2412 -1.3420
  423MOL0     C57017   8.990   9.222   4.967  0.2775  0.0579  0.9776
  423MOL0     O57018   8.786   9.362   4.664  0.2525  0.4534  0.2916
  423MOL0     C57019   9.037   9.590   4.674  0.0574 -0.1456 -0.0507
  423MOL0     C57020   9.079   9.712   4.619 -0.1854  0.6457  0.3289
  423MOL0     N57021   9.634   9.882   4.589  0.5661  0.3200 -0.4633
  423MOL0     N57022   9.746   9.822   4.573  0.0101 -0.5968  0.1404
  423MOL0     C57023  10.673   9.486   3.732  0.8351 -1.2443  0.5369
  423MOL0     C57024  10.787   9.403   3.729 -0.5089  0.3694  0.1967
  423MOL0     C57025  11.186   9.236   3.857  0.2091 -0.1118  1.2464
  423MOL0     C57026  11.262   9.216   3.973 -0.2316  0.3481 -0.3175
  423MOL0     C57027  11.390   9.171   3.976 -0.2247 -0.6099 -0.1390
  423MOL0     C57028  11.444   9.122   3.856  0.7906  0.7662  0.2062
  423MOL0     O57029  11.576   9.079   3.863 -1.0433 -0.4853  0.5108
  423MOL0     C57030  11.629   9.022   3.740 -0.1254  0.0756 -0.2548
  423MOL0     C57031  11.770   8.968   3.751  0.8075 -0.9440  0.7064
  423MOL0     C57032  11.790   8.865   3.865 -0.6835 -0.7799  1.3856
  423MOL0     C57033  11.936   8.821   3.886  0.4943  0.8738  0.8460
  423MOL0     C57034  11.992   8.734   3.775 -0.1997 -0.2433 -0.6570
  423MOL0     C57035  12.030   8.660   3.685 -0.4705  0.4458 -0.4391
  423MOL0     C57036  11.375   9.135   3.735 -0.2593 -0.6730  0.7679
  423MOL0     C57037  11.239   9.195   3.735 -0.7387  0.1601  0.2366
  423MOL0     H57038  11.032   9.619   3.784 -0.2243  1.2860 -1.2765
  423MOL0     H57039  10.837   9.774   3.803 -0.3910  0.3270 -0.7321
  423MOL0     H57040  10.502   9.695   3.965 -1.6201  0.7476 -0.2586
  423MOL0     H57041  10.649   9.805   3.945 -1.0928  1.6322  1.1110
  423MOL0     H57042  10.519   9.975   3.834  1.6659  0.0480  2.6876
  423MOL0     H57043  10.388   9.859   3.805  2.1717 -2.7977 -0.5300
  423MOL0     H57044  10.503   9.963   4.070 -1.4943 -0.7993  2.4478
  423MOL0     H57045  10.361  10.032   3.982  0.7312  0.4110  1.9392
  423MOL0     H57046  10.261   9.786   4.029 -0.1929  0.7741 -0.2500
  423MOL0     H57047  10.372   9.794   4.163  1.3792 -0.5000 -0.3885
  423MOL0     H57048  10.258  10.003   4.248 -0.9264 -2.1181  1.5475
  423MOL0     H57049  10.161   9.992   4.099  2.1359 -1.3450 -2.4122
  423MOL0     H57050  10.074   9.773   4.164  2.0298  0.4941 -2.2711
  423MOL0     H57051  10.179   9.768   4.309 -0.6428 -0.6206 -0.3391
  423MOL0     H57052  10.045   9.967   4.400  3.4023 -1.6560 -0.5483
  423MOL0     H57053   9.952   9.962   4.251 -1.8510 -2.3773 -1.4619
  423MOL0     H57054   9.977   9.765   4.493  1.4637  0.9936  0.1342
  423MOL0     H57055   9.909   9.719   4.333  0.0048  0.3478 -0.2004
  423MOL0     H57056   9.712   9.980   4.280 -1.6862 -1.0089 -1.2527
  423MOL0     H57057   9.461  10.096   4.517 -2.3561  0.9709 -0.5074
  423MOL0     H57058   9.477  10.070   4.347 -2.4490  0.2022  0.9959
  423MOL0     H57059   9.286   9.942   4.528  1.7812 -0.6906  1.8407
  423MOL0     H57060   9.389   9.831   4.437 -1.4053 -0.6136  0.5847
  423MOL0     H57061   9.314   9.952   4.217  0.2820  0.4958  0.8908
  423MOL0     H57062   9.224  10.065   4.319 -1.2233 -0.1406 -0.7934
  423MOL0     H57063   9.202   9.773   4.286  1.9487  0.8261  0.4311
  423MOL0     H57064   9.079   9.891   4.232 -1.1161  1.2131  0.7659
  423MOL0     H57065   8.911   9.706   4.322 -0.4030  0.9039  0.5735
  423MOL0     H57066   8.810   9.465   4.287 -2.6218  1.5297  0.7969
  423MOL0     H57067   8.860   9.337   4.406  2.1181  0.1314 -3.8657
  423MOL0     H57068   8.726   9.445   4.433  1.6215  2.1024  3.5720
  423MOL0     H57069   8.865   9.101   4.678  0.2500 -1.8583 -0.3448
  423MOL0     H57070   8.785   8.930   4.842  1.9069 -1.3159  1.3551
  423MOL0     H57071   8.629   8.991   5.156 -0.2954  0.3023 -0.6420
  423MOL0     H57072   8.637   8.913   5.004 -1.7409 -3.1168  0.4250
  423MOL0     H57073   8.739   8.708   5.157 -1.3969 -2.2006 -0.0597
  423MOL0     H57074   8.647   8.786   5.286  0.4396  0.3903  0.2763
  423MOL0     H57075   8.502   8.730   5.038  1.1762  2.5230  0.5917
  423MOL0     H57076   8.430   8.761   5.203  2.2668 -0.2433  2.5799
  423MOL0     H57077   8.610   8.530   5.127 -0.3817 -0.3321 -0.0436
  423MOL0     H57078   8.512   8.535   5.275 -0.1960  3.0056  1.5413
  423MOL0     H57079   8.413   8.398   5.084 -2.9532 -0.6698 -1.9280
  423MOL0     H57080   8.398   8.538   4.988  0.8052 -0.9871  0.8458
  423MOL0     H57081   8.265   8.482   5.274 -0.9272 -0.4811  0.4088
  423MOL0     H57082   8.228   8.625   5.175  0.1386 -0.6507 -2.9198
  423MOL0     H57083   8.176   8.407   4.997 -1.7225 -4.3668  1.1077
  423MOL0     H57084   8.055   8.494   5.091 -0.5217 -0.7201 -4.2011
  423MOL0     H57085   8.033   8.258   5.134 -0.5138  0.7419 -0.4369
  423MOL0     H57086   8.081   8.340   5.275 -1.0847  0.1249 -1.0505
  423MOL0     H57087   8.974   9.136   5.157  2.3538 -1.7871 -1.6917
  423MOL0     H57088   9.051   9.305   5.001 -1.5528  1.4004  1.1378
  423MOL0     H57089   9.061   9.568   4.777 -0.3408 -3.6532 -0.5958
  423MOL0     H57090   9.145   9.774   4.680  5.6607 -2.2157 -2.2703
  423MOL0     H57091  10.579   9.434   3.719 -0.0179 -0.2467  2.3745
  423MOL0     H57092  10.767   9.300   3.703 -0.9761  1.2585 -3.4140
  423MOL0     H57093  11.222   9.248   4.068  0.1318  3.2934 -1.0621
  423MOL0     H57094  11.448   9.162   4.068 -1.6217  3.3628  1.3405
  423MOL0     H57095  11.568   8.938   3.707 -0.0628  0.8180 -2.4303
  423MOL0     H57096  11.643   9.089   3.654 -2.8819 -2.6033 -3.0800
  423MOL0     H57097  11.833   9.057   3.757 -1.1077  0.5019  0.4209
  423MOL0     H57098  11.790   8.918   3.656  1.8301  1.8058 -0.6124
  423MOL0     H57099  11.729   8.776   3.845 -2.4825  0.3700  1.5027
  423MOL0     H57100  11.750   8.900   3.961 -3.9761  0.7998 -0.3794
  423MOL0     H57101  11.948   8.763   3.978 -2.5402  1.2743  1.5772
  423MOL0     H57102  12.004   8.907   3.883  0.2011  1.0899 -0.1994
  423MOL0     H57103  12.085   8.590   3.626  0.2726  2.4262 -2.1978
  423MOL0     H57104  11.427   9.102   3.646  0.1780 -1.8590  1.4341
  423MOL0     H57105  11.169   9.191   3.652 -0.8447  3.0407  0.0884
  424MOL0     O57106   8.353   1.026   6.651  0.1716 -0.2333  0.0950
  424MOL0     C57107   8.438   1.007   6.563 -0.0031  0.8701  0.6434
  424MOL0     O57108   8.424   0.910   6.460 -0.2839  0.2655 -0.6058
  424MOL0     C57109   8.311   0.837   6.436  0.4521 -0.8893  0.2915
  424MOL0     C57110   8.180   0.875   6.476  0.3075  0.2176 -0.5656
  424MOL0     C57111   8.072   0.800   6.430  0.4257  0.4457  0.6760
  424MOL0     C57112   8.082   0.683   6.354  0.4012  0.6453 -0.0690
  424MOL0     O57113   7.964   0.614   6.330  0.1812  0.2796  0.0673
  424MOL0     C57114   7.964   0.480   6.285 -0.7621 -0.0189 -1.3106
  424MOL0     C57115   7.934   0.470   6.140 -0.2320 -0.6858  0.3163
  424MOL0     C57116   7.799   0.526   6.094 -0.6758  0.3160 -0.3291
  424MOL0     C57117   7.786   0.535   5.942 -0.3591  0.2188 -1.1762
  424MOL0     C57118   7.633   0.564   5.914 -0.1501  0.7761 -0.4926
  424MOL0     C57119   7.607   0.586   5.763  0.5160  0.3127 -0.3741
  424MOL0     C57120   7.457   0.621   5.731 -1.1384  1.0984 -0.5539
  424MOL0     C57121   7.356   0.505   5.757 -0.7045 -0.0385  0.0032
  424MOL0     N57122   7.228   0.538   5.701 -0.0098 -0.4137 -0.3935
  424MOL0     C57123   7.223   0.569   5.569  0.2510  0.4666 -0.2855
  424MOL0     C57124   7.091   0.600   5.554  0.1635 -0.6144 -0.5863
  424MOL0     C57125   7.028   0.627   5.426 -0.1469 -0.8425  0.9187
  424MOL0     C57126   6.979   0.769   5.412  0.6555  0.3759  0.4809
  424MOL0     C57127   6.881   0.775   5.296  1.0145 -0.0832  0.2579
  424MOL0     C57128   6.834   0.913   5.275 -0.6310  0.1237  0.6100
  424MOL0     O57129   6.759   0.921   5.153 -0.3105 -0.0353 -1.1010
  424MOL0     C57130   6.628   0.901   5.160  0.2327  0.1331  1.0194
  424MOL0     C57131   6.558   0.910   5.037  0.4133 -0.7643 -0.4702
  424MOL0     C57132   6.418   0.886   5.032  0.3683 -0.4805  0.1917
  424MOL0     C57133   6.360   0.890   4.891 -0.3123  0.1165 -1.0324
  424MOL0     C57134   6.347   0.852   5.152  0.3019  0.1469 -0.4228
  424MOL0     C57135   6.197   0.832   5.158 -0.2159  0.0853 -0.7658
  424MOL0     O57136   6.139   0.807   5.047 -0.2080 -0.4545 -0.0181
  424MOL0     C57137   6.007   0.810   5.042 -0.0829 -0.2536  0.0083
  424MOL0     C57138   5.928   0.700   5.073 -0.1746 -0.2173  0.1353
  424MOL0     C57139   5.789   0.701   5.053  0.2205 -0.0182 -0.5341
  424MOL0     C57140   5.725   0.813   5.004 -0.0607  0.1291  0.3441
  424MOL0     O57141   5.584   0.828   4.993  0.8600  0.4192  0.1052
  424MOL0     C57142   5.508   0.715   5.026  0.2058  0.5197  0.1503
  424MOL0     C57143   5.365   0.728   4.974  0.0505  0.4426  0.7329
  424MOL0     C57144   5.295   0.854   5.038 -0.0286  0.1546 -0.2361
  424MOL0     C57145   5.150   0.852   4.998 -0.0085  0.1667 -0.0990
  424MOL0     C57146   5.065   0.962   5.059 -0.4728 -0.1812 -0.5310
  424MOL0     C57147   4.918   0.941   5.024  0.0602 -0.0134  0.6123
  424MOL0     C57148   4.840   1.064   5.067  0.1554  0.6770 -0.1652
  424MOL0     C57149   4.719   1.019   5.150 -0.0304  0.4157  0.8868
  424MOL0    Cl57150   4.599   0.936   5.044 -0.0237 -0.6620  0.1279
  424MOL0     C57151   5.810   0.925   4.966  0.4035  1.0457  0.4911
  424MOL0     C57152   5.949   0.920   4.977 -1.1652 -0.0632 -0.6259
  424MOL0     O57153   6.138   0.846   5.264  0.3975  0.1081 -0.1724
  424MOL0     C57154   6.421   0.832   5.269  0.8292 -0.2819  0.3201
  424MOL0     C57155   6.555   0.859   5.273 -0.9392  0.4828 -0.2294
  424MOL0     N57156   7.021   0.585   5.677 -1.3646  0.0591  0.4619
  424MOL0     N57157   7.108   0.547   5.758 -0.2016 -0.9736  0.1739
  424MOL0     C57158   8.214   0.650   6.308 -0.6707 -0.4327 -0.3335
  424MOL0     C57159   8.330   0.719   6.351  0.1949  0.2022 -0.0671
  424MOL0     C57160   8.554   1.101   6.562  0.4309 -0.4685 -0.1822
  424MOL0     C57161   8.563   1.206   6.652  0.5219 -0.3865 -0.0080
  424MOL0     C57162   8.683   1.277   6.665  0.0482 -0.4733 -0.2101
  424MOL0     C57163   8.783   1.256   6.570  0.1965 -0.3905 -0.6381
  424MOL0     O57164   8.907   1.308   6.585  0.6162 -0.5148  0.1415
  424MOL0     C57165   8.942   1.366   6.710 -0.3011  0.1667  0.7660
  424MOL0     C57166   9.090   1.392   6.707 -0.3579 -0.1364  0.2355
  424MOL0     C57167   9.147   1.465   6.826  0.4013 -0.2980  0.0617
  424MOL0     C57168   9.269   1.557   6.784 -0.9691  0.4989  0.1583
  424MOL0     C57169   9.389   1.476   6.769 -0.3144 -0.2441 -0.4625
  424MOL0     C57170   9.489   1.403   6.762  0.5177  0.5535 -0.4679
  424MOL0     C57171   8.764   1.172   6.468 -0.2097 -1.2066 -0.3697
  424MOL0     C57172   8.653   1.086   6.468 -0.3771  0.0125  0.1305
  424MOL0     H57173   8.157   0.960   6.540 -0.8352  0.7235 -1.6046
  424MOL0     H57174   7.976   0.830   6.470  2.0392  2.8364  3.1293
  424MOL0     H57175   8.060   0.430   6.305 -0.2120  0.6895 -2.1209
  424MOL0     H57176   7.894   0.419   6.343  0.0837  1.0951  1.0087
  424MOL0     H57177   8.008   0.515   6.074  0.2886 -0.5185  1.0037
  424MOL0     H57178   7.926   0.364   6.117 -1.5601 -0.5314 -0.0458
  424MOL0     H57179   7.729   0.452   6.135  1.3543 -2.3018 -1.3165
  424MOL0     H57180   7.776   0.619   6.146  0.6913 -0.6521  2.1922
  424MOL0     H57181   7.856   0.612   5.909  0.1873  1.6041  2.6345
  424MOL0     H57182   7.835   0.446   5.902  4.7676  1.1611  2.0359
  424MOL0     H57183   7.575   0.479   5.952  2.6451 -0.6431  0.9158
  424MOL0     H57184   7.605   0.662   5.956  0.8387  1.5006 -1.4611
  424MOL0     H57185   7.675   0.657   5.713  0.5533 -1.8782 -3.7606
  424MOL0     H57186   7.623   0.499   5.698 -0.7167  0.0744 -0.3711
  424MOL0     H57187   7.432   0.712   5.787  1.8212  0.9176  1.2812
  424MOL0     H57188   7.459   0.645   5.625  0.0292  1.1245 -0.5401
  424MOL0     H57189   7.356   0.473   5.862 -0.0385 -1.8090 -0.5074
  424MOL0     H57190   7.398   0.419   5.704  0.3518  1.2967 -1.3988
  424MOL0     H57191   7.309   0.554   5.504  1.1662  2.4811  0.3802
  424MOL0     H57192   7.103   0.618   5.347 -1.4576 -0.3156 -0.4242
  424MOL0     H57193   6.957   0.548   5.399  1.7633 -1.9003 -1.3508
  424MOL0     H57194   7.058   0.833   5.371 -0.1448  0.4693 -0.9841
  424MOL0     H57195   6.922   0.808   5.497 -1.2022  3.1647 -1.8461
  424MOL0     H57196   6.796   0.708   5.311 -1.3565  2.7397  0.1491
  424MOL0     H57197   6.924   0.751   5.198 -0.3720  2.6461 -1.1082
  424MOL0     H57198   6.928   0.968   5.261 -0.8851  0.0828 -1.5744
  424MOL0     H57199   6.795   0.954   5.368  0.4559 -1.4723  1.8166
  424MOL0     H57200   6.610   0.938   4.946  0.3118  5.1381  0.8972
  424MOL0     H57201   6.439   0.920   4.821 -1.8148  1.7130 -2.1337
  424MOL0     H57202   6.310   0.799   4.857  3.6555 -1.6063 -2.8883
  424MOL0     H57203   6.294   0.975   4.871  1.9477  1.3101 -4.2889
  424MOL0     H57204   5.969   0.620   5.133  1.3042 -1.0415 -1.8537
  424MOL0     H57205   5.737   0.613   5.091  1.6189  0.2563  2.2185
  424MOL0     H57206   5.545   0.628   4.970  0.5625  0.5488  0.3337
  424MOL0     H57207   5.505   0.697   5.134  0.7258 -0.4822  0.0140
  424MOL0     H57208   5.358   0.733   4.865 -1.4761 -1.4774  0.6875
  424MOL0     H57209   5.308   0.642   5.012  0.5778 -0.5856 -0.7147
  424MOL0     H57210   5.340   0.943   4.993 -1.1465  0.5284 -0.6551
  424MOL0     H57211   5.318   0.863   5.144  0.6776  1.8254 -0.5073
  424MOL0     H57212   5.143   0.853   4.889 -0.0389 -0.9059 -0.1120
  424MOL0     H57213   5.111   0.756   5.033 -1.9898  0.7919 -0.4520
  424MOL0     H57214   5.094   1.060   5.019  0.8864 -0.8301 -1.2396
  424MOL0     H57215   5.077   0.957   5.167 -1.2717 -3.0295 -0.4910
  424MOL0     H57216   4.902   0.923   4.917  2.0942 -0.5667  0.3530
  424MOL0     H57217   4.875   0.855   5.076 -4.4809  0.4809 -1.8155
  424MOL0     H57218   4.810   1.122   4.979 -0.3787 -0.4885 -0.7814
  424MOL0     H57219   4.908   1.121   5.131 -2.4820  2.6919  1.0068
  424MOL0     H57220   4.662   1.102   5.193 -0.4881  0.5412  0.0555
  424MOL0     H57221   4.759   0.960   5.233  0.1549  0.2244  0.6629
  424MOL0     H57222   5.743   1.002   4.929  0.3651  1.5685  1.6261
  424MOL0     H57223   6.015   0.999   4.945 -2.3667  1.5042  0.5911
  424MOL0     H57224   6.374   0.803   5.362  0.5262  1.2062  0.6639
  424MOL0     H57225   6.609   0.840   5.366 -3.3211 -0.3639  1.0658
  424MOL0     H57226   8.222   0.571   6.233 -0.7650 -0.2837 -0.5033
  424MOL0     H57227   8.431   0.699   6.317  0.6566 -0.9166  1.8415
  424MOL0     H57228   8.481   1.225   6.720 -0.7043 -0.8491 -1.3014
  424MOL0     H57229   8.675   1.353   6.742 -0.8478 -0.8047  0.0395
  424MOL0     H57230   8.886   1.457   6.733  1.5153  1.1720  1.3485
  424MOL0     H57231   8.922   1.292   6.788  1.9205 -0.0961  1.1348
  424MOL0     H57232   9.116   1.445   6.615 -0.4039 -2.7601 -1.3842
  424MOL0     H57233   9.140   1.295   6.700 -2.1780 -1.4323  3.0890
  424MOL0     H57234   9.177   1.396   6.905  2.6471 -1.2620 -1.5593
  424MOL0     H57235   9.073   1.538   6.862  1.5721  2.1600 -2.1751
  424MOL0     H57236   9.277   1.625   6.869 -1.6913 -0.9746  1.4345
  424MOL0     H57237   9.247   1.617   6.695 -0.6480 -0.3603 -0.5124
  424MOL0     H57238   9.569   1.337   6.736  0.3860 -0.0726  0.6753
  424MOL0     H57239   8.834   1.158   6.387  0.2350  2.6836 -0.8164
  424MOL0     H57240   8.659   1.011   6.390  0.0690 -0.0926  0.2632
  425MOL0     O57241   6.571   8.930   7.267 -0.0419  0.4048  0.0207
  425MOL0     C57242   6.664   8.871   7.208  0.6801  0.3223  0.4930
  425MOL0     O57243   6.700   8.883   7.075  0.3283 -0.7824 -0.1833
  425MOL0     C57244   6.616   8.952   6.990  0.3304 -0.2669  0.9769
  425MOL0     C57245   6.476   8.930   6.984  0.0363  0.2245 -0.4280
  425MOL0     C57246   6.394   8.994   6.885 -0.0976 -0.2641  0.1945
  425MOL0     C57247   6.452   9.061   6.778  0.7890  1.1681  0.7379
  425MOL0     O57248   6.378   9.116   6.682  0.1283  1.1947  0.3633
  425MOL0     C57249   6.444   9.208   6.584 -0.6216  1.1934 -0.6593
  425MOL0     C57250   6.337   9.279   6.505 -0.2704  0.3467 -0.0023
  425MOL0     C57251   6.297   9.195   6.382  0.4586 -0.4378  0.1527
  425MOL0     C57252   6.157   9.128   6.402  0.0305  0.4231  0.3794
  425MOL0     C57253   6.135   9.047   6.261 -0.3019 -0.2570 -0.3819
  425MOL0     C57254   6.003   8.965   6.257 -0.5538  0.6146 -1.0587
  425MOL0     C57255   5.889   9.053   6.219  0.1971 -0.0971 -0.4860
  425MOL0     C57256   5.750   8.989   6.237  0.0164 -0.2334 -0.5052
  425MOL0     N57257   5.703   8.934   6.112 -0.2317 -0.1149 -0.2314
  425MOL0     C57258   5.672   9.002   5.996  0.3750  0.3151 -0.0701
  425MOL0     C57259   5.671   8.903   5.897  0.4260 -0.6040  0.0064
  425MOL0     C57260   5.652   8.914   5.749  0.5218 -0.3174 -0.4490
  425MOL0     C57261   5.507   8.906   5.729  0.2667 -0.7708 -0.2376
  425MOL0     C57262   5.413   9.025   5.780  0.4863  0.1042  0.2864
  425MOL0     C57263   5.267   8.987   5.752  0.1355 -0.5620  0.0953
  425MOL0     O57264   5.240   8.970   5.601 -0.1969  0.0741 -0.6485
  425MOL0     C57265   5.114   8.920   5.571 -0.1457 -0.0614 -0.5483
  425MOL0     C57266   4.997   8.945   5.641 -0.0862 -0.5920 -0.0867
  425MOL0     C57267   4.864   8.915   5.596 -0.0822  0.0631  0.4180
  425MOL0     C57268   4.736   8.946   5.672  0.0609  0.0905  0.7453
  425MOL0     C57269   4.853   8.857   5.469  0.5898 -0.2239  0.2928
  425MOL0     C57270   4.730   8.830   5.397 -0.6371  0.4033 -0.3583
  425MOL0     O57271   4.644   8.932   5.376  0.7567 -0.6270  0.0013
  425MOL0     C57272   4.521   8.908   5.329  0.6182  0.7506  0.4072
  425MOL0     C57273   4.434   8.800   5.375 -0.3661 -0.7284 -0.0896
  425MOL0     C57274   4.303   8.803   5.328  0.0697  0.4927  0.4013
  425MOL0     C57275   4.255   8.892   5.241  1.5535 -0.3941  0.2274
  425MOL0     O57276   4.116   8.886   5.214  0.2204 -0.1939 -0.4093
  425MOL0     C57277   4.034   9.005   5.230  0.0849 -0.3339  1.0441
  425MOL0     C57278   3.995   9.053   5.370  0.0340  0.1700 -0.6400
  425MOL0     C57279   3.954   8.932   5.467 -0.5084 -0.6526  0.3559
  425MOL0     C57280   3.838   8.856   5.424 -0.2515 -0.0166 -0.5011
  425MOL0     C57281   3.822   8.737   5.529 -0.0735  0.0208  0.3470
  425MOL0     C57282   3.687   8.669   5.508  0.1206  0.3977  0.0160
  425MOL0     C57283   3.573   8.750   5.575  0.3238 -0.1677  0.0767
  425MOL0     C57284   3.437   8.684   5.539 -0.6302 -0.5338 -0.5401
  425MOL0    Cl57285   3.311   8.744   5.638  0.2004  0.0862 -0.0990
  425MOL0     C57286   4.345   8.980   5.185  0.0189  0.7698 -0.0065
  425MOL0     C57287   4.480   8.988   5.224  1.0676  0.0728 -0.4197
  425MOL0     O57288   4.721   8.709   5.351 -0.2814 -0.2724 -0.9709
  425MOL0     C57289   4.972   8.814   5.404 -0.9060  0.2182  0.8750
  425MOL0     C57290   5.100   8.844   5.455  0.3334  0.7091  0.2893
  425MOL0     N57291   5.689   8.782   5.955  0.6004 -0.4033  0.2010
  425MOL0     N57292   5.707   8.806   6.079  0.1802 -0.3188  0.2939
  425MOL0     C57293   6.592   9.072   6.779 -1.0360  0.0256 -0.2092
  425MOL0     C57294   6.674   9.021   6.877 -0.1858 -0.3806 -0.2654
  425MOL0     C57295   6.747   8.786   7.299  0.3817  0.2552 -0.1402
  425MOL0     C57296   6.815   8.687   7.238 -0.7275 -0.1168  0.0339
  425MOL0     C57297   6.908   8.617   7.311 -0.8721 -0.0519 -1.0910
  425MOL0     C57298   6.935   8.647   7.441 -0.8313 -0.6918  0.6135
  425MOL0     O57299   7.034   8.595   7.517 -0.0460 -0.0391  0.4871
  425MOL0     C57300   7.125   8.497   7.458 -0.3962  0.1673 -0.5889
  425MOL0     C57301   7.240   8.561   7.378 -0.1468 -1.3199  0.5917
  425MOL0     C57302   7.317   8.652   7.481 -0.1609 -0.5522  0.4389
  425MOL0     C57303   7.436   8.722   7.409  0.4545 -0.1722  0.5133
  425MOL0     C57304   7.521   8.785   7.510 -0.7699  0.0987  0.0237
  425MOL0     C57305   7.593   8.861   7.576 -0.0188 -0.3154  0.4518
  425MOL0     C57306   6.855   8.740   7.505  0.0212  0.2550 -0.6577
  425MOL0     C57307   6.761   8.808   7.438 -0.2594 -0.4820 -0.6274
  425MOL0     H57308   6.434   8.879   7.071 -0.6778  1.3769 -0.0761
  425MOL0     H57309   6.290   8.964   6.874 -0.1057  0.2155 -1.2119
  425MOL0     H57310   6.502   9.281   6.643  1.2767 -0.8516  0.1357
  425MOL0     H57311   6.514   9.157   6.518 -1.4314  0.8550 -1.2600
  425MOL0     H57312   6.249   9.298   6.568 -0.5344 -0.7611 -0.0199
  425MOL0     H57313   6.376   9.379   6.486 -0.2537  0.1729 -0.8959
  425MOL0     H57314   6.303   9.259   6.294  1.8991 -2.2394 -1.1323
  425MOL0     H57315   6.369   9.112   6.384 -0.6332 -1.4735  3.3460
  425MOL0     H57316   6.159   9.059   6.487 -4.0966 -0.4202  0.0020
  425MOL0     H57317   6.076   9.198   6.422 -2.7387 -2.4303  0.0049
  425MOL0     H57318   6.142   9.120   6.180  0.0194 -1.0896 -1.1301
  425MOL0     H57319   6.217   8.975   6.247 -0.3412 -0.1378 -1.2991
  425MOL0     H57320   6.015   8.883   6.186  0.5336  0.5642 -0.8297
  425MOL0     H57321   5.988   8.918   6.354 -0.8331  0.1404 -1.3274
  425MOL0     H57322   5.899   9.149   6.270  0.5400 -1.1501  1.5004
  425MOL0     H57323   5.899   9.079   6.113  1.7160 -0.2964 -0.4189
  425MOL0     H57324   5.684   9.064   6.281  0.1386 -0.9641  0.9605
  425MOL0     H57325   5.752   8.910   6.312  0.9491 -0.1785 -0.4648
  425MOL0     H57326   5.678   9.109   5.981  1.8325  0.2764  0.0763
  425MOL0     H57327   5.700   9.008   5.720  2.2137 -0.1682  2.4180
  425MOL0     H57328   5.705   8.824   5.715  1.8166 -0.3669  1.5216
  425MOL0     H57329   5.468   8.812   5.770 -1.8512  0.6359  1.1041
  425MOL0     H57330   5.496   8.914   5.620  3.6367  1.1085 -0.5751
  425MOL0     H57331   5.436   9.109   5.714 -1.6418 -0.2683 -1.0265
  425MOL0     H57332   5.423   9.061   5.883 -1.8544  0.1333  0.5472
  425MOL0     H57333   5.208   9.070   5.792 -1.7811 -2.2859  1.0540
  425MOL0     H57334   5.242   8.894   5.804  0.4667  0.1489  1.5648
  425MOL0     H57335   4.995   8.990   5.740 -2.3566  0.9387 -0.7364
  425MOL0     H57336   4.743   8.931   5.780 -0.1363  5.7755  1.8206
  425MOL0     H57337   4.696   9.047   5.662  0.8976  0.5610  1.8926
  425MOL0     H57338   4.659   8.880   5.633  1.5300  0.6862 -3.7188
  425MOL0     H57339   4.455   8.733   5.457  0.3692  0.6654  0.8967
  425MOL0     H57340   4.234   8.737   5.381  0.1132  2.3605  2.9708
  425MOL0     H57341   4.079   9.091   5.178  2.1209 -1.3026  1.0731
  425MOL0     H57342   3.937   8.986   5.184 -0.1088  1.1413  0.7965
  425MOL0     H57343   4.073   9.112   5.420  0.1393  0.1709 -0.8067
  425MOL0     H57344   3.911   9.121   5.352  0.5325  0.8025 -0.6418
  425MOL0     H57345   3.940   8.965   5.570  2.9069 -0.6842  0.9494
  425MOL0     H57346   4.035   8.859   5.473 -0.9726 -1.2912 -0.8185
  425MOL0     H57347   3.757   8.929   5.435  0.7948  0.7630  3.6119
  425MOL0     H57348   3.827   8.821   5.320  0.8476 -4.6627  0.6986
  425MOL0     H57349   3.833   8.772   5.632 -1.7567 -0.2437  0.6491
  425MOL0     H57350   3.907   8.670   5.516 -2.1014 -2.9407  1.1561
  425MOL0     H57351   3.671   8.673   5.399  1.1883 -1.6357 -0.2652
  425MOL0     H57352   3.677   8.567   5.545 -0.7414  0.0098 -1.2020
  425MOL0     H57353   3.577   8.859   5.566  0.7606 -0.2320 -0.6005
  425MOL0     H57354   3.583   8.750   5.684 -1.1475  3.4927  0.3393
  425MOL0     H57355   3.437   8.576   5.555 -2.6056 -0.9626 -2.9429
  425MOL0     H57356   3.414   8.707   5.435  0.4603  3.4803 -0.0886
  425MOL0     H57357   4.306   9.060   5.121 -0.2391  2.4332  2.1260
  425MOL0     H57358   4.540   9.062   5.173  2.1599 -0.3726  0.1749
  425MOL0     H57359   4.955   8.757   5.314 -0.7708 -0.1694  1.0925
  425MOL0     H57360   5.184   8.797   5.404 -1.1273 -0.7128 -0.9414
  425MOL0     H57361   6.645   9.127   6.702  2.2220 -1.8045  0.5265
  425MOL0     H57362   6.781   9.027   6.862 -0.2428 -0.1814 -0.6141
  425MOL0     H57363   6.813   8.672   7.130  1.2505 -1.7224  0.1645
  425MOL0     H57364   6.971   8.542   7.263  2.2297  1.4085  0.3534
  425MOL0     H57365   7.164   8.435   7.539 -1.2012 -2.2437 -1.9346
  425MOL0     H57366   7.074   8.416   7.406  0.0119 -1.0021  0.7606
  425MOL0     H57367   7.205   8.627   7.298  1.2883 -1.6305 -0.3480
  425MOL0     H57368   7.291   8.482   7.323 -0.5937  0.5102 -2.7166
  425MOL0     H57369   7.355   8.592   7.564  0.0953 -0.8369  0.1176
  425MOL0     H57370   7.246   8.725   7.522 -0.4613 -0.0663 -0.8936
  425MOL0     H57371   7.394   8.790   7.335 -3.1498 -1.5353  1.1102
  425MOL0     H57372   7.502   8.646   7.366  1.0910 -0.4800  1.9692
  425MOL0     H57373   7.660   8.924   7.630 -0.1566 -2.4432  3.3643
  425MOL0     H57374   6.870   8.754   7.611 -0.7490  1.2444 -0.6651
  425MOL0     H57375   6.695   8.886   7.475 -0.6538  0.3353 -2.8929
  426MOL0     O57376   1.286   3.167  10.243 -0.4354  0.4261 -0.5811
  426MOL0     C57377   1.348   3.078  10.301  1.5389 -0.2139 -0.2051
  426MOL0     O57378   1.347   3.050  10.431  0.5357 -0.3563  0.1791
  426MOL0     C57379   1.251   3.094  10.518  0.0793 -0.2294  0.4512
  426MOL0     C57380   1.266   3.045  10.655 -0.1877 -0.4340 -0.0740
  426MOL0     C57381   1.166   3.068  10.749 -0.2562  0.3141 -0.1186
  426MOL0     C57382   1.057   3.148  10.724  0.3373 -0.1859  0.2906
  426MOL0     O57383   0.964   3.177  10.821  1.0219  0.7500 -0.3657
  426MOL0     C57384   0.866   3.282  10.805 -1.0557  0.2546  0.3178
  426MOL0     C57385   0.782   3.274  10.933 -0.3448  0.8464 -0.7082
  426MOL0     C57386   0.669   3.372  10.920 -0.5224 -0.4009  0.2514
  426MOL0     C57387   0.568   3.356  11.033 -0.2817  0.1580  0.8287
  426MOL0     C57388   0.443   3.437  11.008 -0.4089 -0.2692 -0.8010
  426MOL0     C57389   0.360   3.443  11.137 -1.0101  0.8443 -0.6860
  426MOL0     C57390   0.213   3.484  11.114 -0.2573  0.0207  0.4920
  426MOL0     C57391   0.114   3.457  11.236  0.8470  1.0055  0.5132
  426MOL0     N57392  -0.035   3.478  11.210 -0.7189 -0.1065 -0.7717
  426MOL0     C57393  -0.097   3.598  11.225  0.8536 -1.0804 -0.1196
  426MOL0     C57394  -0.228   3.575  11.188  0.2099  0.2193 -0.2067
  426MOL0     C57395  -0.336   3.686  11.178  0.6186 -0.6819  0.7665
  426MOL0     C57396  -0.481   3.635  11.150 -0.3701  1.3928  0.5815
  426MOL0     C57397  -0.538   3.550  11.272  0.0617 -0.0204  0.0020
  426MOL0     C57398  -0.691   3.553  11.264  0.2178  0.2468 -0.1473
  426MOL0     O57399  -0.748   3.678  11.295 -0.1225 -0.5781 -0.1293
  426MOL0     C57400  -0.883   3.696  11.276 -0.6331  0.0455 -0.2417
  426MOL0     C57401  -0.983   3.604  11.314 -0.1144 -0.2141  0.1792
  426MOL0     C57402  -1.121   3.625  11.280 -0.1714 -0.0898 -0.5796
  426MOL0     C57403  -1.222   3.514  11.300 -0.6859 -0.3788 -0.0725
  426MOL0     C57404  -1.162   3.742  11.214 -0.4423  0.0337 -0.6896
  426MOL0     C57405  -1.297   3.781  11.170  0.0285  0.3635 -0.2680
  426MOL0     O57406  -1.400   3.707  11.192  0.4897  0.0808 -0.1678
  426MOL0     C57407  -1.531   3.752  11.218  0.3234  0.1478  0.5807
  426MOL0     C57408  -1.629   3.657  11.207  0.1994  0.4621 -0.2037
  426MOL0     C57409  -1.760   3.698  11.212 -0.7079  0.6589  0.0548
  426MOL0     C57410  -1.803   3.832  11.233 -0.9761  1.7925 -0.4551
  426MOL0     O57411  -1.932   3.853  11.231  0.2239  0.0122  0.1508
  426MOL0     C57412  -1.988   3.990  11.237  0.6449 -0.1270 -0.1520
  426MOL0     C57413  -2.142   3.999  11.273 -0.1478 -0.1730  0.2381
  426MOL0     C57414  -2.182   3.921  11.399 -0.6477  0.1016  0.5404
  426MOL0     C57415  -2.171   4.000  11.533 -0.5225  0.0100 -0.2662
  426MOL0     C57416  -2.203   3.907  11.650 -0.2725 -0.2373 -0.2954
  426MOL0     C57417  -2.222   3.976  11.786 -0.2243 -0.3961  0.5893
  426MOL0     C57418  -2.254   3.875  11.892 -0.3363 -0.1189  1.0960
  426MOL0     C57419  -2.391   3.811  11.881 -0.3830  0.2350 -0.3766
  426MOL0    Cl57420  -2.524   3.925  11.909 -0.6152 -0.4507 -0.0485
  426MOL0     C57421  -1.698   3.931  11.240 -0.0100 -0.6693  0.1231
  426MOL0     C57422  -1.567   3.888  11.233 -0.2599  0.1718 -0.4786
  426MOL0     O57423  -1.302   3.890  11.109  0.0408  0.8970  0.0012
  426MOL0     C57424  -1.057   3.837  11.179 -0.5878  0.2634 -0.2886
  426MOL0     C57425  -0.918   3.810  11.211  0.3702  0.1710 -0.2931
  426MOL0     N57426  -0.234   3.445  11.144  0.0618 -0.0432 -0.0775
  426MOL0     N57427  -0.128   3.389  11.161 -0.0868  0.2779 -1.0083
  426MOL0     C57428   1.051   3.208  10.602  0.5921 -0.2761  0.9345
  426MOL0     C57429   1.149   3.184  10.501  0.2825  0.0872 -0.1734
  426MOL0     C57430   1.456   3.010  10.226 -0.4391 -0.1594 -0.5897
  426MOL0     C57431   1.481   3.041  10.099  0.3123 -0.2222 -0.1851
  426MOL0     C57432   1.577   2.987  10.026 -0.5790  0.3065 -0.1118
  426MOL0     C57433   1.664   2.883  10.078  0.8271 -0.0797  0.1244
  426MOL0     O57434   1.770   2.821  10.019 -0.6309  0.2467 -0.3967
  426MOL0     C57435   1.766   2.815   9.880 -0.1166 -0.3401  0.4367
  426MOL0     C57436   1.874   2.719   9.833 -0.1680 -0.5024 -0.7240
  426MOL0     C57437   1.883   2.700   9.678  0.8072  0.0383  0.5359
  426MOL0     C57438   1.987   2.600   9.631 -0.5555  0.7867  0.2506
  426MOL0     C57439   1.975   2.568   9.488  0.2052 -0.8250 -0.5235
  426MOL0     C57440   1.974   2.549   9.370 -0.4621  0.1927 -0.6208
  426MOL0     C57441   1.646   2.851  10.215 -0.2083 -0.3860  0.0593
  426MOL0     C57442   1.535   2.905  10.285  0.2424  1.0725  0.6159
  426MOL0     H57443   1.364   3.007  10.683  1.5000  1.6573 -2.6644
  426MOL0     H57444   1.179   3.027  10.848  0.2090  2.2348  0.6630
  426MOL0     H57445   0.917   3.378  10.800 -1.3596  0.3793 -0.4335
  426MOL0     H57446   0.802   3.277  10.716  1.1990  2.5138 -1.5673
  426MOL0     H57447   0.728   3.180  10.948 -1.0694  1.5481  1.6153
  426MOL0     H57448   0.842   3.309  11.018  0.0218 -0.4336 -0.4216
  426MOL0     H57449   0.703   3.475  10.916 -0.6099 -0.3994 -0.7580
  426MOL0     H57450   0.618   3.361  10.824 -0.3293  2.9749 -0.3380
  426MOL0     H57451   0.542   3.250  11.038  3.3919 -0.9335 -0.0463
  426MOL0     H57452   0.619   3.394  11.122  0.4205 -1.7303  1.2885
  426MOL0     H57453   0.464   3.541  10.982  0.1723  0.5405  2.4528
  426MOL0     H57454   0.383   3.383  10.934 -1.9681 -0.7995  0.7852
  426MOL0     H57455   0.372   3.342  11.178  1.3110  0.3215 -2.4446
  426MOL0     H57456   0.410   3.514  11.203  0.0830 -0.7359  0.2521
  426MOL0     H57457   0.209   3.592  11.101  1.4038  0.3479  2.2768
  426MOL0     H57458   0.183   3.442  11.017 -1.1871 -0.1138  0.8245
  426MOL0     H57459   0.143   3.512  11.326  2.3032 -2.4201  2.3021
  426MOL0     H57460   0.124   3.351  11.262  0.6664  0.0052 -2.9490
  426MOL0     H57461  -0.056   3.695  11.250 -0.3495  0.5867 -3.8585
  426MOL0     H57462  -0.346   3.752  11.264 -1.3499 -1.5831  1.2829
  426MOL0     H57463  -0.316   3.754  11.095 -0.9544  0.2967  1.1458
  426MOL0     H57464  -0.480   3.570  11.062 -0.4656  1.5845  0.4398
  426MOL0     H57465  -0.545   3.717  11.118 -0.4093  0.1365 -3.0092
  426MOL0     H57466  -0.517   3.588  11.372  3.0344  0.7039 -0.7863
  426MOL0     H57467  -0.507   3.446  11.270 -2.5065 -0.9370  1.9722
  426MOL0     H57468  -0.730   3.474  11.328 -0.5797  0.8097  0.0750
  426MOL0     H57469  -0.722   3.526  11.163 -3.2782 -2.1332  1.3793
  426MOL0     H57470  -0.951   3.519  11.373  0.2150 -1.0387 -1.1488
  426MOL0     H57471  -1.315   3.549  11.345 -0.5175  0.9265 -0.7059
  426MOL0     H57472  -1.247   3.468  11.204  0.4573 -0.9550 -0.1059
  426MOL0     H57473  -1.180   3.449  11.378  0.6897  0.6389  0.0924
  426MOL0     H57474  -1.597   3.557  11.182  1.3733  0.9178 -0.6296
  426MOL0     H57475  -1.838   3.623  11.213 -0.6226  0.5752  1.2904
  426MOL0     H57476  -1.935   4.042  11.317 -0.2644  1.6027 -0.6468
  426MOL0     H57477  -1.970   4.028  11.136 -0.9413  0.0348 -0.3944
  426MOL0     H57478  -2.176   4.102  11.288 -2.1091 -0.9253  1.3545
  426MOL0     H57479  -2.199   3.960  11.188 -0.2228  0.1653  0.1327
  426MOL0     H57480  -2.131   3.825  11.411 -1.8610 -0.4883  1.1358
  426MOL0     H57481  -2.286   3.888  11.388 -0.3948 -0.3981 -0.4359
  426MOL0     H57482  -2.074   4.047  11.554 -1.2142  1.6323 -0.6173
  426MOL0     H57483  -2.228   4.093  11.541  2.1723  1.8407 -1.1783
  426MOL0     H57484  -2.123   3.832  11.641  1.2498  1.4166 -1.4108
  426MOL0     H57485  -2.287   3.843  11.622  1.5437 -2.5230 -0.9293
  426MOL0     H57486  -2.141   4.041  11.820  0.0740  0.4578 -1.5404
  426MOL0     H57487  -2.301   4.052  11.785  0.2788  0.1341 -0.0813
  426MOL0     H57488  -2.247   3.912  11.995 -2.0318  2.1516  0.4744
  426MOL0     H57489  -2.182   3.797  11.866  0.3661  1.5021 -2.3446
  426MOL0     H57490  -2.396   3.729  11.952 -1.9437 -1.0002 -1.8205
  426MOL0     H57491  -2.403   3.771  11.780  1.3135  0.6050 -0.7470
  426MOL0     H57492  -1.723   4.036  11.248 -1.1557 -0.8417 -0.9334
  426MOL0     H57493  -1.495   3.970  11.240 -3.2528  3.5087 -4.0663
  426MOL0     H57494  -1.081   3.923  11.116  0.0864  0.8215  0.2033
  426MOL0     H57495  -0.847   3.890  11.188  0.4313  0.5724  1.2170
  426MOL0     H57496   0.974   3.282  10.580  1.7166  0.7995  0.5310
  426MOL0     H57497   1.141   3.249  10.415  2.5130  1.0580  0.2872
  426MOL0     H57498   1.413   3.112  10.054 -1.8319 -2.4168 -0.5882
  426MOL0     H57499   1.589   3.007   9.920  0.6654  0.7301  0.0921
  426MOL0     H57500   1.672   2.770   9.847 -0.5386  1.7882 -1.5521
  426MOL0     H57501   1.775   2.916   9.839  0.7424 -0.7262 -0.3610
  426MOL0     H57502   1.850   2.624   9.882  1.5480 -1.3971 -1.5336
  426MOL0     H57503   1.966   2.762   9.874 -1.7215 -0.0121  2.4772
  426MOL0     H57504   1.920   2.796   9.641  0.0580  0.3592  0.5960
  426MOL0     H57505   1.783   2.672   9.643 -0.3352 -1.2898  4.3379
  426MOL0     H57506   1.961   2.515   9.695 -2.0567  0.3789 -0.8455
  426MOL0     H57507   2.090   2.628   9.657 -0.2076  0.0945 -0.3145
  426MOL0     H57508   1.972   2.535   9.264  0.9352 -0.0446 -0.6386
  426MOL0     H57509   1.712   2.783  10.268 -0.5343  0.5517  1.7284
  426MOL0     H57510   1.523   2.870  10.387  1.4662 -0.4536  0.2778
  427MOL0     O57511   2.017  10.844   6.064  0.1405  0.3056  0.2616
  427MOL0     C57512   2.054  10.954   6.090 -0.4649  0.0031 -0.3428
  427MOL0     O57513   2.043  11.021   6.214  0.0537 -0.3980  0.1983
  427MOL0     C57514   2.011  10.942   6.326  0.9889 -0.4383  0.6580
  427MOL0     C57515   2.017  10.805   6.336  0.0123  0.1992 -0.4063
  427MOL0     C57516   1.960  10.738   6.439 -0.2483  0.1349  0.3379
  427MOL0     C57517   1.901  10.809   6.547 -0.1119  0.1558 -0.0327
  427MOL0     O57518   1.848  10.730   6.636 -0.2867 -0.3618 -0.6340
  427MOL0     C57519   1.790  10.801   6.750  0.2002 -0.1744  0.4835
  427MOL0     C57520   1.719  10.705   6.850 -0.2452 -0.9155 -0.3881
  427MOL0     C57521   1.601  10.627   6.775  0.4880 -0.4605 -0.6864
  427MOL0     C57522   1.553  10.518   6.862  0.1037 -0.2022 -1.3528
  427MOL0     C57523   1.414  10.551   6.926 -0.1463 -0.3496 -0.3884
  427MOL0     C57524   1.295  10.550   6.824  0.7143  0.0267  0.1237
  427MOL0     C57525   1.168  10.579   6.910  0.0614  0.4124 -0.4650
  427MOL0     C57526   1.037  10.584   6.830  0.4689  0.3542 -0.4853
  427MOL0     N57527   1.024  10.685   6.725  0.1707  0.8447  0.6806
  427MOL0     C57528   1.055  10.653   6.596 -0.4682 -0.0172 -0.4285
  427MOL0     C57529   1.004  10.761   6.523 -0.2302 -0.1721 -0.6431
  427MOL0     C57530   0.999  10.776   6.370  0.2772  0.2231 -0.1781
  427MOL0     C57531   1.090  10.673   6.297 -0.3495  0.1616  0.6899
  427MOL0     C57532   1.082  10.674   6.136 -0.2099  0.4121  0.3316
  427MOL0     C57533   0.939  10.633   6.086 -0.4190  0.0172 -1.1404
  427MOL0     O57534   0.957  10.577   5.962  0.4269  0.4735 -0.5581
  427MOL0     C57535   0.847  10.523   5.896 -0.4380 -0.4796 -0.1480
  427MOL0     C57536   0.860  10.478   5.769  0.1014  0.6248 -0.6241
  427MOL0     C57537   0.756  10.423   5.691 -0.4236  0.4336  0.3021
  427MOL0     C57538   0.812  10.357   5.570  0.7830 -0.4145  0.3071
  427MOL0     C57539   0.617  10.420   5.743 -0.8501  0.2524  0.4348
  427MOL0     C57540   0.494  10.371   5.669 -0.3014 -0.2325  0.1509
  427MOL0     O57541   0.387  10.357   5.750 -0.2385  0.0586 -0.2034
  427MOL0     C57542   0.259  10.331   5.713  0.4381  0.1589  0.1727
  427MOL0     C57543   0.159  10.412   5.769  0.5180  0.2664  0.6819
  427MOL0     C57544   0.024  10.393   5.724 -0.5663  0.7279 -0.5098
  427MOL0     C57545  -0.006  10.306   5.625 -1.4691  0.0567 -0.5481
  427MOL0     O57546  -0.140  10.292   5.592  0.5391 -0.3583  0.2298
  427MOL0     C57547  -0.180  10.205   5.488  0.3823  0.3983 -0.2947
  427MOL0     C57548  -0.331  10.194   5.481 -0.7751  0.4509  0.0246
  427MOL0     C57549  -0.395  10.116   5.594  0.4280  0.1089 -0.2428
  427MOL0     C57550  -0.543  10.168   5.625  0.6074  0.3372  0.0960
  427MOL0     C57551  -0.621  10.074   5.704 -1.2554  0.0033 -0.3855
  427MOL0     C57552  -0.772  10.112   5.698 -0.0810 -0.3648 -0.6800
  427MOL0     C57553  -0.848  10.039   5.807 -0.2264  0.2259  1.0507
  427MOL0     C57554  -0.856   9.891   5.778 -0.2735  0.1767  0.1049
  427MOL0    Cl57555  -0.950   9.851   5.626 -0.3203  0.4814  0.0039
  427MOL0     C57556   0.087  10.223   5.571  0.1857  0.1086  0.4617
  427MOL0     C57557   0.219  10.227   5.617 -0.5147 -1.2096 -0.0232
  427MOL0     O57558   0.502  10.356   5.548 -0.0201 -0.4373 -0.0281
  427MOL0     C57559   0.605  10.465   5.877  0.0653  0.5160  0.4497
  427MOL0     C57560   0.716  10.518   5.956  0.5534  0.4918  0.5036
  427MOL0     N57561   0.936  10.851   6.604 -0.3298  0.1505 -0.1665
  427MOL0     N57562   0.952  10.798   6.719 -0.0133  0.2754  0.4374
  427MOL0     C57563   1.909  10.948   6.538  0.4580 -0.5738 -0.2061
  427MOL0     C57564   1.957  11.013   6.426  0.4310  0.7870  0.6166
  427MOL0     C57565   2.094  11.033   5.974  0.3239 -0.8504  0.1123
  427MOL0     C57566   2.134  11.162   6.002 -0.0021 -0.0801 -0.3797
  427MOL0     C57567   2.180  11.247   5.912  0.5897  0.3413  0.0322
  427MOL0     C57568   2.196  11.205   5.775  0.2397 -0.5332  0.4818
  427MOL0     O57569   2.266  11.286   5.682  0.4778  0.3649  0.9382
  427MOL0     C57570   2.289  11.429   5.718 -0.0333  0.1800 -0.0129
  427MOL0     C57571   2.311  11.510   5.589  0.6836 -0.9623 -0.9251
  427MOL0     C57572   2.442  11.475   5.511 -0.0802 -1.0576  0.2420
  427MOL0     C57573   2.554  11.567   5.559 -0.4342 -0.4970  0.2499
  427MOL0     C57574   2.674  11.511   5.503 -0.4638  0.2224 -0.2205
  427MOL0     C57575   2.780  11.464   5.472  0.7258 -0.1854  0.2058
  427MOL0     C57576   2.156  11.077   5.739  0.0041  0.7585  0.0018
  427MOL0     C57577   2.101  10.987   5.835 -0.3664 -0.2877 -0.0796
  427MOL0     H57578   2.070  10.743   6.265  0.7645 -2.3776  2.2180
  427MOL0     H57579   1.974  10.632   6.458  0.4102  0.0636 -0.5230
  427MOL0     H57580   1.866  10.861   6.800 -0.2956  0.8161  0.1065
  427MOL0     H57581   1.721  10.883   6.725  0.9567 -0.0182 -1.2591
  427MOL0     H57582   1.787  10.626   6.886  0.2439 -0.1368  0.4520
  427MOL0     H57583   1.686  10.762   6.938  0.6550 -2.4153  0.9908
  427MOL0     H57584   1.527  10.703   6.749 -0.2173 -0.4680  1.1892
  427MOL0     H57585   1.640  10.592   6.679  1.3238 -0.0161 -0.5256
  427MOL0     H57586   1.542  10.433   6.793  0.6784 -0.4313 -1.1699
  427MOL0     H57587   1.626  10.488   6.937 -0.0798  0.7916 -0.7550
  427MOL0     H57588   1.400  10.476   7.004  1.3507 -1.1578 -0.8426
  427MOL0     H57589   1.407  10.648   6.975 -2.4698  1.0609 -3.1951
  427MOL0     H57590   1.304  10.619   6.739  0.2635 -1.2399 -0.9780
  427MOL0     H57591   1.284  10.452   6.777 -1.6648  0.4263 -0.2798
  427MOL0     H57592   1.156  10.502   6.987  1.1923  0.4779 -0.2169
  427MOL0     H57593   1.180  10.679   6.951 -0.7284 -0.0597  0.9884
  427MOL0     H57594   0.967  10.608   6.911  0.1624  2.9167 -1.4230
  427MOL0     H57595   1.002  10.489   6.788 -1.9177  1.6211 -1.5939
  427MOL0     H57596   1.104  10.567   6.551 -3.0133 -2.7806  1.6375
  427MOL0     H57597   0.898  10.758   6.332  0.5404 -0.0802 -0.7490
  427MOL0     H57598   1.025  10.878   6.340 -3.8332  1.3350 -0.5819
  427MOL0     H57599   1.077  10.573   6.340 -0.6506 -0.0623  0.0873
  427MOL0     H57600   1.192  10.703   6.321 -0.1575  0.8642 -0.9290
  427MOL0     H57601   1.159  10.600   6.112 -0.2431  0.3783  0.3335
  427MOL0     H57602   1.100  10.776   6.102 -2.8857  1.5784  2.0382
  427MOL0     H57603   0.876  10.722   6.090  1.3084  1.2618  0.5093
  427MOL0     H57604   0.895  10.560   6.155  0.7412 -1.2051 -1.6407
  427MOL0     H57605   0.964  10.477   5.738  1.0806 -0.4044  2.3115
  427MOL0     H57606   0.791  10.250   5.582 -1.6129 -0.1936 -1.2102
  427MOL0     H57607   0.753  10.390   5.484  2.9688 -1.3178 -1.6490
  427MOL0     H57608   0.918  10.370   5.548  0.4793  1.7004 -0.0974
  427MOL0     H57609   0.189  10.481   5.847  2.2331  0.8353 -0.4146
  427MOL0     H57610  -0.055  10.457   5.764 -1.7549 -1.0003  0.0345
  427MOL0     H57611  -0.129  10.235   5.397  1.6079  1.5983  0.7448
  427MOL0     H57612  -0.148  10.102   5.508 -0.5411  0.1373 -0.0855
  427MOL0     H57613  -0.375  10.294   5.481  0.7613  1.1571 -0.9239
  427MOL0     H57614  -0.352  10.146   5.385 -0.5666  0.1268  0.1375
  427MOL0     H57615  -0.352  10.132   5.694  0.8520 -2.4794  0.0399
  427MOL0     H57616  -0.394  10.009   5.575  4.2246 -0.2741  1.1396
  427MOL0     H57617  -0.540  10.269   5.666  2.3881  1.0324 -1.5988
  427MOL0     H57618  -0.592  10.172   5.527  2.0910 -1.4926 -0.7862
  427MOL0     H57619  -0.578  10.073   5.805 -2.5738  1.4590  0.2230
  427MOL0     H57620  -0.610   9.973   5.662 -1.2429 -0.0881 -0.1666
  427MOL0     H57621  -0.770  10.220   5.716  0.5743 -0.0623 -2.3604
  427MOL0     H57622  -0.815  10.100   5.599 -0.3723  1.2286 -0.7808
  427MOL0     H57623  -0.941  10.093   5.824 -0.3255  0.5335 -0.3614
  427MOL0     H57624  -0.786  10.050   5.896  2.2653 -1.9173 -0.2830
  427MOL0     H57625  -0.919   9.838   5.849 -2.6036 -2.1885 -3.3694
  427MOL0     H57626  -0.759   9.840   5.767  0.1958  1.0264  0.2488
  427MOL0     H57627   0.060  10.146   5.498 -1.6402  0.7050  0.4606
  427MOL0     H57628   0.296  10.158   5.585 -0.7033 -0.9928 -0.9722
  427MOL0     H57629   0.505  10.457   5.917 -1.4132 -0.8838 -3.1342
  427MOL0     H57630   0.691  10.550   6.057 -2.4898  4.5277 -1.2701
  427MOL0     H57631   1.880  11.021   6.613  0.3987 -0.4374 -0.3618
  427MOL0     H57632   1.951  11.121   6.415 -1.7978  0.7573  0.9982
  427MOL0     H57633   2.140  11.211   6.099  1.4670  6.0615 -3.0606
  427MOL0     H57634   2.200  11.348   5.943 -1.9279  1.4425 -1.5885
  427MOL0     H57635   2.207  11.478   5.771 -0.9082 -1.4287  0.1539
  427MOL0     H57636   2.377  11.421   5.783 -1.1265  0.1524  1.4948
  427MOL0     H57637   2.311  11.618   5.605 -1.4536 -1.2493  1.7515
  427MOL0     H57638   2.226  11.490   5.522  0.5252 -1.2090 -0.6534
  427MOL0     H57639   2.417  11.487   5.405 -0.1251  0.0417  0.3632
  427MOL0     H57640   2.468  11.370   5.525  0.0134 -1.5189 -2.8058
  427MOL0     H57641   2.546  11.560   5.668 -3.1210  0.2021  0.1425
  427MOL0     H57642   2.538  11.672   5.534  1.8405 -0.6064 -2.1619
  427MOL0     H57643   2.882  11.432   5.456  0.1572 -2.0792  0.0536
  427MOL0     H57644   2.167  11.048   5.635  4.8345  1.0979  0.1930
  427MOL0     H57645   2.078  10.884   5.808 -0.0020 -0.1881 -0.8029
  428MOL0     O57646   3.350   7.450   5.257  0.2191  0.3902 -0.4340
  428MOL0     C57647   3.428   7.540   5.290  0.1811 -0.4968  0.6980
  428MOL0     O57648   3.396   7.635   5.383 -0.0045 -0.1080 -0.4334
  428MOL0     C57649   3.264   7.651   5.410 -0.4484  0.0404 -0.4587
  428MOL0     C57650   3.215   7.575   5.513  0.1403 -0.4263  0.0853
  428MOL0     C57651   3.085   7.584   5.555  0.1221  0.2603 -0.8951
  428MOL0     C57652   2.996   7.673   5.497  0.1698  0.7724  0.8451
  428MOL0     O57653   2.869   7.700   5.542 -0.2209  0.1286 -0.1816
  428MOL0     C57654   2.771   7.685   5.445 -0.5493 -0.2961  0.3422
  428MOL0     C57655   2.644   7.679   5.528  0.1206  0.4958  1.0830
  428MOL0     C57656   2.523   7.680   5.435 -0.0224  0.2301 -0.0222
  428MOL0     C57657   2.385   7.688   5.505  0.0713  0.1368  0.6216
  428MOL0     C57658   2.271   7.699   5.408  0.7541 -0.3951  0.0891
  428MOL0     C57659   2.139   7.644   5.474  0.0131  0.1609  0.1508
  428MOL0     C57660   2.090   7.722   5.600 -0.7360  0.0764  0.1495
  428MOL0     C57661   2.094   7.875   5.577 -0.5470 -0.5888  0.7654
  428MOL0     N57662   1.982   7.931   5.503  0.6647 -0.1001 -0.6557
  428MOL0     C57663   1.887   8.014   5.561  0.0544  0.2472 -0.3879
  428MOL0     C57664   1.813   8.063   5.458  0.0461  0.0259  0.5116
  428MOL0     C57665   1.694   8.160   5.466  0.8404 -0.6433 -0.3516
  428MOL0     C57666   1.569   8.090   5.401 -0.0023 -0.8126  0.1354
  428MOL0     C57667   1.502   8.000   5.505 -0.3384  0.0875  0.6292
  428MOL0     C57668   1.379   7.934   5.457  0.3063  1.0952 -0.3902
  428MOL0     O57669   1.420   7.835   5.362  0.4085 -0.0977  0.0206
  428MOL0     C57670   1.324   7.775   5.284 -0.3774 -0.7665  0.2232
  428MOL0     C57671   1.363   7.696   5.182 -0.5179  0.4537  0.7245
  428MOL0     C57672   1.278   7.629   5.102 -0.6989  0.2108 -0.1597
  428MOL0     C57673   1.344   7.537   4.992 -0.3490  0.1433  0.0393
  428MOL0     C57674   1.137   7.648   5.113 -0.8297 -0.3277 -0.2911
  428MOL0     C57675   1.022   7.576   5.042 -0.2819  0.1448  0.5981
  428MOL0     O57676   0.908   7.560   5.110  0.2085  0.3078  0.6838
  428MOL0     C57677   0.802   7.503   5.049  0.9951 -0.5004 -0.2443
  428MOL0     C57678   0.744   7.382   5.106  0.3262 -0.0714  0.7705
  428MOL0     C57679   0.622   7.337   5.038 -0.2678  0.4392  0.6076
  428MOL0     C57680   0.568   7.392   4.927 -0.1802 -0.7221  0.2406
  428MOL0     O57681   0.468   7.317   4.877 -0.3046 -0.1652 -0.2748
  428MOL0     C57682   0.411   7.353   4.754 -0.4020 -1.1738 -0.1328
  428MOL0     C57683   0.267   7.301   4.759 -0.4071  0.1097  0.9619
  428MOL0     C57684   0.210   7.305   4.619 -0.2183 -0.4715  0.4953
  428MOL0     C57685   0.072   7.243   4.619  0.3221 -0.6005  0.5545
  428MOL0     C57686  -0.027   7.347   4.678  0.6577  0.9867  0.9127
  428MOL0     C57687  -0.102   7.433   4.576  0.8889  0.0423  0.6622
  428MOL0     C57688  -0.211   7.517   4.653  0.0326 -0.0078  0.2999
  428MOL0     C57689  -0.303   7.593   4.552  0.0054  0.3500 -0.5246
  428MOL0    Cl57690  -0.440   7.668   4.644  0.1693  0.1482  0.2087
  428MOL0     C57691   0.632   7.506   4.874 -0.8838 -0.7765 -0.8618
  428MOL0     C57692   0.744   7.569   4.939  0.5826  0.7810  0.2712
  428MOL0     O57693   1.041   7.555   4.921  0.0205 -0.3965  0.6042
  428MOL0     C57694   1.100   7.732   5.211 -0.3110  0.7791 -0.1740
  428MOL0     C57695   1.186   7.803   5.295 -0.2868 -0.1106  0.1721
  428MOL0     N57696   1.878   8.021   5.341 -0.5884 -0.3867 -0.5610
  428MOL0     N57697   1.981   7.950   5.367  0.0954 -0.4048  0.0748
  428MOL0     C57698   3.043   7.756   5.394 -0.1178 -0.5003  0.3027
  428MOL0     C57699   3.181   7.747   5.350 -0.1976  0.4853  0.9715
  428MOL0     C57700   3.567   7.525   5.235 -0.1396 -0.8263 -1.0618
  428MOL0     C57701   3.598   7.424   5.148  0.0776 -0.0133  0.0058
  428MOL0     C57702   3.727   7.392   5.105  0.6116  0.1768 -0.4644
  428MOL0     C57703   3.828   7.485   5.133 -0.2516  1.0668  0.0427
  428MOL0     O57704   3.952   7.458   5.078 -0.0438 -0.2776  0.1062
  428MOL0     C57705   4.074   7.522   5.138 -0.2621  0.1323  0.1857
  428MOL0     C57706   4.188   7.452   5.077  0.3851  0.6207 -0.6962
  428MOL0     C57707   4.313   7.524   5.126  0.1290  0.6662 -0.4236
  428MOL0     C57708   4.427   7.456   5.052 -0.5650 -0.1130 -0.5052
  428MOL0     C57709   4.553   7.526   5.090  0.3597  0.2948 -0.6350
  428MOL0     C57710   4.640   7.611   5.123  0.2777  0.7823 -0.7016
  428MOL0     C57711   3.798   7.594   5.215 -0.1937  0.3120 -0.6666
  428MOL0     C57712   3.671   7.611   5.277  0.3369 -0.2345  0.5005
  428MOL0     H57713   3.288   7.509   5.558  0.0468  1.4219  3.2293
  428MOL0     H57714   3.071   7.527   5.647  3.0126  0.3657 -0.3002
  428MOL0     H57715   2.763   7.782   5.396 -1.1652 -1.5779 -2.2685
  428MOL0     H57716   2.783   7.603   5.373  2.8313 -0.8861  1.3638
  428MOL0     H57717   2.641   7.593   5.595 -1.0573 -1.5904 -1.4494
  428MOL0     H57718   2.638   7.775   5.579 -0.4223  0.6220  0.7846
  428MOL0     H57719   2.527   7.762   5.363 -2.6686 -0.1293 -0.6963
  428MOL0     H57720   2.531   7.583   5.383  1.4100  0.8952 -1.1166
  428MOL0     H57721   2.380   7.591   5.555  4.4259  0.8654  2.9259
  428MOL0     H57722   2.386   7.764   5.584  4.3136 -2.1703  3.1614
  428MOL0     H57723   2.262   7.799   5.365  0.6203  0.2835  1.6160
  428MOL0     H57724   2.302   7.631   5.328 -1.9364  0.2723 -1.6438
  428MOL0     H57725   2.060   7.644   5.397  1.5613 -0.0243 -1.5077
  428MOL0     H57726   2.153   7.536   5.489  1.5879  0.0609 -1.5564
  428MOL0     H57727   1.988   7.695   5.628 -0.7894  2.0371  2.1042
  428MOL0     H57728   2.160   7.689   5.677 -0.3684 -2.1501 -1.0605
  428MOL0     H57729   2.178   7.913   5.517 -2.4725 -0.7905 -2.2846
  428MOL0     H57730   2.105   7.924   5.674  1.0207  1.7161 -0.4665
  428MOL0     H57731   1.869   8.025   5.668  0.5833 -0.3401 -0.2273
  428MOL0     H57732   1.674   8.185   5.570 -0.9355  2.2474 -1.2743
  428MOL0     H57733   1.715   8.251   5.408  0.9499 -0.2975  0.2272
  428MOL0     H57734   1.595   8.024   5.318  0.2514  0.0369 -0.4779
  428MOL0     H57735   1.502   8.171   5.370  1.9018  1.3969  1.3867
  428MOL0     H57736   1.471   8.058   5.592  0.7104  0.8573  0.5042
  428MOL0     H57737   1.568   7.920   5.540 -3.0881 -2.5465  0.2520
  428MOL0     H57738   1.314   8.014   5.421  2.2138  3.6517  1.4197
  428MOL0     H57739   1.331   7.883   5.542  1.1379  1.8431  0.5624
  428MOL0     H57740   1.469   7.672   5.183 -0.4400  0.3063 -2.2163
  428MOL0     H57741   1.321   7.433   5.017  0.2204 -1.0465 -3.7998
  428MOL0     H57742   1.305   7.555   4.891 -1.5475 -1.3055  0.2109
  428MOL0     H57743   1.453   7.543   4.998 -0.4776  2.3729  3.5499
  428MOL0     H57744   0.766   7.331   5.200  0.5608 -0.7634  0.3526
  428MOL0     H57745   0.587   7.238   5.068 -0.1505 -0.5666 -2.2986
  428MOL0     H57746   0.413   7.460   4.727 -0.8929 -1.5896 -2.0241
  428MOL0     H57747   0.468   7.311   4.671  0.2966 -1.5367  0.5273
  428MOL0     H57748   0.247   7.201   4.797 -3.4777  0.6435  0.9551
  428MOL0     H57749   0.221   7.378   4.822  0.9575  2.5475 -0.8257
  428MOL0     H57750   0.270   7.234   4.560 -0.7286 -2.8880  2.7233
  428MOL0     H57751   0.216   7.398   4.560  0.5956 -0.2235  0.9539
  428MOL0     H57752   0.037   7.215   4.519 -0.4045  1.9183  0.0308
  428MOL0     H57753   0.069   7.162   4.692  2.5019  2.1291  3.9700
  428MOL0     H57754   0.030   7.420   4.736  2.7364 -0.1926  0.4221
  428MOL0     H57755  -0.101   7.291   4.735  0.5273  0.2806  0.0663
  428MOL0     H57756  -0.025   7.501   4.537  0.8333 -0.2730 -0.0145
  428MOL0     H57757  -0.140   7.364   4.500  0.6757 -1.8414  2.3990
  428MOL0     H57758  -0.162   7.594   4.714 -0.7986  0.2572  0.6518
  428MOL0     H57759  -0.264   7.448   4.719 -0.8856 -0.6618 -1.0879
  428MOL0     H57760  -0.325   7.506   4.489  3.0817 -0.3155 -0.8426
  428MOL0     H57761  -0.237   7.665   4.504  2.1117 -0.3488  1.1630
  428MOL0     H57762   0.615   7.560   4.780  2.2165  3.8494  0.8703
  428MOL0     H57763   0.793   7.651   4.886  1.5508 -0.2695 -0.5315
  428MOL0     H57764   0.995   7.748   5.236  0.0430  0.4095  1.6865
  428MOL0     H57765   1.139   7.866   5.370  2.1850  0.3375  1.4488
  428MOL0     H57766   2.986   7.837   5.349 -0.0093 -0.6495 -0.1150
  428MOL0     H57767   3.221   7.816   5.275  2.2204  0.7449  2.3972
  428MOL0     H57768   3.520   7.355   5.115 -0.0170 -0.8148  1.7661
  428MOL0     H57769   3.742   7.305   5.041  1.1075 -0.1584  0.0899
  428MOL0     H57770   4.079   7.628   5.114  0.4478  0.1387  0.3369
  428MOL0     H57771   4.085   7.508   5.246  1.6632 -1.5527 -0.1612
  428MOL0     H57772   4.174   7.461   4.969 -1.9083 -0.1774 -0.5299
  428MOL0     H57773   4.199   7.346   5.099  0.0950  0.7184 -0.0386
  428MOL0     H57774   4.337   7.514   5.232  0.4664  0.1399 -0.5439
  428MOL0     H57775   4.315   7.632   5.108  1.0070  0.9072  0.9558
  428MOL0     H57776   4.411   7.474   4.945  0.8972  1.6843 -0.4816
  428MOL0     H57777   4.429   7.347   5.065  0.1142  0.1414  2.0103
  428MOL0     H57778   4.707   7.693   5.111 -0.7690  1.5903 -1.2217
  428MOL0     H57779   3.881   7.661   5.233  0.8793 -1.1246 -0.0403
  428MOL0     H57780   3.659   7.685   5.355 -1.3540 -0.6886  0.7093
  429MOL0     O57781   4.303   5.128   5.434 -0.8313  0.5397  0.0373
  429MOL0     C57782   4.331   5.171   5.548 -0.3800  0.8827 -0.4087
  429MOL0     O57783   4.240   5.203   5.639  0.0481 -0.8236 -0.2738
  429MOL0     C57784   4.102   5.205   5.623 -0.4549 -0.4545 -0.4797
  429MOL0     C57785   4.026   5.134   5.523 -0.9905 -0.2207 -0.4468
  429MOL0     C57786   3.890   5.145   5.518  0.1517 -0.2882 -0.0413
  429MOL0     C57787   3.820   5.232   5.601 -0.5574 -0.3305 -0.9384
  429MOL0     O57788   3.683   5.235   5.588 -0.3659  0.1473  0.5372
  429MOL0     C57789   3.621   5.348   5.650 -0.3850  0.5621  0.2274
  429MOL0     C57790   3.475   5.340   5.605 -0.2140 -0.5560 -0.0232
  429MOL0     C57791   3.389   5.439   5.689  0.2245 -0.5092  0.5336
  429MOL0     C57792   3.235   5.437   5.649 -0.0337 -0.5278 -0.3563
  429MOL0     C57793   3.148   5.538   5.723 -0.8444  0.1004  0.7524
  429MOL0     C57794   3.003   5.506   5.700  0.1011  0.4868  0.1726
  429MOL0     C57795   2.938   5.633   5.741 -0.0272  0.1702 -0.4827
  429MOL0     C57796   2.924   5.645   5.890 -0.1056  0.4390  0.2584
  429MOL0     N57797   2.838   5.550   5.946  0.9177 -0.0380 -1.0170
  429MOL0     C57798   2.698   5.550   5.944  0.1104  0.0413 -0.3535
  429MOL0     C57799   2.661   5.462   6.042  0.8715  0.3282  0.2461
  429MOL0     C57800   2.513   5.439   6.085  0.2245  0.0507  0.0666
  429MOL0     C57801   2.479   5.299   6.147  0.8706  0.7969  0.3173
  429MOL0     C57802   2.327   5.271   6.140  0.0751  0.3342  0.0144
  429MOL0     C57803   2.308   5.124   6.155 -0.3678 -0.3149  0.0421
  429MOL0     O57804   2.180   5.078   6.205 -0.1318 -0.1085 -0.7215
  429MOL0     C57805   2.062   5.089   6.137  0.7627 -0.2686  0.1428
  429MOL0     C57806   2.047   5.147   6.008  1.1123 -0.1623 -0.4850
  429MOL0     C57807   1.916   5.188   5.969 -0.2657 -0.1996 -0.1690
  429MOL0     C57808   1.897   5.243   5.831 -0.0802 -0.1475 -0.8300
  429MOL0     C57809   1.805   5.174   6.055  0.5082  0.8846 -0.4473
  429MOL0     C57810   1.661   5.228   6.024 -0.1743 -0.0412 -0.0856
  429MOL0     O57811   1.561   5.146   6.077 -0.9553 -0.1181 -0.6724
  429MOL0     C57812   1.430   5.157   6.045  0.4758 -0.5711  0.0546
  429MOL0     C57813   1.380   5.182   5.914  0.1527 -0.0911 -0.3192
  429MOL0     C57814   1.247   5.182   5.889 -0.5017  0.8386 -0.0475
  429MOL0     C57815   1.159   5.173   5.997  0.5145  0.3430 -0.0460
  429MOL0     O57816   1.027   5.182   5.964 -0.0324 -0.8504 -0.2092
  429MOL0     C57817   0.991   5.312   6.011 -0.0095  0.7374  0.2246
  429MOL0     C57818   0.846   5.334   6.011 -0.1402  0.2201 -1.4520
  429MOL0     C57819   0.772   5.285   6.139  0.1837  0.3665 -0.1917
  429MOL0     C57820   0.625   5.323   6.130 -0.1415 -0.1635  0.1552
  429MOL0     C57821   0.546   5.239   6.231  0.5752  0.9549  0.6293
  429MOL0     C57822   0.412   5.303   6.246  0.3567 -0.2592 -0.9519
  429MOL0     C57823   0.333   5.236   6.358 -0.8331  0.0474  0.2559
  429MOL0     C57824   0.244   5.326   6.445 -0.1158  0.2581  0.2988
  429MOL0    Cl57825   0.136   5.207   6.522 -0.1724 -0.2840  0.0105
  429MOL0     C57826   1.206   5.159   6.131  0.1440 -0.2813 -0.0825
  429MOL0     C57827   1.344   5.152   6.152 -0.2066 -0.1184  0.5499
  429MOL0     O57828   1.648   5.330   5.948  0.1844  0.1202 -0.5074
  429MOL0     C57829   1.821   5.098   6.177 -0.7698 -0.2367  0.6613
  429MOL0     C57830   1.944   5.050   6.211 -0.1467  0.4715  0.4795
  429MOL0     N57831   2.772   5.404   6.093  0.0948 -0.1386 -0.2516
  429MOL0     N57832   2.877   5.456   6.039  0.6436 -0.2230 -0.1958
  429MOL0     C57833   3.891   5.305   5.700  0.6486 -0.6312 -1.1642
  429MOL0     C57834   4.030   5.283   5.715  0.2974 -0.0503 -0.5981
  429MOL0     C57835   4.472   5.183   5.583 -0.1619  0.5969 -1.0809
  429MOL0     C57836   4.580   5.151   5.495  0.2572  0.8151 -0.6564
  429MOL0     C57837   4.711   5.142   5.539  0.6399  0.3567  0.0414
  429MOL0     C57838   4.753   5.177   5.664  0.0870 -0.0967 -0.0621
  429MOL0     O57839   4.891   5.172   5.687  0.7791 -0.7128  0.0063
  429MOL0     C57840   4.953   5.239   5.798 -0.0434  0.0627 -0.6049
  429MOL0     C57841   5.062   5.325   5.747 -0.7007 -0.5121  0.3132
  429MOL0     C57842   5.187   5.351   5.832  0.2428 -0.3036 -0.5002
  429MOL0     C57843   5.297   5.447   5.773 -0.4261 -0.0481  0.7114
  429MOL0     C57844   5.368   5.382   5.659 -0.3206 -0.7778  0.0168
  429MOL0     C57845   5.407   5.303   5.580  0.3109 -0.0843  0.4109
  429MOL0     C57846   4.649   5.216   5.756  0.3622 -0.7088 -0.3377
  429MOL0     C57847   4.512   5.217   5.717  1.4399 -0.4058  0.2300
  429MOL0     H57848   4.071   5.065   5.452 -1.2986 -0.0364 -0.8289
  429MOL0     H57849   3.829   5.085   5.451  0.2462 -0.2891 -0.1275
  429MOL0     H57850   3.616   5.346   5.760  2.9601  1.9922  0.5304
  429MOL0     H57851   3.673   5.438   5.617  2.1398 -1.9039 -3.2792
  429MOL0     H57852   3.475   5.365   5.499  0.9089  0.0710  0.1014
  429MOL0     H57853   3.441   5.237   5.612  0.0160 -0.9411 -3.1904
  429MOL0     H57854   3.399   5.422   5.796  1.6639 -0.8110  0.3670
  429MOL0     H57855   3.437   5.535   5.666  0.3924 -1.1945 -2.4802
  429MOL0     H57856   3.221   5.456   5.543  1.0702  0.9093 -0.2703
  429MOL0     H57857   3.194   5.337   5.669  3.7184 -2.2524 -0.3274
  429MOL0     H57858   3.176   5.520   5.828 -0.7724  0.0464  0.7244
  429MOL0     H57859   3.185   5.633   5.684 -2.1380 -0.2128 -1.4166
  429MOL0     H57860   2.991   5.487   5.593  2.5608 -0.4353 -0.0269
  429MOL0     H57861   2.982   5.420   5.764  0.2953  0.1946 -0.1530
  429MOL0     H57862   2.992   5.713   5.688  2.5538 -2.2699 -1.8426
  429MOL0     H57863   2.839   5.636   5.694 -0.7407 -1.2080  0.8750
  429MOL0     H57864   2.875   5.739   5.917 -1.7690 -0.3809  0.2602
  429MOL0     H57865   3.024   5.652   5.933 -0.7637  2.3332  1.6470
  429MOL0     H57866   2.635   5.620   5.890 -0.0090 -0.7825 -1.3242
  429MOL0     H57867   2.481   5.517   6.155 -0.4033  0.0747 -0.2405
  429MOL0     H57868   2.452   5.442   5.995 -0.1067 -0.3010  0.2774
  429MOL0     H57869   2.516   5.312   6.249 -1.2032  0.9590  1.1042
  429MOL0     H57870   2.531   5.219   6.094  1.1413 -1.0637  3.1828
  429MOL0     H57871   2.285   5.312   6.048  1.8396  3.3341  0.3914
  429MOL0     H57872   2.263   5.321   6.214 -3.5541  0.4469 -2.9268
  429MOL0     H57873   2.380   5.084   6.227 -1.3448 -1.0583  0.6278
  429MOL0     H57874   2.321   5.084   6.054  1.0664  3.9150 -1.7017
  429MOL0     H57875   2.129   5.180   5.945  1.3740  2.2102  0.9492
  429MOL0     H57876   1.848   5.341   5.835 -1.3864 -0.8175  0.0598
  429MOL0     H57877   1.996   5.251   5.785  0.1223 -1.2910 -0.6131
  429MOL0     H57878   1.836   5.180   5.766 -1.8481  0.7496 -0.1177
  429MOL0     H57879   1.460   5.182   5.840  1.0416  1.6674  0.5791
  429MOL0     H57880   1.204   5.204   5.792 -2.4515 -0.6457  0.4313
  429MOL0     H57881   1.021   5.324   6.115 -1.7032 -0.1073  0.8556
  429MOL0     H57882   1.042   5.396   5.963  2.6856 -0.2092  1.2675
  429MOL0     H57883   0.835   5.442   6.002 -1.2557  0.1635 -0.9749
  429MOL0     H57884   0.793   5.303   5.920 -0.5178  1.0788 -1.5364
  429MOL0     H57885   0.818   5.339   6.222  0.3027  1.3193 -0.8627
  429MOL0     H57886   0.782   5.176   6.140 -2.2756  0.0741 -0.4768
  429MOL0     H57887   0.615   5.431   6.142  4.1126  0.5862 -1.2944
  429MOL0     H57888   0.578   5.312   6.032 -0.6025  0.7418  0.2669
  429MOL0     H57889   0.595   5.235   6.329 -0.9710 -0.8351  1.3906
  429MOL0     H57890   0.544   5.134   6.199  2.1912  1.1319 -0.1778
  429MOL0     H57891   0.425   5.408   6.275  0.9981 -0.6185  0.0936
  429MOL0     H57892   0.350   5.301   6.156 -1.7672 -0.1868  0.4521
  429MOL0     H57893   0.395   5.177   6.426 -0.2244 -1.7725 -1.7955
  429MOL0     H57894   0.278   5.155   6.309  0.6529 -2.4424  2.4010
  429MOL0     H57895   0.184   5.393   6.383 -0.6884  1.3161  1.9440
  429MOL0     H57896   0.301   5.385   6.517  2.0151 -0.5766 -0.6059
  429MOL0     H57897   1.137   5.149   6.215  1.5686 -0.9876  1.0460
  429MOL0     H57898   1.400   5.136   6.244  1.4337  1.0241 -0.1868
  429MOL0     H57899   1.743   5.066   6.245  0.5535 -0.4584  2.1193
  429MOL0     H57900   1.959   5.001   6.307 -3.2203  1.4038  1.5569
  429MOL0     H57901   3.858   5.370   5.780  1.1121 -0.6324 -0.9696
  429MOL0     H57902   4.090   5.336   5.788  1.8305 -1.8056 -0.4915
  429MOL0     H57903   4.562   5.128   5.390  0.5633 -3.3238  0.0373
  429MOL0     H57904   4.786   5.111   5.467 -0.4688 -0.0731 -0.9586
  429MOL0     H57905   4.886   5.303   5.856  0.9379  1.0868 -0.5492
  429MOL0     H57906   4.982   5.155   5.863 -0.5528 -0.1398 -0.6343
  429MOL0     H57907   5.013   5.419   5.721  0.0222 -0.0549  0.5846
  429MOL0     H57908   5.106   5.289   5.654  0.7318  0.1438  0.7091
  429MOL0     H57909   5.229   5.257   5.868  2.0930 -0.3097 -2.4468
  429MOL0     H57910   5.146   5.403   5.919  0.9122  1.2006 -1.0462
  429MOL0     H57911   5.378   5.460   5.845 -0.3631 -1.1035  0.8537
  429MOL0     H57912   5.266   5.550   5.754  1.9897  0.5744 -0.2331
  429MOL0     H57913   5.425   5.232   5.502 -0.2947 -0.2880  0.4534
  429MOL0     H57914   4.682   5.271   5.843  1.6870  1.4576 -2.0844
  429MOL0     H57915   4.440   5.242   5.795  0.0038 -1.4677 -0.6870
  430MOL0     O57916   5.252   1.002  10.553  0.3067  0.1411 -0.5099
  430MOL0     C57917   5.321   1.100  10.551 -0.3939 -0.5437 -0.3522
  430MOL0     O57918   5.277   1.223  10.488  0.6431 -0.0010 -0.5320
  430MOL0     C57919   5.146   1.232  10.441 -0.6147  0.2041  0.3830
  430MOL0     C57920   5.049   1.297  10.510 -0.2513 -0.3608 -0.0730
  430MOL0     C57921   4.918   1.312  10.454  0.6561  0.5314 -0.1405
  430MOL0     C57922   4.894   1.243  10.328  0.3093  0.9341  0.4482
  430MOL0     O57923   4.768   1.244  10.281  0.8825 -0.3858 -0.1142
  430MOL0     C57924   4.698   1.122  10.305  0.1722 -0.3154 -0.7650
  430MOL0     C57925   4.594   1.086  10.201 -0.6261  0.3145 -0.0140
  430MOL0     C57926   4.495   1.191  10.145 -0.2940 -0.0008  0.2080
  430MOL0     C57927   4.442   1.260  10.266  0.3282  0.2513 -0.1394
  430MOL0     C57928   4.364   1.394  10.224 -0.2029  0.0672 -0.7076
  430MOL0     C57929   4.241   1.369  10.140  0.5031 -0.4791  0.2113
  430MOL0     C57930   4.168   1.498  10.090 -1.1204  0.1527 -0.5059
  430MOL0     C57931   4.025   1.489  10.024 -0.4274 -0.0816 -0.1016
  430MOL0     N57932   3.924   1.436  10.117  0.2524  1.1145 -0.3055
  430MOL0     C57933   3.912   1.484  10.248  0.3674  0.4076  1.5581
  430MOL0     C57934   3.845   1.386  10.319  0.5087  0.3602 -0.1551
  430MOL0     C57935   3.823   1.403  10.468 -0.7223 -0.2130  0.1791
  430MOL0     C57936   3.681   1.356  10.488  0.8862 -0.2411  0.3740
  430MOL0     C57937   3.656   1.356  10.641  0.7434  0.8348  0.0853
  430MOL0     C57938   3.503   1.333  10.670 -0.2899 -0.9352  0.1121
  430MOL0     O57939   3.445   1.234  10.583  0.2261 -0.5426 -0.0270
  430MOL0     C57940   3.312   1.238  10.565 -0.6475  0.0559  0.3859
  430MOL0     C57941   3.252   1.195  10.451 -0.4269 -0.0767  0.5361
  430MOL0     C57942   3.114   1.192  10.437 -0.7771  0.3602  1.5040
  430MOL0     C57943   3.062   1.122  10.312  0.3043 -0.4003 -0.1737
  430MOL0     C57944   3.034   1.246  10.528 -0.4781 -0.1481 -0.6964
  430MOL0     C57945   2.889   1.261  10.514 -0.0268 -0.5915 -0.0080
  430MOL0     O57946   2.810   1.182  10.580 -0.0693 -0.3822  0.1720
  430MOL0     C57947   2.682   1.162  10.534 -0.8799 -0.7111 -0.6701
  430MOL0     C57948   2.659   1.142  10.400 -0.2016 -0.4579 -0.5441
  430MOL0     C57949   2.530   1.112  10.359 -0.0259 -0.5198 -0.7501
  430MOL0     C57950   2.426   1.080  10.451 -1.2567 -0.1039  0.3036
  430MOL0     O57951   2.299   1.048  10.409  0.8383  0.2212 -0.7250
  430MOL0     C57952   2.272   1.035  10.265  0.1479  0.1246  0.6342
  430MOL0     C57953   2.129   0.981  10.236 -0.2577 -0.0519 -0.2134
  430MOL0     C57954   2.022   1.069  10.309  0.1103 -0.2918 -0.5802
  430MOL0     C57955   1.884   1.015  10.292  0.5855  0.9371 -0.3875
  430MOL0     C57956   1.773   1.092  10.381  0.0988  0.0388  0.3082
  430MOL0     C57957   1.632   1.060  10.353 -0.1328 -0.4922  0.5763
  430MOL0     C57958   1.532   1.167  10.403  0.2161 -0.0573  0.3237
  430MOL0     C57959   1.543   1.199  10.551 -0.6800  0.3580  0.8640
  430MOL0    Cl57960   1.412   1.303  10.604  0.0915  0.0541  0.2008
  430MOL0     C57961   2.458   1.087  10.591 -0.3806  0.2138  0.4668
  430MOL0     C57962   2.583   1.130  10.628  0.8395  0.6976  0.2372
  430MOL0     O57963   2.852   1.364  10.463 -0.4439 -0.0433 -0.6723
  430MOL0     C57964   3.093   1.287  10.650  0.4417  0.0115  0.6648
  430MOL0     C57965   3.225   1.286  10.667 -1.3979  0.4779 -0.2180
  430MOL0     N57966   3.822   1.278  10.236  0.4232  0.3340  0.3327
  430MOL0     N57967   3.865   1.312  10.119 -0.0594  0.3183 -0.4103
  430MOL0     C57968   4.994   1.169  10.266 -0.4578  0.4328  0.3243
  430MOL0     C57969   5.123   1.167  10.316  0.1064 -0.7678 -0.8068
  430MOL0     C57970   5.457   1.101  10.608 -0.5204  0.5101 -0.4378
  430MOL0     C57971   5.524   0.985  10.641 -0.7947  0.1301 -0.0745
  430MOL0     C57972   5.651   0.982  10.707  0.2844 -0.6395  0.0303
  430MOL0     C57973   5.723   1.098  10.731 -0.1715 -1.2576  0.2344
  430MOL0     O57974   5.843   1.091  10.794 -0.0698 -0.0010 -0.1533
  430MOL0     C57975   5.935   1.203  10.777  0.6787  0.1002 -0.2021
  430MOL0     C57976   6.077   1.181  10.849  0.1948  0.6061 -0.6817
  430MOL0     C57977   6.174   1.097  10.756  0.0511  0.4866  0.0554
  430MOL0     C57978   6.325   1.116  10.778  0.6764  0.8048 -0.6610
  430MOL0     C57979   6.363   1.086  10.916  0.4542 -0.9480 -0.4882
  430MOL0     C57980   6.391   1.080  11.035  0.1694 -0.0119  0.0241
  430MOL0     C57981   5.660   1.217  10.674 -0.3845  0.3380 -0.0073
  430MOL0     C57982   5.533   1.218  10.620 -0.4023  1.1340 -0.4794
  430MOL0     H57983   5.074   1.341  10.605  0.4068 -1.7545  0.4300
  430MOL0     H57984   4.830   1.356  10.501 -1.6837  0.7471 -4.2418
  430MOL0     H57985   4.761   1.033  10.311 -0.9109 -1.0591 -0.1350
  430MOL0     H57986   4.645   1.145  10.398  0.4890 -1.6969 -0.2260
  430MOL0     H57987   4.655   1.044  10.120 -1.1730  1.3934 -1.0219
  430MOL0     H57988   4.529   1.011  10.246 -1.9618  0.4537 -1.5825
  430MOL0     H57989   4.547   1.262  10.080 -1.7333  0.6035 -0.3127
  430MOL0     H57990   4.411   1.144  10.095 -0.8839 -0.0150  1.1799
  430MOL0     H57991   4.379   1.194  10.326  0.7167  1.7348  2.0091
  430MOL0     H57992   4.525   1.294  10.328  0.4667  2.8780 -1.5880
  430MOL0     H57993   4.340   1.444  10.319  0.7120  1.0793 -0.9840
  430MOL0     H57994   4.433   1.451  10.162  1.1521 -1.1534 -0.3794
  430MOL0     H57995   4.267   1.307  10.053 -1.6390 -1.4421  0.1980
  430MOL0     H57996   4.177   1.307  10.203  0.2111 -1.4431 -0.9932
  430MOL0     H57997   4.164   1.565  10.176  0.5103  0.0434 -0.3258
  430MOL0     H57998   4.238   1.542  10.019 -0.7937 -0.4518 -0.5613
  430MOL0     H57999   4.017   1.437   9.928 -0.7743  2.6224 -1.6327
  430MOL0     H58000   4.009   1.595  10.002  2.4650  0.6231  0.7651
  430MOL0     H58001   3.941   1.585  10.275 -4.7094  2.9899 -1.2138
  430MOL0     H58002   3.902   1.341  10.512 -0.4218  1.0338  1.4678
  430MOL0     H58003   3.844   1.499  10.516  3.9286 -1.5420  1.3705
  430MOL0     H58004   3.655   1.261  10.441 -1.5814  1.0877 -1.1536
  430MOL0     H58005   3.618   1.435  10.446  1.6449 -0.1152 -0.5476
  430MOL0     H58006   3.700   1.445  10.686 -0.7768  1.2935  0.7244
  430MOL0     H58007   3.699   1.264  10.681  1.6353  2.0645  2.1113
  430MOL0     H58008   3.451   1.428  10.658  0.9622 -0.5504 -3.9235
  430MOL0     H58009   3.504   1.302  10.775  0.7728  0.6636  0.6160
  430MOL0     H58010   3.316   1.155  10.373 -0.3196  1.3773 -0.1487
  430MOL0     H58011   2.979   1.171  10.261  0.2724  1.3694  1.4593
  430MOL0     H58012   3.132   1.117  10.228 -1.0682  2.1882 -1.6051
  430MOL0     H58013   3.029   1.022  10.343  1.3264 -0.2234  1.6188
  430MOL0     H58014   2.735   1.175  10.330 -1.6763  3.4180 -0.5600
  430MOL0     H58015   2.512   1.104  10.252 -0.0658  0.0741 -0.7910
  430MOL0     H58016   2.293   1.133  10.220 -0.2798 -1.1835 -2.6932
  430MOL0     H58017   2.342   0.964  10.220  4.0032  2.5238  2.2710
  430MOL0     H58018   2.112   0.987  10.128 -0.5524  0.8684 -0.1227
  430MOL0     H58019   2.114   0.877  10.268  1.4008 -0.7923 -1.6523
  430MOL0     H58020   2.034   1.175  10.286  0.3756 -0.4542 -1.2101
  430MOL0     H58021   2.038   1.061  10.417 -1.4262  0.3245 -0.2787
  430MOL0     H58022   1.861   1.017  10.185  3.0687  0.3301 -0.9869
  430MOL0     H58023   1.871   0.912  10.325 -0.8772  0.5797 -1.9289
  430MOL0     H58024   1.782   1.199  10.363 -0.9572 -0.2332 -2.2868
  430MOL0     H58025   1.788   1.081  10.488  1.7115  0.9207  0.2003
  430MOL0     H58026   1.629   1.041  10.246  2.1946 -1.1126  0.5692
  430MOL0     H58027   1.600   0.963  10.394  0.5467 -0.0368  2.2945
  430MOL0     H58028   1.431   1.129  10.383  0.7982 -0.8302 -1.2498
  430MOL0     H58029   1.550   1.266  10.359  0.8990 -0.7609 -1.0193
  430MOL0     H58030   1.642   1.238  10.573  0.0351  1.2511 -3.1163
  430MOL0     H58031   1.521   1.101  10.595 -1.3606  0.2420  0.3005
  430MOL0     H58032   2.392   1.067  10.675  1.9789 -0.0424  2.3650
  430MOL0     H58033   2.606   1.147  10.733 -0.4251  3.9904  0.1016
  430MOL0     H58034   3.034   1.310  10.738 -0.7250 -1.1831  0.2292
  430MOL0     H58035   3.265   1.314  10.764 -1.2529 -0.1260 -0.1015
  430MOL0     H58036   4.977   1.107  10.179  4.7589 -3.1448  1.3943
  430MOL0     H58037   5.198   1.113  10.258 -0.0618 -1.7970 -0.0831
  430MOL0     H58038   5.471   0.891  10.627 -1.3488  0.3845  0.2517
  430MOL0     H58039   5.698   0.889  10.735 -0.8194 -0.9395  0.9869
  430MOL0     H58040   5.953   1.223  10.671  0.8109 -1.6284 -0.5390
  430MOL0     H58041   5.882   1.287  10.821  0.3226 -1.0005  1.5589
  430MOL0     H58042   6.049   1.134  10.944 -3.3352  1.6759 -1.0438
  430MOL0     H58043   6.131   1.273  10.874  1.3431  0.2818 -1.8734
  430MOL0     H58044   6.143   1.120  10.654 -1.2266  0.3335  0.3869
  430MOL0     H58045   6.160   0.989  10.767 -0.0580  0.7169  2.9940
  430MOL0     H58046   6.358   1.217  10.754  2.0316  0.6841  0.5710
  430MOL0     H58047   6.376   1.044  10.714  0.1239 -1.1481  0.9783
  430MOL0     H58048   6.405   1.084  11.141 -1.7935  3.9276  0.3217
  430MOL0     H58049   5.703   1.316  10.674 -0.4019  0.3516  0.5029
  430MOL0     H58050   5.494   1.317  10.595 -0.0794  0.4406 -4.3841
  431MOL0     O58051   0.049   1.451  10.232 -0.2492 -0.3251  0.4561
  431MOL0     C58052   0.144   1.526  10.274 -0.7531  0.6890  0.0044
  431MOL0     O58053   0.129   1.657  10.302 -0.2110 -0.1258 -0.2096
  431MOL0     C58054   0.018   1.722  10.264 -0.0163  0.2883  0.0250
  431MOL0     C58055  -0.059   1.791  10.359 -1.1384 -0.0004  0.1298
  431MOL0     C58056  -0.148   1.890  10.327  0.9744 -0.7111 -0.0682
  431MOL0     C58057  -0.167   1.926  10.194  0.5183  0.0448 -0.5529
  431MOL0     O58058  -0.234   2.032  10.144  0.2123  0.1782  0.1488
  431MOL0     C58059  -0.351   2.068  10.216 -0.5471 -0.3941  0.9627
  431MOL0     C58060  -0.420   2.182  10.135 -0.5364  0.1349  0.7919
  431MOL0     C58061  -0.554   2.225  10.185  0.2700 -0.4843  0.1139
  431MOL0     C58062  -0.653   2.110  10.212 -0.0524  0.7538  0.6732
  431MOL0     C58063  -0.798   2.145  10.171 -0.6984 -0.1251 -0.3523
  431MOL0     C58064  -0.844   2.245  10.279  0.4578 -0.1941  0.2785
  431MOL0     C58065  -0.989   2.311  10.253  0.3026  0.2112  0.6772
  431MOL0     C58066  -1.105   2.207  10.239  0.3716  1.4466  0.2465
  431MOL0     N58067  -1.244   2.255  10.245  0.3016  0.2102 -0.4713
  431MOL0     C58068  -1.288   2.327  10.357  0.6176  0.4000 -0.5534
  431MOL0     C58069  -1.427   2.346  10.326  0.2362 -0.0820  0.1761
  431MOL0     C58070  -1.528   2.403  10.424 -0.8194  0.3191  0.3913
  431MOL0     C58071  -1.662   2.450  10.352  0.2375 -0.0286 -0.0653
  431MOL0     C58072  -1.766   2.480  10.466 -0.5336  0.6313  0.5219
  431MOL0     C58073  -1.902   2.488  10.407 -0.2252 -0.1942 -0.3552
  431MOL0     O58074  -2.001   2.519  10.506 -0.6387  0.1703  0.5255
  431MOL0     C58075  -2.091   2.430  10.551 -0.4055 -0.6132  0.2227
  431MOL0     C58076  -2.102   2.294  10.506 -0.4457 -0.0605 -0.7242
  431MOL0     C58077  -2.187   2.212  10.585 -0.7465  0.1201  0.8627
  431MOL0     C58078  -2.191   2.069  10.555  0.2831  0.1604  0.1070
  431MOL0     C58079  -2.283   2.266  10.680  0.7377 -0.2579 -0.7694
  431MOL0     C58080  -2.386   2.197  10.768  0.6014  0.2061  0.3048
  431MOL0     O58081  -2.418   2.259  10.877 -0.4524 -0.8412  0.0120
  431MOL0     C58082  -2.499   2.200  10.969 -0.1351 -0.4159 -0.7263
  431MOL0     C58083  -2.445   2.093  11.045 -0.9572  0.3881 -0.4771
  431MOL0     C58084  -2.496   2.049  11.167 -0.4379 -0.2917 -0.0720
  431MOL0     C58085  -2.618   2.101  11.206 -0.2349  0.3545 -0.1673
  431MOL0     O58086  -2.677   2.063  11.321  0.0253  0.4447  0.0429
  431MOL0     C58087  -2.613   2.105  11.443 -0.7811  0.2493  0.3768
  431MOL0     C58088  -2.726   2.117  11.545 -0.9098  1.3872 -0.5727
  431MOL0     C58089  -2.792   2.248  11.550 -0.3415 -0.7501 -0.2890
  431MOL0     C58090  -2.919   2.246  11.637  0.4295 -0.0896  0.7290
  431MOL0     C58091  -3.008   2.355  11.579  0.7340  0.5315 -1.1468
  431MOL0     C58092  -3.130   2.376  11.673 -0.4784 -0.8736 -0.1743
  431MOL0     C58093  -3.221   2.478  11.626 -0.7469 -0.3152 -0.0111
  431MOL0     C58094  -3.343   2.482  11.718 -0.7143 -0.4735  0.6009
  431MOL0    Cl58095  -3.470   2.586  11.648 -0.8139  0.3060  0.4283
  431MOL0     C58096  -2.678   2.206  11.134  0.4626  0.4232  0.2309
  431MOL0     C58097  -2.625   2.252  11.009  0.2624 -0.6557  0.0095
  431MOL0     O58098  -2.429   2.085  10.728  0.3075  0.5625 -0.5128
  431MOL0     C58099  -2.277   2.404  10.708 -0.1897 -0.4917  0.2957
  431MOL0     C58100  -2.185   2.484  10.638 -0.6915  0.5194  0.6583
  431MOL0     N58101  -1.442   2.302  10.193  0.2594  0.4810  0.5624
  431MOL0     N58102  -1.335   2.249  10.142  0.5801  0.5624  0.3714
  431MOL0     C58103  -0.090   1.860  10.095  0.0860  0.6397 -0.4096
  431MOL0     C58104  -0.007   1.754  10.128  0.0136  0.3260 -0.0568
  431MOL0     C58105   0.285   1.477  10.284  0.0743 -1.0512  0.1704
  431MOL0     C58106   0.326   1.355  10.239  0.1642  0.2735 -0.2884
  431MOL0     C58107   0.462   1.312  10.239  0.8696 -0.8438  0.4497
  431MOL0     C58108   0.556   1.396  10.307  0.1250 -1.3070  0.0773
  431MOL0     O58109   0.683   1.368  10.326  0.2062  0.1283  0.1491
  431MOL0     C58110   0.735   1.257  10.250  0.8238  0.2986  1.3691
  431MOL0     C58111   0.885   1.264  10.262  0.1033 -0.6387  0.3209
  431MOL0     C58112   0.928   1.256  10.406  0.2209 -1.0780 -0.3066
  431MOL0     C58113   1.077   1.235  10.443  0.5875  0.0724 -0.0977
  431MOL0     C58114   1.143   1.131  10.366  0.2357  0.5425 -0.7436
  431MOL0     C58115   1.185   1.026  10.323  0.3841  0.4972  0.5732
  431MOL0     C58116   0.515   1.515  10.363 -0.3172  0.1103 -0.0332
  431MOL0     C58117   0.379   1.551  10.352 -0.3797 -0.2151 -0.4649
  431MOL0     H58118  -0.054   1.774  10.466 -2.0362 -2.0338 -0.0983
  431MOL0     H58119  -0.204   1.937  10.408 -1.4698  0.1808 -2.1143
  431MOL0     H58120  -0.417   1.980  10.219 -1.5882  0.3728  1.1904
  431MOL0     H58121  -0.319   2.108  10.313  0.6132 -1.0751  0.8759
  431MOL0     H58122  -0.349   2.266  10.135  0.0396 -0.2911  2.8300
  431MOL0     H58123  -0.432   2.151  10.031  2.1079 -1.6745  0.9283
  431MOL0     H58124  -0.560   2.291  10.272 -0.2711  2.2653 -1.8684
  431MOL0     H58125  -0.599   2.272  10.097 -0.9228 -4.3120 -1.5436
  431MOL0     H58126  -0.630   2.024  10.149 -3.2917 -1.5872  2.3874
  431MOL0     H58127  -0.642   2.071  10.313 -0.1574  0.4805  0.5786
  431MOL0     H58128  -0.800   2.176  10.066 -2.7320  1.1542  0.0100
  431MOL0     H58129  -0.849   2.050  10.184  1.0396 -0.7818  2.5543
  431MOL0     H58130  -0.843   2.200  10.379 -0.4016 -0.4578  0.1805
  431MOL0     H58131  -0.769   2.324  10.276  0.3376 -0.1036 -0.9235
  431MOL0     H58132  -1.009   2.378  10.337 -2.6487  1.6051 -0.9759
  431MOL0     H58133  -0.992   2.378  10.167 -3.3113 -2.2793 -1.4202
  431MOL0     H58134  -1.091   2.119  10.302 -2.3458  1.9784  1.7328
  431MOL0     H58135  -1.087   2.167  10.139 -1.7273  0.5290  0.1855
  431MOL0     H58136  -1.226   2.355  10.441 -0.8314 -3.7538  2.2044
  431MOL0     H58137  -1.545   2.318  10.490  0.4357 -0.2890 -0.0377
  431MOL0     H58138  -1.477   2.486  10.474  0.3011 -0.2284  0.1867
  431MOL0     H58139  -1.698   2.371  10.285  0.6105  0.2128 -0.5565
  431MOL0     H58140  -1.651   2.536  10.286  2.6677 -0.8266 -0.8063
  431MOL0     H58141  -1.741   2.582  10.498  0.7397  0.6483 -0.4476
  431MOL0     H58142  -1.753   2.409  10.548 -1.2412 -1.0485 -0.7712
  431MOL0     H58143  -1.932   2.401  10.349  1.3797 -0.0676 -1.4475
  431MOL0     H58144  -1.883   2.576  10.343  1.6629 -0.7576 -0.6307
  431MOL0     H58145  -2.040   2.253  10.427 -2.3123 -0.7529 -1.9142
  431MOL0     H58146  -2.096   2.033  10.513  1.5242  2.9171  0.2951
  431MOL0     H58147  -2.211   2.025  10.653  0.4527  1.2548  0.6591
  431MOL0     H58148  -2.268   2.041  10.483  0.6517 -0.3583 -0.0952
  431MOL0     H58149  -2.350   2.053  11.010 -1.1295  0.2874 -0.8396
  431MOL0     H58150  -2.448   1.969  11.221  2.5037  0.5673 -1.1972
  431MOL0     H58151  -2.537   2.036  11.480 -0.9156  1.3996  3.0453
  431MOL0     H58152  -2.557   2.196  11.420  1.7237 -1.6120 -1.5323
  431MOL0     H58153  -2.801   2.038  11.534 -0.8033  1.3566 -1.1211
  431MOL0     H58154  -2.681   2.099  11.643 -1.1614 -1.1884 -0.8714
  431MOL0     H58155  -2.822   2.259  11.446  0.2335  0.3550 -0.3525
  431MOL0     H58156  -2.724   2.330  11.578 -2.6031  0.5857  1.6714
  431MOL0     H58157  -2.975   2.153  11.649  0.8130 -0.4289 -0.0572
  431MOL0     H58158  -2.908   2.270  11.743 -3.2079 -1.2186  1.5137
  431MOL0     H58159  -3.042   2.322  11.480  1.2343 -0.8798 -0.8693
  431MOL0     H58160  -2.949   2.447  11.575  1.4128  0.2110  0.5529
  431MOL0     H58161  -3.187   2.282  11.670 -1.9256 -0.0143 -1.7113
  431MOL0     H58162  -3.106   2.396  11.777  0.8333  0.3153 -0.6685
  431MOL0     H58163  -3.256   2.457  11.524  1.7153 -0.9247 -0.8255
  431MOL0     H58164  -3.175   2.576  11.609 -1.0067  0.0074  1.1185
  431MOL0     H58165  -3.329   2.521  11.819  1.7102  3.6885 -1.0806
  431MOL0     H58166  -3.385   2.382  11.734  0.2567 -1.0245 -0.1495
  431MOL0     H58167  -2.765   2.253  11.179  0.6268  0.6606  0.3052
  431MOL0     H58168  -2.680   2.331  10.960  0.6671  0.8590  1.8888
  431MOL0     H58169  -2.337   2.462  10.777 -0.0407  0.4217 -0.3217
  431MOL0     H58170  -2.188   2.591  10.651 -1.5648  0.6879 -0.7556
  431MOL0     H58171  -0.106   1.886   9.991  0.1123  2.1395 -0.0640
  431MOL0     H58172   0.054   1.714  10.048  0.9492  0.6538  0.4730
  431MOL0     H58173   0.254   1.299  10.180  0.3402  0.3929 -0.6228
  431MOL0     H58174   0.494   1.220  10.191  1.4670  0.4466 -1.7860
  431MOL0     H58175   0.704   1.165  10.300  2.2789 -0.1856  1.4129
  431MOL0     H58176   0.703   1.268  10.146  2.7750  0.4229  0.7385
  431MOL0     H58177   0.904   1.369  10.234 -4.5984  0.2231 -0.4628
  431MOL0     H58178   0.930   1.192  10.193 -0.0129  0.4089 -0.9044
  431MOL0     H58179   0.872   1.169  10.443 -1.3789  0.5193  1.2044
  431MOL0     H58180   0.879   1.338  10.459  0.1393 -1.1865 -0.2116
  431MOL0     H58181   1.075   1.199  10.546 -1.0162  3.4941  1.2487
  431MOL0     H58182   1.131   1.329  10.428  1.4620 -0.4930 -0.5637
  431MOL0     H58183   1.220   0.931  10.288 -1.9476 -0.4379  0.6045
  431MOL0     H58184   0.582   1.584  10.414 -0.8882  0.6601 -0.0034
  431MOL0     H58185   0.348   1.643  10.401 -0.9336  0.4283 -1.9465
  432MOL0     O58186   4.514   8.094   1.395  0.2406  0.9561 -0.7355
  432MOL0     C58187   4.535   8.161   1.293 -0.8512  0.6109  0.9841
  432MOL0     O58188   4.443   8.232   1.228  0.6444 -0.2488  0.5201
  432MOL0     C58189   4.306   8.217   1.261  0.5654  0.6290 -0.2646
  432MOL0     C58190   4.227   8.099   1.295 -0.0837 -0.3656 -0.2130
  432MOL0     C58191   4.092   8.116   1.316 -0.7090  0.6778  0.5948
  432MOL0     C58192   4.031   8.240   1.319  0.2149 -0.1099  0.4674
  432MOL0     O58193   3.901   8.266   1.337  0.1888  0.0723 -0.1777
  432MOL0     C58194   3.804   8.160   1.337  0.5011 -0.7345 -0.1438
  432MOL0     C58195   3.668   8.221   1.368 -0.3788  1.6023 -0.7637
  432MOL0     C58196   3.569   8.108   1.341 -0.5428 -0.2031 -0.2671
  432MOL0     C58197   3.428   8.159   1.353 -0.0192  0.1379 -0.8775
  432MOL0     C58198   3.316   8.062   1.351 -0.2257 -0.5695  0.5694
  432MOL0     C58199   3.324   7.967   1.226 -0.3319 -0.2838 -0.2692
  432MOL0     C58200   3.237   7.847   1.236  0.3728  0.6653  0.3530
  432MOL0     C58201   3.204   7.775   1.101 -0.0677  0.1313 -0.5462
  432MOL0     N58202   3.129   7.662   1.126  0.6611  0.2578 -0.6299
  432MOL0     C58203   3.181   7.539   1.148  0.0678  0.0351 -0.0374
  432MOL0     C58204   3.075   7.456   1.159  0.6220 -0.3193  0.1195
  432MOL0     C58205   3.086   7.305   1.189 -0.2807 -0.5939 -0.5169
  432MOL0     C58206   2.989   7.259   1.292 -0.5445 -0.9306  0.1037
  432MOL0     C58207   2.853   7.272   1.254 -0.5055  0.1271  0.8864
  432MOL0     C58208   2.773   7.154   1.283  0.3119 -0.1421  0.5015
  432MOL0     O58209   2.641   7.190   1.242 -0.2514 -0.4722 -0.3387
  432MOL0     C58210   2.553   7.090   1.222 -0.1700 -0.0178  0.1491
  432MOL0     C58211   2.570   6.956   1.261  0.5576 -0.5393  0.2650
  432MOL0     C58212   2.474   6.857   1.232  0.2980 -0.1353 -0.5461
  432MOL0     C58213   2.504   6.714   1.270 -0.8845 -0.7356 -0.0746
  432MOL0     C58214   2.348   6.906   1.172 -0.9147  0.8239  0.0705
  432MOL0     C58215   2.232   6.815   1.149 -1.0308 -0.4471 -0.1989
  432MOL0     O58216   2.111   6.882   1.157 -0.0218 -0.8486 -0.7435
  432MOL0     C58217   1.995   6.805   1.175  0.4817  0.3349 -0.7097
  432MOL0     C58218   1.958   6.750   1.301  0.1356 -0.0116  0.5818
  432MOL0     C58219   1.842   6.672   1.316 -0.7021  0.2920 -0.1364
  432MOL0     C58220   1.760   6.650   1.202  0.0881  0.0212  0.2521
  432MOL0     O58221   1.652   6.565   1.211 -0.4671 -0.7770 -0.5113
  432MOL0     C58222   1.557   6.592   1.320 -0.1189  0.5198  1.0234
  432MOL0     C58223   1.499   6.456   1.355  0.2194  0.2872 -0.3412
  432MOL0     C58224   1.389   6.476   1.466  0.6676  0.1453  0.0364
  432MOL0     C58225   1.255   6.519   1.402  0.2173 -0.6331 -0.1408
  432MOL0     C58226   1.132   6.527   1.493  0.5292 -0.7185 -0.1041
  432MOL0     C58227   1.002   6.544   1.414  0.0800 -0.1287  0.1122
  432MOL0     C58228   0.892   6.551   1.516 -0.0541  0.4746  0.1211
  432MOL0     C58229   0.754   6.584   1.461  0.0058  0.0155  0.3380
  432MOL0    Cl58230   0.631   6.601   1.597 -0.0038  0.2953 -0.1399
  432MOL0     C58231   1.782   6.722   1.087  0.0209 -0.2436 -0.1486
  432MOL0     C58232   1.899   6.789   1.077 -0.2062 -0.1609  1.0999
  432MOL0     O58233   2.240   6.692   1.136 -0.1550 -0.6407  0.4756
  432MOL0     C58234   2.334   7.041   1.139  0.4789 -0.0684  0.2793
  432MOL0     C58235   2.434   7.128   1.173  0.7292  0.4363  0.6714
  432MOL0     N58236   2.964   7.531   1.136  0.1594 -0.1072 -0.0599
  432MOL0     N58237   2.993   7.657   1.126  0.0425  0.2121  0.3908
  432MOL0     C58238   4.105   8.352   1.303 -0.3605 -0.2277 -0.6836
  432MOL0     C58239   4.239   8.341   1.267  0.5263  1.0825 -0.1471
  432MOL0     C58240   4.674   8.159   1.240  0.3583 -0.7478  0.3715
  432MOL0     C58241   4.781   8.111   1.317 -0.4536  0.2412 -0.2777
  432MOL0     C58242   4.914   8.113   1.272  0.0308 -0.2122 -0.2530
  432MOL0     C58243   4.945   8.149   1.148  1.2282 -0.3487  0.1200
  432MOL0     O58244   5.071   8.146   1.087  0.1292  0.3594 -0.0467
  432MOL0     C58245   5.176   8.076   1.160 -0.7489 -0.2966 -0.7558
  432MOL0     C58246   5.279   8.039   1.052 -0.2772 -0.4238  0.1113
  432MOL0     C58247   5.407   7.969   1.104  0.1513  0.2415 -0.8914
  432MOL0     C58248   5.382   7.820   1.140 -0.3742  0.2963  0.4491
  432MOL0     C58249   5.500   7.743   1.134 -0.5476  0.1612 -0.0661
  432MOL0     C58250   5.608   7.687   1.123  0.9270  0.2512 -0.0485
  432MOL0     C58251   4.842   8.196   1.065 -0.8629 -0.4980 -0.5158
  432MOL0     C58252   4.712   8.211   1.113 -0.0116  0.1699 -0.9791
  432MOL0     H58253   4.277   8.005   1.314  0.0262 -0.8600 -2.6697
  432MOL0     H58254   4.042   8.022   1.337 -0.6497  0.3696 -0.5588
  432MOL0     H58255   3.800   8.111   1.239  0.7881  1.8830 -1.5662
  432MOL0     H58256   3.836   8.090   1.414 -2.3734 -1.1328  0.8158
  432MOL0     H58257   3.675   8.247   1.474  0.2563  0.1056 -0.4210
  432MOL0     H58258   3.652   8.307   1.302 -0.9109  0.1926 -2.5460
  432MOL0     H58259   3.589   8.077   1.239 -1.9041  0.5315 -0.7885
  432MOL0     H58260   3.581   8.017   1.400  1.7253 -0.0906 -0.5018
  432MOL0     H58261   3.422   8.214   1.447  1.5806  1.1798 -1.3446
  432MOL0     H58262   3.414   8.223   1.265 -1.6312  0.5963 -0.3238
  432MOL0     H58263   3.328   8.000   1.441  1.8839  1.2463  1.6224
  432MOL0     H58264   3.217   8.108   1.358 -0.4831 -1.1772  1.0904
  432MOL0     H58265   3.294   8.010   1.130  0.8574 -2.2254 -1.5854
  432MOL0     H58266   3.430   7.943   1.209  0.6595  2.8529  0.8602
  432MOL0     H58267   3.282   7.783   1.313  1.5520 -0.3652 -1.1268
  432MOL0     H58268   3.143   7.876   1.283 -1.3979 -2.7352 -0.7029
  432MOL0     H58269   3.297   7.741   1.056  0.0168  0.8800 -0.9577
  432MOL0     H58270   3.164   7.850   1.032 -2.3495  1.3798  1.9250
  432MOL0     H58271   3.286   7.524   1.169 -0.0337 -2.1983 -0.9238
  432MOL0     H58272   3.068   7.234   1.107 -1.0433 -2.3687  1.1173
  432MOL0     H58273   3.190   7.299   1.223 -0.6433 -1.1559  0.5337
  432MOL0     H58274   2.998   7.315   1.386  0.9732  0.7362 -0.9777
  432MOL0     H58275   3.021   7.157   1.318 -1.5534 -1.0436  0.9927
  432MOL0     H58276   2.839   7.307   1.152  0.1154 -2.4394 -0.1514
  432MOL0     H58277   2.810   7.358   1.306 -0.1817  0.7734  0.0903
  432MOL0     H58278   2.766   7.135   1.390  1.2420 -0.7308  0.4747
  432MOL0     H58279   2.801   7.066   1.223  1.3678  0.5092  0.0102
  432MOL0     H58280   2.663   6.915   1.298  0.0673 -1.5165  0.4406
  432MOL0     H58281   2.517   6.656   1.179  0.2606 -0.7451  0.0838
  432MOL0     H58282   2.597   6.699   1.325 -0.4800 -1.6331 -0.9934
  432MOL0     H58283   2.412   6.669   1.309  0.9054 -4.2671  0.4448
  432MOL0     H58284   2.034   6.774   1.376  0.1003  1.5383  0.1495
  432MOL0     H58285   1.816   6.626   1.411 -2.1014  1.2597 -0.0144
  432MOL0     H58286   1.607   6.643   1.403 -0.8297  0.6768  1.3564
  432MOL0     H58287   1.484   6.662   1.279  0.5604 -1.4122 -4.2487
  432MOL0     H58288   1.455   6.405   1.269 -2.9968 -1.4827  2.1078
  432MOL0     H58289   1.585   6.406   1.401  0.7353  2.6401  1.4204
  432MOL0     H58290   1.413   6.560   1.532 -3.2317  0.8681  0.7887
  432MOL0     H58291   1.374   6.380   1.517 -2.5176  1.3485  1.6201
  432MOL0     H58292   1.258   6.613   1.347 -1.5117 -0.7066 -0.4179
  432MOL0     H58293   1.232   6.447   1.324  1.0417 -1.9451  0.7740
  432MOL0     H58294   1.146   6.608   1.565 -1.1277 -0.7129  0.2703
  432MOL0     H58295   1.123   6.433   1.549  1.1717 -1.5489 -1.3380
  432MOL0     H58296   1.008   6.635   1.354 -1.1880  0.7570  1.2828
  432MOL0     H58297   0.999   6.461   1.342  2.5480 -1.0969  1.0084
  432MOL0     H58298   0.910   6.633   1.585  1.6941 -0.3670  0.7215
  432MOL0     H58299   0.887   6.451   1.560 -2.7219  0.3797 -0.2160
  432MOL0     H58300   0.727   6.505   1.390 -3.6594  0.4341  1.0572
  432MOL0     H58301   0.748   6.681   1.412 -1.1249  0.2366  0.8992
  432MOL0     H58302   1.720   6.702   1.001 -0.2434 -1.0022  0.2150
  432MOL0     H58303   1.933   6.823   0.979 -2.7427 -0.1422  0.1602
  432MOL0     H58304   2.249   7.088   1.090  0.3872  1.2092  1.5836
  432MOL0     H58305   2.413   7.228   1.134  0.1300 -0.6612 -2.0924
  432MOL0     H58306   4.059   8.451   1.307  0.1428  0.0130 -0.8130
  432MOL0     H58307   4.283   8.438   1.248 -3.1094  2.5483 -2.0871
  432MOL0     H58308   4.761   8.063   1.412  0.7263  0.5638  0.1397
  432MOL0     H58309   4.986   8.067   1.339  0.1586 -1.0580 -0.9560
  432MOL0     H58310   5.231   8.141   1.229 -0.6101  1.2338 -2.2232
  432MOL0     H58311   5.141   7.980   1.198 -2.7417  1.0584  1.0910
  432MOL0     H58312   5.308   8.139   1.020  0.5367  0.4860  3.2708
  432MOL0     H58313   5.223   7.984   0.976  0.1783 -0.0350 -0.5097
  432MOL0     H58314   5.447   8.003   1.199  0.2782 -3.5214  0.5851
  432MOL0     H58315   5.478   7.978   1.021 -0.2027 -1.8346 -1.4869
  432MOL0     H58316   5.309   7.777   1.071  1.2873 -0.2577 -1.0569
  432MOL0     H58317   5.331   7.827   1.237  1.0637  2.7519  1.0975
  432MOL0     H58318   5.698   7.634   1.098  0.3455 -0.7289 -0.1048
  432MOL0     H58319   4.881   8.230   0.969  1.1407 -2.1472 -0.3725
  432MOL0     H58320   4.633   8.256   1.053 -2.0956 -0.7808  0.9139
  433MOL0     O58321   0.847   8.157   0.540  0.1481 -0.6686 -0.2437
  433MOL0     C58322   0.869   8.224   0.444  0.3728 -0.7950 -0.2037
  433MOL0     O58323   0.785   8.317   0.378 -0.2706  0.0773 -0.2346
  433MOL0     C58324   0.669   8.324   0.439  0.2053  0.0006  0.5755
  433MOL0     C58325   0.555   8.332   0.353 -0.8657  0.5578  0.3958
  433MOL0     C58326   0.428   8.336   0.397 -0.3205 -0.1377 -0.8390
  433MOL0     C58327   0.404   8.350   0.538  0.3334 -0.6547 -0.6151
  433MOL0     O58328   0.274   8.344   0.582  0.2486  0.2046  0.3239
  433MOL0     C58329   0.242   8.351   0.722  1.4286  0.9743  0.3267
  433MOL0     C58330   0.089   8.326   0.745 -0.2879  0.2163  0.0246
  433MOL0     C58331   0.018   8.469   0.727 -0.3551 -0.7256 -0.6459
  433MOL0     C58332  -0.136   8.467   0.740  0.1417 -0.2682  0.2667
  433MOL0     C58333  -0.200   8.613   0.752 -0.4377  0.1679  0.9990
  433MOL0     C58334  -0.354   8.601   0.748  0.7007  0.8494  0.0828
  433MOL0     C58335  -0.434   8.731   0.727  0.4177  0.6737 -0.1550
  433MOL0     C58336  -0.577   8.693   0.695 -0.3605 -0.7146 -0.2710
  433MOL0     N58337  -0.676   8.797   0.723  0.4894  0.2921 -0.5659
  433MOL0     C58338  -0.817   8.776   0.736 -0.7297 -0.3897 -0.6921
  433MOL0     C58339  -0.866   8.895   0.779  0.1094  0.1252  0.4649
  433MOL0     C58340  -1.011   8.938   0.811 -0.2384  0.1013 -0.2714
  433MOL0     C58341  -1.070   9.049   0.718  0.2670  0.7554 -0.0197
  433MOL0     C58342  -1.103   8.990   0.570  0.2044  1.6924 -0.1149
  433MOL0     C58343  -1.172   9.104   0.495 -0.7238 -0.9507  0.2420
  433MOL0     O58344  -1.288   9.159   0.557  0.7463 -0.1387  0.0288
  433MOL0     C58345  -1.415   9.108   0.532  0.2315 -0.4722 -0.8521
  433MOL0     C58346  -1.517   9.205   0.560  0.2342  0.5755  0.3165
  433MOL0     C58347  -1.654   9.170   0.542  1.0709  0.2891 -0.5276
  433MOL0     C58348  -1.752   9.281   0.575  0.1750  0.2371  0.1026
  433MOL0     C58349  -1.687   9.035   0.501  0.5031 -0.0274 -0.8192
  433MOL0     C58350  -1.825   8.986   0.471 -0.0566 -1.4347 -0.9171
  433MOL0     O58351  -1.928   9.057   0.526 -0.2120 -0.1957 -0.6417
  433MOL0     C58352  -2.063   9.019   0.509 -0.5598 -0.1744 -0.4965
  433MOL0     C58353  -2.154   9.126   0.520  0.1151  0.1485 -0.1147
  433MOL0     C58354  -2.287   9.098   0.483 -0.1889  0.2725  0.5062
  433MOL0     C58355  -2.334   8.966   0.463 -0.2509 -0.3727  0.2696
  433MOL0     O58356  -2.470   8.947   0.443 -0.1764  0.5546  0.4869
  433MOL0     C58357  -2.501   8.873   0.321  0.3765  0.3098 -0.8730
  433MOL0     C58358  -2.641   8.875   0.275  0.2465 -0.3112  0.2416
  433MOL0     C58359  -2.732   8.816   0.391 -0.0067  0.3064 -0.1067
  433MOL0     C58360  -2.876   8.836   0.348  0.3556 -0.0788 -0.8852
  433MOL0     C58361  -2.982   8.785   0.449  0.0153  0.5393 -0.5060
  433MOL0     C58362  -3.124   8.772   0.389 -0.3767 -0.2242  0.1195
  433MOL0     C58363  -3.129   8.632   0.330 -0.3242 -1.0483  0.2535
  433MOL0     C58364  -3.272   8.579   0.312  0.0659 -0.3960 -0.7675
  433MOL0    Cl58365  -3.381   8.687   0.213  0.0519  0.1670 -0.2426
  433MOL0     C58366  -2.243   8.862   0.468 -0.0578  0.2696 -1.2511
  433MOL0     C58367  -2.112   8.890   0.502 -0.8585 -0.5659 -0.1669
  433MOL0     O58368  -1.836   8.882   0.410  0.0827 -0.4957  0.2517
  433MOL0     C58369  -1.579   8.945   0.473  1.3961 -0.1781 -0.7363
  433MOL0     C58370  -1.449   8.984   0.484  0.4848  0.4060  0.2944
  433MOL0     N58371  -0.759   8.980   0.787 -0.2447  0.0675 -0.0231
  433MOL0     N58372  -0.650   8.928   0.759  0.5027 -0.9314 -0.9052
  433MOL0     C58373   0.517   8.356   0.624 -0.0918  0.0738 -1.1506
  433MOL0     C58374   0.648   8.345   0.578  0.6495 -0.6023 -0.0793
  433MOL0     C58375   0.992   8.191   0.380 -0.5857  0.1639 -0.2556
  433MOL0     C58376   1.050   8.280   0.284 -0.0268  0.4644 -0.6306
  433MOL0     C58377   1.155   8.241   0.194  0.7340  0.4112 -0.4721
  433MOL0     C58378   1.226   8.126   0.228  0.2146  0.6958 -0.0525
  433MOL0     O58379   1.337   8.084   0.162  0.3171  0.9956 -0.4014
  433MOL0     C58380   1.402   8.171   0.079 -0.1299 -0.4487  0.3821
  433MOL0     C58381   1.355   8.175  -0.071 -0.1315  0.1801  0.0802
  433MOL0     C58382   1.339   8.044  -0.148 -0.5616  0.0331 -0.6056
  433MOL0     C58383   1.253   8.054  -0.282  0.3186  0.2987  0.3743
  433MOL0     C58384   1.327   8.134  -0.382 -0.1865 -0.3067 -1.0373
  433MOL0     C58385   1.386   8.189  -0.468  0.1142 -0.6249  0.7319
  433MOL0     C58386   1.181   8.048   0.333  0.3264 -1.0604 -0.2310
  433MOL0     C58387   1.061   8.069   0.402 -0.0513 -0.3483 -0.8349
  433MOL0     H58388   0.575   8.306   0.250  2.7210  1.7117  0.6492
  433MOL0     H58389   0.341   8.329   0.333  0.6206 -1.9661 -1.9955
  433MOL0     H58390   0.288   8.263   0.767 -0.9055 -0.5768 -0.1485
  433MOL0     H58391   0.283   8.443   0.765 -0.0136  2.1372 -0.6845
  433MOL0     H58392   0.053   8.258   0.668 -0.9975 -0.1429  0.6575
  433MOL0     H58393   0.071   8.284   0.845 -0.9520  1.2157  0.3501
  433MOL0     H58394   0.055   8.552   0.788  0.2231 -1.1838 -0.3664
  433MOL0     H58395   0.029   8.502   0.623 -0.1327 -2.2408 -1.1332
  433MOL0     H58396  -0.177   8.427   0.648 -0.5377  0.9840 -0.0034
  433MOL0     H58397  -0.158   8.415   0.834  0.1693  0.6394  0.7905
  433MOL0     H58398  -0.170   8.667   0.842 -0.2682 -0.0931  1.1017
  433MOL0     H58399  -0.161   8.670   0.667 -0.5355  2.0930  2.2025
  433MOL0     H58400  -0.378   8.536   0.663 -1.5304  0.2015  1.1380
  433MOL0     H58401  -0.395   8.551   0.836  1.0366  2.0845  0.9579
  433MOL0     H58402  -0.416   8.799   0.810 -0.8690 -0.0975  0.7979
  433MOL0     H58403  -0.392   8.781   0.639 -0.4772  0.7258 -0.5708
  433MOL0     H58404  -0.598   8.608   0.761 -2.6018  1.0918  1.4787
  433MOL0     H58405  -0.582   8.648   0.595 -2.2378 -0.5816 -0.2726
  433MOL0     H58406  -0.867   8.686   0.702 -0.8827  0.7008 -3.7245
  433MOL0     H58407  -1.071   8.847   0.802  0.1943 -0.3551  1.2146
  433MOL0     H58408  -1.016   8.977   0.913 -1.0026 -1.0530  0.1613
  433MOL0     H58409  -0.996   9.129   0.706 -0.5496  1.3300 -1.5022
  433MOL0     H58410  -1.157   9.089   0.770 -1.4980 -1.0197 -1.4779
  433MOL0     H58411  -1.169   8.904   0.580  1.8991 -0.1133 -3.0210
  433MOL0     H58412  -1.014   8.953   0.517  0.4314  1.3359  0.5062
  433MOL0     H58413  -1.198   9.070   0.394  2.2615 -1.0615 -0.5708
  433MOL0     H58414  -1.099   9.185   0.487 -1.6024 -0.2902 -1.6821
  433MOL0     H58415  -1.492   9.301   0.604 -1.4647  2.1353 -1.9137
  433MOL0     H58416  -1.810   9.268   0.667 -2.5148  1.6584 -1.2666
  433MOL0     H58417  -1.711   9.380   0.596 -2.2238  0.9486  1.8207
  433MOL0     H58418  -1.817   9.294   0.488  2.0563  0.0567 -1.4069
  433MOL0     H58419  -2.135   9.232   0.536  0.8869  0.5859 -3.3254
  433MOL0     H58420  -2.351   9.185   0.476  0.2126  0.7274  2.0840
  433MOL0     H58421  -2.436   8.898   0.237  1.5814  0.1838  0.0023
  433MOL0     H58422  -2.476   8.768   0.336  3.2532  0.9199 -0.9068
  433MOL0     H58423  -2.666   8.979   0.252  2.9392  0.4909  0.5474
  433MOL0     H58424  -2.653   8.824   0.179 -0.1483 -1.3644  0.8439
  433MOL0     H58425  -2.716   8.867   0.486 -1.9902 -0.2947  0.6049
  433MOL0     H58426  -2.707   8.710   0.399  1.5977  0.7039  0.4651
  433MOL0     H58427  -2.891   8.944   0.339  1.7080  0.0402 -1.9841
  433MOL0     H58428  -2.892   8.790   0.250  1.0025 -0.3373 -0.8713
  433MOL0     H58429  -2.986   8.863   0.526 -2.0045  0.4215 -0.4437
  433MOL0     H58430  -2.950   8.696   0.504 -0.1563  1.5636  1.3410
  433MOL0     H58431  -3.201   8.788   0.465 -0.5465  0.6536 -0.2247
  433MOL0     H58432  -3.131   8.842   0.305  1.4338 -1.6445 -1.3155
  433MOL0     H58433  -3.083   8.562   0.401 -2.8852  0.5592  3.8095
  433MOL0     H58434  -3.074   8.625   0.236 -2.0441  0.7926 -0.9904
  433MOL0     H58435  -3.314   8.561   0.411 -1.0195 -0.2026 -1.1792
  433MOL0     H58436  -3.270   8.485   0.256 -0.1097 -1.3922  0.8543
  433MOL0     H58437  -2.272   8.760   0.444  2.2957 -1.0761  1.1105
  433MOL0     H58438  -2.044   8.807   0.520 -0.0339  0.6041  2.5461
  433MOL0     H58439  -1.600   8.840   0.456  3.0510 -0.6064 -0.2542
  433MOL0     H58440  -1.367   8.917   0.462 -0.2952 -0.9968  1.4469
  433MOL0     H58441   0.510   8.361   0.732 -0.9857 -3.9657 -0.8535
  433MOL0     H58442   0.720   8.339   0.658 -0.1159  2.2621  0.9442
  433MOL0     H58443   1.003   8.377   0.272 -0.7014  0.1846 -0.3155
  433MOL0     H58444   1.185   8.305   0.111  2.5646  0.2478  0.0022
  433MOL0     H58445   1.397   8.268   0.129  1.2071 -0.8437  1.3256
  433MOL0     H58446   1.510   8.152   0.083  0.4430  2.6123  2.5682
  433MOL0     H58447   1.418   8.239  -0.132 -1.2280  0.9955 -0.2311
  433MOL0     H58448   1.261   8.231  -0.070 -0.2594 -0.0359  0.3276
  433MOL0     H58449   1.279   7.987  -0.077 -0.3014  0.6396  0.1154
  433MOL0     H58450   1.432   7.987  -0.155  0.1129  0.3626  3.3813
  433MOL0     H58451   1.153   8.094  -0.262  0.0166  0.8856 -2.0436
  433MOL0     H58452   1.240   7.954  -0.324 -2.1405 -0.6189  2.9326
  433MOL0     H58453   1.447   8.226  -0.548 -2.2795  2.4605  0.1561
  433MOL0     H58454   1.235   7.956   0.351 -0.3544 -2.0085 -2.6455
  433MOL0     H58455   1.040   7.995   0.477  0.6021  0.3249  0.0384
  434MOL0     O58456   0.499   9.302   4.333  0.2713 -0.3242 -0.2166
  434MOL0     C58457   0.574   9.209   4.333 -0.2080  1.0775  0.4712
  434MOL0     O58458   0.539   9.072   4.332  0.5255 -0.4928  0.2295
  434MOL0     C58459   0.408   9.038   4.344 -0.5095 -0.6876  0.5899
  434MOL0     C58460   0.299   9.113   4.298 -0.2211 -0.1870 -0.3618
  434MOL0     C58461   0.169   9.078   4.334  0.0868  1.2790 -0.2902
  434MOL0     C58462   0.159   8.966   4.427 -0.4577 -0.6637  0.0631
  434MOL0     O58463   0.035   8.941   4.476 -0.4310 -0.1981 -0.3306
  434MOL0     C58464   0.015   8.898   4.613  0.3731 -0.6541 -0.3830
  434MOL0     C58465  -0.063   8.764   4.600 -0.5324  0.1274 -0.3412
  434MOL0     C58466  -0.117   8.716   4.732  0.4909  0.3897 -0.2253
  434MOL0     C58467  -0.252   8.794   4.751 -0.1227  0.2301 -1.1992
  434MOL0     C58468  -0.330   8.741   4.876  0.0208 -0.3569 -0.0447
  434MOL0     C58469  -0.396   8.602   4.860 -0.3988 -0.8635  0.6786
  434MOL0     C58470  -0.465   8.560   4.730 -0.0355 -0.5137 -0.9922
  434MOL0     C58471  -0.529   8.421   4.737  0.7666 -0.0633  0.8092
  434MOL0     N58472  -0.597   8.376   4.613 -1.0806  0.0802  0.1400
  434MOL0     C58473  -0.687   8.436   4.527  0.0348 -0.3660  0.3964
  434MOL0     C58474  -0.689   8.355   4.417 -0.9309 -0.5559 -0.3211
  434MOL0     C58475  -0.762   8.381   4.293 -0.2927  0.0347 -0.2452
  434MOL0     C58476  -0.871   8.283   4.282  0.6268  0.4664  0.1125
  434MOL0     C58477  -0.965   8.325   4.175 -0.1793 -0.7126  0.0263
  434MOL0     C58478  -0.913   8.357   4.038  0.3198  0.2302 -0.2840
  434MOL0     O58479  -0.970   8.484   3.991  0.1983 -0.1658 -0.3853
  434MOL0     C58480  -1.092   8.498   3.962 -0.7446  0.2025 -0.2070
  434MOL0     C58481  -1.184   8.384   3.960  0.3054 -0.2713 -0.1094
  434MOL0     C58482  -1.318   8.412   3.928  0.1725  0.3098  0.7776
  434MOL0     C58483  -1.421   8.292   3.941 -0.0645  0.0106  0.0053
  434MOL0     C58484  -1.365   8.547   3.904  0.0187  0.1182  0.2533
  434MOL0     C58485  -1.506   8.591   3.890  0.2424  0.1384  0.0817
  434MOL0     O58486  -1.544   8.719   3.908 -0.6665  0.0947 -0.2197
  434MOL0     C58487  -1.634   8.794   3.833 -0.5328  0.3248 -0.0892
  434MOL0     C58488  -1.682   8.908   3.896 -1.0453  1.2278  0.0759
  434MOL0     C58489  -1.769   9.000   3.836 -0.1206  0.8047  0.0084
  434MOL0     C58490  -1.820   8.966   3.710  0.0055  0.3071  0.3885
  434MOL0     O58491  -1.904   9.051   3.638  0.3944 -0.5987 -0.0240
  434MOL0     C58492  -2.024   9.083   3.707  0.2023  0.8431 -0.0713
  434MOL0     C58493  -2.114   9.180   3.626  1.0803 -0.2380  0.2723
  434MOL0     C58494  -2.045   9.311   3.600 -0.6493  0.0767  0.6309
  434MOL0     C58495  -1.958   9.374   3.711 -0.4624  0.4319  0.4428
  434MOL0     C58496  -2.040   9.407   3.831 -0.6585 -0.0251  0.0364
  434MOL0     C58497  -1.949   9.453   3.950  0.6387 -0.1760  0.7699
  434MOL0     C58498  -2.020   9.466   4.089  0.4738 -0.1538  0.5382
  434MOL0     C58499  -2.134   9.576   4.080 -0.0676  0.6741 -0.7485
  434MOL0    Cl58500  -2.083   9.721   4.008 -0.0350  0.1124  0.3512
  434MOL0     C58501  -1.779   8.848   3.650 -0.1157  0.1321 -0.6187
  434MOL0     C58502  -1.694   8.754   3.716 -0.2035 -0.2860  0.2130
  434MOL0     O58503  -1.587   8.506   3.860 -0.1651 -0.1306  0.1142
  434MOL0     C58504  -1.262   8.655   3.900 -0.1931  0.3973  0.4587
  434MOL0     C58505  -1.127   8.631   3.933 -0.3623 -0.2203 -0.2809
  434MOL0     N58506  -0.598   8.249   4.440 -0.0642  0.0574  0.3633
  434MOL0     N58507  -0.551   8.260   4.555 -0.1369 -1.1055 -0.3753
  434MOL0     C58508   0.262   8.879   4.455 -0.8355  0.3366 -0.2850
  434MOL0     C58509   0.388   8.914   4.409 -0.3621 -1.0452 -0.0972
  434MOL0     C58510   0.723   9.234   4.343  0.9544  0.7070  0.6468
  434MOL0     C58511   0.785   9.362   4.327 -0.2097 -0.7253 -0.3909
  434MOL0     C58512   0.921   9.378   4.349  0.4660  0.0404 -0.9636
  434MOL0     C58513   1.001   9.261   4.377 -0.8040 -0.5509 -0.5529
  434MOL0     O58514   1.132   9.280   4.398  0.4900 -0.0227  0.7475
  434MOL0     C58515   1.198   9.365   4.312  0.6584 -0.0687 -0.1133
  434MOL0     C58516   1.345   9.346   4.297  0.4849  0.0931  0.4448
  434MOL0     C58517   1.383   9.200   4.278 -0.0616  0.8318 -0.3515
  434MOL0     C58518   1.518   9.171   4.214 -0.6979 -0.2564  0.2331
  434MOL0     C58519   1.625   9.249   4.284 -0.6910 -0.4589 -0.4228
  434MOL0     C58520   1.710   9.306   4.351  0.9976 -0.0564  0.5366
  434MOL0     C58521   0.945   9.138   4.388 -0.2375  0.1572 -0.0575
  434MOL0     C58522   0.810   9.119   4.356 -0.1881  0.4823 -0.5462
  434MOL0     H58523   0.315   9.189   4.223 -1.4826 -0.6317 -1.1049
  434MOL0     H58524   0.078   9.135   4.316 -0.9686  0.3803  1.8692
  434MOL0     H58525   0.101   8.889   4.680  0.5237  1.9755 -0.1242
  434MOL0     H58526  -0.053   8.962   4.670  0.4577  0.7802 -1.8342
  434MOL0     H58527  -0.142   8.767   4.524 -1.0317 -1.3657  0.0741
  434MOL0     H58528   0.014   8.696   4.562 -0.7140  0.2798 -1.0041
  434MOL0     H58529  -0.144   8.611   4.726 -2.3789  1.1169 -3.9465
  434MOL0     H58530  -0.051   8.735   4.817 -1.2348  0.0796  1.2512
  434MOL0     H58531  -0.243   8.899   4.781  1.3934 -0.6827  1.9399
  434MOL0     H58532  -0.312   8.787   4.659  0.2138 -0.8135 -1.3525
  434MOL0     H58533  -0.252   8.749   4.952  2.3667 -2.0408 -2.0916
  434MOL0     H58534  -0.409   8.809   4.907  1.9659  2.2904 -0.5029
  434MOL0     H58535  -0.319   8.526   4.874 -0.8237 -1.8638 -1.7798
  434MOL0     H58536  -0.473   8.586   4.936 -0.8052 -1.6760  0.1153
  434MOL0     H58537  -0.542   8.631   4.696 -1.1535 -1.7703 -1.1707
  434MOL0     H58538  -0.391   8.563   4.650  0.7555  2.5876 -0.2674
  434MOL0     H58539  -0.614   8.417   4.806  0.9421 -1.7434  0.9727
  434MOL0     H58540  -0.454   8.346   4.763  2.2035  1.1647  0.3257
  434MOL0     H58541  -0.745   8.526   4.544 -0.8670 -0.5804 -1.2976
  434MOL0     H58542  -0.809   8.480   4.302 -3.3482 -1.1540 -1.6566
  434MOL0     H58543  -0.692   8.367   4.210  2.4501  0.3938  1.8810
  434MOL0     H58544  -0.921   8.272   4.378  1.6378  0.3134  0.6335
  434MOL0     H58545  -0.834   8.184   4.254 -0.9184 -0.0980 -0.0280
  434MOL0     H58546  -1.016   8.416   4.208 -0.1422  0.1835 -2.2423
  434MOL0     H58547  -1.047   8.254   4.166 -0.6584 -0.5864  2.5873
  434MOL0     H58548  -0.942   8.273   3.974 -0.7829  0.8133 -0.5591
  434MOL0     H58549  -0.805   8.371   4.038  0.5273 -1.1741 -0.1435
  434MOL0     H58550  -1.152   8.286   3.994 -1.8309 -0.0185  3.0922
  434MOL0     H58551  -1.469   8.273   3.845  1.7323  2.2208 -1.4687
  434MOL0     H58552  -1.360   8.203   3.957  3.4286  2.4194  1.6779
  434MOL0     H58553  -1.498   8.317   4.015 -0.3537 -0.3512 -0.1724
  434MOL0     H58554  -1.632   8.939   3.988 -2.1208 -1.6795  1.7776
  434MOL0     H58555  -1.786   9.095   3.886 -2.3837  1.7774 -2.3771
  434MOL0     H58556  -2.079   8.990   3.725 -0.0668  0.8624 -0.7659
  434MOL0     H58557  -2.006   9.123   3.807  2.4600 -0.2437  0.0164
  434MOL0     H58558  -2.140   9.127   3.534  0.2007 -1.4267  1.1766
  434MOL0     H58559  -2.207   9.211   3.674  1.2506 -0.5713  0.8332
  434MOL0     H58560  -2.120   9.387   3.576  0.8978  1.3528 -0.3704
  434MOL0     H58561  -1.982   9.294   3.512 -2.5170 -0.8017 -0.6068
  434MOL0     H58562  -1.876   9.312   3.747 -1.4882  0.0353  2.2306
  434MOL0     H58563  -1.912   9.466   3.674 -2.5262  1.4397  0.2088
  434MOL0     H58564  -2.101   9.327   3.874 -2.9747  1.6372  0.0735
  434MOL0     H58565  -2.111   9.486   3.803 -2.5547 -0.2818  3.5397
  434MOL0     H58566  -1.862   9.386   3.952 -0.5421 -1.7575  0.8274
  434MOL0     H58567  -1.912   9.553   3.928 -2.3218  0.6553 -0.9138
  434MOL0     H58568  -1.957   9.505   4.170  1.0365 -2.1889  1.1318
  434MOL0     H58569  -2.060   9.370   4.123 -0.5408  0.6341  1.7078
  434MOL0     H58570  -2.177   9.596   4.179 -0.1066 -0.7964 -0.4516
  434MOL0     H58571  -2.217   9.540   4.018 -0.3515 -0.5013  0.2711
  434MOL0     H58572  -1.807   8.813   3.551  1.3434  1.2335 -1.4618
  434MOL0     H58573  -1.666   8.671   3.653  0.2706 -0.6088  0.8425
  434MOL0     H58574  -1.298   8.758   3.895  1.0071  0.8762  1.3106
  434MOL0     H58575  -1.047   8.704   3.926 -1.1905  0.8598  0.9885
  434MOL0     H58576   0.253   8.790   4.516 -2.1553  1.4619  1.2470
  434MOL0     H58577   0.474   8.851   4.432  0.9487  0.1725 -1.4490
  434MOL0     H58578   0.724   9.451   4.324  1.5313  0.6097  1.4378
  434MOL0     H58579   0.950   9.482   4.347  0.2165  0.1452  0.3203
  434MOL0     H58580   1.145   9.371   4.216  0.9187 -1.6553 -0.3915
  434MOL0     H58581   1.187   9.460   4.365  0.3630 -0.0171 -0.2638
  434MOL0     H58582   1.367   9.391   4.394 -0.3738  2.1243 -0.2462
  434MOL0     H58583   1.375   9.408   4.212 -0.0674  0.0652  0.2311
  434MOL0     H58584   1.300   9.156   4.222 -1.0853  0.7064  1.1928
  434MOL0     H58585   1.385   9.147   4.374 -0.5213  1.4375 -0.0079
  434MOL0     H58586   1.512   9.196   4.108 -0.6823  3.9032  1.0394
  434MOL0     H58587   1.531   9.065   4.237 -3.6056 -0.4848  1.3282
  434MOL0     H58588   1.783   9.357   4.411  0.3058  1.8985 -0.2061
  434MOL0     H58589   1.007   9.060   4.432 -0.0461  2.2212  3.8496
  434MOL0     H58590   0.779   9.016   4.371  0.0763  0.5197  0.3018
  435MOL0     O58591   3.228   7.666   4.568  0.0690 -0.2109 -0.1130
  435MOL0     C58592   3.324   7.669   4.646 -0.7176  0.5748 -0.8806
  435MOL0     O58593   3.316   7.641   4.779  0.7061 -0.1273  0.3173
  435MOL0     C58594   3.191   7.645   4.844  0.6023 -0.6525  0.0266
  435MOL0     C58595   3.184   7.581   4.975 -0.2281 -0.2837  0.1461
  435MOL0     C58596   3.086   7.616   5.066 -0.2211  0.1786 -0.0464
  435MOL0     C58597   2.983   7.700   5.033 -0.5565 -1.3228 -0.1345
  435MOL0     O58598   2.889   7.737   5.126 -0.5687 -0.5651  1.3185
  435MOL0     C58599   2.777   7.818   5.081  0.0128 -0.2797 -0.1366
  435MOL0     C58600   2.661   7.725   5.022 -0.3521  0.0166  0.1817
  435MOL0     C58601   2.533   7.797   4.980  0.0794 -0.7241  0.5294
  435MOL0     C58602   2.431   7.692   4.922  0.4360 -0.7891 -0.2243
  435MOL0     C58603   2.303   7.755   4.856 -0.1582 -0.9523 -0.2515
  435MOL0     C58604   2.211   7.814   4.962  1.7608 -0.1278  0.5966
  435MOL0     C58605   2.072   7.844   4.906 -0.0294 -0.1144  0.1349
  435MOL0     C58606   1.972   7.901   5.009 -0.0881 -0.2941  0.5077
  435MOL0     N58607   1.850   7.951   4.951  0.0912 -0.3248 -0.2570
  435MOL0     C58608   1.730   7.947   5.017  0.5362 -0.9278 -0.1915
  435MOL0     C58609   1.646   8.010   4.936  0.0580 -0.2231  0.2703
  435MOL0     C58610   1.505   8.037   4.978 -0.6200 -0.1543  0.3852
  435MOL0     C58611   1.396   8.011   4.872  0.5756 -0.1066 -0.3615
  435MOL0     C58612   1.403   7.861   4.831  0.2715 -0.8511 -0.4524
  435MOL0     C58613   1.280   7.815   4.760 -0.2143 -0.7598  0.1283
  435MOL0     O58614   1.245   7.893   4.645 -0.2392  0.2309 -0.2830
  435MOL0     C58615   1.110   7.905   4.628 -0.5272 -0.7974  0.0116
  435MOL0     C58616   1.032   7.795   4.589 -0.0485 -0.7674 -0.7812
  435MOL0     C58617   0.895   7.797   4.566 -0.7905  0.3967 -0.5122
  435MOL0     C58618   0.835   7.660   4.538 -0.2280  0.7736  0.6860
  435MOL0     C58619   0.825   7.922   4.583  0.3460  0.2788  0.3325
  435MOL0     C58620   0.680   7.944   4.565  0.5095  0.3227  0.5908
  435MOL0     O58621   0.603   7.838   4.572  0.4837 -0.1197  0.2489
  435MOL0     C58622   0.472   7.846   4.626 -0.5963 -0.6749  0.7686
  435MOL0     C58623   0.395   7.735   4.603 -0.2590  0.1999 -0.1686
  435MOL0     C58624   0.262   7.726   4.643 -0.7026 -0.4068 -0.2687
  435MOL0     C58625   0.211   7.838   4.703  0.0809 -0.3278 -0.0905
  435MOL0     O58626   0.079   7.818   4.736 -0.7568 -0.0640 -0.0721
  435MOL0     C58627  -0.009   7.937   4.733  0.2108  0.4443 -0.5338
  435MOL0     C58628  -0.156   7.895   4.766 -0.6395  0.1169  0.0838
  435MOL0     C58629  -0.243   8.016   4.806 -0.7102 -0.4687 -0.2190
  435MOL0     C58630  -0.383   7.989   4.835  0.5951  0.5178 -0.5101
  435MOL0     C58631  -0.403   7.882   4.946 -0.4756  0.2306 -0.1884
  435MOL0     C58632  -0.555   7.868   4.998  0.2160  0.3579  0.0027
  435MOL0     C58633  -0.575   7.733   5.073  0.4526  0.6663 -0.1567
  435MOL0     C58634  -0.713   7.730   5.119  0.7700 -0.0217  0.2149
  435MOL0    Cl58635  -0.755   7.577   5.188  0.5406 -0.2082 -0.0202
  435MOL0     C58636   0.277   7.957   4.725  0.8297  0.0972  0.2573
  435MOL0     C58637   0.414   7.964   4.688  0.2863 -0.6509 -0.0760
  435MOL0     O58638   0.642   8.058   4.557 -0.0326  0.2319 -1.0130
  435MOL0     C58639   0.914   8.035   4.608 -0.2114 -0.1376 -0.4793
  435MOL0     C58640   1.047   8.027   4.634  0.1324  0.5015  0.6794
  435MOL0     N58641   1.719   8.068   4.836  0.9508  0.2848 -0.0885
  435MOL0     N58642   1.835   8.032   4.838 -0.0304  0.0550 -0.3355
  435MOL0     C58643   2.987   7.757   4.902 -0.0394  0.7264  0.5629
  435MOL0     C58644   3.091   7.731   4.810  1.0617  0.3589  0.1658
  435MOL0     C58645   3.460   7.708   4.587  0.1972 -0.0728  0.1787
  435MOL0     C58646   3.468   7.789   4.474  0.4175  0.3326  0.0344
  435MOL0     C58647   3.597   7.834   4.427 -0.0928  0.0890 -0.2315
  435MOL0     C58648   3.716   7.797   4.494  0.6622  0.0061 -0.0672
  435MOL0     O58649   3.836   7.849   4.447  0.1929  0.1216 -0.2095
  435MOL0     C58650   3.961   7.838   4.515  0.4308  0.0670 -0.4722
  435MOL0     C58651   4.061   7.943   4.464 -0.1473  0.5614 -0.1477
  435MOL0     C58652   4.191   7.954   4.554 -0.0866  0.3518 -0.4236
  435MOL0     C58653   4.269   8.083   4.516 -0.1310 -0.6551 -0.8934
  435MOL0     C58654   4.406   8.100   4.582  0.1067 -0.0059 -0.3899
  435MOL0     C58655   4.513   8.111   4.635  0.6135 -0.4075 -0.5685
  435MOL0     C58656   3.708   7.712   4.606 -0.3672  0.1700  0.2955
  435MOL0     C58657   3.580   7.667   4.651  0.4687 -0.4376  0.4897
  435MOL0     H58658   3.261   7.515   5.014 -1.4277 -1.7263  0.1520
  435MOL0     H58659   3.078   7.572   5.165 -1.9354  0.4098 -0.0514
  435MOL0     H58660   2.744   7.873   5.170 -0.3945 -0.4930 -0.1528
  435MOL0     H58661   2.787   7.907   5.018  0.3321 -0.1483  0.0994
  435MOL0     H58662   2.701   7.679   4.931  1.3661  5.5606 -2.2781
  435MOL0     H58663   2.630   7.653   5.098  0.5451  0.0475  0.5853
  435MOL0     H58664   2.486   7.847   5.066 -0.8060 -2.2948  1.0022
  435MOL0     H58665   2.550   7.871   4.901 -0.6631  0.3084  1.3031
  435MOL0     H58666   2.492   7.654   4.840  3.4516  1.4371  0.7924
  435MOL0     H58667   2.400   7.627   5.004  0.2024  1.3830  1.5204
  435MOL0     H58668   2.322   7.832   4.780 -0.2510 -0.1470  0.5231
  435MOL0     H58669   2.244   7.678   4.807 -0.0562 -1.3515  0.2408
  435MOL0     H58670   2.203   7.749   5.050 -2.3880  0.2033  0.6402
  435MOL0     H58671   2.254   7.906   5.003 -0.7840  0.7558  1.4321
  435MOL0     H58672   2.077   7.916   4.824  0.4493 -1.0513 -0.6764
  435MOL0     H58673   2.022   7.756   4.864 -0.9676  1.4269 -2.2266
  435MOL0     H58674   2.002   7.982   5.077 -1.2170 -0.8086  1.6612
  435MOL0     H58675   1.953   7.828   5.089  4.4433 -1.0148  1.2087
  435MOL0     H58676   1.710   7.901   5.114 -0.9299 -0.3623 -0.2016
  435MOL0     H58677   1.485   7.977   5.068 -0.1592 -0.8490  0.0372
  435MOL0     H58678   1.509   8.144   4.997  0.7113  0.5358 -3.0284
  435MOL0     H58679   1.410   8.069   4.779 -0.7174 -1.3387 -1.3666
  435MOL0     H58680   1.301   8.040   4.918  1.5355  0.8900  1.0867
  435MOL0     H58681   1.427   7.804   4.921 -0.1496  1.5365  1.2846
  435MOL0     H58682   1.484   7.863   4.758  0.4793  2.5795 -0.2982
  435MOL0     H58683   1.209   7.829   4.843  1.1237  0.9276  1.0570
  435MOL0     H58684   1.298   7.712   4.728  1.7695 -0.4624  0.1803
  435MOL0     H58685   1.084   7.700   4.582 -2.3832 -2.2368  0.6084
  435MOL0     H58686   0.918   7.592   4.517 -1.0165 -0.7716  2.2567
  435MOL0     H58687   0.797   7.613   4.629  4.2628 -0.0004  2.3704
  435MOL0     H58688   0.753   7.654   4.465 -0.9925  1.1594  1.4909
  435MOL0     H58689   0.441   7.649   4.556 -2.0146 -1.5306  1.0916
  435MOL0     H58690   0.199   7.640   4.624 -3.5206  1.4252  0.2425
  435MOL0     H58691   0.021   8.008   4.810  0.2397 -1.2828  1.1120
  435MOL0     H58692  -0.011   7.979   4.632 -1.9125 -0.8077 -1.0745
  435MOL0     H58693  -0.204   7.844   4.683 -0.1535 -0.0193 -0.1142
  435MOL0     H58694  -0.158   7.824   4.849 -1.8405  1.3461  1.1599
  435MOL0     H58695  -0.237   8.083   4.720  0.6402  1.0863  1.0272
  435MOL0     H58696  -0.212   8.074   4.893 -2.2290  1.6648 -1.0200
  435MOL0     H58697  -0.427   8.083   4.870 -2.2909 -1.0686  0.4567
  435MOL0     H58698  -0.429   7.964   4.739  2.8624  0.0249 -1.5351
  435MOL0     H58699  -0.341   7.907   5.033 -1.0343 -0.2826  0.3681
  435MOL0     H58700  -0.377   7.785   4.902 -0.2860  0.6120 -0.9392
  435MOL0     H58701  -0.589   7.945   5.069 -0.3023  1.0090 -0.9234
  435MOL0     H58702  -0.625   7.873   4.914 -1.3800  0.4957  1.2941
  435MOL0     H58703  -0.500   7.719   5.151 -2.0002  2.6286  2.7965
  435MOL0     H58704  -0.566   7.653   4.999 -2.5480 -1.4784  1.5637
  435MOL0     H58705  -0.777   7.759   5.035  0.9848 -0.1883 -0.0082
  435MOL0     H58706  -0.734   7.806   5.195  0.2062 -1.0609  1.1299
  435MOL0     H58707   0.229   8.045   4.766 -1.8711 -0.8335 -0.6883
  435MOL0     H58708   0.461   8.061   4.700 -2.9391  0.9402  0.5066
  435MOL0     H58709   0.871   8.135   4.609 -1.5829 -0.6869  1.1783
  435MOL0     H58710   1.106   8.116   4.654 -1.5387  1.7720  0.1061
  435MOL0     H58711   2.895   7.805   4.869 -1.6223 -2.6831 -0.5073
  435MOL0     H58712   3.091   7.789   4.718 -1.2999 -0.7959 -0.6554
  435MOL0     H58713   3.377   7.809   4.417 -1.3730 -3.3102  1.3311
  435MOL0     H58714   3.603   7.899   4.340  1.1616  0.2794 -0.0218
  435MOL0     H58715   3.943   7.860   4.621 -0.5041 -0.3488 -0.5318
  435MOL0     H58716   3.997   7.736   4.501  0.0513 -0.2919  0.9365
  435MOL0     H58717   4.015   8.042   4.472  0.3409  0.8074 -0.3074
  435MOL0     H58718   4.092   7.926   4.360  1.2771 -0.2874  0.3976
  435MOL0     H58719   4.244   7.858   4.552  1.0244  0.9008  1.0746
  435MOL0     H58720   4.152   7.968   4.655  0.4692  2.9021 -0.4832
  435MOL0     H58721   4.216   8.174   4.546  0.5258 -0.9601  1.3694
  435MOL0     H58722   4.277   8.079   4.407  0.5940  1.7777 -0.9959
  435MOL0     H58723   4.608   8.116   4.683  0.8650 -1.0220 -0.9869
  435MOL0     H58724   3.805   7.689   4.649  1.4037  3.4293 -1.5657
  435MOL0     H58725   3.583   7.611   4.745  1.0287 -2.5786 -0.7414
  436MOL0     O58726  10.765   8.555   5.510 -0.6829 -0.1375  0.1647
  436MOL0     C58727  10.670   8.618   5.568 -0.3798  0.1687 -0.9273
  436MOL0     O58728  10.569   8.677   5.504 -0.0929 -0.0368  0.3389
  436MOL0     C58729  10.583   8.696   5.371 -1.5026  0.7420  0.2262
  436MOL0     C58730  10.489   8.659   5.283 -0.6647  0.5535 -1.1338
  436MOL0     C58731  10.503   8.680   5.147  0.6221  0.0939 -0.4034
  436MOL0     C58732  10.612   8.737   5.091 -0.1651  0.3035  0.8731
  436MOL0     O58733  10.628   8.755   4.956 -0.3865  0.0378  0.0337
  436MOL0     C58734  10.515   8.805   4.886  1.1891  0.2708 -0.2456
  436MOL0     C58735  10.552   8.868   4.759 -0.4855  0.2964  0.0976
  436MOL0     C58736  10.641   8.991   4.785 -0.0990  0.4437 -0.4704
  436MOL0     C58737  10.662   9.092   4.672 -0.0259 -0.1467  1.3283
  436MOL0     C58738  10.744   9.209   4.717 -0.3971  0.1483  0.8013
  436MOL0     C58739  10.884   9.214   4.649 -0.1153 -0.5680 -1.0582
  436MOL0     C58740  10.873   9.234   4.497  0.7182 -1.0030 -0.0297
  436MOL0     C58741  10.999   9.176   4.432 -0.0109  1.1709 -0.0367
  436MOL0     N58742  11.107   9.259   4.465 -0.5752  0.8680  0.1695
  436MOL0     C58743  11.186   9.262   4.579 -0.3250 -0.3336  0.1379
  436MOL0     C58744  11.282   9.352   4.545 -1.2616 -0.4600 -0.2004
  436MOL0     C58745  11.392   9.417   4.629 -0.1449  0.5113  0.0293
  436MOL0     C58746  11.348   9.462   4.763  0.1475 -0.6509 -0.3521
  436MOL0     C58747  11.271   9.588   4.747 -1.2650 -0.0822 -0.5595
  436MOL0     C58748  11.193   9.638   4.871  0.2768 -0.5394 -0.0876
  436MOL0     O58749  11.115   9.532   4.930 -0.1649  0.2042 -0.5180
  436MOL0     C58750  10.977   9.537   4.923 -0.0688 -0.2174 -0.0247
  436MOL0     C58751  10.904   9.548   5.037  0.5903  0.0531  0.5470
  436MOL0     C58752  10.768   9.563   5.021  0.1073 -0.2364 -0.0057
  436MOL0     C58753  10.693   9.561   5.159  0.3339  0.0841  0.4005
  436MOL0     C58754  10.703   9.552   4.891  0.7860 -0.1544  0.5221
  436MOL0     C58755  10.558   9.543   4.868  0.9824  0.7953 -0.6340
  436MOL0     O58756  10.519   9.525   4.733 -0.0498  0.3775 -0.2159
  436MOL0     C58757  10.387   9.506   4.693 -0.1415  0.6018 -0.0207
  436MOL0     C58758  10.259   9.527   4.755 -0.6698  0.4549 -0.5733
  436MOL0     C58759  10.137   9.521   4.690  0.6692  0.1188 -0.1663
  436MOL0     C58760  10.133   9.474   4.559  1.1584  0.2636  1.1593
  436MOL0     O58761  10.016   9.472   4.472 -0.1789  0.1134  0.0373
  436MOL0     C58762   9.887   9.510   4.525  0.0075  0.6555 -0.2836
  436MOL0     C58763   9.813   9.386   4.582  1.0742 -0.0740  0.6838
  436MOL0     C58764   9.673   9.419   4.624  0.4616 -0.5469 -0.0304
  436MOL0     C58765   9.573   9.444   4.509 -0.5727 -0.6062  0.3671
  436MOL0     C58766   9.435   9.484   4.558  0.3163 -0.5170  0.3992
  436MOL0     C58767   9.376   9.356   4.620 -0.1772  0.6642 -0.7268
  436MOL0     C58768   9.373   9.354   4.774  0.0920 -0.0813 -0.1169
  436MOL0     C58769   9.326   9.222   4.817 -0.1007  0.6201 -0.0263
  436MOL0    Cl58770   9.304   9.249   4.988 -0.4460 -0.2398  0.0685
  436MOL0     C58771  10.257   9.439   4.500 -0.7719 -0.6823  0.8076
  436MOL0     C58772  10.377   9.454   4.562  0.0951  0.1880  0.2015
  436MOL0     O58773  10.482   9.560   4.965 -0.8149 -0.0617  0.1894
  436MOL0     C58774  10.785   9.538   4.779  0.5678 -0.0901 -0.7741
  436MOL0     C58775  10.930   9.534   4.799  0.3765  0.5124 -0.0486
  436MOL0     N58776  11.261   9.403   4.420 -0.0240  0.1808  0.0971
  436MOL0     N58777  11.157   9.342   4.374  0.3643 -0.0943  1.0192
  436MOL0     C58778  10.707   8.780   5.175  0.1706  0.2156 -0.3060
  436MOL0     C58779  10.698   8.767   5.316  0.8092 -0.3668 -0.0571
  436MOL0     C58780  10.666   8.607   5.722  0.1794 -0.0418 -0.5557
  436MOL0     C58781  10.765   8.546   5.793 -0.1547  0.7685 -0.5663
  436MOL0     C58782  10.751   8.524   5.932  0.6456 -0.0185  0.0856
  436MOL0     C58783  10.651   8.592   6.008  0.1161  0.2206 -0.2649
  436MOL0     O58784  10.657   8.571   6.142 -0.2088 -0.2622  0.8251
  436MOL0     C58785  10.536   8.582   6.210  0.3524 -0.5970 -0.1974
  436MOL0     C58786  10.434   8.475   6.174 -0.5138  1.3785 -0.8917
  436MOL0     C58787  10.472   8.324   6.214  0.8223  0.2601 -0.1571
  436MOL0     C58788  10.475   8.303   6.365 -0.2137  0.6159 -0.3092
  436MOL0     C58789  10.597   8.348   6.428 -0.4314 -0.9488  0.4628
  436MOL0     C58790  10.691   8.380   6.493  0.3719 -0.8981  1.0292
  436MOL0     C58791  10.564   8.678   5.931  0.1973 -0.0067 -0.1692
  436MOL0     C58792  10.570   8.677   5.791  1.0865  0.5065  0.7175
  436MOL0     H58793  10.402   8.615   5.329  0.9951 -2.4106 -0.5718
  436MOL0     H58794  10.428   8.638   5.081 -0.5601 -0.6729  1.3670
  436MOL0     H58795  10.444   8.723   4.873  2.3636 -1.1692  1.7188
  436MOL0     H58796  10.457   8.884   4.933 -0.7675  0.8695 -3.3997
  436MOL0     H58797  10.598   8.791   4.697 -1.8572  0.0516 -0.6523
  436MOL0     H58798  10.461   8.880   4.700  0.3857 -0.7106 -1.5168
  436MOL0     H58799  10.600   9.037   4.876  1.6448 -0.0145  0.5936
  436MOL0     H58800  10.745   8.969   4.809  0.6169  0.5640 -3.1395
  436MOL0     H58801  10.706   9.044   4.584 -0.7467 -0.3718  1.0829
  436MOL0     H58802  10.569   9.129   4.628  1.3103  0.4784 -1.1072
  436MOL0     H58803  10.688   9.300   4.695 -1.7308 -0.6144  0.9076
  436MOL0     H58804  10.743   9.203   4.827 -1.4412  0.2336  0.8118
  436MOL0     H58805  10.942   9.290   4.701 -0.5491 -0.9500  0.0218
  436MOL0     H58806  10.923   9.117   4.680 -0.4566  0.0328  1.4861
  436MOL0     H58807  10.787   9.185   4.451  0.5340 -1.3860  0.7106
  436MOL0     H58808  10.877   9.342   4.484  1.2104 -0.9611  0.4622
  436MOL0     H58809  10.995   9.177   4.323  2.1906  3.1887 -0.1989
  436MOL0     H58810  11.022   9.074   4.463  0.8453  1.9344  2.0113
  436MOL0     H58811  11.181   9.199   4.668  1.5785 -1.7773 -0.6900
  436MOL0     H58812  11.460   9.339   4.665 -1.7629 -0.3352  1.3718
  436MOL0     H58813  11.449   9.491   4.571 -2.6019  0.9812 -1.9592
  436MOL0     H58814  11.436   9.479   4.826 -1.3133  1.8394  1.1723
  436MOL0     H58815  11.290   9.385   4.815 -0.8723  0.4549  0.1782
  436MOL0     H58816  11.200   9.586   4.664 -1.4529  1.6620 -0.4971
  436MOL0     H58817  11.338   9.667   4.710 -2.3965  0.5695 -1.3025
  436MOL0     H58818  11.140   9.727   4.836  2.8846  0.6284 -1.4352
  436MOL0     H58819  11.270   9.657   4.946  0.1660  0.8396 -0.2931
  436MOL0     H58820  10.956   9.545   5.132  4.4799 -0.4086 -1.4244
  436MOL0     H58821  10.748   9.618   5.234  0.9351 -2.1282  1.7235
  436MOL0     H58822  10.592   9.602   5.174  0.4926  0.1050  1.5038
  436MOL0     H58823  10.683   9.458   5.194 -0.5331 -0.2287 -0.7149
  436MOL0     H58824  10.257   9.544   4.862  0.6518  0.3901 -0.5126
  436MOL0     H58825  10.043   9.542   4.740  0.1177 -3.2686  0.4610
  436MOL0     H58826   9.897   9.581   4.608  0.1393 -0.3407  0.5874
  436MOL0     H58827   9.819   9.560   4.456 -1.1491  0.8965  0.9870
  436MOL0     H58828   9.807   9.315   4.499  0.8640 -0.5621  1.1124
  436MOL0     H58829   9.869   9.337   4.662  0.2129  0.7773  1.8361
  436MOL0     H58830   9.662   9.498   4.699 -0.9802  1.9008 -2.6704
  436MOL0     H58831   9.642   9.327   4.676  1.0128 -0.5075  0.3876
  436MOL0     H58832   9.599   9.538   4.459 -3.4750  1.9661  3.2496
  436MOL0     H58833   9.571   9.360   4.439 -2.0837 -0.7220  0.5270
  436MOL0     H58834   9.367   9.520   4.480 -1.6260 -2.7626  0.9590
  436MOL0     H58835   9.429   9.567   4.629  0.8896  0.1259 -0.2853
  436MOL0     H58836   9.276   9.333   4.582  0.8261 -3.4095 -1.3573
  436MOL0     H58837   9.442   9.273   4.592  0.4966  1.8799 -3.0346
  436MOL0     H58838   9.302   9.429   4.811 -0.3552 -0.5295 -0.0613
  436MOL0     H58839   9.473   9.367   4.816  0.6487 -4.1324  0.1998
  436MOL0     H58840   9.406   9.149   4.812  2.5665  3.2106  1.7735
  436MOL0     H58841   9.228   9.191   4.777  0.9633 -1.5566 -1.1191
  436MOL0     H58842  10.259   9.420   4.393  0.3455 -0.5211  0.7906
  436MOL0     H58843  10.462   9.417   4.505  1.3638  1.4756  1.1849
  436MOL0     H58844  10.748   9.526   4.678  0.0245  1.2354 -0.7523
  436MOL0     H58845  10.983   9.523   4.705 -2.1137  0.0855 -1.5104
  436MOL0     H58846  10.793   8.841   5.146 -0.6145  1.7494  0.4696
  436MOL0     H58847  10.770   8.797   5.392 -1.2548 -0.8592  2.2434
  436MOL0     H58848  10.838   8.491   5.735 -1.0623  0.6060 -1.5964
  436MOL0     H58849  10.831   8.466   5.978  1.6659  2.0178  1.0292
  436MOL0     H58850  10.553   8.592   6.318 -1.9070  1.3172  0.0577
  436MOL0     H58851  10.493   8.678   6.181  4.4272  1.0166 -1.7329
  436MOL0     H58852  10.427   8.467   6.065 -0.2985 -0.7299 -0.7869
  436MOL0     H58853  10.336   8.503   6.212 -1.1717 -1.0704 -0.6119
  436MOL0     H58854  10.564   8.291   6.165  1.0957 -1.9038  1.6423
  436MOL0     H58855  10.382   8.271   6.184 -0.2913  0.9989  1.7186
  436MOL0     H58856  10.467   8.194   6.375  0.8836  0.6012  0.5568
  436MOL0     H58857  10.388   8.344   6.416  0.1693 -2.0401  2.8610
  436MOL0     H58858  10.785   8.396   6.543  1.9135 -0.8308 -1.6780
  436MOL0     H58859  10.489   8.741   5.978  1.9670  3.1157 -1.2420
  436MOL0     H58860  10.511   8.756   5.745  0.4142  0.7685  1.9759
  437MOL0     O58861   1.053   3.934   7.418 -0.0452 -0.4218  1.3399
  437MOL0     C58862   1.077   3.880   7.527  0.4523 -0.8426 -0.1256
  437MOL0     O58863   0.988   3.869   7.624  0.2546  0.6544  0.1238
  437MOL0     C58864   0.861   3.927   7.603 -0.3483 -0.6501 -0.6353
  437MOL0     C58865   0.763   3.850   7.557  0.1510  0.2910  0.6714
  437MOL0     C58866   0.635   3.910   7.535 -0.2502 -0.3491 -0.5491
  437MOL0     C58867   0.596   4.037   7.579 -0.3330 -0.0854 -0.5878
  437MOL0     O58868   0.464   4.080   7.577 -0.4682  0.6527 -0.2474
  437MOL0     C58869   0.388   4.049   7.457 -0.0760  0.3519  0.1723
  437MOL0     C58870   0.238   4.052   7.484 -0.8135 -0.1261  0.3413
  437MOL0     C58871   0.151   4.025   7.364 -0.5050  0.2715 -0.9116
  437MOL0     C58872   0.002   4.049   7.396 -0.1740  1.0732  0.2128
  437MOL0     C58873  -0.094   4.009   7.284 -0.5883  0.2881 -0.1796
  437MOL0     C58874  -0.082   3.857   7.253  0.2780 -0.3227  0.0926
  437MOL0     C58875  -0.211   3.823   7.182 -0.7151  0.7406  0.0028
  437MOL0     C58876  -0.223   3.672   7.148  0.3982 -0.1518 -0.4447
  437MOL0     N58877  -0.107   3.625   7.077  0.5061  0.5999 -0.1370
  437MOL0     C58878  -0.013   3.541   7.133  0.4950 -0.3514  0.9510
  437MOL0     C58879   0.049   3.487   7.025 -0.3162 -0.8168 -0.5808
  437MOL0     C58880   0.154   3.376   7.026  0.3541  0.6112  0.3923
  437MOL0     C58881   0.284   3.418   7.082  0.5267  0.8226  0.0044
  437MOL0     C58882   0.404   3.315   7.058  0.4877 -0.0939  0.3433
  437MOL0     C58883   0.543   3.388   7.086  0.1910  0.0163  0.1268
  437MOL0     O58884   0.652   3.306   7.054  0.0980  0.4913 -0.3928
  437MOL0     C58885   0.768   3.304   7.121 -0.2255 -0.1945  0.4529
  437MOL0     C58886   0.791   3.342   7.252 -0.2315 -0.5606  0.1311
  437MOL0     C58887   0.919   3.331   7.306 -0.0698 -0.3821 -0.0165
  437MOL0     C58888   0.949   3.376   7.450  0.1525  0.5237  0.0308
  437MOL0     C58889   1.029   3.298   7.232  0.1787 -0.1456 -0.1334
  437MOL0     C58890   1.165   3.290   7.281  0.0314 -0.4827 -0.8709
  437MOL0     O58891   1.235   3.405   7.329 -0.2535 -0.4381 -0.3350
  437MOL0     C58892   1.350   3.384   7.397 -0.7247 -0.4697  0.2330
  437MOL0     C58893   1.366   3.332   7.529 -0.4117 -0.7055 -0.1832
  437MOL0     C58894   1.495   3.308   7.575  0.6556  0.3900  0.9337
  437MOL0     C58895   1.600   3.317   7.496 -0.5702 -0.2695 -1.5236
  437MOL0     O58896   1.723   3.273   7.536  0.3193  0.1515  0.0237
  437MOL0     C58897   1.744   3.239   7.672 -0.3895 -0.5555  0.0666
  437MOL0     C58898   1.891   3.240   7.708  0.7088  0.7875 -0.6159
  437MOL0     C58899   1.908   3.190   7.852 -1.0977  0.8886  0.4990
  437MOL0     C58900   2.054   3.181   7.906 -0.2746 -1.0250  0.2536
  437MOL0     C58901   2.077   3.057   8.007  0.1858  0.9037  0.0452
  437MOL0     C58902   2.206   3.074   8.086  0.0910 -0.0708 -0.1088
  437MOL0     C58903   2.197   2.973   8.205  0.1133  0.1026 -0.8244
  437MOL0     C58904   2.334   2.924   8.238 -0.5450  0.6973 -0.3046
  437MOL0    Cl58905   2.426   2.845   8.097  0.0628  0.2126  0.3241
  437MOL0     C58906   1.590   3.366   7.370 -0.5027  0.0350  0.2491
  437MOL0     C58907   1.466   3.411   7.322 -0.0122  0.2362 -0.7521
  437MOL0     O58908   1.210   3.178   7.269  0.1608  0.0854 -0.3062
  437MOL0     C58909   1.006   3.256   7.103 -0.4100  0.3493  0.0739
  437MOL0     C58910   0.881   3.259   7.049  0.9815  0.3941 -0.2613
  437MOL0     N58911  -0.005   3.544   6.914  0.5732 -0.5308 -0.1930
  437MOL0     N58912  -0.095   3.628   6.943  0.0541 -0.2326 -0.4027
  437MOL0     C58913   0.698   4.109   7.648  0.1160  0.3285 -0.9175
  437MOL0     C58914   0.832   4.062   7.655 -0.5085  1.0662 -0.2876
  437MOL0     C58915   1.211   3.875   7.571 -0.4105 -0.0179  0.1709
  437MOL0     C58916   1.322   3.890   7.483  0.3577  0.5488  0.3861
  437MOL0     C58917   1.455   3.863   7.512  0.5143 -0.2653 -0.3426
  437MOL0     C58918   1.488   3.844   7.645  0.0363 -0.7845 -0.7683
  437MOL0     O58919   1.617   3.804   7.673  0.0759 -0.3793 -0.0880
  437MOL0     C58920   1.636   3.663   7.663 -0.1981 -0.9248  0.1333
  437MOL0     C58921   1.779   3.626   7.718  0.1989 -0.3005 -0.0900
  437MOL0     C58922   1.787   3.648   7.872 -0.9305  0.2114 -0.2174
  437MOL0     C58923   1.900   3.567   7.942 -0.0584 -0.1008 -0.6437
  437MOL0     C58924   2.030   3.614   7.896 -1.0749  0.4473 -0.6682
  437MOL0     C58925   2.142   3.642   7.851 -0.0622  0.6528  0.2293
  437MOL0     C58926   1.389   3.829   7.744  0.5420 -1.5669  0.7375
  437MOL0     C58927   1.248   3.835   7.706  0.4320 -0.6503  0.6089
  437MOL0     H58928   0.792   3.753   7.518 -0.9590  0.7045 -1.3705
  437MOL0     H58929   0.563   3.841   7.492 -0.0557 -1.2071  0.4376
  437MOL0     H58930   0.410   4.119   7.375 -0.8265  0.2048 -0.1657
  437MOL0     H58931   0.410   3.953   7.408  0.0572  1.3606 -1.8662
  437MOL0     H58932   0.210   3.986   7.566 -1.3286  1.7954  1.7768
  437MOL0     H58933   0.219   4.151   7.525 -1.0093 -1.1449  2.8516
  437MOL0     H58934   0.175   4.092   7.281  1.4682 -0.2376 -0.7931
  437MOL0     H58935   0.173   3.922   7.334  0.7665 -0.7790  3.0350
  437MOL0     H58936  -0.031   3.994   7.484  0.0869  0.1387 -0.2668
  437MOL0     H58937  -0.016   4.153   7.427 -1.0122  0.8231  0.5793
  437MOL0     H58938  -0.196   4.025   7.321 -0.4366  0.5514  0.1235
  437MOL0     H58939  -0.063   4.061   7.193  0.0602 -0.9786 -0.7037
  437MOL0     H58940   0.003   3.842   7.186  1.0533  0.9567  0.7512
  437MOL0     H58941  -0.074   3.797   7.344  1.8076  0.8170  0.7477
  437MOL0     H58942  -0.293   3.842   7.251 -0.5632  2.3455 -0.2316
  437MOL0     H58943  -0.225   3.880   7.090 -0.2291 -0.3483 -0.7709
  437MOL0     H58944  -0.307   3.649   7.081  0.6304 -3.3826  0.1992
  437MOL0     H58945  -0.240   3.621   7.243  4.2695 -0.9493 -0.0179
  437MOL0     H58946   0.013   3.528   7.237  1.6868 -2.5261  0.4561
  437MOL0     H58947   0.113   3.290   7.080 -0.1087 -0.5072 -1.6377
  437MOL0     H58948   0.174   3.342   6.923  0.7945 -2.2382  1.3178
  437MOL0     H58949   0.290   3.444   7.188  3.0482  0.8134 -0.0881
  437MOL0     H58950   0.303   3.509   7.024 -2.0850  0.4066 -1.6750
  437MOL0     H58951   0.411   3.285   6.953  4.5554 -0.2220  0.5115
  437MOL0     H58952   0.385   3.220   7.109 -1.8513  0.8418  1.3628
  437MOL0     H58953   0.546   3.431   7.187 -0.9037  0.3793  0.0195
  437MOL0     H58954   0.539   3.476   7.021 -1.3006 -1.1004 -1.3972
  437MOL0     H58955   0.715   3.381   7.319 -1.2945  0.7163 -1.7029
  437MOL0     H58956   0.856   3.422   7.483 -0.7040  1.8472 -3.6980
  437MOL0     H58957   0.983   3.295   7.515 -0.1966 -1.3393 -1.9706
  437MOL0     H58958   1.032   3.448   7.451  2.3846 -1.8064 -2.0333
  437MOL0     H58959   1.281   3.310   7.592 -0.4994 -3.4673 -1.1177
  437MOL0     H58960   1.504   3.265   7.674 -1.0817  0.1977  1.0438
  437MOL0     H58961   1.684   3.305   7.734 -1.3419 -0.7717 -0.6054
  437MOL0     H58962   1.711   3.135   7.683 -0.1984 -0.5586  0.6331
  437MOL0     H58963   1.943   3.167   7.646 -0.2860 -2.3084  1.9178
  437MOL0     H58964   1.937   3.339   7.698  0.7296  0.9197  0.5862
  437MOL0     H58965   1.872   3.087   7.847 -0.3925  0.7068 -1.4092
  437MOL0     H58966   1.843   3.240   7.926  1.6799  1.3483  2.8155
  437MOL0     H58967   2.129   3.190   7.826 -0.0964 -1.7709  0.3223
  437MOL0     H58968   2.058   3.269   7.970 -1.5668 -1.8781  1.5791
  437MOL0     H58969   2.087   2.966   7.947 -0.5612  0.9731 -0.2038
  437MOL0     H58970   1.995   3.034   8.076 -0.2590 -1.0956 -1.0709
  437MOL0     H58971   2.287   3.061   8.014 -0.8217 -1.2638 -0.9706
  437MOL0     H58972   2.214   3.171   8.136  0.7366 -0.0938 -0.1694
  437MOL0     H58973   2.128   2.889   8.188 -0.9856  1.0175 -1.0438
  437MOL0     H58974   2.162   3.023   8.296  1.6493  1.5109 -0.9776
  437MOL0     H58975   2.319   2.848   8.315  2.2291 -0.0332 -0.3616
  437MOL0     H58976   2.404   2.997   8.280 -0.8544  1.2436 -0.7264
  437MOL0     H58977   1.675   3.381   7.304 -0.9372  1.7013  0.0258
  437MOL0     H58978   1.461   3.448   7.221  0.7945  2.3584 -0.0689
  437MOL0     H58979   1.087   3.210   7.048  0.3102  0.8777  0.6781
  437MOL0     H58980   0.864   3.231   6.946 -0.4856  3.1216 -0.8529
  437MOL0     H58981   0.675   4.208   7.684 -1.2440 -1.2177  2.9859
  437MOL0     H58982   0.911   4.121   7.699 -1.2251  0.0721  2.5507
  437MOL0     H58983   1.299   3.907   7.378 -0.5725  1.6241  0.7414
  437MOL0     H58984   1.526   3.865   7.431 -0.2051 -1.9145 -1.0447
  437MOL0     H58985   1.557   3.618   7.724 -0.6721  1.2275  1.2104
  437MOL0     H58986   1.633   3.619   7.563  0.6359  0.9695 -0.7736
  437MOL0     H58987   1.853   3.686   7.664 -0.6980  0.0415 -0.9843
  437MOL0     H58988   1.792   3.519   7.699  2.1315  0.2165 -2.0861
  437MOL0     H58989   1.697   3.611   7.921  0.1782  0.8558  2.4841
  437MOL0     H58990   1.795   3.752   7.904 -1.2373 -0.0835  0.8791
  437MOL0     H58991   1.900   3.459   7.925  1.2055 -0.2510  0.2193
  437MOL0     H58992   1.894   3.577   8.050 -1.5654 -2.6644 -0.4033
  437MOL0     H58993   2.245   3.636   7.820 -0.5941 -3.2969 -1.2977
  437MOL0     H58994   1.416   3.804   7.846  0.9571  0.3321  1.1279
  437MOL0     H58995   1.177   3.823   7.786 -1.4814 -2.7026 -1.2654
  438MOL0     O58996   1.784   0.120   8.022 -0.1516 -0.1086  0.9735
  438MOL0     C58997   1.830   0.043   7.933  0.1559  0.1495 -0.1199
  438MOL0     O58998   1.759  -0.053   7.859 -0.4356  0.7076  0.3974
  438MOL0     C58999   1.627  -0.046   7.884 -0.4000  0.6359 -0.5372
  438MOL0     C59000   1.567  -0.146   7.961  0.0646 -0.0797 -0.4648
  438MOL0     C59001   1.431  -0.131   7.985 -0.0958 -0.1272 -0.7834
  438MOL0     C59002   1.360  -0.020   7.942 -0.4321 -0.5307  0.4382
  438MOL0     O59003   1.225  -0.029   8.000 -0.0006  0.3933  0.3881
  438MOL0     C59004   1.132   0.076   7.967 -0.0413  0.2585 -0.3595
  438MOL0     C59005   0.996   0.026   8.017  0.3649 -0.4293  0.0638
  438MOL0     C59006   0.954  -0.083   7.931 -0.6782 -0.4326 -1.0856
  438MOL0     C59007   0.814  -0.110   7.955  1.1661 -0.2927  0.9398
  438MOL0     C59008   0.781  -0.209   7.834  0.2428 -0.3846 -0.0909
  438MOL0     C59009   0.655  -0.282   7.857  0.4409 -0.2899  0.2135
  438MOL0     C59010   0.616  -0.381   7.743  0.1621  0.0114 -0.5444
  438MOL0     C59011   0.471  -0.435   7.720  0.2096 -0.1942  0.5299
  438MOL0     N59012   0.425  -0.516   7.830  1.0600  0.5792 -0.0250
  438MOL0     C59013   0.358  -0.468   7.939  0.1283 -0.6998 -0.3481
  438MOL0     C59014   0.316  -0.574   8.011 -0.4790  0.4444 -0.7278
  438MOL0     C59015   0.231  -0.568   8.127  0.5535  0.1870 -0.3307
  438MOL0     C59016   0.091  -0.507   8.101 -0.8022 -0.1576 -0.5061
  438MOL0     C59017   0.005  -0.519   8.226  0.5768  0.1354  0.2754
  438MOL0     C59018  -0.128  -0.458   8.214 -0.4646  0.7929 -0.0377
  438MOL0     O59019  -0.208  -0.505   8.112 -0.1971 -0.2793  0.1645
  438MOL0     C59020  -0.341  -0.472   8.115 -0.4715 -1.0716  0.5467
  438MOL0     C59021  -0.419  -0.507   8.008 -0.7188 -0.4646 -0.6300
  438MOL0     C59022  -0.548  -0.462   7.991  0.8066 -0.2352  0.8640
  438MOL0     C59023  -0.617  -0.480   7.855 -0.1411  1.1935  0.1987
  438MOL0     C59024  -0.609  -0.398   8.102  0.1978  0.2308  0.5148
  438MOL0     C59025  -0.752  -0.355   8.104 -0.6573 -0.0542 -0.2125
  438MOL0     O59026  -0.780  -0.218   8.124 -0.0612  0.0786 -0.2590
  438MOL0     C59027  -0.896  -0.173   8.188 -0.8674 -0.4226  0.7074
  438MOL0     C59028  -0.892  -0.084   8.304  0.7095  0.4879  0.1334
  438MOL0     C59029  -1.019  -0.054   8.365 -0.3491  0.5106  0.3789
  438MOL0     C59030  -1.138  -0.098   8.308 -0.3801  0.7951 -0.2945
  438MOL0     O59031  -1.271  -0.064   8.353 -0.9824  0.6210  0.0079
  438MOL0     C59032  -1.272   0.073   8.390 -0.0325 -0.0838  0.3003
  438MOL0     C59033  -1.415   0.124   8.411  1.2625  0.2428  0.2780
  438MOL0     C59034  -1.428   0.235   8.517  0.7329  0.4695  0.4624
  438MOL0     C59035  -1.361   0.365   8.469  0.1262 -0.2468  0.8343
  438MOL0     C59036  -1.383   0.477   8.574 -0.7382 -0.6762 -0.3992
  438MOL0     C59037  -1.523   0.547   8.557 -0.6237  0.2381 -0.0241
  438MOL0     C59038  -1.521   0.669   8.644 -0.6121 -0.1002  0.6901
  438MOL0     C59039  -1.650   0.722   8.681  0.3029  0.4389  0.2507
  438MOL0    Cl59040  -1.740   0.605   8.785 -0.0868 -0.0225  0.0298
  438MOL0     C59041  -1.146  -0.184   8.197 -0.1224  0.6303 -0.1866
  438MOL0     C59042  -1.026  -0.227   8.145 -0.6815 -0.5287 -0.0446
  438MOL0     O59043  -0.836  -0.441   8.098 -0.0181 -0.3088  0.1849
  438MOL0     C59044  -0.527  -0.360   8.210 -0.1546 -0.3807 -0.1223
  438MOL0     C59045  -0.392  -0.390   8.210  0.2026  0.7331  0.0378
  438MOL0     N59046   0.373  -0.687   7.956  0.6128 -0.4376 -0.4389
  438MOL0     N59047   0.436  -0.652   7.845 -0.2967  0.4839 -0.4213
  438MOL0     C59048   1.428   0.087   7.886 -0.0338  0.3412  0.1666
  438MOL0     C59049   1.554   0.070   7.846  0.5177  0.1335 -0.1406
  438MOL0     C59050   1.985   0.038   7.931  0.3145 -0.1517 -0.5269
  438MOL0     C59051   2.044  -0.047   7.849 -0.6094 -0.2482 -0.0444
  438MOL0     C59052   2.184  -0.049   7.836 -0.0720  0.1620 -0.3471
  438MOL0     C59053   2.271   0.023   7.925  1.2739 -0.2437 -0.2500
  438MOL0     O59054   2.401   0.017   7.902 -0.4738  0.9542  0.2567
  438MOL0     C59055   2.490   0.126   7.941  0.1780  0.4960 -0.0912
  438MOL0     C59056   2.632   0.065   7.935  0.6736 -0.5841 -0.8225
  438MOL0     C59057   2.735   0.165   7.984  0.1170 -0.4179  0.3440
  438MOL0     C59058   2.871   0.098   7.990  0.2475 -0.7012  0.4459
  438MOL0     C59059   2.932   0.094   7.854 -0.8018 -0.2318 -0.2926
  438MOL0     C59060   2.979   0.105   7.742  0.2560 -0.1468  0.7241
  438MOL0     C59061   2.202   0.112   8.013  0.1252  0.1657  0.6489
  438MOL0     C59062   2.063   0.118   8.019 -0.3836 -0.3686  0.1789
  438MOL0     H59063   1.629  -0.227   7.998  1.6095  1.9572  1.7824
  438MOL0     H59064   1.378  -0.210   8.037 -1.6869  0.6937 -1.0994
  438MOL0     H59065   1.164   0.160   8.030  0.0552 -0.4600  0.5740
  438MOL0     H59066   1.138   0.097   7.860  2.6157  1.1120 -0.1108
  438MOL0     H59067   1.006  -0.014   8.118 -1.7546 -1.3289 -0.0335
  438MOL0     H59068   0.928   0.112   8.012  1.5254  0.4614 -0.9498
  438MOL0     H59069   0.965  -0.050   7.827 -0.5267  2.0730 -0.3426
  438MOL0     H59070   1.019  -0.169   7.950 -0.1680  0.2852  0.5539
  438MOL0     H59071   0.792  -0.162   8.049 -1.5462 -2.8122 -0.8898
  438MOL0     H59072   0.760  -0.015   7.951  0.7935 -0.3279  3.4857
  438MOL0     H59073   0.771  -0.152   7.741 -2.2514  0.0308  0.3615
  438MOL0     H59074   0.865  -0.279   7.825  0.9385  0.4312 -0.0664
  438MOL0     H59075   0.674  -0.340   7.947 -1.2797  0.2821  0.9824
  438MOL0     H59076   0.574  -0.211   7.877  0.4421 -0.2243 -0.0033
  438MOL0     H59077   0.624  -0.322   7.651 -3.2321  1.6362  0.0506
  438MOL0     H59078   0.690  -0.462   7.749  2.3992  1.6225 -3.3459
  438MOL0     H59079   0.469  -0.489   7.625  1.4606 -0.5821  0.7068
  438MOL0     H59080   0.406  -0.347   7.721 -0.7756 -0.8927  2.3500
  438MOL0     H59081   0.338  -0.362   7.953 -0.9379 -0.6493 -1.9604
  438MOL0     H59082   0.214  -0.670   8.163 -2.6328  0.4982 -0.6932
  438MOL0     H59083   0.281  -0.522   8.212  0.5473  2.6433 -1.5672
  438MOL0     H59084   0.046  -0.564   8.018 -0.2647 -1.2153 -0.0911
  438MOL0     H59085   0.111  -0.402   8.077  0.0716 -0.2120 -0.0565
  438MOL0     H59086   0.059  -0.465   8.304 -0.4744  3.1067 -0.8890
  438MOL0     H59087  -0.019  -0.621   8.258  0.0304 -0.1951 -1.0866
  438MOL0     H59088  -0.120  -0.349   8.216 -0.4263  0.8868 -2.1671
  438MOL0     H59089  -0.173  -0.495   8.307 -0.8169 -2.2252 -1.2763
  438MOL0     H59090  -0.375  -0.564   7.926 -1.5489 -0.6952 -0.9273
  438MOL0     H59091  -0.725  -0.493   7.872 -0.0451  0.3922  0.2329
  438MOL0     H59092  -0.599  -0.388   7.800  1.9863  0.9144  0.3515
  438MOL0     H59093  -0.577  -0.566   7.800 -0.5291  1.3325 -0.3088
  438MOL0     H59094  -0.796  -0.047   8.337  0.9372  0.3849 -0.4077
  438MOL0     H59095  -1.021   0.012   8.451  0.6909  3.2614 -1.5278
  438MOL0     H59096  -1.219   0.094   8.484  1.2340  2.0060 -0.8028
  438MOL0     H59097  -1.226   0.133   8.311 -3.0011 -0.5906 -1.9934
  438MOL0     H59098  -1.453   0.163   8.316 -0.9335 -2.5608 -0.1121
  438MOL0     H59099  -1.486   0.042   8.424  0.9219  0.4001 -0.4990
  438MOL0     H59100  -1.391   0.207   8.616 -1.5045 -0.4013  1.1037
  438MOL0     H59101  -1.535   0.254   8.526  0.7967  1.0987 -0.0124
  438MOL0     H59102  -1.256   0.356   8.440 -0.3699  0.7768 -1.4748
  438MOL0     H59103  -1.409   0.391   8.374  1.5128 -0.8276 -0.0596
  438MOL0     H59104  -1.303   0.552   8.572 -0.3293 -0.9822  1.9250
  438MOL0     H59105  -1.376   0.450   8.680  0.7871  1.6623  0.1645
  438MOL0     H59106  -1.535   0.583   8.455 -0.3935  2.9115  0.8170
  438MOL0     H59107  -1.608   0.484   8.585 -1.1346 -0.2046 -2.3882
  438MOL0     H59108  -1.465   0.747   8.592  2.2098 -1.0239  2.1808
  438MOL0     H59109  -1.468   0.645   8.736  2.0582 -0.2278 -0.7741
  438MOL0     H59110  -1.713   0.748   8.595 -1.4430  3.3650  2.2376
  438MOL0     H59111  -1.640   0.818   8.733 -1.6623  0.4446  0.6974
  438MOL0     H59112  -1.244  -0.208   8.155  0.1412  2.0016 -1.6834
  438MOL0     H59113  -1.031  -0.290   8.057 -0.0083  0.5621 -0.8883
  438MOL0     H59114  -0.581  -0.307   8.288 -1.0611 -0.0386 -0.9594
  438MOL0     H59115  -0.335  -0.357   8.297  0.2908 -0.9326  0.6516
  438MOL0     H59116   1.360   0.170   7.872  1.5363  1.1739 -3.5571
  438MOL0     H59117   1.604   0.149   7.792 -1.1655  0.4739 -1.2656
  438MOL0     H59118   1.988  -0.108   7.778  1.7835 -3.0070  0.2279
  438MOL0     H59119   2.231  -0.111   7.760  1.7020  2.2494 -1.0586
  438MOL0     H59120   2.481   0.203   7.864 -1.3499 -1.2507 -1.7627
  438MOL0     H59121   2.457   0.165   8.038 -2.4634 -1.4785 -0.0674
  438MOL0     H59122   2.659   0.030   7.835 -3.0045 -0.8041 -1.8739
  438MOL0     H59123   2.633  -0.015   8.009 -1.9628 -0.6067 -0.7405
  438MOL0     H59124   2.698   0.196   8.082  0.0481 -0.1019  0.2187
  438MOL0     H59125   2.735   0.258   7.927 -1.3956 -1.2601 -1.1321
  438MOL0     H59126   2.855  -0.001   8.034 -0.0929 -0.5132  0.7532
  438MOL0     H59127   2.940   0.155   8.053 -1.0378 -1.5159  2.7065
  438MOL0     H59128   3.030   0.124   7.650 -2.1932  0.2547 -0.6415
  438MOL0     H59129   2.250   0.195   8.065  4.0377 -2.0741  1.0087
  438MOL0     H59130   2.012   0.185   8.089  1.0321 -1.4173  2.3236
  439MOL0     O59131   4.864   5.211   3.678  0.7538 -0.2951  0.0010
  439MOL0     C59132   4.905   5.100   3.703  0.0155  0.0921  0.0542
  439MOL0     O59133   4.849   5.000   3.779  0.3115 -0.8735  0.3342
  439MOL0     C59134   4.715   5.022   3.816 -0.7445  0.4595  0.4694
  439MOL0     C59135   4.679   5.106   3.917 -0.4797 -0.9345  1.5684
  439MOL0     C59136   4.556   5.111   3.967  0.9300 -0.7469  0.3371
  439MOL0     C59137   4.450   5.035   3.916  0.4938  0.4822  0.1786
  439MOL0     O59138   4.315   5.041   3.965  0.2485 -0.4624  0.1790
  439MOL0     C59139   4.288   5.118   4.085  0.5560  0.4726  0.6924
  439MOL0     C59140   4.145   5.096   4.121 -0.8678 -0.5792  0.1737
  439MOL0     C59141   4.041   5.143   4.020  0.8747 -0.4324  0.3529
  439MOL0     C59142   3.903   5.137   4.102 -0.1854  0.2735  0.1224
  439MOL0     C59143   3.768   5.147   4.027 -0.7146  0.3012 -1.1990
  439MOL0     C59144   3.651   5.104   4.109 -0.0251  0.1534 -0.1865
  439MOL0     C59145   3.530   5.116   4.023 -0.0592 -0.3118 -0.2765
  439MOL0     C59146   3.413   5.074   4.106 -0.0694  0.1923 -0.3090
  439MOL0     N59147   3.283   5.087   4.033 -0.1403  0.3293 -0.3663
  439MOL0     C59148   3.258   5.040   3.899  0.1954  0.3586  0.3427
  439MOL0     C59149   3.128   5.026   3.883 -0.5361  0.9065 -0.6312
  439MOL0     C59150   3.042   4.971   3.763  0.0770  0.9759  0.2178
  439MOL0     C59151   3.010   5.070   3.654 -0.5047  0.1392  0.1875
  439MOL0     C59152   2.926   5.197   3.702 -0.1900  0.4741 -1.1482
  439MOL0     C59153   2.775   5.181   3.685 -0.1051  0.2919  0.5089
  439MOL0     O59154   2.724   5.315   3.730  0.6817 -0.3046  0.1067
  439MOL0     C59155   2.596   5.345   3.779 -1.3346  0.6991  0.6452
  439MOL0     C59156   2.561   5.476   3.792  0.0911  0.0057  0.5692
  439MOL0     C59157   2.445   5.514   3.854  0.1791  0.3907 -0.2405
  439MOL0     C59158   2.434   5.666   3.878  0.6550  0.4495 -0.0636
  439MOL0     C59159   2.353   5.415   3.896  1.1106 -0.6136  0.1626
  439MOL0     C59160   2.219   5.447   3.961 -0.4611  0.3002 -0.6682
  439MOL0     O59161   2.152   5.338   4.011 -0.4641 -0.1094 -0.3414
  439MOL0     C59162   2.026   5.352   4.058  0.7147 -0.2781  0.6356
  439MOL0     C59163   1.991   5.262   4.163  0.8339 -0.6105  0.2203
  439MOL0     C59164   1.864   5.252   4.222  0.2459 -0.1211  0.9670
  439MOL0     C59165   1.763   5.321   4.156  0.4267 -0.1647 -0.1867
  439MOL0     O59166   1.637   5.318   4.205  0.0517 -0.1226 -0.0010
  439MOL0     C59167   1.585   5.207   4.272  0.5566  0.6457  0.4565
  439MOL0     C59168   1.432   5.203   4.258 -0.0959  0.3390  0.3482
  439MOL0     C59169   1.358   5.107   4.354  0.0905 -0.4721 -0.8820
  439MOL0     C59170   1.211   5.147   4.333  0.2267 -1.3576  0.8240
  439MOL0     C59171   1.129   5.076   4.436  0.9343 -0.4397 -0.5907
  439MOL0     C59172   1.134   5.143   4.575  0.5376  0.5333 -0.1926
  439MOL0     C59173   1.027   5.109   4.677  0.7193  0.6823  0.1824
  439MOL0     C59174   0.883   5.103   4.624 -0.3660 -0.2022 -0.7476
  439MOL0    Cl59175   0.780   5.049   4.765  0.2969 -0.1148  0.0551
  439MOL0     C59176   1.789   5.417   4.052  0.5825 -0.4398  0.9232
  439MOL0     C59177   1.922   5.432   4.005 -0.5364  0.5686 -0.0860
  439MOL0     O59178   2.170   5.564   3.955  0.1163 -0.4948 -0.3490
  439MOL0     C59179   2.397   5.292   3.887  0.1107  0.7005 -0.2102
  439MOL0     C59180   2.514   5.241   3.822 -0.5097 -0.2774 -0.1486
  439MOL0     N59181   3.073   5.066   4.005  1.3246  0.2347 -0.5683
  439MOL0     N59182   3.162   5.107   4.090 -0.5684 -0.2953 -0.5062
  439MOL0     C59183   4.483   4.948   3.811 -0.3068 -0.0322 -0.5261
  439MOL0     C59184   4.618   4.940   3.766 -0.9210 -0.8323  0.8860
  439MOL0     C59185   5.038   5.056   3.652  0.5413  0.1746 -0.6975
  439MOL0     C59186   5.094   5.121   3.541 -0.3554  0.4147  0.1914
  439MOL0     C59187   5.226   5.099   3.500 -0.6100  0.5428  0.7797
  439MOL0     C59188   5.309   4.991   3.553 -0.0723  0.4767 -0.4633
  439MOL0     O59189   5.441   4.962   3.517 -0.5583  0.2896  0.0856
  439MOL0     C59190   5.457   4.937   3.378 -0.2655  0.0160  0.5787
  439MOL0     C59191   5.604   4.894   3.354  1.4998  0.4119 -0.1408
  439MOL0     C59192   5.705   4.988   3.401  0.2457 -0.0964  0.3235
  439MOL0     C59193   5.842   4.921   3.381 -0.1444 -0.3149 -0.4245
  439MOL0     C59194   5.938   5.028   3.411 -0.1195 -0.1671  0.2919
  439MOL0     C59195   6.011   5.121   3.433  0.4710  0.9667  0.0546
  439MOL0     C59196   5.250   4.922   3.657  0.5259  0.0414  0.5803
  439MOL0     C59197   5.119   4.953   3.704  0.2214  0.5896 -0.5095
  439MOL0     H59198   4.748   5.184   3.950  1.1137  0.9384 -4.7279
  439MOL0     H59199   4.550   5.178   4.052 -0.7023  0.1510 -0.4384
  439MOL0     H59200   4.359   5.097   4.166 -0.5027  0.1972  1.5626
  439MOL0     H59201   4.301   5.224   4.059  3.2548  0.0396 -0.0587
  439MOL0     H59202   4.132   4.992   4.152 -1.3075 -0.2918  1.0064
  439MOL0     H59203   4.133   5.149   4.216 -0.5053  2.5355 -1.3878
  439MOL0     H59204   4.068   5.246   3.994  0.2219  0.0448  1.4684
  439MOL0     H59205   4.034   5.080   3.931  0.3194 -0.7845  0.6376
  439MOL0     H59206   3.908   5.039   4.150  2.7986  0.8453  1.2026
  439MOL0     H59207   3.893   5.207   4.186 -2.9770  1.0091 -0.7029
  439MOL0     H59208   3.740   5.247   3.993 -2.3151  1.1857  2.1831
  439MOL0     H59209   3.772   5.085   3.938 -0.0093  0.1072 -1.0399
  439MOL0     H59210   3.664   4.998   4.135 -0.4362 -0.4427 -2.2356
  439MOL0     H59211   3.640   5.172   4.194 -4.8191  0.5629 -0.8601
  439MOL0     H59212   3.516   5.218   3.985  2.1127  0.6813  1.3666
  439MOL0     H59213   3.542   5.057   3.932 -0.2994 -1.0140  0.1434
  439MOL0     H59214   3.412   5.131   4.199 -0.6325 -0.9638  0.4093
  439MOL0     H59215   3.434   4.972   4.141  1.7082  0.3476 -0.8299
  439MOL0     H59216   3.332   5.018   3.822 -0.8310  0.2548 -0.6433
  439MOL0     H59217   3.093   4.884   3.720 -2.2450  0.3170 -1.4490
  439MOL0     H59218   2.951   4.929   3.807 -0.2013  1.7598  0.4094
  439MOL0     H59219   2.965   5.024   3.565  3.0890  2.2254 -3.0186
  439MOL0     H59220   3.111   5.099   3.624  1.5506 -5.8250  0.0730
  439MOL0     H59221   2.970   5.277   3.642  0.7908  1.2957  0.5761
  439MOL0     H59222   2.942   5.228   3.806  0.1424 -0.0378 -1.0383
  439MOL0     H59223   2.739   5.115   3.764 -0.3905 -2.0251 -1.4488
  439MOL0     H59224   2.742   5.133   3.593 -0.6623  0.0599  0.8247
  439MOL0     H59225   2.628   5.550   3.748 -2.0109  2.1094  0.7388
  439MOL0     H59226   2.528   5.717   3.854 -1.1108  4.7125  1.0888
  439MOL0     H59227   2.345   5.710   3.833  0.1775 -1.2365 -0.8564
  439MOL0     H59228   2.429   5.673   3.987  3.2105 -2.1520  0.3605
  439MOL0     H59229   2.064   5.197   4.210 -1.2532 -3.6216 -0.4545
  439MOL0     H59230   1.853   5.203   4.318  1.0306 -2.1432  0.0810
  439MOL0     H59231   1.623   5.111   4.237 -1.3127  0.8812 -2.6262
  439MOL0     H59232   1.615   5.212   4.377  0.7724  2.8157  0.3392
  439MOL0     H59233   1.398   5.308   4.257 -2.1088 -0.2457 -1.7259
  439MOL0     H59234   1.401   5.173   4.158 -0.1205 -1.3906  0.8571
  439MOL0     H59235   1.391   5.114   4.458  0.8293  1.4494 -1.2067
  439MOL0     H59236   1.361   5.002   4.321 -4.5089 -0.2912 -2.4987
  439MOL0     H59237   1.194   5.255   4.341 -0.4240 -1.4714  1.0173
  439MOL0     H59238   1.179   5.120   4.232  0.2150  1.7229 -0.1056
  439MOL0     H59239   1.166   4.974   4.452 -1.1870 -1.0802  0.6899
  439MOL0     H59240   1.028   5.074   4.394 -0.2898  3.4833  1.7003
  439MOL0     H59241   1.230   5.116   4.620  1.8385 -1.5357 -3.7845
  439MOL0     H59242   1.127   5.252   4.564 -1.7393  0.3449 -1.0937
  439MOL0     H59243   1.028   5.176   4.764 -2.8552 -1.5455  2.2246
  439MOL0     H59244   1.039   5.014   4.729  0.1804  0.0254 -0.8729
  439MOL0     H59245   0.863   5.032   4.542  2.3619  0.1211 -1.7926
  439MOL0     H59246   0.860   5.204   4.589  0.7801  0.1953 -0.3918
  439MOL0     H59247   1.698   5.458   4.010 -0.7966 -2.0717  2.1530
  439MOL0     H59248   1.932   5.495   3.917 -0.9997  1.0924  0.2293
  439MOL0     H59249   2.331   5.212   3.921 -3.4735  2.6943 -1.9113
  439MOL0     H59250   2.541   5.137   3.811 -0.9864 -0.3764 -0.4244
  439MOL0     H59251   4.399   4.885   3.784 -1.2925  0.6144  0.8672
  439MOL0     H59252   4.642   4.869   3.687  1.8945  1.1586 -0.1971
  439MOL0     H59253   5.039   5.202   3.494 -1.3022  0.0690  0.6791
  439MOL0     H59254   5.253   5.160   3.415  2.0956  0.7392  1.6913
  439MOL0     H59255   5.381   4.864   3.350 -1.9036  1.3787  1.2970
  439MOL0     H59256   5.442   5.028   3.320  1.6151  0.6263  0.9655
  439MOL0     H59257   5.605   4.869   3.248 -2.9847 -1.2170 -0.0038
  439MOL0     H59258   5.625   4.797   3.399  1.8925  1.3591  1.8167
  439MOL0     H59259   5.682   5.021   3.503  0.0173  1.8783 -0.3184
  439MOL0     H59260   5.714   5.071   3.330 -1.2267  0.8159  1.1523
  439MOL0     H59261   5.857   4.876   3.283  0.0995  0.8014 -0.9150
  439MOL0     H59262   5.867   4.842   3.453  1.1262 -0.6157 -1.1687
  439MOL0     H59263   6.078   5.202   3.450 -0.8363  2.4884 -1.6275
  439MOL0     H59264   5.318   4.852   3.704  3.3604  0.6222 -2.2809
  439MOL0     H59265   5.081   4.909   3.796 -0.3034 -0.6624 -1.3034
  440MOL0     O59266   7.936   6.578   7.818  0.8861 -0.0321 -0.0509
  440MOL0     C59267   7.902   6.630   7.926 -0.5503 -0.2385  0.2312
  440MOL0     O59268   7.782   6.649   7.971 -0.1022 -0.3028  0.1288
  440MOL0     C59269   7.675   6.629   7.894  0.0338 -0.0239  0.6036
  440MOL0     C59270   7.679   6.662   7.755  0.1706 -1.1192 -0.2019
  440MOL0     C59271   7.550   6.664   7.682  0.2274  0.1921  0.4084
  440MOL0     C59272   7.429   6.634   7.747  0.3467  0.6224 -0.1981
  440MOL0     O59273   7.311   6.631   7.685 -0.6979  0.5999 -0.1739
  440MOL0     C59274   7.304   6.629   7.541  0.5942  0.0671 -0.5971
  440MOL0     C59275   7.182   6.703   7.504 -1.2188  0.8084  0.3203
  440MOL0     C59276   7.056   6.639   7.558  0.5091 -0.4546 -0.1196
  440MOL0     C59277   6.934   6.726   7.514  0.5324  0.6614 -0.0657
  440MOL0     C59278   6.806   6.654   7.563 -0.0386 -0.2295  0.5298
  440MOL0     C59279   6.690   6.701   7.468  0.0018 -0.6330 -0.3536
  440MOL0     C59280   6.546   6.645   7.494  0.0703 -0.6447 -0.0458
  440MOL0     C59281   6.448   6.711   7.408 -0.0991 -0.1947 -0.1458
  440MOL0     N59282   6.317   6.650   7.405  0.3421  0.7793  0.3936
  440MOL0     C59283   6.281   6.522   7.354 -1.0156  0.1137 -0.4676
  440MOL0     C59284   6.145   6.516   7.374  0.0022 -0.5780 -0.8535
  440MOL0     C59285   6.046   6.418   7.326  0.5657  0.6632  0.1764
  440MOL0     C59286   5.955   6.483   7.221  0.9233 -0.0842 -0.6585
  440MOL0     C59287   5.881   6.382   7.141 -0.5780 -0.3151 -0.0968
  440MOL0     C59288   5.769   6.447   7.069  0.4187  0.3104  0.3074
  440MOL0     O59289   5.683   6.509   7.156  0.8748 -0.0531  0.0031
  440MOL0     C59290   5.558   6.550   7.116 -0.0992  0.4026 -0.0560
  440MOL0     C59291   5.500   6.519   6.993  0.6554 -0.2438 -0.3377
  440MOL0     C59292   5.374   6.565   6.954  0.2114  0.1034 -0.0791
  440MOL0     C59293   5.324   6.513   6.824  0.4328  0.7958  0.0504
  440MOL0     C59294   5.294   6.631   7.047  0.3546  0.5174  0.2109
  440MOL0     C59295   5.159   6.672   7.028 -0.8454 -0.6545  0.4223
  440MOL0     O59296   5.097   6.710   7.143  0.6919  0.6267 -0.3845
  440MOL0     C59297   4.974   6.771   7.149 -0.0474  0.4963 -0.3077
  440MOL0     C59298   4.901   6.734   7.259  0.6170  0.1865  0.1548
  440MOL0     C59299   4.786   6.803   7.297  0.3645  0.6673  0.2396
  440MOL0     C59300   4.744   6.906   7.212  0.4640 -0.7043 -0.2252
  440MOL0     O59301   4.620   6.974   7.240 -0.3089  0.4068 -0.0654
  440MOL0     C59302   4.512   6.887   7.252  0.3257  0.0980  0.5814
  440MOL0     C59303   4.381   6.973   7.272 -0.9785  0.3303  0.2454
  440MOL0     C59304   4.331   7.036   7.141  0.0654 -0.2407 -0.4138
  440MOL0     C59305   4.230   7.139   7.179  0.6320  0.4545 -0.4861
  440MOL0     C59306   4.178   7.217   7.058  0.0836  0.0373  0.5950
  440MOL0     C59307   4.263   7.311   6.986 -0.4097  0.3775 -0.3223
  440MOL0     C59308   4.204   7.400   6.873 -0.0486  0.1101 -0.8014
  440MOL0     C59309   4.302   7.504   6.831 -0.6343 -0.0829  0.5848
  440MOL0    Cl59310   4.461   7.455   6.766  0.3594 -0.2461  0.3824
  440MOL0     C59311   4.814   6.947   7.105  0.5540 -0.5073 -0.4944
  440MOL0     C59312   4.934   6.884   7.073  0.0140 -0.1188  0.1941
  440MOL0     O59313   5.106   6.660   6.921 -1.1249 -0.2663 -0.7523
  440MOL0     C59314   5.358   6.673   7.163  0.3050  0.5703  0.1044
  440MOL0     C59315   5.483   6.635   7.200  0.2077 -0.0614  0.2266
  440MOL0     N59316   6.113   6.636   7.438  0.2815 -0.1369 -0.3947
  440MOL0     N59317   6.209   6.713   7.458  0.4577  0.3683 -1.1281
  440MOL0     C59318   7.428   6.606   7.886  0.6818  1.3125  0.2946
  440MOL0     C59319   7.547   6.591   7.949 -0.5156 -0.1103 -0.5026
  440MOL0     C59320   8.007   6.671   8.016 -0.2715  0.2681 -0.3190
  440MOL0     C59321   7.971   6.719   8.144  0.2215  0.4588 -0.4827
  440MOL0     C59322   8.070   6.778   8.221  1.2947 -0.8605  0.1344
  440MOL0     C59323   8.204   6.781   8.184  0.4320 -0.0997  0.3281
  440MOL0     O59324   8.284   6.837   8.279 -0.6338 -0.0764  0.3534
  440MOL0     C59325   8.419   6.873   8.242 -0.1129 -0.5987 -0.2446
  440MOL0     C59326   8.478   6.963   8.348  0.2768 -0.0424 -0.5583
  440MOL0     C59327   8.620   6.928   8.378  0.1971 -0.1957  0.2917
  440MOL0     C59328   8.684   7.024   8.483 -0.1305  0.3280 -0.0425
  440MOL0     C59329   8.834   7.011   8.472  0.2840  0.4369 -0.5877
  440MOL0     C59330   8.954   7.025   8.462 -0.8421  0.1682 -0.5574
  440MOL0     C59331   8.242   6.730   8.064  0.1125 -0.1558  0.1600
  440MOL0     C59332   8.141   6.689   7.974  0.3584  0.5110 -1.0126
  440MOL0     H59333   7.767   6.693   7.700  0.2226  1.2445  1.1233
  440MOL0     H59334   7.550   6.691   7.577 -1.6182  1.0243  0.5666
  440MOL0     H59335   7.383   6.694   7.503  1.8208  2.3978  4.9787
  440MOL0     H59336   7.301   6.520   7.526  1.3955 -0.2023  1.0271
  440MOL0     H59337   7.191   6.805   7.540  2.2688  0.3596  1.0783
  440MOL0     H59338   7.176   6.702   7.394  1.5811 -2.4609  0.0260
  440MOL0     H59339   7.043   6.542   7.509 -2.2574 -1.3905  2.1851
  440MOL0     H59340   7.054   6.627   7.667  1.4553 -0.0705 -0.0509
  440MOL0     H59341   6.945   6.828   7.551  0.6510  0.4946  0.3569
  440MOL0     H59342   6.943   6.740   7.405  4.0916  1.5214  0.2263
  440MOL0     H59343   6.822   6.546   7.564 -0.0268 -0.2315  0.2845
  440MOL0     H59344   6.784   6.686   7.665  2.0652  0.4122  0.8497
  440MOL0     H59345   6.696   6.810   7.470 -1.4083 -0.4353 -2.8435
  440MOL0     H59346   6.716   6.659   7.371  1.6681  1.5663 -0.9257
  440MOL0     H59347   6.553   6.538   7.471 -0.0089 -0.7815  0.5338
  440MOL0     H59348   6.522   6.655   7.601  0.4104 -1.9103  0.1659
  440MOL0     H59349   6.485   6.712   7.305  3.9218 -3.0845  1.0127
  440MOL0     H59350   6.437   6.811   7.452  0.2967 -0.0706 -0.3266
  440MOL0     H59351   6.345   6.452   7.302 -0.7961 -0.4264  0.5166
  440MOL0     H59352   6.099   6.336   7.276  1.1239  1.8848 -1.3222
  440MOL0     H59353   5.983   6.381   7.407 -0.6502  1.5977 -0.3222
  440MOL0     H59354   6.011   6.544   7.150  0.2813  1.2547 -0.0579
  440MOL0     H59355   5.893   6.556   7.274  2.0372 -0.0887  0.7096
  440MOL0     H59356   5.840   6.298   7.199 -0.0727 -0.1684  0.4831
  440MOL0     H59357   5.949   6.330   7.073 -2.4150  1.7666 -3.8017
  440MOL0     H59358   5.716   6.368   7.015 -2.6100  0.5150  2.6494
  440MOL0     H59359   5.807   6.519   6.997 -0.3841  0.6624  0.2281
  440MOL0     H59360   5.549   6.450   6.926  0.0008 -0.4814 -0.5845
  440MOL0     H59361   5.253   6.434   6.852 -0.9146  2.6823  2.2961
  440MOL0     H59362   5.262   6.589   6.776 -0.3663  1.9523  2.7262
  440MOL0     H59363   5.394   6.489   6.743  0.6568  0.3896  0.3562
  440MOL0     H59364   4.920   6.644   7.318 -2.6076 -1.3953 -1.0102
  440MOL0     H59365   4.742   6.757   7.384  0.8412 -0.8267 -0.2841
  440MOL0     H59366   4.510   6.818   7.167 -3.8933 -2.0331  2.1515
  440MOL0     H59367   4.528   6.832   7.345 -1.7315 -2.5165 -0.5009
  440MOL0     H59368   4.308   6.906   7.317 -0.0809 -0.5286  0.4512
  440MOL0     H59369   4.419   7.050   7.340  3.0584 -0.2363 -1.0773
  440MOL0     H59370   4.285   6.957   7.081  0.2619 -1.0904  0.5367
  440MOL0     H59371   4.412   7.088   7.089 -0.5311  0.7620 -0.3682
  440MOL0     H59372   4.146   7.092   7.230  0.5087  1.7834  0.5612
  440MOL0     H59373   4.272   7.211   7.250  0.1610  0.9784 -0.7295
  440MOL0     H59374   4.092   7.266   7.106 -1.2507  0.3586 -1.9468
  440MOL0     H59375   4.138   7.157   6.976 -0.0088  2.4861 -1.2934
  440MOL0     H59376   4.304   7.380   7.061  0.9162 -0.0942 -0.5913
  440MOL0     H59377   4.352   7.257   6.955  1.0643  1.9776  0.9468
  440MOL0     H59378   4.111   7.439   6.917 -0.5485 -0.9878 -0.8491
  440MOL0     H59379   4.162   7.348   6.787 -1.3765 -0.7931  0.3451
  440MOL0     H59380   4.326   7.572   6.914 -0.8927  1.4288 -0.5402
  440MOL0     H59381   4.258   7.577   6.763  1.0195 -1.5146 -2.1760
  440MOL0     H59382   4.776   7.031   7.048  0.6647 -1.1347 -1.5266
  440MOL0     H59383   5.001   6.922   6.997  1.5815  0.6222  1.8670
  440MOL0     H59384   5.315   6.751   7.226  0.7622  2.2077 -1.5208
  440MOL0     H59385   5.536   6.690   7.278  2.4403  2.0378 -2.5767
  440MOL0     H59386   7.329   6.587   7.925  0.1585  0.5700 -1.3046
  440MOL0     H59387   7.551   6.561   8.053 -1.2755 -0.8435 -0.6816
  440MOL0     H59388   7.867   6.723   8.176  0.4368 -0.0252  0.3045
  440MOL0     H59389   8.043   6.821   8.317 -1.5992  0.9240 -1.3141
  440MOL0     H59390   8.479   6.783   8.230  1.4732  0.6980 -2.5728
  440MOL0     H59391   8.428   6.926   8.147 -0.7621 -2.3757 -1.3297
  440MOL0     H59392   8.420   6.949   8.440  1.3736 -2.4223 -0.1680
  440MOL0     H59393   8.477   7.064   8.306  0.2395  0.6917  1.1159
  440MOL0     H59394   8.680   6.931   8.286  0.0050 -0.0915  0.1669
  440MOL0     H59395   8.620   6.827   8.420  0.6414 -0.8749 -1.2676
  440MOL0     H59396   8.658   7.002   8.587  0.8241 -1.5957 -0.1612
  440MOL0     H59397   8.661   7.130   8.467  2.3692  0.8418 -0.5793
  440MOL0     H59398   9.057   7.040   8.436 -0.6781  4.3281  1.7048
  440MOL0     H59399   8.339   6.709   8.019 -1.0865  0.5785 -2.9838
  440MOL0     H59400   8.173   6.649   7.878 -1.0230 -0.7478 -0.9709
  441MOL0     O59401   7.660   5.386   8.109  0.4577 -0.2597  0.5243
  441MOL0     C59402   7.653   5.321   8.003 -0.3184  0.3516 -0.3413
  441MOL0     O59403   7.538   5.284   7.932  0.3103  0.1839  0.4040
  441MOL0     C59404   7.415   5.289   7.985  0.3052  0.7665 -1.2002
  441MOL0     C59405   7.369   5.324   8.117  0.3399  0.3629  0.0968
  441MOL0     C59406   7.237   5.311   8.154 -0.0366 -0.5127  0.2467
  441MOL0     C59407   7.146   5.266   8.060 -0.6828 -0.1574  0.4782
  441MOL0     O59408   7.013   5.241   8.080 -0.0100  0.6651  0.1249
  441MOL0     C59409   6.952   5.274   8.207 -0.4370 -0.7950  0.1630
  441MOL0     C59410   6.804   5.282   8.186  0.1380  0.7262  0.6829
  441MOL0     C59411   6.730   5.338   8.300  0.5882 -0.3146  0.4141
  441MOL0     C59412   6.582   5.363   8.256  0.9818  0.5208 -0.3379
  441MOL0     C59413   6.503   5.435   8.377 -0.1943  0.8994  0.3177
  441MOL0     C59414   6.489   5.372   8.512  0.1419 -0.5720  0.2852
  441MOL0     C59415   6.392   5.452   8.594 -0.1881  0.5181  0.3093
  441MOL0     C59416   6.464   5.538   8.691  0.0345  0.0354  0.2287
  441MOL0     N59417   6.370   5.587   8.790  0.1327 -0.5832 -0.7285
  441MOL0     C59418   6.253   5.662   8.780 -0.2211  0.0999  0.3746
  441MOL0     C59419   6.193   5.646   8.896  0.7868 -0.2352  0.4194
  441MOL0     C59420   6.057   5.702   8.927 -0.1478 -0.1124  0.0035
  441MOL0     C59421   6.017   5.689   9.077 -0.0547 -0.8759  0.5859
  441MOL0     C59422   5.900   5.770   9.098  0.7084  0.0140 -0.2580
  441MOL0     C59423   5.839   5.738   9.244 -0.9008 -0.0564 -0.7663
  441MOL0     O59424   5.700   5.773   9.272  1.1181  0.5967 -0.0397
  441MOL0     C59425   5.663   5.769   9.404  0.0514 -0.4718 -0.4161
  441MOL0     C59426   5.566   5.858   9.451  0.0069 -0.2633 -0.2195
  441MOL0     C59427   5.529   5.859   9.582 -0.0908 -0.3005 -0.0072
  441MOL0     C59428   5.412   5.957   9.614  0.0033  0.5880  0.5977
  441MOL0     C59429   5.583   5.770   9.677 -0.4526 -0.7312  0.4135
  441MOL0     C59430   5.544   5.751   9.816  0.2328 -0.5005 -0.6745
  441MOL0     O59431   5.620   5.669   9.895  0.0869 -0.0725  0.2072
  441MOL0     C59432   5.581   5.634  10.025  0.3919  0.3338 -0.2552
  441MOL0     C59433   5.454   5.640  10.084  0.7618  0.5960  0.7581
  441MOL0     C59434   5.436   5.593  10.220  0.8633 -0.3899 -0.1815
  441MOL0     C59435   5.540   5.545  10.296  0.3505  0.5493  0.0463
  441MOL0     O59436   5.515   5.515  10.429 -0.5287 -0.4064 -0.3789
  441MOL0     C59437   5.611   5.461  10.517 -0.5547  0.1250  0.5192
  441MOL0     C59438   5.560   5.470  10.663 -0.1835  0.3090 -0.8679
  441MOL0     C59439   5.442   5.371  10.673  0.7665 -1.0532 -0.2801
  441MOL0     C59440   5.371   5.394  10.806 -0.0951 -0.3187  0.6387
  441MOL0     C59441   5.277   5.275  10.830  0.8825 -0.7002 -0.7243
  441MOL0     C59442   5.194   5.311  10.958 -0.9899 -0.2593  0.0576
  441MOL0     C59443   5.155   5.176  11.035 -0.7723 -0.9918  0.5671
  441MOL0     C59444   5.017   5.121  10.985 -0.1088  0.1224  0.6226
  441MOL0    Cl59445   4.980   4.985  11.092  0.3846  0.2958  0.1527
  441MOL0     C59446   5.669   5.543  10.236 -0.0988 -0.3452 -0.0056
  441MOL0     C59447   5.692   5.581  10.105  0.0085 -0.0530  0.3724
  441MOL0     O59448   5.454   5.828   9.862 -0.1318  0.1291  0.0368
  441MOL0     C59449   5.673   5.677   9.631 -0.7754  0.2392  0.0468
  441MOL0     C59450   5.712   5.673   9.500  0.3411 -0.0360 -0.3946
  441MOL0     N59451   6.263   5.566   8.977 -0.3328  0.1345  0.5345
  441MOL0     N59452   6.370   5.537   8.913 -0.1993  0.0878  0.4369
  441MOL0     C59453   7.187   5.242   7.932  0.7319 -0.0408 -0.2021
  441MOL0     C59454   7.321   5.253   7.896 -0.2058 -1.0728 -0.0239
  441MOL0     C59455   7.781   5.266   7.964 -0.3351  0.2943 -0.0763
  441MOL0     C59456   7.788   5.221   7.832  0.4232  0.0513 -0.4467
  441MOL0     C59457   7.904   5.158   7.777  0.7057  0.2468 -0.7857
  441MOL0     C59458   8.020   5.137   7.858  0.4628  1.4947 -0.3542
  441MOL0     O59459   8.129   5.073   7.796  0.7386 -0.3233  0.1949
  441MOL0     C59460   8.243   5.033   7.872 -0.7546 -0.2225  0.4629
  441MOL0     C59461   8.343   5.143   7.840 -0.4750  0.1654 -0.4524
  441MOL0     C59462   8.486   5.089   7.873  0.2218 -0.1939 -0.2313
  441MOL0     C59463   8.545   4.992   7.774 -0.3124 -0.0643 -0.0101
  441MOL0     C59464   8.555   5.050   7.639  0.4109  0.1898  0.4022
  441MOL0     C59465   8.583   5.060   7.521 -0.1646 -0.2280 -0.5687
  441MOL0     C59466   8.018   5.179   7.994  0.0309  0.2700  0.2776
  441MOL0     C59467   7.898   5.247   8.046 -0.3873 -0.1633 -0.6957
  441MOL0     H59468   7.438   5.359   8.193 -0.1666 -0.1394  0.8079
  441MOL0     H59469   7.219   5.341   8.257 -1.3395  1.5772 -0.5140
  441MOL0     H59470   6.965   5.193   8.280 -4.0850 -0.4984  1.3566
  441MOL0     H59471   6.995   5.370   8.237  2.1416 -2.0610  0.7998
  441MOL0     H59472   6.784   5.344   8.099  0.5984  0.6701  0.5355
  441MOL0     H59473   6.764   5.182   8.165  1.1671  0.5967 -0.7563
  441MOL0     H59474   6.728   5.271   8.386  2.1889  0.5220  1.1396
  441MOL0     H59475   6.782   5.432   8.321 -0.5425 -0.0637  2.4002
  441MOL0     H59476   6.571   5.430   8.170  0.2172  1.9060  0.8212
  441MOL0     H59477   6.532   5.271   8.223 -0.0654 -0.2501  3.0494
  441MOL0     H59478   6.560   5.526   8.399 -0.9361  1.6579 -0.8141
  441MOL0     H59479   6.400   5.452   8.344 -0.1964 -0.0997 -0.2241
  441MOL0     H59480   6.460   5.268   8.495  1.5417 -0.9445  0.0563
  441MOL0     H59481   6.587   5.372   8.561  0.2294  0.8439  0.1587
  441MOL0     H59482   6.329   5.514   8.529  1.8907 -0.9689 -3.4932
  441MOL0     H59483   6.328   5.376   8.639  0.1566  0.1856  0.2406
  441MOL0     H59484   6.521   5.617   8.639  1.0900  0.1262  1.4786
  441MOL0     H59485   6.542   5.481   8.742 -1.9957 -1.7068  1.5114
  441MOL0     H59486   6.222   5.714   8.690 -2.2170 -0.1599  0.8474
  441MOL0     H59487   6.056   5.806   8.893 -0.4610 -0.1853 -0.2178
  441MOL0     H59488   5.975   5.655   8.872 -1.2131 -1.1094  2.3217
  441MOL0     H59489   6.106   5.718   9.134 -1.1108 -1.2203  2.4741
  441MOL0     H59490   5.997   5.582   9.092 -1.6641 -0.2480  3.5473
  441MOL0     H59491   5.816   5.739   9.034 -0.9800 -0.8682  2.2394
  441MOL0     H59492   5.909   5.879   9.098 -2.5454  0.4020  0.4105
  441MOL0     H59493   5.906   5.786   9.316 -1.0020 -0.9756 -0.0334
  441MOL0     H59494   5.840   5.631   9.266 -4.3760  0.2251  1.4763
  441MOL0     H59495   5.513   5.926   9.385  0.0424  0.9672  0.9684
  441MOL0     H59496   5.328   5.911   9.665 -0.9225  2.1237  0.5164
  441MOL0     H59497   5.458   6.027   9.684 -1.0886  2.6314 -0.6362
  441MOL0     H59498   5.371   6.005   9.524 -3.1001  0.6871  1.9494
  441MOL0     H59499   5.368   5.670  10.026  1.5581  0.8651 -0.3298
  441MOL0     H59500   5.343   5.612  10.272  0.0606  0.5932 -1.8869
  441MOL0     H59501   5.640   5.359  10.490  0.4825  0.3164  0.8380
  441MOL0     H59502   5.702   5.522  10.515 -0.0706 -0.5789 -1.6139
  441MOL0     H59503   5.642   5.432  10.725  1.3351  2.0974 -1.6705
  441MOL0     H59504   5.534   5.570  10.697  4.0027  1.3028 -0.0279
  441MOL0     H59505   5.478   5.268  10.667 -1.8483 -1.9679 -2.0757
  441MOL0     H59506   5.370   5.393  10.594  1.8160 -2.1348 -1.5935
  441MOL0     H59507   5.434   5.399  10.895  0.9844  1.4938 -0.1739
  441MOL0     H59508   5.319   5.490  10.807  0.6433  0.1053 -0.1095
  441MOL0     H59509   5.325   5.183  10.863 -1.8632 -0.6812  4.4669
  441MOL0     H59510   5.212   5.257  10.744  0.4385 -2.0318 -0.1343
  441MOL0     H59511   5.247   5.376  11.028 -2.7777  1.9802 -0.5413
  441MOL0     H59512   5.105   5.364  10.924 -0.7389  0.6674  0.8125
  441MOL0     H59513   5.144   5.199  11.142  0.2982  2.6612  0.0410
  441MOL0     H59514   5.233   5.104  11.012  0.3191  1.2638 -3.9794
  441MOL0     H59515   5.025   5.078  10.885  1.9576 -1.0057  1.2099
  441MOL0     H59516   4.934   5.192  10.986 -2.9548 -2.9623 -0.0934
  441MOL0     H59517   5.748   5.498  10.295  0.2832 -0.9713 -0.9778
  441MOL0     H59518   5.793   5.574  10.066  0.7180  1.7832  1.7515
  441MOL0     H59519   5.717   5.606   9.700  0.3261  0.0787 -0.7861
  441MOL0     H59520   5.790   5.603   9.470  1.0960 -0.6841  2.6677
  441MOL0     H59521   7.114   5.208   7.860 -0.5105  0.7229  0.6557
  441MOL0     H59522   7.350   5.236   7.793  0.5492 -0.3547  0.0577
  441MOL0     H59523   7.709   5.242   7.760  0.1028 -0.4992 -0.2655
  441MOL0     H59524   7.913   5.142   7.670  1.5856  0.5267 -0.7632
  441MOL0     H59525   8.227   5.012   7.979  0.2400 -0.9128  0.4884
  441MOL0     H59526   8.276   4.942   7.822  0.8508  2.0591 -2.9968
  441MOL0     H59527   8.324   5.233   7.899 -1.6400 -2.5711  3.7489
  441MOL0     H59528   8.337   5.180   7.737  1.5752  0.3850 -0.5434
  441MOL0     H59529   8.492   5.043   7.972  2.0102 -0.5179 -0.4530
  441MOL0     H59530   8.559   5.170   7.882  2.2394 -1.9553 -0.0256
  441MOL0     H59531   8.471   4.912   7.766  0.1551 -0.4136 -1.1151
  441MOL0     H59532   8.638   4.946   7.807 -1.3420 -0.6360  2.3004
  441MOL0     H59533   8.614   5.069   7.419 -0.0103  2.6418 -0.3487
  441MOL0     H59534   8.106   5.166   8.057  0.4252  2.3846  0.2340
  441MOL0     H59535   7.892   5.295   8.143  1.2129 -1.9116  0.3356
  442MOL0     O59536   1.041   6.048   6.899 -0.3794 -0.7038 -0.4205
  442MOL0     C59537   1.028   6.013   6.780 -0.5644  0.1904 -0.3086
  442MOL0     O59538   0.909   5.981   6.723 -0.6869  0.1289  0.2460
  442MOL0     C59539   0.791   5.997   6.782  0.4038  0.1506  0.1867
  442MOL0     C59540   0.751   6.109   6.862 -1.3937  0.6888 -0.2082
  442MOL0     C59541   0.621   6.118   6.905 -0.0468  0.9731  0.0454
  442MOL0     C59542   0.524   6.029   6.861 -0.5340 -0.7400  0.2596
  442MOL0     O59543   0.397   6.054   6.899  0.0065  0.8079 -0.6384
  442MOL0     C59544   0.290   5.988   6.831  0.1222  0.2421  0.6216
  442MOL0     C59545   0.157   6.058   6.869 -0.0141 -0.2742 -0.1036
  442MOL0     C59546   0.084   5.986   6.984  0.5853  0.1937 -0.7671
  442MOL0     C59547  -0.052   6.044   7.006 -0.8327 -0.1599 -0.4274
  442MOL0     C59548  -0.105   6.031   7.146 -0.3813  0.5956 -0.5926
  442MOL0     C59549  -0.242   6.105   7.167 -0.7420  0.3988  0.2198
  442MOL0     C59550  -0.359   6.057   7.087 -0.0048  0.1654  0.5610
  442MOL0     C59551  -0.494   6.081   7.160 -0.3229 -0.1715  0.1111
  442MOL0     N59552  -0.506   6.198   7.240 -0.4168  0.0263  0.8905
  442MOL0     C59553  -0.526   6.322   7.187 -0.3538  0.0096  0.3506
  442MOL0     C59554  -0.553   6.406   7.294 -0.2805  0.2752  0.1901
  442MOL0     C59555  -0.607   6.550   7.290 -0.2689  0.8967  0.3268
  442MOL0     C59556  -0.753   6.551   7.302 -0.9501 -0.2162  0.2023
  442MOL0     C59557  -0.843   6.445   7.233  0.3695  0.2276  0.1456
  442MOL0     C59558  -0.988   6.462   7.278 -0.0499 -0.4043  0.2858
  442MOL0     O59559  -1.027   6.596   7.268  0.5862 -0.7255  0.6329
  442MOL0     C59560  -1.141   6.639   7.340 -0.3491 -0.2689  0.3811
  442MOL0     C59561  -1.146   6.775   7.379 -0.2402  0.1297 -0.2052
  442MOL0     C59562  -1.269   6.830   7.416  0.0292 -0.4830 -0.3432
  442MOL0     C59563  -1.265   6.977   7.443 -0.8824 -1.2181 -0.3660
  442MOL0     C59564  -1.388   6.754   7.414  1.0932 -0.8075 -0.7315
  442MOL0     C59565  -1.526   6.802   7.459  0.3851 -0.4608  0.3334
  442MOL0     O59566  -1.639   6.735   7.412 -0.0788  0.0079 -0.0932
  442MOL0     C59567  -1.759   6.766   7.468  0.2018  0.0100 -0.1485
  442MOL0     C59568  -1.816   6.896   7.483 -0.4074  0.3946  0.3060
  442MOL0     C59569  -1.949   6.919   7.526 -0.1550  0.3019 -0.7818
  442MOL0     C59570  -2.032   6.804   7.538 -0.0185  0.2655 -0.2312
  442MOL0     O59571  -2.171   6.820   7.561 -0.2549  0.5262  0.3989
  442MOL0     C59572  -2.263   6.780   7.456 -0.3883  1.2015  0.6507
  442MOL0     C59573  -2.398   6.849   7.469  0.5015  0.0548  0.0181
  442MOL0     C59574  -2.392   6.978   7.385 -0.0791  0.1200 -0.5143
  442MOL0     C59575  -2.527   7.028   7.338  0.2389 -0.2083  0.3801
  442MOL0     C59576  -2.508   7.152   7.251  0.0372  0.1806  0.9726
  442MOL0     C59577  -2.648   7.205   7.210  1.2152  0.0211 -0.2699
  442MOL0     C59578  -2.630   7.319   7.100 -0.2131  0.3728  0.0678
  442MOL0     C59579  -2.743   7.420   7.117  0.2564 -0.4400  0.1171
  442MOL0    Cl59580  -2.898   7.369   7.022 -0.1570  0.1358 -0.3442
  442MOL0     C59581  -1.983   6.679   7.512 -0.3910  0.6221 -0.2440
  442MOL0     C59582  -1.851   6.656   7.485 -0.2940  0.1480  0.6948
  442MOL0     O59583  -1.531   6.893   7.543 -0.3095 -0.2808  0.6316
  442MOL0     C59584  -1.379   6.618   7.393  0.1770  0.3337  0.9329
  442MOL0     C59585  -1.257   6.560   7.363 -0.3659 -0.4340  0.5654
  442MOL0     N59586  -0.546   6.335   7.410  0.0964  0.6872  0.4943
  442MOL0     N59587  -0.510   6.218   7.372 -1.0212 -0.0543  0.3145
  442MOL0     C59588   0.561   5.914   6.791  0.6222 -0.0034 -0.8518
  442MOL0     C59589   0.691   5.897   6.754 -0.2714 -0.0875 -0.0412
  442MOL0     C59590   1.151   6.003   6.701  0.4665 -0.4640  0.5397
  442MOL0     C59591   1.261   6.072   6.748 -1.0488  0.6048 -0.1828
  442MOL0     C59592   1.380   6.072   6.678 -0.5417 -0.4751 -0.6077
  442MOL0     C59593   1.405   5.982   6.571 -0.5879  0.0023  0.0673
  442MOL0     O59594   1.526   5.976   6.510 -0.7723  0.0964  0.2139
  442MOL0     C59595   1.615   6.090   6.511 -0.2590  0.1978 -0.4116
  442MOL0     C59596   1.705   6.070   6.394  0.1229  0.4476 -0.9428
  442MOL0     C59597   1.817   5.966   6.421 -0.2033 -0.4370 -0.7426
  442MOL0     C59598   1.889   5.929   6.288  0.2522  0.1941  0.6245
  442MOL0     C59599   1.990   6.026   6.267 -0.2908  0.5386  0.8626
  442MOL0     C59600   2.092   6.092   6.259  0.8608  0.4054 -0.1702
  442MOL0     C59601   1.293   5.906   6.531 -0.4367  0.6228 -0.4159
  442MOL0     C59602   1.170   5.908   6.595 -0.2138 -0.3935  0.0058
  442MOL0     H59603   0.825   6.185   6.884  0.2609 -0.7628 -0.5906
  442MOL0     H59604   0.594   6.197   6.974 -0.4809  1.1755 -0.3541
  442MOL0     H59605   0.312   6.011   6.727  0.6972 -1.2565  0.3757
  442MOL0     H59606   0.296   5.879   6.843  1.4583  0.1262 -0.8172
  442MOL0     H59607   0.175   6.164   6.885 -0.1768 -0.2939  0.2234
  442MOL0     H59608   0.086   6.042   6.787  0.6190 -0.4632 -0.6249
  442MOL0     H59609   0.072   5.878   6.967  2.4317 -0.1592 -0.0074
  442MOL0     H59610   0.150   5.986   7.071 -2.7398 -0.6844  2.0102
  442MOL0     H59611  -0.032   6.150   6.985  2.2437 -0.4952  0.3023
  442MOL0     H59612  -0.118   6.021   6.922  1.7593 -3.3817 -1.8271
  442MOL0     H59613  -0.109   5.926   7.175 -2.0554  0.6942 -0.3290
  442MOL0     H59614  -0.023   6.068   7.209  2.3413 -2.7867 -1.8719
  442MOL0     H59615  -0.272   6.079   7.269 -1.4814 -1.7234 -0.4714
  442MOL0     H59616  -0.216   6.211   7.160 -0.1117  0.2809  0.6673
  442MOL0     H59617  -0.358   6.116   6.995  2.4145 -0.3357  0.1799
  442MOL0     H59618  -0.358   5.953   7.052  0.9900  0.8253 -1.5305
  442MOL0     H59619  -0.497   6.000   7.233 -1.3979 -1.2163 -1.0478
  442MOL0     H59620  -0.579   6.063   7.093  0.0017 -1.3190 -0.0180
  442MOL0     H59621  -0.525   6.349   7.082  2.2464  1.1460  0.5860
  442MOL0     H59622  -0.555   6.609   7.365  0.7990  0.1766  0.1706
  442MOL0     H59623  -0.577   6.598   7.196 -1.6643 -1.4462 -1.4402
  442MOL0     H59624  -0.775   6.654   7.272  4.7263  1.4245  0.6513
  442MOL0     H59625  -0.780   6.543   7.408  0.6881  0.5491  0.7041
  442MOL0     H59626  -0.802   6.346   7.251  2.2600  1.0807  0.7328
  442MOL0     H59627  -0.849   6.464   7.125 -0.2727 -1.7631 -0.2031
  442MOL0     H59628  -0.988   6.423   7.380 -1.2908 -2.1087 -0.3336
  442MOL0     H59629  -1.052   6.392   7.224  1.3951 -1.7809  0.2945
  442MOL0     H59630  -1.052   6.826   7.358  0.9677 -2.5337 -1.6945
  442MOL0     H59631  -1.204   6.996   7.532  0.7354 -3.5872 -0.8731
  442MOL0     H59632  -1.219   7.031   7.360  0.2888 -1.0883  0.3537
  442MOL0     H59633  -1.363   7.026   7.453  0.9576  2.9150 -0.5024
  442MOL0     H59634  -1.759   6.989   7.477 -0.4831  0.4026 -0.3447
  442MOL0     H59635  -1.992   7.019   7.522 -0.5113  0.1381 -1.1257
  442MOL0     H59636  -2.220   6.793   7.357 -0.9670 -0.4072  0.1549
  442MOL0     H59637  -2.284   6.673   7.454 -1.5218  1.4129  0.2586
  442MOL0     H59638  -2.467   6.783   7.418  2.0868 -0.0891 -2.0743
  442MOL0     H59639  -2.430   6.878   7.570 -4.0632  2.5738 -1.8537
  442MOL0     H59640  -2.346   6.965   7.286 -1.1429  1.1793 -1.1754
  442MOL0     H59641  -2.341   7.059   7.439  1.5241 -1.9826  1.3083
  442MOL0     H59642  -2.566   6.946   7.277  2.5330 -0.7450 -0.4513
  442MOL0     H59643  -2.595   7.045   7.422 -0.7522  2.9996 -0.9481
  442MOL0     H59644  -2.442   7.127   7.167 -1.1089 -3.9794  1.0909
  442MOL0     H59645  -2.473   7.232   7.318 -0.7305 -0.6825  2.4634
  442MOL0     H59646  -2.711   7.122   7.175  1.3657  0.8031 -2.5683
  442MOL0     H59647  -2.691   7.251   7.299  2.3614  1.9533 -0.6742
  442MOL0     H59648  -2.618   7.279   6.999  3.0493  2.2111 -0.4200
  442MOL0     H59649  -2.531   7.365   7.112  0.1566 -0.7918  1.6639
  442MOL0     H59650  -2.695   7.510   7.078  5.3619 -1.6482  2.6650
  442MOL0     H59651  -2.771   7.442   7.221  1.8339 -1.4557  0.8010
  442MOL0     H59652  -2.050   6.598   7.484  2.1269 -0.7024 -2.9243
  442MOL0     H59653  -1.820   6.552   7.483  1.6888  0.6873  0.5439
  442MOL0     H59654  -1.462   6.548   7.405  0.2513  0.0273 -0.1977
  442MOL0     H59655  -1.261   6.453   7.343 -1.1895 -0.8797  2.8472
  442MOL0     H59656   0.497   5.831   6.761  1.9870 -0.5810 -2.3059
  442MOL0     H59657   0.717   5.809   6.697 -0.1381 -1.3421  1.8745
  442MOL0     H59658   1.242   6.148   6.823 -0.0200 -0.0599  0.7838
  442MOL0     H59659   1.453   6.151   6.692 -1.4582  0.2549  0.1268
  442MOL0     H59660   1.560   6.183   6.493  2.8495  2.1944 -0.1886
  442MOL0     H59661   1.676   6.092   6.601 -0.0280  0.0627 -0.5659
  442MOL0     H59662   1.742   6.170   6.370 -6.4386  4.0406  1.4286
  442MOL0     H59663   1.643   6.040   6.309  0.1866  2.2633 -1.6738
  442MOL0     H59664   1.762   5.879   6.458 -1.6573  1.3389  1.5393
  442MOL0     H59665   1.888   5.993   6.499 -2.3520 -0.6934  1.4230
  442MOL0     H59666   1.816   5.933   6.206  0.4165 -2.5969  0.2521
  442MOL0     H59667   1.937   5.831   6.293 -2.6401 -1.4630 -1.2283
  442MOL0     H59668   2.176   6.158   6.258  0.7938  0.5208 -2.1497
  442MOL0     H59669   1.305   5.846   6.442  1.0205 -0.5883  0.5328
  442MOL0     H59670   1.087   5.846   6.563 -0.1578 -0.7405  0.5131
  443MOL0     O59671   1.791   9.944   1.450  0.2627 -0.3424  0.4979
  443MOL0     C59672   1.840  10.058   1.470  0.6237  0.9085  0.2023
  443MOL0     O59673   1.778  10.179   1.437  0.2014 -0.9714  0.1427
  443MOL0     C59674   1.655  10.178   1.380  0.0175  0.4521 -0.2028
  443MOL0     C59675   1.635  10.226   1.248 -0.0739  0.7897  0.0802
  443MOL0     C59676   1.510  10.204   1.181  0.4791  0.2596 -1.3044
  443MOL0     C59677   1.401  10.157   1.258  0.0551 -0.4019 -0.9189
  443MOL0     O59678   1.290  10.130   1.192 -0.0195 -0.0304  0.0693
  443MOL0     C59679   1.174  10.208   1.243 -0.5902 -0.6266  0.7953
  443MOL0     C59680   1.185  10.351   1.178  0.9057 -0.3035 -1.3935
  443MOL0     C59681   1.094  10.449   1.265 -0.7737 -0.1665  0.1543
  443MOL0     C59682   0.957  10.405   1.292  0.5825  0.0940  0.5297
  443MOL0     C59683   0.870  10.524   1.351  0.2562 -0.1408 -0.4555
  443MOL0     C59684   0.835  10.635   1.242  0.0201  0.4980 -0.1072
  443MOL0     C59685   0.700  10.705   1.264 -0.5529  0.5625  0.7955
  443MOL0     C59686   0.659  10.812   1.161 -0.3287  0.3741 -0.1225
  443MOL0     N59687   0.536  10.893   1.181 -0.7874 -0.6324 -0.2939
  443MOL0     C59688   0.410  10.850   1.161  0.3811 -0.3111 -0.0207
  443MOL0     C59689   0.328  10.953   1.202  0.4606  0.2342 -0.3431
  443MOL0     C59690   0.181  10.932   1.169 -0.6846  0.2615 -0.6102
  443MOL0     C59691   0.133  11.016   1.059 -0.0146  0.1264 -0.4338
  443MOL0     C59692  -0.016  10.991   1.021  0.2972 -0.0442  0.3421
  443MOL0     C59693  -0.082  11.100   0.943  0.2618  0.3897 -0.1758
  443MOL0     O59694  -0.224  11.081   0.941 -0.9603  0.2591  0.7045
  443MOL0     C59695  -0.311  11.183   0.927 -0.8923  0.3698 -0.1432
  443MOL0     C59696  -0.444  11.166   0.961  0.1806 -0.0456  0.5164
  443MOL0     C59697  -0.541  11.274   0.952  0.0861  0.5265  1.5770
  443MOL0     C59698  -0.678  11.244   0.999 -0.5068 -0.0796 -0.1340
  443MOL0     C59699  -0.499  11.402   0.901  0.0166 -0.3118  0.0803
  443MOL0     C59700  -0.601  11.527   0.893 -0.0816  0.1475 -0.4072
  443MOL0     O59701  -0.538  11.645   0.872  0.5228  0.1045 -0.6723
  443MOL0     C59702  -0.614  11.762   0.881 -0.2561 -0.2671  0.4959
  443MOL0     C59703  -0.610  11.848   0.995 -0.0176 -0.2396 -0.5080
  443MOL0     C59704  -0.689  11.961   0.998  0.7470 -0.0377  0.2559
  443MOL0     C59705  -0.765  12.005   0.880 -0.7501  0.5959  0.7585
  443MOL0     O59706  -0.823  12.127   0.870 -0.1979  0.0936  0.0547
  443MOL0     C59707  -0.788  12.231   0.962 -0.4118 -0.2726  0.5777
  443MOL0     C59708  -0.865  12.349   0.904 -0.5564  0.1476 -0.4411
  443MOL0     C59709  -1.023  12.333   0.913 -0.6193 -0.2726  0.4146
  443MOL0     C59710  -1.089  12.457   0.856  0.0625  0.2510 -0.1502
  443MOL0     C59711  -1.238  12.456   0.882 -1.4425  0.4909  0.0369
  443MOL0     C59712  -1.290  12.579   0.835 -0.5981 -0.5224  0.4532
  443MOL0     C59713  -1.259  12.617   0.692 -0.2276  0.8736  0.0315
  443MOL0     C59714  -1.319  12.759   0.651 -0.2518 -0.0980  0.4250
  443MOL0    Cl59715  -1.487  12.790   0.711  0.0460 -0.5185 -0.3191
  443MOL0     C59716  -0.763  11.911   0.768  0.6029 -0.5685 -0.0331
  443MOL0     C59717  -0.687  11.798   0.771  0.0097 -0.4129 -0.1220
  443MOL0     O59718  -0.717  11.514   0.931  0.5520  0.2382  0.3379
  443MOL0     C59719  -0.361  11.410   0.878 -0.2040 -0.8404  0.2460
  443MOL0     C59720  -0.270  11.303   0.883 -0.8735 -0.4153  0.2766
  443MOL0     N59721   0.410  11.062   1.235 -0.3221  0.4901  0.3712
  443MOL0     N59722   0.532  11.024   1.206  0.1220 -0.5201 -0.0231
  443MOL0     C59723   1.421  10.127   1.388  1.0933  0.6418  0.5034
  443MOL0     C59724   1.542  10.120   1.453 -0.1402 -0.9395 -0.5799
  443MOL0     C59725   1.963  10.063   1.556 -0.8299 -1.1433  1.2405
  443MOL0     C59726   2.038   9.956   1.584  0.1110 -0.9490  0.4437
  443MOL0     C59727   2.164   9.959   1.639 -0.1023  0.3838 -0.3537
  443MOL0     C59728   2.217  10.080   1.669 -0.1753  0.2113  0.0453
  443MOL0     O59729   2.351  10.078   1.702  0.4901 -0.3007 -0.4311
  443MOL0     C59730   2.408  10.207   1.714  0.6027  0.6361 -1.3944
  443MOL0     C59731   2.557  10.207   1.749  0.1988  0.9552 -0.9313
  443MOL0     C59732   2.626  10.339   1.730 -0.7722  0.2403 -0.3871
  443MOL0     C59733   2.596  10.452   1.833  1.0416  1.6897 -1.4760
  443MOL0     C59734   2.679  10.452   1.951  0.3897 -1.0284  0.4445
  443MOL0     C59735   2.737  10.471   2.053 -0.2936 -0.3788  0.4455
  443MOL0     C59736   2.134  10.193   1.656 -0.3745 -0.6172  0.9433
  443MOL0     C59737   2.004  10.185   1.603 -0.7607 -0.2103  0.6508
  443MOL0     H59738   1.714  10.282   1.198 -0.9600  1.6374 -0.3894
  443MOL0     H59739   1.495  10.225   1.075  0.8015  0.1795 -1.3665
  443MOL0     H59740   1.085  10.148   1.225 -1.7442  0.8561  1.3614
  443MOL0     H59741   1.177  10.221   1.351 -1.8195  0.3168  0.7404
  443MOL0     H59742   1.288  10.387   1.186  0.7664  0.3921 -2.5154
  443MOL0     H59743   1.141  10.352   1.078 -0.2336 -3.1635 -1.0127
  443MOL0     H59744   1.145  10.465   1.360  0.9987 -2.1253 -0.4094
  443MOL0     H59745   1.095  10.550   1.222 -0.3615 -0.4251 -0.4678
  443MOL0     H59746   0.908  10.355   1.208 -0.5165  1.3448  0.4021
  443MOL0     H59747   0.970  10.331   1.372 -0.8740 -0.6397  0.1200
  443MOL0     H59748   0.782  10.482   1.400  1.1167 -1.4015  0.0337
  443MOL0     H59749   0.924  10.569   1.434 -0.2048  2.0204 -1.2497
  443MOL0     H59750   0.903  10.721   1.246 -2.4510  2.5525  3.5293
  443MOL0     H59751   0.850  10.590   1.144  1.8776 -2.4196  1.3897
  443MOL0     H59752   0.622  10.629   1.270 -1.8683  1.7679 -0.2520
  443MOL0     H59753   0.705  10.756   1.360  1.6289  1.7772  0.0883
  443MOL0     H59754   0.640  10.752   1.071 -1.9384  0.1830  0.3284
  443MOL0     H59755   0.741  10.883   1.147  2.2798 -2.6690 -1.4243
  443MOL0     H59756   0.384  10.758   1.110  1.2728 -0.5897  0.0073
  443MOL0     H59757   0.170  10.829   1.133  1.1533  0.6850 -2.5119
  443MOL0     H59758   0.132  10.956   1.264 -1.9548 -2.1255 -0.5822
  443MOL0     H59759   0.187  11.005   0.964 -2.7523  2.1394 -2.3895
  443MOL0     H59760   0.146  11.121   1.088  0.1915  0.0329 -0.1864
  443MOL0     H59761  -0.072  10.971   1.112 -0.6966 -1.3495 -0.5128
  443MOL0     H59762  -0.020  10.899   0.961  2.4648 -1.0376  1.6217
  443MOL0     H59763  -0.044  11.094   0.841  0.1998  1.5358 -0.2885
  443MOL0     H59764  -0.059  11.200   0.983 -1.4878  0.8644 -0.2751
  443MOL0     H59765  -0.479  11.066   0.986 -0.0040  0.0459  0.6290
  443MOL0     H59766  -0.706  11.288   1.095 -0.7149  0.6821 -0.5371
  443MOL0     H59767  -0.755  11.275   0.927  1.4543 -1.0330 -2.8100
  443MOL0     H59768  -0.695  11.137   1.014 -0.6489  0.1909  1.9208
  443MOL0     H59769  -0.549  11.811   1.077 -2.5329 -4.4119 -0.2573
  443MOL0     H59770  -0.678  12.027   1.084  0.2390  4.0027 -2.5008
  443MOL0     H59771  -0.817  12.212   1.066 -0.3592 -0.1954  0.6066
  443MOL0     H59772  -0.683  12.256   0.946 -1.3751  2.9847 -1.8476
  443MOL0     H59773  -0.838  12.444   0.952  0.7369 -1.5310  2.3995
  443MOL0     H59774  -0.831  12.359   0.800 -0.9684  2.6050 -0.4147
  443MOL0     H59775  -1.055  12.316   1.016  0.9395 -2.0898  0.6495
  443MOL0     H59776  -1.038  12.242   0.855  2.9341 -0.8567  0.1939
  443MOL0     H59777  -1.058  12.555   0.894  1.0392 -0.3741  0.7239
  443MOL0     H59778  -1.064  12.456   0.749 -0.4331  0.4586 -0.2701
  443MOL0     H59779  -1.247  12.455   0.991  0.9268  0.9918  0.2882
  443MOL0     H59780  -1.292  12.372   0.836 -1.4188 -0.8406  2.2842
  443MOL0     H59781  -1.398  12.582   0.849 -0.7142 -3.2371  0.5444
  443MOL0     H59782  -1.258  12.657   0.905 -0.4978 -1.2734  1.2636
  443MOL0     H59783  -1.298  12.543   0.623  1.6478 -0.7302  0.6042
  443MOL0     H59784  -1.150  12.620   0.681  0.0854 -2.4710  1.2690
  443MOL0     H59785  -1.326  12.763   0.542 -2.9653 -1.0409  0.4848
  443MOL0     H59786  -1.253  12.830   0.701 -1.3686  1.4472 -0.2488
  443MOL0     H59787  -0.818  11.926   0.675  3.2101 -2.6387 -2.0678
  443MOL0     H59788  -0.688  11.733   0.684 -0.3565  0.1726 -0.5728
  443MOL0     H59789  -0.313  11.502   0.845 -0.6265 -1.0412 -0.9376
  443MOL0     H59790  -0.175  11.313   0.832 -2.1880  0.8167 -2.1639
  443MOL0     H59791   1.333  10.087   1.436 -0.5517  0.2089 -2.6474
  443MOL0     H59792   1.556  10.089   1.556 -2.2234  0.3493  0.1598
  443MOL0     H59793   2.002   9.857   1.558  1.4102 -2.2677  3.2275
  443MOL0     H59794   2.224   9.869   1.649 -1.7644 -0.9803 -1.8662
  443MOL0     H59795   2.392  10.253   1.616 -0.3739  1.1583 -0.9990
  443MOL0     H59796   2.370  10.268   1.797  1.2387 -0.1952 -0.4746
  443MOL0     H59797   2.592  10.125   1.686  0.8037 -1.5727  2.3661
  443MOL0     H59798   2.575  10.180   1.854 -0.9160  0.0648 -0.9521
  443MOL0     H59799   2.588  10.373   1.633 -2.9738 -1.9711 -0.3966
  443MOL0     H59800   2.734  10.322   1.724 -0.8114  0.0582 -0.5618
  443MOL0     H59801   2.497  10.425   1.870  2.7805 -0.5334  2.0735
  443MOL0     H59802   2.595  10.551   1.787  0.1638  1.8904 -1.0435
  443MOL0     H59803   2.791  10.486   2.145  0.8078 -1.2997 -0.0205
  443MOL0     H59804   2.160  10.296   1.680 -1.7399 -0.2440  0.8980
  443MOL0     H59805   1.957  10.279   1.575 -0.0293 -0.0811 -0.2236
  444MOL0     O59806   2.574   4.516   1.094 -0.7013  0.1977 -0.3836
  444MOL0     C59807   2.599   4.599   1.182 -0.2055 -0.4549 -0.6752
  444MOL0     O59808   2.500   4.681   1.234 -0.2348 -0.1340 -0.4204
  444MOL0     C59809   2.392   4.713   1.153  0.2160 -0.9431  0.5399
  444MOL0     C59810   2.258   4.705   1.187 -0.5729 -0.8525  0.3632
  444MOL0     C59811   2.168   4.747   1.097  0.4754 -0.0894  0.8157
  444MOL0     C59812   2.195   4.806   0.979  0.8929 -0.0186  0.3591
  444MOL0     O59813   2.092   4.850   0.894 -0.6263 -0.9125  0.4323
  444MOL0     C59814   2.039   4.736   0.820  0.4119  0.7331 -0.4146
  444MOL0     C59815   1.898   4.706   0.871 -0.7301  0.2101 -0.1004
  444MOL0     C59816   1.824   4.617   0.780 -0.2983  0.1101  0.0054
  444MOL0     C59817   1.713   4.550   0.850  0.2027  0.0686  0.6236
  444MOL0     C59818   1.624   4.465   0.751 -0.0734 -0.0897 -0.8285
  444MOL0     C59819   1.502   4.417   0.837 -0.5911 -0.4813 -0.0355
  444MOL0     C59820   1.417   4.329   0.760  0.0761 -0.0803 -0.4343
  444MOL0     C59821   1.292   4.291   0.845 -0.4383  0.2739  0.2305
  444MOL0     N59822   1.161   4.293   0.774  0.3152 -0.2721  0.8079
  444MOL0     C59823   1.128   4.224   0.658  0.1395  0.8098 -0.9867
  444MOL0     C59824   1.002   4.262   0.614  0.1146  0.6522 -0.4041
  444MOL0     C59825   0.936   4.216   0.485 -0.1191 -0.2090  0.4756
  444MOL0     C59826   0.978   4.297   0.358 -0.0154  0.0876 -0.1503
  444MOL0     C59827   1.137   4.301   0.344 -0.2421 -0.5611  0.0725
  444MOL0     C59828   1.179   4.364   0.207  0.4249 -0.0504 -0.2724
  444MOL0     O59829   1.312   4.306   0.175 -0.1873 -0.5542 -0.2852
  444MOL0     C59830   1.430   4.368   0.210 -0.7485 -0.0682  0.1498
  444MOL0     C59831   1.454   4.501   0.265  0.2067  0.5656 -0.6229
  444MOL0     C59832   1.589   4.545   0.293 -0.1280 -0.4706 -0.5871
  444MOL0     C59833   1.608   4.679   0.352  1.1446 -0.4948  0.3097
  444MOL0     C59834   1.697   4.455   0.279 -0.1033  0.1801 -0.9469
  444MOL0     C59835   1.833   4.484   0.319 -0.4337  0.1031 -0.6482
  444MOL0     O59836   1.890   4.384   0.390  0.1021 -0.0941 -0.3212
  444MOL0     C59837   2.015   4.392   0.445 -1.0532  0.9887 -0.1273
  444MOL0     C59838   2.097   4.278   0.435 -0.4286  0.0184 -0.3619
  444MOL0     C59839   2.216   4.263   0.501 -0.3492  0.5455 -0.1936
  444MOL0     C59840   2.274   4.377   0.564  0.3455 -0.6563  0.2278
  444MOL0     O59841   2.409   4.367   0.604  0.0876  0.4624 -0.3096
  444MOL0     C59842   2.454   4.462   0.702 -0.7195 -0.0683 -0.6645
  444MOL0     C59843   2.602   4.413   0.722  0.8161  0.0472 -0.4152
  444MOL0     C59844   2.593   4.299   0.831 -0.6299 -0.1163 -0.3988
  444MOL0     C59845   2.736   4.264   0.876 -0.5681 -0.2309 -0.4560
  444MOL0     C59846   2.761   4.132   0.944 -0.0086 -0.0249  1.5433
  444MOL0     C59847   2.905   4.131   0.994  0.0501  0.3064  0.2133
  444MOL0     C59848   2.945   4.004   1.070  0.6028  1.1677  0.7088
  444MOL0     C59849   2.991   3.894   0.970  0.5129  0.5579 -0.0277
  444MOL0    Cl59850   3.029   3.734   1.040 -0.3169  0.2677  0.2611
  444MOL0     C59851   2.201   4.496   0.565  0.1781 -1.3518  0.3325
  444MOL0     C59852   2.067   4.502   0.514  0.2282 -0.4017  0.5806
  444MOL0     O59853   1.892   4.582   0.283 -0.3896 -0.2810  0.4508
  444MOL0     C59854   1.664   4.326   0.234  0.6354 -0.5619  0.0533
  444MOL0     C59855   1.536   4.288   0.201  0.2592 -0.7870  0.2119
  444MOL0     N59856   0.961   4.357   0.714  0.0884 -0.1515  0.3077
  444MOL0     N59857   1.050   4.373   0.801  0.1464 -0.9885 -0.5042
  444MOL0     C59858   2.322   4.823   0.941  0.8960 -0.2123 -0.3500
  444MOL0     C59859   2.424   4.776   1.027 -0.1694 -0.1525  0.3225
  444MOL0     C59860   2.735   4.592   1.252  0.4109 -0.3436  0.8519
  444MOL0     C59861   2.755   4.657   1.376  0.1188  0.2772  0.2300
  444MOL0     C59862   2.878   4.661   1.448  0.2433 -0.5633 -0.3053
  444MOL0     C59863   2.980   4.584   1.399 -0.2623  0.3640  0.0976
  444MOL0     O59864   3.090   4.563   1.482 -0.3596  0.3969 -0.3483
  444MOL0     C59865   3.163   4.438   1.474 -0.0634  0.7046  0.6310
  444MOL0     C59866   3.275   4.432   1.563 -0.3990  0.2890  0.0787
  444MOL0     C59867   3.224   4.432   1.715 -0.0000 -0.6424  0.0972
  444MOL0     C59868   3.333   4.448   1.819 -0.4021 -0.0593  0.0754
  444MOL0     C59869   3.415   4.323   1.830 -0.3658 -0.0124  0.4981
  444MOL0     C59870   3.474   4.216   1.833 -0.1662  0.2483  0.6218
  444MOL0     C59871   2.961   4.513   1.279  0.1827 -0.2704  0.2495
  444MOL0     C59872   2.846   4.523   1.202 -0.2709  0.1792 -0.1442
  444MOL0     H59873   2.220   4.660   1.278 -0.5323 -1.9304 -0.1345
  444MOL0     H59874   2.065   4.731   1.125  1.0162 -0.7035  2.6059
  444MOL0     H59875   2.026   4.772   0.718 -1.9105 -1.6809 -1.0679
  444MOL0     H59876   2.103   4.648   0.819 -2.4041 -1.5307  0.9987
  444MOL0     H59877   1.908   4.663   0.971  1.5293  0.7955 -0.0152
  444MOL0     H59878   1.845   4.801   0.867  1.2779  1.4308  0.7689
  444MOL0     H59879   1.786   4.690   0.708  0.3555  1.1205  0.6579
  444MOL0     H59880   1.887   4.548   0.724 -2.3543 -0.5536 -1.6165
  444MOL0     H59881   1.759   4.491   0.929  2.4536 -1.1494 -1.5015
  444MOL0     H59882   1.648   4.626   0.895  1.0913  2.0490 -1.2823
  444MOL0     H59883   1.595   4.526   0.665  0.7310 -0.6861 -1.5411
  444MOL0     H59884   1.687   4.381   0.719 -0.1780 -0.5316  0.1052
  444MOL0     H59885   1.534   4.368   0.929 -1.8760 -1.3262 -0.0214
  444MOL0     H59886   1.448   4.508   0.863 -0.0212 -0.3730  0.8310
  444MOL0     H59887   1.380   4.379   0.670 -0.3925  1.1436  0.4149
  444MOL0     H59888   1.476   4.238   0.745  0.0719 -0.1165 -0.2291
  444MOL0     H59889   1.271   4.359   0.928 -1.3540  0.7322 -0.3674
  444MOL0     H59890   1.303   4.192   0.890  1.4210  0.7293  0.8481
  444MOL0     H59891   1.203   4.161   0.611  0.3156 -1.1139  1.6785
  444MOL0     H59892   0.950   4.108   0.470  1.4781  0.1513 -0.8999
  444MOL0     H59893   0.828   4.225   0.498 -0.5870 -0.3767 -2.5974
  444MOL0     H59894   0.952   4.403   0.363  2.3914  0.6984  0.9549
  444MOL0     H59895   0.943   4.246   0.269  0.3310 -0.8256  0.2243
  444MOL0     H59896   1.170   4.198   0.353  1.1171  0.0421  3.3271
  444MOL0     H59897   1.186   4.360   0.422  2.8414 -2.2571 -0.4434
  444MOL0     H59898   1.182   4.473   0.205 -0.8142 -0.0079 -1.6873
  444MOL0     H59899   1.108   4.336   0.128 -1.4603 -0.5900  1.5259
  444MOL0     H59900   1.365   4.559   0.284  0.2306  0.8505 -1.3408
  444MOL0     H59901   1.592   4.663   0.459 -4.1581  0.8711 -0.0008
  444MOL0     H59902   1.707   4.722   0.333 -0.0675  3.1722  1.4617
  444MOL0     H59903   1.533   4.740   0.302  1.2906 -1.0766 -0.6441
  444MOL0     H59904   2.056   4.197   0.375  0.2746 -0.6542  0.0481
  444MOL0     H59905   2.277   4.173   0.502  3.9278  3.1633 -0.0213
  444MOL0     H59906   2.450   4.566   0.668 -1.2201  0.1338 -0.0091
  444MOL0     H59907   2.386   4.463   0.787 -0.4028  1.1488 -0.4058
  444MOL0     H59908   2.635   4.367   0.628  0.4799 -1.6520  0.2547
  444MOL0     H59909   2.668   4.494   0.753  2.1677 -1.3107  0.4327
  444MOL0     H59910   2.556   4.206   0.787  0.5257 -0.6235 -0.3199
  444MOL0     H59911   2.535   4.329   0.919 -0.9173 -0.6094 -0.4141
  444MOL0     H59912   2.807   4.260   0.793  0.9317  0.3702  0.7513
  444MOL0     H59913   2.766   4.342   0.946  0.5048 -0.3604 -0.7580
  444MOL0     H59914   2.744   4.053   0.870 -0.7960  1.3401  0.2077
  444MOL0     H59915   2.685   4.109   1.019 -1.7988 -1.4444 -0.5717
  444MOL0     H59916   2.971   4.147   0.908  1.2116 -0.4537  0.9292
  444MOL0     H59917   2.919   4.212   1.066 -1.2401 -0.9366  1.9592
  444MOL0     H59918   2.868   3.959   1.133  0.2512 -0.3964 -0.7718
  444MOL0     H59919   3.021   4.024   1.147  1.3794 -1.0469  0.6093
  444MOL0     H59920   3.089   3.919   0.927  2.1155 -2.4553  1.5616
  444MOL0     H59921   2.912   3.879   0.896  2.0289 -0.6170 -1.4735
  444MOL0     H59922   2.242   4.593   0.590 -1.5463  0.1313 -2.0676
  444MOL0     H59923   2.013   4.594   0.533  3.6931  2.1936 -0.9801
  444MOL0     H59924   1.739   4.248   0.223  0.5135 -0.4085 -2.3502
  444MOL0     H59925   1.527   4.189   0.156 -2.6004  0.7071 -2.9662
  444MOL0     H59926   2.341   4.880   0.850 -0.1834  2.7583  1.1724
  444MOL0     H59927   2.528   4.805   1.014 -0.1799  1.2040  2.8162
  444MOL0     H59928   2.671   4.715   1.412 -0.2488 -0.4649  0.5885
  444MOL0     H59929   2.875   4.720   1.539 -0.1729 -0.6248 -0.2768
  444MOL0     H59930   3.094   4.356   1.492  0.2133  0.7585  2.1012
  444MOL0     H59931   3.212   4.423   1.377  4.6341 -1.2065  2.9465
  444MOL0     H59932   3.345   4.514   1.547  0.9224 -0.7555  0.3124
  444MOL0     H59933   3.335   4.342   1.547 -0.6022 -0.1519  1.6385
  444MOL0     H59934   3.163   4.343   1.729 -0.8390 -0.2852 -1.1135
  444MOL0     H59935   3.152   4.513   1.729 -1.4368 -1.9956  0.8303
  444MOL0     H59936   3.287   4.466   1.916 -0.2906  1.3048 -0.1047
  444MOL0     H59937   3.409   4.526   1.801  2.6830 -1.6479  4.5225
  444MOL0     H59938   3.522   4.120   1.834 -0.1028  0.2411 -1.2050
  444MOL0     H59939   3.037   4.454   1.229  1.3709  1.8242 -0.5588
  444MOL0     H59940   2.839   4.486   1.100 -2.5505 -0.1071  0.0460
  445MOL0     O59941   7.351   3.639   8.913 -0.0507  0.0937  0.3590
  445MOL0     C59942   7.404   3.690   9.012 -0.0243 -0.6031 -1.0799
  445MOL0     O59943   7.354   3.785   9.096  1.0911  0.1857 -0.3844
  445MOL0     C59944   7.219   3.790   9.104  0.0820 -0.1478 -0.0323
  445MOL0     C59945   7.144   3.893   9.038 -0.7361 -0.3572 -0.6333
  445MOL0     C59946   7.006   3.900   9.050 -0.7864 -0.3574 -0.1628
  445MOL0     C59947   6.946   3.815   9.142  0.3858 -0.5553  0.2609
  445MOL0     O59948   6.813   3.805   9.173 -0.5011 -0.3395  0.5909
  445MOL0     C59949   6.717   3.849   9.081  0.8437 -0.4278 -0.8739
  445MOL0     C59950   6.590   3.783   9.133 -0.5646  0.5494 -0.1571
  445MOL0     C59951   6.466   3.837   9.049 -0.3203 -0.0506  0.1247
  445MOL0     C59952   6.345   3.834   9.141 -0.9538 -0.4843  0.6813
  445MOL0     C59953   6.227   3.911   9.094 -0.1994 -0.6867  0.2907
  445MOL0     C59954   6.112   3.894   9.193  0.1589  0.2211 -0.0016
  445MOL0     C59955   5.983   3.941   9.134  0.8964 -0.4260 -1.2571
  445MOL0     C59956   5.995   4.089   9.118  0.5755 -0.3068 -0.6818
  445MOL0     N59957   5.863   4.134   9.085 -0.6825 -0.3041 -0.0234
  445MOL0     C59958   5.803   4.122   8.967  0.1736  0.3518  0.3077
  445MOL0     C59959   5.689   4.192   8.975  1.0204 -0.2449  0.0338
  445MOL0     C59960   5.579   4.169   8.885 -1.0184 -0.5735 -0.1689
  445MOL0     C59961   5.477   4.284   8.873  0.0429  0.3819  0.0974
  445MOL0     C59962   5.434   4.301   8.724  0.4630  0.2682 -0.0695
  445MOL0     C59963   5.310   4.388   8.711  0.0238 -0.1301  0.8126
  445MOL0     O59964   5.203   4.331   8.771  0.5359  0.0211 -0.3460
  445MOL0     C59965   5.129   4.236   8.698  0.1116 -0.3697 -0.8762
  445MOL0     C59966   5.153   4.175   8.573  0.6892  0.4465  0.2347
  445MOL0     C59967   5.059   4.083   8.515 -0.0267 -0.4318 -0.1977
  445MOL0     C59968   5.091   4.023   8.387  0.0044 -0.2306  0.5728
  445MOL0     C59969   4.940   4.064   8.585 -0.6956  0.3611 -0.0476
  445MOL0     C59970   4.827   3.985   8.524  0.5896 -0.0843 -0.5734
  445MOL0     O59971   4.765   3.899   8.612  0.1976  0.1205  0.3068
  445MOL0     C59972   4.660   3.823   8.578 -0.2994  0.1348  0.2602
  445MOL0     C59973   4.662   3.703   8.645  0.0937 -0.3598  0.3967
  445MOL0     C59974   4.560   3.609   8.633 -0.2580 -0.3779  0.2497
  445MOL0     C59975   4.441   3.633   8.548  1.0879  0.1605  0.0833
  445MOL0     O59976   4.334   3.545   8.540  0.7410 -0.0520  0.2939
  445MOL0     C59977   4.215   3.594   8.479  0.2854 -0.3915  0.3616
  445MOL0     C59978   4.101   3.507   8.520  0.6840  0.2430 -0.4984
  445MOL0     C59979   3.971   3.573   8.484  0.4461  0.0811 -0.1718
  445MOL0     C59980   3.848   3.500   8.555  0.1866 -0.3781 -0.1860
  445MOL0     C59981   3.722   3.584   8.508 -0.9557  1.0377 -0.0016
  445MOL0     C59982   3.599   3.497   8.533 -0.0938 -0.3573 -0.5302
  445MOL0     C59983   3.478   3.571   8.507  0.3046  0.0261 -0.3962
  445MOL0     C59984   3.432   3.554   8.367 -0.5238 -0.9837  0.0377
  445MOL0    Cl59985   3.541   3.620   8.241  0.2915 -0.0040 -0.2437
  445MOL0     C59986   4.451   3.754   8.473  0.1868 -0.3129  0.1044
  445MOL0     C59987   4.552   3.850   8.499  0.9835 -0.3923 -0.6488
  445MOL0     O59988   4.788   4.013   8.418 -0.4729  0.3757 -0.0905
  445MOL0     C59989   4.922   4.113   8.711  1.0596 -0.7320  0.3161
  445MOL0     C59990   5.004   4.206   8.756 -1.0835 -0.4930  0.3746
  445MOL0     N59991   5.692   4.245   9.106  0.3950  0.5908  0.2922
  445MOL0     N59992   5.796   4.205   9.173 -0.4053  0.1724  0.4656
  445MOL0     C59993   7.026   3.727   9.217  0.7975 -0.1180 -0.1101
  445MOL0     C59994   7.158   3.710   9.202 -0.4372  0.3160 -0.7819
  445MOL0     C59995   7.551   3.702   9.002 -0.2610  0.3066  0.0847
  445MOL0     C59996   7.623   3.657   8.880  0.0250  0.7997  0.1452
  445MOL0     C59997   7.761   3.666   8.872 -0.9221  0.3677 -0.3617
  445MOL0     C59998   7.836   3.710   8.981  0.4808  0.7952 -0.4574
  445MOL0     O59999   7.977   3.718   8.971 -0.1860  0.2214 -0.1207
  445MOL0     C60000   8.044   3.813   9.045  0.6220  0.3426  0.7478
  445MOL0     C60001   8.181   3.846   8.981  0.0153 -0.5935 -0.3462
  445MOL0     C60002   8.260   3.723   8.949  0.1961  0.9647 -0.1600
  445MOL0     C60003   8.410   3.763   8.950  0.7917 -0.5053  0.7032
  445MOL0     C60004   8.498   3.652   8.966 -0.5223  0.1271 -0.3439
  445MOL0     C60005   8.556   3.556   9.003 -0.1220  0.3833 -0.6940
  445MOL0     C60006   7.771   3.745   9.093 -0.1326 -0.4856 -0.3763
  445MOL0     C60007   7.631   3.739   9.110 -0.2075 -0.2935  0.7974
  445MOL0     H60008   7.199   3.960   8.971  0.1862 -1.7393 -1.3155
  445MOL0     H60009   6.948   3.980   9.004  0.8998  1.4153  0.6562
  445MOL0     H60010   6.706   3.958   9.082  0.4480 -0.4703  0.2349
  445MOL0     H60011   6.748   3.814   8.982  1.2167  1.6349 -1.5539
  445MOL0     H60012   6.586   3.673   9.131 -0.2336  0.3427  3.5567
  445MOL0     H60013   6.586   3.801   9.240  1.5161 -4.5176  1.0797
  445MOL0     H60014   6.493   3.937   9.014 -0.8984 -0.1561 -0.6328
  445MOL0     H60015   6.456   3.769   8.964 -0.7533 -2.2963  1.8613
  445MOL0     H60016   6.315   3.729   9.147  2.2076 -1.7003 -1.7802
  445MOL0     H60017   6.377   3.869   9.240 -2.2557 -0.5295  1.1387
  445MOL0     H60018   6.258   4.016   9.096 -0.8128 -0.4186 -1.7576
  445MOL0     H60019   6.206   3.882   8.991  2.3681  0.1588 -0.5327
  445MOL0     H60020   6.104   3.789   9.223 -1.5265  0.7592  1.6372
  445MOL0     H60021   6.151   3.944   9.283  3.8379 -2.4887  0.1335
  445MOL0     H60022   5.968   3.895   9.035  0.3397 -0.2157 -1.2722
  445MOL0     H60023   5.893   3.917   9.190 -1.3672  1.7624 -3.7014
  445MOL0     H60024   6.064   4.110   9.036 -0.1728 -0.5442 -1.3861
  445MOL0     H60025   6.021   4.128   9.217  0.7959 -1.8899 -0.0829
  445MOL0     H60026   5.822   4.056   8.883  0.4348  2.3210 -1.2671
  445MOL0     H60027   5.615   4.145   8.785 -0.2565  2.2634 -0.6575
  445MOL0     H60028   5.530   4.080   8.927  1.0843 -1.3661  0.7805
  445MOL0     H60029   5.522   4.380   8.900 -1.2221  1.2393 -0.7208
  445MOL0     H60030   5.386   4.271   8.931 -0.5872  1.0668 -0.7020
  445MOL0     H60031   5.415   4.201   8.683 -1.1018  0.2461  0.6292
  445MOL0     H60032   5.517   4.340   8.665  1.3674 -0.5819  0.5966
  445MOL0     H60033   5.289   4.411   8.606 -1.0031 -2.1931  0.5017
  445MOL0     H60034   5.331   4.483   8.760 -4.2336  0.9154  1.0234
  445MOL0     H60035   5.237   4.191   8.507  1.7966  0.6534  1.6563
  445MOL0     H60036   5.196   4.026   8.356 -0.8998 -0.9382 -2.9849
  445MOL0     H60037   5.068   3.916   8.395  1.7660 -0.7025 -0.0310
  445MOL0     H60038   5.031   4.056   8.302  3.0775 -1.8531 -2.4951
  445MOL0     H60039   4.747   3.679   8.708  1.4631  2.5365 -0.2076
  445MOL0     H60040   4.574   3.515   8.685 -1.0555 -0.6440  0.0043
  445MOL0     H60041   4.201   3.698   8.509 -1.5524 -1.2260  2.7904
  445MOL0     H60042   4.223   3.587   8.370  0.8471  3.5046  0.0135
  445MOL0     H60043   4.097   3.407   8.475  1.4494  0.1907 -0.4567
  445MOL0     H60044   4.104   3.493   8.628  0.8690 -0.2297 -0.5615
  445MOL0     H60045   3.947   3.556   8.379  2.2695  1.4738 -0.8609
  445MOL0     H60046   3.983   3.676   8.520 -0.5424 -0.9122  3.4371
  445MOL0     H60047   3.836   3.396   8.524 -2.1318 -0.7870  1.7069
  445MOL0     H60048   3.869   3.504   8.662  2.1034  1.7987 -0.5731
  445MOL0     H60049   3.725   3.602   8.400  2.1040 -2.9142 -0.8533
  445MOL0     H60050   3.718   3.679   8.561  3.0235  3.2321 -3.0381
  445MOL0     H60051   3.613   3.407   8.471  1.5488  0.3223 -1.2188
  445MOL0     H60052   3.596   3.462   8.637 -0.4190  0.2605 -0.3329
  445MOL0     H60053   3.498   3.677   8.529 -0.2785 -0.0897  0.8147
  445MOL0     H60054   3.397   3.538   8.573  1.3319 -0.1770  0.7986
  445MOL0     H60055   3.331   3.592   8.349 -0.3946 -0.8664 -0.4649
  445MOL0     H60056   3.429   3.446   8.347  0.8048 -1.2700  1.2605
  445MOL0     H60057   4.372   3.775   8.402  1.9119 -0.7953 -2.0991
  445MOL0     H60058   4.558   3.932   8.428  3.0730 -0.4248 -0.5961
  445MOL0     H60059   4.834   4.087   8.769  0.7944 -0.5738 -0.0135
  445MOL0     H60060   4.968   4.249   8.849  0.3108  0.5943  0.4465
  445MOL0     H60061   6.991   3.649   9.284  0.2118  1.9791  2.1456
  445MOL0     H60062   7.217   3.643   9.264  0.4440  0.2961 -1.6113
  445MOL0     H60063   7.564   3.600   8.809  2.6122  1.0005 -2.3379
  445MOL0     H60064   7.816   3.633   8.784 -2.5956 -0.0175 -1.3073
  445MOL0     H60065   7.989   3.907   9.055 -2.1799 -1.3313  2.7141
  445MOL0     H60066   8.062   3.781   9.148 -0.4900 -0.9127  0.5781
  445MOL0     H60067   8.231   3.915   9.050 -0.7731 -0.8391  0.4826
  445MOL0     H60068   8.156   3.899   8.889 -0.4282 -0.5032 -0.1743
  445MOL0     H60069   8.238   3.673   8.854  1.1844  1.2528 -0.5509
  445MOL0     H60070   8.243   3.647   9.026  0.8215  1.7941  0.8151
  445MOL0     H60071   8.432   3.837   9.028 -1.1226  0.2518  0.5754
  445MOL0     H60072   8.441   3.812   8.857  0.8233 -1.2122  0.3406
  445MOL0     H60073   8.600   3.468   9.046 -2.5269 -0.8129 -0.5259
  445MOL0     H60074   7.829   3.776   9.180 -1.1544  0.9134 -0.1553
  445MOL0     H60075   7.584   3.772   9.203 -1.3806  0.5136 -0.0438
  446MOL0     O60076   0.133   1.515  11.210  0.0833  0.4085 -0.1083
  446MOL0     C60077   0.201   1.415  11.177  0.3085  0.1215  0.0581
  446MOL0     O60078   0.144   1.301  11.114 -0.7901 -0.1331  0.0672
  446MOL0     C60079   0.023   1.301  11.047 -1.1830  1.0183  0.3355
  446MOL0     C60080  -0.071   1.398  11.041 -0.5571 -0.0841 -0.4444
  446MOL0     C60081  -0.182   1.385  10.955 -0.3585 -0.6749 -0.1366
  446MOL0     C60082  -0.212   1.273  10.879 -0.0540  0.3753  0.1424
  446MOL0     O60083  -0.322   1.249  10.806  0.0678 -0.0514 -0.1662
  446MOL0     C60084  -0.440   1.303  10.850  0.3649 -0.8885  0.2515
  446MOL0     C60085  -0.496   1.411  10.756  0.6070  0.6855  0.7845
  446MOL0     C60086  -0.637   1.440  10.809  0.4289  0.1982  0.4243
  446MOL0     C60087  -0.736   1.505  10.713 -0.4765  0.7972  0.4292
  446MOL0     C60088  -0.869   1.535  10.784  0.1191 -0.3122  0.7905
  446MOL0     C60089  -0.883   1.683  10.822 -0.2133 -0.3076 -0.2936
  446MOL0     C60090  -1.014   1.704  10.892  0.8411 -1.0841 -0.2429
  446MOL0     C60091  -1.036   1.603  11.006 -0.7005 -0.5116  0.1087
  446MOL0     N60092  -1.142   1.661  11.097  0.1716  0.4025  0.0689
  446MOL0     C60093  -1.281   1.664  11.090  1.2162  0.4695 -0.2707
  446MOL0     C60094  -1.331   1.740  11.194 -0.0322  1.0466  0.3188
  446MOL0     C60095  -1.468   1.789  11.217  0.6047 -0.1808 -0.1382
  446MOL0     C60096  -1.580   1.726  11.120 -0.0069 -0.2594 -0.2297
  446MOL0     C60097  -1.706   1.800  11.164 -0.4836  0.0569 -0.4923
  446MOL0     C60098  -1.826   1.745  11.098 -0.0063  0.0439  1.6612
  446MOL0     O60099  -1.940   1.784  11.178 -0.4945  0.0390  0.5361
  446MOL0     C60100  -2.052   1.710  11.148  0.0999 -0.6859 -0.5639
  446MOL0     C60101  -2.135   1.757  11.051 -0.6553  0.0974  0.0257
  446MOL0     C60102  -2.277   1.716  11.054  0.0409 -0.7395 -0.1826
  446MOL0     C60103  -2.372   1.762  10.942  0.2616  0.2123 -0.0879
  446MOL0     C60104  -2.325   1.616  11.152  0.3208 -0.8751  1.1434
  446MOL0     C60105  -2.466   1.580  11.177 -0.6729 -0.5224  0.2713
  446MOL0     O60106  -2.495   1.453  11.216 -0.2368 -0.9030 -0.2209
  446MOL0     C60107  -2.625   1.416  11.221 -0.4089  0.2176  0.3282
  446MOL0     C60108  -2.713   1.453  11.128 -0.2414 -0.4178  0.5496
  446MOL0     C60109  -2.845   1.413  11.141 -0.2594 -0.3899  0.7355
  446MOL0     C60110  -2.891   1.343  11.254  0.3708 -0.8942  0.3555
  446MOL0     O60111  -3.025   1.312  11.284 -0.4203  0.1939 -0.6595
  446MOL0     C60112  -3.125   1.356  11.202 -0.4052  1.8523  0.3773
  446MOL0     C60113  -3.166   1.499  11.227  0.3986 -0.6652 -1.4121
  446MOL0     C60114  -3.311   1.543  11.190 -0.3915  0.0204 -0.1532
  446MOL0     C60115  -3.341   1.683  11.240  0.4670  0.4256  0.0216
  446MOL0     C60116  -3.481   1.734  11.202  0.7078  0.2036 -0.0246
  446MOL0     C60117  -3.506   1.888  11.223 -0.4576 -0.3210 -0.8683
  446MOL0     C60118  -3.648   1.930  11.180  0.5151 -0.1537 -0.7434
  446MOL0     C60119  -3.764   1.895  11.280  0.1041  0.4668  0.7179
  446MOL0    Cl60120  -3.919   1.930  11.195  0.2334 -0.0011  0.1842
  446MOL0     C60121  -2.798   1.310  11.357  0.3427 -0.3817 -0.0652
  446MOL0     C60122  -2.666   1.354  11.336  0.2813 -0.1042 -0.3419
  446MOL0     O60123  -2.541   1.678  11.186 -0.0571 -0.1480 -0.1935
  446MOL0     C60124  -2.227   1.561  11.225 -0.5793  0.2370  0.3566
  446MOL0     C60125  -2.090   1.603  11.228 -0.1939  0.1092  0.2684
  446MOL0     N60126  -1.221   1.759  11.277  0.0102  0.4585  1.1329
  446MOL0     N60127  -1.113   1.707  11.218 -0.3948  0.4684  0.5823
  446MOL0     C60128  -0.120   1.170  10.889 -0.8172  0.1180 -0.6184
  446MOL0     C60129  -0.003   1.180  10.973  1.0226  0.6726 -0.0447
  446MOL0     C60130   0.343   1.426  11.213 -0.6771 -0.4321 -0.1014
  446MOL0     C60131   0.396   1.554  11.257  0.6590  0.2480 -0.5949
  446MOL0     C60132   0.534   1.561  11.288  0.2369 -0.0413  0.1675
  446MOL0     C60133   0.616   1.450  11.278  0.4044 -0.6372 -0.1587
  446MOL0     O60134   0.742   1.480  11.320  0.4244  0.6566 -0.0576
  446MOL0     C60135   0.833   1.374  11.288 -0.5553 -0.4775  0.3709
  446MOL0     C60136   0.970   1.412  11.335 -0.5395  0.5503 -0.1492
  446MOL0     C60137   0.985   1.474  11.471  0.1259  0.1424 -0.5669
  446MOL0     C60138   1.121   1.442  11.532  0.1717 -0.4758  0.5680
  446MOL0     C60139   1.235   1.494  11.454  0.3170 -0.1040 -0.3415
  446MOL0     C60140   1.332   1.534  11.388  0.4353 -0.0023  1.0185
  446MOL0     C60141   0.569   1.333  11.225 -0.1052 -0.2261  0.2883
  446MOL0     C60142   0.438   1.325  11.185  0.1557 -0.4887  0.2821
  446MOL0     H60143  -0.066   1.495  11.088 -3.5615 -0.5896  1.1799
  446MOL0     H60144  -0.259   1.462  10.950  1.1692  1.1006  1.7354
  446MOL0     H60145  -0.507   1.217  10.864 -0.3663 -0.7861 -2.1798
  446MOL0     H60146  -0.433   1.357  10.945 -0.7894  0.8438 -0.6095
  446MOL0     H60147  -0.433   1.501  10.758 -0.5289  1.4981  1.3072
  446MOL0     H60148  -0.504   1.370  10.655  1.2467  1.1034  0.5542
  446MOL0     H60149  -0.687   1.347  10.840 -1.4647  1.8241  2.6866
  446MOL0     H60150  -0.623   1.498  10.901  1.3425 -1.2359  1.2253
  446MOL0     H60151  -0.700   1.595  10.662  1.4278 -0.4804 -0.6250
  446MOL0     H60152  -0.750   1.427  10.637 -2.0491 -0.0577  1.5404
  446MOL0     H60153  -0.949   1.499  10.719 -0.4506 -2.8947  2.7305
  446MOL0     H60154  -0.871   1.464  10.868 -1.4178 -0.3207  0.7859
  446MOL0     H60155  -0.798   1.706  10.887  0.5366  0.0034 -1.3398
  446MOL0     H60156  -0.867   1.736  10.727  0.6267 -4.1866 -2.5281
  446MOL0     H60157  -1.018   1.805  10.933  1.5036 -0.8338 -0.7665
  446MOL0     H60158  -1.096   1.691  10.821 -0.2015 -1.6473  1.0275
  446MOL0     H60159  -0.943   1.595  11.062 -1.3441 -0.0932  1.2594
  446MOL0     H60160  -1.066   1.507  10.963 -2.4901  0.7495 -1.6520
  446MOL0     H60161  -1.354   1.637  11.014  0.5508 -0.7169  0.7560
  446MOL0     H60162  -1.505   1.760  11.316  2.5705 -0.6018  0.5076
  446MOL0     H60163  -1.462   1.897  11.205  0.8930 -0.3730 -1.9319
  446MOL0     H60164  -1.590   1.617  11.126 -3.3936 -0.2628 -2.9344
  446MOL0     H60165  -1.544   1.746  11.018 -1.7553  1.5302 -0.5536
  446MOL0     H60166  -1.698   1.907  11.143  0.0808 -0.0776 -0.9848
  446MOL0     H60167  -1.724   1.784  11.271 -0.6426 -0.2443 -0.5628
  446MOL0     H60168  -1.818   1.636  11.087  1.1878  0.3530 -1.8297
  446MOL0     H60169  -1.836   1.787  10.998  0.1739 -1.6629  0.8831
  446MOL0     H60170  -2.098   1.823  10.974 -2.4346  0.3405 -0.6721
  446MOL0     H60171  -2.313   1.820  10.871  0.4315 -1.5484 -1.4527
  446MOL0     H60172  -2.418   1.676  10.892  2.0216 -2.1663  2.1111
  446MOL0     H60173  -2.452   1.818  10.993  0.7008  0.4992  0.2962
  446MOL0     H60174  -2.676   1.507  11.042 -0.4933 -2.1809 -0.7251
  446MOL0     H60175  -2.906   1.449  11.059  0.3639 -0.7414  0.1106
  446MOL0     H60176  -3.112   1.325  11.098 -0.8934 -3.9227  1.6959
  446MOL0     H60177  -3.212   1.294  11.226  0.3748 -0.8900 -3.0072
  446MOL0     H60178  -3.170   1.520  11.335  0.8048  0.8610 -1.6696
  446MOL0     H60179  -3.089   1.563  11.184  0.4337 -0.6008 -1.2552
  446MOL0     H60180  -3.390   1.484  11.238 -0.2088 -3.3513 -3.5548
  446MOL0     H60181  -3.322   1.535  11.082  3.6296  1.4624 -0.8535
  446MOL0     H60182  -3.324   1.692  11.348 -1.7023 -0.3056  0.4737
  446MOL0     H60183  -3.281   1.753  11.182 -0.1253 -0.7915 -2.1743
  446MOL0     H60184  -3.571   1.682  11.235  0.4455  1.1477  0.7871
  446MOL0     H60185  -3.483   1.718  11.093  2.3656 -1.0314  0.0970
  446MOL0     H60186  -3.484   1.895  11.330  1.8718 -0.9234 -1.2488
  446MOL0     H60187  -3.434   1.953  11.174 -1.3859  2.2833  1.0061
  446MOL0     H60188  -3.681   1.898  11.081  0.4793  0.8448 -1.0579
  446MOL0     H60189  -3.635   2.037  11.166 -2.5379  0.4732  0.4778
  446MOL0     H60190  -3.748   1.954  11.370  1.3047 -2.3081  2.4870
  446MOL0     H60191  -3.758   1.789  11.308  0.9819  0.6274  1.1653
  446MOL0     H60192  -2.833   1.251  11.441 -0.1934  1.1776  0.8429
  446MOL0     H60193  -2.589   1.329  11.408 -0.1310  0.6525  0.3823
  446MOL0     H60194  -2.246   1.481  11.296 -0.4864  0.1517  0.2840
  446MOL0     H60195  -2.022   1.577  11.309 -0.4515  0.5278  0.6219
  446MOL0     H60196  -0.139   1.078  10.836  0.2216 -2.0935  2.5362
  446MOL0     H60197   0.067   1.098  10.966  0.9119  0.7308 -2.8948
  446MOL0     H60198   0.333   1.642  11.263  1.0562  0.8315 -3.6132
  446MOL0     H60199   0.570   1.651  11.335 -1.3300  0.1247  1.1364
  446MOL0     H60200   0.807   1.281  11.338 -2.2559 -0.6359 -0.7530
  446MOL0     H60201   0.849   1.362  11.181 -0.6324  0.5478  0.2312
  446MOL0     H60202   1.008   1.484  11.263 -0.4775 -1.1584 -1.9173
  446MOL0     H60203   1.028   1.319  11.328 -1.9702 -0.2289 -3.3594
  446MOL0     H60204   0.903   1.439  11.535 -0.2680  0.6953 -0.7596
  446MOL0     H60205   0.973   1.578  11.440  0.4259  0.7332  1.1970
  446MOL0     H60206   1.137   1.335  11.548  1.8810 -0.3781 -0.1924
  446MOL0     H60207   1.133   1.483  11.633 -2.8737  2.5019 -0.1189
  446MOL0     H60208   1.397   1.552  11.305  1.6206 -3.6158  0.9653
  446MOL0     H60209   0.631   1.246  11.203 -0.0299 -0.3655  1.0334
  446MOL0     H60210   0.391   1.237  11.140 -1.6794  0.9033 -0.6405
  447MOL0     O60211   5.781   9.036  10.047  0.1823 -0.2566 -0.0754
  447MOL0     C60212   5.800   8.933   9.981  0.3084  1.3995 -0.5606
  447MOL0     O60213   5.914   8.889   9.941  0.4596 -0.3904 -0.0972
  447MOL0     C60214   6.023   8.957   9.971  0.3377  0.4340 -0.0324
  447MOL0     C60215   6.115   8.911  10.071 -1.3788 -0.1934 -0.1712
  447MOL0     C60216   6.239   8.987  10.092 -0.5774 -0.6950 -0.0402
  447MOL0     C60217   6.273   9.096  10.011 -0.3145 -0.4268 -0.2433
  447MOL0     O60218   6.393   9.162  10.025  0.0239 -0.9059 -0.0089
  447MOL0     C60219   6.504   9.073  10.015  0.0161 -0.0441  0.5594
  447MOL0     C60220   6.615   9.171   9.982  0.1416  0.5306  0.3685
  447MOL0     C60221   6.718   9.181  10.096 -0.1099 -0.1683  1.1988
  447MOL0     C60222   6.667   9.235  10.226  0.0894 -0.4246  0.2336
  447MOL0     C60223   6.788   9.296  10.306  1.1449 -0.0669  0.3106
  447MOL0     C60224   6.739   9.360  10.438 -0.1763  0.2755  0.6250
  447MOL0     C60225   6.865   9.418  10.517 -0.2607  0.2407 -0.0147
  447MOL0     C60226   6.911   9.326  10.626 -0.6758 -0.0058  0.4379
  447MOL0     N60227   6.809   9.331  10.730  0.6464  0.0082 -0.0784
  447MOL0     C60228   6.745   9.443  10.788  0.0251 -0.9893 -0.0455
  447MOL0     C60229   6.659   9.390  10.871 -0.3425 -0.0582  0.1688
  447MOL0     C60230   6.577   9.476  10.960  0.0430 -0.1251 -0.4990
  447MOL0     C60231   6.441   9.516  10.902 -0.7320 -0.8472 -0.5803
  447MOL0     C60232   6.370   9.610  11.002 -0.0081  0.7118 -1.1702
  447MOL0     C60233   6.231   9.660  10.945  0.6914  0.7074  0.8586
  447MOL0     O60234   6.147   9.552  10.905  0.6386  0.2561 -0.3423
  447MOL0     C60235   6.025   9.576  10.843 -0.6286  0.4898 -0.6870
  447MOL0     C60236   5.974   9.698  10.804  0.8684  0.2033 -0.1462
  447MOL0     C60237   5.837   9.718  10.759  0.5697 -0.1161 -0.3954
  447MOL0     C60238   5.778   9.857  10.732  0.1938  0.3725  0.3292
  447MOL0     C60239   5.759   9.602  10.736 -0.3579 -0.5299 -0.5720
  447MOL0     C60240   5.625   9.595  10.682  0.2168 -0.2327  0.0011
  447MOL0     O60241   5.534   9.508  10.743 -0.9405  0.4912  0.5835
  447MOL0     C60242   5.438   9.431  10.670 -0.3092  0.7513  0.4379
  447MOL0     C60243   5.445   9.294  10.679  0.7129 -0.0508  0.2344
  447MOL0     C60244   5.332   9.215  10.645  0.0617 -0.6816  1.0648
  447MOL0     C60245   5.217   9.274  10.589  1.0257 -0.2208  0.2071
  447MOL0     O60246   5.108   9.188  10.548 -0.9280 -0.4873 -0.7505
  447MOL0     C60247   5.013   9.250  10.463  0.1452 -0.0954 -0.7825
  447MOL0     C60248   4.902   9.145  10.444 -0.1427  0.2901  0.1318
  447MOL0     C60249   4.965   9.031  10.355  0.9523 -0.5761 -0.6935
  447MOL0     C60250   4.868   8.904  10.349  0.0522  0.2307 -0.5126
  447MOL0     C60251   4.920   8.793  10.258  0.1403  0.1104  0.3077
  447MOL0     C60252   4.952   8.840  10.110  0.0392 -0.6518  0.1068
  447MOL0     C60253   4.995   8.717  10.019  0.0936 -0.9429  0.4708
  447MOL0     C60254   5.051   8.768   9.896  0.3393  0.4905 -0.7906
  447MOL0    Cl60255   4.942   8.889   9.817 -0.2907 -0.2678 -0.2311
  447MOL0     C60256   5.213   9.412  10.584  0.7162  0.3584 -0.2551
  447MOL0     C60257   5.319   9.496  10.620  0.2393 -1.0941 -0.6638
  447MOL0     O60258   5.611   9.665  10.578 -0.4613 -0.2808  0.5349
  447MOL0     C60259   5.817   9.478  10.765 -0.5395  0.9227  0.2351
  447MOL0     C60260   5.940   9.464  10.815  0.4249  0.7746 -0.2496
  447MOL0     N60261   6.662   9.259  10.871  0.2353  0.1606  0.3885
  447MOL0     N60262   6.748   9.221  10.786 -0.7479 -0.2933 -0.0205
  447MOL0     C60263   6.187   9.138   9.919 -0.2580  0.4239  0.6695
  447MOL0     C60264   6.064   9.069   9.897  0.0379 -0.6898 -0.8934
  447MOL0     C60265   5.673   8.848   9.956  0.4283  0.1815  0.2774
  447MOL0     C60266   5.546   8.891   9.994  0.3199 -0.6548 -0.2494
  447MOL0     C60267   5.435   8.804   9.994 -0.2778  0.1307 -0.4724
  447MOL0     C60268   5.441   8.676   9.940  0.2368  0.9947  0.0259
  447MOL0     O60269   5.325   8.593   9.947  0.2130  0.6347  0.1386
  447MOL0     C60270   5.328   8.465   9.882  0.4031 -0.0152 -0.4752
  447MOL0     C60271   5.193   8.390   9.900  0.1189  0.2062 -0.3754
  447MOL0     C60272   5.181   8.345  10.049  0.1151  0.3259 -0.1194
  447MOL0     C60273   5.044   8.286  10.074 -0.4010  1.1805 -0.4642
  447MOL0     C60274   4.929   8.359  10.039 -0.1423 -0.2389  0.6909
  447MOL0     C60275   4.827   8.402   9.989  0.9992  0.0697  0.4190
  447MOL0     C60276   5.565   8.629   9.890  0.5919 -0.2862 -0.7430
  447MOL0     C60277   5.679   8.719   9.900 -0.2629 -0.1702  0.6588
  447MOL0     H60278   6.104   8.824  10.134 -0.7376 -0.9552 -1.0739
  447MOL0     H60279   6.312   8.962  10.169 -0.7086  1.3862  0.8173
  447MOL0     H60280   6.526   9.034  10.115 -0.1251 -1.7098 -0.0349
  447MOL0     H60281   6.506   9.002   9.932  0.0072  1.1821 -0.5280
  447MOL0     H60282   6.665   9.123   9.898 -1.1016 -1.9526  0.9547
  447MOL0     H60283   6.577   9.265   9.941  1.5995  0.9070 -0.1976
  447MOL0     H60284   6.749   9.079  10.118 -3.0197 -1.4486 -0.0559
  447MOL0     H60285   6.799   9.244  10.058 -3.0513  2.8127 -0.7397
  447MOL0     H60286   6.597   9.314  10.196  2.0621  1.1914 -0.3737
  447MOL0     H60287   6.611   9.161  10.284  1.2513 -1.5636 -0.0427
  447MOL0     H60288   6.859   9.217  10.333  2.0913  1.0789  1.2427
  447MOL0     H60289   6.838   9.374  10.247 -0.1490  0.3992 -0.1969
  447MOL0     H60290   6.666   9.438  10.415  0.3592  0.8000  0.6756
  447MOL0     H60291   6.676   9.279  10.477 -2.7634  0.4017 -2.7978
  447MOL0     H60292   6.948   9.452  10.455  0.1002  0.9117  0.8173
  447MOL0     H60293   6.835   9.516  10.555  1.8995  0.9898 -0.0950
  447MOL0     H60294   7.002   9.361  10.675  0.3255 -2.7013  0.6716
  447MOL0     H60295   6.938   9.232  10.577  3.2101  1.9283 -1.6489
  447MOL0     H60296   6.743   9.549  10.763 -1.5213 -0.9582  0.0961
  447MOL0     H60297   6.561   9.421  11.053  1.4386  0.3847  0.0657
  447MOL0     H60298   6.646   9.558  10.982 -0.6106  0.1027  0.8275
  447MOL0     H60299   6.392   9.421  10.880 -1.1902 -1.2888  2.0530
  447MOL0     H60300   6.458   9.578  10.813 -0.4852  2.4137  1.5530
  447MOL0     H60301   6.432   9.696  11.030 -0.4609  0.8401 -0.5334
  447MOL0     H60302   6.351   9.555  11.095 -0.6949 -2.1265 -2.8757
  447MOL0     H60303   6.248   9.725  10.858 -3.5014  0.8317 -0.1055
  447MOL0     H60304   6.174   9.722  11.015 -2.5649  1.7386 -2.3315
  447MOL0     H60305   6.022   9.791  10.831 -2.6428  1.7474  1.4091
  447MOL0     H60306   5.675   9.875  10.764  0.0405  1.3026 -0.6415
  447MOL0     H60307   5.834   9.939  10.778 -1.3548  1.5692  0.1569
  447MOL0     H60308   5.790   9.876  10.625  0.2398  0.7867  0.4072
  447MOL0     H60309   5.537   9.250  10.716  0.1506  0.4657  2.4048
  447MOL0     H60310   5.308   9.109  10.649  1.2082 -1.2182 -2.6017
  447MOL0     H60311   4.970   9.335  10.515  0.9582 -1.0620  1.5775
  447MOL0     H60312   5.061   9.289  10.373  3.9586  1.7008  1.7941
  447MOL0     H60313   4.850   9.104  10.531  0.8550 -1.4040 -0.0333
  447MOL0     H60314   4.821   9.192  10.388  0.7873 -0.8842 -2.3312
  447MOL0     H60315   5.055   8.990  10.402  1.3162 -0.6068 -1.4072
  447MOL0     H60316   4.999   9.078  10.263  1.0607 -0.2764 -0.5019
  447MOL0     H60317   4.860   8.852  10.445  0.7076 -0.3887 -0.7864
  447MOL0     H60318   4.767   8.935  10.319  0.1456  0.3823 -0.6677
  447MOL0     H60319   4.853   8.707  10.260  1.0996 -0.6659  2.5938
  447MOL0     H60320   5.010   8.765  10.314 -0.7114  0.9648  2.2074
  447MOL0     H60321   4.862   8.892  10.076  0.0892  0.1880  1.2112
  447MOL0     H60322   5.035   8.911  10.108 -0.3170 -0.2463 -0.9016
  447MOL0     H60323   4.906   8.664   9.983  0.4416  0.1558 -2.2649
  447MOL0     H60324   5.068   8.646  10.059 -0.2072 -1.6085 -0.1309
  447MOL0     H60325   5.059   8.682   9.830 -1.6205  0.0126 -0.4724
  447MOL0     H60326   5.151   8.807   9.916  1.4663 -0.6777 -3.7270
  447MOL0     H60327   5.123   9.466  10.555  0.0263 -1.7453 -2.4012
  447MOL0     H60328   5.304   9.603  10.626 -3.0293 -1.2645 -2.9055
  447MOL0     H60329   5.753   9.391  10.758 -1.5579  1.4696  2.0244
  447MOL0     H60330   5.976   9.366  10.845  0.0172  0.6415 -0.1909
  447MOL0     H60331   6.218   9.223   9.859 -1.8280  0.9479  0.5530
  447MOL0     H60332   6.000   9.092   9.812 -0.4166 -0.8488 -0.5954
  447MOL0     H60333   5.537   8.995  10.026  0.9834 -0.4491 -0.7001
  447MOL0     H60334   5.336   8.837  10.023 -0.2524  1.6846 -1.9727
  447MOL0     H60335   5.360   8.475   9.778  3.0707  1.2754  0.4039
  447MOL0     H60336   5.401   8.401   9.931  1.2126 -0.2042 -1.8638
  447MOL0     H60337   5.190   8.301   9.837 -0.7068 -0.4287  0.5302
  447MOL0     H60338   5.108   8.451   9.868 -0.5001 -1.5879 -2.3882
  447MOL0     H60339   5.181   8.429  10.119  0.0594  0.9641 -0.8687
  447MOL0     H60340   5.265   8.278  10.070 -0.3924 -0.0014  0.9343
  447MOL0     H60341   5.039   8.253  10.178  1.4607  1.3321 -0.2905
  447MOL0     H60342   5.045   8.194  10.015  0.6388  0.5571  0.4802
  447MOL0     H60343   4.733   8.432   9.947  2.4044 -0.2093 -3.4000
  447MOL0     H60344   5.568   8.528   9.850 -1.0148 -0.8395  0.3968
  447MOL0     H60345   5.774   8.680   9.866 -0.6185 -0.6440  0.1830
  448MOL0     O60346  10.542   3.625   1.804 -0.7105  0.5385 -0.4241
  448MOL0     C60347  10.648   3.614   1.865  0.9900 -0.1954 -1.2072
  448MOL0     O60348  10.678   3.492   1.919 -0.5742 -0.5415  0.1942
  448MOL0     C60349  10.608   3.377   1.882  0.0054  0.1754 -0.0004
  448MOL0     C60350  10.680   3.276   1.815  0.1016  0.2590 -0.2234
  448MOL0     C60351  10.608   3.162   1.776 -0.0489 -0.3903  0.2957
  448MOL0     C60352  10.468   3.153   1.790  0.1015 -0.4196 -0.1203
  448MOL0     O60353  10.413   3.046   1.734  0.0539  0.0330 -0.8483
  448MOL0     C60354  10.368   3.085   1.600  0.1821  0.0735  0.1792
  448MOL0     C60355  10.282   2.972   1.536 -0.2362  0.8234 -0.8497
  448MOL0     C60356  10.142   2.956   1.602 -0.2717  0.1360  0.0917
  448MOL0     C60357  10.063   2.853   1.515  0.1410 -0.7559 -0.1131
  448MOL0     C60358   9.954   2.777   1.585  0.3756 -0.0210 -0.0893
  448MOL0     C60359   9.898   2.661   1.503  0.6093 -0.8827  0.4596
  448MOL0     C60360   9.778   2.590   1.568 -0.2478 -0.8314  0.6040
  448MOL0     C60361   9.718   2.484   1.480  0.4475  0.1800 -0.8259
  448MOL0     N60362   9.581   2.459   1.507  0.0329  0.0572  0.5018
  448MOL0     C60363   9.509   2.457   1.622 -0.1447  0.4107  0.3961
  448MOL0     C60364   9.382   2.440   1.584 -0.6123 -0.2578  0.6899
  448MOL0     C60365   9.272   2.426   1.666 -0.3247 -0.4783 -0.6695
  448MOL0     C60366   9.189   2.561   1.684  0.6614  0.9095  0.7976
  448MOL0     C60367   9.055   2.556   1.771  0.1888 -0.2597 -0.0444
  448MOL0     C60368   8.929   2.485   1.711 -0.6935  0.5855  0.0876
  448MOL0     O60369   8.831   2.495   1.806  0.4495  0.4733 -0.0998
  448MOL0     C60370   8.704   2.486   1.763 -0.4653  0.3856  0.9304
  448MOL0     C60371   8.656   2.464   1.634  0.6760  0.4863 -0.2121
  448MOL0     C60372   8.520   2.457   1.606 -0.1856 -0.1120  0.4171
  448MOL0     C60373   8.483   2.417   1.460 -0.1504  0.5189 -0.7318
  448MOL0     C60374   8.426   2.486   1.708 -0.0651 -0.4255  0.3368
  448MOL0     C60375   8.275   2.491   1.688 -0.7414 -1.1991  0.8881
  448MOL0     O60376   8.189   2.473   1.792  0.0769  0.3649  0.5867
  448MOL0     C60377   8.051   2.476   1.766  0.7448  0.3102  0.5379
  448MOL0     C60378   7.972   2.588   1.802 -0.1180  0.3898 -0.0106
  448MOL0     C60379   7.826   2.586   1.777 -0.3247 -0.3068  0.7403
  448MOL0     C60380   7.770   2.472   1.722  0.4140 -0.6743 -0.0286
  448MOL0     O60381   7.634   2.454   1.694  0.2484 -0.0332  0.8671
  448MOL0     C60382   7.543   2.551   1.733  0.4867 -0.4186  0.3166
  448MOL0     C60383   7.407   2.507   1.700 -0.6734  0.1504  0.0220
  448MOL0     C60384   7.310   2.626   1.709  0.1771 -0.0934  0.6187
  448MOL0     C60385   7.182   2.582   1.636  0.4921 -0.0274  0.1339
  448MOL0     C60386   7.060   2.671   1.652  0.6111  0.2450 -0.4910
  448MOL0     C60387   6.994   2.648   1.785  0.6010  0.2464 -0.2915
  448MOL0     C60388   6.851   2.700   1.778  0.3825 -0.9174  0.3351
  448MOL0     C60389   6.792   2.688   1.924  0.4829  0.0439 -0.5581
  448MOL0    Cl60390   6.843   2.828   2.032  0.1375  0.0992 -0.2166
  448MOL0     C60391   7.853   2.361   1.685 -0.4623  0.1107 -0.2366
  448MOL0     C60392   7.991   2.366   1.709  0.4901 -0.0879  0.6816
  448MOL0     O60393   8.235   2.494   1.574  0.0245  0.4574  0.1469
  448MOL0     C60394   8.482   2.510   1.839  0.3722 -0.7283  0.5015
  448MOL0     C60395   8.620   2.514   1.860  0.5761 -0.7239 -0.0924
  448MOL0     N60396   9.379   2.422   1.446 -0.3258  0.6857 -0.1952
  448MOL0     N60397   9.493   2.434   1.404 -0.2165 -0.1873 -0.1247
  448MOL0     C60398  10.401   3.250   1.867  0.1303 -0.2887  0.9991
  448MOL0     C60399  10.470   3.366   1.908 -0.5245 -0.4124  0.4484
  448MOL0     C60400  10.720   3.739   1.895 -0.0427  0.2738  0.7439
  448MOL0     C60401  10.695   3.856   1.825 -0.4203 -0.1183 -0.1721
  448MOL0     C60402  10.777   3.967   1.836  0.4555 -0.2303 -0.1559
  448MOL0     C60403  10.886   3.970   1.928 -0.2738 -0.0057 -0.2847
  448MOL0     O60404  10.981   4.075   1.936  0.1729  0.0898  0.8047
  448MOL0     C60405  10.989   4.162   1.820  0.8187  0.6690  0.6304
  448MOL0     C60406  11.096   4.266   1.846 -0.1911 -0.3318 -0.0109
  448MOL0     C60407  11.245   4.226   1.800  0.7050  0.6687 -0.3542
  448MOL0     C60408  11.302   4.098   1.873 -0.0519 -0.3065  0.5130
  448MOL0     C60409  11.347   4.136   2.011 -0.7428 -0.5547 -0.1477
  448MOL0     C60410  11.393   4.169   2.117  0.1455 -0.4790  0.4008
  448MOL0     C60411  10.896   3.860   2.010  0.0679  0.5422 -0.1632
  448MOL0     C60412  10.812   3.748   1.993 -0.0037 -0.4038 -0.0209
  448MOL0     H60413  10.787   3.277   1.796 -0.2244  2.0965 -2.5389
  448MOL0     H60414  10.669   3.095   1.716  0.8520  1.3895 -0.8906
  448MOL0     H60415  10.317   3.182   1.597  1.5609  0.8386  0.4934
  448MOL0     H60416  10.460   3.104   1.543 -0.1826  0.1323 -0.4046
  448MOL0     H60417  10.264   3.008   1.434  0.9845 -0.1331 -1.4209
  448MOL0     H60418  10.335   2.877   1.539 -1.3912  0.1873  0.4043
  448MOL0     H60419  10.154   2.910   1.700 -1.5558 -0.3714  0.0310
  448MOL0     H60420  10.092   3.054   1.607  2.0261  1.3182  2.5044
  448MOL0     H60421  10.016   2.907   1.432 -0.0955 -0.3144  0.2998
  448MOL0     H60422  10.138   2.785   1.475 -0.6138 -2.1369  0.7633
  448MOL0     H60423   9.998   2.739   1.678  0.1680  1.3508  0.5980
  448MOL0     H60424   9.871   2.844   1.608  0.4288 -0.0419  0.1629
  448MOL0     H60425   9.861   2.701   1.408 -0.3051 -2.4483  0.1347
  448MOL0     H60426   9.968   2.581   1.477  1.2373 -0.4226  0.7072
  448MOL0     H60427   9.815   2.541   1.659  1.7478  0.7494  0.7038
  448MOL0     H60428   9.704   2.666   1.594 -0.9167 -0.5727 -1.7672
  448MOL0     H60429   9.764   2.386   1.489  1.0711  0.5820  0.6075
  448MOL0     H60430   9.726   2.510   1.374 -1.4607  1.8729 -0.6158
  448MOL0     H60431   9.532   2.475   1.727 -1.8881 -2.7343  1.4455
  448MOL0     H60432   9.207   2.355   1.615 -0.3925 -0.9951  0.1194
  448MOL0     H60433   9.305   2.387   1.763  0.2170  1.0176 -0.2173
  448MOL0     H60434   9.170   2.603   1.584 -2.0483 -1.8711 -0.0030
  448MOL0     H60435   9.253   2.633   1.735 -0.8553  0.6171  3.2710
  448MOL0     H60436   9.043   2.661   1.798  3.3661 -0.3984  2.4299
  448MOL0     H60437   9.083   2.512   1.867  1.8985 -0.8284 -0.7790
  448MOL0     H60438   8.945   2.379   1.692 -3.2718  0.5302 -2.5594
  448MOL0     H60439   8.901   2.535   1.618 -0.2724  0.0282 -0.3472
  448MOL0     H60440   8.730   2.459   1.555  0.9680 -1.3827  0.1426
  448MOL0     H60441   8.423   2.488   1.401 -1.2879  0.6528  0.5393
  448MOL0     H60442   8.570   2.381   1.406 -1.7336 -1.8393 -1.8765
  448MOL0     H60443   8.421   2.327   1.469  0.3825  0.3811  2.7242
  448MOL0     H60444   8.022   2.667   1.856 -2.0109  0.7902  1.2317
  448MOL0     H60445   7.759   2.668   1.799 -0.4614  0.3315 -1.7510
  448MOL0     H60446   7.541   2.566   1.841  1.2698 -3.8935  0.9275
  448MOL0     H60447   7.563   2.645   1.681  0.2614  1.0746  2.7552
  448MOL0     H60448   7.408   2.460   1.601  0.4620 -0.2523  0.2010
  448MOL0     H60449   7.376   2.439   1.780 -1.4554  0.9418  0.4045
  448MOL0     H60450   7.350   2.708   1.649 -1.3545  0.6365  0.5355
  448MOL0     H60451   7.302   2.651   1.815  1.2164 -0.2408  0.7342
  448MOL0     H60452   7.209   2.572   1.531  0.4032 -2.3346  0.2778
  448MOL0     H60453   7.157   2.480   1.666  2.4629 -1.1374 -1.6875
  448MOL0     H60454   6.992   2.643   1.571  0.8777 -1.5754 -0.1209
  448MOL0     H60455   7.086   2.777   1.641  0.5587  0.2369 -0.6990
  448MOL0     H60456   6.989   2.543   1.816 -2.3759  0.3869  0.0052
  448MOL0     H60457   7.048   2.702   1.863  1.9507 -0.1274 -0.9499
  448MOL0     H60458   6.783   2.652   1.707  0.5629 -2.7566  1.3630
  448MOL0     H60459   6.863   2.804   1.745  0.7064 -1.7594 -2.4268
  448MOL0     H60460   6.825   2.598   1.975 -2.0750 -0.7576 -0.1789
  448MOL0     H60461   6.683   2.682   1.913  0.5802 -2.5778 -0.5661
  448MOL0     H60462   7.813   2.264   1.656  0.4571 -0.7669  1.2821
  448MOL0     H60463   8.044   2.272   1.696  1.5430  0.2864  2.0347
  448MOL0     H60464   8.420   2.519   1.928  0.2381 -1.2483  0.4621
  448MOL0     H60465   8.658   2.536   1.959  1.5080  1.1416 -0.8116
  448MOL0     H60466  10.299   3.224   1.893  0.6428 -2.5003  0.9928
  448MOL0     H60467  10.415   3.451   1.949 -2.1993 -2.1718  2.0648
  448MOL0     H60468  10.618   3.870   1.750 -1.9587 -1.3637  1.1159
  448MOL0     H60469  10.742   4.045   1.770 -2.1393 -1.0202  0.1825
  448MOL0     H60470  11.008   4.110   1.726 -1.7939 -1.1222  0.9767
  448MOL0     H60471  10.890   4.208   1.813 -0.9650 -3.0680 -2.7403
  448MOL0     H60472  11.097   4.288   1.953 -0.8311 -0.2973 -0.0107
  448MOL0     H60473  11.072   4.365   1.807 -2.8614 -0.9041  0.0005
  448MOL0     H60474  11.317   4.309   1.802  1.2068  0.2735 -1.4666
  448MOL0     H60475  11.246   4.200   1.694  1.3733  3.0488 -1.0098
  448MOL0     H60476  11.393   4.073   1.819  0.6198  4.6850 -1.2400
  448MOL0     H60477  11.224   4.022   1.873  1.2353 -1.8724  4.1005
  448MOL0     H60478  11.454   4.197   2.201  1.8155 -1.8390 -0.3021
  448MOL0     H60479  10.975   3.848   2.084 -0.1703 -1.9318 -0.2045
  448MOL0     H60480  10.833   3.657   2.049 -0.4255 -2.4389 -2.9439
  449MOL0     O60481   0.588   0.336   1.067 -0.2044  0.5454  0.2234
  449MOL0     C60482   0.609   0.237   1.130 -0.6009  0.6217 -1.1575
  449MOL0     O60483   0.524   0.177   1.215  0.8159 -0.5811  0.1882
  449MOL0     C60484   0.393   0.206   1.215  0.2049 -0.0819 -0.5171
  449MOL0     C60485   0.342   0.331   1.247  0.7882  0.3153 -0.4087
  449MOL0     C60486   0.205   0.358   1.243  0.1556  0.5329 -0.6126
  449MOL0     C60487   0.117   0.265   1.211 -0.8802 -0.8493  0.8905
  449MOL0     O60488  -0.020   0.274   1.209 -0.0384  0.9018  0.6258
  449MOL0     C60489  -0.080   0.403   1.234  0.9148  0.3774  0.7669
  449MOL0     C60490  -0.224   0.381   1.198 -0.4030 -0.2515 -0.1093
  449MOL0     C60491  -0.289   0.259   1.269  0.2155  0.4022 -0.3691
  449MOL0     C60492  -0.433   0.241   1.244  0.0817 -0.3554 -0.2436
  449MOL0     C60493  -0.510   0.209   1.369 -0.7768 -0.3783 -0.1883
  449MOL0     C60494  -0.663   0.172   1.338 -0.0614 -0.6142 -0.0112
  449MOL0     C60495  -0.755   0.288   1.297 -0.8255 -0.0305  0.3789
  449MOL0     C60496  -0.883   0.242   1.234  0.8324 -0.3147 -0.4860
  449MOL0     N60497  -0.952   0.366   1.194  0.0506  0.5349  0.0128
  449MOL0     C60498  -0.970   0.419   1.060 -0.4820  0.6918 -0.5299
  449MOL0     C60499  -1.044   0.532   1.078  0.3359 -0.0568  0.7250
  449MOL0     C60500  -1.103   0.619   0.967 -0.1424 -0.0458 -0.3787
  449MOL0     C60501  -1.258   0.624   0.963  0.6206 -0.2278  0.8310
  449MOL0     C60502  -1.312   0.717   1.076  0.3660 -0.1264 -0.0798
  449MOL0     C60503  -1.473   0.720   1.085  0.7982 -0.3170 -0.1153
  449MOL0     O60504  -1.541   0.597   1.086  0.4773  0.7122 -0.1900
  449MOL0     C60505  -1.671   0.591   1.125  0.1177 -0.8411 -0.0417
  449MOL0     C60506  -1.735   0.689   1.203 -0.1815  0.4634 -0.2191
  449MOL0     C60507  -1.876   0.680   1.226  0.3280 -0.0496  0.8893
  449MOL0     C60508  -1.934   0.805   1.292 -0.5847  0.0066 -0.3163
  449MOL0     C60509  -1.952   0.573   1.175 -0.3080 -0.2161 -0.2936
  449MOL0     C60510  -2.094   0.552   1.206 -0.1907  0.4749  0.8437
  449MOL0     O60511  -2.150   0.444   1.156 -0.5638  0.4360 -0.2813
  449MOL0     C60512  -2.287   0.419   1.150  0.2594  0.0526  0.1720
  449MOL0     C60513  -2.347   0.297   1.203 -0.2920 -0.2400 -0.0675
  449MOL0     C60514  -2.479   0.258   1.191 -0.6142 -0.5538 -0.7804
  449MOL0     C60515  -2.555   0.341   1.105 -0.3834  0.1522  0.6859
  449MOL0     O60516  -2.681   0.317   1.061 -0.1613 -0.0343  0.4696
  449MOL0     C60517  -2.770   0.244   1.141  0.1840 -0.5042  0.4037
  449MOL0     C60518  -2.907   0.265   1.077  0.3560 -0.0252 -1.0459
  449MOL0     C60519  -3.005   0.182   1.152 -0.5597  0.2201 -0.2533
  449MOL0     C60520  -3.002   0.033   1.105 -0.7188 -0.6627 -0.8967
  449MOL0     C60521  -3.095  -0.064   1.180 -0.0079  0.8380  1.5393
  449MOL0     C60522  -3.242  -0.032   1.163 -0.1461  0.3846 -0.6445
  449MOL0     C60523  -3.339  -0.134   1.228  0.3951 -0.4793  1.0208
  449MOL0     C60524  -3.487  -0.108   1.204  0.5943  0.5706  0.4722
  449MOL0    Cl60525  -3.529  -0.123   1.030  0.0373  0.4685 -0.1155
  449MOL0     C60526  -2.499   0.455   1.038  0.5014 -0.0385  1.1165
  449MOL0     C60527  -2.366   0.498   1.070  0.3847 -0.0224  0.6044
  449MOL0     O60528  -2.154   0.634   1.270 -0.1563  0.6433  0.5710
  449MOL0     C60529  -1.875   0.472   1.100  0.5013  0.2955 -1.0461
  449MOL0     C60530  -1.740   0.485   1.086 -0.5013  0.0466 -0.3006
  449MOL0     N60531  -1.070   0.543   1.217  0.6453  0.2349  0.0344
  449MOL0     N60532  -1.019   0.449   1.285  0.0825 -0.0029 -0.6283
  449MOL0     C60533   0.167   0.133   1.180 -0.9520  0.4409 -0.1850
  449MOL0     C60534   0.306   0.102   1.185  1.0686  0.4339 -0.0132
  449MOL0     C60535   0.749   0.205   1.157  0.4292 -0.1867  0.0997
  449MOL0     C60536   0.853   0.253   1.074 -0.4649 -0.6301  0.0772
  449MOL0     C60537   0.990   0.238   1.111 -0.4413  0.1840 -0.2841
  449MOL0     C60538   1.022   0.159   1.225 -0.1956 -0.2326 -0.1849
  449MOL0     O60539   1.144   0.126   1.266 -0.8376 -0.7883 -0.5481
  449MOL0     C60540   1.259   0.184   1.199  0.7055 -0.1548 -0.1252
  449MOL0     C60541   1.397   0.128   1.252  0.1077 -0.8623 -0.7425
  449MOL0     C60542   1.521   0.191   1.184  0.2137  0.5201  0.8119
  449MOL0     C60543   1.647   0.170   1.270 -1.0894 -0.5068  0.0981
  449MOL0     C60544   1.774   0.235   1.225  1.1728  0.5728  0.3100
  449MOL0     C60545   1.872   0.285   1.179 -0.8475 -0.8468 -0.7500
  449MOL0     C60546   0.920   0.103   1.302  0.1030  0.3963 -0.2058
  449MOL0     C60547   0.781   0.121   1.270  0.0066 -0.1456 -0.9169
  449MOL0     H60548   0.410   0.414   1.260 -1.0803  1.5896  1.9251
  449MOL0     H60549   0.178   0.461   1.261  0.2829  0.3855  0.4738
  449MOL0     H60550  -0.082   0.428   1.341  0.8477 -1.4414  1.2288
  449MOL0     H60551  -0.038   0.475   1.164  1.4243 -0.0365  0.6434
  449MOL0     H60552  -0.270   0.474   1.230 -0.2835 -0.7183  1.5085
  449MOL0     H60553  -0.231   0.363   1.090 -4.0203 -0.2008 -0.0026
  449MOL0     H60554  -0.243   0.175   1.216 -0.8878  0.9361 -2.2702
  449MOL0     H60555  -0.263   0.254   1.375  0.4090 -2.0123 -0.4597
  449MOL0     H60556  -0.471   0.334   1.201  2.2052 -0.1069 -1.7273
  449MOL0     H60557  -0.443   0.164   1.167 -0.5568 -0.5557  0.0377
  449MOL0     H60558  -0.461   0.120   1.410  3.1004  1.7623  0.3392
  449MOL0     H60559  -0.495   0.285   1.446  1.0204 -0.9253  0.0538
  449MOL0     H60560  -0.657   0.113   1.246 -3.2545  2.9734 -2.8138
  449MOL0     H60561  -0.702   0.111   1.419  2.3318 -1.0244  0.9260
  449MOL0     H60562  -0.771   0.345   1.389  3.4464  1.4616  0.4233
  449MOL0     H60563  -0.712   0.355   1.221 -0.8915 -1.2235 -0.7535
  449MOL0     H60564  -0.952   0.195   1.304 -1.3544  1.6336 -1.1926
  449MOL0     H60565  -0.871   0.174   1.148 -0.3833 -1.5624  0.2769
  449MOL0     H60566  -0.930   0.381   0.966  1.8133  0.3346  0.5269
  449MOL0     H60567  -1.067   0.721   0.984  0.9847 -0.2189 -1.6055
  449MOL0     H60568  -1.076   0.590   0.865 -1.4131  2.1939 -1.4201
  449MOL0     H60569  -1.305   0.527   0.981  0.2376  0.2680  2.7662
  449MOL0     H60570  -1.285   0.666   0.866  1.7652 -0.2207  0.5044
  449MOL0     H60571  -1.272   0.817   1.059  0.3356  0.0489  0.8594
  449MOL0     H60572  -1.282   0.674   1.172 -1.1913  0.9215  0.9164
  449MOL0     H60573  -1.504   0.782   1.000  1.4120  0.2495  0.0636
  449MOL0     H60574  -1.487   0.780   1.176  2.9283  1.3200 -0.7611
  449MOL0     H60575  -1.691   0.777   1.247  0.9560 -0.0937 -0.1924
  449MOL0     H60576  -2.009   0.844   1.222  0.1959 -1.8719 -2.3260
  449MOL0     H60577  -1.981   0.785   1.388  1.5759 -0.3271  0.7288
  449MOL0     H60578  -1.859   0.883   1.300 -0.0187 -0.5133 -0.4608
  449MOL0     H60579  -2.286   0.224   1.254 -0.4338 -2.1696 -2.4964
  449MOL0     H60580  -2.512   0.168   1.242  0.8243 -0.4530  0.4156
  449MOL0     H60581  -2.744   0.138   1.149  1.4402 -0.0702  2.8497
  449MOL0     H60582  -2.764   0.294   1.238 -2.5406  2.2098 -0.6733
  449MOL0     H60583  -2.936   0.369   1.096  1.5382  0.2720 -0.8228
  449MOL0     H60584  -2.910   0.250   0.969  1.6435  1.7248 -1.3589
  449MOL0     H60585  -3.103   0.230   1.143 -0.2711  1.3127  1.9625
  449MOL0     H60586  -2.982   0.177   1.259  0.1642 -1.2808 -0.4494
  449MOL0     H60587  -3.025   0.017   0.999 -0.7213 -2.6150 -0.6263
  449MOL0     H60588  -2.900  -0.002   1.125 -1.2590 -1.4089  0.6731
  449MOL0     H60589  -3.067  -0.075   1.285 -0.1475  3.1255  1.8509
  449MOL0     H60590  -3.082  -0.162   1.132  0.6103  0.7726  1.8339
  449MOL0     H60591  -3.258   0.065   1.211  1.7168  0.9118 -1.0159
  449MOL0     H60592  -3.268  -0.031   1.057 -0.4007 -0.6733 -0.5996
  449MOL0     H60593  -3.320  -0.122   1.335  1.7489  0.5829  0.6889
  449MOL0     H60594  -3.312  -0.235   1.197 -0.0893  0.0492 -1.2547
  449MOL0     H60595  -3.517  -0.006   1.231 -0.0822  1.1726 -2.2678
  449MOL0     H60596  -3.546  -0.181   1.261  0.2756 -0.7961 -1.5304
  449MOL0     H60597  -2.554   0.511   0.963 -0.3173 -1.0550  0.9233
  449MOL0     H60598  -2.321   0.589   1.031  1.8198 -0.5659  0.9490
  449MOL0     H60599  -1.925   0.381   1.066 -2.9075  0.5673  2.6248
  449MOL0     H60600  -1.678   0.414   1.032  0.8849 -0.5760  1.9802
  449MOL0     H60601   0.103   0.052   1.147  0.5813  0.2859 -3.2130
  449MOL0     H60602   0.352   0.008   1.155  1.0734  1.2533 -2.7970
  449MOL0     H60603   0.843   0.313   0.984 -1.3144  0.4532  0.8696
  449MOL0     H60604   1.066   0.275   1.042 -0.9171 -0.7228 -1.3219
  449MOL0     H60605   1.261   0.155   1.093  0.6915 -1.3064  0.1766
  449MOL0     H60606   1.253   0.293   1.206  0.0544 -0.2230  0.4437
  449MOL0     H60607   1.397   0.020   1.232 -0.3606 -0.4785 -3.2107
  449MOL0     H60608   1.402   0.140   1.360  0.3970 -1.5480 -0.6698
  449MOL0     H60609   1.495   0.296   1.170 -1.7818  0.0853  1.0629
  449MOL0     H60610   1.522   0.138   1.088  0.9970  0.9804  0.5585
  449MOL0     H60611   1.681   0.066   1.268  0.0180 -0.1492 -0.0970
  449MOL0     H60612   1.628   0.198   1.374 -1.9300  0.5006 -0.3050
  449MOL0     H60613   1.948   0.334   1.122 -3.7636  2.2349 -2.2842
  449MOL0     H60614   0.943   0.031   1.380  2.9384 -0.4934 -1.7281
  449MOL0     H60615   0.707   0.070   1.331 -0.8566  0.7868 -1.1637
  450MOL0     O60616   5.395   7.493   4.038 -1.5123  0.3487 -0.6026
  450MOL0     C60617   5.356   7.439   3.940  0.5697  0.7395  0.0870
  450MOL0     O60618   5.429   7.409   3.828  0.5482  0.0448 -0.1039
  450MOL0     C60619   5.557   7.455   3.819  0.0213 -0.5849 -0.0769
  450MOL0     C60620   5.593   7.545   3.721  0.3032 -0.1590  0.9194
  450MOL0     C60621   5.726   7.580   3.697 -0.3248 -0.0953 -0.2372
  450MOL0     C60622   5.831   7.532   3.781  0.0770 -0.0540 -0.0199
  450MOL0     O60623   5.957   7.572   3.745 -0.1414  0.4138  0.4398
  450MOL0     C60624   6.077   7.503   3.785  0.8066  0.0344  0.2971
  450MOL0     C60625   6.203   7.569   3.732 -0.6110 -0.1189  0.4682
  450MOL0     C60626   6.192   7.720   3.773  0.0855 -0.1437 -0.9138
  450MOL0     C60627   6.338   7.776   3.771  0.3642  0.2064  0.1260
  450MOL0     C60628   6.399   7.790   3.627 -0.1262  0.2370 -0.5992
  450MOL0     C60629   6.507   7.894   3.606  0.1810 -0.0807 -0.7625
  450MOL0     C60630   6.649   7.838   3.638 -0.0425  0.2064 -0.2300
  450MOL0     C60631   6.768   7.940   3.606 -0.7882 -0.4268 -0.3710
  450MOL0     N60632   6.750   7.996   3.467  0.9999  0.3301 -0.1035
  450MOL0     C60633   6.766   7.935   3.347  0.3984 -0.0667 -0.0532
  450MOL0     C60634   6.736   8.031   3.263  0.2973  0.4662 -0.1127
  450MOL0     C60635   6.736   8.019   3.111 -0.8177  0.3079 -0.3076
  450MOL0     C60636   6.612   7.949   3.057 -1.2753  0.0076 -0.7741
  450MOL0     C60637   6.492   8.041   3.069 -0.4734  0.5610 -0.2845
  450MOL0     C60638   6.359   7.968   3.060 -0.5496 -0.3614 -0.5418
  450MOL0     O60639   6.331   7.878   3.165 -0.2544  0.6082  0.0775
  450MOL0     C60640   6.240   7.777   3.147 -1.0687 -0.3303 -0.0512
  450MOL0     C60641   6.229   7.677   3.242  0.4137 -0.4414  0.6936
  450MOL0     C60642   6.113   7.598   3.248 -0.3344  0.0644  0.7554
  450MOL0     C60643   6.121   7.491   3.360 -0.2468 -0.3149  0.2432
  450MOL0     C60644   6.017   7.607   3.147  0.4717  0.7348 -0.1212
  450MOL0     C60645   5.896   7.518   3.145  0.3169 -1.2093 -0.7214
  450MOL0     O60646   5.852   7.494   3.018  0.5032  0.7131 -0.3744
  450MOL0     C60647   5.720   7.445   3.006 -0.1440  0.2063  0.0065
  450MOL0     C60648   5.694   7.310   2.964 -0.0796 -0.8219  0.1008
  450MOL0     C60649   5.558   7.272   2.952 -0.4015  0.7705 -0.3306
  450MOL0     C60650   5.460   7.360   2.978  0.8264 -0.2416  0.2728
  450MOL0     O60651   5.333   7.315   2.979  0.2824  0.5025  0.3623
  450MOL0     C60652   5.228   7.403   2.927  0.4672  0.1176  0.2564
  450MOL0     C60653   5.096   7.328   2.931  0.3304 -0.5728  0.3004
  450MOL0     C60654   4.991   7.405   2.857  0.1172 -0.2595 -0.4235
  450MOL0     C60655   4.941   7.344   2.733  0.0487 -1.0006 -0.2502
  450MOL0     C60656   4.858   7.222   2.755  0.1898 -0.2280  0.5253
  450MOL0     C60657   4.771   7.168   2.636 -0.7389 -0.6371  0.5808
  450MOL0     C60658   4.664   7.265   2.584 -0.3891  0.2845 -0.2353
  450MOL0     C60659   4.538   7.197   2.533 -0.0219  0.1474  0.0259
  450MOL0    Cl60660   4.405   7.310   2.526  0.4856 -0.2505  0.0546
  450MOL0     C60661   5.491   7.489   3.034  0.7486 -1.0391  0.4940
  450MOL0     C60662   5.622   7.530   3.041  0.9126 -0.6311 -0.1716
  450MOL0     O60663   5.827   7.494   3.246 -0.3740 -0.9443 -0.1353
  450MOL0     C60664   6.029   7.706   3.051 -1.2686  0.0322  0.0441
  450MOL0     C60665   6.144   7.790   3.044  0.0342  1.3550  0.4712
  450MOL0     N60666   6.710   8.153   3.320  0.1719  0.1967  0.3789
  450MOL0     N60667   6.715   8.126   3.447  0.2005  0.4123  0.5089
  450MOL0     C60668   5.800   7.454   3.893  0.5722  0.5365 -0.2731
  450MOL0     C60669   5.658   7.414   3.911  0.2212 -0.3906 -0.0837
  450MOL0     C60670   5.214   7.396   3.930  0.1885  0.5697 -0.2968
  450MOL0     C60671   5.172   7.311   3.822 -0.7075  0.6790 -0.0570
  450MOL0     C60672   5.042   7.260   3.810  0.3659  0.0705  0.4104
  450MOL0     C60673   4.939   7.292   3.902 -0.2473  0.0939 -1.1533
  450MOL0     O60674   4.802   7.256   3.893  0.0669 -0.0146  0.7535
  450MOL0     C60675   4.784   7.125   3.841 -0.5463 -0.8974 -0.2955
  450MOL0     C60676   4.641   7.081   3.844 -0.2054 -0.4263  0.6484
  450MOL0     C60677   4.559   7.169   3.742 -0.3182  0.6507 -0.0222
  450MOL0     C60678   4.409   7.184   3.771  0.7099 -0.0075 -1.0368
  450MOL0     C60679   4.372   7.209   3.913 -0.9673  0.6436  0.0735
  450MOL0     C60680   4.324   7.240   4.019  0.4293 -0.3732  0.4750
  450MOL0     C60681   4.980   7.372   4.012 -0.1218 -0.6956  0.0187
  450MOL0     C60682   5.113   7.427   4.023  0.5171  0.4849 -0.9534
  450MOL0     H60683   5.519   7.579   3.650  2.3824 -0.7838 -1.7230
  450MOL0     H60684   5.752   7.654   3.622 -0.4421  0.3581  0.1592
  450MOL0     H60685   6.072   7.509   3.894 -1.5050 -0.2509  0.2728
  450MOL0     H60686   6.067   7.399   3.751 -1.0045  1.4182 -4.1717
  450MOL0     H60687   6.291   7.528   3.782  0.5561  0.3623 -1.1265
  450MOL0     H60688   6.204   7.548   3.625  1.3486 -0.0069  0.4383
  450MOL0     H60689   6.124   7.769   3.703 -1.0750  0.6216  0.6779
  450MOL0     H60690   6.156   7.731   3.876 -0.8388 -2.9646 -0.8512
  450MOL0     H60691   6.328   7.871   3.825  0.0150  0.5041 -0.4616
  450MOL0     H60692   6.401   7.709   3.830 -0.9898 -2.0400 -0.8630
  450MOL0     H60693   6.431   7.693   3.589  0.0134 -0.7156  1.8109
  450MOL0     H60694   6.320   7.824   3.559 -0.5033 -0.4581 -0.5080
  450MOL0     H60695   6.504   7.926   3.501 -1.7604  1.1294 -0.3976
  450MOL0     H60696   6.497   7.983   3.669  1.3814 -0.0702 -0.5633
  450MOL0     H60697   6.660   7.806   3.742 -1.1512  0.4151 -0.0386
  450MOL0     H60698   6.668   7.751   3.573  2.0695  1.5014 -1.4675
  450MOL0     H60699   6.860   7.882   3.622 -1.1074 -0.6794  0.5912
  450MOL0     H60700   6.771   8.027   3.672  0.5061  1.5550 -2.8467
  450MOL0     H60701   6.796   7.837   3.313 -0.2048 -0.0404 -0.6638
  450MOL0     H60702   6.756   8.118   3.070  0.3267  0.1390 -0.1829
  450MOL0     H60703   6.828   7.964   3.092  0.5160  3.0550 -2.5581
  450MOL0     H60704   6.596   7.859   3.116 -0.8240  2.0269  2.7029
  450MOL0     H60705   6.644   7.926   2.955 -0.1714 -0.8050 -0.2676
  450MOL0     H60706   6.497   8.113   2.987 -0.9738  0.1075 -0.7238
  450MOL0     H60707   6.500   8.095   3.164  1.5148 -0.1109 -0.0293
  450MOL0     H60708   6.353   7.929   2.958  0.8972  3.4468 -2.2597
  450MOL0     H60709   6.293   8.056   3.062 -0.9295 -0.6511 -0.0378
  450MOL0     H60710   6.298   7.665   3.325  0.3587 -2.3465  0.5086
  450MOL0     H60711   6.049   7.410   3.341  0.5784 -0.8844 -0.5738
  450MOL0     H60712   6.226   7.459   3.370  1.2230  3.6171 -0.9299
  450MOL0     H60713   6.092   7.533   3.457  0.0574 -2.0008  1.1042
  450MOL0     H60714   5.774   7.239   2.946  0.6169 -0.1207  0.3516
  450MOL0     H60715   5.519   7.179   2.913  0.1263  0.0958  0.6984
  450MOL0     H60716   5.217   7.496   2.983 -1.5723  1.2680 -1.8702
  450MOL0     H60717   5.258   7.427   2.824 -0.8535 -0.0023 -0.1818
  450MOL0     H60718   5.116   7.229   2.890  1.6366 -0.2647  0.1753
  450MOL0     H60719   5.057   7.315   3.033 -1.8567 -1.4624 -0.5753
  450MOL0     H60720   5.032   7.505   2.836  0.5663 -0.2947  0.2606
  450MOL0     H60721   4.907   7.424   2.924  0.0188 -0.2483 -0.5497
  450MOL0     H60722   4.865   7.411   2.690 -0.9006 -1.9131 -0.0400
  450MOL0     H60723   5.019   7.325   2.660 -2.1366  0.1907 -3.0778
  450MOL0     H60724   4.789   7.227   2.840 -0.9242 -2.8763 -0.1589
  450MOL0     H60725   4.934   7.148   2.782 -0.9250 -1.1716  1.1439
  450MOL0     H60726   4.837   7.121   2.561 -0.0746 -1.8335  1.8723
  450MOL0     H60727   4.719   7.084   2.682  0.5776 -0.7769  1.9006
  450MOL0     H60728   4.699   7.329   2.503 -1.1858 -0.0038 -0.8241
  450MOL0     H60729   4.640   7.322   2.674  1.5990  1.3998 -0.3693
  450MOL0     H60730   4.512   7.115   2.600 -2.5241  0.4023 -0.5465
  450MOL0     H60731   4.555   7.164   2.430  4.3522  0.4842  0.4335
  450MOL0     H60732   5.416   7.563   3.059  2.2507  1.1658 -1.2387
  450MOL0     H60733   5.641   7.630   3.079 -0.1879 -0.8586  1.0565
  450MOL0     H60734   5.958   7.730   2.973 -1.2025  0.4508  0.1080
  450MOL0     H60735   6.149   7.867   2.967 -0.1409  0.2431 -0.6869
  450MOL0     H60736   5.866   7.426   3.975  1.4466 -0.5926 -1.3138
  450MOL0     H60737   5.646   7.344   3.992  1.3213 -0.0713  0.3658
  450MOL0     H60738   5.240   7.272   3.747 -0.3453 -0.1470  0.6758
  450MOL0     H60739   5.012   7.194   3.729 -2.8329 -2.3563  3.2635
  450MOL0     H60740   4.808   7.129   3.734  2.2238  2.6539  0.2826
  450MOL0     H60741   4.847   7.048   3.887  1.6869  0.7915 -0.3700
  450MOL0     H60742   4.598   7.068   3.944  1.1271 -1.7356  1.0889
  450MOL0     H60743   4.650   6.980   3.803  0.2926  0.3164 -1.1511
  450MOL0     H60744   4.580   7.131   3.641  1.9806  0.0595  0.6090
  450MOL0     H60745   4.601   7.270   3.742  1.7467 -0.1612  0.7737
  450MOL0     H60746   4.364   7.087   3.747  1.0841 -0.2378 -0.8302
  450MOL0     H60747   4.367   7.263   3.709 -0.4711  2.5437  2.6981
  450MOL0     H60748   4.276   7.264   4.112 -0.5454 -1.2875  0.2183
  450MOL0     H60749   4.909   7.395   4.091  1.7040  3.4869  0.7273
  450MOL0     H60750   5.132   7.488   4.111 -1.3012 -0.8965  0.4738
  451MOL0     O60751   7.929   0.685   5.411 -0.1123 -0.2952 -0.6811
  451MOL0     C60752   7.922   0.596   5.497  0.3194  0.0472  0.6657
  451MOL0     O60753   7.826   0.497   5.497 -0.4613  0.2905 -0.1954
  451MOL0     C60754   7.717   0.490   5.417  0.4193  0.4097 -0.2510
  451MOL0     C60755   7.656   0.593   5.341 -0.1979 -0.0410  0.6917
  451MOL0     C60756   7.527   0.576   5.291 -0.1680 -0.3581 -0.4451
  451MOL0     C60757   7.468   0.454   5.296  0.6670  0.4515 -0.1361
  451MOL0     O60758   7.353   0.425   5.229  0.0574 -0.0923  0.0352
  451MOL0     C60759   7.351   0.462   5.090 -0.7161 -1.0027 -0.3736
  451MOL0     C60760   7.224   0.434   5.010  0.0419  0.2331 -0.3406
  451MOL0     C60761   7.098   0.465   5.100  0.3206 -0.5917  0.2776
  451MOL0     C60762   6.974   0.435   5.020  0.1151  0.9916 -0.4396
  451MOL0     C60763   6.849   0.511   5.085 -0.6308  0.1864 -0.7655
  451MOL0     C60764   6.723   0.429   5.068 -0.8743  0.1555 -0.1144
  451MOL0     C60765   6.594   0.495   5.100 -0.1965  0.5458  0.2391
  451MOL0     C60766   6.471   0.404   5.100  0.7280  0.3646 -0.1974
  451MOL0     N60767   6.399   0.386   4.975  0.5936 -0.2509 -0.0535
  451MOL0     C60768   6.299   0.473   4.921 -0.4661 -1.0672  1.0009
  451MOL0     C60769   6.284   0.423   4.794 -0.8314  0.3484 -0.0954
  451MOL0     C60770   6.187   0.463   4.689  0.4681 -0.0599 -0.2623
  451MOL0     C60771   6.076   0.561   4.734 -0.6250 -0.1935  0.1000
  451MOL0     C60772   6.030   0.661   4.623  0.4717 -0.2539  0.0484
  451MOL0     C60773   5.892   0.723   4.651  0.5065 -0.5390  0.0635
  451MOL0     O60774   5.789   0.663   4.568  0.8570 -0.3826 -0.1749
  451MOL0     C60775   5.658   0.715   4.564  0.1050  0.3432 -0.6220
  451MOL0     C60776   5.616   0.830   4.639 -0.9793  0.4695 -0.4003
  451MOL0     C60777   5.484   0.877   4.636  0.2444 -0.1166 -0.0750
  451MOL0     C60778   5.467   1.014   4.702  0.5782  0.1750 -0.4618
  451MOL0     C60779   5.392   0.814   4.552  0.9604  0.4281  0.2772
  451MOL0     C60780   5.250   0.852   4.539 -0.4977  1.8371  0.1201
  451MOL0     O60781   5.150   0.766   4.585  0.7227 -0.2945  0.3205
  451MOL0     C60782   5.024   0.752   4.535  0.2531  0.1826 -0.2903
  451MOL0     C60783   4.914   0.766   4.614 -0.4837  0.3197 -0.2444
  451MOL0     C60784   4.783   0.756   4.566  0.2783 -0.3062  0.5678
  451MOL0     C60785   4.774   0.719   4.431 -0.3062 -0.2883  0.7554
  451MOL0     O60786   4.663   0.681   4.367  0.1318  0.2471  0.4745
  451MOL0     C60787   4.548   0.638   4.433  0.2929  0.3675  0.1812
  451MOL0     C60788   4.428   0.705   4.371  0.5343 -0.9429  0.0014
  451MOL0     C60789   4.384   0.636   4.239  0.9558  0.2486 -0.7732
  451MOL0     C60790   4.239   0.678   4.201 -0.5247  0.4881 -0.6111
  451MOL0     C60791   4.219   0.718   4.056  0.6337  0.3486  0.6097
  451MOL0     C60792   4.065   0.742   4.042 -0.4705 -0.4644 -0.0323
  451MOL0     C60793   4.009   0.857   4.124  0.3449 -0.1838  0.4178
  451MOL0     C60794   4.052   0.994   4.077  0.3680  1.0345  0.2178
  451MOL0    Cl60795   3.959   1.116   4.174 -0.0734 -0.1258  0.1263
  451MOL0     C60796   4.889   0.712   4.355  0.2350  0.5320 -0.3467
  451MOL0     C60797   5.014   0.728   4.406 -0.1660 -0.8394  0.2268
  451MOL0     O60798   5.235   0.955   4.472 -0.2155  1.0073 -0.2351
  451MOL0     C60799   5.428   0.702   4.477  0.2487  0.6207  0.9669
  451MOL0     C60800   5.562   0.661   4.482  0.1690  1.0766 -0.1285
  451MOL0     N60801   6.381   0.321   4.769  0.2339  0.6397 -0.0600
  451MOL0     N60802   6.450   0.299   4.875  0.0632  0.4060 -0.1209
  451MOL0     C60803   7.528   0.354   5.370 -0.7404  0.3479 -0.5269
  451MOL0     C60804   7.649   0.375   5.436 -0.2737  0.4504  0.0975
  451MOL0     C60805   8.030   0.592   5.595  0.0802  0.3017  0.0238
  451MOL0     C60806   8.037   0.504   5.705  0.4822  0.1708  0.7147
  451MOL0     C60807   8.136   0.512   5.802  0.2648 -0.0903  0.4857
  451MOL0     C60808   8.241   0.606   5.796  0.6601  0.0857 -0.1647
  451MOL0     O60809   8.330   0.601   5.898  0.0769 -0.1142  0.2985
  451MOL0     C60810   8.449   0.684   5.890 -0.0949 -0.3231  0.4121
  451MOL0     C60811   8.539   0.639   6.010  0.7686  0.0066 -0.7185
  451MOL0     C60812   8.653   0.744   6.031 -0.3880 -0.4725 -0.6004
  451MOL0     C60813   8.740   0.697   6.150 -0.3633 -0.9842  0.6283
  451MOL0     C60814   8.846   0.798   6.177 -0.5453 -0.0377  1.1003
  451MOL0     C60815   8.919   0.893   6.174 -0.1438 -0.1771 -0.2751
  451MOL0     C60816   8.239   0.695   5.688 -0.3002  0.5109  1.5281
  451MOL0     C60817   8.133   0.694   5.597  0.1839 -0.7099  0.7966
  451MOL0     H60818   7.702   0.689   5.319  2.1814 -0.7939  1.9659
  451MOL0     H60819   7.476   0.650   5.230  1.8869  1.0766 -0.5338
  451MOL0     H60820   7.370   0.570   5.081 -2.1767 -0.6080  0.8686
  451MOL0     H60821   7.432   0.407   5.041  0.7363  1.7511 -1.3068
  451MOL0     H60822   7.225   0.492   4.917 -1.5297  3.7700  1.6774
  451MOL0     H60823   7.218   0.329   4.980 -3.4361  0.4492 -0.7438
  451MOL0     H60824   7.098   0.416   5.198  2.6974  1.2948  1.3387
  451MOL0     H60825   7.104   0.574   5.110  0.8922 -0.5247 -0.6735
  451MOL0     H60826   6.973   0.470   4.916 -3.7434  0.6226 -0.6813
  451MOL0     H60827   6.958   0.326   5.016  2.1878  0.6225  0.4558
  451MOL0     H60828   6.864   0.524   5.192 -3.6462  2.1725 -0.4464
  451MOL0     H60829   6.827   0.609   5.043  0.2536  1.2269  1.1091
  451MOL0     H60830   6.717   0.402   4.962  1.0371 -1.9080  0.2459
  451MOL0     H60831   6.746   0.338   5.123  0.7703  0.4007 -0.3286
  451MOL0     H60832   6.607   0.533   5.202 -3.5245  1.4127  0.4563
  451MOL0     H60833   6.577   0.576   5.029  0.5417  0.4302 -0.0877
  451MOL0     H60834   6.398   0.449   5.167  0.9213  3.0566 -1.6438
  451MOL0     H60835   6.504   0.311   5.147  3.5096  1.0986 -0.5034
  451MOL0     H60836   6.250   0.554   4.975 -2.8629 -0.0989 -2.3357
  451MOL0     H60837   6.253   0.505   4.614 -0.5213  2.3969  0.1559
  451MOL0     H60838   6.147   0.378   4.632 -1.0659  0.9267 -0.7105
  451MOL0     H60839   6.120   0.623   4.812 -0.7732 -0.9073  0.7636
  451MOL0     H60840   5.996   0.504   4.782 -0.6500  1.3474  2.0153
  451MOL0     H60841   6.029   0.613   4.525  0.3994 -1.2786  0.5353
  451MOL0     H60842   6.099   0.746   4.621  1.0229 -0.6948 -0.1516
  451MOL0     H60843   5.901   0.829   4.625 -0.6271 -0.3086  0.5707
  451MOL0     H60844   5.865   0.713   4.756 -0.1873 -1.1268 -0.1645
  451MOL0     H60845   5.679   0.881   4.711  2.6692  1.0792 -3.6489
  451MOL0     H60846   5.409   1.008   4.795 -0.8569  0.0600 -1.3267
  451MOL0     H60847   5.563   1.058   4.732  1.9506 -2.7558 -0.1826
  451MOL0     H60848   5.413   1.081   4.635  1.4329  1.9980  0.6141
  451MOL0     H60849   4.938   0.794   4.717 -0.9372 -1.0347  0.2505
  451MOL0     H60850   4.701   0.782   4.632  0.7358 -0.2340  1.1215
  451MOL0     H60851   4.541   0.529   4.429  0.9686  0.2634  1.3690
  451MOL0     H60852   4.544   0.663   4.539 -5.2268 -0.7992  0.5622
  451MOL0     H60853   4.345   0.707   4.443 -0.8842  0.4980 -1.5782
  451MOL0     H60854   4.451   0.810   4.351 -1.0710 -0.4690  0.4796
  451MOL0     H60855   4.385   0.528   4.250 -0.3980  0.2665 -0.2397
  451MOL0     H60856   4.459   0.654   4.162  0.5580  1.1590 -0.9602
  451MOL0     H60857   4.178   0.588   4.219  0.7226 -0.1626  0.5585
  451MOL0     H60858   4.225   0.763   4.269 -1.6168 -0.0603 -0.1140
  451MOL0     H60859   4.247   0.637   3.988 -1.5183 -1.1459  1.3959
  451MOL0     H60860   4.288   0.802   4.041  0.7539  0.0692 -0.4523
  451MOL0     H60861   4.051   0.776   3.939 -0.9589 -1.6393 -0.3663
  451MOL0     H60862   4.005   0.651   4.046  0.3779 -0.9942  0.9826
  451MOL0     H60863   4.033   0.849   4.231 -0.7272  0.1978  0.7017
  451MOL0     H60864   3.900   0.862   4.111  0.7090  1.8204 -2.7938
  451MOL0     H60865   4.032   1.007   3.971 -4.5355 -1.7059  0.5158
  451MOL0     H60866   4.157   1.016   4.098  0.6617  2.3860 -2.2579
  451MOL0     H60867   4.877   0.684   4.251 -1.2529 -1.1339  0.2255
  451MOL0     H60868   5.107   0.722   4.350  0.0590 -2.5958  0.7335
  451MOL0     H60869   5.362   0.648   4.410 -0.1920  2.2608  0.0234
  451MOL0     H60870   5.607   0.582   4.422  1.3912  0.1049  1.9720
  451MOL0     H60871   7.479   0.257   5.379  2.9643 -1.5588  1.7622
  451MOL0     H60872   7.684   0.298   5.504 -2.2614  1.5895  2.5753
  451MOL0     H60873   7.952   0.440   5.724 -0.4064  0.2003 -2.5251
  451MOL0     H60874   8.127   0.455   5.894 -2.6474 -1.0569 -0.2937
  451MOL0     H60875   8.505   0.678   5.796 -0.2601  1.5008  0.1653
  451MOL0     H60876   8.413   0.787   5.887  0.2810 -0.1908  0.3751
  451MOL0     H60877   8.588   0.543   5.988 -0.4476 -0.8455  0.1104
  451MOL0     H60878   8.476   0.632   6.099  1.2080  0.9160 -0.3187
  451MOL0     H60879   8.617   0.846   6.044  0.6212 -0.3043  1.3173
  451MOL0     H60880   8.719   0.750   5.944  1.2508  1.8996  0.6845
  451MOL0     H60881   8.794   0.608   6.116 -2.0908 -1.4977 -0.9056
  451MOL0     H60882   8.682   0.685   6.243 -1.0042  0.1193  0.3862
  451MOL0     H60883   8.986   0.976   6.176  0.2981 -0.4744  2.7265
  451MOL0     H60884   8.320   0.766   5.674 -0.6342  0.2260 -3.9924
  451MOL0     H60885   8.123   0.768   5.517  1.2731 -1.4337 -0.0340
  452MOL0     O60886   9.483   4.689   5.247  0.5055 -0.7987  0.2719
  452MOL0     C60887   9.548   4.792   5.232 -0.2298 -0.1307 -0.2386
  452MOL0     O60888   9.488   4.915   5.215  0.1877 -0.3731 -0.5211
  452MOL0     C60889   9.351   4.942   5.206 -0.1914 -0.2536  0.7691
  452MOL0     C60890   9.264   4.860   5.137  0.1563  0.1896 -0.6641
  452MOL0     C60891   9.128   4.885   5.126  0.0443 -0.4656  0.3323
  452MOL0     C60892   9.069   5.001   5.183  0.3223  0.9033 -0.3517
  452MOL0     O60893   8.934   5.024   5.163 -0.0998 -0.2724 -0.1737
  452MOL0     C60894   8.866   5.100   5.271  0.1436 -0.2685 -0.3223
  452MOL0     C60895   8.718   5.109   5.237 -0.0443  0.3160 -1.2270
  452MOL0     C60896   8.643   4.984   5.270 -0.3124 -0.0953  0.1204
  452MOL0     C60897   8.488   5.005   5.275  0.6585  0.0404  0.6408
  452MOL0     C60898   8.430   5.012   5.411  0.9117  0.1517  0.2885
  452MOL0     C60899   8.275   5.018   5.406  0.4109  0.4476 -0.0835
  452MOL0     C60900   8.215   5.156   5.442 -0.2299  0.1986 -0.1615
  452MOL0     C60901   8.069   5.161   5.469 -0.2799  0.5107 -0.0898
  452MOL0     N60902   8.000   5.113   5.349 -0.0044  0.7044  0.5413
  452MOL0     C60903   7.943   5.194   5.254 -0.0823  0.3506 -0.5961
  452MOL0     C60904   7.855   5.114   5.190  0.3946 -0.6771  0.2430
  452MOL0     C60905   7.758   5.160   5.078  0.2908 -0.5189  1.0022
  452MOL0     C60906   7.609   5.125   5.096 -0.1938  0.3616  0.4128
  452MOL0     C60907   7.528   5.228   5.011  1.5696  0.8226 -0.0413
  452MOL0     C60908   7.379   5.225   5.050 -0.3911  0.0004  0.2274
  452MOL0     O60909   7.337   5.084   5.012  0.2949  0.5370 -0.3680
  452MOL0     C60910   7.205   5.054   5.015  0.1713  1.8191  0.3003
  452MOL0     C60911   7.099   5.134   5.061 -0.5498 -0.7201 -0.2770
  452MOL0     C60912   6.965   5.101   5.042  0.6991  0.7239 -0.2614
  452MOL0     C60913   6.868   5.200   5.099  0.0492 -0.6100 -0.3303
  452MOL0     C60914   6.930   4.974   4.985  0.4497 -0.2745 -0.5721
  452MOL0     C60915   6.792   4.932   4.961  0.1799  0.5375  1.0730
  452MOL0     O60916   6.690   5.017   4.928 -0.4518  0.4073 -0.4802
  452MOL0     C60917   6.561   4.969   4.924  0.0597  0.9094  0.1441
  452MOL0     C60918   6.510   4.889   4.822 -0.1708  1.0503  0.3813
  452MOL0     C60919   6.376   4.848   4.832  1.2103 -0.4108  0.8938
  452MOL0     C60920   6.290   4.884   4.928 -0.4637 -0.6011  0.0774
  452MOL0     O60921   6.161   4.847   4.890 -0.1241  0.4340 -1.0014
  452MOL0     C60922   6.065   4.941   4.919 -0.7495  0.9220 -0.1176
  452MOL0     C60923   5.942   4.922   4.824 -0.0961  0.5826  0.1547
  452MOL0     C60924   5.851   5.039   4.831  0.8489  0.0950 -0.7366
  452MOL0     C60925   5.720   5.011   4.756 -0.3554  0.5367 -0.1130
  452MOL0     C60926   5.619   5.130   4.752  0.1289  0.9279  0.0514
  452MOL0     C60927   5.553   5.145   4.891  0.4888  0.1582  0.0635
  452MOL0     C60928   5.451   5.250   4.906  0.2633  0.3024 -0.0466
  452MOL0     C60929   5.342   5.203   4.999 -0.1535 -0.9205  0.6819
  452MOL0    Cl60930   5.402   5.133   5.148  0.5627  0.0051  0.3342
  452MOL0     C60931   6.338   4.979   5.020 -0.8286 -0.4395 -0.0832
  452MOL0     C60932   6.474   5.018   5.018  0.2485 -0.2365  0.0496
  452MOL0     O60933   6.778   4.810   4.966  0.7904  0.0198 -1.1146
  452MOL0     C60934   7.037   4.891   4.950  0.1294  0.0283 -0.1338
  452MOL0     C60935   7.173   4.933   4.952 -1.0324 -0.8568 -0.4826
  452MOL0     N60936   7.864   4.984   5.240  0.5550  0.3113  0.2321
  452MOL0     N60937   7.949   4.987   5.335 -0.4314 -0.2490  0.3905
  452MOL0     C60938   9.162   5.084   5.250 -0.5200 -0.2659 -0.2586
  452MOL0     C60939   9.299   5.060   5.265 -0.0572 -0.2632 -0.4461
  452MOL0     C60940   9.692   4.781   5.244 -1.1490 -0.4136  0.0478
  452MOL0     C60941   9.773   4.891   5.292  0.2985  0.0321  0.1842
  452MOL0     C60942   9.917   4.880   5.300  0.2587  0.6293 -0.8739
  452MOL0     C60943   9.984   4.757   5.263 -0.4528  0.5812  0.3377
  452MOL0     O60944  10.124   4.749   5.268 -0.1504  0.0872 -0.0947
  452MOL0     C60945  10.193   4.662   5.183 -0.6252 -0.6827 -0.1245
  452MOL0     C60946  10.348   4.700   5.186 -0.3130 -0.7463  0.3002
  452MOL0     C60947  10.377   4.760   5.326 -0.7358  0.3187  0.3845
  452MOL0     C60948  10.528   4.795   5.337 -0.4041  0.8802  0.2643
  452MOL0     C60949  10.614   4.670   5.330 -0.9970  0.0468 -0.7765
  452MOL0     C60950  10.686   4.578   5.304 -0.6621  0.1154 -0.6668
  452MOL0     C60951   9.907   4.656   5.203  1.0798  0.1203  0.7071
  452MOL0     C60952   9.760   4.660   5.209 -0.2219  0.7609  0.1446
  452MOL0     H60953   9.312   4.775   5.089  1.7601 -0.0550  1.2396
  452MOL0     H60954   9.073   4.807   5.074 -0.5200 -0.8455  1.4593
  452MOL0     H60955   8.878   5.048   5.366 -2.0124 -1.5800 -0.6992
  452MOL0     H60956   8.899   5.203   5.291  0.8576 -1.1409  3.6977
  452MOL0     H60957   8.669   5.189   5.294 -0.9753 -0.7387 -0.5129
  452MOL0     H60958   8.704   5.129   5.131 -0.6129  0.1905 -1.1751
  452MOL0     H60959   8.670   4.914   5.191 -1.3331 -0.2659 -0.0954
  452MOL0     H60960   8.679   4.944   5.365  1.9637  0.3724 -0.4915
  452MOL0     H60961   8.455   5.094   5.221  0.4971  0.8892  2.0858
  452MOL0     H60962   8.444   4.916   5.228  0.7583  1.0874 -1.5801
  452MOL0     H60963   8.452   4.928   5.477 -0.5417 -0.2811  0.2616
  452MOL0     H60964   8.468   5.106   5.452 -3.4629  1.8517  1.0368
  452MOL0     H60965   8.243   4.975   5.310  2.2589 -1.4149  0.0586
  452MOL0     H60966   8.237   4.944   5.477 -1.7894  1.3752 -0.2044
  452MOL0     H60967   8.253   5.186   5.541  0.1242  1.9690 -0.8067
  452MOL0     H60968   8.237   5.232   5.367 -2.1038  2.0332  1.0342
  452MOL0     H60969   8.038   5.263   5.490 -0.5044  0.1855  1.2754
  452MOL0     H60970   8.041   5.102   5.557  1.5499 -0.6218 -0.1949
  452MOL0     H60971   7.966   5.299   5.236  1.2269 -0.1696 -2.2575
  452MOL0     H60972   7.753   5.269   5.072 -0.7833 -0.5926  0.2422
  452MOL0     H60973   7.789   5.123   4.980 -2.2712 -1.6632  0.5658
  452MOL0     H60974   7.594   5.141   5.203 -0.8525  2.0178  0.0920
  452MOL0     H60975   7.595   5.018   5.074  3.2051  0.2410 -1.9312
  452MOL0     H60976   7.534   5.217   4.902  0.7807 -3.5806  0.1733
  452MOL0     H60977   7.570   5.327   5.034  1.5978  0.6219  0.7947
  452MOL0     H60978   7.330   5.304   4.992 -1.1867  0.0714  0.9735
  452MOL0     H60979   7.359   5.244   5.156 -4.7024 -1.3618 -0.1615
  452MOL0     H60980   7.125   5.233   5.099 -1.8102 -0.1036 -0.9706
  452MOL0     H60981   6.929   5.282   5.138 -0.3674 -0.0539 -0.8067
  452MOL0     H60982   6.799   5.241   5.024 -1.9578 -0.8665  1.2849
  452MOL0     H60983   6.811   5.168   5.186  1.8010  3.0275  2.4201
  452MOL0     H60984   6.571   4.850   4.742 -1.0707  1.5060 -0.5453
  452MOL0     H60985   6.341   4.780   4.755 -3.5060  1.7849  0.7207
  452MOL0     H60986   6.041   4.937   5.025  1.2662 -1.2064  0.3176
  452MOL0     H60987   6.108   5.041   4.906  0.4084  0.4764  0.2116
  452MOL0     H60988   5.977   4.911   4.720  0.7548  1.8103  0.2912
  452MOL0     H60989   5.893   4.827   4.846 -1.4211  1.1144 -0.3750
  452MOL0     H60990   5.894   5.126   4.781 -1.2389  1.4310 -0.3248
  452MOL0     H60991   5.829   5.056   4.936 -2.8122 -1.6577 -1.0653
  452MOL0     H60992   5.734   4.976   4.653 -0.4869 -0.3114  0.1496
  452MOL0     H60993   5.673   4.930   4.813 -3.8689  1.9529 -0.7428
  452MOL0     H60994   5.540   5.119   4.677 -0.4195  3.6376  0.1316
  452MOL0     H60995   5.670   5.224   4.729  1.0581  0.0921 -1.3804
  452MOL0     H60996   5.514   5.045   4.912  2.9455 -1.0841 -0.8068
  452MOL0     H60997   5.630   5.164   4.967  0.2577  1.1653  0.0607
  452MOL0     H60998   5.417   5.259   4.803  0.7906 -2.4640 -0.5342
  452MOL0     H60999   5.503   5.336   4.951  0.6690  0.0761 -0.0806
  452MOL0     H61000   5.287   5.132   4.936  0.4858 -1.4653  0.7274
  452MOL0     H61001   5.277   5.287   5.025  0.2920 -0.4328  0.2533
  452MOL0     H61002   6.277   5.015   5.102 -1.4338 -1.7630  0.0790
  452MOL0     H61003   6.507   5.096   5.085 -0.1085  0.5803 -0.7059
  452MOL0     H61004   7.013   4.794   4.908  1.1706 -0.7625  1.0256
  452MOL0     H61005   7.251   4.860   4.934 -1.8103 -1.6149 -0.8779
  452MOL0     H61006   9.126   5.175   5.299 -1.1730 -0.6311 -0.0511
  452MOL0     H61007   9.360   5.133   5.317  0.6629 -1.5098  0.5080
  452MOL0     H61008   9.715   4.981   5.307  0.1904  0.3780 -1.9459
  452MOL0     H61009   9.981   4.958   5.341  0.4959 -0.9142  1.9258
  452MOL0     H61010  10.178   4.558   5.215  2.2257 -1.2714 -0.4264
  452MOL0     H61011  10.161   4.662   5.078  1.6557  0.1830 -0.8862
  452MOL0     H61012  10.364   4.766   5.101  0.0115 -3.1609 -1.6381
  452MOL0     H61013  10.416   4.615   5.175  1.0987  0.5466 -1.5519
  452MOL0     H61014  10.368   4.686   5.407  2.0704  1.6671  2.1227
  452MOL0     H61015  10.324   4.855   5.336 -0.2374  0.7603 -0.9567
  452MOL0     H61016  10.554   4.843   5.432  0.5866 -1.8445  1.4746
  452MOL0     H61017  10.550   4.859   5.251 -0.8594  0.3828 -0.2329
  452MOL0     H61018  10.757   4.498   5.290 -0.2371 -0.2813  2.9180
  452MOL0     H61019   9.951   4.562   5.171 -0.4048  0.4454 -2.7521
  452MOL0     H61020   9.705   4.576   5.169  1.8130 -0.8932  0.6613
  453MOL0     O61021   3.042   4.276   3.633  0.2347  0.5087 -0.5384
  453MOL0     C61022   3.076   4.200   3.542  1.2234  0.0532 -0.4425
  453MOL0     O61023   2.997   4.133   3.457 -0.4163  0.0127 -0.0191
  453MOL0     C61024   2.875   4.196   3.452 -0.6454 -0.5708  0.5570
  453MOL0     C61025   2.862   4.321   3.395  0.1884  0.6227 -0.9719
  453MOL0     C61026   2.736   4.377   3.399 -1.5215 -0.1808  0.2372
  453MOL0     C61027   2.631   4.303   3.447 -0.2482  0.5856 -0.1577
  453MOL0     O61028   2.505   4.347   3.489 -0.0103  0.6556 -0.5082
  453MOL0     C61029   2.498   4.487   3.513  0.2543  0.5122  0.6381
  453MOL0     C61030   2.376   4.516   3.596  0.3340  0.3505  0.2175
  453MOL0     C61031   2.247   4.471   3.519 -0.4476 -0.6416 -0.5591
  453MOL0     C61032   2.224   4.529   3.389 -0.5700 -0.4110  0.2945
  453MOL0     C61033   2.081   4.482   3.345 -0.2424 -0.0956 -0.7052
  453MOL0     C61034   2.029   4.544   3.217  0.7948  0.0855  1.4349
  453MOL0     C61035   1.894   4.477   3.182  0.2304  0.0114  0.2066
  453MOL0     C61036   1.827   4.537   3.053 -1.2070  0.0461 -0.7698
  453MOL0     N61037   1.684   4.524   3.064  0.6295 -0.5655 -0.5697
  453MOL0     C61038   1.606   4.413   3.030 -0.2200 -0.0059  0.4825
  453MOL0     C61039   1.476   4.453   3.050 -0.1767  0.4646 -0.0198
  453MOL0     C61040   1.359   4.363   3.030 -0.6797  0.4264 -0.6220
  453MOL0     C61041   1.222   4.433   3.071 -0.7760  0.3906  0.9976
  453MOL0     C61042   1.210   4.456   3.231 -0.6104 -0.2065  0.2861
  453MOL0     C61043   1.086   4.533   3.280  0.2913 -0.4932 -0.0565
  453MOL0     O61044   0.975   4.445   3.301  0.1009 -0.0870 -0.2818
  453MOL0     C61045   0.857   4.513   3.317  0.0461 -0.4549  1.0182
  453MOL0     C61046   0.764   4.504   3.219  0.3326 -0.3867  0.0447
  453MOL0     C61047   0.641   4.575   3.229 -0.1837 -1.9289 -0.6098
  453MOL0     C61048   0.542   4.569   3.117 -0.2452 -0.0064  0.3850
  453MOL0     C61049   0.619   4.654   3.352 -0.3780 -0.1203  0.1671
  453MOL0     C61050   0.515   4.761   3.378  0.6346 -0.0808  0.5886
  453MOL0     O61051   0.459   4.812   3.259 -0.2134 -0.9687 -0.0360
  453MOL0     C61052   0.387   4.928   3.250  0.0208  0.3970  0.6123
  453MOL0     C61053   0.357   5.013   3.353 -0.1657  0.2451  0.8489
  453MOL0     C61054   0.294   5.136   3.331  0.7493  0.7350 -0.3020
  453MOL0     C61055   0.244   5.163   3.198 -0.7389 -0.8817  0.6399
  453MOL0     O61056   0.173   5.278   3.167  0.0808 -0.2934  0.0181
  453MOL0     C61057   0.035   5.265   3.199  0.0939 -0.3756 -0.4154
  453MOL0     C61058  -0.041   5.388   3.139  0.7637  0.3786 -0.3674
  453MOL0     C61059  -0.161   5.414   3.226 -0.4836  1.2838  0.1288
  453MOL0     C61060  -0.146   5.505   3.343 -0.0475  0.3044  0.2002
  453MOL0     C61061  -0.286   5.544   3.394 -0.2183  0.7204  1.1569
  453MOL0     C61062  -0.279   5.611   3.529 -0.0693 -0.3099 -0.6215
  453MOL0     C61063  -0.425   5.667   3.563 -0.8267 -0.0523 -0.4091
  453MOL0     C61064  -0.423   5.759   3.685  0.3232 -0.2927 -0.2054
  453MOL0    Cl61065  -0.597   5.819   3.727  0.0107 -0.2040 -0.0884
  453MOL0     C61066   0.286   5.087   3.089  0.0032  0.2679  0.1595
  453MOL0     C61067   0.361   4.970   3.119 -0.5600  0.1727  0.5907
  453MOL0     O61068   0.490   4.797   3.496  0.6780  0.7017  0.2953
  453MOL0     C61069   0.717   4.646   3.456  0.2866  0.8446  0.2125
  453MOL0     C61070   0.841   4.590   3.431  0.2290 -0.3125  0.1100
  453MOL0     N61071   1.478   4.583   3.084  0.1528 -0.0052 -0.7410
  453MOL0     N61072   1.601   4.623   3.105 -0.2382 -1.0292  0.0972
  453MOL0     C61073   2.640   4.166   3.465 -0.4456 -0.0159  1.2744
  453MOL0     C61074   2.768   4.111   3.471 -0.2188 -0.6025 -0.7362
  453MOL0     C61075   3.217   4.174   3.538 -0.6252  1.1339  0.0921
  453MOL0     C61076   3.308   4.233   3.634 -0.2330 -0.4062  1.3436
  453MOL0     C61077   3.440   4.191   3.631  0.7863  0.5341 -0.0754
  453MOL0     C61078   3.489   4.111   3.536  0.8794 -0.1403  0.1570
  453MOL0     O61079   3.617   4.072   3.526 -0.2140 -0.3807 -0.5384
  453MOL0     C61080   3.703   4.077   3.642 -0.1238  0.9461 -0.3978
  453MOL0     C61081   3.844   4.036   3.597 -0.4188 -1.0273  0.6149
  453MOL0     C61082   3.851   3.884   3.570 -0.4835 -0.1039 -0.0854
  453MOL0     C61083   3.958   3.848   3.480 -0.2784  0.0238  0.2256
  453MOL0     C61084   3.964   3.702   3.456 -0.1788 -0.2375 -0.4922
  453MOL0     C61085   3.956   3.577   3.444 -0.0385 -0.4565 -0.5738
  453MOL0     C61086   3.405   4.049   3.447 -0.0846  1.0884  0.7217
  453MOL0     C61087   3.268   4.085   3.443 -0.1936  0.0562  0.3649
  453MOL0     H61088   2.959   4.357   3.361  0.1397 -0.6917 -2.6307
  453MOL0     H61089   2.735   4.477   3.356  1.8312 -0.8960 -1.9143
  453MOL0     H61090   2.591   4.526   3.556  0.1897  2.3019 -0.7282
  453MOL0     H61091   2.497   4.543   3.419 -1.2241 -2.8875 -1.6044
  453MOL0     H61092   2.384   4.461   3.690  2.4952  0.4158  0.1121
  453MOL0     H61093   2.382   4.624   3.611  0.3009  0.2081  1.3403
  453MOL0     H61094   2.250   4.362   3.510 -0.5398 -0.5832 -1.3332
  453MOL0     H61095   2.164   4.488   3.589  0.1091 -3.1776  0.8568
  453MOL0     H61096   2.234   4.637   3.399 -0.7331 -0.5080  1.8176
  453MOL0     H61097   2.297   4.504   3.311 -0.7073  3.2612 -1.1741
  453MOL0     H61098   2.080   4.373   3.333  0.2964 -0.2278  0.3806
  453MOL0     H61099   2.006   4.504   3.422 -1.9581  1.3917 -2.6503
  453MOL0     H61100   2.014   4.652   3.222  3.0178  0.7781 -2.4728
  453MOL0     H61101   2.096   4.545   3.130 -0.9096  2.1990  0.0247
  453MOL0     H61102   1.901   4.369   3.162 -0.3162 -0.3614  1.8776
  453MOL0     H61103   1.828   4.484   3.269  2.1236  0.0473  1.7030
  453MOL0     H61104   1.862   4.466   2.978 -0.3001 -1.6131  1.1361
  453MOL0     H61105   1.869   4.638   3.043  1.4056 -0.7167  1.1454
  453MOL0     H61106   1.651   4.318   3.003 -0.0895 -0.9905  3.8231
  453MOL0     H61107   1.365   4.358   2.921 -0.7549  1.1487 -0.6684
  453MOL0     H61108   1.379   4.268   3.079  0.1169  1.2918  0.8093
  453MOL0     H61109   1.134   4.377   3.040  0.6596 -0.7323 -1.3588
  453MOL0     H61110   1.216   4.536   3.033 -0.2024  1.0175  2.4975
  453MOL0     H61111   1.301   4.495   3.276 -1.4795  2.0680  0.1810
  453MOL0     H61112   1.201   4.349   3.254 -0.2990 -0.5635 -1.1179
  453MOL0     H61113   1.067   4.616   3.212  1.9332 -0.0973 -0.0746
  453MOL0     H61114   1.124   4.580   3.371 -1.0129 -0.0497  0.2775
  453MOL0     H61115   0.785   4.438   3.136  2.3022 -0.5108  0.5941
  453MOL0     H61116   0.541   4.658   3.054  1.0551 -0.0635  0.2561
  453MOL0     H61117   0.573   4.488   3.050 -0.9923 -1.0862  1.2962
  453MOL0     H61118   0.443   4.538   3.153 -0.5206 -0.9993 -1.1258
  453MOL0     H61119   0.376   4.990   3.458 -2.0476 -0.1433  1.1391
  453MOL0     H61120   0.269   5.215   3.401  0.3705  0.7937 -0.4992
  453MOL0     H61121  -0.009   5.174   3.158 -3.6399  1.1460 -0.1834
  453MOL0     H61122   0.023   5.260   3.308 -0.2240 -0.0038 -0.4283
  453MOL0     H61123   0.022   5.476   3.155  2.2424 -0.6548 -0.3640
  453MOL0     H61124  -0.065   5.377   3.033  0.2417 -0.7227 -0.1499
  453MOL0     H61125  -0.208   5.322   3.261 -0.5403  2.0080  2.1319
  453MOL0     H61126  -0.236   5.460   3.161 -0.0855  3.0258  0.8192
  453MOL0     H61127  -0.091   5.455   3.423 -0.0125 -0.6498 -0.4053
  453MOL0     H61128  -0.093   5.594   3.309  0.2585 -0.0627 -0.2881
  453MOL0     H61129  -0.348   5.455   3.411  1.3520 -0.4736  0.9078
  453MOL0     H61130  -0.337   5.609   3.323 -2.2674 -1.9486  0.0312
  453MOL0     H61131  -0.259   5.537   3.608 -0.8080 -0.4163 -0.5257
  453MOL0     H61132  -0.200   5.687   3.532 -0.7477  0.3785  1.2986
  453MOL0     H61133  -0.485   5.579   3.588 -1.2418  0.3788  0.1176
  453MOL0     H61134  -0.468   5.719   3.477 -1.0402  0.1414 -0.1852
  453MOL0     H61135  -0.362   5.847   3.662  0.3161  0.5688  2.6253
  453MOL0     H61136  -0.370   5.719   3.772 -2.0035  0.3270  1.6005
  453MOL0     H61137   0.266   5.116   2.987 -0.3567  0.5692  0.3129
  453MOL0     H61138   0.409   4.910   3.044  0.1559  3.1664 -1.5371
  453MOL0     H61139   0.704   4.705   3.546  1.0244 -0.0215  0.8990
  453MOL0     H61140   0.919   4.612   3.503  3.0608 -0.4874 -2.7402
  453MOL0     H61141   2.564   4.091   3.483  0.8243 -1.4573  0.8759
  453MOL0     H61142   2.791   4.009   3.502 -0.8531 -0.0789  1.5992
  453MOL0     H61143   3.280   4.297   3.717  3.4155  1.0541  1.6302
  453MOL0     H61144   3.509   4.213   3.712  3.6587 -3.0711 -1.2717
  453MOL0     H61145   3.708   4.177   3.686  1.6566  2.0317 -2.8688
  453MOL0     H61146   3.670   4.013   3.725  0.5254 -0.5839 -1.2869
  453MOL0     H61147   3.910   4.063   3.679 -0.9952 -1.7321  1.3336
  453MOL0     H61148   3.871   4.098   3.511  1.8209  0.6702  2.4164
  453MOL0     H61149   3.755   3.841   3.539 -1.2412 -1.0514  3.1782
  453MOL0     H61150   3.861   3.839   3.669  1.6908 -2.0344 -1.0985
  453MOL0     H61151   4.051   3.891   3.520 -0.6012  1.0939 -0.1219
  453MOL0     H61152   3.945   3.894   3.382  0.2093 -1.7232 -0.6829
  453MOL0     H61153   3.939   3.473   3.424 -3.2941 -0.4547  1.4011
  453MOL0     H61154   3.458   3.986   3.377 -0.9719  0.5894  0.4846
  453MOL0     H61155   3.204   4.040   3.368  0.7416  0.2919 -0.5973
  454MOL0     O61156  11.223   5.911   3.580  0.0072  0.4279 -0.0924
  454MOL0     C61157  11.238   6.031   3.567  0.0105 -0.8782 -0.0442
  454MOL0     O61158  11.151   6.117   3.507  0.4289 -0.6973 -0.7815
  454MOL0     C61159  11.041   6.069   3.439 -0.0407  1.0018 -0.0226
  454MOL0     C61160  11.039   5.950   3.366  0.3488  0.4443  0.0537
  454MOL0     C61161  10.915   5.903   3.309 -0.6540  0.1368  0.0756
  454MOL0     C61162  10.798   5.971   3.327 -0.7062  0.2708 -0.1002
  454MOL0     O61163  10.677   5.925   3.281 -0.5761  0.6600 -0.5775
  454MOL0     C61164  10.687   5.875   3.140  0.5163  0.7888  0.5464
  454MOL0     C61165  10.548   5.820   3.108  0.6681  0.7455  0.5546
  454MOL0     C61166  10.429   5.919   3.081  0.1983 -0.1851  0.1066
  454MOL0     C61167  10.430   5.984   2.945 -0.2937  0.3500 -0.3121
  454MOL0     C61168  10.308   6.070   2.932  0.3852 -0.0376 -0.1839
  454MOL0     C61169  10.178   5.991   2.903  0.0974 -0.0460 -0.5987
  454MOL0     C61170  10.058   6.079   2.857 -0.4636 -0.5875  0.6781
  454MOL0     C61171   9.985   6.163   2.968 -0.5905  0.3823 -0.1715
  454MOL0     N61172   9.837   6.189   2.937 -0.2507  0.1549  0.1573
  454MOL0     C61173   9.783   6.286   2.852 -0.5195 -0.7580 -0.0590
  454MOL0     C61174   9.648   6.289   2.874  0.1860  0.9454 -0.1503
  454MOL0     C61175   9.545   6.381   2.830 -0.2500 -0.3305  1.0056
  454MOL0     C61176   9.439   6.314   2.731 -0.2339  0.1823  0.1794
  454MOL0     C61177   9.344   6.221   2.814  0.0981 -0.1060  0.1420
  454MOL0     C61178   9.225   6.183   2.717 -0.8850 -0.1029 -0.3381
  454MOL0     O61179   9.148   6.299   2.691  0.1620 -0.1462  0.3101
  454MOL0     C61180   9.017   6.291   2.652 -0.5487 -0.3299  0.1090
  454MOL0     C61181   8.946   6.411   2.649 -0.9153  0.0932 -0.2534
  454MOL0     C61182   8.817   6.426   2.589 -0.4178  0.5848 -0.3724
  454MOL0     C61183   8.757   6.563   2.591  0.5035  0.8640 -0.6692
  454MOL0     C61184   8.754   6.312   2.533 -0.3162  0.7809  0.1725
  454MOL0     C61185   8.634   6.315   2.443  0.7889  0.7359  1.0820
  454MOL0     O61186   8.542   6.417   2.453 -0.4365  0.2940  0.2015
  454MOL0     C61187   8.413   6.392   2.407 -0.0319 -0.5221 -0.7812
  454MOL0     C61188   8.350   6.270   2.408 -0.0864  0.3190  0.2143
  454MOL0     C61189   8.221   6.259   2.351  0.5877 -0.7101 -0.5819
  454MOL0     C61190   8.152   6.375   2.304 -0.5599  0.8125  0.1940
  454MOL0     O61191   8.025   6.370   2.263 -0.1814  0.0568 -0.0830
  454MOL0     C61192   7.989   6.283   2.153  0.4003 -0.2831 -0.6929
  454MOL0     C61193   8.013   6.379   2.030  0.2977  0.1830  0.2353
  454MOL0     C61194   7.920   6.348   1.916 -0.3291 -0.5752  0.8446
  454MOL0     C61195   7.937   6.209   1.840 -0.6491  0.2096  0.1602
  454MOL0     C61196   7.800   6.159   1.781  0.1132  0.5695 -0.7369
  454MOL0     C61197   7.764   6.227   1.655  0.2012  0.0108  0.0386
  454MOL0     C61198   7.619   6.184   1.611  0.2670  0.1512  0.1819
  454MOL0     C61199   7.585   6.247   1.480  0.0371 -0.5929 -0.1976
  454MOL0    Cl61200   7.696   6.178   1.353  0.0926  0.0288  0.0322
  454MOL0     C61201   8.226   6.496   2.299  0.4489 -0.5471 -0.0969
  454MOL0     C61202   8.350   6.503   2.354 -0.2958  0.8417 -0.0200
  454MOL0     O61203   8.631   6.217   2.359  0.3464  0.5213 -0.0256
  454MOL0     C61204   8.819   6.188   2.547 -0.2347  0.1539  0.6238
  454MOL0     C61205   8.948   6.180   2.611  0.1539 -0.5644  0.7748
  454MOL0     N61206   9.623   6.181   2.964 -0.1280 -1.0102  1.1126
  454MOL0     N61207   9.738   6.122   2.999  0.2907  0.1303 -0.6818
  454MOL0     C61208  10.801   6.089   3.399  0.5436 -0.2706  0.2355
  454MOL0     C61209  10.925   6.144   3.447  0.1648 -0.2908  0.3098
  454MOL0     C61210  11.359   6.086   3.640  0.2947 -0.4264 -0.4231
  454MOL0     C61211  11.465   6.007   3.678 -0.3933 -0.3257 -0.6462
  454MOL0     C61212  11.578   6.065   3.744 -0.3050  0.3139 -0.0072
  454MOL0     C61213  11.590   6.199   3.766 -0.0267 -0.6894  0.1004
  454MOL0     O61214  11.722   6.234   3.809  1.1557 -0.9482 -0.0029
  454MOL0     C61215  11.749   6.376   3.801  0.3616  0.7615 -0.7855
  454MOL0     C61216  11.684   6.446   3.921 -0.1429  0.2178  0.4680
  454MOL0     C61217  11.676   6.601   3.922 -0.0387  0.0982  0.0987
  454MOL0     C61218  11.595   6.653   4.051  0.0901  0.0954 -0.2820
  454MOL0     C61219  11.450   6.615   4.039 -0.1199 -0.3440 -0.0447
  454MOL0     C61220  11.340   6.562   4.032  0.0648 -0.0870  0.2492
  454MOL0     C61221  11.473   6.279   3.736 -0.1636 -0.1516 -0.0856
  454MOL0     C61222  11.366   6.219   3.673  0.0445  0.1274 -0.1426
  454MOL0     H61223  11.122   5.882   3.375 -1.3780 -2.3970 -3.0304
  454MOL0     H61224  10.920   5.804   3.264 -1.2322  1.6652 -3.7542
  454MOL0     H61225  10.692   5.962   3.073  0.3616  0.6054  0.2947
  454MOL0     H61226  10.756   5.796   3.111 -0.4064 -0.0904  0.6627
  454MOL0     H61227  10.552   5.761   3.016  1.7437  1.8399 -0.1398
  454MOL0     H61228  10.515   5.749   3.184 -2.8056  1.8077  0.2132
  454MOL0     H61229  10.343   5.852   3.090  0.5006 -0.3407  2.6011
  454MOL0     H61230  10.440   5.999   3.156  1.8698  1.6969 -2.0002
  454MOL0     H61231  10.517   6.047   2.925  0.1554 -0.2557 -0.3160
  454MOL0     H61232  10.432   5.909   2.865 -1.4526  0.3717 -0.3804
  454MOL0     H61233  10.296   6.122   3.028  0.9690  0.6405 -0.4699
  454MOL0     H61234  10.322   6.147   2.855 -1.5755 -0.4474 -1.0021
  454MOL0     H61235  10.201   5.913   2.830  0.8063 -2.2827  1.8538
  454MOL0     H61236  10.151   5.935   2.994 -1.5474  0.2354 -0.8882
  454MOL0     H61237  10.089   6.143   2.774 -0.4477 -0.2085  0.9736
  454MOL0     H61238   9.986   6.006   2.819  1.2988 -2.9297  1.5546
  454MOL0     H61239  10.035   6.260   2.980 -1.0294  0.4696  1.0785
  454MOL0     H61240   9.995   6.110   3.063  0.3435  0.4261 -0.2363
  454MOL0     H61241   9.836   6.358   2.791  0.2674  0.1059  1.5631
  454MOL0     H61242   9.494   6.398   2.926  2.1855 -2.5586  2.8596
  454MOL0     H61243   9.590   6.467   2.781  1.1693 -1.5668  0.0334
  454MOL0     H61244   9.484   6.253   2.653 -1.1752 -1.7655  1.0751
  454MOL0     H61245   9.374   6.390   2.686  0.2829 -0.0651 -1.0204
  454MOL0     H61246   9.314   6.283   2.899  0.9066 -1.0575  1.1571
  454MOL0     H61247   9.388   6.128   2.852  1.2988 -0.3649 -1.7525
  454MOL0     H61248   9.161   6.111   2.768 -0.9894 -0.3774 -0.8446
  454MOL0     H61249   9.263   6.149   2.620  0.8941 -1.0688  0.6548
  454MOL0     H61250   9.005   6.494   2.685  0.6080 -1.1539  0.2480
  454MOL0     H61251   8.650   6.553   2.609  0.5522  1.4654  0.0308
  454MOL0     H61252   8.809   6.615   2.672 -1.1876 -0.0249  1.0729
  454MOL0     H61253   8.764   6.618   2.496 -1.7504  3.2893  0.4339
  454MOL0     H61254   8.388   6.179   2.452  0.8547  0.9385  0.7221
  454MOL0     H61255   8.168   6.164   2.348 -0.3473 -0.1970 -3.5725
  454MOL0     H61256   8.048   6.192   2.138  0.6565 -0.0425 -1.1274
  454MOL0     H61257   7.885   6.249   2.167  1.2261 -2.0142  2.3220
  454MOL0     H61258   7.998   6.484   2.060 -1.7688 -0.1483  0.5460
  454MOL0     H61259   8.116   6.369   1.997  0.5235 -1.5969  1.3553
  454MOL0     H61260   7.941   6.420   1.837 -1.5595 -1.1124  0.0056
  454MOL0     H61261   7.815   6.356   1.944 -0.2097 -0.5035  1.2788
  454MOL0     H61262   8.007   6.221   1.757 -0.6654  0.0805  0.1281
  454MOL0     H61263   7.972   6.132   1.909  2.4593  1.2553 -0.1149
  454MOL0     H61264   7.729   6.174   1.862 -0.6587 -0.3594 -1.2282
  454MOL0     H61265   7.810   6.052   1.761 -2.5696  0.2556 -0.7959
  454MOL0     H61266   7.753   6.335   1.671 -2.3254 -0.3072  0.9282
  454MOL0     H61267   7.837   6.217   1.575 -0.7704  3.9352 -1.5851
  454MOL0     H61268   7.546   6.220   1.684  1.0255  0.4951  0.7769
  454MOL0     H61269   7.621   6.075   1.609  2.6520  0.0732  2.3080
  454MOL0     H61270   7.608   6.354   1.485 -1.6766 -0.2158  0.8466
  454MOL0     H61271   7.480   6.231   1.451  0.5964 -3.1510 -1.0628
  454MOL0     H61272   8.183   6.591   2.269 -0.2919 -1.5963 -2.6161
  454MOL0     H61273   8.415   6.588   2.372 -1.3485  1.4022  1.2661
  454MOL0     H61274   8.770   6.096   2.515 -0.8693  0.6125  0.2609
  454MOL0     H61275   9.004   6.087   2.619 -0.3891 -1.1171 -1.3540
  454MOL0     H61276  10.704   6.132   3.421  0.5307 -0.7627  1.1920
  454MOL0     H61277  10.918   6.237   3.501 -3.3911  0.3218 -0.9374
  454MOL0     H61278  11.453   5.901   3.659 -1.0992 -1.0049  2.8274
  454MOL0     H61279  11.665   6.003   3.765  0.3891  1.1883 -0.2666
  454MOL0     H61280  11.856   6.398   3.808  0.3283  0.6129  0.3941
  454MOL0     H61281  11.703   6.422   3.713 -1.8679 -1.0326 -0.6379
  454MOL0     H61282  11.750   6.415   4.003  1.4066 -2.4259 -1.6073
  454MOL0     H61283  11.583   6.415   3.949 -0.7170 -0.6532 -2.2309
  454MOL0     H61284  11.626   6.632   3.830  1.3023  3.0259  0.2376
  454MOL0     H61285  11.771   6.652   3.907 -0.2463 -0.1303 -2.4139
  454MOL0     H61286  11.601   6.762   4.045 -0.3759  0.2563  1.7179
  454MOL0     H61287  11.635   6.624   4.148 -0.1515 -0.3313 -0.3041
  454MOL0     H61288  11.245   6.515   4.019 -0.2770  0.4690  0.6936
  454MOL0     H61289  11.470   6.384   3.762 -1.6984 -0.5567  1.5711
  454MOL0     H61290  11.281   6.283   3.652  0.1528  0.4894  0.5011
  455MOL0     O61291   7.350   4.269   2.557  0.1922  0.6813  0.5634
  455MOL0     C61292   7.424   4.275   2.656 -0.0963  0.7757  0.3768
  455MOL0     O61293   7.386   4.303   2.782 -0.1002 -0.0981  0.6537
  455MOL0     C61294   7.248   4.317   2.818  0.2455 -0.4978  0.4519
  455MOL0     C61295   7.149   4.227   2.779  0.4884 -0.2436 -0.6583
  455MOL0     C61296   7.015   4.249   2.815 -0.1325  0.9353 -0.1697
  455MOL0     C61297   6.974   4.349   2.907 -1.3177 -0.0082  0.4499
  455MOL0     O61298   6.852   4.361   2.968  0.2062  0.0266  0.3701
  455MOL0     C61299   6.747   4.287   2.915  0.8756  0.5526  0.0482
  455MOL0     C61300   6.694   4.349   2.787 -0.0014  0.0183 -0.1473
  455MOL0     C61301   6.547   4.307   2.765  0.1904 -0.3299 -1.0610
  455MOL0     C61302   6.474   4.394   2.661 -0.0528  0.7049  0.4078
  455MOL0     C61303   6.333   4.344   2.642  0.3872 -0.3943  0.8002
  455MOL0     C61304   6.230   4.421   2.720 -0.2486  0.7505 -0.4794
  455MOL0     C61305   6.087   4.405   2.663 -0.5057  0.3148 -0.4322
  455MOL0     C61306   6.021   4.272   2.681 -0.4675  0.5383 -1.0399
  455MOL0     N61307   5.880   4.280   2.630 -0.1636 -1.5192  0.0506
  455MOL0     C61308   5.799   4.393   2.617 -0.3174 -0.8864 -0.4883
  455MOL0     C61309   5.703   4.364   2.535 -0.4687 -0.3038  0.2448
  455MOL0     C61310   5.597   4.454   2.487 -0.1795  0.6054  0.0130
  455MOL0     C61311   5.458   4.411   2.516 -0.3348  0.5517  1.2932
  455MOL0     C61312   5.370   4.536   2.521 -0.8746 -0.1073  0.4923
  455MOL0     C61313   5.224   4.505   2.553  0.4551  0.4550  0.1834
  455MOL0     O61314   5.138   4.598   2.618  0.1611  0.1850 -0.6952
  455MOL0     C61315   5.007   4.555   2.651 -0.5537 -0.7450 -0.6225
  455MOL0     C61316   4.941   4.443   2.597 -0.6789 -0.1747  0.3538
  455MOL0     C61317   4.814   4.401   2.630  0.1083  1.6039  0.0959
  455MOL0     C61318   4.753   4.277   2.571 -0.0754  0.0546  0.4287
  455MOL0     C61319   4.736   4.484   2.720  0.0238  0.5490  0.9803
  455MOL0     C61320   4.593   4.461   2.766 -0.4564 -0.8555 -0.3869
  455MOL0     O61321   4.587   4.491   2.900 -0.3653  0.4599  0.2961
  455MOL0     C61322   4.461   4.489   2.957 -0.6523 -0.7788  0.5020
  455MOL0     C61323   4.428   4.405   3.064  0.6584 -0.2400 -0.2211
  455MOL0     C61324   4.300   4.405   3.119 -0.7963  0.9175  0.5305
  455MOL0     C61325   4.204   4.503   3.077 -0.3350  0.0020 -0.0889
  455MOL0     O61326   4.082   4.499   3.138 -0.5522  0.7386  0.9050
  455MOL0     C61327   3.994   4.608   3.125 -0.6252 -0.0839  0.5583
  455MOL0     C61328   3.870   4.598   3.205  0.3066 -0.4635 -0.2204
  455MOL0     C61329   3.798   4.729   3.224  1.0281 -0.6580  0.5437
  455MOL0     C61330   3.643   4.717   3.249 -0.6055  0.5536  0.6147
  455MOL0     C61331   3.615   4.764   3.383  0.7196 -0.2568  0.5042
  455MOL0     C61332   3.466   4.738   3.433 -0.5230 -0.6582 -0.6049
  455MOL0     C61333   3.353   4.820   3.365  0.4257  0.2902 -0.1654
  455MOL0     C61334   3.220   4.788   3.433 -0.6103  0.2788  0.4019
  455MOL0    Cl61335   3.183   4.615   3.463 -0.0338 -0.1901  0.1204
  455MOL0     C61336   4.242   4.602   2.981 -0.1139 -0.9864 -0.6937
  455MOL0     C61337   4.363   4.583   2.918 -0.3342 -0.1087 -0.2137
  455MOL0     O61338   4.505   4.401   2.703  0.1365 -0.3805  0.5211
  455MOL0     C61339   4.800   4.598   2.772 -0.0897  0.1938  0.1958
  455MOL0     C61340   4.937   4.634   2.745 -0.2896  0.4029  0.3253
  455MOL0     N61341   5.729   4.237   2.482  0.5693  0.1896 -0.4372
  455MOL0     N61342   5.837   4.190   2.533 -0.2685  0.0810 -1.1780
  455MOL0     C61343   7.079   4.433   2.950  0.4009  0.0027  0.2907
  455MOL0     C61344   7.207   4.422   2.904 -0.2602 -0.2130  0.6824
  455MOL0     C61345   7.564   4.226   2.642 -0.1840 -0.7254 -0.0890
  455MOL0     C61346   7.605   4.129   2.549 -0.4785 -0.4441 -0.2921
  455MOL0     C61347   7.741   4.089   2.541 -0.2347  0.2599 -0.0878
  455MOL0     C61348   7.844   4.154   2.623 -0.2287  0.1538  1.0651
  455MOL0     O61349   7.978   4.109   2.602  0.0529 -0.0740  0.2180
  455MOL0     C61350   8.087   4.172   2.662 -0.0572 -0.1029  0.2762
  455MOL0     C61351   8.222   4.105   2.615 -0.3067 -0.2900  0.6072
  455MOL0     C61352   8.246   4.141   2.468 -0.0959  0.3272 -0.4638
  455MOL0     C61353   8.366   4.239   2.451  0.6708  0.3584  0.3535
  455MOL0     C61354   8.490   4.184   2.506 -1.0820 -0.3096 -0.2758
  455MOL0     C61355   8.601   4.153   2.550 -0.5923  0.3946 -0.0483
  455MOL0     C61356   7.805   4.260   2.705 -0.4360  0.4716 -0.3329
  455MOL0     C61357   7.669   4.289   2.713  0.4264 -0.1472 -0.5214
  455MOL0     H61358   7.181   4.145   2.715  1.5328 -1.4067  1.2645
  455MOL0     H61359   6.940   4.180   2.776  1.6024 -0.4390 -1.2291
  455MOL0     H61360   6.767   4.182   2.893 -0.8980 -0.1551  1.5612
  455MOL0     H61361   6.671   4.286   2.993  0.6136  0.1714 -0.2076
  455MOL0     H61362   6.698   4.457   2.804  1.4030 -0.0015 -0.2635
  455MOL0     H61363   6.756   4.333   2.699  2.7861  3.1198  1.0253
  455MOL0     H61364   6.553   4.202   2.736  0.8563 -0.0161 -2.1169
  455MOL0     H61365   6.490   4.313   2.858  0.6817 -2.0468 -0.6234
  455MOL0     H61366   6.476   4.500   2.690 -1.0621  0.2034  2.5894
  455MOL0     H61367   6.530   4.382   2.568 -2.4014 -2.3624 -0.8035
  455MOL0     H61368   6.324   4.372   2.537 -0.6443 -4.3398 -0.3255
  455MOL0     H61369   6.319   4.237   2.660  1.3116 -0.8761 -1.0996
  455MOL0     H61370   6.232   4.380   2.822  1.1477  0.5704 -0.5498
  455MOL0     H61371   6.261   4.525   2.732  0.0966  0.7296 -1.1396
  455MOL0     H61372   6.034   4.480   2.721 -1.3904  0.3906 -1.3145
  455MOL0     H61373   6.085   4.444   2.560  0.1581  0.4942 -0.3840
  455MOL0     H61374   6.023   4.254   2.789  3.1439  1.7426 -0.7881
  455MOL0     H61375   6.073   4.186   2.638  1.6781  0.3200  1.7357
  455MOL0     H61376   5.816   4.482   2.676  3.3691 -1.7518 -0.0155
  455MOL0     H61377   5.618   4.559   2.511 -1.0379  1.4239 -2.4417
  455MOL0     H61378   5.604   4.447   2.378  1.1416  0.7352  0.0776
  455MOL0     H61379   5.447   4.359   2.611  2.8650  1.7077  2.4393
  455MOL0     H61380   5.421   4.345   2.437  0.7695  2.4194 -0.8913
  455MOL0     H61381   5.378   4.599   2.432 -0.4561 -0.0701  0.5524
  455MOL0     H61382   5.411   4.595   2.604 -0.1671 -0.1120  0.1544
  455MOL0     H61383   5.219   4.412   2.611 -1.3158 -1.7034 -3.0688
  455MOL0     H61384   5.181   4.480   2.455  3.2856 -1.5220 -0.6770
  455MOL0     H61385   4.998   4.371   2.538 -2.9467 -0.7198 -1.3105
  455MOL0     H61386   4.666   4.228   2.617  0.5101 -2.1082 -0.6085
  455MOL0     H61387   4.702   4.311   2.481  1.6365 -1.0038 -1.0037
  455MOL0     H61388   4.814   4.192   2.539 -0.7931 -0.2161 -0.2453
  455MOL0     H61389   4.500   4.332   3.099 -0.8014 -2.3769 -1.4542
  455MOL0     H61390   4.273   4.327   3.189 -2.1074  0.0381 -0.8771
  455MOL0     H61391   4.052   4.699   3.141  1.2462 -1.2022  0.4827
  455MOL0     H61392   3.968   4.622   3.020 -0.9108 -3.2063  0.1059
  455MOL0     H61393   3.805   4.523   3.159  1.5513 -3.1025  2.0018
  455MOL0     H61394   3.889   4.552   3.302 -2.4203 -1.3634 -0.0292
  455MOL0     H61395   3.802   4.781   3.128  0.9225  1.1825  1.4795
  455MOL0     H61396   3.850   4.778   3.306  0.4438  4.2021 -1.6103
  455MOL0     H61397   3.592   4.772   3.170  3.1205  0.1995 -2.2899
  455MOL0     H61398   3.609   4.613   3.243  0.9344  0.0066  0.8906
  455MOL0     H61399   3.642   4.869   3.401 -1.4095  0.5033 -0.4118
  455MOL0     H61400   3.681   4.705   3.447  0.0898  0.9968  2.4197
  455MOL0     H61401   3.442   4.631   3.427 -2.3760 -0.2092 -2.0910
  455MOL0     H61402   3.467   4.765   3.539 -1.2375 -0.5028 -0.6354
  455MOL0     H61403   3.334   4.794   3.261 -4.3614  3.9038 -0.5063
  455MOL0     H61404   3.374   4.927   3.367  2.9961 -0.1529  0.5508
  455MOL0     H61405   3.145   4.855   3.390 -0.2806  0.0673 -0.5273
  455MOL0     H61406   3.241   4.824   3.534 -0.0760 -3.5537  1.8076
  455MOL0     H61407   4.179   4.682   2.944 -1.1317  0.1764  3.1237
  455MOL0     H61408   4.400   4.649   2.841 -0.1257  0.5644  0.4537
  455MOL0     H61409   4.740   4.663   2.835  0.0404 -0.5488  1.1090
  455MOL0     H61410   4.962   4.726   2.797 -2.0774  0.3017  1.4471
  455MOL0     H61411   7.047   4.494   3.034 -1.1059  2.5783 -1.9717
  455MOL0     H61412   7.278   4.495   2.943 -0.9714  1.0475 -0.2983
  455MOL0     H61413   7.526   4.093   2.483 -2.7399  1.8488  1.0068
  455MOL0     H61414   7.783   4.014   2.475  2.2968  0.3359  1.2978
  455MOL0     H61415   8.070   4.277   2.636 -2.1389 -0.3058  0.6477
  455MOL0     H61416   8.080   4.181   2.770 -1.4023  1.3304  0.0940
  455MOL0     H61417   8.219   3.995   2.619 -0.1039 -0.2679  3.4846
  455MOL0     H61418   8.305   4.135   2.678 -1.0833 -1.2298  2.1466
  455MOL0     H61419   8.157   4.176   2.415 -0.4102  0.0007 -0.1588
  455MOL0     H61420   8.272   4.051   2.412 -1.2748  0.5785 -1.4545
  455MOL0     H61421   8.350   4.331   2.508  1.7150  1.2617 -0.7772
  455MOL0     H61422   8.387   4.252   2.345 -1.1620  3.5711  0.2689
  455MOL0     H61423   8.696   4.114   2.580  0.4968  3.8402  1.5522
  455MOL0     H61424   7.875   4.330   2.749  0.5188  0.7326 -2.1617
  455MOL0     H61425   7.647   4.370   2.783  0.3208 -0.3993 -0.2618
  456MOL0     O61426   9.858   4.898   4.670 -0.2998  0.8782 -0.4306
  456MOL0     C61427   9.888   4.964   4.769  0.5969  0.3148  0.0807
  456MOL0     O61428   9.798   5.034   4.845  0.5706  0.4716 -0.5584
  456MOL0     C61429   9.661   5.037   4.796 -0.4560  0.7162 -0.4514
  456MOL0     C61430   9.631   5.129   4.693  1.3783  0.1393 -0.4147
  456MOL0     C61431   9.492   5.155   4.658 -0.3694  0.2306  0.3741
  456MOL0     C61432   9.389   5.100   4.730  0.1726  0.0251 -0.2160
  456MOL0     O61433   9.254   5.118   4.716 -0.0558 -0.5223 -0.3487
  456MOL0     C61434   9.210   5.195   4.602  0.5444 -0.3157 -0.1662
  456MOL0     C61435   9.064   5.180   4.587  0.3104 -0.2811 -0.6714
  456MOL0     C61436   9.022   5.039   4.541 -0.1211 -0.1678 -0.4192
  456MOL0     C61437   8.879   5.007   4.541  0.2835 -0.3738  0.5185
  456MOL0     C61438   8.796   5.103   4.447 -0.0328  0.1216 -0.7933
  456MOL0     C61439   8.654   5.082   4.488 -0.8639  0.1429  0.3459
  456MOL0     C61440   8.560   5.161   4.392  1.2168  0.1314 -0.0096
  456MOL0     C61441   8.413   5.111   4.399  0.3589 -0.1671 -1.1043
  456MOL0     N61442   8.356   5.152   4.527 -0.2058 -0.1281  0.7482
  456MOL0     C61443   8.369   5.078   4.641 -0.0552  0.4241 -0.6483
  456MOL0     C61444   8.314   5.163   4.742 -1.4721  0.3553 -0.0845
  456MOL0     C61445   8.308   5.150   4.893 -0.3382 -0.3302 -0.4708
  456MOL0     C61446   8.173   5.082   4.931 -0.3836 -0.3081 -0.0152
  456MOL0     C61447   8.153   4.940   4.874  0.2324 -0.1662 -0.6932
  456MOL0     C61448   8.037   4.867   4.938 -0.2840 -0.7936 -0.0167
  456MOL0     O61449   8.046   4.718   4.913  1.0712  0.4915  0.1661
  456MOL0     C61450   7.925   4.645   4.912 -0.2112 -0.0112 -0.5986
  456MOL0     C61451   7.807   4.697   4.951  0.4988  0.1758 -0.4865
  456MOL0     C61452   7.689   4.631   4.937  0.5500 -1.3439  0.0344
  456MOL0     C61453   7.568   4.724   4.973 -0.6165  0.5147 -0.7109
  456MOL0     C61454   7.685   4.494   4.895 -0.3705 -0.0749  0.1320
  456MOL0     C61455   7.559   4.427   4.879  0.2238 -0.1550 -0.0288
  456MOL0     O61456   7.569   4.291   4.887 -0.6697  0.8590 -0.3599
  456MOL0     C61457   7.461   4.217   4.856 -0.2461 -0.2235 -0.4579
  456MOL0     C61458   7.353   4.193   4.934 -0.2904  0.0668  0.1356
  456MOL0     C61459   7.239   4.112   4.890 -0.3652 -0.5367 -0.1277
  456MOL0     C61460   7.244   4.057   4.762  0.2872  0.4777 -0.5950
  456MOL0     O61461   7.145   3.963   4.729 -0.0028  0.2794  0.5155
  456MOL0     C61462   7.152   3.887   4.612 -0.1091  1.1140  0.3169
  456MOL0     C61463   7.024   3.793   4.612  0.0105 -0.3990 -0.5878
  456MOL0     C61464   7.022   3.701   4.493  1.0930 -0.3453 -0.5193
  456MOL0     C61465   6.884   3.640   4.467  0.2043  0.1418  0.2108
  456MOL0     C61466   6.901   3.512   4.379 -0.5039 -0.6822 -0.8612
  456MOL0     C61467   6.770   3.449   4.341 -0.6361  0.2278 -0.0651
  456MOL0     C61468   6.685   3.381   4.453 -0.3877 -0.7932  0.2349
  456MOL0     C61469   6.542   3.357   4.403 -0.5342  0.6798  0.4825
  456MOL0    Cl61470   6.533   3.283   4.227 -0.0252 -0.2682 -0.2750
  456MOL0     C61471   7.353   4.084   4.685 -0.1436  0.2824 -0.3224
  456MOL0     C61472   7.458   4.167   4.727  0.3376  0.4375  0.0738
  456MOL0     O61473   7.458   4.495   4.849 -0.5752 -0.0806  0.0836
  456MOL0     C61474   7.815   4.432   4.862 -0.6669 -0.4928  0.0282
  456MOL0     C61475   7.929   4.518   4.861  0.5088  0.0102 -1.0085
  456MOL0     N61476   8.259   5.269   4.682  0.7457 -0.3863  1.0205
  456MOL0     N61477   8.282   5.266   4.551 -0.1990 -0.1039 -0.2997
  456MOL0     C61478   9.433   5.015   4.834  0.0208 -0.9186 -0.3407
  456MOL0     C61479   9.563   4.977   4.866  0.3987 -0.6467 -0.2930
  456MOL0     C61480  10.027   4.964   4.797 -0.3511 -0.3606  0.1422
  456MOL0     C61481  10.125   4.944   4.693  0.6527  0.4169 -0.0233
  456MOL0     C61482  10.261   4.972   4.722 -0.5843  0.2594  0.3255
  456MOL0     C61483  10.310   4.988   4.851  0.5144  0.9674 -0.7064
  456MOL0     O61484  10.441   4.995   4.897 -0.5520  0.5457  0.3261
  456MOL0     C61485  10.544   4.994   4.794  0.6258  0.8251 -0.4069
  456MOL0     C61486  10.675   4.991   4.872  0.5375 -0.1988 -0.5138
  456MOL0     C61487  10.722   4.856   4.924  0.1133 -1.1567  0.0356
  456MOL0     C61488  10.828   4.867   5.038  0.2359  0.2177  0.3699
  456MOL0     C61489  10.962   4.889   4.969  0.6513  0.6344 -0.4863
  456MOL0     C61490  11.066   4.906   4.904 -0.2551 -0.4351 -0.8417
  456MOL0     C61491  10.213   5.010   4.960  0.0485 -0.2430 -0.3911
  456MOL0     C61492  10.074   5.002   4.929  0.2487 -0.7856  0.3677
  456MOL0     H61493   9.702   5.189   4.637  1.0198  0.7081 -0.2591
  456MOL0     H61494   9.466   5.234   4.588 -0.1018 -1.0325 -1.2070
  456MOL0     H61495   9.246   5.299   4.601  2.0666 -0.7956 -2.2842
  456MOL0     H61496   9.260   5.164   4.510  1.5240 -1.8740  0.8533
  456MOL0     H61497   9.022   5.213   4.683  1.2812  1.0975 -0.6902
  456MOL0     H61498   9.020   5.245   4.512 -0.7361 -1.7570 -1.3877
  456MOL0     H61499   9.053   5.031   4.436 -1.3156 -4.1494 -0.6377
  456MOL0     H61500   9.077   4.974   4.610 -0.0098  0.2185 -0.1407
  456MOL0     H61501   8.871   4.903   4.508 -1.7422 -0.2226  0.4186
  456MOL0     H61502   8.843   5.020   4.643  1.6073  0.4242  0.9040
  456MOL0     H61503   8.823   5.207   4.467 -2.0045  0.2831  1.5164
  456MOL0     H61504   8.816   5.079   4.342  3.4796  0.9277 -0.4337
  456MOL0     H61505   8.636   4.974   4.496  2.7039 -0.5455  0.9907
  456MOL0     H61506   8.638   5.108   4.593 -4.1007 -2.1712  0.5716
  456MOL0     H61507   8.560   5.265   4.425 -2.3381  0.9855 -2.2388
  456MOL0     H61508   8.605   5.170   4.293 -0.6666  0.3334 -0.8903
  456MOL0     H61509   8.405   5.003   4.381  2.8862 -0.3604 -1.3375
  456MOL0     H61510   8.356   5.159   4.319  0.3112 -1.2240 -1.7280
  456MOL0     H61511   8.416   4.981   4.652  1.4032  1.0066 -1.5091
  456MOL0     H61512   8.397   5.096   4.924 -0.8894 -0.6715  0.5499
  456MOL0     H61513   8.321   5.250   4.936 -1.4210 -0.4545  0.1710
  456MOL0     H61514   8.088   5.141   4.896 -0.4873  0.2754  1.1684
  456MOL0     H61515   8.148   5.084   5.037 -1.4424 -0.6986 -0.2410
  456MOL0     H61516   8.238   4.877   4.902 -1.0767 -0.8019  2.1855
  456MOL0     H61517   8.141   4.938   4.765  0.3011 -1.8063 -0.7008
  456MOL0     H61518   7.941   4.912   4.910  1.5249  2.6177 -1.1619
  456MOL0     H61519   8.047   4.886   5.045 -0.4911  0.0517 -0.1441
  456MOL0     H61520   7.803   4.793   5.003 -2.4385 -1.2795  2.3162
  456MOL0     H61521   7.590   4.823   5.015  1.9282 -0.3465  0.1691
  456MOL0     H61522   7.506   4.736   4.884  0.8731 -2.8731 -2.3821
  456MOL0     H61523   7.517   4.666   5.050  1.9905 -1.1578 -0.1064
  456MOL0     H61524   7.382   4.228   5.033  0.6153 -2.9868  1.0387
  456MOL0     H61525   7.165   4.086   4.964 -1.2436  1.2120 -0.3395
  456MOL0     H61526   7.147   3.946   4.520 -1.0784  0.4127 -0.1070
  456MOL0     H61527   7.240   3.823   4.615  0.4260  1.6741 -1.8396
  456MOL0     H61528   7.021   3.733   4.703 -1.4722  1.5308  0.7391
  456MOL0     H61529   6.931   3.851   4.618 -0.5294 -1.4071  2.6147
  456MOL0     H61530   7.092   3.618   4.503  3.1723  1.5015  1.3069
  456MOL0     H61531   7.055   3.758   4.405  2.2213 -0.1935 -0.0172
  456MOL0     H61532   6.827   3.606   4.555 -2.2711 -1.6202 -1.9130
  456MOL0     H61533   6.814   3.703   4.411 -1.7066 -0.1629  2.1248
  456MOL0     H61534   6.972   3.449   4.433  1.3059  0.8608 -1.3178
  456MOL0     H61535   6.955   3.539   4.288 -0.2964 -1.3964 -0.9542
  456MOL0     H61536   6.710   3.526   4.292 -1.0733  1.1764  1.8545
  456MOL0     H61537   6.806   3.381   4.263  0.0290  0.6519 -0.1322
  456MOL0     H61538   6.688   3.449   4.539 -1.5166  0.6732 -0.8286
  456MOL0     H61539   6.741   3.295   4.490  3.8204  1.5304 -0.0049
  456MOL0     H61540   6.485   3.450   4.396 -0.2130  1.0454  2.1880
  456MOL0     H61541   6.489   3.294   4.474 -0.4458  0.6828  0.5518
  456MOL0     H61542   7.359   4.039   4.586  1.3408 -0.3891  0.0485
  456MOL0     H61543   7.527   4.199   4.650 -1.1878  4.1374  0.0308
  456MOL0     H61544   7.834   4.329   4.837 -0.3915 -0.0617 -1.6534
  456MOL0     H61545   8.025   4.487   4.821  1.4093  0.4504  0.7522
  456MOL0     H61546   9.358   4.976   4.901  2.0707 -1.4648  1.7479
  456MOL0     H61547   9.590   4.917   4.953  3.2157 -0.2687 -0.8139
  456MOL0     H61548  10.094   4.928   4.590  2.1304  0.8516 -0.5629
  456MOL0     H61549  10.331   4.972   4.638 -1.2513  1.2562 -0.2429
  456MOL0     H61550  10.532   4.915   4.720  2.1318  1.5123 -1.4353
  456MOL0     H61551  10.529   5.087   4.739 -1.5551  0.0824 -1.1749
  456MOL0     H61552  10.659   5.055   4.959  5.5125  0.3049  0.3273
  456MOL0     H61553  10.759   5.032   4.814 -0.1826 -0.5975 -1.8752
  456MOL0     H61554  10.755   4.794   4.840 -1.2113 -0.5810 -0.9529
  456MOL0     H61555  10.631   4.812   4.966 -0.8432  0.4126 -0.2738
  456MOL0     H61556  10.819   4.778   5.101  0.6068 -0.5693 -0.6440
  456MOL0     H61557  10.801   4.952   5.101 -0.7664  2.0625 -2.3521
  456MOL0     H61558  11.155   4.925   4.848  1.3020 -1.6117  1.0817
  456MOL0     H61559  10.246   5.012   5.063  2.4881 -0.7082 -1.0866
  456MOL0     H61560   9.995   5.026   5.000 -2.1462  1.2978 -2.7226
  457MOL0     O61561   8.593   1.340   2.942  0.3658 -0.0612  0.5139
  457MOL0     C61562   8.610   1.331   3.064  0.1812 -0.6753 -0.0863
  457MOL0     O61563   8.509   1.330   3.155  0.1600 -0.1478 -0.0810
  457MOL0     C61564   8.389   1.361   3.118  0.3609 -0.2117 -0.7603
  457MOL0     C61565   8.349   1.475   3.041 -0.3528 -0.1525 -0.5029
  457MOL0     C61566   8.208   1.507   3.024 -0.2857  0.2155  0.0425
  457MOL0     C61567   8.112   1.439   3.099 -0.3901  0.6784  1.0934
  457MOL0     O61568   7.989   1.485   3.086 -0.0604  0.4266  0.2981
  457MOL0     C61569   7.888   1.386   3.052 -0.0509 -0.6531 -0.3019
  457MOL0     C61570   7.793   1.462   2.959  0.3036  0.1029  0.2885
  457MOL0     C61571   7.706   1.557   3.046  0.2188 -0.4448  0.5838
  457MOL0     C61572   7.609   1.645   2.962 -0.1655 -0.2415 -0.3366
  457MOL0     C61573   7.567   1.770   3.048 -0.4665 -0.5595  0.0985
  457MOL0     C61574   7.448   1.844   2.989  0.0598  0.0243 -0.3862
  457MOL0     C61575   7.386   1.952   3.085 -0.8382  0.3527 -0.6147
  457MOL0     C61576   7.498   2.052   3.138  1.0227 -0.5309  0.1892
  457MOL0     N61577   7.441   2.162   3.219 -1.2587 -1.2068  0.0489
  457MOL0     C61578   7.364   2.261   3.157  0.3407  0.1871  0.1910
  457MOL0     C61579   7.381   2.372   3.235 -0.5651  0.3872  0.0757
  457MOL0     C61580   7.320   2.509   3.219  0.4068  0.0313 -0.4195
  457MOL0     C61581   7.299   2.545   3.072 -0.1806 -0.2904 -0.2165
  457MOL0     C61582   7.425   2.561   2.983 -0.2582 -0.4274 -0.8161
  457MOL0     C61583   7.404   2.549   2.834 -0.5985 -1.2757  0.2333
  457MOL0     O61584   7.356   2.422   2.809 -0.3238 -0.5245  0.4736
  457MOL0     C61585   7.236   2.416   2.735  0.2706 -0.7827 -0.1491
  457MOL0     C61586   7.112   2.379   2.795  0.1656  0.4709  0.5595
  457MOL0     C61587   6.990   2.383   2.725  0.6106 -0.1435 -0.3719
  457MOL0     C61588   6.875   2.326   2.804  0.1206  0.4021  0.4543
  457MOL0     C61589   6.985   2.429   2.589  0.1663 -0.2695 -0.3078
  457MOL0     C61590   6.867   2.433   2.499  0.5333 -0.3274  0.8813
  457MOL0     O61591   6.887   2.432   2.362 -0.2691 -0.0051 -0.2338
  457MOL0     C61592   6.783   2.480   2.291 -0.7378 -0.6696  0.0455
  457MOL0     C61593   6.701   2.399   2.211 -0.3125  0.6872  0.8142
  457MOL0     C61594   6.592   2.462   2.147  0.8935 -0.1263  0.1924
  457MOL0     C61595   6.557   2.599   2.166  0.3497  0.5863  0.2742
  457MOL0     O61596   6.449   2.653   2.098 -0.6151 -0.7005  0.0056
  457MOL0     C61597   6.420   2.798   2.121  0.6122  0.1689 -0.2010
  457MOL0     C61598   6.311   2.838   2.020 -0.8439  0.2847 -0.2750
  457MOL0     C61599   6.178   2.779   2.051  0.3218 -0.7584  0.0189
  457MOL0     C61600   6.075   2.838   1.965  0.0434  0.5566 -0.2129
  457MOL0     C61601   5.929   2.788   1.984  0.8160  0.0380  0.1349
  457MOL0     C61602   5.853   2.820   2.114 -0.5185 -0.2750  0.3218
  457MOL0     C61603   5.707   2.771   2.119 -0.4091  0.2657  0.4783
  457MOL0     C61604   5.628   2.813   2.245 -0.7561  0.8387 -0.0088
  457MOL0    Cl61605   5.601   2.989   2.238  0.2816 -0.0754  0.4672
  457MOL0     C61606   6.639   2.677   2.245  0.8872  0.1866 -0.5723
  457MOL0     C61607   6.748   2.616   2.305  0.2376 -0.2271 -0.5773
  457MOL0     O61608   6.756   2.449   2.553 -0.2420 -0.0415  0.7494
  457MOL0     C61609   7.111   2.455   2.528  0.0382  0.0367  0.1500
  457MOL0     C61610   7.231   2.453   2.601 -0.0362  0.5827  0.5490
  457MOL0     N61611   7.482   2.345   3.333  0.1134 -0.0931  0.0908
  457MOL0     N61612   7.511   2.218   3.321 -0.0377  0.1376  0.1119
  457MOL0     C61613   8.151   1.328   3.172  0.5046 -0.0431 -0.1461
  457MOL0     C61614   8.283   1.289   3.181 -1.0027 -0.5901  0.2420
  457MOL0     C61615   8.752   1.335   3.120  0.4631  0.2532 -0.1842
  457MOL0     C61616   8.853   1.337   3.026  0.7257  0.4611  0.5880
  457MOL0     C61617   8.986   1.337   3.072 -0.3075  0.9199  0.1488
  457MOL0     C61618   9.011   1.324   3.214  0.2133  0.6803  0.5159
  457MOL0     O61619   9.136   1.304   3.270  0.4959  0.0386  0.2187
  457MOL0     C61620   9.239   1.263   3.182 -0.1545  0.2906  0.1023
  457MOL0     C61621   9.372   1.261   3.257  0.8225  0.0434 -0.4595
  457MOL0     C61622   9.404   1.126   3.331  0.4103 -0.3351  0.4707
  457MOL0     C61623   9.502   1.137   3.445 -0.4204 -0.1272  0.0589
  457MOL0     C61624   9.642   1.134   3.396  0.1986 -0.4629  0.7869
  457MOL0     C61625   9.755   1.151   3.353  0.4054 -0.3015  1.0383
  457MOL0     C61626   8.905   1.333   3.306  0.5683  0.6387 -0.2557
  457MOL0     C61627   8.777   1.328   3.262 -0.1814 -0.4128  0.6814
  457MOL0     H61628   8.432   1.523   2.989  2.4094 -0.9384  2.8464
  457MOL0     H61629   8.179   1.586   2.954 -2.2570  0.6887  1.3301
  457MOL0     H61630   7.930   1.295   3.008  1.4328  0.5354 -1.4607
  457MOL0     H61631   7.835   1.357   3.143 -0.4220  0.1097 -0.2706
  457MOL0     H61632   7.840   1.518   2.877  0.0153  1.5948  1.0997
  457MOL0     H61633   7.736   1.377   2.921  2.2954 -1.0307 -0.3465
  457MOL0     H61634   7.655   1.495   3.120  1.0965  0.3851  1.9314
  457MOL0     H61635   7.774   1.629   3.092  2.4406 -1.1991 -1.3049
  457MOL0     H61636   7.661   1.693   2.879 -0.0661  0.6046  0.2031
  457MOL0     H61637   7.521   1.586   2.935 -1.7899  2.1595 -0.5551
  457MOL0     H61638   7.548   1.728   3.148  0.6208 -2.0626 -0.2945
  457MOL0     H61639   7.655   1.834   3.058 -0.5204 -0.8133  3.6860
  457MOL0     H61640   7.477   1.887   2.893 -0.3776 -3.1013 -2.0650
  457MOL0     H61641   7.369   1.773   2.961 -0.2638  0.9614 -1.9921
  457MOL0     H61642   7.319   2.007   3.018 -2.4490 -0.4353  0.3001
  457MOL0     H61643   7.335   1.907   3.171  0.8753 -3.1965 -1.2411
  457MOL0     H61644   7.551   2.106   3.059 -0.2314  0.7465  0.1780
  457MOL0     H61645   7.573   2.001   3.199 -0.5345 -1.0723  1.7320
  457MOL0     H61646   7.290   2.252   3.078 -0.7354 -2.3452  1.3723
  457MOL0     H61647   7.222   2.514   3.265  0.3761 -0.4163 -0.4378
  457MOL0     H61648   7.384   2.588   3.260  3.5860 -1.2593 -2.4533
  457MOL0     H61649   7.253   2.643   3.058 -4.0296 -1.8864 -0.1793
  457MOL0     H61650   7.230   2.471   3.029  0.7852 -1.5795  0.3819
  457MOL0     H61651   7.501   2.487   3.012  2.6593  3.0508  1.2624
  457MOL0     H61652   7.464   2.662   2.994 -0.6397 -0.0854 -2.3311
  457MOL0     H61653   7.496   2.571   2.780  0.4253 -0.6480  2.1230
  457MOL0     H61654   7.327   2.622   2.809  0.9992  0.1992 -0.5443
  457MOL0     H61655   7.124   2.349   2.899  3.0238  0.1360  0.2301
  457MOL0     H61656   6.843   2.233   2.756 -0.9470  1.2012 -0.4078
  457MOL0     H61657   6.887   2.312   2.912 -0.7866 -0.2258  0.4852
  457MOL0     H61658   6.790   2.393   2.791 -0.4983 -0.5456 -0.5322
  457MOL0     H61659   6.723   2.294   2.195  0.4312  1.0573 -0.8894
  457MOL0     H61660   6.535   2.404   2.075  1.4136 -2.1793  1.3537
  457MOL0     H61661   6.388   2.804   2.226  0.2757  1.0399 -0.3417
  457MOL0     H61662   6.510   2.860   2.111  1.5781 -1.0127  0.8772
  457MOL0     H61663   6.318   2.947   2.017 -0.8851  0.3833  1.9082
  457MOL0     H61664   6.340   2.798   1.923 -1.4547 -1.3943  0.2047
  457MOL0     H61665   6.145   2.810   2.151 -2.3004  1.3857 -1.3674
  457MOL0     H61666   6.188   2.671   2.036  1.2484 -0.2169 -4.8863
  457MOL0     H61667   6.070   2.947   1.977 -1.3205  0.4942 -0.0430
  457MOL0     H61668   6.111   2.813   1.865  2.7687 -0.7583  0.9766
  457MOL0     H61669   5.918   2.681   1.965 -0.6702  0.1360  0.3471
  457MOL0     H61670   5.879   2.840   1.902 -0.9746 -0.2975  0.9731
  457MOL0     H61671   5.913   2.781   2.197  1.4313  1.1003 -0.3581
  457MOL0     H61672   5.860   2.929   2.121  0.4674 -0.3160  0.0914
  457MOL0     H61673   5.714   2.662   2.117  1.8693  0.3732 -0.2857
  457MOL0     H61674   5.651   2.796   2.029 -1.8808  0.1182  1.3264
  457MOL0     H61675   5.686   2.770   2.327 -0.2744 -0.0171 -0.7731
  457MOL0     H61676   5.530   2.764   2.245 -0.1308 -0.4886 -1.8146
  457MOL0     H61677   6.617   2.778   2.279  0.1220 -0.3204  0.4768
  457MOL0     H61678   6.811   2.681   2.366 -1.1604  1.3866 -0.7614
  457MOL0     H61679   7.119   2.490   2.425  2.4017 -2.6708 -0.7386
  457MOL0     H61680   7.314   2.489   2.541 -1.2791  3.1128  0.1850
  457MOL0     H61681   8.086   1.271   3.238  1.1042 -0.8671 -0.2666
  457MOL0     H61682   8.312   1.206   3.244  1.7578 -0.1821 -0.3295
  457MOL0     H61683   8.834   1.341   2.919  0.3680  0.2917  0.6436
  457MOL0     H61684   9.065   1.327   2.998 -0.2535  1.9718  0.0482
  457MOL0     H61685   9.224   1.161   3.146  0.7652  0.5658 -1.1139
  457MOL0     H61686   9.252   1.324   3.093 -2.1469 -0.0679 -0.4792
  457MOL0     H61687   9.361   1.346   3.325  1.2110  0.0341 -0.3833
  457MOL0     H61688   9.458   1.289   3.196  0.5522  0.8503 -0.4710
  457MOL0     H61689   9.447   1.058   3.256 -0.2899  0.5594 -0.7697
  457MOL0     H61690   9.309   1.081   3.361 -0.4316  1.4503  0.5885
  457MOL0     H61691   9.490   1.052   3.512 -1.6641 -0.5455 -0.6802
  457MOL0     H61692   9.476   1.227   3.501  1.2567  0.5249 -0.1427
  457MOL0     H61693   9.851   1.171   3.310  0.4030 -1.7813  0.2776
  457MOL0     H61694   8.932   1.325   3.411 -1.9327 -1.6974  0.3143
  457MOL0     H61695   8.699   1.327   3.338 -1.7624  1.3390 -0.8136
  458MOL0     O61696   6.167   2.629   8.313 -0.1738  0.1982 -0.0668
  458MOL0     C61697   6.238   2.632   8.211 -0.2005 -0.6745 -0.2900
  458MOL0     O61698   6.227   2.558   8.106 -0.1441  0.1992  0.4573
  458MOL0     C61699   6.110   2.512   8.057 -0.5310 -0.1226 -0.1147
  458MOL0     C61700   5.979   2.567   8.078  0.3951  0.3655 -0.5276
  458MOL0     C61701   5.870   2.505   8.005 -0.0344  0.9713 -0.4757
  458MOL0     C61702   5.892   2.410   7.904  0.1905  0.0010 -0.3124
  458MOL0     O61703   5.781   2.369   7.834 -0.5663 -0.0717 -0.6048
  458MOL0     C61704   5.797   2.265   7.730 -0.6221  0.2201 -0.0654
  458MOL0     C61705   5.651   2.230   7.687 -0.2139  0.1581  0.2470
  458MOL0     C61706   5.559   2.185   7.808  0.5086  0.2870  0.1464
  458MOL0     C61707   5.458   2.091   7.749  0.5442  0.5829 -0.3827
  458MOL0     C61708   5.386   2.016   7.857  0.3557  0.6122 -0.1287
  458MOL0     C61709   5.271   1.936   7.799  0.2643  0.3491 -0.6283
  458MOL0     C61710   5.148   2.013   7.756  0.7836  0.4531  0.8200
  458MOL0     C61711   5.059   2.073   7.864 -0.3172  0.6507 -0.6872
  458MOL0     N61712   4.976   2.180   7.820 -0.2165 -0.7507 -0.0587
  458MOL0     C61713   5.000   2.312   7.836  0.3278  0.0182  0.5942
  458MOL0     C61714   4.891   2.369   7.783  0.1827 -0.1511  0.2930
  458MOL0     C61715   4.877   2.521   7.774  0.0603  0.2332 -1.0011
  458MOL0     C61716   4.743   2.565   7.701 -0.2420  0.0515 -0.5217
  458MOL0     C61717   4.615   2.537   7.785 -0.3871 -0.0198 -0.2315
  458MOL0     C61718   4.498   2.598   7.709 -0.2609  0.1965 -0.0163
  458MOL0     O61719   4.381   2.586   7.794  0.0894 -0.1572 -0.5231
  458MOL0     C61720   4.256   2.635   7.750 -0.0719  0.2491 -1.2645
  458MOL0     C61721   4.231   2.720   7.644 -0.0111 -0.5047  0.4757
  458MOL0     C61722   4.092   2.740   7.598  0.2080 -0.0901  0.3593
  458MOL0     C61723   4.074   2.826   7.480  0.1700  0.3737 -0.0365
  458MOL0     C61724   3.984   2.682   7.667 -0.1834 -0.0945 -0.0745
  458MOL0     C61725   3.835   2.698   7.627 -0.1590  0.8602  0.0434
  458MOL0     O61726   3.751   2.652   7.721  0.1127  0.2184  0.3014
  458MOL0     C61727   3.611   2.684   7.722  0.0910  1.0005  0.6890
  458MOL0     C61728   3.530   2.660   7.610  0.2306 -0.1016 -0.1906
  458MOL0     C61729   3.401   2.690   7.617 -0.9138 -0.2949  0.1792
  458MOL0     C61730   3.342   2.746   7.735 -0.4140  0.6948  0.0001
  458MOL0     O61731   3.206   2.770   7.742 -0.1563 -0.1634 -0.4285
  458MOL0     C61732   3.116   2.730   7.645  0.7898 -0.0046  0.3609
  458MOL0     C61733   2.973   2.720   7.691 -0.0672  0.8705  0.8277
  458MOL0     C61734   2.910   2.842   7.754 -0.1137 -0.2287 -0.5046
  458MOL0     C61735   2.764   2.816   7.790  0.5787 -0.2881  0.0026
  458MOL0     C61736   2.679   2.948   7.810 -0.3495  0.7034 -0.1826
  458MOL0     C61737   2.673   3.051   7.697 -0.4361  0.2372 -0.0627
  458MOL0     C61738   2.567   3.164   7.703  0.7848  0.3790 -0.3396
  458MOL0     C61739   2.564   3.253   7.830  0.3221  0.2545  0.2197
  458MOL0    Cl61740   2.469   3.400   7.805  0.2288 -0.3666  0.3106
  458MOL0     C61741   3.417   2.770   7.846  0.9460 -0.1326  0.6981
  458MOL0     C61742   3.559   2.745   7.839  0.6217 -0.3659  0.1442
  458MOL0     O61743   3.799   2.755   7.526 -0.0515 -0.5863  0.2399
  458MOL0     C61744   4.019   2.601   7.776  0.1254 -0.5855  0.0677
  458MOL0     C61745   4.146   2.579   7.816  0.8020 -0.1299 -0.6784
  458MOL0     N61746   4.798   2.273   7.745 -0.3797  0.2717 -0.1130
  458MOL0     N61747   4.859   2.161   7.757 -0.4261 -0.1800  0.1825
  458MOL0     C61748   6.022   2.368   7.885  0.1408  0.1167  0.0597
  458MOL0     C61749   6.125   2.412   7.963 -0.9998 -0.1388 -0.4782
  458MOL0     C61750   6.356   2.721   8.221 -0.1319 -0.3150  0.4741
  458MOL0     C61751   6.455   2.743   8.114  0.2217 -0.3501  0.0999
  458MOL0     C61752   6.549   2.847   8.126  0.1420 -0.3860 -0.2008
  458MOL0     C61753   6.560   2.924   8.240 -0.6255 -1.3842  0.2069
  458MOL0     O61754   6.657   3.027   8.243 -0.7939 -0.1134  0.2033
  458MOL0     C61755   6.674   3.094   8.371  0.3338  0.1518  0.8282
  458MOL0     C61756   6.807   3.175   8.355 -0.8921  0.3893  0.2667
  458MOL0     C61757   6.786   3.331   8.351  0.0332 -0.7817 -0.7463
  458MOL0     C61758   6.901   3.416   8.288 -0.3477  0.4902  0.4254
  458MOL0     C61759   7.026   3.407   8.372 -0.1026 -0.2110 -0.5732
  458MOL0     C61760   7.112   3.398   8.452 -0.0382 -0.0919  0.3596
  458MOL0     C61761   6.486   2.890   8.354  0.5958 -0.6244  0.1195
  458MOL0     C61762   6.378   2.796   8.338 -0.3911 -0.6832 -0.2252
  458MOL0     H61763   5.976   2.665   8.125  0.2745 -0.6856  1.7694
  458MOL0     H61764   5.770   2.545   8.020  0.3895  1.6989  0.5341
  458MOL0     H61765   5.857   2.304   7.647  1.8580 -0.4413  1.2915
  458MOL0     H61766   5.845   2.173   7.765 -3.2738 -0.6318  1.6229
  458MOL0     H61767   5.597   2.319   7.655 -1.4889 -0.7960 -0.3601
  458MOL0     H61768   5.641   2.162   7.602 -0.5093 -0.9214  1.1090
  458MOL0     H61769   5.620   2.124   7.875  2.0222 -0.3340 -1.7229
  458MOL0     H61770   5.507   2.267   7.859 -0.9287  0.6882 -1.8397
  458MOL0     H61771   5.394   2.150   7.682 -0.9768 -2.5499 -1.8873
  458MOL0     H61772   5.508   2.013   7.691  1.7336  0.6453  0.5289
  458MOL0     H61773   5.461   1.950   7.901  0.4339  0.5652 -0.3336
  458MOL0     H61774   5.342   2.083   7.931  2.2181  3.6850 -1.6019
  458MOL0     H61775   5.297   1.872   7.715  0.0650 -2.1432  1.1146
  458MOL0     H61776   5.236   1.862   7.871 -3.8143  0.4484 -2.2286
  458MOL0     H61777   5.173   2.104   7.700 -0.5948 -1.0316 -2.5007
  458MOL0     H61778   5.090   1.954   7.684 -0.0376  3.0010 -0.7250
  458MOL0     H61779   5.119   2.099   7.952 -1.5952 -1.4170  0.9150
  458MOL0     H61780   4.986   1.997   7.895 -3.0506  1.5779 -4.2275
  458MOL0     H61781   5.096   2.355   7.864  0.7191 -2.1165  2.9290
  458MOL0     H61782   4.888   2.571   7.870  0.3937 -0.2489 -0.7813
  458MOL0     H61783   4.948   2.562   7.702 -0.5868  0.2503 -1.6412
  458MOL0     H61784   4.727   2.511   7.608 -2.5042  0.5925 -0.4942
  458MOL0     H61785   4.760   2.672   7.681  3.2067 -0.3418 -0.3727
  458MOL0     H61786   4.620   2.582   7.885 -1.2134  0.3637 -0.3518
  458MOL0     H61787   4.596   2.430   7.789 -3.4182  0.3606 -2.1217
  458MOL0     H61788   4.487   2.543   7.615 -1.3919 -0.7458  0.6393
  458MOL0     H61789   4.515   2.704   7.690 -0.9489  0.5741  1.3201
  458MOL0     H61790   4.310   2.777   7.596 -1.3146  0.9229 -0.0631
  458MOL0     H61791   4.168   2.869   7.444  0.2079 -1.1360 -1.9191
  458MOL0     H61792   4.027   2.779   7.393  1.7549  1.8159 -1.7478
  458MOL0     H61793   4.004   2.905   7.508 -0.3608 -0.2274  0.3552
  458MOL0     H61794   3.574   2.635   7.514 -1.3153  3.6341 -2.0783
  458MOL0     H61795   3.346   2.672   7.525  0.5964 -2.2660 -0.4095
  458MOL0     H61796   3.118   2.800   7.561 -3.8582 -1.0185 -0.8540
  458MOL0     H61797   3.144   2.630   7.609  1.0808 -0.7036  2.3933
  458MOL0     H61798   2.916   2.691   7.603 -1.6919  0.0446  2.0865
  458MOL0     H61799   2.976   2.640   7.765  1.1279 -0.2860 -0.4181
  458MOL0     H61800   2.921   2.938   7.703  2.1007 -0.1311  0.0506
  458MOL0     H61801   2.960   2.851   7.851  0.7665  1.8505 -1.0962
  458MOL0     H61802   2.713   2.760   7.710 -0.8592 -0.9903  1.3486
  458MOL0     H61803   2.756   2.744   7.872 -0.3201  0.9299  1.0166
  458MOL0     H61804   2.714   2.998   7.901 -4.0529  0.9255  1.2921
  458MOL0     H61805   2.575   2.919   7.832 -1.4361  1.0268 -4.0799
  458MOL0     H61806   2.771   3.097   7.683 -0.2615 -0.1413 -0.0961
  458MOL0     H61807   2.644   2.997   7.606 -0.6570 -0.1375  0.2278
  458MOL0     H61808   2.463   3.132   7.691  0.2691  0.6929  2.6699
  458MOL0     H61809   2.598   3.234   7.624  2.8304  0.3366  0.3717
  458MOL0     H61810   2.663   3.285   7.864  0.5076 -1.1458  1.0768
  458MOL0     H61811   2.521   3.184   7.904 -0.2078  0.7262  0.3569
  458MOL0     H61812   3.369   2.802   7.937  0.6248  1.4662 -0.0039
  458MOL0     H61813   3.624   2.777   7.920  0.0317  1.3658 -0.0305
  458MOL0     H61814   3.937   2.553   7.829 -0.9660 -0.3789 -1.3485
  458MOL0     H61815   4.166   2.511   7.898 -1.0143  0.1774  0.0502
  458MOL0     H61816   6.040   2.315   7.792 -1.8953 -0.5664  0.0155
  458MOL0     H61817   6.224   2.377   7.933 -1.1611  0.7808 -2.2099
  458MOL0     H61818   6.449   2.687   8.022 -1.2571 -0.5820  0.3171
  458MOL0     H61819   6.618   2.860   8.044  0.0226 -0.2480 -0.2818
  458MOL0     H61820   6.591   3.154   8.408 -1.6059 -0.8880 -1.5715
  458MOL0     H61821   6.694   3.011   8.440 -3.6818 -1.4607  0.3400
  458MOL0     H61822   6.867   3.141   8.270  1.7114  2.8814  0.9526
  458MOL0     H61823   6.874   3.156   8.440  1.1061 -0.9602 -1.5176
  458MOL0     H61824   6.771   3.369   8.452  0.3826 -1.6051 -0.3761
  458MOL0     H61825   6.691   3.358   8.302  0.4753  1.3287 -0.5109
  458MOL0     H61826   6.874   3.522   8.288  1.7489  1.1743 -3.0463
  458MOL0     H61827   6.923   3.381   8.187 -0.9413  1.1466  0.0626
  458MOL0     H61828   7.186   3.368   8.522 -1.0345 -2.1089  0.6194
  458MOL0     H61829   6.499   2.941   8.448  3.6374  2.2814 -1.6480
  458MOL0     H61830   6.307   2.787   8.419 -0.4845 -0.4246 -0.2750
  459MOL0     O61831   5.568   7.348   2.031  0.4392 -0.1239  0.3436
  459MOL0     C61832   5.620   7.240   2.037 -0.2886  0.4336  0.3407
  459MOL0     O61833   5.550   7.121   2.038  0.7293  0.0428 -0.8392
  459MOL0     C61834   5.420   7.094   2.012  0.0611  0.5573 -0.7327
  459MOL0     C61835   5.322   7.187   2.018 -0.5542 -0.0443  1.0638
  459MOL0     C61836   5.188   7.155   1.997 -0.7162 -0.2464  0.2511
  459MOL0     C61837   5.147   7.024   1.961 -0.2872 -0.3485  0.4084
  459MOL0     O61838   5.017   7.006   1.938  0.3735 -0.1805  0.4582
  459MOL0     C61839   4.959   6.881   1.977  0.3992  0.0734  0.1920
  459MOL0     C61840   4.815   6.886   1.929 -0.8415 -0.8431 -0.6298
  459MOL0     C61841   4.745   6.762   1.977 -0.0090 -0.1966  0.0055
  459MOL0     C61842   4.592   6.776   1.964 -0.2295 -0.3123 -0.2503
  459MOL0     C61843   4.524   6.656   2.016 -0.0072  1.3719  0.0010
  459MOL0     C61844   4.377   6.667   2.022 -0.0615 -0.1550  0.5215
  459MOL0     C61845   4.312   6.662   1.886  0.2212  0.9213  0.0490
  459MOL0     C61846   4.174   6.580   1.877 -0.0881 -0.2467 -0.4896
  459MOL0     N61847   4.063   6.637   1.964 -0.2594  0.3901  0.0730
  459MOL0     C61848   3.936   6.608   1.925 -0.8296  0.4299 -0.5026
  459MOL0     C61849   3.863   6.639   2.033  0.3694 -0.3477 -0.1583
  459MOL0     C61850   3.726   6.571   2.049  0.2618 -0.3848  0.9467
  459MOL0     C61851   3.605   6.672   2.051 -0.4613  0.3739 -0.3777
  459MOL0     C61852   3.474   6.595   2.068 -0.4433  0.7199 -0.5475
  459MOL0     C61853   3.368   6.692   2.117 -0.0320  0.4684  0.1126
  459MOL0     O61854   3.241   6.628   2.098 -0.4818 -0.4077  0.0535
  459MOL0     C61855   3.138   6.671   2.177 -0.2190  0.7191  0.0141
  459MOL0     C61856   3.012   6.605   2.161  0.5155 -0.4133 -1.1916
  459MOL0     C61857   2.900   6.641   2.250 -0.6497 -0.6691  0.6127
  459MOL0     C61858   2.766   6.581   2.220  0.3808  0.1461  0.5090
  459MOL0     C61859   2.917   6.747   2.353 -0.6158 -1.1406  0.2072
  459MOL0     C61860   2.804   6.798   2.436  0.5275  0.0320 -0.0976
  459MOL0     O61861   2.847   6.854   2.553 -0.5510  0.3372 -0.2744
  459MOL0     C61862   2.758   6.862   2.645  1.0921  0.0515 -0.8413
  459MOL0     C61863   2.720   6.742   2.710  0.3841  0.2059 -0.4538
  459MOL0     C61864   2.627   6.751   2.810  0.7398 -0.7061 -0.6153
  459MOL0     C61865   2.567   6.877   2.850 -0.1918  0.1234 -0.2006
  459MOL0     O61866   2.484   6.890   2.959 -0.0515 -0.1847 -0.2879
  459MOL0     C61867   2.389   6.786   2.975  0.5438 -0.2406 -0.4493
  459MOL0     C61868   2.275   6.832   3.077 -0.0199  0.1855  0.1171
  459MOL0     C61869   2.148   6.739   3.070  0.2312  0.3206 -0.5773
  459MOL0     C61870   2.071   6.708   3.201 -0.1089  1.3379  0.0336
  459MOL0     C61871   1.993   6.817   3.271  0.6052 -0.1405  0.6053
  459MOL0     C61872   1.921   6.772   3.405  1.0135 -0.3213 -0.1727
  459MOL0     C61873   2.023   6.744   3.515  0.0491  0.2550  0.3511
  459MOL0     C61874   1.937   6.724   3.646 -0.4597  0.2654 -0.2389
  459MOL0    Cl61875   1.832   6.581   3.635 -0.0162 -0.5371  0.3608
  459MOL0     C61876   2.609   6.990   2.787 -0.1584 -0.5680 -0.9343
  459MOL0     C61877   2.712   6.985   2.695 -0.0166  0.1492 -0.7158
  459MOL0     O61878   2.689   6.793   2.393 -0.0763 -0.7775 -0.2362
  459MOL0     C61879   3.038   6.818   2.354  0.6025  0.1436  0.2523
  459MOL0     C61880   3.145   6.775   2.275 -0.2061  0.1108 -0.1280
  459MOL0     N61881   3.944   6.684   2.135  0.3863  0.0773 -0.0628
  459MOL0     N61882   4.068   6.675   2.097  0.8187  0.0073 -0.4163
  459MOL0     C61883   5.250   6.931   1.958  0.0276  0.2616 -0.8142
  459MOL0     C61884   5.382   6.964   1.986  0.3350 -0.1623  0.0414
  459MOL0     C61885   5.764   7.223   2.073 -0.2388 -0.5372  0.2282
  459MOL0     C61886   5.847   7.339   2.064  0.9075 -0.4816  0.0874
  459MOL0     C61887   5.982   7.335   2.086  0.2194  0.2964 -0.0512
  459MOL0     C61888   6.043   7.213   2.119  0.2746  0.9191 -0.3836
  459MOL0     O61889   6.171   7.185   2.140 -0.0402  0.4888  0.5823
  459MOL0     C61890   6.265   7.285   2.180 -0.4861 -1.1960 -0.6491
  459MOL0     C61891   6.255   7.293   2.337  0.3798  0.8931  0.6686
  459MOL0     C61892   6.361   7.384   2.384  0.0709 -0.3820  0.4561
  459MOL0     C61893   6.490   7.293   2.401 -0.2673 -0.9450  0.0217
  459MOL0     C61894   6.603   7.363   2.457  0.2457  0.0764 -0.0952
  459MOL0     C61895   6.688   7.425   2.512 -0.0066  0.4535  0.0408
  459MOL0     C61896   5.962   7.090   2.122  0.5199 -0.7227 -0.4182
  459MOL0     C61897   5.829   7.096   2.100  0.8734  0.9669 -0.0854
  459MOL0     H61898   5.341   7.291   2.042  0.9176  0.8421 -3.0883
  459MOL0     H61899   5.120   7.240   2.006 -0.2715  0.2345 -0.7982
  459MOL0     H61900   5.012   6.797   1.931 -3.4987 -1.9192 -1.0685
  459MOL0     H61901   4.957   6.865   2.085  0.1889  0.6824  0.2857
  459MOL0     H61902   4.771   6.974   1.977  2.7813 -0.2833  2.1451
  459MOL0     H61903   4.806   6.902   1.821  0.3737  4.3072 -0.2327
  459MOL0     H61904   4.788   6.690   1.905 -0.3190  1.7447 -2.2387
  459MOL0     H61905   4.763   6.737   2.082  1.7076 -1.4578 -0.5203
  459MOL0     H61906   4.559   6.856   2.031  0.4185 -0.5073  0.3189
  459MOL0     H61907   4.563   6.791   1.860  1.8575  1.3767 -0.6618
  459MOL0     H61908   4.562   6.560   1.981  0.4283  0.3980  2.8848
  459MOL0     H61909   4.555   6.638   2.119 -3.8899  0.6978  1.2305
  459MOL0     H61910   4.339   6.585   2.085  0.1643 -1.2451 -0.7313
  459MOL0     H61911   4.347   6.762   2.066  0.6850  0.4648 -0.2874
  459MOL0     H61912   4.305   6.762   1.842 -1.0221  1.1606  0.7331
  459MOL0     H61913   4.377   6.609   1.816 -0.0393  2.3565 -1.3416
  459MOL0     H61914   4.191   6.477   1.912 -1.5429 -0.6324 -0.8546
  459MOL0     H61915   4.139   6.583   1.774  1.1894  1.5414 -0.9229
  459MOL0     H61916   3.907   6.555   1.835  2.6306 -0.4747 -1.2355
  459MOL0     H61917   3.708   6.491   1.977 -1.5236  0.0229  0.8853
  459MOL0     H61918   3.723   6.524   2.148  0.2796  0.6838  1.4678
  459MOL0     H61919   3.596   6.735   1.962 -2.0842  2.4556  1.1738
  459MOL0     H61920   3.620   6.733   2.140 -0.4828 -0.0502 -0.0799
  459MOL0     H61921   3.488   6.515   2.142  1.4637 -1.1138 -2.7190
  459MOL0     H61922   3.443   6.545   1.976 -1.2235 -0.4105  0.2910
  459MOL0     H61923   3.375   6.780   2.052 -1.5769  0.0875 -0.6223
  459MOL0     H61924   3.389   6.712   2.222 -0.3548 -2.2569  0.7720
  459MOL0     H61925   3.015   6.525   2.088  4.5153 -0.8998 -0.6996
  459MOL0     H61926   2.705   6.650   2.160  0.2839  0.0220  0.4638
  459MOL0     H61927   2.774   6.486   2.166 -0.7045  0.3896 -0.1227
  459MOL0     H61928   2.716   6.559   2.314 -2.3247  1.8817 -0.3914
  459MOL0     H61929   2.755   6.643   2.684  2.0459  0.3609  0.9835
  459MOL0     H61930   2.586   6.662   2.858 -0.6589  0.1455 -0.1784
  459MOL0     H61931   2.339   6.760   2.881 -0.2734 -0.8397  0.1367
  459MOL0     H61932   2.437   6.693   3.006  2.0798 -2.2073 -7.0939
  459MOL0     H61933   2.325   6.819   3.174 -0.9701  1.1189  0.7567
  459MOL0     H61934   2.242   6.936   3.066 -0.4480  0.0707  0.2878
  459MOL0     H61935   2.174   6.636   3.044 -0.2913 -0.6097  2.2348
  459MOL0     H61936   2.084   6.791   2.998  2.1533  1.8352 -1.2931
  459MOL0     H61937   2.017   6.613   3.194  1.3020  0.5965 -1.2736
  459MOL0     H61938   2.152   6.690   3.273  1.5990 -1.0004 -2.3043
  459MOL0     H61939   1.925   6.851   3.192 -0.2321  1.9547  2.1362
  459MOL0     H61940   2.062   6.899   3.291  0.9163 -0.4928  0.9983
  459MOL0     H61941   1.834   6.833   3.428 -0.2634 -1.2175 -2.3310
  459MOL0     H61942   1.870   6.676   3.392 -0.1527  0.2746 -0.1543
  459MOL0     H61943   2.092   6.829   3.522  1.1177 -0.4333 -1.3256
  459MOL0     H61944   2.078   6.653   3.491 -1.7558 -0.6143 -0.6935
  459MOL0     H61945   1.875   6.813   3.664  0.2295  0.7435 -0.1370
  459MOL0     H61946   2.006   6.711   3.730  1.6572 -1.1930 -2.0982
  459MOL0     H61947   2.572   7.084   2.826  1.9046 -0.1735  0.2645
  459MOL0     H61948   2.745   7.076   2.647  2.6493  0.3187  1.1866
  459MOL0     H61949   3.057   6.893   2.430  2.3880 -2.1921  2.2702
  459MOL0     H61950   3.240   6.826   2.288  0.1607 -0.5927  0.0178
  459MOL0     H61951   5.214   6.829   1.967 -0.2068  0.5321  2.5331
  459MOL0     H61952   5.452   6.881   1.986  0.0894 -0.4788 -3.3115
  459MOL0     H61953   5.798   7.433   2.041  0.8699 -0.5265 -0.0176
  459MOL0     H61954   6.041   7.424   2.061 -1.3837  0.8870 -1.9795
  459MOL0     H61955   6.366   7.252   2.158 -0.0220 -1.1782  1.2578
  459MOL0     H61956   6.246   7.386   2.141  1.5035 -0.5470 -0.0588
  459MOL0     H61957   6.260   7.198   2.390 -0.8782  2.7087  4.3980
  459MOL0     H61958   6.160   7.344   2.353  0.5046  0.9286  1.3219
  459MOL0     H61959   6.330   7.421   2.483  1.6432  0.9578  0.4911
  459MOL0     H61960   6.376   7.470   2.318  0.8534 -1.3713 -0.7003
  459MOL0     H61961   6.521   7.261   2.301 -3.8639 -1.1664 -1.2038
  459MOL0     H61962   6.474   7.203   2.462 -0.1487 -2.2234 -1.7376
  459MOL0     H61963   6.777   7.478   2.539 -0.6338  3.6202 -3.2477
  459MOL0     H61964   6.017   6.998   2.140  0.0448 -1.4244 -2.2876
  459MOL0     H61965   5.781   7.001   2.084 -0.2211  1.7984 -2.1453
  460MOL0     O61966  10.025   6.636  10.790 -0.0856 -0.2589 -0.8018
  460MOL0     C61967  10.008   6.690  10.684 -0.3203 -1.3047 -0.4072
  460MOL0     O61968   9.909   6.767  10.655 -0.2470 -0.1498  0.4071
  460MOL0     C61969   9.781   6.774  10.717 -0.3418  0.6159  0.1898
  460MOL0     C61970   9.725   6.656  10.773  0.6708  0.3574  0.3744
  460MOL0     C61971   9.600   6.668  10.830 -0.5961  0.6858 -0.0343
  460MOL0     C61972   9.521   6.780  10.820  0.7689  0.3326 -1.1815
  460MOL0     O61973   9.386   6.772  10.836  0.3100 -0.6901 -0.1232
  460MOL0     C61974   9.317   6.898  10.871  0.0174 -0.6172 -0.3074
  460MOL0     C61975   9.178   6.867  10.912 -0.3736 -0.1897 -0.5775
  460MOL0     C61976   9.159   6.759  11.028 -0.3195  0.1888  0.1707
  460MOL0     C61977   9.056   6.787  11.130  0.2125 -0.0854  0.0216
  460MOL0     C61978   8.916   6.775  11.073  0.0118  0.4111  0.9490
  460MOL0     C61979   8.803   6.820  11.169  0.2798 -0.7300  0.4961
  460MOL0     C61980   8.796   6.737  11.299 -0.5903  0.1452 -0.0380
  460MOL0     C61981   8.678   6.775  11.389 -0.5241 -0.5080 -0.2311
  460MOL0     N61982   8.551   6.765  11.318 -0.0899 -0.4012  0.2602
  460MOL0     C61983   8.477   6.652  11.299 -0.0506 -0.0999 -1.3533
  460MOL0     C61984   8.382   6.679  11.206  0.0078  0.3590  1.2338
  460MOL0     C61985   8.288   6.574  11.147  0.1857 -0.0801  0.0056
  460MOL0     C61986   8.205   6.489  11.251 -0.1333  0.6103  0.4670
  460MOL0     C61987   8.108   6.588  11.305 -0.0683  0.1845 -0.0732
  460MOL0     C61988   8.020   6.543  11.417 -0.3883  0.3672  0.0272
  460MOL0     O61989   7.956   6.423  11.371 -0.2837 -0.8456  0.2929
  460MOL0     C61990   7.823   6.437  11.333 -0.1689  0.5505  0.6165
  460MOL0     C61991   7.772   6.545  11.257  0.7923  0.2433  0.5841
  460MOL0     C61992   7.639   6.547  11.210 -0.1473  0.2525  0.7317
  460MOL0     C61993   7.609   6.662  11.119  0.5783 -1.2088 -0.1849
  460MOL0     C61994   7.562   6.433  11.230 -0.1386 -0.5585 -0.1945
  460MOL0     C61995   7.422   6.426  11.170 -0.2863 -0.2421 -0.8107
  460MOL0     O61996   7.383   6.300  11.141 -0.0389  0.3514  0.8362
  460MOL0     C61997   7.254   6.263  11.137  1.1645  0.2149 -0.2239
  460MOL0     C61998   7.244   6.134  11.092 -0.8943  0.6440 -0.7063
  460MOL0     C61999   7.114   6.084  11.069  0.4678 -0.3988  0.2541
  460MOL0     C62000   7.005   6.144  11.120  0.4611  0.1344  0.2455
  460MOL0     O62001   6.875   6.093  11.103 -0.4652  0.6942 -0.0129
  460MOL0     C62002   6.781   6.181  11.029 -0.7740 -0.5464  0.0889
  460MOL0     C62003   6.640   6.177  11.079  0.1471 -0.5450 -0.3544
  460MOL0     C62004   6.580   6.048  11.034 -0.4476  0.5200 -0.8360
  460MOL0     C62005   6.426   6.064  11.062 -0.0134 -0.8340  0.4259
  460MOL0     C62006   6.353   5.947  11.002 -0.1243 -0.7179  0.1009
  460MOL0     C62007   6.206   5.992  11.007  0.2358  1.5913 -0.3790
  460MOL0     C62008   6.111   5.882  10.954  0.0526  0.4460  0.2838
  460MOL0     C62009   6.126   5.865  10.805 -0.6382  0.8900 -0.2662
  460MOL0    Cl62010   6.117   6.025  10.715 -0.2651 -0.3956 -0.2777
  460MOL0     C62011   7.016   6.261  11.183 -0.5058 -0.1978 -0.5393
  460MOL0     C62012   7.142   6.330  11.188  0.0186  0.2374 -0.1071
  460MOL0     O62013   7.364   6.528  11.142  0.5363  0.1670  0.0290
  460MOL0     C62014   7.612   6.329  11.300  0.0721 -0.1280 -0.2784
  460MOL0     C62015   7.742   6.332  11.355 -0.8666  0.1299  0.4422
  460MOL0     N62016   8.389   6.809  11.179  0.2551 -0.5081  0.7175
  460MOL0     N62017   8.496   6.860  11.237  1.0388 -0.3026 -0.7935
  460MOL0     C62018   9.575   6.901  10.762 -0.0239 -0.6374  0.2685
  460MOL0     C62019   9.707   6.890  10.706 -0.3590  0.2105 -0.9433
  460MOL0     C62020  10.120   6.676  10.588  0.6784 -0.0209 -0.2980
  460MOL0     C62021  10.238   6.599  10.619 -0.2767 -0.3522 -0.3964
  460MOL0     C62022  10.348   6.593  10.532 -0.6418 -0.3251 -1.1075
  460MOL0     C62023  10.338   6.659  10.409 -0.3567 -0.6587  0.3916
  460MOL0     O62024  10.424   6.666  10.304 -0.2980  0.2047  0.0130
  460MOL0     C62025  10.559   6.626  10.326  0.0891 -0.0076 -0.8352
  460MOL0     C62026  10.632   6.734  10.404 -0.6296 -0.7298 -0.1433
  460MOL0     C62027  10.755   6.679  10.478 -0.1166 -0.3197 -0.5768
  460MOL0     C62028  10.852   6.786  10.519  0.2808 -0.2292 -0.9725
  460MOL0     C62029  10.767   6.872  10.609  0.6120  0.0936  0.7166
  460MOL0     C62030  10.680   6.935  10.667 -0.1891 -0.3385 -0.9053
  460MOL0     C62031  10.228   6.743  10.383 -0.0715  0.0018 -0.0928
  460MOL0     C62032  10.121   6.745  10.467  0.1726  0.1443  0.2455
  460MOL0     H62033   9.765   6.555  10.771 -0.0540  0.0660 -1.5276
  460MOL0     H62034   9.537   6.586  10.864  0.8639 -0.2972  0.4134
  460MOL0     H62035   9.372   6.950  10.950 -0.7521  0.3678 -0.3996
  460MOL0     H62036   9.305   6.970  10.790 -2.1840 -0.0757  0.4428
  460MOL0     H62037   9.123   6.960  10.929  0.3300  0.6940 -2.8077
  460MOL0     H62038   9.127   6.818  10.827  0.8812 -2.8057  0.0731
  460MOL0     H62039   9.132   6.658  10.997  1.6704 -0.7044  1.1147
  460MOL0     H62040   9.258   6.753  11.075 -0.5058  0.3472  0.5887
  460MOL0     H62041   9.063   6.715  11.212  0.4412 -0.8792 -0.6858
  460MOL0     H62042   9.073   6.889  11.166 -1.2645  0.6113 -1.1823
  460MOL0     H62043   8.916   6.833  10.981  0.8041 -3.8247 -2.0233
  460MOL0     H62044   8.892   6.673  11.043 -1.7890  0.8491  0.8037
  460MOL0     H62045   8.823   6.924  11.197 -3.1398 -0.5566  2.8878
  460MOL0     H62046   8.703   6.820  11.124 -0.2667  0.1678  1.6481
  460MOL0     H62047   8.788   6.628  11.288 -1.4550  0.1363  0.5800
  460MOL0     H62048   8.888   6.771  11.349  0.1323 -0.8673 -0.6357
  460MOL0     H62049   8.694   6.882  11.409  2.2325 -0.6692 -1.1186
  460MOL0     H62050   8.665   6.727  11.486 -2.1066 -0.1578 -0.2506
  460MOL0     H62051   8.507   6.557  11.343  1.2201  1.9837  2.7310
  460MOL0     H62052   8.221   6.635  11.085  1.3465  1.4666  0.2203
  460MOL0     H62053   8.340   6.509  11.076 -0.8516  1.0976 -1.9290
  460MOL0     H62054   8.278   6.444  11.320  0.8444  1.9112  0.3257
  460MOL0     H62055   8.155   6.406  11.201  0.3074 -0.0200  1.0419
  460MOL0     H62056   8.045   6.612  11.219 -0.7544 -1.7138 -0.1553
  460MOL0     H62057   8.155   6.681  11.337 -0.6848  0.1896  0.8449
  460MOL0     H62058   7.945   6.618  11.445 -1.7584 -0.8990 -0.0864
  460MOL0     H62059   8.083   6.527  11.505  0.8419 -4.1156 -1.3852
  460MOL0     H62060   7.833   6.631  11.230 -0.5736  0.8329 -0.7267
  460MOL0     H62061   7.557   6.627  11.029  0.6509 -0.7703 -0.4042
  460MOL0     H62062   7.548   6.728  11.182  3.4311 -0.4287  1.9205
  460MOL0     H62063   7.700   6.713  11.087  0.5654  0.0674  1.6705
  460MOL0     H62064   7.336   6.081  11.067 -1.3583  0.5443 -2.3382
  460MOL0     H62065   7.089   5.987  11.028 -1.5666  0.1881 -0.0087
  460MOL0     H62066   6.814   6.286  11.030 -0.6637 -0.5661  1.5700
  460MOL0     H62067   6.783   6.153  10.924  0.9510 -0.0667 -0.0306
  460MOL0     H62068   6.654   6.193  11.186  0.2435 -1.0239 -0.2934
  460MOL0     H62069   6.583   6.263  11.042  2.7494  2.1528  1.4798
  460MOL0     H62070   6.611   5.965  11.098 -2.6021 -0.1360 -0.5724
  460MOL0     H62071   6.611   6.029  10.930 -1.5214 -2.5703 -0.7025
  460MOL0     H62072   6.402   6.061  11.169 -2.6514 -0.8737 -0.0891
  460MOL0     H62073   6.390   6.157  11.018  0.0780 -0.3844  1.2660
  460MOL0     H62074   6.380   5.853  11.050  4.1473 -0.0412 -0.5790
  460MOL0     H62075   6.379   5.937  10.896 -1.6974  0.7302 -0.4826
  460MOL0     H62076   6.178   5.996  11.112  0.4053 -3.1445  0.0496
  460MOL0     H62077   6.186   6.084  10.951 -2.3175  1.1394 -0.3469
  460MOL0     H62078   6.013   5.903  10.995  1.1371 -0.8595  3.9224
  460MOL0     H62079   6.139   5.787  11.001  1.0919 -0.2285 -1.5662
  460MOL0     H62080   6.046   5.799  10.771  1.4362 -0.8487 -2.1068
  460MOL0     H62081   6.215   5.807  10.779 -2.4019 -1.2830 -1.7547
  460MOL0     H62082   6.933   6.319  11.222 -1.1062 -0.3142 -1.5954
  460MOL0     H62083   7.146   6.431  11.228  0.4007 -0.6139  2.1485
  460MOL0     H62084   7.539   6.251  11.319  0.4603 -0.8228 -1.4749
  460MOL0     H62085   7.794   6.267  11.425  0.1110  0.6454  0.2099
  460MOL0     H62086   9.501   6.979  10.749 -4.0636 -4.3867 -1.6848
  460MOL0     H62087   9.755   6.973  10.654 -1.9160  1.3661 -0.5851
  460MOL0     H62088  10.246   6.551  10.715 -1.0900  0.4022  0.0620
  460MOL0     H62089  10.436   6.533  10.552 -0.7405 -0.9783 -2.4937
  460MOL0     H62090  10.571   6.533  10.381  1.1655 -0.7796 -2.2871
  460MOL0     H62091  10.599   6.604  10.226 -0.9175 -0.0301 -1.2516
  460MOL0     H62092  10.560   6.782  10.471 -0.7302 -0.8570 -0.1612
  460MOL0     H62093  10.657   6.814  10.333  0.9594 -1.3461 -0.3184
  460MOL0     H62094  10.807   6.605  10.416  0.0359  0.0568 -0.9021
  460MOL0     H62095  10.715   6.630  10.567 -0.0971  0.2783 -0.2349
  460MOL0     H62096  10.896   6.850  10.442 -2.0740  1.4324 -1.0641
  460MOL0     H62097  10.930   6.730  10.571  2.3568  0.2477 -3.4003
  460MOL0     H62098  10.596   6.980  10.715 -0.4849  0.1900 -1.8896
  460MOL0     H62099  10.226   6.790  10.285  2.1808 -0.0395 -0.2109
  460MOL0     H62100  10.022   6.774  10.434 -1.6409 -2.5658  2.7412
  461MOL0     O62101   4.966   8.672   2.995  0.3548 -0.0587  0.6844
  461MOL0     C62102   4.993   8.736   2.886 -0.6257  0.1175  0.3446
  461MOL0     O62103   4.919   8.744   2.773 -0.8302  0.4372  0.2654
  461MOL0     C62104   4.795   8.687   2.774 -0.3852 -0.4265  0.6683
  461MOL0     C62105   4.692   8.741   2.849 -0.4052 -0.1006 -0.2671
  461MOL0     C62106   4.561   8.688   2.847 -0.9054  0.8516  0.6846
  461MOL0     C62107   4.535   8.584   2.760 -0.4340 -0.4439 -0.4134
  461MOL0     O62108   4.415   8.521   2.750 -0.2464 -0.6734 -0.2898
  461MOL0     C62109   4.295   8.590   2.733  0.7676  0.1273  0.2279
  461MOL0     C62110   4.184   8.503   2.661 -0.4736 -0.7850  0.7089
  461MOL0     C62111   4.052   8.568   2.648  0.5067 -0.3003 -0.4277
  461MOL0     C62112   3.946   8.523   2.753 -1.0025 -0.2533  0.3462
  461MOL0     C62113   3.801   8.572   2.716 -0.4116 -0.5063  0.4783
  461MOL0     C62114   3.715   8.583   2.832 -0.1329 -1.2889 -0.3323
  461MOL0     C62115   3.592   8.666   2.794  0.6583 -0.5532  0.3901
  461MOL0     C62116   3.494   8.705   2.905 -0.2486 -0.6903 -0.2216
  461MOL0     N62117   3.358   8.710   2.856  0.2816  0.2277 -0.0087
  461MOL0     C62118   3.240   8.694   2.931  0.5212  0.8979 -0.0845
  461MOL0     C62119   3.135   8.736   2.853  0.4391 -0.7791  0.7776
  461MOL0     C62120   2.996   8.733   2.892  0.0518 -0.2013  0.1296
  461MOL0     C62121   2.969   8.849   2.986 -0.0220  0.2524  0.2878
  461MOL0     C62122   2.987   8.990   2.924 -0.1638  0.5180 -0.7234
  461MOL0     C62123   3.010   9.089   3.038  0.5428 -0.1376 -0.8860
  461MOL0     O62124   3.145   9.086   3.091 -0.2268  0.2583 -0.4291
  461MOL0     C62125   3.239   9.159   3.028 -0.2641 -0.5228 -0.6138
  461MOL0     C62126   3.220   9.262   2.937  0.5019  0.2121  0.6408
  461MOL0     C62127   3.330   9.336   2.877 -0.5081 -0.5540  0.2987
  461MOL0     C62128   3.293   9.453   2.782  0.3665  0.1914  0.1006
  461MOL0     C62129   3.458   9.304   2.920 -0.1367  0.1218  0.2927
  461MOL0     C62130   3.584   9.363   2.860  0.7902  0.3210 -0.2234
  461MOL0     O62131   3.703   9.331   2.930 -0.3353 -0.1359  0.7296
  461MOL0     C62132   3.817   9.389   2.894 -0.3475 -0.4143  0.0114
  461MOL0     C62133   3.932   9.315   2.871  0.1353  0.4219  0.3441
  461MOL0     C62134   4.052   9.382   2.858 -0.3539  1.0280  0.0080
  461MOL0     C62135   4.068   9.523   2.854  0.6802 -0.0180 -0.1488
  461MOL0     O62136   4.181   9.598   2.835  0.1475 -0.0020 -0.3753
  461MOL0     C62137   4.300   9.521   2.790  0.3319 -0.7427  0.1730
  461MOL0     C62138   4.422   9.606   2.758  0.3615  0.5498 -0.2415
  461MOL0     C62139   4.492   9.671   2.877  0.3111 -0.3053  0.0093
  461MOL0     C62140   4.605   9.768   2.840  0.1712 -0.6609 -0.8049
  461MOL0     C62141   4.723   9.767   2.935 -1.1638  0.1053  0.1767
  461MOL0     C62142   4.829   9.862   2.892 -1.0812  0.0482 -0.1292
  461MOL0     C62143   4.954   9.852   2.988 -0.0635  0.1155  0.0908
  461MOL0     C62144   5.069   9.939   2.940  0.1190  0.4405  0.0890
  461MOL0    Cl62145   5.117   9.897   2.784 -0.0800 -0.4087 -0.9552
  461MOL0     C62146   3.949   9.596   2.876 -0.6867  0.7348 -0.7750
  461MOL0     C62147   3.824   9.531   2.889  0.5371  0.1363  0.6739
  461MOL0     O62148   3.577   9.419   2.757  0.1136  0.2171 -0.1067
  461MOL0     C62149   3.478   9.193   3.003  0.5250 -1.2787  0.1784
  461MOL0     C62150   3.372   9.125   3.063  0.3848  0.7477 -0.0352
  461MOL0     N62151   3.190   8.765   2.733 -0.1461 -0.1176 -0.0133
  461MOL0     N62152   3.324   8.757   2.737  0.5299  0.0180 -0.6434
  461MOL0     C62153   4.644   8.526   2.690 -0.5696  0.3092  0.7016
  461MOL0     C62154   4.772   8.577   2.692  0.6552  0.0555 -0.0377
  461MOL0     C62155   5.126   8.795   2.885  0.0874  0.5796 -0.2911
  461MOL0     C62156   5.198   8.805   3.006 -0.5193  0.3407 -0.1818
  461MOL0     C62157   5.318   8.876   3.010  0.2679 -0.1861  0.2052
  461MOL0     C62158   5.375   8.919   2.887  0.5033 -1.3670  0.5574
  461MOL0     O62159   5.494   8.987   2.876 -0.1999 -0.0067  0.1615
  461MOL0     C62160   5.581   8.957   2.987  0.2970 -0.4088 -0.9659
  461MOL0     C62161   5.720   8.959   2.950 -0.2750 -0.6536  0.0509
  461MOL0     C62162   5.825   8.966   3.061 -0.0904 -0.1776  0.0518
  461MOL0     C62163   5.858   9.117   3.098  0.4493 -0.4628 -0.6457
  461MOL0     C62164   5.979   9.119   3.184  0.6765 -1.0315  0.5697
  461MOL0     C62165   6.083   9.128   3.244  0.1894  0.3159 -0.7484
  461MOL0     C62166   5.304   8.907   2.764  0.0223  0.2264 -0.2996
  461MOL0     C62167   5.175   8.843   2.766  0.3262 -0.1531  0.1893
  461MOL0     H62168   4.722   8.810   2.927  1.4863  0.0379 -1.0536
  461MOL0     H62169   4.478   8.724   2.907 -4.1906 -2.7840 -1.2288
  461MOL0     H62170   4.257   8.628   2.828  0.7034 -0.7885  0.5803
  461MOL0     H62171   4.319   8.674   2.667 -0.0184 -0.2660 -0.5854
  461MOL0     H62172   4.221   8.482   2.561 -1.6990  1.6571 -0.3299
  461MOL0     H62173   4.164   8.409   2.714 -1.8115  0.5985  2.8383
  461MOL0     H62174   4.056   8.677   2.652  0.9433 -0.3429  1.0888
  461MOL0     H62175   4.018   8.543   2.547 -1.7490 -0.1620  0.2325
  461MOL0     H62176   3.959   8.416   2.775  0.0419  0.2488  2.4794
  461MOL0     H62177   3.991   8.574   2.839  0.2679 -2.3693  1.0351
  461MOL0     H62178   3.803   8.669   2.666 -3.2294  0.4799  2.0223
  461MOL0     H62179   3.750   8.508   2.643 -0.8397  0.0785  0.2580
  461MOL0     H62180   3.676   8.488   2.868 -2.8975 -0.8437 -1.8847
  461MOL0     H62181   3.769   8.634   2.912  0.9852 -1.6559 -0.8287
  461MOL0     H62182   3.638   8.761   2.766  0.5784  0.2273  2.6725
  461MOL0     H62183   3.527   8.616   2.722 -0.6804 -0.8354  1.7377
  461MOL0     H62184   3.524   8.807   2.931 -0.9964 -0.2118 -1.1858
  461MOL0     H62185   3.499   8.642   2.994 -0.8482  0.4644  0.6664
  461MOL0     H62186   3.233   8.668   3.036  0.1685 -0.0871 -0.3409
  461MOL0     H62187   2.932   8.739   2.803 -0.1812  0.0653  0.3138
  461MOL0     H62188   2.968   8.639   2.942  1.6344 -1.4437 -1.1808
  461MOL0     H62189   3.032   8.827   3.073 -1.6419 -1.6748  1.0449
  461MOL0     H62190   2.865   8.832   3.016  1.0179 -1.8443  3.2617
  461MOL0     H62191   2.900   9.023   2.866 -0.3129  0.7758 -0.3615
  461MOL0     H62192   3.077   8.986   2.862 -1.4300 -3.2494 -2.6310
  461MOL0     H62193   2.938   9.065   3.116  1.0295  1.5655  0.1437
  461MOL0     H62194   2.980   9.189   3.007 -0.8334  0.3154  1.6075
  461MOL0     H62195   3.122   9.291   2.901 -0.4688  0.9476  3.6105
  461MOL0     H62196   3.304   9.416   2.679  0.2531 -1.7940  0.7436
  461MOL0     H62197   3.191   9.482   2.808  0.5446  2.1675 -1.2632
  461MOL0     H62198   3.343   9.548   2.798  0.0189  0.3854  0.0473
  461MOL0     H62199   3.925   9.207   2.866  2.3054  0.2387  0.1989
  461MOL0     H62200   4.146   9.328   2.850  0.1131  1.8093  0.1493
  461MOL0     H62201   4.347   9.453   2.860 -0.6645  1.5525  3.2910
  461MOL0     H62202   4.278   9.470   2.696  5.1915 -0.2800 -1.4690
  461MOL0     H62203   4.490   9.538   2.707 -0.3649  1.8117 -3.0397
  461MOL0     H62204   4.386   9.674   2.681 -2.3212 -1.4064 -0.8692
  461MOL0     H62205   4.540   9.597   2.941 -0.5692 -0.5517  0.3908
  461MOL0     H62206   4.419   9.727   2.936 -0.7530 -0.4595 -1.1222
  461MOL0     H62207   4.636   9.732   2.741 -1.9134 -1.8478 -1.1033
  461MOL0     H62208   4.563   9.867   2.820 -0.0954 -0.5114  0.4177
  461MOL0     H62209   4.763   9.666   2.925  0.0659  0.8059 -3.1272
  461MOL0     H62210   4.698   9.808   3.034 -2.4715 -0.0332 -0.0873
  461MOL0     H62211   4.864   9.846   2.790 -0.8181  0.1415 -0.0541
  461MOL0     H62212   4.799   9.967   2.902 -1.5253 -0.1422  0.6168
  461MOL0     H62213   4.984   9.747   2.989  0.2703  0.2053 -0.6244
  461MOL0     H62214   4.929   9.891   3.087 -2.6823  3.0500 -1.5527
  461MOL0     H62215   5.152   9.928   3.010  1.5907 -0.1701 -1.6841
  461MOL0     H62216   5.038  10.044   2.943  4.2704  1.8273  0.4894
  461MOL0     H62217   3.951   9.703   2.857 -2.1446  0.3898 -3.3172
  461MOL0     H62218   3.732   9.589   2.883 -1.2117 -2.5853 -1.8739
  461MOL0     H62219   3.579   9.164   3.028  1.1294 -1.1501 -1.9339
  461MOL0     H62220   3.393   9.035   3.120  0.1447  1.5192  1.3254
  461MOL0     H62221   4.608   8.442   2.631 -1.7495  0.6522  0.9007
  461MOL0     H62222   4.854   8.535   2.634  1.1521  2.6222 -1.3682
  461MOL0     H62223   5.157   8.768   3.099 -0.7582  1.4516  0.1676
  461MOL0     H62224   5.358   8.893   3.109 -1.6602  0.9446  0.8411
  461MOL0     H62225   5.565   9.038   3.060 -0.7950 -2.8235  1.6445
  461MOL0     H62226   5.563   8.859   3.032  1.9103 -0.4410 -0.3029
  461MOL0     H62227   5.739   9.045   2.885  0.5290 -0.4213  0.5813
  461MOL0     H62228   5.743   8.872   2.887  3.0559  0.3452 -0.3341
  461MOL0     H62229   5.917   8.918   3.026 -0.5038 -1.1177  0.2529
  461MOL0     H62230   5.788   8.904   3.142 -2.7132  0.0086 -0.8872
  461MOL0     H62231   5.773   9.160   3.152 -1.7965 -1.1397 -3.3910
  461MOL0     H62232   5.881   9.174   3.007  0.8338 -0.7654 -0.7432
  461MOL0     H62233   6.168   9.131   3.310 -1.4356 -0.5331  1.5148
  461MOL0     H62234   5.359   8.937   2.676  1.2844 -1.6949 -0.2294
  461MOL0     H62235   5.124   8.824   2.672 -0.8370  1.0775  0.5353
  462MOL0     O62236   5.113   9.533   7.795 -1.0976 -0.2949 -0.6870
  462MOL0     C62237   5.141   9.639   7.842 -0.4138 -0.8199  0.6253
  462MOL0     O62238   5.071   9.754   7.815 -0.4583 -0.4473 -0.6030
  462MOL0     C62239   4.951   9.758   7.749 -0.4552  0.0491 -0.3856
  462MOL0     C62240   4.858   9.649   7.726  0.7167 -1.2170 -0.2373
  462MOL0     C62241   4.731   9.680   7.672  0.5159 -0.9081 -0.1396
  462MOL0     C62242   4.704   9.806   7.628 -0.3770 -0.7913 -0.1291
  462MOL0     O62243   4.589   9.832   7.569  0.0938 -0.0213 -0.0493
  462MOL0     C62244   4.476   9.805   7.645  0.7671  0.8103 -0.5625
  462MOL0     C62245   4.355   9.843   7.557  1.2971  0.3123 -0.2275
  462MOL0     C62246   4.220   9.779   7.621  0.7985 -0.3429  0.4492
  462MOL0     C62247   4.098   9.776   7.522  0.3651  1.0855 -1.0354
  462MOL0     C62248   3.973   9.701   7.573 -0.0643  0.4035 -0.0560
  462MOL0     C62249   3.868   9.666   7.464  0.8839  0.8293  0.0939
  462MOL0     C62250   3.741   9.611   7.523 -0.2438 -0.0563 -0.2405
  462MOL0     C62251   3.618   9.671   7.455  0.4289 -0.8265  0.7498
  462MOL0     N62252   3.497   9.586   7.476  0.0573 -0.3424 -0.7034
  462MOL0     C62253   3.397   9.626   7.564  0.1907  0.5595  0.5437
  462MOL0     C62254   3.314   9.520   7.556  0.5480 -0.1032  0.1084
  462MOL0     C62255   3.184   9.515   7.631 -0.7935  0.0278 -0.2125
  462MOL0     C62256   3.186   9.547   7.781  0.5264  0.4402  0.0298
  462MOL0     C62257   3.241   9.429   7.863  0.2652  1.0543 -0.0657
  462MOL0     C62258   3.385   9.458   7.914 -0.2710 -0.2795  0.1624
  462MOL0     O62259   3.395   9.599   7.962 -0.2025 -0.1683  0.9301
  462MOL0     C62260   3.517   9.643   8.004  0.0122  0.0987 -0.2064
  462MOL0     C62261   3.603   9.572   8.099  0.4325  0.9667  0.6379
  462MOL0     C62262   3.724   9.622   8.139 -0.4705  0.7011 -1.3974
  462MOL0     C62263   3.795   9.545   8.254  0.1014  0.4018 -0.1477
  462MOL0     C62264   3.782   9.738   8.075  0.4190  0.4510 -1.0306
  462MOL0     C62265   3.918   9.790   8.105  0.4258  0.1000 -0.0259
  462MOL0     O62266   3.967   9.877   8.008 -0.4458  0.2331  0.6433
  462MOL0     C62267   4.096   9.906   8.009  0.3180  0.1735 -0.6769
  462MOL0     C62268   4.142  10.036   7.979  0.1525 -0.1115 -0.1016
  462MOL0     C62269   4.272  10.062   7.976  0.2853 -1.2621  0.1477
  462MOL0     C62270   4.376   9.971   8.003  0.9366  0.4490 -0.1034
  462MOL0     O62271   4.504  10.009   7.997  0.4977 -0.5099 -0.1772
  462MOL0     C62272   4.587   9.935   8.077 -0.7225  0.8717 -1.3259
  462MOL0     C62273   4.650   9.802   8.021 -0.7079  0.9455 -0.0909
  462MOL0     C62274   4.723   9.732   8.144  1.5340  0.0863  0.3833
  462MOL0     C62275   4.849   9.803   8.181 -0.9170 -0.2261 -0.3526
  462MOL0     C62276   4.899   9.771   8.319 -0.5542 -0.0430 -0.1187
  462MOL0     C62277   4.983   9.648   8.316  1.0161  0.2056  0.0264
  462MOL0     C62278   5.054   9.625   8.449  0.4831  0.3476  0.1443
  462MOL0     C62279   5.204   9.611   8.426 -0.7403 -0.5965  0.2146
  462MOL0    Cl62280   5.315   9.598   8.561  0.2165  0.1593 -0.3091
  462MOL0     C62281   4.324   9.841   8.040 -0.3219 -1.3036 -0.0050
  462MOL0     C62282   4.190   9.811   8.040  0.5986 -0.4318 -0.6063
  462MOL0     O62283   3.969   9.762   8.211  0.0613 -0.7257  0.0803
  462MOL0     C62284   3.702   9.805   7.982 -0.0650 -0.6512 -0.1385
  462MOL0     C62285   3.572   9.765   7.950  0.4154  0.2025  0.1663
  462MOL0     N62286   3.362   9.424   7.477 -0.4059  0.2762 -0.0735
  462MOL0     N62287   3.473   9.466   7.419 -0.3826 -0.5249  0.0809
  462MOL0     C62288   4.802   9.908   7.631 -0.4772  0.3896 -0.6308
  462MOL0     C62289   4.927   9.884   7.693  0.4948 -0.1706 -0.2236
  462MOL0     C62290   5.258   9.647   7.936 -0.2508 -0.2158 -0.1858
  462MOL0     C62291   5.327   9.529   7.972  0.7112  0.0741 -0.3399
  462MOL0     C62292   5.444   9.551   8.058 -0.4548 -0.4526 -0.2372
  462MOL0     C62293   5.470   9.673   8.112  0.3045  0.7550 -0.0686
  462MOL0     O62294   5.582   9.705   8.189 -0.4792  0.4009 -0.7550
  462MOL0     C62295   5.559   9.715   8.324  0.0711 -0.0575 -0.4655
  462MOL0     C62296   5.662   9.789   8.415  0.2456  0.1845  0.2798
  462MOL0     C62297   5.806   9.742   8.399  0.0998  0.1514 -0.7560
  462MOL0     C62298   5.902   9.851   8.458  0.0115  0.6838  0.4367
  462MOL0     C62299   5.865   9.899   8.591 -0.2441  0.3175 -0.8946
  462MOL0     C62300   5.832   9.917   8.709  0.2771  0.0480  0.2420
  462MOL0     C62301   5.388   9.778   8.083  0.2312  0.0085  0.1750
  462MOL0     C62302   5.289   9.769   7.997 -0.3551  0.3379  0.5418
  462MOL0     H62303   4.886   9.549   7.756  2.4913  0.0674  2.9658
  462MOL0     H62304   4.659   9.600   7.657  0.6329 -0.7657 -1.5943
  462MOL0     H62305   4.464   9.701   7.679 -1.6967  1.1272 -0.2912
  462MOL0     H62306   4.476   9.855   7.742  0.5277 -2.3902  1.2177
  462MOL0     H62307   4.348   9.951   7.540  0.7826  0.0748 -1.7542
  462MOL0     H62308   4.364   9.796   7.458 -1.9205 -1.1236  0.0348
  462MOL0     H62309   4.238   9.679   7.662  0.8040 -0.8623 -0.7695
  462MOL0     H62310   4.180   9.838   7.703 -0.2837 -2.5337  1.5901
  462MOL0     H62311   4.057   9.873   7.492 -1.0644  0.9086  0.2330
  462MOL0     H62312   4.121   9.718   7.432 -1.6569 -2.1277  0.3114
  462MOL0     H62313   4.010   9.604   7.608 -2.3926 -0.0666  1.3235
  462MOL0     H62314   3.925   9.756   7.655  0.7415  0.4219  0.4145
  462MOL0     H62315   3.856   9.759   7.408  0.9578  0.1194 -1.1249
  462MOL0     H62316   3.909   9.589   7.399  0.9467 -0.9436  2.1065
  462MOL0     H62317   3.755   9.503   7.511 -0.8136  0.0506 -2.4197
  462MOL0     H62318   3.727   9.633   7.629  0.2369  2.0376 -0.5808
  462MOL0     H62319   3.644   9.669   7.349  1.3607 -1.0769  0.9784
  462MOL0     H62320   3.610   9.777   7.482  5.2652 -0.4172  1.4231
  462MOL0     H62321   3.386   9.723   7.610  2.0600  1.2703 -0.4013
  462MOL0     H62322   3.119   9.597   7.600  0.8623  1.5795  0.1842
  462MOL0     H62323   3.145   9.415   7.613 -1.3571  0.4203 -1.2556
  462MOL0     H62324   3.086   9.567   7.820 -0.7410  0.0983 -2.8018
  462MOL0     H62325   3.235   9.643   7.796 -1.3174  1.7755 -1.8805
  462MOL0     H62326   3.249   9.344   7.794 -2.2458  1.9254 -1.5280
  462MOL0     H62327   3.164   9.403   7.936  0.8067  2.1843  0.9354
  462MOL0     H62328   3.450   9.449   7.827 -1.5413 -0.0565 -0.8412
  462MOL0     H62329   3.418   9.393   7.995  0.9754  1.8436  1.4439
  462MOL0     H62330   3.580   9.475   8.142  1.2034  0.6827  0.4435
  462MOL0     H62331   3.737   9.462   8.295 -0.1521 -0.3387 -1.9275
  462MOL0     H62332   3.884   9.496   8.213 -1.0909 -0.3129 -1.9966
  462MOL0     H62333   3.820   9.608   8.340  0.3713  1.7546 -1.1772
  462MOL0     H62334   4.070  10.117   7.969 -0.5299 -0.4411  1.6855
  462MOL0     H62335   4.289  10.166   7.950 -3.6099 -0.4912  0.1873
  462MOL0     H62336   4.673  10.003   8.079  2.3180 -2.6269 -0.2179
  462MOL0     H62337   4.552   9.919   8.180 -1.1891  0.0430 -1.6096
  462MOL0     H62338   4.580   9.734   7.972  0.4233 -1.7689  1.8151
  462MOL0     H62339   4.709   9.828   7.933  0.2184  0.4912  0.3856
  462MOL0     H62340   4.755   9.630   8.122  3.3693  0.5139  0.8426
  462MOL0     H62341   4.654   9.735   8.229 -2.6214  0.3132 -2.6848
  462MOL0     H62342   4.931   9.784   8.111  0.4350 -2.0115  1.6081
  462MOL0     H62343   4.834   9.911   8.180 -4.3516 -0.4654  3.3495
  462MOL0     H62344   4.821   9.765   8.396 -1.0107  0.9978 -0.4842
  462MOL0     H62345   4.959   9.858   8.347 -0.1747 -0.9175  2.0294
  462MOL0     H62346   4.906   9.572   8.300  2.0945 -0.8209 -0.4062
  462MOL0     H62347   5.052   9.650   8.231 -1.2153  5.7583 -2.1553
  462MOL0     H62348   5.012   9.533   8.491  1.2998 -0.4745 -0.7827
  462MOL0     H62349   5.033   9.706   8.519 -0.1153 -0.1840  0.5935
  462MOL0     H62350   5.247   9.695   8.371  0.0485 -0.7459  0.5958
  462MOL0     H62351   5.218   9.519   8.368  0.3610 -0.2744 -0.0499
  462MOL0     H62352   4.390   9.759   8.066  1.8178 -0.4362 -2.2513
  462MOL0     H62353   4.164   9.708   8.066  0.4860 -0.3244 -0.2851
  462MOL0     H62354   3.730   9.894   7.927  4.6816 -0.1978  2.5262
  462MOL0     H62355   3.513   9.820   7.877  0.9080 -0.7976 -1.0124
  462MOL0     H62356   4.780  10.008   7.597 -1.5975 -0.1233 -1.4959
  462MOL0     H62357   5.005   9.960   7.692  1.7737 -1.4008  0.6437
  462MOL0     H62358   5.297   9.432   7.934  0.6470  0.1860 -0.5763
  462MOL0     H62359   5.508   9.471   8.095 -1.8757 -1.0434  1.0594
  462MOL0     H62360   5.467   9.774   8.335 -0.5181 -0.7298 -1.5713
  462MOL0     H62361   5.530   9.618   8.365 -0.6414 -0.1895 -1.2378
  462MOL0     H62362   5.620   9.766   8.513 -2.6413  0.8075 -0.6965
  462MOL0     H62363   5.652   9.895   8.390 -2.5922 -0.4762 -1.9782
  462MOL0     H62364   5.819   9.740   8.290 -0.4336 -0.8268 -0.8092
  462MOL0     H62365   5.816   9.645   8.449 -0.3382  0.8150  0.6787
  462MOL0     H62366   5.903   9.931   8.384 -1.5890  1.5433  1.2833
  462MOL0     H62367   6.001   9.806   8.468 -0.1234 -0.0722 -1.2836
  462MOL0     H62368   5.801   9.938   8.810 -1.7408 -0.2279 -0.2731
  462MOL0     H62369   5.407   9.877   8.124 -0.2563  0.5680 -0.9135
  462MOL0     H62370   5.227   9.857   7.979  0.8102  0.5439 -3.4889
  463MOL0     O62371   0.507   5.004   0.832 -0.1176 -0.2538 -0.1310
  463MOL0     C62372   0.535   5.063   0.942 -0.2347 -0.2100  0.0274
  463MOL0     O62373   0.438   5.091   1.038 -0.0180 -0.1933  0.2934
  463MOL0     C62374   0.306   5.041   1.013  0.2386  0.0779  0.4007
  463MOL0     C62375   0.275   4.904   1.017 -0.4141  0.0344  0.1581
  463MOL0     C62376   0.138   4.872   1.013  0.1763  0.2529 -0.9499
  463MOL0     C62377   0.029   4.966   1.002  0.1190 -0.2152 -0.0332
  463MOL0     O62378  -0.097   4.925   0.985 -0.0137  0.2032  0.5668
  463MOL0     C62379  -0.202   5.021   0.995  0.4565  0.2295  0.3372
  463MOL0     C62380  -0.335   4.945   0.995  0.4409 -0.3394  0.7549
  463MOL0     C62381  -0.432   5.060   1.025 -0.2056  0.4358  0.5712
  463MOL0     C62382  -0.428   5.120   1.168  0.5694  0.9843  0.4830
  463MOL0     C62383  -0.570   5.172   1.199 -0.3920 -0.3689 -0.5731
  463MOL0     C62384  -0.657   5.066   1.279  0.3617  0.7133  0.9215
  463MOL0     C62385  -0.803   5.112   1.275  0.3906  0.1287  0.0464
  463MOL0     C62386  -0.861   5.099   1.132  0.6856  0.2492  0.3371
  463MOL0     N62387  -1.007   5.135   1.133  0.1415  1.0503  0.6460
  463MOL0     C62388  -1.120   5.056   1.157 -0.1085 -0.0812  0.4472
  463MOL0     C62389  -1.218   5.140   1.129  0.7100  0.3976 -0.2640
  463MOL0     C62390  -1.359   5.101   1.096  0.1138 -1.2709 -0.5090
  463MOL0     C62391  -1.455   5.141   1.206 -0.6435 -0.1773 -0.6466
  463MOL0     C62392  -1.598   5.140   1.155  0.5668 -0.1081 -0.3864
  463MOL0     C62393  -1.695   5.164   1.275 -0.2678 -0.1351 -0.2406
  463MOL0     O62394  -1.727   5.049   1.356 -0.1664 -0.1098 -0.5319
  463MOL0     C62395  -1.853   4.989   1.338 -0.4028 -0.4918 -0.2940
  463MOL0     C62396  -1.931   4.966   1.452 -0.5603  0.6354 -0.2221
  463MOL0     C62397  -2.062   4.912   1.453 -0.0552  0.1550  0.7027
  463MOL0     C62398  -2.117   4.876   1.589 -0.6351 -0.1437 -0.2311
  463MOL0     C62399  -2.124   4.877   1.327  0.0209  0.0574  1.0725
  463MOL0     C62400  -2.250   4.807   1.320 -0.5136  0.3588  0.4457
  463MOL0     O62401  -2.241   4.685   1.269 -0.0838 -0.0451  0.2336
  463MOL0     C62402  -2.356   4.618   1.227 -0.4457 -0.3423  0.0623
  463MOL0     C62403  -2.357   4.560   1.102  1.0116 -0.3874 -0.4828
  463MOL0     C62404  -2.468   4.499   1.051 -0.5562  0.2908  0.7134
  463MOL0     C62405  -2.582   4.475   1.128  1.2079 -0.0610 -0.5720
  463MOL0     O62406  -2.700   4.418   1.086  0.4159 -0.4017  0.8290
  463MOL0     C62407  -2.677   4.324   0.974 -0.0385 -0.2474  0.1823
  463MOL0     C62408  -2.798   4.233   0.957 -0.1453  0.2836 -0.4382
  463MOL0     C62409  -2.768   4.127   0.849  0.0727  0.8718 -0.3140
  463MOL0     C62410  -2.881   4.129   0.748 -0.6186 -0.1242  0.0719
  463MOL0     C62411  -2.865   4.022   0.639  0.4363 -0.1239  0.1110
  463MOL0     C62412  -2.985   4.023   0.537  0.0991  0.4274 -0.1793
  463MOL0     C62413  -2.957   3.899   0.448  0.4998  0.0024  0.1872
  463MOL0     C62414  -3.052   3.888   0.332  0.0831  0.2823 -0.2272
  463MOL0    Cl62415  -3.207   3.820   0.380  0.0466 -0.3535  0.5651
  463MOL0     C62416  -2.578   4.513   1.263  0.3047 -0.7655 -1.1120
  463MOL0     C62417  -2.469   4.595   1.309  0.4885 -0.0825  0.3096
  463MOL0     O62418  -2.350   4.863   1.340  0.3431 -0.2643  0.0233
  463MOL0     C62419  -2.045   4.904   1.203  0.2603  0.6643 -0.4238
  463MOL0     C62420  -1.916   4.958   1.212 -0.2966 -0.1393  0.6112
  463MOL0     N62421  -1.162   5.265   1.086  0.0466 -0.2141  0.1448
  463MOL0     N62422  -1.034   5.254   1.090 -0.7718  0.1016 -0.4232
  463MOL0     C62423   0.064   5.100   1.010 -0.0269 -0.3456 -0.2644
  463MOL0     C62424   0.203   5.138   1.012  0.3296  1.0641 -0.6105
  463MOL0     C62425   0.675   5.064   0.983 -0.6845  1.1259  0.8608
  463MOL0     C62426   0.776   5.041   0.892  0.0406  0.0553 -0.2218
  463MOL0     C62427   0.912   5.041   0.928  0.1838  0.0229  0.4842
  463MOL0     C62428   0.952   5.084   1.058  0.4491  1.0633  0.1829
  463MOL0     O62429   1.076   5.123   1.090 -0.3264 -0.3623 -0.9199
  463MOL0     C62430   1.162   5.160   0.980 -0.5627  0.3827  0.2308
  463MOL0     C62431   1.293   5.217   1.023  0.5383  0.8206  0.0305
  463MOL0     C62432   1.371   5.135   1.137 -0.3844  0.0075  0.0324
  463MOL0     C62433   1.514   5.178   1.177 -0.7335 -0.2325  0.1598
  463MOL0     C62434   1.533   5.293   1.266  0.4177  0.9737 -0.5095
  463MOL0     C62435   1.549   5.385   1.345 -0.1356  0.3191 -0.2131
  463MOL0     C62436   0.849   5.111   1.151  0.3024  0.1685 -0.9713
  463MOL0     C62437   0.715   5.105   1.116  0.5437 -0.3785  0.2681
  463MOL0     H62438   0.354   4.833   1.037 -0.3371 -0.2104 -0.9716
  463MOL0     H62439   0.097   4.772   1.010 -0.2594  0.4284 -0.8419
  463MOL0     H62440  -0.188   5.067   1.093 -1.9212 -1.1755  1.4333
  463MOL0     H62441  -0.209   5.097   0.917 -0.9467  0.5863  0.7776
  463MOL0     H62442  -0.343   4.903   0.895  1.9649  2.0357 -0.4480
  463MOL0     H62443  -0.336   4.863   1.067 -2.2298 -1.8013 -0.7710
  463MOL0     H62444  -0.413   5.138   0.952  2.4029  0.8239  1.5435
  463MOL0     H62445  -0.534   5.023   1.010 -0.3082  0.1999  1.7222
  463MOL0     H62446  -0.398   5.046   1.242  0.9521  0.7950  0.1435
  463MOL0     H62447  -0.351   5.197   1.166  1.5600  0.0276 -1.6105
  463MOL0     H62448  -0.558   5.259   1.265  0.0291 -1.1021  0.3446
  463MOL0     H62449  -0.622   5.207   1.110  0.4349  1.2591 -0.4637
  463MOL0     H62450  -0.656   4.965   1.238 -2.0327  1.6663 -1.7904
  463MOL0     H62451  -0.618   5.041   1.378  0.5940 -3.6308 -0.0729
  463MOL0     H62452  -0.851   5.053   1.354 -0.7835 -0.4019 -1.0200
  463MOL0     H62453  -0.809   5.214   1.313  1.3399  0.6534 -1.1252
  463MOL0     H62454  -0.844   4.993   1.112 -1.1767 -0.2643  1.2867
  463MOL0     H62455  -0.813   5.158   1.053 -0.0396 -0.2462 -0.4931
  463MOL0     H62456  -1.132   4.950   1.177  1.8339 -0.2009  1.1822
  463MOL0     H62457  -1.402   5.146   1.006 -3.2814 -1.8100  0.6977
  463MOL0     H62458  -1.367   4.993   1.080  0.3939 -1.6431  1.5841
  463MOL0     H62459  -1.444   5.245   1.238  0.1116  0.2816 -2.3175
  463MOL0     H62460  -1.448   5.063   1.282 -2.1403  0.9088  0.6930
  463MOL0     H62461  -1.613   5.046   1.099  3.9418  1.0135 -3.5821
  463MOL0     H62462  -1.612   5.219   1.081 -1.4843 -0.8834 -0.9132
  463MOL0     H62463  -1.784   5.210   1.231 -1.0580  0.6150  1.9793
  463MOL0     H62464  -1.658   5.242   1.342  2.8274 -1.6872 -0.0002
  463MOL0     H62465  -1.887   4.990   1.548 -1.1018  1.5316 -0.1858
  463MOL0     H62466  -2.219   4.913   1.606 -0.3727  1.4220 -1.7354
  463MOL0     H62467  -2.111   4.767   1.584 -0.5813 -0.1147 -0.8963
  463MOL0     H62468  -2.046   4.902   1.668 -1.6318 -1.0773  1.0012
  463MOL0     H62469  -2.279   4.576   1.029  0.4924 -0.5455 -1.0853
  463MOL0     H62470  -2.469   4.479   0.944 -1.9966  1.3860  0.5047
  463MOL0     H62471  -2.664   4.391   0.889  2.6593 -0.2083  0.5383
  463MOL0     H62472  -2.588   4.261   0.981 -0.7232 -1.3308 -0.6679
  463MOL0     H62473  -2.816   4.182   1.053  1.5500 -0.1384 -0.3006
  463MOL0     H62474  -2.891   4.282   0.930  0.6892  2.0515 -0.1989
  463MOL0     H62475  -2.754   4.024   0.883  1.3971  0.4686 -2.0120
  463MOL0     H62476  -2.682   4.144   0.784  1.2759 -2.9014  0.0736
  463MOL0     H62477  -2.975   4.109   0.800 -0.4740 -0.3693  0.2424
  463MOL0     H62478  -2.888   4.231   0.711 -0.1180  0.0533  0.4479
  463MOL0     H62479  -2.837   3.922   0.673  0.9761 -0.1468 -0.3706
  463MOL0     H62480  -2.778   4.057   0.581  2.0922 -3.1302  0.5886
  463MOL0     H62481  -3.075   4.022   0.599  1.6065  0.7063  2.1640
  463MOL0     H62482  -2.976   4.121   0.488 -2.2035  1.1811  0.7367
  463MOL0     H62483  -2.955   3.807   0.507  0.4820 -0.7510 -0.9548
  463MOL0     H62484  -2.858   3.905   0.403  0.4801 -0.1595  0.1224
  463MOL0     H62485  -2.997   3.829   0.258  4.7057  4.9870 -1.1594
  463MOL0     H62486  -3.057   3.988   0.288  1.6159  0.8533  0.8162
  463MOL0     H62487  -2.668   4.507   1.323  0.9863  0.5902  0.1176
  463MOL0     H62488  -2.473   4.633   1.410 -2.2067 -1.7036  0.9229
  463MOL0     H62489  -2.096   4.883   1.109 -0.1044  0.2684 -0.1429
  463MOL0     H62490  -1.858   4.983   1.124  1.1236  2.9406  2.2557
  463MOL0     H62491  -0.005   5.183   1.017  0.8196  0.4115 -0.6636
  463MOL0     H62492   0.218   5.243   0.990 -0.6937  0.8265 -2.6976
  463MOL0     H62493   0.749   5.014   0.790 -2.4684 -1.1109  0.6590
  463MOL0     H62494   0.987   5.005   0.858 -0.3578 -0.5611  0.1973
  463MOL0     H62495   1.180   5.076   0.913  0.9751  1.0057 -0.1820
  463MOL0     H62496   1.120   5.245   0.926 -0.0843 -0.9829 -2.4130
  463MOL0     H62497   1.282   5.318   1.066 -1.4620  0.9354 -0.6477
  463MOL0     H62498   1.369   5.228   0.945  1.0959 -0.3675  0.3862
  463MOL0     H62499   1.375   5.034   1.096  0.7410 -0.9724  2.3617
  463MOL0     H62500   1.303   5.128   1.223 -0.3599 -0.2165  0.0350
  463MOL0     H62501   1.569   5.206   1.087  2.1605 -0.4551  1.7627
  463MOL0     H62502   1.566   5.092   1.220 -2.7149 -1.3357  0.5061
  463MOL0     H62503   1.556   5.474   1.403  0.6690  0.2016 -0.1280
  463MOL0     H62504   0.878   5.159   1.244  0.2708 -1.4688 -0.0807
  463MOL0     H62505   0.639   5.128   1.191  2.2049 -2.8586  2.9124
  464MOL0     O62506   7.685   5.192   2.984  0.1333  0.2494 -0.2218
  464MOL0     C62507   7.791   5.233   3.036  0.1930 -0.4721 -0.0736
  464MOL0     O62508   7.799   5.343   3.116  0.1161 -0.3676  0.0754
  464MOL0     C62509   7.693   5.429   3.132 -0.1422 -0.2089  0.2414
  464MOL0     C62510   7.717   5.565   3.106  0.0047 -1.0757  0.0932
  464MOL0     C62511   7.614   5.657   3.114  0.8089  0.4901 -0.4093
  464MOL0     C62512   7.480   5.620   3.153 -0.4252  0.3522  0.2780
  464MOL0     O62513   7.365   5.703   3.169  0.1013 -0.3226  0.7523
  464MOL0     C62514   7.392   5.835   3.235 -0.6576 -0.5728  0.5549
  464MOL0     C62515   7.278   5.878   3.320 -0.1273  0.3677  0.1977
  464MOL0     C62516   7.139   5.884   3.256  0.4266  0.3601 -0.1792
  464MOL0     C62517   7.128   6.003   3.151  0.1439  0.0025  0.6634
  464MOL0     C62518   7.139   6.149   3.196 -0.4497 -0.3785 -0.6140
  464MOL0     C62519   7.130   6.245   3.068  0.1422  0.8835 -0.3987
  464MOL0     C62520   7.161   6.384   3.114  0.0246 -0.3084 -0.4818
  464MOL0     C62521   7.168   6.471   2.986 -0.1403 -0.2702  0.0995
  464MOL0     N62522   7.226   6.601   3.030  0.5556 -0.7897 -0.2270
  464MOL0     C62523   7.353   6.633   3.025 -0.3081 -0.1307  0.0511
  464MOL0     C62524   7.367   6.738   3.104 -0.6759 -0.5204 -0.5287
  464MOL0     C62525   7.498   6.814   3.137  0.9247  0.9356  1.5401
  464MOL0     C62526   7.579   6.730   3.237  0.6099  0.3540 -0.3927
  464MOL0     C62527   7.704   6.803   3.306  0.4650 -0.6227 -0.5431
  464MOL0     C62528   7.805   6.718   3.385 -0.9174 -0.6005  0.6482
  464MOL0     O62529   7.850   6.613   3.296  0.4022 -0.5785  0.2718
  464MOL0     C62530   7.984   6.616   3.273  0.7181 -0.4093  0.0294
  464MOL0     C62531   8.071   6.528   3.343 -0.1874 -0.5378 -1.0083
  464MOL0     C62532   8.201   6.536   3.337 -0.3018 -0.7118  0.9237
  464MOL0     C62533   8.286   6.434   3.410 -0.2598 -0.3964 -0.4214
  464MOL0     C62534   8.264   6.635   3.251 -0.5875  0.2924  0.1987
  464MOL0     C62535   8.417   6.633   3.220 -0.2016 -0.2712  1.0703
  464MOL0     O62536   8.470   6.524   3.161 -0.2625 -0.8216 -0.5461
  464MOL0     C62537   8.603   6.531   3.133  0.2245  0.5488 -0.4142
  464MOL0     C62538   8.696   6.527   3.243  0.4306 -0.1717 -0.1996
  464MOL0     C62539   8.832   6.524   3.216 -0.5991  0.2770  0.1685
  464MOL0     C62540   8.882   6.530   3.087  0.2387 -0.1248 -0.6339
  464MOL0     O62541   9.007   6.490   3.070  0.2348 -0.1469  0.1789
  464MOL0     C62542   9.086   6.552   2.964 -0.0194  0.3705  0.1070
  464MOL0     C62543   9.219   6.559   3.029  0.2251 -0.2806  0.9360
  464MOL0     C62544   9.291   6.692   2.997 -0.7424 -0.7246 -0.6080
  464MOL0     C62545   9.334   6.700   2.847  0.8093 -0.2439  0.3430
  464MOL0     C62546   9.403   6.838   2.829 -0.0301  0.3392  0.0280
  464MOL0     C62547   9.446   6.859   2.684  0.3873  0.4216  0.2514
  464MOL0     C62548   9.523   6.731   2.619 -0.0752 -0.0525 -0.9528
  464MOL0     C62549   9.561   6.771   2.478  0.6147 -0.1868 -0.7819
  464MOL0    Cl62550   9.406   6.768   2.385 -0.4322  0.2394 -0.4824
  464MOL0     C62551   8.794   6.526   2.982  0.2094 -0.6301 -0.6552
  464MOL0     C62552   8.655   6.535   3.008  0.3031  0.2266  1.2159
  464MOL0     O62553   8.478   6.735   3.250  0.1027  0.3765 -0.6255
  464MOL0     C62554   8.183   6.725   3.184 -0.3568  0.0850 -0.3887
  464MOL0     C62555   8.044   6.718   3.194  0.4707 -0.1483  0.5775
  464MOL0     N62556   7.248   6.779   3.151  0.8527 -0.2564 -0.8019
  464MOL0     N62557   7.161   6.700   3.099 -0.8590  0.7800 -0.6349
  464MOL0     C62558   7.459   5.482   3.169 -0.1482  0.3089  1.4289
  464MOL0     C62559   7.564   5.387   3.160 -0.2482 -0.3471  0.1387
  464MOL0     C62560   7.910   5.151   3.015 -1.1294 -0.1854  0.3124
  464MOL0     C62561   7.920   5.036   2.938 -0.5105  0.1473 -0.6874
  464MOL0     C62562   8.033   4.953   2.931 -0.0456 -0.4466 -0.1021
  464MOL0     C62563   8.143   4.985   3.005  0.9924  0.1882  0.0559
  464MOL0     O62564   8.249   4.909   2.982 -0.0462  0.5929 -0.4676
  464MOL0     C62565   8.378   4.955   3.026 -0.4924 -0.4970 -0.3721
  464MOL0     C62566   8.494   4.875   2.949  0.1210 -0.4920 -0.3616
  464MOL0     C62567   8.629   4.945   2.971 -0.1295 -0.3397 -0.1152
  464MOL0     C62568   8.733   4.890   2.878 -0.2769 -0.0427 -0.2266
  464MOL0     C62569   8.864   4.931   2.924  0.6672  0.2129 -0.1259
  464MOL0     C62570   8.979   4.963   2.958  0.3010  0.6799  0.1317
  464MOL0     C62571   8.126   5.085   3.107  0.7985 -0.3241  0.3302
  464MOL0     C62572   8.022   5.175   3.106 -0.5375 -0.0398  0.4965
  464MOL0     H62573   7.810   5.612   3.074 -0.2063 -0.2732  0.6116
  464MOL0     H62574   7.627   5.763   3.095  0.2532  0.8112  0.8642
  464MOL0     H62575   7.479   5.846   3.300  0.3436  3.2441 -1.1552
  464MOL0     H62576   7.414   5.915   3.164 -1.1363  1.0468  2.1490
  464MOL0     H62577   7.266   5.803   3.399 -1.4703 -0.6215 -0.8878
  464MOL0     H62578   7.298   5.974   3.368  2.5943 -0.4205  0.8120
  464MOL0     H62579   7.122   5.786   3.210  0.4475 -0.8505  2.2105
  464MOL0     H62580   7.072   5.901   3.341  2.5112 -3.0510  2.4278
  464MOL0     H62581   7.196   5.980   3.068  2.8819 -1.7643  3.2028
  464MOL0     H62582   7.025   6.002   3.115  0.5079 -2.4820 -0.5178
  464MOL0     H62583   7.069   6.176   3.275  1.2976  1.0920  0.5267
  464MOL0     H62584   7.236   6.165   3.245  0.7831  0.6544 -3.2282
  464MOL0     H62585   7.201   6.207   2.994 -1.0430  0.5414 -1.4124
  464MOL0     H62586   7.028   6.233   3.030 -0.4049  1.1151  0.9294
  464MOL0     H62587   7.079   6.417   3.178  1.8126  0.2357  1.6670
  464MOL0     H62588   7.253   6.385   3.173 -1.1539 -1.1274  1.4806
  464MOL0     H62589   7.069   6.492   2.943 -0.5826  2.3212  2.1245
  464MOL0     H62590   7.223   6.420   2.906  0.2637 -2.4960  1.6902
  464MOL0     H62591   7.417   6.569   2.966 -1.7880  0.2510 -2.0692
  464MOL0     H62592   7.552   6.828   3.043  0.2828  2.2458  1.3481
  464MOL0     H62593   7.487   6.917   3.172  1.6970  1.5979 -0.0421
  464MOL0     H62594   7.610   6.634   3.193 -1.3514 -1.1502  1.3115
  464MOL0     H62595   7.511   6.700   3.317 -0.0658  1.8250 -0.3913
  464MOL0     H62596   7.669   6.879   3.377  3.2233 -0.5569  0.9007
  464MOL0     H62597   7.761   6.848   3.224  0.0410 -0.5410 -0.7975
  464MOL0     H62598   7.746   6.674   3.466 -1.8596 -3.0359 -1.2573
  464MOL0     H62599   7.888   6.779   3.424 -1.7540  0.4137  0.8728
  464MOL0     H62600   8.021   6.466   3.417  1.4725  1.3806  1.9179
  464MOL0     H62601   8.366   6.478   3.469 -2.3689  2.3056  0.6053
  464MOL0     H62602   8.214   6.390   3.480 -0.6018  0.0468 -0.4875
  464MOL0     H62603   8.319   6.360   3.336 -1.5701  0.8687 -2.3769
  464MOL0     H62604   8.662   6.525   3.346  0.8097 -1.1104 -0.0800
  464MOL0     H62605   8.911   6.522   3.290 -0.4491 -1.5142  0.0022
  464MOL0     H62606   9.096   6.482   2.881  2.2865 -2.2035  2.3453
  464MOL0     H62607   9.051   6.649   2.926 -1.9241 -0.6871 -0.9834
  464MOL0     H62608   9.200   6.564   3.136 -0.5182 -0.2541  0.8080
  464MOL0     H62609   9.283   6.474   3.005 -3.8911 -3.6102  0.6967
  464MOL0     H62610   9.380   6.698   3.060 -0.9944  1.3683 -0.3972
  464MOL0     H62611   9.224   6.770   3.034 -0.9998 -2.2778  2.5554
  464MOL0     H62612   9.404   6.619   2.828  1.0030  0.0447 -0.1946
  464MOL0     H62613   9.252   6.689   2.775  0.7541  1.1138  0.1723
  464MOL0     H62614   9.495   6.843   2.888  1.6364 -2.0601 -2.1669
  464MOL0     H62615   9.321   6.906   2.853 -0.8554 -0.6033 -0.0407
  464MOL0     H62616   9.352   6.878   2.631 -0.8286 -1.6322  1.5391
  464MOL0     H62617   9.508   6.948   2.672 -0.4269  1.2939  2.0427
  464MOL0     H62618   9.457   6.644   2.618 -1.1452  0.6844  0.7603
  464MOL0     H62619   9.609   6.700   2.679  0.0402  0.6079 -0.7695
  464MOL0     H62620   9.636   6.706   2.431  1.5821  0.4307 -0.1423
  464MOL0     H62621   9.600   6.873   2.480  1.4800 -0.4573 -2.3140
  464MOL0     H62622   8.839   6.520   2.883  3.5143 -0.4658  0.7230
  464MOL0     H62623   8.580   6.517   2.932  0.1503  0.4543  1.3089
  464MOL0     H62624   8.222   6.809   3.128  0.6323 -1.1783 -1.6864
  464MOL0     H62625   7.977   6.790   3.147  0.5320 -0.5490 -0.1441
  464MOL0     H62626   7.363   5.435   3.187  0.9388 -1.7778  2.2289
  464MOL0     H62627   7.532   5.286   3.182  0.5497 -0.5168  0.5597
  464MOL0     H62628   7.825   5.001   2.897 -1.4542 -1.2135  2.3857
  464MOL0     H62629   8.034   4.855   2.884 -2.4093 -0.2807 -0.6373
  464MOL0     H62630   8.390   5.062   3.006 -1.1907 -0.5611 -1.1748
  464MOL0     H62631   8.378   4.945   3.135  1.8548  1.2040 -0.1376
  464MOL0     H62632   8.488   4.891   2.841  4.7352 -1.7890 -1.0284
  464MOL0     H62633   8.495   4.768   2.972 -3.0909 -0.8090 -1.2348
  464MOL0     H62634   8.666   4.929   3.073 -3.4970 -4.5927  0.7359
  464MOL0     H62635   8.615   5.053   2.964 -3.2868 -0.6380  0.2839
  464MOL0     H62636   8.726   4.928   2.776 -0.1698  0.8822  0.1001
  464MOL0     H62637   8.721   4.782   2.868 -1.8703  0.3063 -3.5065
  464MOL0     H62638   9.082   4.986   2.975  0.0196  1.2700  1.1603
  464MOL0     H62639   8.188   5.100   3.194  0.6518  0.5676  0.2904
  464MOL0     H62640   8.015   5.242   3.192 -0.0682  0.4424  0.1654
  465MOL0     O62641   4.193  11.118   8.014  0.8538  0.1690  0.3056
  465MOL0     C62642   4.226  11.185   7.913 -0.1022 -0.7368 -0.7494
  465MOL0     O62643   4.150  11.282   7.849  0.2152 -0.0796  0.2455
  465MOL0     C62644   4.024  11.314   7.902 -0.3465 -0.0082  0.0479
  465MOL0     C62645   3.976  11.443   7.903  0.0330  0.1497 -0.4352
  465MOL0     C62646   3.846  11.478   7.952  0.0271 -0.3917 -0.6670
  465MOL0     C62647   3.761  11.388   8.005  0.8462  0.0783 -0.2184
  465MOL0     O62648   3.648  11.437   8.061 -0.0163 -0.1625  0.2400
  465MOL0     C62649   3.557  11.340   8.115 -0.8424 -1.4157  0.6543
  465MOL0     C62650   3.492  11.256   8.009  0.1174  0.0165 -0.3132
  465MOL0     C62651   3.393  11.148   8.072  0.6230 -0.0783 -0.3740
  465MOL0     C62652   3.296  11.090   7.965 -0.3045  0.5944 -0.4048
  465MOL0     C62653   3.186  11.015   8.027 -0.4347 -0.1454 -0.2042
  465MOL0     C62654   3.083  10.983   7.919 -0.2236 -1.7108 -0.2235
  465MOL0     C62655   2.972  10.898   7.990  0.0566 -0.2930 -0.3007
  465MOL0     C62656   2.858  10.991   8.046 -0.1132  0.2037 -0.6287
  465MOL0     N62657   2.734  10.924   8.070  0.0546  0.2758  0.7498
  465MOL0     C62658   2.621  10.947   7.998 -0.2681  0.4155  0.2172
  465MOL0     C62659   2.535  10.859   8.034  0.2236  1.2621 -0.7010
  465MOL0     C62660   2.395  10.834   7.971 -0.1089  0.1681 -0.0358
  465MOL0     C62661   2.309  10.962   7.966  0.3285  0.2060  0.2823
  465MOL0     C62662   2.283  11.035   8.103 -0.7174  0.0638  0.7393
  465MOL0     C62663   2.247  10.946   8.222  0.3521  0.2639 -0.5251
  465MOL0     O62664   2.137  10.848   8.200 -0.1202  0.3269 -0.1362
  465MOL0     C62665   2.011  10.895   8.218 -0.3886 -0.1295  0.1759
  465MOL0     C62666   1.982  11.022   8.268  0.9242  0.3962 -0.0627
  465MOL0     C62667   1.844  11.060   8.280  0.6887 -0.5370  0.3886
  465MOL0     C62668   1.797  11.201   8.318  0.6217  1.0584  0.0339
  465MOL0     C62669   1.740  10.968   8.248 -0.4407 -0.2337  0.4962
  465MOL0     C62670   1.592  10.980   8.259  0.7691  0.0479 -0.9830
  465MOL0     O62671   1.551  11.035   8.378  0.8002 -0.0515  0.6829
  465MOL0     C62672   1.416  11.036   8.394 -0.3522  0.4338  0.0563
  465MOL0     C62673   1.327  11.112   8.318  0.0697  0.6263  0.7634
  465MOL0     C62674   1.184  11.101   8.336 -0.2108  0.3234 -0.1877
  465MOL0     C62675   1.126  11.022   8.432 -0.3115  0.1569 -0.5679
  465MOL0     O62676   0.997  10.996   8.462  0.5537 -0.1730  1.2310
  465MOL0     C62677   0.902  11.025   8.355  0.4319 -0.3264  0.0264
  465MOL0     C62678   0.755  10.982   8.395  0.0144 -0.2700  1.0567
  465MOL0     C62679   0.727  10.850   8.335  0.2161 -0.2581 -0.2902
  465MOL0     C62680   0.808  10.736   8.396  0.6963 -0.1689  0.0265
  465MOL0     C62681   0.754  10.595   8.357 -0.6198  0.1934 -0.5578
  465MOL0     C62682   0.609  10.570   8.304 -0.4313 -0.8733  0.4587
  465MOL0     C62683   0.570  10.421   8.289 -0.5438  0.3275 -0.8073
  465MOL0     C62684   0.680  10.337   8.217  0.0786 -0.6337  0.3365
  465MOL0    Cl62685   0.612  10.174   8.203 -0.1995  0.2213  0.2494
  465MOL0     C62686   1.214  10.949   8.514  0.0259 -0.1730  0.4156
  465MOL0     C62687   1.357  10.954   8.493  0.1366 -0.4899 -0.2128
  465MOL0     O62688   1.524  10.929   8.172  0.0933  0.0795 -0.0125
  465MOL0     C62689   1.775  10.848   8.184 -0.3412 -0.1002 -0.0401
  465MOL0     C62690   1.912  10.818   8.173  0.1096 -0.2021  0.4922
  465MOL0     N62691   2.595  10.770   8.128 -0.4831 -0.5741 -0.7158
  465MOL0     N62692   2.718  10.810   8.144 -0.6680  0.3020  0.8393
  465MOL0     C62693   3.814  11.252   8.002  0.5058  0.9178  1.0244
  465MOL0     C62694   3.938  11.216   7.953  0.2440  0.1688  0.7106
  465MOL0     C62695   4.347  11.151   7.844 -0.2969 -0.1278  0.3021
  465MOL0     C62696   4.388  11.233   7.736  0.0287  0.1758 -0.4872
  465MOL0     C62697   4.503  11.210   7.666  0.1878 -0.7333 -0.6220
  465MOL0     C62698   4.580  11.105   7.694 -1.1093  0.7889 -0.1067
  465MOL0     O62699   4.687  11.081   7.606  0.6661  0.0693 -0.1929
  465MOL0     C62700   4.791  10.985   7.634 -0.1177  0.3155  0.7080
  465MOL0     C62701   4.911  11.065   7.672 -1.2146 -0.4174 -0.8035
  465MOL0     C62702   4.965  11.163   7.566  0.5785  0.1808  0.3209
  465MOL0     C62703   4.992  11.104   7.420 -0.2232  0.2404  0.3157
  465MOL0     C62704   5.058  10.969   7.413  1.0142 -0.0883  0.7186
  465MOL0     C62705   5.106  10.867   7.430 -0.4839 -0.4151  0.0397
  465MOL0     C62706   4.548  11.022   7.798  1.0072 -0.9125  1.2450
  465MOL0     C62707   4.432  11.043   7.875 -0.2653 -0.1725 -0.2351
  465MOL0     H62708   4.029  11.531   7.870 -2.4358  1.6663 -0.5674
  465MOL0     H62709   3.815  11.581   7.937  0.6799 -0.1415 -0.3489
  465MOL0     H62710   3.606  11.269   8.182 -1.3025 -2.3325  0.0440
  465MOL0     H62711   3.484  11.403   8.167 -0.4874  0.4412 -0.9567
  465MOL0     H62712   3.429  11.322   7.949 -1.1540 -2.1934 -1.5631
  465MOL0     H62713   3.565  11.202   7.948 -2.2789 -2.3306 -1.3616
  465MOL0     H62714   3.448  11.061   8.108 -0.5040 -0.8700 -0.4972
  465MOL0     H62715   3.337  11.208   8.144 -0.3022 -0.2181 -0.9465
  465MOL0     H62716   3.262  11.174   7.904 -2.0408 -0.2307 -0.6149
  465MOL0     H62717   3.356  11.017   7.910  1.0023 -0.2003  1.8981
  465MOL0     H62718   3.222  10.921   8.069  2.4444  0.6847 -0.5969
  465MOL0     H62719   3.135  11.085   8.093 -0.8329 -1.7189  1.2147
  465MOL0     H62720   3.053  11.077   7.871 -2.8420 -2.2330  0.2899
  465MOL0     H62721   3.133  10.927   7.839  1.0414 -1.7339  0.5522
  465MOL0     H62722   2.926  10.831   7.916  1.1515 -1.7652  0.2940
  465MOL0     H62723   3.010  10.835   8.072 -1.5523  0.7208  1.3007
  465MOL0     H62724   2.851  11.075   7.977 -0.8014  0.3399 -0.3942
  465MOL0     H62725   2.892  11.028   8.143 -0.8888 -0.2742 -0.1586
  465MOL0     H62726   2.614  11.020   7.918 -0.4431  0.0987 -0.0593
  465MOL0     H62727   2.404  10.795   7.869 -2.7258 -2.3411  0.5516
  465MOL0     H62728   2.342  10.758   8.030  1.4824  1.6523  3.5885
  465MOL0     H62729   2.205  10.943   7.934  0.6731 -1.2703 -0.0460
  465MOL0     H62730   2.353  11.040   7.903  1.5604  1.0177  2.0721
  465MOL0     H62731   2.217  11.121   8.087  0.8030  1.2358  0.4839
  465MOL0     H62732   2.377  11.086   8.126 -0.6797  0.1830  0.3390
  465MOL0     H62733   2.237  10.996   8.319  2.9111  0.5359 -0.3485
  465MOL0     H62734   2.341  10.893   8.239  1.2213  1.2671 -2.0284
  465MOL0     H62735   2.060  11.092   8.297  0.1688  0.8342  0.9767
  465MOL0     H62736   1.752  11.257   8.235 -0.4042 -0.6716 -0.6392
  465MOL0     H62737   1.719  11.199   8.395 -0.9906  1.4476 -1.5102
  465MOL0     H62738   1.887  11.251   8.353  0.1504  2.6136 -0.8729
  465MOL0     H62739   1.358  11.161   8.226  0.5852  1.1797  1.2189
  465MOL0     H62740   1.127  11.157   8.263  1.2833  1.8852 -0.2339
  465MOL0     H62741   0.895  11.134   8.349  0.3975 -0.2615  1.1992
  465MOL0     H62742   0.926  10.977   8.259  2.3378 -0.4746  0.5378
  465MOL0     H62743   0.742  10.971   8.503  1.4819  0.5451  1.3347
  465MOL0     H62744   0.684  11.056   8.355 -0.7693 -2.0953 -1.1397
  465MOL0     H62745   0.739  10.856   8.226 -2.5567 -0.2958 -0.6709
  465MOL0     H62746   0.619  10.833   8.343 -0.0914  0.9307 -1.5625
  465MOL0     H62747   0.914  10.749   8.372  0.1548  1.7474 -1.6890
  465MOL0     H62748   0.791  10.742   8.504 -0.4569  1.9242 -0.2110
  465MOL0     H62749   0.764  10.538   8.450  0.3319  2.2900  0.7029
  465MOL0     H62750   0.824  10.549   8.287 -1.1102 -2.8156  0.7939
  465MOL0     H62751   0.528  10.618   8.359 -3.5475 -1.5398 -3.1038
  465MOL0     H62752   0.605  10.618   8.205 -0.9822  0.3185  1.0343
  465MOL0     H62753   0.471  10.408   8.244 -1.1659  0.4325  0.5042
  465MOL0     H62754   0.561  10.385   8.391  2.7562 -0.2644 -0.6268
  465MOL0     H62755   0.773  10.338   8.274  0.9572  1.1024 -1.0149
  465MOL0     H62756   0.705  10.376   8.117 -0.4539 -3.4016 -0.9846
  465MOL0     H62757   1.169  10.882   8.587 -0.5804  0.1901  0.3807
  465MOL0     H62758   1.416  10.912   8.574  3.3435  2.0200 -1.0411
  465MOL0     H62759   1.699  10.775   8.157 -1.1772 -0.5945  3.1714
  465MOL0     H62760   1.937  10.720   8.134  0.0504  0.2565 -0.7494
  465MOL0     H62761   3.745  11.179   8.042  0.1968  0.6824  0.0768
  465MOL0     H62762   3.966  11.111   7.954 -0.4996 -0.1195 -1.4302
  465MOL0     H62763   4.328  11.321   7.716  0.3481  0.4286 -0.3469
  465MOL0     H62764   4.524  11.283   7.588 -2.3119 -1.9895 -2.6142
  465MOL0     H62765   4.766  10.915   7.714 -0.9036  0.4638  0.6022
  465MOL0     H62766   4.809  10.921   7.547 -0.1140  1.9300 -0.5385
  465MOL0     H62767   4.995  11.001   7.699 -1.6609  0.8723  4.8474
  465MOL0     H62768   4.896  11.122   7.764  1.5264  1.3045 -1.3185
  465MOL0     H62769   5.064  11.199   7.596  0.3912  1.5209 -0.5929
  465MOL0     H62770   4.903  11.253   7.558  1.2456  0.6554  0.4119
  465MOL0     H62771   5.062  11.169   7.367 -0.8757  0.0043 -0.8952
  465MOL0     H62772   4.906  11.104   7.351  1.9437 -0.2402 -2.5983
  465MOL0     H62773   5.153  10.771   7.442  0.4838 -0.0001 -0.3229
  465MOL0     H62774   4.596  10.928   7.818  1.5200 -1.8371 -3.3180
  465MOL0     H62775   4.405  10.977   7.957  2.7972 -0.5685  0.5867
  466MOL0     O62776   6.419   4.370   6.531 -0.2456  0.3880 -0.1532
  466MOL0     C62777   6.421   4.336   6.650 -0.7976 -0.9025 -0.7368
  466MOL0     O62778   6.312   4.290   6.724  0.2872 -0.0836 -0.4664
  466MOL0     C62779   6.182   4.286   6.673 -0.2190  0.6922  0.3493
  466MOL0     C62780   6.092   4.386   6.711  0.0119  0.5274  0.0137
  466MOL0     C62781   5.959   4.378   6.661  0.9447  0.0004 -0.4736
  466MOL0     C62782   5.917   4.275   6.583  0.0021 -0.0923  0.6180
  466MOL0     O62783   5.783   4.274   6.544 -0.1744 -0.3100 -0.1840
  466MOL0     C62784   5.727   4.183   6.451  0.4768 -0.0139 -0.0765
  466MOL0     C62785   5.574   4.229   6.432 -0.6108  0.3398  0.6406
  466MOL0     C62786   5.478   4.120   6.377 -0.9435  0.3211  0.9151
  466MOL0     C62787   5.470   4.004   6.466 -0.9415 -0.2800  0.3662
  466MOL0     C62788   5.333   3.941   6.466 -1.1127 -0.3495  0.5022
  466MOL0     C62789   5.342   3.798   6.530 -0.8530  0.0772  0.8325
  466MOL0     C62790   5.207   3.732   6.542  0.2102  0.2430 -0.1161
  466MOL0     C62791   5.212   3.616   6.642 -0.1940  1.3547  0.8734
  466MOL0     N62792   5.077   3.580   6.686 -0.6155  0.5141  0.5031
  466MOL0     C62793   5.019   3.557   6.807 -0.0184  0.2264 -0.3014
  466MOL0     C62794   4.890   3.530   6.786  0.0701 -0.6700  0.2957
  466MOL0     C62795   4.787   3.497   6.896 -0.1806 -0.6066  0.2544
  466MOL0     C62796   4.654   3.490   6.835  0.4851  0.2107  0.9496
  466MOL0     C62797   4.552   3.432   6.928  0.6095 -0.9008  0.8542
  466MOL0     C62798   4.427   3.396   6.846 -0.4573 -0.3965  0.4077
  466MOL0     O62799   4.318   3.392   6.935  1.1429 -0.4006 -0.4229
  466MOL0     C62800   4.198   3.334   6.887 -0.6451 -0.6792  0.0560
  466MOL0     C62801   4.165   3.297   6.755 -0.5574  0.0705 -0.5641
  466MOL0     C62802   4.038   3.265   6.710  1.0362  0.6861  0.7266
  466MOL0     C62803   4.034   3.222   6.562  0.6495  0.0875 -0.0790
  466MOL0     C62804   3.936   3.252   6.807 -0.7365 -1.0048  0.1972
  466MOL0     C62805   3.801   3.202   6.774 -0.2427  0.0285  0.6200
  466MOL0     O62806   3.711   3.230   6.870  0.7193  0.1041  0.1107
  466MOL0     C62807   3.583   3.211   6.844 -0.1106  0.6864 -0.3655
  466MOL0     C62808   3.513   3.105   6.901 -0.8422  0.4581 -0.2540
  466MOL0     C62809   3.380   3.085   6.883 -0.1835 -0.9115 -0.2187
  466MOL0     C62810   3.304   3.172   6.804  0.1869  0.0373  0.3997
  466MOL0     O62811   3.169   3.154   6.772  0.1772  0.4517 -0.3448
  466MOL0     C62812   3.086   3.092   6.868 -0.1615  0.1866 -0.3045
  466MOL0     C62813   2.940   3.100   6.811 -0.6331 -0.0850  0.3320
  466MOL0     C62814   2.892   3.232   6.777 -0.6582 -0.6696 -0.0734
  466MOL0     C62815   2.746   3.200   6.721  0.1042  0.3712  0.6438
  466MOL0     C62816   2.677   3.324   6.661  0.2855 -0.0332  0.5269
  466MOL0     C62817   2.641   3.413   6.779 -1.1524  0.0927 -0.0513
  466MOL0     C62818   2.541   3.365   6.888 -0.4104 -0.5387  0.0542
  466MOL0     C62819   2.420   3.301   6.828 -0.0505 -0.1001 -1.8623
  466MOL0    Cl62820   2.298   3.416   6.748 -0.0474  0.1628 -0.1116
  466MOL0     C62821   3.375   3.276   6.740 -0.6901  0.3323 -0.2460
  466MOL0     C62822   3.514   3.296   6.762 -0.4154 -0.1067  0.1167
  466MOL0     O62823   3.776   3.150   6.663  0.1932  0.7075  0.4784
  466MOL0     C62824   3.967   3.288   6.939  0.3011 -0.6998 -0.3815
  466MOL0     C62825   4.100   3.320   6.975  0.3943  0.0381  0.2343
  466MOL0     N62826   4.874   3.516   6.649  0.9015 -0.2524 -0.0755
  466MOL0     N62827   4.981   3.547   6.591 -0.8964  0.4376 -0.4382
  466MOL0     C62828   6.007   4.179   6.539  0.4054 -0.0358 -0.0781
  466MOL0     C62829   6.142   4.190   6.578 -0.1806 -0.4270 -0.6016
  466MOL0     C62830   6.550   4.345   6.721 -0.0433 -0.5398  0.1192
  466MOL0     C62831   6.675   4.358   6.657 -0.0344  0.0184  0.5549
  466MOL0     C62832   6.788   4.340   6.729 -0.2805 -0.7560 -0.6028
  466MOL0     C62833   6.790   4.338   6.864 -0.2327 -0.4567 -0.1122
  466MOL0     O62834   6.910   4.327   6.932 -0.1562 -0.6208 -0.6628
  466MOL0     C62835   6.903   4.328   7.082  0.2543  1.0324  0.3721
  466MOL0     C62836   7.047   4.352   7.129  0.3020 -1.2102  0.5032
  466MOL0     C62837   7.133   4.226   7.127  0.7531  0.0572  0.0878
  466MOL0     C62838   7.266   4.264   7.180 -0.5805 -0.1974  0.4972
  466MOL0     C62839   7.337   4.347   7.087  0.4166  0.2764 -0.1351
  466MOL0     C62840   7.402   4.414   7.008 -0.2014  0.0836  0.2937
  466MOL0     C62841   6.669   4.329   6.936  0.3725  0.3676  0.6506
  466MOL0     C62842   6.550   4.331   6.861 -0.4477 -0.1037  0.1668
  466MOL0     H62843   6.115   4.463   6.784 -0.6294  0.7266  0.0060
  466MOL0     H62844   5.890   4.453   6.698  1.8430  1.2141 -1.1811
  466MOL0     H62845   5.770   4.177   6.351 -0.6544 -0.1104 -0.5741
  466MOL0     H62846   5.734   4.084   6.496  4.0721 -1.1143 -2.6611
  466MOL0     H62847   5.533   4.275   6.523 -0.7864  1.7451 -0.1297
  466MOL0     H62848   5.581   4.312   6.361  2.8756 -1.5182 -1.4285
  466MOL0     H62849   5.377   4.157   6.361 -0.7467  1.9073  3.0253
  466MOL0     H62850   5.518   4.094   6.278 -0.1345  0.4932  1.1826
  466MOL0     H62851   5.549   3.939   6.428 -0.1830  1.9378 -2.1464
  466MOL0     H62852   5.499   4.040   6.565 -0.2917  1.0385 -0.2802
  466MOL0     H62853   5.270   4.010   6.523  1.1781 -0.2064  3.0503
  466MOL0     H62854   5.298   3.920   6.364  2.3756 -1.5385 -0.5871
  466MOL0     H62855   5.412   3.732   6.479 -0.2303  0.1627  1.5542
  466MOL0     H62856   5.384   3.815   6.630 -1.3629 -0.2135  1.1041
  466MOL0     H62857   5.137   3.804   6.585  0.0480  0.7335 -1.1649
  466MOL0     H62858   5.171   3.702   6.443  1.2560  0.0432 -0.4534
  466MOL0     H62859   5.270   3.642   6.731 -1.4120  1.8358  1.5574
  466MOL0     H62860   5.271   3.535   6.600  1.9503  1.8259  2.7758
  466MOL0     H62861   5.064   3.559   6.906 -0.4298  1.0394 -0.1249
  466MOL0     H62862   4.802   3.399   6.942 -2.3525 -1.1026  0.0247
  466MOL0     H62863   4.800   3.579   6.967  0.3422  0.5922 -1.1610
  466MOL0     H62864   4.653   3.420   6.750 -3.5413  1.2206 -0.0568
  466MOL0     H62865   4.630   3.585   6.787  2.6941  0.3858  0.0716
  466MOL0     H62866   4.540   3.493   7.018  1.5417 -2.3487  2.0137
  466MOL0     H62867   4.592   3.338   6.967  1.3931 -1.3904 -0.9984
  466MOL0     H62868   4.434   3.306   6.786 -1.3978  1.8545 -3.3972
  466MOL0     H62869   4.402   3.475   6.775  0.9026 -0.7530 -0.4845
  466MOL0     H62870   4.246   3.304   6.683 -3.4191  0.3088 -4.0391
  466MOL0     H62871   4.130   3.252   6.519  0.6671 -2.2610 -1.8790
  466MOL0     H62872   4.014   3.115   6.555  3.8808 -0.6698  0.7561
  466MOL0     H62873   3.951   3.274   6.513 -1.8674 -2.1756  1.5279
  466MOL0     H62874   3.566   3.041   6.970  0.8724  3.2309  1.2001
  466MOL0     H62875   3.330   3.002   6.933 -0.1576 -1.0433 -0.4125
  466MOL0     H62876   3.106   2.985   6.876  1.7036  0.5270 -0.0536
  466MOL0     H62877   3.092   3.133   6.970 -1.7730 -0.3670  0.0436
  466MOL0     H62878   2.937   3.034   6.724 -0.1908  0.8773 -0.4349
  466MOL0     H62879   2.872   3.056   6.884  0.0861 -0.1277  0.9927
  466MOL0     H62880   2.961   3.271   6.700  2.4649  1.0533  3.2683
  466MOL0     H62881   2.896   3.300   6.862  2.2752 -2.9165  1.7638
  466MOL0     H62882   2.758   3.128   6.640 -0.1488  0.9276  0.1002
  466MOL0     H62883   2.692   3.142   6.795  0.7299 -0.0457  0.7799
  466MOL0     H62884   2.582   3.302   6.610 -0.0603 -3.2358  2.2486
  466MOL0     H62885   2.739   3.375   6.587 -1.1067  0.5372 -0.2802
  466MOL0     H62886   2.735   3.452   6.820 -1.3616  0.9807 -0.3854
  466MOL0     H62887   2.594   3.506   6.746 -1.4483  0.5194  1.5241
  466MOL0     H62888   2.518   3.452   6.950  0.5738  0.2506 -0.6415
  466MOL0     H62889   2.590   3.293   6.954  2.9201  2.4037  1.1779
  466MOL0     H62890   2.366   3.255   6.911  1.6612 -0.9992 -1.1795
  466MOL0     H62891   2.442   3.224   6.753 -0.1191  0.0946 -2.0814
  466MOL0     H62892   3.318   3.330   6.666  0.5100 -1.3246 -2.5212
  466MOL0     H62893   3.573   3.373   6.713 -1.0024 -0.6247 -1.4746
  466MOL0     H62894   3.894   3.295   7.019 -0.2376 -0.2427 -0.9066
  466MOL0     H62895   4.112   3.357   7.077  0.7302  2.6019 -0.6628
  466MOL0     H62896   5.984   4.087   6.486  0.0109  0.5930 -1.0366
  466MOL0     H62897   6.218   4.118   6.549  0.9111  0.8318 -0.9965
  466MOL0     H62898   6.682   4.377   6.550 -0.8392  0.0099  0.4992
  466MOL0     H62899   6.885   4.342   6.679  1.6141 -0.1280  2.7595
  466MOL0     H62900   6.850   4.409   7.132  0.0518 -1.7763  5.3536
  466MOL0     H62901   6.850   4.237   7.114  2.2765 -1.1862 -2.0704
  466MOL0     H62902   7.032   4.394   7.229 -0.2191 -1.8049  0.6782
  466MOL0     H62903   7.086   4.432   7.065 -2.9165 -0.4961 -0.7661
  466MOL0     H62904   7.138   4.194   7.022 -1.7528  1.6918 -0.6400
  466MOL0     H62905   7.084   4.150   7.188 -0.4245  1.0597  0.4532
  466MOL0     H62906   7.321   4.170   7.183 -1.4059 -0.6746  1.4441
  466MOL0     H62907   7.260   4.311   7.279  0.8474  0.2336  0.3914
  466MOL0     H62908   7.457   4.483   6.947  1.8024  0.6947  2.5833
  466MOL0     H62909   6.668   4.322   7.045  0.2577  1.3344  0.7225
  466MOL0     H62910   6.455   4.321   6.914 -1.6667  3.7119 -0.9817
  467MOL0     O62911   4.902   9.023   4.757  0.0823  0.4039  0.1159
  467MOL0     C62912   4.914   8.978   4.869 -0.5647 -0.4249 -0.5712
  467MOL0     O62913   4.858   8.860   4.916  0.6544 -0.1878  0.0903
  467MOL0     C62914   4.795   8.779   4.829  0.0227  0.6019 -0.2062
  467MOL0     C62915   4.805   8.765   4.688 -0.1004  0.2635  0.0646
  467MOL0     C62916   4.727   8.668   4.622 -0.3858 -0.2624  0.5752
  467MOL0     C62917   4.631   8.593   4.685  0.3669  0.2789  0.3403
  467MOL0     O62918   4.560   8.499   4.618 -0.6916  0.4472 -0.0125
  467MOL0     C62919   4.450   8.562   4.544 -0.1395  1.0754 -0.0337
  467MOL0     C62920   4.331   8.471   4.551  0.2511  0.7592  0.2888
  467MOL0     C62921   4.215   8.549   4.494  0.2526 -0.5374 -0.3366
  467MOL0     C62922   4.081   8.469   4.503  0.3187  0.4490 -0.3539
  467MOL0     C62923   3.960   8.563   4.481  0.6670  0.3191 -0.1620
  467MOL0     C62924   3.828   8.489   4.519 -0.6128  0.0619 -0.0907
  467MOL0     C62925   3.699   8.583   4.513  0.1564  0.5324  0.7149
  467MOL0     C62926   3.567   8.509   4.513  0.6922  1.0829  0.1229
  467MOL0     N62927   3.450   8.598   4.540  0.3801  0.1432  0.1267
  467MOL0     C62928   3.410   8.713   4.473  0.2361  0.2241  0.5501
  467MOL0     C62929   3.307   8.764   4.542 -0.2742  0.4416  0.8260
  467MOL0     C62930   3.252   8.902   4.517  0.6343  0.7646 -0.1911
  467MOL0     C62931   3.193   8.919   4.385  0.5459 -0.4006 -0.1735
  467MOL0     C62932   3.066   8.835   4.377 -0.7997  0.3755 -0.1133
  467MOL0     C62933   2.932   8.886   4.448 -0.2948  0.4269  0.3923
  467MOL0     O62934   2.827   8.846   4.359 -0.4622 -0.1644  0.5042
  467MOL0     C62935   2.701   8.892   4.375 -0.0258  0.3357 -0.7204
  467MOL0     C62936   2.624   8.884   4.263  0.1287  0.1148 -0.6599
  467MOL0     C62937   2.489   8.920   4.254  0.0238 -0.2647 -0.2512
  467MOL0     C62938   2.410   8.887   4.125 -0.2240 -0.5335  0.6793
  467MOL0     C62939   2.425   8.963   4.377  0.4954 -0.2368 -0.2520
  467MOL0     C62940   2.278   8.975   4.400  0.4250 -0.1302 -0.2516
  467MOL0     O62941   2.245   9.031   4.526 -1.0321  0.2554  0.0210
  467MOL0     C62942   2.116   9.047   4.571 -0.2518  0.3645 -0.7598
  467MOL0     C62943   2.106   9.068   4.712  0.0651  0.6953  0.4015
  467MOL0     C62944   1.980   9.099   4.774  0.6234  0.2659  0.1728
  467MOL0     C62945   1.867   9.092   4.697 -0.8702  0.1852 -0.0927
  467MOL0     O62946   1.754   9.110   4.771  0.3522  0.0604  0.0614
  467MOL0     C62947   1.630   9.152   4.705  0.3969 -0.0523 -0.5642
  467MOL0     C62948   1.511   9.164   4.813  0.3895  0.5878  0.7412
  467MOL0     C62949   1.382   9.216   4.746  0.1408 -0.1732 -0.6767
  467MOL0     C62950   1.272   9.193   4.852  0.6651  0.1021 -0.3070
  467MOL0     C62951   1.135   9.230   4.795 -0.1412  0.3543  0.6800
  467MOL0     C62952   1.033   9.255   4.905 -0.7511  0.1469  0.1069
  467MOL0     C62953   0.884   9.235   4.884  0.0580 -0.1382  0.1842
  467MOL0     C62954   0.853   9.150   4.765  1.0064  0.2497 -0.3202
  467MOL0    Cl62955   0.688   9.186   4.720  0.5520  0.2223  0.4077
  467MOL0     C62956   1.874   9.073   4.563 -0.4834  0.6446 -0.3148
  467MOL0     C62957   1.995   9.050   4.501 -0.3864  0.0536  0.1600
  467MOL0     O62958   2.201   8.927   4.323  0.2884 -0.5088  0.5193
  467MOL0     C62959   2.504   8.962   4.494 -0.5584  0.2943 -0.2276
  467MOL0     C62960   2.640   8.934   4.489  0.9136 -0.4410 -0.5742
  467MOL0     N62961   3.284   8.681   4.649 -0.1239 -0.0791 -0.4306
  467MOL0     N62962   3.358   8.577   4.637  0.7979 -0.2718 -0.0337
  467MOL0     C62963   4.618   8.613   4.821 -0.2598  0.2192  0.7641
  467MOL0     C62964   4.703   8.691   4.889  0.1160 -0.0002 -0.7396
  467MOL0     C62965   5.007   9.049   4.960 -0.5315 -0.2365  0.6374
  467MOL0     C62966   5.046   9.181   4.930  0.7207 -0.0153 -0.1073
  467MOL0     C62967   5.136   9.256   5.014  0.2436 -0.1627 -0.2250
  467MOL0     C62968   5.185   9.198   5.132 -0.6664 -0.0618 -0.4781
  467MOL0     O62969   5.272   9.275   5.202 -0.6220 -0.0273 -0.0406
  467MOL0     C62970   5.344   9.208   5.298 -0.0975  0.4072 -0.1976
  467MOL0     C62971   5.458   9.122   5.244  0.1514  1.0826 -0.8034
  467MOL0     C62972   5.522   9.049   5.367  0.6743  0.5847 -0.0666
  467MOL0     C62973   5.663   8.994   5.347 -0.9841 -0.2481  0.1051
  467MOL0     C62974   5.772   9.087   5.299  0.8109  0.0424 -0.4489
  467MOL0     C62975   5.859   9.153   5.256  0.6068  0.0384  0.5915
  467MOL0     C62976   5.135   9.071   5.166 -0.0234  0.9629 -0.2749
  467MOL0     C62977   5.056   8.997   5.081 -0.7196 -0.0553  0.6509
  467MOL0     H62978   4.871   8.828   4.629 -2.5144  2.0132 -0.9231
  467MOL0     H62979   4.741   8.656   4.515  2.5215 -1.6624  1.0115
  467MOL0     H62980   4.427   8.666   4.567 -0.4119  1.2963 -1.2463
  467MOL0     H62981   4.485   8.567   4.441  0.7637 -1.1147  0.1053
  467MOL0     H62982   4.352   8.383   4.489  2.2864  1.1871  0.3096
  467MOL0     H62983   4.301   8.441   4.652 -3.5510  0.6754 -0.7083
  467MOL0     H62984   4.205   8.629   4.568  2.9140 -0.8366  0.4328
  467MOL0     H62985   4.225   8.592   4.394 -0.5623 -0.2106 -0.2825
  467MOL0     H62986   4.075   8.390   4.428 -1.3781 -0.3148  0.5203
  467MOL0     H62987   4.087   8.436   4.607  1.5886  5.1661  1.3353
  467MOL0     H62988   3.956   8.648   4.550 -1.0539  2.5346 -2.7451
  467MOL0     H62989   3.951   8.601   4.378 -1.2783  0.5675  0.0561
  467MOL0     H62990   3.818   8.403   4.453  3.0779 -0.8265  0.2944
  467MOL0     H62991   3.830   8.451   4.622 -0.8148  1.5489  0.4918
  467MOL0     H62992   3.686   8.633   4.610 -2.2693 -2.0076  1.8293
  467MOL0     H62993   3.705   8.653   4.429 -1.1808 -1.5852 -1.2650
  467MOL0     H62994   3.571   8.435   4.593  0.2491  2.2123  1.2023
  467MOL0     H62995   3.547   8.461   4.417 -1.4332  0.2362  0.9419
  467MOL0     H62996   3.462   8.758   4.389 -0.3131  0.4871  0.3505
  467MOL0     H62997   3.174   8.929   4.589  0.6570 -1.6016  0.8234
  467MOL0     H62998   3.335   8.973   4.530  0.7699  0.3281  1.5771
  467MOL0     H62999   3.258   8.886   4.303  2.2478 -0.8970  1.2941
  467MOL0     H63000   3.169   9.024   4.366  2.9174  0.2260 -0.1072
  467MOL0     H63001   3.085   8.728   4.394 -0.3900  0.5838  0.7940
  467MOL0     H63002   3.051   8.852   4.270  0.0713  2.0732  0.0013
  467MOL0     H63003   2.941   8.993   4.471  0.7960 -0.2042  3.4782
  467MOL0     H63004   2.929   8.829   4.541  0.5403 -1.9792 -0.9807
  467MOL0     H63005   2.664   8.849   4.169 -0.2480  0.4469 -0.9474
  467MOL0     H63006   2.486   8.869   4.048 -1.4378 -1.2717 -0.3949
  467MOL0     H63007   2.350   8.796   4.139 -0.8796  0.1213  2.2905
  467MOL0     H63008   2.343   8.965   4.087 -2.4108 -1.0712  3.1422
  467MOL0     H63009   2.189   9.070   4.781 -1.4952 -3.1771  2.7449
  467MOL0     H63010   1.961   9.130   4.877  1.6764 -0.2199  0.5315
  467MOL0     H63011   1.629   9.256   4.673 -1.3417  1.1200  2.8038
  467MOL0     H63012   1.618   9.083   4.621  2.5253 -0.4456 -0.5917
  467MOL0     H63013   1.499   9.060   4.844  0.1530 -0.4516 -2.4009
  467MOL0     H63014   1.540   9.225   4.898  0.7897 -2.6412  3.0949
  467MOL0     H63015   1.358   9.153   4.660  0.6235  0.7956 -1.5442
  467MOL0     H63016   1.385   9.322   4.720  1.5600 -0.2286 -0.8351
  467MOL0     H63017   1.288   9.087   4.875  3.8362 -0.2955 -3.3627
  467MOL0     H63018   1.307   9.258   4.932  2.3071 -1.2023  0.0980
  467MOL0     H63019   1.103   9.153   4.724 -2.2148 -0.7817  2.7306
  467MOL0     H63020   1.132   9.323   4.737 -1.6857 -0.1622 -0.1343
  467MOL0     H63021   1.048   9.201   4.999  0.1495  1.5332  0.8026
  467MOL0     H63022   1.050   9.356   4.945  0.8251 -1.0307  2.7027
  467MOL0     H63023   0.839   9.332   4.862 -0.7557 -0.1282  1.7542
  467MOL0     H63024   0.836   9.205   4.978  0.7348 -0.3049  0.4859
  467MOL0     H63025   0.869   9.046   4.793  0.8960 -0.5492 -2.9993
  467MOL0     H63026   0.916   9.190   4.686 -0.7078  4.5616  0.2005
  467MOL0     H63027   1.789   9.063   4.496  0.4816 -0.1552 -1.4385
  467MOL0     H63028   1.993   9.028   4.395 -1.6987  0.2126  0.1425
  467MOL0     H63029   2.464   8.978   4.593  0.1436 -1.2904  0.3549
  467MOL0     H63030   2.691   8.937   4.585 -1.1125 -3.4698  0.7495
  467MOL0     H63031   4.540   8.553   4.866  1.3535 -1.8018  1.0486
  467MOL0     H63032   4.685   8.691   4.997 -1.8346 -2.3362 -0.9688
  467MOL0     H63033   5.011   9.229   4.839 -0.7660  2.1023  1.4672
  467MOL0     H63034   5.163   9.358   4.989 -1.0064  0.9365  2.5515
  467MOL0     H63035   5.385   9.284   5.366  0.4637 -0.9338  1.0224
  467MOL0     H63036   5.272   9.152   5.359 -0.2173 -0.3970 -1.0678
  467MOL0     H63037   5.542   9.179   5.203  4.0656 -1.8413  2.2882
  467MOL0     H63038   5.427   9.044   5.174 -1.6015  0.4729  0.5903
  467MOL0     H63039   5.452   8.969   5.392  1.1482  0.2126  0.0917
  467MOL0     H63040   5.531   9.110   5.457 -0.2869 -0.6824  0.9192
  467MOL0     H63041   5.660   8.902   5.288  0.2953 -0.4242  0.2650
  467MOL0     H63042   5.701   8.954   5.442 -0.5818 -1.1234 -0.4123
  467MOL0     H63043   5.942   9.216   5.234 -1.0144  1.6388 -1.2878
  467MOL0     H63044   5.150   9.029   5.265 -1.0607  0.7187 -0.2156
  467MOL0     H63045   5.007   8.913   5.130 -0.5944  0.0506  0.9658
  468MOL0     O63046   9.329   3.122   9.041  0.4390 -0.1097 -0.9931
  468MOL0     C63047   9.363   3.004   9.057 -0.2414 -0.4731  0.0490
  468MOL0     O63048   9.278   2.896   9.083  0.5929  0.6070  0.5462
  468MOL0     C63049   9.139   2.907   9.094  1.3693 -0.3659 -0.2829
  468MOL0     C63050   9.051   3.010   9.059  0.7522 -0.5609 -0.8061
  468MOL0     C63051   8.915   2.992   9.030 -0.2413 -0.4617  0.1451
  468MOL0     C63052   8.858   2.871   9.060 -0.2533 -0.5043 -0.0154
  468MOL0     O63053   8.726   2.837   9.036 -0.1750  0.2416 -0.2043
  468MOL0     C63054   8.637   2.921   8.963  0.4010  0.5713 -0.4760
  468MOL0     C63055   8.589   3.028   9.068 -0.2926  0.6320 -0.2816
  468MOL0     C63056   8.511   3.134   8.995 -0.7599 -0.1638  0.2663
  468MOL0     C63057   8.386   3.077   8.915 -0.2841 -0.0863  0.3339
  468MOL0     C63058   8.327   3.189   8.833  0.5185  0.4702  0.4611
  468MOL0     C63059   8.219   3.243   8.923 -0.7239  0.6642  0.1314
  468MOL0     C63060   8.159   3.381   8.883  0.1604 -0.0809 -0.6338
  468MOL0     C63061   8.077   3.390   8.751  0.0938  0.0816  0.3254
  468MOL0     N63062   7.975   3.288   8.737  0.5531  0.2058 -0.5133
  468MOL0     C63063   7.882   3.243   8.828 -0.0977 -0.9761 -0.0434
  468MOL0     C63064   7.807   3.148   8.770  0.4806 -0.3034  0.8609
  468MOL0     C63065   7.680   3.078   8.819 -0.3157  0.0697 -0.6805
  468MOL0     C63066   7.611   3.163   8.927  0.3868 -0.7979  0.0739
  468MOL0     C63067   7.465   3.131   8.922 -0.0586  0.7057 -0.0623
  468MOL0     C63068   7.405   3.130   9.063  0.5705  0.6325 -0.4934
  468MOL0     O63069   7.276   3.073   9.057  1.1855  0.2079  0.2583
  468MOL0     C63070   7.173   3.146   9.015  0.1611 -1.0460  0.4083
  468MOL0     C63071   7.171   3.267   8.951 -0.0078 -0.2972  0.3047
  468MOL0     C63072   7.048   3.331   8.908  0.6969  0.2931 -0.0594
  468MOL0     C63073   7.063   3.460   8.837 -0.2038 -1.1195  0.0639
  468MOL0     C63074   6.928   3.263   8.938  0.6408 -0.5267 -0.7122
  468MOL0     C63075   6.792   3.310   8.906 -0.1494  0.3723  0.1831
  468MOL0     O63076   6.694   3.275   8.993 -0.1536 -0.2591  0.3057
  468MOL0     C63077   6.560   3.323   8.979 -0.9770  0.0244 -0.6738
  468MOL0     C63078   6.523   3.443   8.918 -0.0178  0.1030  0.4883
  468MOL0     C63079   6.393   3.481   8.893  0.5722 -0.0825 -0.5596
  468MOL0     C63080   6.292   3.395   8.936  0.2264  0.7653 -0.1426
  468MOL0     O63081   6.158   3.426   8.899  0.5246  0.2167 -0.2342
  468MOL0     C63082   6.053   3.350   8.957  0.0719 -0.4582 -0.4969
  468MOL0     C63083   5.917   3.414   8.917 -0.8840  0.1872  0.1850
  468MOL0     C63084   5.802   3.318   8.962  0.5867 -0.5515  0.4053
  468MOL0     C63085   5.671   3.343   8.879 -0.2848 -0.4897  0.3611
  468MOL0     C63086   5.561   3.247   8.933  0.6975 -0.2035 -0.3636
  468MOL0     C63087   5.420   3.292   8.883 -0.3466  0.3913  0.3483
  468MOL0     C63088   5.364   3.417   8.969 -0.6324 -0.0323 -0.4610
  468MOL0     C63089   5.225   3.460   8.929  0.2776  0.4038  0.2255
  468MOL0    Cl63090   5.109   3.341   9.001  0.0535  0.1396  0.1319
  468MOL0     C63091   6.320   3.270   8.999 -0.6542  0.9245 -0.1541
  468MOL0     C63092   6.458   3.234   9.021 -0.0082  0.6521  0.4807
  468MOL0     O63093   6.777   3.367   8.804  0.3859 -0.2857  0.3193
  468MOL0     C63094   6.930   3.151   9.019  1.0182  0.7803  0.5068
  468MOL0     C63095   7.048   3.088   9.054  0.0337  0.4892 -0.4508
  468MOL0     N63096   7.864   3.120   8.651 -0.3387  0.4678 -0.8382
  468MOL0     N63097   7.962   3.200   8.629  0.1232 -0.1433  0.3770
  468MOL0     C63098   8.943   2.764   9.096  0.0229  0.2356 -0.1886
  468MOL0     C63099   9.077   2.788   9.113  0.2660  0.1579  0.3237
  468MOL0     C63100   9.506   2.975   9.041  0.9006  0.0483  0.0227
  468MOL0     C63101   9.596   3.080   9.031 -0.0084 -0.9482  0.6907
  468MOL0     C63102   9.735   3.051   9.014 -0.0440 -0.0959 -0.6700
  468MOL0     C63103   9.781   2.916   9.002  0.9604 -0.3480 -0.0738
  468MOL0     O63104   9.907   2.872   8.984 -0.2477  0.2176  0.8085
  468MOL0     C63105   9.998   2.951   8.900 -0.2833  0.6732 -0.0406
  468MOL0     C63106  10.114   2.855   8.872 -0.3474 -0.1994 -0.2017
  468MOL0     C63107  10.207   2.936   8.779  0.3891 -0.1782 -0.5583
  468MOL0     C63108  10.331   2.855   8.749 -0.4744 -0.2110  0.6085
  468MOL0     C63109  10.434   2.856   8.858  0.3408 -0.0590 -0.4792
  468MOL0     C63110  10.514   2.865   8.948  0.0817  0.5378 -0.0425
  468MOL0     C63111   9.681   2.812   9.017 -0.0831 -0.2367  0.1194
  468MOL0     C63112   9.548   2.835   9.030  0.9028  0.3777 -0.5543
  468MOL0     H63113   9.092   3.109   9.040  1.8091 -0.5745  1.2107
  468MOL0     H63114   8.852   3.072   8.991  1.4998  0.5974 -0.6269
  468MOL0     H63115   8.682   2.957   8.870  1.5287 -0.8179 -0.5190
  468MOL0     H63116   8.560   2.853   8.925  0.6376  0.6487 -1.1041
  468MOL0     H63117   8.521   2.984   9.141  0.0068  0.0993 -0.3193
  468MOL0     H63118   8.669   3.077   9.124  1.2071 -1.2869 -0.6158
  468MOL0     H63119   8.479   3.210   9.068 -0.4959  0.1987  0.0059
  468MOL0     H63120   8.577   3.183   8.924 -0.2704 -1.6324 -0.3147
  468MOL0     H63121   8.424   3.005   8.841 -0.6698 -2.4211  2.2809
  468MOL0     H63122   8.321   3.034   8.992  0.8492  2.0896  2.6394
  468MOL0     H63123   8.398   3.269   8.811 -1.1195  2.0975  0.8046
  468MOL0     H63124   8.280   3.166   8.738  1.4269  0.7724 -0.0697
  468MOL0     H63125   8.134   3.176   8.910 -2.3917  2.8866 -1.1982
  468MOL0     H63126   8.255   3.249   9.026  1.1021  0.0380 -0.4386
  468MOL0     H63127   8.094   3.410   8.966 -0.8658 -1.3566 -0.9606
  468MOL0     H63128   8.232   3.462   8.879  0.4669 -0.3439 -0.3877
  468MOL0     H63129   8.155   3.377   8.675  0.2899  1.5131  0.2535
  468MOL0     H63130   8.036   3.491   8.740 -1.7000 -0.5737  0.5736
  468MOL0     H63131   7.863   3.276   8.929  0.8976 -0.3213 -0.0697
  468MOL0     H63132   7.616   3.052   8.734  1.2143  0.6488 -2.0630
  468MOL0     H63133   7.718   2.986   8.864 -2.4481 -0.6328 -0.2188
  468MOL0     H63134   7.617   3.272   8.922 -2.2481 -0.6170 -1.4467
  468MOL0     H63135   7.657   3.139   9.023 -0.0831  0.3475  0.6096
  468MOL0     H63136   7.443   3.037   8.871  0.7005  0.8183 -0.6187
  468MOL0     H63137   7.413   3.195   8.850  0.0974 -1.2014 -1.9407
  468MOL0     H63138   7.393   3.222   9.122 -2.1024 -1.1430  2.0072
  468MOL0     H63139   7.460   3.063   9.131 -0.9051  0.1422  0.2536
  468MOL0     H63140   7.264   3.319   8.935 -1.0702  1.4434 -0.5300
  468MOL0     H63141   7.008   3.535   8.895 -2.2412 -1.8669 -0.8283
  468MOL0     H63142   7.170   3.480   8.847 -0.7708  2.2095  0.5440
  468MOL0     H63143   7.032   3.450   8.733 -0.0885 -0.7169 -0.0121
  468MOL0     H63144   6.608   3.506   8.894 -0.4799  0.4924 -0.1509
  468MOL0     H63145   6.365   3.574   8.844 -2.4424 -0.6462 -0.1235
  468MOL0     H63146   6.045   3.250   8.913 -1.2052 -0.0289 -1.2782
  468MOL0     H63147   6.060   3.340   9.066  0.8345 -1.9717 -0.6494
  468MOL0     H63148   5.900   3.511   8.965  0.7507  0.6453 -0.1169
  468MOL0     H63149   5.926   3.421   8.808 -0.4107  0.9652  0.2673
  468MOL0     H63150   5.783   3.344   9.066 -0.2258  4.3927 -0.7069
  468MOL0     H63151   5.831   3.214   8.943 -1.1243 -0.6244 -2.3670
  468MOL0     H63152   5.633   3.444   8.895 -0.3496 -0.7643  2.1302
  468MOL0     H63153   5.681   3.331   8.771  1.2753  2.0751  0.1461
  468MOL0     H63154   5.557   3.216   9.038  0.5025 -1.7791 -0.8097
  468MOL0     H63155   5.589   3.155   8.882  2.2406  0.2063 -0.2904
  468MOL0     H63156   5.417   3.326   8.779  1.4454 -1.3311 -0.3345
  468MOL0     H63157   5.356   3.203   8.886  1.3344 -0.8260  1.6495
  468MOL0     H63158   5.431   3.503   8.967 -1.5160  0.9815  3.6394
  468MOL0     H63159   5.359   3.387   9.074  0.8150 -4.1812 -1.3583
  468MOL0     H63160   5.217   3.465   8.820 -0.2990  1.6992  0.3129
  468MOL0     H63161   5.203   3.558   8.971  0.5494  0.8363 -0.6092
  468MOL0     H63162   6.250   3.197   9.040  1.6045  0.2730  2.9429
  468MOL0     H63163   6.486   3.135   9.056 -2.2200 -0.1534  0.1858
  468MOL0     H63164   6.841   3.095   9.044  0.7824  1.5124  1.3732
  468MOL0     H63165   7.040   2.995   9.109  2.3799  1.3490  1.5356
  468MOL0     H63166   8.902   2.664   9.094 -0.2746  0.3419  0.5458
  468MOL0     H63167   9.143   2.704   9.130 -0.3404 -0.5427 -0.6306
  468MOL0     H63168   9.560   3.182   9.029  2.5615  0.0379 -0.0206
  468MOL0     H63169   9.798   3.138   9.026  0.0586 -0.2601  0.0520
  468MOL0     H63170   9.960   2.994   8.807 -1.2766  1.3072  0.6420
  468MOL0     H63171  10.032   3.035   8.961 -1.2053  0.2947  1.0134
  468MOL0     H63172  10.093   2.757   8.826  0.3557  0.5361 -2.2010
  468MOL0     H63173  10.159   2.840   8.971 -2.2629  2.3503  1.1489
  468MOL0     H63174  10.238   3.029   8.826 -1.6964 -0.0809  0.7363
  468MOL0     H63175  10.163   2.964   8.683  0.6997 -0.4736 -0.7913
  468MOL0     H63176  10.389   2.892   8.664 -0.8886  1.8107  1.1459
  468MOL0     H63177  10.292   2.754   8.730 -2.1159  0.6029 -0.6228
  468MOL0     H63178  10.589   2.882   9.024 -0.8350  2.5238  0.4939
  468MOL0     H63179   9.722   2.712   9.022  0.4096 -0.0855 -0.6259
  468MOL0     H63180   9.477   2.753   9.032  1.5934 -0.2498  1.5407
  469MOL0     O63181   5.226   1.853   6.428  0.1393  0.1184  0.2153
  469MOL0     C63182   5.200   1.912   6.326  0.8533  0.5820 -0.0343
  469MOL0     O63183   5.072   1.942   6.287  0.3237 -0.4780  0.4183
  469MOL0     C63184   4.972   1.896   6.373 -0.0354  0.1953  0.0163
  469MOL0     C63185   4.929   1.770   6.367 -0.6007  0.3277 -1.1393
  469MOL0     C63186   4.813   1.723   6.437 -1.0836 -0.1084  0.1942
  469MOL0     C63187   4.746   1.808   6.516 -0.2755  0.3366 -0.1185
  469MOL0     O63188   4.630   1.762   6.577 -0.1951 -0.5230 -1.0165
  469MOL0     C63189   4.556   1.649   6.528  0.6006 -0.5023 -1.2103
  469MOL0     C63190   4.467   1.689   6.418 -0.1936  0.7983  0.0269
  469MOL0     C63191   4.387   1.568   6.363 -0.4527  0.3702  0.4422
  469MOL0     C63192   4.460   1.473   6.268 -0.3406 -0.5092 -0.3240
  469MOL0     C63193   4.470   1.510   6.109  0.2726 -0.0047 -0.8503
  469MOL0     C63194   4.531   1.402   6.032 -0.7926  0.2781 -0.7883
  469MOL0     C63195   4.527   1.434   5.879  0.4371  1.1007 -0.1222
  469MOL0     C63196   4.608   1.329   5.800 -0.2572  0.6465  0.4075
  469MOL0     N63197   4.607   1.362   5.654 -0.0294  0.2578  0.7403
  469MOL0     C63198   4.495   1.390   5.585  0.7201  0.1412  0.0168
  469MOL0     C63199   4.539   1.439   5.464  0.7152 -0.4287  0.0195
  469MOL0     C63200   4.440   1.484   5.364  0.8341 -0.4233  0.4751
  469MOL0     C63201   4.347   1.373   5.316 -0.1618 -0.0529 -0.5691
  469MOL0     C63202   4.435   1.262   5.253  0.5918  0.6133  0.0817
  469MOL0     C63203   4.333   1.150   5.207 -0.4871 -0.2899  0.2136
  469MOL0     O63204   4.305   1.049   5.307 -0.5548 -0.0947 -0.5403
  469MOL0     C63205   4.183   0.989   5.308 -0.0708 -0.7277  0.7025
  469MOL0     C63206   4.106   0.965   5.198  0.2234 -0.6492 -0.5812
  469MOL0     C63207   3.981   0.899   5.207  0.2962 -0.6873  0.0552
  469MOL0     C63208   3.922   0.860   5.076 -0.4882  0.3805  0.1808
  469MOL0     C63209   3.927   0.865   5.334 -0.4337 -0.3545 -0.5588
  469MOL0     C63210   3.790   0.816   5.356  0.6370 -0.5367  0.1041
  469MOL0     O63211   3.756   0.780   5.485  0.2981 -0.3823  0.0176
  469MOL0     C63212   3.631   0.734   5.517 -0.3110 -0.0135  0.5594
  469MOL0     C63213   3.522   0.816   5.495  0.3094 -0.9584  0.1804
  469MOL0     C63214   3.390   0.783   5.525 -0.3269  0.4405  0.0253
  469MOL0     C63215   3.363   0.663   5.586  0.3053 -0.0803  0.5995
  469MOL0     O63216   3.235   0.638   5.634 -0.1059  0.4660  0.2346
  469MOL0     C63217   3.197   0.515   5.682 -0.3803 -0.1255 -0.5528
  469MOL0     C63218   3.039   0.503   5.695 -0.3709 -0.1980  0.1596
  469MOL0     C63219   3.010   0.387   5.796  0.0726  0.3469 -0.0187
  469MOL0     C63220   2.870   0.325   5.803 -0.3875 -0.4569 -0.5892
  469MOL0     C63221   2.821   0.306   5.951 -0.0171  0.5142  0.3702
  469MOL0     C63222   2.687   0.225   5.928  0.0657  0.9831  0.3927
  469MOL0     C63223   2.661   0.120   6.038  0.5725 -0.5227  0.6318
  469MOL0     C63224   2.577   0.007   5.995 -0.3233 -0.3456  0.4515
  469MOL0    Cl63225   2.526  -0.073   6.138 -0.0261 -0.2494  0.4957
  469MOL0     C63226   3.470   0.577   5.606 -0.4271 -0.1198  0.2272
  469MOL0     C63227   3.603   0.608   5.576 -0.3542 -0.4333 -0.3684
  469MOL0     O63228   3.708   0.805   5.267 -0.4958  0.1056  0.4846
  469MOL0     C63229   4.007   0.901   5.439 -0.6853  0.0938 -0.0891
  469MOL0     C63230   4.132   0.954   5.427  0.9055  0.5824 -0.1135
  469MOL0     N63231   4.681   1.442   5.468  0.3303  0.4714 -0.0320
  469MOL0     N63232   4.719   1.393   5.581 -0.3139  0.0335  0.4416
  469MOL0     C63233   4.779   1.942   6.522  0.4015  0.0482  0.6871
  469MOL0     C63234   4.896   1.980   6.449 -0.0983  0.0547 -0.6801
  469MOL0     C63235   5.316   1.960   6.248 -1.0508 -0.6003  0.0361
  469MOL0     C63236   5.451   1.952   6.291  1.0386 -0.5306  0.1014
  469MOL0     C63237   5.555   1.988   6.208 -0.2549 -0.5980  1.1983
  469MOL0     C63238   5.532   2.015   6.066  0.3054  0.0873  0.0486
  469MOL0     O63239   5.634   2.072   5.991  1.1064  0.1107 -0.9799
  469MOL0     C63240   5.626   2.210   5.982  1.1240  0.8017  0.6537
  469MOL0     C63241   5.733   2.252   5.879 -1.0622  0.0083  0.7512
  469MOL0     C63242   5.749   2.400   5.884 -0.7170  0.1456  0.0009
  469MOL0     C63243   5.826   2.456   5.765 -0.1209 -0.0148  0.7335
  469MOL0     C63244   5.974   2.442   5.802  0.4119  0.4057  0.3597
  469MOL0     C63245   6.095   2.442   5.814 -0.8997  0.0045 -0.8321
  469MOL0     C63246   5.395   2.011   6.024  0.0554  0.6090  0.6264
  469MOL0     C63247   5.287   1.994   6.116  0.9145  1.2086 -0.0597
  469MOL0     H63248   4.984   1.704   6.301 -2.8866 -2.1762 -0.7461
  469MOL0     H63249   4.798   1.618   6.417  1.7980 -0.8147  1.2342
  469MOL0     H63250   4.611   1.556   6.512  1.3985 -0.2482 -0.0888
  469MOL0     H63251   4.484   1.631   6.609  0.6179 -1.4074 -1.3889
  469MOL0     H63252   4.393   1.765   6.446 -1.0235  1.0571 -2.5338
  469MOL0     H63253   4.529   1.730   6.337  2.7871  3.1056  3.1706
  469MOL0     H63254   4.355   1.504   6.446  3.7208 -3.0804 -0.2278
  469MOL0     H63255   4.306   1.611   6.305 -0.2570 -2.5618 -2.3013
  469MOL0     H63256   4.560   1.455   6.309 -1.7416  0.5344  4.1573
  469MOL0     H63257   4.407   1.377   6.265 -1.6002  0.1813 -0.6118
  469MOL0     H63258   4.366   1.519   6.075 -0.7202  1.5502  2.2342
  469MOL0     H63259   4.523   1.602   6.085 -3.2116  1.8074 -2.3979
  469MOL0     H63260   4.636   1.404   6.063 -1.2058 -0.0594  0.6972
  469MOL0     H63261   4.495   1.302   6.053 -0.3308 -0.1672 -2.0048
  469MOL0     H63262   4.422   1.423   5.852  0.1714  1.8349  0.5580
  469MOL0     H63263   4.554   1.538   5.855 -0.6406  1.1432 -1.2634
  469MOL0     H63264   4.557   1.235   5.822  1.7835 -0.9171 -1.2279
  469MOL0     H63265   4.711   1.323   5.834  0.9559 -0.0934 -3.0246
  469MOL0     H63266   4.392   1.375   5.616  1.9110 -2.9565  3.1763
  469MOL0     H63267   4.390   1.562   5.421  1.4126  0.2422  0.0807
  469MOL0     H63268   4.486   1.528   5.275  0.2274 -2.1530 -0.7677
  469MOL0     H63269   4.283   1.415   5.238 -0.7794  0.9057  0.4179
  469MOL0     H63270   4.283   1.335   5.396 -0.1484 -3.0090 -1.8292
  469MOL0     H63271   4.517   1.219   5.312 -0.2894 -1.5057 -0.1596
  469MOL0     H63272   4.492   1.308   5.171  0.5104  1.6697  0.6035
  469MOL0     H63273   4.374   1.102   5.117  1.5705  0.7443  0.5403
  469MOL0     H63274   4.238   1.197   5.180 -0.3180  0.6877  1.2367
  469MOL0     H63275   4.159   0.987   5.106  0.4989  0.8981 -0.0777
  469MOL0     H63276   4.004   0.860   5.003 -0.7715  1.3741 -0.1502
  469MOL0     H63277   3.883   0.758   5.073  0.2771  0.0939 -0.4089
  469MOL0     H63278   3.838   0.929   5.066 -0.2957  0.6778  0.5866
  469MOL0     H63279   3.542   0.911   5.446  3.4896 -0.5394  1.9443
  469MOL0     H63280   3.306   0.850   5.507 -0.3500  0.1091 -1.2663
  469MOL0     H63281   3.230   0.429   5.622  2.1190 -0.9551  1.8050
  469MOL0     H63282   3.243   0.498   5.779 -1.9732  0.2553  0.2957
  469MOL0     H63283   2.988   0.592   5.733  0.1937  1.5837 -2.8285
  469MOL0     H63284   3.000   0.488   5.594 -1.3758  2.5977  0.0455
  469MOL0     H63285   3.036   0.438   5.890  1.3252  1.1894 -0.7825
  469MOL0     H63286   3.077   0.301   5.788 -0.6212 -0.6462  3.3130
  469MOL0     H63287   2.805   0.393   5.747 -2.0164  0.8132  2.5820
  469MOL0     H63288   2.867   0.228   5.754  0.3328 -1.9587  2.0975
  469MOL0     H63289   2.805   0.401   6.001 -2.3504  1.1722 -1.4569
  469MOL0     H63290   2.892   0.244   6.008 -0.3181  1.0271  1.3142
  469MOL0     H63291   2.606   0.299   5.923 -3.1216 -2.2909 -0.7916
  469MOL0     H63292   2.681   0.175   5.831 -1.6776  0.5121  0.7157
  469MOL0     H63293   2.604   0.171   6.116  0.6290 -0.6262  0.7421
  469MOL0     H63294   2.752   0.086   6.089 -0.0496 -1.7082  0.9950
  469MOL0     H63295   2.624  -0.062   5.925  0.7725 -0.0677  0.8777
  469MOL0     H63296   2.490   0.047   5.943  0.2147 -1.3741 -1.3221
  469MOL0     H63297   3.445   0.479   5.647  0.6143  0.2208  1.7685
  469MOL0     H63298   3.680   0.542   5.614  1.5849  1.6599 -0.4081
  469MOL0     H63299   3.957   0.896   5.536 -3.7878 -0.3561 -1.5791
  469MOL0     H63300   4.188   0.968   5.519  3.1615  0.1886 -1.3402
  469MOL0     H63301   4.714   2.011   6.574 -0.0828 -0.0238  0.1849
  469MOL0     H63302   4.913   2.088   6.445 -0.4044  0.1027 -0.6847
  469MOL0     H63303   5.459   1.910   6.390 -1.6949 -1.3578  0.0529
  469MOL0     H63304   5.656   2.001   6.244 -0.2295 -2.3734  1.8584
  469MOL0     H63305   5.528   2.243   5.949  1.5081 -0.8425 -2.4160
  469MOL0     H63306   5.648   2.256   6.079  2.2847  1.3558  0.1431
  469MOL0     H63307   5.690   2.237   5.779 -0.6494  2.9262  0.0455
  469MOL0     H63308   5.830   2.201   5.889 -1.2834 -0.0249  3.4483
  469MOL0     H63309   5.779   2.438   5.982 -1.4045  1.2284 -0.1984
  469MOL0     H63310   5.649   2.439   5.861 -0.1064 -0.7184 -5.5401
  469MOL0     H63311   5.801   2.559   5.739 -3.3676 -0.7016  0.7501
  469MOL0     H63312   5.805   2.391   5.680  0.3265  0.1632  0.4805
  469MOL0     H63313   6.201   2.433   5.824 -1.1214 -0.4291  1.6845
  469MOL0     H63314   5.362   2.023   5.922 -2.8483 -0.3866  1.3414
  469MOL0     H63315   5.184   1.988   6.081 -0.0206 -1.7653  2.7723
  470MOL0     O63316   4.528   6.437   2.722 -0.5800  0.1524 -0.4569
  470MOL0     C63317   4.620   6.349   2.725  0.4844  0.2594  0.4357
  470MOL0     O63318   4.606   6.209   2.724 -0.4274  0.1824  1.0974
  470MOL0     C63319   4.465   6.182   2.729 -0.9844 -0.4961 -0.7006
  470MOL0     C63320   4.392   6.150   2.618 -0.5568 -0.0363  0.4305
  470MOL0     C63321   4.257   6.108   2.629  0.2463 -0.4935 -0.1225
  470MOL0     C63322   4.195   6.109   2.755 -0.7854 -0.0464  0.0933
  470MOL0     O63323   4.061   6.069   2.749 -0.2919  0.1982  0.1787
  470MOL0     C63324   4.003   5.998   2.862 -0.4219  0.3303  0.0468
  470MOL0     C63325   3.989   5.849   2.818  0.3685  0.2526 -0.2282
  470MOL0     C63326   3.954   5.753   2.935 -0.1756  0.5052 -0.3117
  470MOL0     C63327   3.910   5.610   2.878 -0.3583  0.4351  0.6868
  470MOL0     C63328   3.899   5.515   3.004 -0.1393  0.1093  0.0447
  470MOL0     C63329   3.873   5.368   2.955 -0.4262 -0.6245 -0.1515
  470MOL0     C63330   3.861   5.265   3.067 -0.0838 -0.9715  0.2522
  470MOL0     C63331   3.798   5.138   3.017 -0.8201 -0.6462  0.1400
  470MOL0     N63332   3.893   5.073   2.916 -0.5823 -0.4710 -0.0619
  470MOL0     C63333   3.868   5.071   2.785  0.2465 -0.6455  0.4112
  470MOL0     C63334   3.937   4.964   2.735 -0.0908  0.1440  0.3200
  470MOL0     C63335   3.966   4.924   2.595  0.5488  0.5137  0.2319
  470MOL0     C63336   3.913   4.781   2.562  0.3948  0.4823  0.0606
  470MOL0     C63337   3.897   4.737   2.411  0.0609 -0.6032 -0.5882
  470MOL0     C63338   3.757   4.752   2.349  0.3226 -0.6233 -0.2988
  470MOL0     O63339   3.691   4.876   2.382  0.1722  0.3724  0.3134
  470MOL0     C63340   3.589   4.911   2.302  0.6275 -0.8249  0.1301
  470MOL0     C63341   3.518   4.844   2.206 -0.6667 -0.1457  0.1719
  470MOL0     C63342   3.414   4.904   2.138  0.9341 -0.1121 -0.5605
  470MOL0     C63343   3.337   4.820   2.045 -0.4184 -0.1681  0.4663
  470MOL0     C63344   3.368   5.034   2.167  0.5509 -0.4311  0.4752
  470MOL0     C63345   3.250   5.099   2.109 -0.3302 -0.1399 -0.2724
  470MOL0     O63346   3.269   5.224   2.062 -0.4976 -0.1854  0.3335
  470MOL0     C63347   3.173   5.299   1.989  0.7372 -1.1388  1.1305
  470MOL0     C63348   3.217   5.364   1.877  0.0319  0.9527  0.3910
  470MOL0     C63349   3.128   5.416   1.784 -0.2923  0.7103 -0.2602
  470MOL0     C63350   2.993   5.406   1.808 -0.4003 -0.7431  1.0547
  470MOL0     O63351   2.915   5.467   1.707  0.5855 -0.3434 -1.0469
  470MOL0     C63352   2.779   5.506   1.742 -0.5660  0.5124 -0.7804
  470MOL0     C63353   2.712   5.569   1.619 -0.0967  0.0572  0.0018
  470MOL0     C63354   2.557   5.556   1.627  0.3486 -0.7871 -0.5205
  470MOL0     C63355   2.507   5.410   1.609 -0.0163 -0.3267  0.2158
  470MOL0     C63356   2.350   5.403   1.615 -0.0602 -0.6653 -0.2896
  470MOL0     C63357   2.292   5.483   1.748 -0.0266 -0.4417  0.6886
  470MOL0     C63358   2.363   5.455   1.870 -0.1157 -0.6721  0.2309
  470MOL0     C63359   2.282   5.515   1.997 -0.3021  0.2344  0.6850
  470MOL0    Cl63360   2.119   5.432   2.003 -0.2132  0.4700 -0.1846
  470MOL0     C63361   2.946   5.334   1.924 -0.3691  0.0074  0.2632
  470MOL0     C63362   3.038   5.280   2.013  0.8986 -0.6636 -0.1649
  470MOL0     O63363   3.144   5.034   2.100  0.3391 -0.2855  0.5109
  470MOL0     C63364   3.441   5.104   2.267 -0.3801  0.0935  0.7010
  470MOL0     C63365   3.552   5.045   2.330 -0.0105  0.8056 -0.5335
  470MOL0     N63366   3.992   4.902   2.847 -0.0893 -0.7428 -0.0036
  470MOL0     N63367   3.963   4.965   2.952  0.5369  0.4100  0.2469
  470MOL0     C63368   4.268   6.169   2.857 -0.1583  0.3626  0.5270
  470MOL0     C63369   4.404   6.198   2.854  0.3593  0.2549  0.3347
  470MOL0     C63370   4.766   6.396   2.730  0.0853  0.4034 -0.5767
  470MOL0     C63371   4.863   6.293   2.756  0.7515 -0.9764  0.5330
  470MOL0     C63372   4.999   6.335   2.780  0.9656 -0.0792 -0.1226
  470MOL0     C63373   5.042   6.468   2.768 -0.2910 -0.1590 -0.4715
  470MOL0     O63374   5.173   6.489   2.781  0.6224  0.2836  0.1016
  470MOL0     C63375   5.224   6.601   2.711 -0.3060  0.3306  0.4087
  470MOL0     C63376   5.382   6.588   2.731 -0.1509  0.6986 -0.4079
  470MOL0     C63377   5.457   6.547   2.607  0.4609  0.0758 -0.1309
  470MOL0     C63378   5.608   6.525   2.636 -0.0245 -0.4235 -0.0655
  470MOL0     C63379   5.678   6.654   2.652 -0.1773 -0.8669  0.5555
  470MOL0     C63380   5.729   6.759   2.691  0.5638  0.6036 -1.2383
  470MOL0     C63381   4.942   6.563   2.737 -0.1171 -0.5597 -0.3441
  470MOL0     C63382   4.806   6.531   2.722  0.4706 -0.7530  0.4115
  470MOL0     H63383   4.452   6.147   2.528 -2.7167 -0.7952 -1.0465
  470MOL0     H63384   4.198   6.078   2.543 -3.1727  0.3082  1.7213
  470MOL0     H63385   4.066   6.011   2.950 -0.1698  2.2367 -0.3804
  470MOL0     H63386   3.914   6.051   2.897  1.7453  3.9825  0.4988
  470MOL0     H63387   3.907   5.838   2.746  0.9711 -2.0009 -0.6438
  470MOL0     H63388   4.080   5.812   2.770  0.6367 -1.7529  1.6661
  470MOL0     H63389   4.040   5.740   3.001 -1.0425 -2.7437  0.3911
  470MOL0     H63390   3.867   5.782   2.996  1.5798  0.5922  2.3259
  470MOL0     H63391   3.809   5.611   2.835  0.5483  1.4337 -1.5607
  470MOL0     H63392   3.970   5.570   2.796  0.7757  3.5174 -0.1278
  470MOL0     H63393   3.992   5.518   3.063  1.1347  0.6876 -1.8883
  470MOL0     H63394   3.817   5.543   3.071 -0.2743 -1.1419  0.4336
  470MOL0     H63395   3.785   5.371   2.889 -1.3462  0.8619  1.0870
  470MOL0     H63396   3.956   5.348   2.886 -0.7641  3.1131 -1.8933
  470MOL0     H63397   3.957   5.251   3.117 -0.1270 -2.0669  0.0600
  470MOL0     H63398   3.795   5.307   3.143  0.1681 -1.7049  0.8967
  470MOL0     H63399   3.708   5.163   2.960  0.0624  1.3756 -0.4752
  470MOL0     H63400   3.765   5.068   3.094 -0.0627 -1.4645 -0.2601
  470MOL0     H63401   3.817   5.149   2.729 -0.9115 -1.6375  0.0528
  470MOL0     H63402   3.913   4.986   2.522  0.5574 -1.3050 -1.4238
  470MOL0     H63403   4.074   4.927   2.584  0.7233 -0.0634  1.6125
  470MOL0     H63404   3.823   4.757   2.620 -1.3877  0.4883 -2.4925
  470MOL0     H63405   3.984   4.712   2.608  1.9764  1.3589 -0.9654
  470MOL0     H63406   3.915   4.630   2.402 -0.5035 -0.9608  1.8123
  470MOL0     H63407   3.967   4.798   2.353  0.2024  1.1624  1.2987
  470MOL0     H63408   3.707   4.659   2.378  1.9567 -2.3392 -2.6320
  470MOL0     H63409   3.756   4.746   2.240 -0.4371  1.7874 -0.4926
  470MOL0     H63410   3.539   4.741   2.182 -2.5907 -0.8736  1.4019
  470MOL0     H63411   3.326   4.869   1.947  3.6815  0.0586 -0.0700
  470MOL0     H63412   3.381   4.721   2.030 -1.6492 -0.7440  0.5493
  470MOL0     H63413   3.241   4.791   2.087 -0.1496 -4.0573 -1.2028
  470MOL0     H63414   3.319   5.377   1.844 -0.3029  0.4337 -0.9130
  470MOL0     H63415   3.159   5.443   1.684  0.5903 -0.1098 -0.2239
  470MOL0     H63416   2.727   5.416   1.775 -0.4906  0.4110 -0.9402
  470MOL0     H63417   2.789   5.566   1.833  4.0167 -2.8562  1.2727
  470MOL0     H63418   2.739   5.675   1.620  0.5925 -0.1114  1.1012
  470MOL0     H63419   2.743   5.511   1.532 -1.7761  1.5425 -1.6854
  470MOL0     H63420   2.528   5.616   1.540  1.3954 -0.9840 -1.0239
  470MOL0     H63421   2.519   5.599   1.720 -2.4356 -0.2688 -1.8011
  470MOL0     H63422   2.532   5.376   1.507 -1.7305 -1.5197  0.1519
  470MOL0     H63423   2.544   5.339   1.683 -0.7116 -0.7814  0.1357
  470MOL0     H63424   2.325   5.299   1.639 -0.0500 -0.5005  0.4554
  470MOL0     H63425   2.286   5.438   1.533  1.0959  2.3006 -0.0579
  470MOL0     H63426   2.297   5.591   1.728 -4.3814 -0.0131  1.0354
  470MOL0     H63427   2.188   5.452   1.751  0.4431 -2.0170  1.2807
  470MOL0     H63428   2.464   5.495   1.872 -1.7565  4.3605 -1.9399
  470MOL0     H63429   2.372   5.348   1.891 -1.5042 -0.7435  0.6152
  470MOL0     H63430   2.273   5.623   1.982 -0.6578  0.3954  1.9960
  470MOL0     H63431   2.339   5.500   2.089 -0.3399  1.8442  1.0073
  470MOL0     H63432   2.842   5.312   1.944 -0.1717  0.9674  2.7831
  470MOL0     H63433   3.001   5.228   2.101  0.2806 -1.9791 -1.1724
  470MOL0     H63434   3.421   5.209   2.285  1.3011  0.5554  0.1592
  470MOL0     H63435   3.615   5.109   2.390  0.6252  0.3263 -0.6736
  470MOL0     H63436   4.225   6.171   2.957  1.2191  0.2653  1.1612
  470MOL0     H63437   4.467   6.227   2.937 -1.4477  0.8576  1.5466
  470MOL0     H63438   4.837   6.188   2.751  1.2570 -1.0602 -1.9181
  470MOL0     H63439   5.068   6.252   2.795 -0.8478 -1.4605  0.8850
  470MOL0     H63440   5.191   6.589   2.607  0.9911 -2.6352  0.2276
  470MOL0     H63441   5.193   6.696   2.756 -0.5801 -0.7080  2.5016
  470MOL0     H63442   5.401   6.516   2.812 -0.9512 -1.2148 -1.8293
  470MOL0     H63443   5.421   6.685   2.764  0.3869  0.9530 -1.7268
  470MOL0     H63444   5.443   6.628   2.535  0.4531 -1.0137 -1.3876
  470MOL0     H63445   5.404   6.462   2.564  0.2251  0.0404  0.2213
  470MOL0     H63446   5.657   6.486   2.546 -0.5130  0.9623 -0.9630
  470MOL0     H63447   5.609   6.473   2.732 -1.9853  1.6090  1.1666
  470MOL0     H63448   5.772   6.849   2.730  1.6245 -0.8644  1.1470
  470MOL0     H63449   4.975   6.667   2.738 -0.8612 -0.3122 -1.0142
  470MOL0     H63450   4.726   6.599   2.698 -1.0864 -2.7783 -0.4523
  471MOL0     O63451   0.663   6.378  10.851 -0.0502  0.1089 -0.9294
  471MOL0     C63452   0.725   6.468  10.801  0.1945  0.2806 -0.4504
  471MOL0     O63453   0.679   6.590  10.770 -0.2020  0.1644 -0.1401
  471MOL0     C63454   0.549   6.609  10.738  0.0306  0.0578  0.5593
  471MOL0     C63455   0.463   6.662  10.838 -1.5003  0.7858 -0.4012
  471MOL0     C63456   0.341   6.710  10.797  0.3800 -0.3108 -0.3487
  471MOL0     C63457   0.297   6.701  10.667  0.3804 -0.4974  0.2696
  471MOL0     O63458   0.175   6.759  10.665  0.6504  0.0613  1.0446
  471MOL0     C63459   0.135   6.824  10.540 -0.1382 -0.3283 -0.1038
  471MOL0     C63460  -0.022   6.847  10.551 -0.1340  0.8598 -0.5227
  471MOL0     C63461  -0.040   6.968  10.642 -0.0293 -0.4890  0.1379
  471MOL0     C63462  -0.184   7.026  10.632  0.7666 -0.9635  0.5420
  471MOL0     C63463  -0.199   7.186  10.657 -0.3310 -0.4924 -0.9100
  471MOL0     C63464  -0.140   7.233  10.795  0.6139 -0.7039 -0.5022
  471MOL0     C63465  -0.184   7.385  10.821  0.2020  0.6547 -1.3407
  471MOL0     C63466  -0.133   7.495  10.735 -0.4523 -0.1524  0.2068
  471MOL0     N63467   0.006   7.525  10.720 -0.0737 -0.9634 -0.5924
  471MOL0     C63468   0.090   7.566  10.825  0.1771  0.4600 -0.2664
  471MOL0     C63469   0.210   7.565  10.769  0.5131 -0.5400 -0.0398
  471MOL0     C63470   0.348   7.572  10.839  0.8164 -0.4989 -0.3371
  471MOL0     C63471   0.454   7.494  10.760 -0.7704  0.0568  0.1572
  471MOL0     C63472   0.582   7.461  10.851 -0.6516  1.2196  0.4566
  471MOL0     C63473   0.707   7.424  10.768 -0.6515 -0.5069  0.4274
  471MOL0     O63474   0.815   7.395  10.856  0.3009 -0.0725 -0.1951
  471MOL0     C63475   0.938   7.358  10.801  0.1552  0.6341  0.1197
  471MOL0     C63476   0.975   7.399  10.670 -0.6114  0.3128 -0.3864
  471MOL0     C63477   1.099   7.364  10.617  0.1494  0.0040  0.2435
  471MOL0     C63478   1.128   7.419  10.475 -0.9290 -0.4269  0.1319
  471MOL0     C63479   1.196   7.293  10.693 -0.9867  0.4048 -0.0923
  471MOL0     C63480   1.329   7.251  10.645  0.0156  0.3904  0.7126
  471MOL0     O63481   1.398   7.168  10.730 -0.2674  0.4685  0.3185
  471MOL0     C63482   1.521   7.124  10.689 -0.7840 -0.1438  0.1094
  471MOL0     C63483   1.617   7.110  10.795  0.9527 -0.0621  0.0947
  471MOL0     C63484   1.745   7.066  10.767 -0.3095  0.8976 -0.1324
  471MOL0     C63485   1.785   7.031  10.640 -0.8424 -0.7492  0.4160
  471MOL0     O63486   1.918   7.008  10.601  0.2324 -0.2693  0.0525
  471MOL0     C63487   2.022   7.050  10.690  0.4788  1.0064  0.4290
  471MOL0     C63488   2.162   7.038  10.644  0.1229  0.1310  0.4172
  471MOL0     C63489   2.255   6.980  10.746 -0.4483  0.2738 -0.3206
  471MOL0     C63490   2.306   7.091  10.846  0.1135  0.1446 -0.6807
  471MOL0     C63491   2.369   7.019  10.969 -0.1764  0.5472 -0.7061
  471MOL0     C63492   2.459   7.124  11.046  0.3333  0.5586 -0.0036
  471MOL0     C63493   2.552   7.042  11.140  0.7335  0.4428 -0.3011
  471MOL0     C63494   2.667   7.126  11.187 -0.4507  0.1050  0.9512
  471MOL0    Cl63495   2.771   7.017  11.294  0.0674  0.4772 -0.2925
  471MOL0     C63496   1.690   7.033  10.539 -0.1584  0.1467 -0.0774
  471MOL0     C63497   1.562   7.082  10.557 -0.1593 -1.0114 -0.0146
  471MOL0     O63498   1.380   7.316  10.555  0.1291 -0.1347 -0.0004
  471MOL0     C63499   1.165   7.259  10.829 -0.1208 -0.0754  0.3943
  471MOL0     C63500   1.035   7.287  10.875  0.0372  0.5861  0.6415
  471MOL0     N63501   0.195   7.556  10.633 -0.2967  0.1287  0.3822
  471MOL0     N63502   0.074   7.517  10.607  0.6730  0.4564  0.7925
  471MOL0     C63503   0.381   6.650  10.566  0.0974  0.3948  0.4984
  471MOL0     C63504   0.512   6.606  10.606 -0.2909 -0.7495 -0.7950
  471MOL0     C63505   0.865   6.434  10.780  0.1648  0.4695 -0.2881
  471MOL0     C63506   0.912   6.299  10.811 -0.0892 -0.5100 -0.2180
  471MOL0     C63507   1.047   6.270  10.791  0.2779 -0.2881  0.6223
  471MOL0     C63508   1.137   6.369  10.736 -0.2198  0.2151 -0.1773
  471MOL0     O63509   1.262   6.320  10.708  0.2611  0.0610 -0.0503
  471MOL0     C63510   1.342   6.402  10.623 -0.5391  0.2312  0.4830
  471MOL0     C63511   1.493   6.365  10.613 -0.1904 -0.6043  0.0379
  471MOL0     C63512   1.564   6.370  10.750 -0.9925  0.4751  0.6758
  471MOL0     C63513   1.718   6.349  10.749 -0.4942 -0.7924  1.0422
  471MOL0     C63514   1.784   6.353  10.881  0.7595  0.1546 -0.0701
  471MOL0     C63515   1.848   6.355  10.982 -0.0002  0.1761 -0.2859
  471MOL0     C63516   1.090   6.500  10.710  0.2590  0.8961 -0.2270
  471MOL0     C63517   0.955   6.525  10.723 -1.2287 -0.2458 -0.4151
  471MOL0     H63518   0.498   6.685  10.938  2.2254  0.5951 -1.5351
  471MOL0     H63519   0.282   6.752  10.879  0.5524 -1.9468  0.6624
  471MOL0     H63520   0.184   6.921  10.525  0.7212 -0.5047  1.3908
  471MOL0     H63521   0.160   6.769  10.449 -0.2454  2.1315 -1.7130
  471MOL0     H63522  -0.058   6.877  10.452  0.3166  1.5022 -0.4980
  471MOL0     H63523  -0.077   6.758  10.583 -0.4428  0.7880 -1.2211
  471MOL0     H63524  -0.021   6.942  10.746 -0.1290 -0.6223  0.1226
  471MOL0     H63525   0.029   7.044  10.604 -1.6548  0.7246 -0.5188
  471MOL0     H63526  -0.215   7.015  10.528  0.0829 -1.2755  0.7728
  471MOL0     H63527  -0.252   6.970  10.696  0.3036 -0.1525  0.7706
  471MOL0     H63528  -0.142   7.241  10.581  0.9019 -0.8731 -0.3008
  471MOL0     H63529  -0.304   7.211  10.645 -0.4777 -0.2127  0.7514
  471MOL0     H63530  -0.193   7.173  10.870  0.2963  0.2484  0.0528
  471MOL0     H63531  -0.031   7.222  10.794  0.8580  1.2788  0.2322
  471MOL0     H63532  -0.293   7.393  10.811  0.4206  0.5655 -5.8018
  471MOL0     H63533  -0.161   7.410  10.925 -1.0246  0.9829 -1.1366
  471MOL0     H63534  -0.183   7.589  10.761  1.0413 -0.2960  4.3470
  471MOL0     H63535  -0.155   7.456  10.636  1.4478  0.7902 -0.6232
  471MOL0     H63536   0.063   7.572  10.930  0.2966 -4.0005  0.2312
  471MOL0     H63537   0.375   7.677  10.853  3.2401 -0.7166 -2.7101
  471MOL0     H63538   0.336   7.535  10.941 -0.3980 -1.1801 -0.6944
  471MOL0     H63539   0.490   7.552  10.674 -0.1960 -0.7658 -0.1744
  471MOL0     H63540   0.407   7.405  10.715 -1.8415  1.0754 -0.8019
  471MOL0     H63541   0.567   7.386  10.929 -0.1799  2.4502  1.7534
  471MOL0     H63542   0.599   7.554  10.906 -5.0163  2.7123 -0.2792
  471MOL0     H63543   0.736   7.509  10.706 -0.6766 -0.4877  0.4405
  471MOL0     H63544   0.691   7.338  10.702 -0.1174 -0.5116  0.3003
  471MOL0     H63545   0.912   7.456  10.602  1.3846 -0.5282 -3.1252
  471MOL0     H63546   1.035   7.462  10.437 -0.3150  3.3316  2.3595
  471MOL0     H63547   1.200   7.501  10.469 -2.5811  1.0531 -0.3615
  471MOL0     H63548   1.158   7.336  10.410  0.1999 -1.5865  2.0318
  471MOL0     H63549   1.595   7.134  10.898  1.9240  1.8264 -0.0980
  471MOL0     H63550   1.816   7.057  10.848 -0.3476 -2.3768 -0.3224
  471MOL0     H63551   2.010   7.158  10.703 -0.6937  0.7459  1.7654
  471MOL0     H63552   2.008   7.016  10.793 -2.6139  0.9067  0.0709
  471MOL0     H63553   2.168   6.985  10.548 -2.0025 -1.1008  0.9165
  471MOL0     H63554   2.198   7.136  10.609  1.8252 -1.7045 -3.5603
  471MOL0     H63555   2.338   6.931  10.695  0.1757 -1.1071  1.8880
  471MOL0     H63556   2.220   6.886  10.791 -1.3662 -0.2404 -2.0160
  471MOL0     H63557   2.381   7.147  10.791  0.3329 -1.7959 -2.5114
  471MOL0     H63558   2.237   7.171  10.872 -0.7228 -0.2127 -1.7126
  471MOL0     H63559   2.432   6.934  10.940 -0.9673 -0.7192  1.1341
  471MOL0     H63560   2.295   6.971  11.032  2.0349 -2.0224  0.1433
  471MOL0     H63561   2.522   7.174  10.972  1.7646  0.0900  0.8740
  471MOL0     H63562   2.400   7.199  11.102 -2.2712 -0.6623 -0.9467
  471MOL0     H63563   2.598   6.958  11.089  1.0562  1.7300 -2.2342
  471MOL0     H63564   2.490   7.012  11.225  0.1214  2.2463 -0.0635
  471MOL0     H63565   2.639   7.224  11.225  0.0034  2.4857 -4.0933
  471MOL0     H63566   2.733   7.147  11.102  3.9154  1.2960  4.2881
  471MOL0     H63567   1.709   7.008  10.435 -1.5637  1.4742 -0.6799
  471MOL0     H63568   1.483   7.081  10.482 -1.0277 -1.1008  0.8722
  471MOL0     H63569   1.225   7.212  10.906 -0.7639 -2.7631 -0.6303
  471MOL0     H63570   1.022   7.263  10.980 -0.0808 -0.5504  0.3856
  471MOL0     H63571   0.361   6.641  10.460  3.0426  1.0580 -0.2110
  471MOL0     H63572   0.582   6.574  10.530 -0.2539  0.5969 -1.3652
  471MOL0     H63573   0.850   6.229  10.865 -0.2013 -0.0487  0.2704
  471MOL0     H63574   1.088   6.175  10.827  0.2560 -0.8565 -0.7770
  471MOL0     H63575   1.287   6.413  10.529 -1.9766  0.8195  1.3504
  471MOL0     H63576   1.345   6.502  10.667 -0.8243  1.4300 -2.0192
  471MOL0     H63577   1.528   6.427  10.531 -1.5672 -1.2487 -1.0767
  471MOL0     H63578   1.499   6.260  10.583 -1.8666 -1.5353  2.5675
  471MOL0     H63579   1.535   6.285  10.812  2.8490  0.0262  2.1151
  471MOL0     H63580   1.538   6.463  10.801  0.1509  1.2618 -0.1371
  471MOL0     H63581   1.764   6.424  10.683  1.0879 -0.6254  2.2484
  471MOL0     H63582   1.743   6.253  10.703 -1.0584 -1.3237  1.8163
  471MOL0     H63583   1.908   6.357  11.070  1.2387  0.3401 -1.1166
  471MOL0     H63584   1.155   6.583  10.686 -0.1916  2.4081  3.2039
  471MOL0     H63585   0.928   6.622  10.682  0.8599  0.1119 -1.0685
  472MOL0     O63586   1.171   2.730   2.855  0.3892 -0.2777  0.0559
  472MOL0     C63587   1.245   2.654   2.800  0.0875  0.1060  0.4350
  472MOL0     O63588   1.216   2.524   2.773  0.0992  0.0238  1.0874
  472MOL0     C63589   1.084   2.487   2.808 -1.0042 -0.5605 -0.2562
  472MOL0     C63590   1.068   2.453   2.942  0.1938 -0.3514 -0.2045
  472MOL0     C63591   0.939   2.427   2.993  0.4674  0.5271 -1.1047
  472MOL0     C63592   0.825   2.431   2.911 -0.2382  0.0352 -0.8325
  472MOL0     O63593   0.693   2.434   2.941  1.2667  0.2474  0.2591
  472MOL0     C63594   0.663   2.380   3.074 -0.3614  0.1365  0.0777
  472MOL0     C63595   0.514   2.381   3.092  0.4768 -0.1119  0.3545
  472MOL0     C63596   0.497   2.325   3.227  0.6032 -0.0742 -0.4381
  472MOL0     C63597   0.347   2.341   3.262  0.0545 -0.5848 -0.0563
  472MOL0     C63598   0.305   2.272   3.393  0.3334 -0.5445  0.0288
  472MOL0     C63599   0.166   2.302   3.452  0.4819 -0.1358  1.1602
  472MOL0     C63600   0.057   2.319   3.354 -0.4411  0.6877  0.1046
  472MOL0     C63601  -0.083   2.300   3.417  0.1752  0.3691  0.1556
  472MOL0     N63602  -0.100   2.166   3.475  0.1288  0.8125 -0.3411
  472MOL0     C63603  -0.154   2.051   3.412  0.2368 -0.3238 -0.7663
  472MOL0     C63604  -0.162   1.958   3.510 -0.4055  0.6172 -0.1770
  472MOL0     C63605  -0.226   1.822   3.491  0.4144  0.5974  0.2553
  472MOL0     C63606  -0.348   1.812   3.399 -0.2271 -0.3754 -0.0924
  472MOL0     C63607  -0.391   1.663   3.400  0.0795  0.9685 -0.1286
  472MOL0     C63608  -0.518   1.649   3.312  0.2623 -0.3849 -0.4691
  472MOL0     O63609  -0.594   1.527   3.329  0.1141 -0.1296 -0.0835
  472MOL0     C63610  -0.715   1.515   3.267  0.7689  0.4342  0.4608
  472MOL0     C63611  -0.767   1.615   3.179  0.6800  0.3013  0.1633
  472MOL0     C63612  -0.896   1.595   3.125 -0.5402 -0.1150  0.2531
  472MOL0     C63613  -0.946   1.698   3.026  0.0967  0.0357  0.1262
  472MOL0     C63614  -0.965   1.477   3.149  0.3839  0.1337  0.2395
  472MOL0     C63615  -1.097   1.458   3.085  0.3771 -0.1109 -0.0717
  472MOL0     O63616  -1.193   1.561   3.083 -0.0506  0.1177 -0.1978
  472MOL0     C63617  -1.327   1.540   3.076  0.2495  1.3077  0.8166
  472MOL0     C63618  -1.397   1.637   2.999  0.2358  0.5798  0.7843
  472MOL0     C63619  -1.536   1.633   2.985  0.7639  0.8197  0.2283
  472MOL0     C63620  -1.610   1.525   3.043  0.8477  0.5312  0.0305
  472MOL0     O63621  -1.747   1.518   3.028  0.1926 -0.5567 -0.0699
  472MOL0     C63622  -1.823   1.622   2.961 -0.7950 -0.2859 -0.2251
  472MOL0     C63623  -1.968   1.584   2.981 -0.1021 -0.3002  0.5640
  472MOL0     C63624  -2.068   1.679   2.902 -1.2217 -0.3900  0.4242
  472MOL0     C63625  -2.211   1.665   2.949 -0.6243 -0.6410 -0.9512
  472MOL0     C63626  -2.307   1.736   2.855  0.2947  0.0707 -0.8441
  472MOL0     C63627  -2.458   1.725   2.891 -0.6365  0.0382  0.5843
  472MOL0     C63628  -2.551   1.812   2.812 -0.2350 -0.3856  0.0988
  472MOL0     C63629  -2.546   1.962   2.858 -0.2194  0.6078  0.0846
  472MOL0    Cl63630  -2.637   2.060   2.741 -0.1032  0.5834 -0.0808
  472MOL0     C63631  -1.546   1.438   3.123 -0.5290  0.5897  0.0118
  472MOL0     C63632  -1.405   1.442   3.137 -0.0144  0.2017  0.3030
  472MOL0     O63633  -1.127   1.341   3.057  0.0030 -0.5766 -0.1475
  472MOL0     C63634  -0.903   1.371   3.213 -0.7075 -0.7290 -1.2445
  472MOL0     C63635  -0.786   1.397   3.288 -0.6459 -0.8263 -0.3067
  472MOL0     N63636  -0.106   2.014   3.626 -0.0898 -0.1730 -0.6151
  472MOL0     N63637  -0.095   2.138   3.605  0.1747 -0.0455 -0.1681
  472MOL0     C63638   0.853   2.460   2.774  0.3156 -0.8058 -0.2790
  472MOL0     C63639   0.978   2.504   2.724  0.0056  0.7374  0.9992
  472MOL0     C63640   1.376   2.699   2.747  0.8629 -0.0986  1.1711
  472MOL0     C63641   1.476   2.608   2.722 -0.0154  0.0665 -0.0590
  472MOL0     C63642   1.599   2.645   2.662  0.4577 -0.6292 -1.0176
  472MOL0     C63643   1.629   2.782   2.636 -0.6264 -0.4550 -0.0453
  472MOL0     O63644   1.742   2.836   2.572  0.3400 -0.1852  0.1353
  472MOL0     C63645   1.855   2.747   2.562 -0.2362  0.3954 -0.6580
  472MOL0     C63646   1.970   2.827   2.514 -0.0573  0.0933 -0.3051
  472MOL0     C63647   2.007   2.955   2.604  0.2308  0.7483  0.3832
  472MOL0     C63648   1.958   3.086   2.540 -0.0438  0.5652  0.7628
  472MOL0     C63649   2.012   3.200   2.612 -0.4604 -0.3513 -0.5390
  472MOL0     C63650   2.074   3.294   2.659 -0.7220 -0.0076  0.8353
  472MOL0     C63651   1.530   2.875   2.680  0.6285 -0.4959 -0.5187
  472MOL0     C63652   1.410   2.837   2.728  0.2829  0.8335 -0.6927
  472MOL0     H63653   1.151   2.457   3.012  0.9964 -1.3707 -1.0438
  472MOL0     H63654   0.927   2.408   3.099 -1.5950  2.7047 -0.8747
  472MOL0     H63655   0.711   2.283   3.085  1.2249  1.0036  1.2870
  472MOL0     H63656   0.707   2.448   3.148  0.0901  0.2847 -0.3184
  472MOL0     H63657   0.470   2.481   3.086 -1.1435 -0.8249 -0.0621
  472MOL0     H63658   0.468   2.320   3.014  2.4236  0.9488 -1.7334
  472MOL0     H63659   0.534   2.222   3.218 -1.7522 -1.0008 -0.2000
  472MOL0     H63660   0.563   2.368   3.303  0.8107  0.8866 -1.1584
  472MOL0     H63661   0.326   2.448   3.273  0.4254 -0.4104 -1.0101
  472MOL0     H63662   0.282   2.301   3.184  0.1653  0.0653 -0.4887
  472MOL0     H63663   0.300   2.164   3.378 -1.1339 -0.3861 -0.8487
  472MOL0     H63664   0.383   2.296   3.466  0.4943  0.1319 -0.3608
  472MOL0     H63665   0.136   2.231   3.530 -2.4503  2.2587  2.4027
  472MOL0     H63666   0.168   2.398   3.504 -2.8881  0.2627  0.8353
  472MOL0     H63667   0.080   2.412   3.300  2.0594  0.9181  1.4094
  472MOL0     H63668   0.079   2.239   3.283 -0.9886 -0.7895  1.5406
  472MOL0     H63669  -0.153   2.307   3.333 -0.0213  3.1095  0.4385
  472MOL0     H63670  -0.107   2.377   3.491  0.8754  0.1163  0.6621
  472MOL0     H63671  -0.193   2.039   3.312 -0.3853  1.2002 -0.7337
  472MOL0     H63672  -0.155   1.751   3.448  0.5094  0.6910  0.2590
  472MOL0     H63673  -0.247   1.783   3.592  0.8920 -0.1838  0.0641
  472MOL0     H63674  -0.312   1.843   3.301  0.3352 -0.4023  0.0991
  472MOL0     H63675  -0.429   1.880   3.429 -1.8879 -2.6955  0.9937
  472MOL0     H63676  -0.408   1.618   3.499 -2.2502  2.5185  0.2415
  472MOL0     H63677  -0.307   1.607   3.359 -0.3666  0.2656 -0.1026
  472MOL0     H63678  -0.494   1.669   3.206  1.5983  2.3784  0.2434
  472MOL0     H63679  -0.583   1.734   3.335 -1.7484 -2.3724  1.5506
  472MOL0     H63680  -0.710   1.703   3.151  0.5105  0.5419  0.5621
  472MOL0     H63681  -0.856   1.744   2.983 -0.3267  2.1273  1.3380
  472MOL0     H63682  -1.005   1.668   2.938  1.1571 -0.1523 -0.5519
  472MOL0     H63683  -0.995   1.777   3.082  1.1433 -1.0838  2.7750
  472MOL0     H63684  -1.333   1.704   2.942  1.8257 -2.4743 -1.2377
  472MOL0     H63685  -1.581   1.696   2.909 -0.9691 -2.1848 -1.4379
  472MOL0     H63686  -1.809   1.726   2.993  1.7922 -0.3738 -0.9031
  472MOL0     H63687  -1.803   1.600   2.856 -1.3706 -1.1749 -0.1610
  472MOL0     H63688  -1.982   1.479   2.951  2.7176 -1.1820  1.9415
  472MOL0     H63689  -1.992   1.588   3.088 -1.4884  4.9985  0.2998
  472MOL0     H63690  -2.054   1.653   2.797  2.5822  0.4559  0.5590
  472MOL0     H63691  -2.041   1.783   2.924  0.9456 -0.9359  0.5747
  472MOL0     H63692  -2.232   1.558   2.958 -1.6867 -0.4201 -0.6589
  472MOL0     H63693  -2.218   1.701   3.052 -4.0161  2.5670 -2.1060
  472MOL0     H63694  -2.287   1.691   2.757  0.7628  0.7830 -1.0856
  472MOL0     H63695  -2.267   1.837   2.863  3.2041 -1.1427  2.2509
  472MOL0     H63696  -2.475   1.617   2.882 -1.1250  0.0950  0.8157
  472MOL0     H63697  -2.464   1.745   2.999  2.5105  2.1470  0.5024
  472MOL0     H63698  -2.654   1.777   2.802 -0.5658  0.3631  0.8006
  472MOL0     H63699  -2.516   1.808   2.708 -1.3043  0.3581 -0.3145
  472MOL0     H63700  -2.446   1.999   2.881  0.3560 -0.0910 -1.1945
  472MOL0     H63701  -2.602   1.971   2.952  0.6939  3.7774  0.4347
  472MOL0     H63702  -1.613   1.365   3.168  1.8462 -1.8411 -0.1636
  472MOL0     H63703  -1.344   1.376   3.197  1.8161 -2.2184 -3.7655
  472MOL0     H63704  -0.937   1.268   3.210  0.7698 -1.3174  0.2402
  472MOL0     H63705  -0.751   1.325   3.361 -2.7940 -0.3241  1.3435
  472MOL0     H63706   0.775   2.473   2.699  0.6485 -2.9080 -1.0584
  472MOL0     H63707   1.010   2.537   2.626  0.0146  1.3817  1.2111
  472MOL0     H63708   1.451   2.503   2.717  0.4096  0.0072 -2.4007
  472MOL0     H63709   1.653   2.565   2.613  0.5694 -1.2500  0.0800
  472MOL0     H63710   1.880   2.715   2.664 -2.1208  0.6749 -0.0798
  472MOL0     H63711   1.850   2.659   2.498  1.1925 -1.7787  1.9651
  472MOL0     H63712   1.955   2.862   2.412  3.8868  1.0862 -0.7124
  472MOL0     H63713   2.055   2.758   2.515 -0.3461 -0.2760 -0.9038
  472MOL0     H63714   2.116   2.949   2.606  0.1899 -1.4880 -0.5435
  472MOL0     H63715   1.976   2.946   2.708 -1.7170 -0.8990 -0.2586
  472MOL0     H63716   1.849   3.088   2.534 -0.0028  1.9346 -0.0181
  472MOL0     H63717   1.996   3.091   2.437 -0.1222  1.2438  0.7616
  472MOL0     H63718   2.152   3.358   2.695 -1.2615  0.2225  1.6085
  472MOL0     H63719   1.551   2.981   2.667 -0.6829 -0.2553 -0.8296
  472MOL0     H63720   1.335   2.911   2.753 -2.3236 -1.0572 -2.4273
  473MOL0     O63721   8.688   6.462   6.596  0.4201 -0.0659  0.3231
  473MOL0     C63722   8.748   6.468   6.489 -0.0103 -0.1316  0.0326
  473MOL0     O63723   8.741   6.566   6.393  0.2625 -0.2529 -0.2069
  473MOL0     C63724   8.661   6.684   6.406  1.0192  0.5749 -0.3292
  473MOL0     C63725   8.547   6.705   6.492 -0.6105 -0.3513  0.2099
  473MOL0     C63726   8.471   6.821   6.468 -0.7258  0.1966  0.6162
  473MOL0     C63727   8.507   6.922   6.376  0.2454  0.3734 -0.0717
  473MOL0     O63728   8.432   7.039   6.370  1.1047  1.2196  0.0644
  473MOL0     C63729   8.472   7.151   6.283 -0.0200  0.5852  0.0735
  473MOL0     C63730   8.381   7.270   6.297  0.8787  0.0294 -0.7214
  473MOL0     C63731   8.255   7.250   6.211  1.5702 -0.3520  0.2233
  473MOL0     C63732   8.159   7.353   6.276  0.0683 -0.3733 -0.7031
  473MOL0     C63733   8.027   7.371   6.202  0.2498  0.8348  0.2960
  473MOL0     C63734   7.916   7.412   6.301 -0.2091 -0.0887  0.2069
  473MOL0     C63735   7.948   7.539   6.378  0.2847  0.5340 -0.1816
  473MOL0     C63736   7.890   7.666   6.312  0.0259 -0.1179  0.0988
  473MOL0     N63737   7.944   7.680   6.183 -0.0661 -0.1852  0.1233
  473MOL0     C63738   8.075   7.719   6.157 -0.1984 -0.0827  0.1057
  473MOL0     C63739   8.067   7.749   6.025 -0.1823 -0.5310  0.7974
  473MOL0     C63740   8.176   7.818   5.953  0.1047  0.3134  0.3480
  473MOL0     C63741   8.290   7.725   5.916 -0.6011  0.3469  0.4420
  473MOL0     C63742   8.249   7.581   5.875 -0.6249 -0.4244 -1.0131
  473MOL0     C63743   8.363   7.501   5.795  0.3172  0.6759 -0.6422
  473MOL0     O63744   8.483   7.520   5.874 -0.0331  0.5309  0.6196
  473MOL0     C63745   8.565   7.403   5.892 -0.2692 -0.0333 -1.0692
  473MOL0     C63746   8.652   7.390   6.012  0.2744  0.1790  0.6380
  473MOL0     C63747   8.725   7.274   6.040 -0.4868  0.1420  0.9026
  473MOL0     C63748   8.807   7.272   6.168 -0.1754 -0.0106 -0.3738
  473MOL0     C63749   8.706   7.168   5.950  0.6596  0.1754 -0.3978
  473MOL0     C63750   8.766   7.033   5.980  0.1097  0.8254 -0.0053
  473MOL0     O63751   8.752   6.938   5.882  0.3713 -0.5106 -0.3112
  473MOL0     C63752   8.820   6.821   5.903 -0.4799  0.0210 -0.4911
  473MOL0     C63753   8.752   6.713   5.953  0.3635 -0.1133  0.3131
  473MOL0     C63754   8.818   6.596   5.981  0.4313  0.3388  0.0573
  473MOL0     C63755   8.958   6.596   5.974 -0.4093 -0.3243 -0.2375
  473MOL0     O63756   9.039   6.494   6.009  0.5478  0.8039  0.4133
  473MOL0     C63757   9.006   6.357   5.974  0.4829  0.0388  0.3911
  473MOL0     C63758   9.136   6.299   5.932 -0.1299  0.3420  0.0700
  473MOL0     C63759   9.142   6.150   5.897 -0.9070  0.5277  0.3385
  473MOL0     C63760   9.283   6.107   5.860 -0.0404  0.6367  0.0582
  473MOL0     C63761   9.292   5.951   5.842  0.1839  0.8440 -0.0483
  473MOL0     C63762   9.441   5.906   5.821  0.7766  0.5325  1.0650
  473MOL0     C63763   9.507   5.862   5.952  0.0796 -0.2966 -0.3195
  473MOL0     C63764   9.654   5.810   5.918 -0.1656  0.1087  0.0506
  473MOL0    Cl63765   9.756   5.951   5.858  0.1242 -0.5076 -0.5489
  473MOL0     C63766   9.027   6.710   5.931 -0.6425  0.8278  0.0259
  473MOL0     C63767   8.959   6.819   5.896 -0.4799  0.0267 -0.0061
  473MOL0     O63768   8.822   7.014   6.085 -0.1657 -0.1869 -0.5011
  473MOL0     C63769   8.614   7.168   5.842  0.2472 -0.8638  1.1907
  473MOL0     C63770   8.554   7.287   5.809 -0.9132  0.2942  0.6636
  473MOL0     N63771   7.943   7.717   5.976  0.0989 -0.1992  0.0820
  473MOL0     N63772   7.874   7.663   6.064 -0.7330  0.1600 -0.6338
  473MOL0     C63773   8.623   6.905   6.303  0.2805 -0.4038 -0.9941
  473MOL0     C63774   8.696   6.789   6.316  0.0594  0.4021  0.9056
  473MOL0     C63775   8.843   6.360   6.464 -0.1630  0.0956  0.2895
  473MOL0     C63776   8.855   6.252   6.554 -0.1296  0.5169  0.5794
  473MOL0     C63777   8.951   6.154   6.539  0.1053  0.3726  0.2708
  473MOL0     C63778   9.043   6.168   6.437 -0.7833 -0.3093 -0.0804
  473MOL0     O63779   9.134   6.070   6.407  0.5457 -0.5249 -0.4965
  473MOL0     C63780   9.192   5.999   6.515 -0.6718 -0.4659  0.1334
  473MOL0     C63781   9.292   5.900   6.458  0.8727 -0.0187 -0.6722
  473MOL0     C63782   9.373   5.819   6.572 -0.8778 -0.2899 -0.5838
  473MOL0     C63783   9.494   5.753   6.499 -0.0075 -0.3929 -0.2748
  473MOL0     C63784   9.570   5.675   6.605  0.3645 -0.5345  0.5058
  473MOL0     C63785   9.641   5.623   6.686  0.1805  0.7617  0.1765
  473MOL0     C63786   9.032   6.275   6.356 -0.1473  0.6502  0.4949
  473MOL0     C63787   8.935   6.370   6.355  0.4196 -0.5078  0.4827
  473MOL0     H63788   8.501   6.627   6.551  0.2106 -0.2233  1.0379
  473MOL0     H63789   8.381   6.837   6.527 -1.0283  1.0729 -0.0528
  473MOL0     H63790   8.569   7.186   6.319  1.0166  0.4825 -2.4394
  473MOL0     H63791   8.477   7.115   6.180 -0.4337 -1.6724  0.7727
  473MOL0     H63792   8.357   7.277   6.404 -0.1580 -3.1437 -0.6445
  473MOL0     H63793   8.438   7.356   6.260 -0.2257  1.4523  0.7035
  473MOL0     H63794   8.262   7.266   6.103 -2.0371  0.1938 -0.0489
  473MOL0     H63795   8.210   7.150   6.223 -1.5818  0.8860 -0.3859
  473MOL0     H63796   8.132   7.326   6.379 -4.9766  0.4805 -1.5379
  473MOL0     H63797   8.215   7.448   6.277 -1.3835  0.5221 -1.2440
  473MOL0     H63798   8.047   7.446   6.125 -2.4117  0.4868 -0.8354
  473MOL0     H63799   8.007   7.273   6.159  2.3472 -0.2391  1.5678
  473MOL0     H63800   7.821   7.418   6.247  1.5483  3.9393 -3.0369
  473MOL0     H63801   7.917   7.330   6.372 -1.9690  0.5485  1.0154
  473MOL0     H63802   7.905   7.528   6.478 -0.5035 -2.4343 -0.7486
  473MOL0     H63803   8.055   7.560   6.379  0.0121  2.1556  2.0400
  473MOL0     H63804   7.929   7.746   6.376  0.2094 -1.4082  1.6793
  473MOL0     H63805   7.780   7.661   6.312  0.0270 -1.9656  2.5685
  473MOL0     H63806   8.153   7.729   6.232  0.4284 -2.6328 -0.0938
  473MOL0     H63807   8.140   7.869   5.863  0.4242 -0.9031 -0.4852
  473MOL0     H63808   8.208   7.909   6.004 -0.1432  0.9567 -0.6077
  473MOL0     H63809   8.364   7.719   5.997 -0.9998  1.2411  0.8947
  473MOL0     H63810   8.348   7.765   5.832 -0.2972  1.4626  1.1508
  473MOL0     H63811   8.159   7.594   5.814 -1.8542  0.4388  0.9235
  473MOL0     H63812   8.229   7.525   5.967  2.5931  1.8041  1.2636
  473MOL0     H63813   8.374   7.536   5.692  3.6598 -0.7903 -0.8994
  473MOL0     H63814   8.330   7.397   5.795 -1.2822  1.1407 -1.7927
  473MOL0     H63815   8.650   7.476   6.077 -1.8648  1.5416 -1.0705
  473MOL0     H63816   8.815   7.368   6.220  0.3521 -0.8621  1.2171
  473MOL0     H63817   8.793   7.197   6.246  2.2768  0.3295  0.5128
  473MOL0     H63818   8.910   7.252   6.135 -0.0213 -0.0549  0.1205
  473MOL0     H63819   8.646   6.721   5.975  0.7813 -2.1498  3.7009
  473MOL0     H63820   8.772   6.507   6.022  1.2320  0.4819  1.3404
  473MOL0     H63821   8.962   6.301   6.058  1.5237 -1.8752 -0.2813
  473MOL0     H63822   8.937   6.365   5.890  0.4516  2.4954  0.5666
  473MOL0     H63823   9.173   6.362   5.850 -1.4943 -1.0804 -1.7338
  473MOL0     H63824   9.202   6.303   6.019  0.7495 -0.9866 -0.5035
  473MOL0     H63825   9.085   6.128   5.807  2.5402  1.1876 -2.2343
  473MOL0     H63826   9.098   6.092   5.979 -1.5558 -0.0787 -0.4329
  473MOL0     H63827   9.323   6.158   5.773 -0.1870 -1.7504 -1.5032
  473MOL0     H63828   9.358   6.126   5.938  0.5713 -2.3233  0.3240
  473MOL0     H63829   9.229   5.924   5.756  2.2928 -1.4401 -0.9871
  473MOL0     H63830   9.251   5.895   5.927 -1.8697  0.2179 -1.3739
  473MOL0     H63831   9.436   5.821   5.752  0.3991  2.4453 -1.3671
  473MOL0     H63832   9.487   5.987   5.765  1.1755  0.0696  0.7104
  473MOL0     H63833   9.451   5.778   5.995  0.8444  0.0458  1.4236
  473MOL0     H63834   9.522   5.945   6.022  2.5767  2.6950 -4.0099
  473MOL0     H63835   9.651   5.733   5.840 -0.8475  1.2525 -1.0808
  473MOL0     H63836   9.703   5.765   6.005  1.1723 -0.9600 -1.1956
  473MOL0     H63837   9.135   6.700   5.920 -0.5246  0.0867  1.5740
  473MOL0     H63838   9.019   6.903   5.862 -1.4534  0.5564 -0.4417
  473MOL0     H63839   8.597   7.079   5.782 -0.3693 -0.3014  0.5158
  473MOL0     H63840   8.494   7.293   5.719  0.4062  2.7503 -0.1446
  473MOL0     H63841   8.667   6.977   6.235  2.0690 -0.0396  0.4712
  473MOL0     H63842   8.784   6.755   6.262 -1.3641 -2.6311  0.3185
  473MOL0     H63843   8.790   6.232   6.639 -0.8732 -3.4206 -0.6872
  473MOL0     H63844   8.950   6.073   6.611  0.6853  0.8327  0.8075
  473MOL0     H63845   9.248   6.069   6.578 -0.3425 -1.2495  0.7351
  473MOL0     H63846   9.111   5.954   6.574 -2.0792  2.5566  0.7178
  473MOL0     H63847   9.373   5.951   6.405 -0.0100  3.9264  1.3568
  473MOL0     H63848   9.233   5.841   6.387  0.4407 -0.4706  0.0461
  473MOL0     H63849   9.311   5.745   6.624  0.6731 -1.6464 -0.5794
  473MOL0     H63850   9.413   5.885   6.649  1.5450  0.5820 -2.4722
  473MOL0     H63851   9.554   5.828   6.447 -1.7084  1.7264  0.6743
  473MOL0     H63852   9.459   5.686   6.419  1.0490 -1.4240  0.0914
  473MOL0     H63853   9.707   5.575   6.756 -1.6448 -1.9779  0.1965
  473MOL0     H63854   9.104   6.280   6.275  0.5176  1.0788  1.1008
  473MOL0     H63855   8.945   6.441   6.273 -3.1090  0.5509  0.7878
  474MOL0     O63856   6.983   8.240   9.838  0.3144 -0.6351 -0.9142
  474MOL0     C63857   6.967   8.120   9.813 -0.6389  0.0206  0.0468
  474MOL0     O63858   6.894   8.074   9.702 -0.5423 -0.1405 -0.1083
  474MOL0     C63859   6.797   8.150   9.634  0.4254 -0.8751 -1.1178
  474MOL0     C63860   6.780   8.103   9.503 -0.2115 -0.6667 -0.4198
  474MOL0     C63861   6.678   8.151   9.418  0.3080  0.1265  0.4560
  474MOL0     C63862   6.592   8.251   9.466  0.8658  0.8170 -0.2539
  474MOL0     O63863   6.493   8.300   9.386 -0.0963 -0.5666  0.6816
  474MOL0     C63864   6.368   8.339   9.447  0.5823 -0.8568  0.1328
  474MOL0     C63865   6.263   8.395   9.350 -0.2132 -0.1397 -0.1836
  474MOL0     C63866   6.285   8.540   9.304 -0.3310  0.2256  0.6654
  474MOL0     C63867   6.174   8.614   9.238  0.4390 -0.0029 -0.1303
  474MOL0     C63868   6.204   8.739   9.161  0.5955 -0.2615  0.5732
  474MOL0     C63869   6.088   8.818   9.102 -0.6061 -0.0230 -0.0088
  474MOL0     C63870   5.973   8.728   9.058  0.4094 -0.2889  0.2822
  474MOL0     C63871   5.876   8.800   8.966  0.0875 -0.7787  0.1094
  474MOL0     N63872   5.807   8.900   9.039  0.2556  0.2230  1.0672
  474MOL0     C63873   5.818   9.038   9.021  0.0066  0.2198 -0.0383
  474MOL0     C63874   5.706   9.087   9.077  0.2112  0.1633 -0.8620
  474MOL0     C63875   5.671   9.227   9.088 -0.5786 -0.0523 -0.2798
  474MOL0     C63876   5.517   9.264   9.068  0.4572 -0.1864  0.1715
  474MOL0     C63877   5.440   9.260   9.199 -0.9563 -0.3628 -1.2000
  474MOL0     C63878   5.300   9.332   9.187  0.2849  0.8026  0.6814
  474MOL0     O63879   5.253   9.366   9.319  0.0627 -0.6630 -0.1143
  474MOL0     C63880   5.117   9.350   9.351 -0.8195  0.6188 -0.3279
  474MOL0     C63881   5.079   9.231   9.413 -0.0197  1.2023  0.2177
  474MOL0     C63882   4.946   9.208   9.448 -0.0085  0.2989  1.1539
  474MOL0     C63883   4.928   9.075   9.511  0.4879  0.3425 -0.4677
  474MOL0     C63884   4.848   9.302   9.410 -0.1069 -0.3657 -0.3586
  474MOL0     C63885   4.706   9.292   9.459  0.9300 -0.3796 -0.1716
  474MOL0     O63886   4.611   9.365   9.391  0.0748  0.2960 -0.5763
  474MOL0     C63887   4.485   9.318   9.382  1.1446 -0.8465  0.3943
  474MOL0     C63888   4.452   9.204   9.296 -0.1276 -0.4472 -0.5492
  474MOL0     C63889   4.316   9.162   9.290  0.7165  0.7424  0.5642
  474MOL0     C63890   4.215   9.222   9.365 -0.4557 -0.4572 -0.4579
  474MOL0     O63891   4.089   9.167   9.378  0.2863  0.4379  0.0863
  474MOL0     C63892   4.064   9.028   9.352 -0.6068 -0.3780  1.0291
  474MOL0     C63893   3.908   8.992   9.364 -0.2345  0.3571  0.5640
  474MOL0     C63894   3.864   8.988   9.515 -0.3872  0.3732  0.3219
  474MOL0     C63895   3.808   9.123   9.561  0.2142 -0.6603  0.1430
  474MOL0     C63896   3.789   9.115   9.712  0.7946  0.3603  0.3136
  474MOL0     C63897   3.744   9.247   9.766 -0.2250 -0.9475 -0.2393
  474MOL0     C63898   3.696   9.245   9.910  0.2125  0.5308 -0.5762
  474MOL0     C63899   3.653   9.382   9.945  0.0265  0.7683  0.7160
  474MOL0    Cl63900   3.794   9.484   9.931  0.3736 -0.0310  0.0711
  474MOL0     C63901   4.247   9.333   9.449  0.0195 -0.3728  0.0455
  474MOL0     C63902   4.378   9.383   9.447  0.2262 -0.1748 -0.5411
  474MOL0     O63903   4.677   9.211   9.543 -0.6061 -0.2273  0.6240
  474MOL0     C63904   4.886   9.415   9.343 -0.1868 -1.4154 -0.2213
  474MOL0     C63905   5.022   9.444   9.313 -0.1906 -0.0191 -0.7143
  474MOL0     N63906   5.634   8.979   9.133  0.3653  0.7536  0.2543
  474MOL0     N63907   5.693   8.870   9.109  0.6361  0.0972 -0.4763
  474MOL0     C63908   6.617   8.309   9.601 -0.6239 -0.7282  0.1485
  474MOL0     C63909   6.716   8.256   9.684  0.4261  0.4819  0.5375
  474MOL0     C63910   7.039   8.032   9.908  0.4358  0.4632 -0.1550
  474MOL0     C63911   7.074   8.075  10.039 -0.0291  0.1405  0.7099
  474MOL0     C63912   7.137   7.991  10.136 -0.2133 -0.2793 -0.0725
  474MOL0     C63913   7.174   7.860  10.097 -0.5743 -0.0601  0.3489
  474MOL0     O63914   7.244   7.793  10.190  0.1305  0.4324 -0.3155
  474MOL0     C63915   7.207   7.655  10.211  0.6738 -0.6732 -0.0305
  474MOL0     C63916   7.332   7.579  10.162 -0.6057 -0.1216 -0.8289
  474MOL0     C63917   7.347   7.431  10.223  0.4347 -0.5059 -0.0813
  474MOL0     C63918   7.493   7.371  10.229  0.6101 -0.5882  0.5402
  474MOL0     C63919   7.533   7.323  10.090  1.2266 -0.9078  0.8048
  474MOL0     C63920   7.560   7.283   9.987  0.5826  0.0885  0.0790
  474MOL0     C63921   7.135   7.806   9.969  0.6592 -0.3220  0.2921
  474MOL0     C63922   7.071   7.893   9.877  0.8599  0.2481  0.5995
  474MOL0     H63923   6.861   8.044   9.462 -0.5923 -2.2436  0.9738
  474MOL0     H63924   6.677   8.125   9.313  1.6981  2.8439 -0.3323
  474MOL0     H63925   6.330   8.248   9.494  0.5642 -0.6259  0.5717
  474MOL0     H63926   6.382   8.417   9.523 -0.7849  3.5635 -3.7116
  474MOL0     H63927   6.274   8.333   9.261  0.5450  0.4519 -0.5070
  474MOL0     H63928   6.162   8.384   9.391  0.9830 -0.6846  2.9241
  474MOL0     H63929   6.325   8.597   9.389  1.2098 -1.2051  0.9489
  474MOL0     H63930   6.370   8.543   9.236 -0.0197 -1.8363  0.8987
  474MOL0     H63931   6.133   8.540   9.169  0.5972  1.4872 -1.8768
  474MOL0     H63932   6.108   8.639   9.322  1.5488 -0.4977  0.9278
  474MOL0     H63933   6.263   8.806   9.224  1.0393  0.0889 -0.2048
  474MOL0     H63934   6.262   8.703   9.076 -1.7841  0.4035 -1.4484
  474MOL0     H63935   6.058   8.893   9.175  1.1034  0.9176 -0.2381
  474MOL0     H63936   6.129   8.876   9.019  0.9564 -0.3815  0.4849
  474MOL0     H63937   6.021   8.645   9.005 -0.8324  0.1114 -1.5576
  474MOL0     H63938   5.917   8.682   9.141 -1.4379 -1.1215 -1.3532
  474MOL0     H63939   5.807   8.728   8.922 -1.3609 -1.2043  2.8650
  474MOL0     H63940   5.931   8.857   8.891  0.0195 -0.6558  0.1529
  474MOL0     H63941   5.906   9.086   8.978  2.9090 -2.8707  1.8816
  474MOL0     H63942   5.708   9.267   9.183  1.3796  0.4202 -1.2071
  474MOL0     H63943   5.735   9.285   9.021 -2.5168  1.3834 -0.9814
  474MOL0     H63944   5.471   9.198   8.993 -0.9877 -0.4141  1.2277
  474MOL0     H63945   5.509   9.364   9.026 -0.0178 -0.2320  0.1451
  474MOL0     H63946   5.502   9.319   9.268 -0.4354 -1.8805 -0.3172
  474MOL0     H63947   5.415   9.160   9.236 -0.8802  0.2684  0.6721
  474MOL0     H63948   5.233   9.269   9.129  1.6209 -0.9684  0.9869
  474MOL0     H63949   5.303   9.418   9.120 -2.4096 -2.0852 -3.6491
  474MOL0     H63950   5.164   9.166   9.430 -1.8253 -1.4288 -0.2045
  474MOL0     H63951   4.830   9.028   9.497  1.2017 -1.3559 -0.1295
  474MOL0     H63952   4.990   8.990   9.479 -3.2211 -1.8906 -2.3882
  474MOL0     H63953   4.932   9.077   9.620 -0.5687 -0.0017 -0.4158
  474MOL0     H63954   4.526   9.150   9.239  0.2906  0.8506 -1.2677
  474MOL0     H63955   4.291   9.089   9.214 -2.5088 -0.4490  2.5644
  474MOL0     H63956   4.104   8.993   9.256  2.0351  0.8344  1.5905
  474MOL0     H63957   4.118   8.970   9.427  2.9659  1.3605  0.0214
  474MOL0     H63958   3.855   9.060   9.297  0.4113 -2.1608 -2.7484
  474MOL0     H63959   3.902   8.896   9.314  0.6097  1.1848 -1.2177
  474MOL0     H63960   3.948   8.950   9.573 -1.8934 -5.2685 -0.6090
  474MOL0     H63961   3.782   8.917   9.533 -0.4967  0.9961  2.4404
  474MOL0     H63962   3.886   9.197   9.538  0.5055 -1.4609 -1.5742
  474MOL0     H63963   3.712   9.154   9.520  0.8981 -0.3816 -1.3108
  474MOL0     H63964   3.876   9.093   9.776  1.6882  0.5862 -0.7922
  474MOL0     H63965   3.706   9.047   9.733 -1.3381  2.2048 -1.7016
  474MOL0     H63966   3.841   9.297   9.755 -1.1664  0.8272 -0.8144
  474MOL0     H63967   3.670   9.294   9.700 -0.8514  0.6891  1.5636
  474MOL0     H63968   3.775   9.214   9.980  0.5359  3.0345  0.2617
  474MOL0     H63969   3.619   9.167   9.907  1.3173 -0.6850 -4.5703
  474MOL0     H63970   3.628   9.382  10.052 -0.8029 -1.3026  0.5564
  474MOL0     H63971   3.567   9.419   9.889 -0.9487 -1.8962  0.3236
  474MOL0     H63972   4.170   9.381   9.508 -0.8737 -0.1493 -1.2649
  474MOL0     H63973   4.397   9.473   9.505 -0.5638 -1.7633  2.3588
  474MOL0     H63974   4.810   9.492   9.335 -0.9972 -2.2538 -0.8287
  474MOL0     H63975   5.050   9.538   9.266  2.6545 -1.0037 -1.1443
  474MOL0     H63976   6.566   8.399   9.633 -1.0538 -0.9116 -0.0215
  474MOL0     H63977   6.719   8.287   9.788 -3.5850 -1.3209  1.3448
  474MOL0     H63978   7.047   8.178  10.061 -2.6584 -0.6298  1.4718
  474MOL0     H63979   7.170   8.026  10.234  0.2936 -2.1476  0.4646
  474MOL0     H63980   7.190   7.652  10.319  3.2028  1.2943  0.5330
  474MOL0     H63981   7.120   7.612  10.162  1.4050 -2.2883  0.0428
  474MOL0     H63982   7.422   7.629  10.198 -0.9708 -1.4306  2.1652
  474MOL0     H63983   7.332   7.579  10.053 -0.9509  2.1294 -0.8882
  474MOL0     H63984   7.274   7.371  10.169  0.1861  0.4209 -0.7966
  474MOL0     H63985   7.308   7.430  10.326 -2.1624  2.3661 -0.8926
  474MOL0     H63986   7.485   7.280  10.288 -2.0748 -0.2637  0.7966
  474MOL0     H63987   7.559   7.445  10.275 -1.5979  1.4690  0.6337
  474MOL0     H63988   7.588   7.241   9.892 -2.0659 -3.1953  0.5274
  474MOL0     H63989   7.151   7.701   9.947  3.7524  0.3474 -1.1452
  474MOL0     H63990   7.038   7.850   9.783 -0.3520 -2.6470  2.2353
  475MOL0     O63991  11.138   5.210   3.611  0.4831  0.1206  0.2511
  475MOL0     C63992  11.110   5.098   3.651  0.0647  0.2542 -0.9990
  475MOL0     O63993  11.006   5.072   3.743  0.4468  0.0099 -0.4078
  475MOL0     C63994  10.901   5.154   3.774  0.6036 -0.0101  0.7131
  475MOL0     C63995  10.818   5.103   3.872  0.6558 -0.3513 -0.5422
  475MOL0     C63996  10.692   5.160   3.908  0.9989 -0.0185 -0.4400
  475MOL0     C63997  10.644   5.261   3.829  0.0494 -0.8996 -0.5055
  475MOL0     O63998  10.516   5.299   3.859  0.8200 -0.7206  0.4324
  475MOL0     C63999  10.469   5.425   3.814 -0.0327  0.5382  0.5734
  475MOL0     C64000  10.329   5.454   3.873 -0.9323  0.5301 -0.0302
  475MOL0     C64001  10.228   5.336   3.849 -0.2227 -1.0816  0.9705
  475MOL0     C64002  10.078   5.370   3.884 -0.2346 -0.4021  0.7578
  475MOL0     C64003   9.970   5.289   3.810  0.3645 -1.0173  0.3810
  475MOL0     C64004   9.961   5.323   3.657 -0.7036  0.9213 -0.2901
  475MOL0     C64005   9.854   5.232   3.593 -0.3169 -0.7798  0.1927
  475MOL0     C64006   9.861   5.241   3.432 -0.1820  0.5267 -0.4945
  475MOL0     N64007   9.724   5.235   3.371  0.6156 -0.0251 -0.1853
  475MOL0     C64008   9.654   5.118   3.339 -0.1453 -0.3345  0.1869
  475MOL0     C64009   9.531   5.170   3.298 -0.2787  0.2389  0.1434
  475MOL0     C64010   9.416   5.083   3.271 -0.8531  0.3725  0.1566
  475MOL0     C64011   9.285   5.125   3.338  0.2597 -0.3537  1.0440
  475MOL0     C64012   9.169   5.022   3.319 -0.5247  0.8423 -1.0218
  475MOL0     C64013   9.041   5.073   3.366  0.0156  0.3661  0.1279
  475MOL0     O64014   8.963   4.965   3.422 -0.2484  0.1464  0.2359
  475MOL0     C64015   8.830   4.977   3.411  0.2624  0.0182 -0.2429
  475MOL0     C64016   8.758   5.092   3.428  0.1624 -0.0190 -0.1019
  475MOL0     C64017   8.614   5.093   3.431 -0.1149  0.1934  0.2241
  475MOL0     C64018   8.561   5.234   3.441 -0.0123  0.6148  0.7154
  475MOL0     C64019   8.536   4.979   3.418 -1.2788 -0.3487 -0.2728
  475MOL0     C64020   8.390   4.969   3.435  0.5001  0.0937 -0.5041
  475MOL0     O64021   8.337   4.847   3.432  0.2705 -0.1461  0.2494
  475MOL0     C64022   8.205   4.836   3.410 -0.0790  1.1364  0.5787
  475MOL0     C64023   8.101   4.879   3.494 -0.9151  0.5238 -0.0747
  475MOL0     C64024   7.966   4.870   3.458 -0.4052  0.5515  0.5949
  475MOL0     C64025   7.934   4.797   3.338 -0.7312 -0.2668 -0.6214
  475MOL0     O64026   7.799   4.798   3.308 -0.2346 -0.2520 -0.3037
  475MOL0     C64027   7.754   4.708   3.212  0.2776 -0.3138  0.2007
  475MOL0     C64028   7.604   4.718   3.190 -0.2945  0.7594  0.7615
  475MOL0     C64029   7.555   4.859   3.144  0.0932 -0.1354  0.4720
  475MOL0     C64030   7.411   4.852   3.114 -0.9541 -1.4884  1.0417
  475MOL0     C64031   7.360   4.979   3.045 -0.2086  0.2533 -0.3927
  475MOL0     C64032   7.212   5.016   3.058  0.5549 -0.2967 -0.5306
  475MOL0     C64033   7.184   5.154   2.984 -1.0011  0.0100  0.1514
  475MOL0     C64034   7.034   5.181   2.983 -0.5811 -0.0670  0.1872
  475MOL0    Cl64035   6.949   5.165   3.138  0.0699 -0.4379 -0.3052
  475MOL0     C64036   8.036   4.751   3.259 -0.8788 -1.0203  0.8481
  475MOL0     C64037   8.167   4.758   3.296  0.0747 -0.3120 -0.7368
  475MOL0     O64038   8.326   5.073   3.445 -0.6174  0.2784 -0.4674
  475MOL0     C64039   8.611   4.855   3.406  0.5120  0.0405 -0.1625
  475MOL0     C64040   8.750   4.865   3.396 -0.5008  0.6452 -0.6141
  475MOL0     N64041   9.529   5.302   3.306  0.0492 -0.1347  0.0831
  475MOL0     N64042   9.641   5.344   3.353 -0.5487  0.7583  0.6685
  475MOL0     C64043  10.739   5.319   3.732  0.6436  0.0107 -0.0066
  475MOL0     C64044  10.866   5.266   3.704  0.9617 -0.2951  0.2013
  475MOL0     C64045  11.197   4.980   3.610  0.0923 -0.8006  0.0342
  475MOL0     C64046  11.195   4.868   3.692 -0.2419  0.5424 -0.5803
  475MOL0     C64047  11.256   4.745   3.655 -0.0099  0.2849  0.5655
  475MOL0     C64048  11.335   4.739   3.546 -0.5339  0.5156 -0.4894
  475MOL0     O64049  11.408   4.628   3.524 -0.8263  0.0849  0.5616
  475MOL0     C64050  11.537   4.624   3.459 -0.1255 -0.8523  0.8291
  475MOL0     C64051  11.527   4.492   3.388 -0.2345  0.6567  1.0200
  475MOL0     C64052  11.456   4.522   3.251 -0.6964 -0.3015 -0.4037
  475MOL0     C64053  11.451   4.402   3.145 -0.1294 -0.4948  0.7140
  475MOL0     C64054  11.559   4.309   3.162 -0.0543  0.2209 -0.5158
  475MOL0     C64055  11.643   4.219   3.166 -0.1247 -0.0415  0.5713
  475MOL0     C64056  11.347   4.860   3.466  0.1555  0.7048  0.3630
  475MOL0     C64057  11.278   4.978   3.503  0.0053 -0.3937  0.1253
  475MOL0     H64058  10.873   5.036   3.937  2.5837  0.2790 -1.4392
  475MOL0     H64059  10.629   5.131   3.992  0.8973  2.8714  0.5780
  475MOL0     H64060  10.531   5.513   3.832 -0.3888  2.7334 -6.2488
  475MOL0     H64061  10.459   5.416   3.706 -2.3662 -0.8699  0.8310
  475MOL0     H64062  10.341   5.489   3.976 -0.2085 -1.0953  0.4742
  475MOL0     H64063  10.294   5.536   3.810 -1.0156 -2.2947 -4.0065
  475MOL0     H64064  10.233   5.310   3.743  0.2259 -0.6059  0.8729
  475MOL0     H64065  10.245   5.244   3.905  1.9822 -1.9506 -0.9617
  475MOL0     H64066  10.063   5.351   3.990 -0.3388  0.2923  0.8729
  475MOL0     H64067  10.063   5.478   3.873  3.3232  0.4444  2.8402
  475MOL0     H64068   9.981   5.184   3.836 -1.2874 -1.1714  0.5814
  475MOL0     H64069   9.877   5.327   3.855  1.1620  1.1386  0.3285
  475MOL0     H64070   9.935   5.427   3.636  0.4044  1.6957  1.9002
  475MOL0     H64071  10.057   5.292   3.615 -0.6858 -1.6887  1.4517
  475MOL0     H64072   9.875   5.128   3.617  1.9967 -0.5869 -0.7738
  475MOL0     H64073   9.751   5.251   3.625 -1.8268 -1.9143 -3.4462
  475MOL0     H64074   9.916   5.154   3.396 -0.0895  0.7452 -0.8882
  475MOL0     H64075   9.906   5.336   3.401  1.8731 -0.6111 -1.2085
  475MOL0     H64076   9.685   5.015   3.340 -0.5495 -0.4796 -0.8558
  475MOL0     H64077   9.405   5.077   3.162  2.9932 -0.6518 -0.3241
  475MOL0     H64078   9.449   4.984   3.303  2.0693  1.1447 -0.1882
  475MOL0     H64079   9.265   5.231   3.317 -1.9582 -1.1329 -1.1534
  475MOL0     H64080   9.301   5.116   3.446  0.9771 -2.0217  0.8259
  475MOL0     H64081   9.187   4.932   3.378 -0.5074  0.7613 -1.1508
  475MOL0     H64082   9.164   4.986   3.216 -1.2475  0.2888 -0.8050
  475MOL0     H64083   8.990   5.116   3.280  0.1133 -1.6928 -1.0122
  475MOL0     H64084   9.060   5.143   3.449  2.6489 -1.3177  1.0773
  475MOL0     H64085   8.819   5.180   3.441  1.6826 -0.8933 -1.0780
  475MOL0     H64086   8.499   5.257   3.354 -2.2138 -1.6275  1.5845
  475MOL0     H64087   8.507   5.245   3.535 -2.1366  4.0190 -0.7011
  475MOL0     H64088   8.639   5.309   3.428  0.7306 -0.1231  0.8502
  475MOL0     H64089   8.134   4.921   3.589  0.5173 -0.2456 -0.1983
  475MOL0     H64090   7.892   4.919   3.519  0.2222 -1.2677  2.9844
  475MOL0     H64091   7.802   4.738   3.118 -0.1609  0.2250  0.1441
  475MOL0     H64092   7.789   4.607   3.234  1.3216  0.6709  3.5710
  475MOL0     H64093   7.582   4.648   3.109 -1.1563  3.9163 -1.9108
  475MOL0     H64094   7.551   4.681   3.279 -0.6533 -1.7802 -0.4089
  475MOL0     H64095   7.604   4.874   3.047  1.2167  0.6786  1.1355
  475MOL0     H64096   7.572   4.930   3.225 -2.0209  0.8223  0.1341
  475MOL0     H64097   7.410   4.769   3.043 -0.9759 -0.8626  0.2964
  475MOL0     H64098   7.352   4.823   3.202 -1.6391 -1.1847  0.6906
  475MOL0     H64099   7.394   4.985   2.941 -1.4986  0.7190 -0.8030
  475MOL0     H64100   7.406   5.065   3.095 -0.2193 -0.7760  1.4736
  475MOL0     H64101   7.145   4.954   2.997 -0.7079  0.5824 -0.0849
  475MOL0     H64102   7.164   5.003   3.156 -0.5766  2.0866 -0.7068
  475MOL0     H64103   7.223   5.160   2.883 -2.5405 -3.6221 -0.8051
  475MOL0     H64104   7.224   5.241   3.038  0.9333 -0.7443  0.0093
  475MOL0     H64105   6.992   5.102   2.919 -3.2378 -1.0066  2.8307
  475MOL0     H64106   7.008   5.273   2.929 -1.3057 -0.8127 -0.7644
  475MOL0     H64107   8.011   4.710   3.161 -0.1796 -0.2837  0.3401
  475MOL0     H64108   8.249   4.716   3.238  0.3824  0.0444 -0.5673
  475MOL0     H64109   8.572   4.753   3.404  2.1861 -0.8940  4.2545
  475MOL0     H64110   8.811   4.777   3.411  0.9235  1.3942 -1.7597
  475MOL0     H64111  10.700   5.399   3.670 -0.8930 -0.2336  0.5858
  475MOL0     H64112  10.925   5.307   3.622  0.6604 -3.1747 -1.5934
  475MOL0     H64113  11.140   4.879   3.784 -0.3281 -0.3014 -0.5235
  475MOL0     H64114  11.241   4.669   3.731 -2.5127 -1.4129 -1.4444
  475MOL0     H64115  11.551   4.712   3.395 -0.0348 -0.2246  1.6945
  475MOL0     H64116  11.621   4.632   3.529  0.0103 -0.5518  0.6369
  475MOL0     H64117  11.476   4.420   3.452  1.4629 -1.1997  0.3780
  475MOL0     H64118  11.634   4.469   3.380  0.2351  1.8129  3.0681
  475MOL0     H64119  11.501   4.609   3.204 -1.4010  1.5542  2.1357
  475MOL0     H64120  11.353   4.543   3.281 -0.4246 -1.9613  2.0591
  475MOL0     H64121  11.445   4.442   3.044  0.0945  0.8372  1.1980
  475MOL0     H64122  11.353   4.355   3.154 -0.0233 -0.6655  0.9932
  475MOL0     H64123  11.711   4.137   3.164  2.0371  1.6173  1.8208
  475MOL0     H64124  11.394   4.855   3.369 -0.5516  0.9388  0.0004
  475MOL0     H64125  11.292   5.062   3.436 -1.0833 -0.9799 -0.8673
  476MOL0     O64126   9.631   4.676   8.415  0.1588 -0.7297  0.4367
  476MOL0     C64127   9.736   4.725   8.446 -0.7067  0.1378  0.0905
  476MOL0     O64128   9.753   4.850   8.497 -0.2566  0.4795 -0.7686
  476MOL0     C64129   9.646   4.932   8.517  0.0721 -0.2254 -0.6656
  476MOL0     C64130   9.522   4.912   8.568  0.3349  0.4419  0.0132
  476MOL0     C64131   9.419   5.007   8.567  1.4930 -0.9324 -0.5741
  476MOL0     C64132   9.458   5.140   8.543 -0.0448 -0.3000  0.1337
  476MOL0     O64133   9.359   5.236   8.549  0.1320 -0.4821  0.3855
  476MOL0     C64134   9.224   5.208   8.566  0.1606 -0.1738  0.1428
  476MOL0     C64135   9.147   5.340   8.546  0.1565  0.3018  0.5745
  476MOL0     C64136   9.001   5.311   8.547 -0.8166  0.4801  0.4371
  476MOL0     C64137   8.935   5.446   8.514 -0.1909  0.1759  0.2701
  476MOL0     C64138   8.786   5.412   8.532  0.5624 -0.0614 -0.4208
  476MOL0     C64139   8.715   5.541   8.526  0.7401 -0.2460  0.4328
  476MOL0     C64140   8.563   5.525   8.538  0.1341  0.0085  0.4482
  476MOL0     C64141   8.517   5.427   8.643 -0.1760 -0.5075 -0.3950
  476MOL0     N64142   8.373   5.436   8.651 -0.0718  0.5161 -0.3145
  476MOL0     C64143   8.293   5.539   8.663 -0.5935  0.0065  0.2436
  476MOL0     C64144   8.168   5.483   8.661  0.1657 -0.5798  0.2653
  476MOL0     C64145   8.040   5.562   8.670 -0.6448  0.3386  0.0298
  476MOL0     C64146   7.933   5.470   8.609  0.6118 -0.4981 -0.0817
  476MOL0     C64147   7.808   5.551   8.578  0.1793  1.4289  0.2623
  476MOL0     C64148   7.746   5.502   8.440 -0.1124 -0.5832 -0.0725
  476MOL0     O64149   7.605   5.526   8.406  0.2996  0.0237 -0.1400
  476MOL0     C64150   7.506   5.461   8.481 -0.1275  0.7260  0.1511
  476MOL0     C64151   7.372   5.506   8.451  0.2329 -0.5780 -0.3345
  476MOL0     C64152   7.260   5.459   8.525  0.0894 -0.8542 -0.4322
  476MOL0     C64153   7.129   5.529   8.502  0.2730 -0.5294 -0.8601
  476MOL0     C64154   7.283   5.362   8.630  0.1406 -0.5678  0.7490
  476MOL0     C64155   7.174   5.276   8.687 -0.4201 -0.7497 -0.9414
  476MOL0     O64156   7.056   5.264   8.614 -0.6543  0.1119 -0.1012
  476MOL0     C64157   6.940   5.222   8.683 -0.9497 -0.0605 -0.0343
  476MOL0     C64158   6.903   5.280   8.810  0.2809  0.4429 -0.1550
  476MOL0     C64159   6.783   5.249   8.876  0.0243  0.8583  0.6276
  476MOL0     C64160   6.699   5.158   8.823  0.0449 -0.4080 -0.1774
  476MOL0     O64161   6.583   5.138   8.900  0.1635  0.2156 -0.1467
  476MOL0     C64162   6.460   5.128   8.827  0.9054 -0.4651 -0.1835
  476MOL0     C64163   6.343   5.149   8.928  0.1275  0.0339  0.3049
  476MOL0     C64164   6.213   5.139   8.856 -0.0342 -0.1584 -0.4193
  476MOL0     C64165   6.088   5.127   8.950  0.4511 -0.5484  0.2019
  476MOL0     C64166   6.104   5.237   9.067 -0.7357 -0.6976  0.0619
  476MOL0     C64167   5.989   5.248   9.170 -0.1603  0.0232 -0.3988
  476MOL0     C64168   5.989   5.115   9.247 -0.4635 -0.2324 -1.1850
  476MOL0     C64169   5.913   5.124   9.375  0.4498 -1.5907 -0.1541
  476MOL0    Cl64170   5.899   4.983   9.470  0.2741 -0.1068 -0.0743
  476MOL0     C64171   6.724   5.108   8.698  0.1587 -0.0960  0.1293
  476MOL0     C64172   6.844   5.140   8.631 -0.1680  0.3025 -0.0859
  476MOL0     O64173   7.195   5.241   8.804 -0.3505 -0.5841  0.0878
  476MOL0     C64174   7.414   5.334   8.663 -0.0767 -0.5996 -0.1908
  476MOL0     C64175   7.525   5.377   8.591 -0.2197  0.2826  0.0545
  476MOL0     N64176   8.181   5.346   8.643 -0.3023 -1.2226  0.0045
  476MOL0     N64177   8.308   5.320   8.639  0.0924 -1.3416  0.2848
  476MOL0     C64178   9.588   5.172   8.509 -0.2947 -1.0058  1.0601
  476MOL0     C64179   9.679   5.067   8.490 -0.0651 -0.0006  0.1536
  476MOL0     C64180   9.860   4.647   8.429  0.3490  0.5098 -0.5239
  476MOL0     C64181   9.850   4.508   8.419  0.3761  1.0524 -0.1510
  476MOL0     C64182   9.957   4.424   8.391 -1.0187  0.2955  0.2339
  476MOL0     C64183  10.084   4.478   8.375 -0.4246 -0.5675 -0.1382
  476MOL0     O64184  10.202   4.409   8.358  0.2067  1.5256 -0.0673
  476MOL0     C64185  10.205   4.254   8.351 -0.0435 -0.2602  0.9453
  476MOL0     C64186  10.232   4.208   8.206  0.1187  0.0652 -1.1354
  476MOL0     C64187  10.354   4.261   8.131  0.4190 -0.2162  0.4493
  476MOL0     C64188  10.390   4.181   8.003  0.4527  0.2087  0.3921
  476MOL0     C64189  10.308   4.215   7.887  0.2666  0.6607  0.3136
  476MOL0     C64190  10.237   4.226   7.793 -0.1477  0.1160  0.4366
  476MOL0     C64191  10.095   4.621   8.403 -0.1859  0.7948  0.0284
  476MOL0     C64192   9.986   4.704   8.436  0.2585  0.1705 -0.4768
  476MOL0     H64193   9.495   4.808   8.584  0.1457  0.7920  2.3368
  476MOL0     H64194   9.317   4.973   8.581  1.3281 -0.6117 -0.9689
  476MOL0     H64195   9.208   5.136   8.484  1.6614 -0.9117  0.4593
  476MOL0     H64196   9.203   5.160   8.662 -2.8981  2.2708  0.8410
  476MOL0     H64197   9.170   5.417   8.620 -2.7325  0.7191  1.1802
  476MOL0     H64198   9.172   5.390   8.452  1.7075  3.5244  2.5135
  476MOL0     H64199   8.976   5.235   8.472  2.2806 -0.3677  0.1258
  476MOL0     H64200   8.970   5.273   8.644  0.2329 -0.2676  0.4950
  476MOL0     H64201   8.980   5.525   8.575 -0.3291 -0.3871  1.1224
  476MOL0     H64202   8.949   5.466   8.408  1.1748 -0.4730  0.3107
  476MOL0     H64203   8.745   5.343   8.458  1.8473 -2.6979  1.2005
  476MOL0     H64204   8.772   5.365   8.630 -1.1178 -2.6333 -1.7699
  476MOL0     H64205   8.746   5.601   8.612 -1.3235  1.8177 -0.1816
  476MOL0     H64206   8.746   5.600   8.439 -1.1324  0.7609  0.3995
  476MOL0     H64207   8.517   5.623   8.557  1.4887  0.7160  0.1874
  476MOL0     H64208   8.522   5.484   8.445 -2.2096 -0.6869  1.7258
  476MOL0     H64209   8.557   5.445   8.743 -0.0410 -1.0436 -0.3479
  476MOL0     H64210   8.545   5.325   8.616 -0.8144 -0.4534 -1.2787
  476MOL0     H64211   8.330   5.641   8.668 -1.5501  0.3488  0.5617
  476MOL0     H64212   8.034   5.601   8.772  0.6665  0.9159 -0.0950
  476MOL0     H64213   8.051   5.648   8.603 -0.4314 -0.1414 -0.5577
  476MOL0     H64214   7.908   5.397   8.686 -1.6299 -0.5304 -0.7807
  476MOL0     H64215   7.975   5.426   8.519 -0.4602 -1.2920 -0.2098
  476MOL0     H64216   7.809   5.660   8.567 -3.5614  1.3556 -4.9545
  476MOL0     H64217   7.742   5.535   8.664 -3.4638  0.3320 -2.4534
  476MOL0     H64218   7.767   5.397   8.420 -1.4119 -0.8973  0.1033
  476MOL0     H64219   7.818   5.549   8.373 -1.5353  0.5453 -0.8664
  476MOL0     H64220   7.358   5.588   8.381  2.9704  1.1163  0.9480
  476MOL0     H64221   7.151   5.633   8.527 -0.1355 -0.0598 -2.3846
  476MOL0     H64222   7.103   5.510   8.398 -3.9604 -2.1325  0.2737
  476MOL0     H64223   7.049   5.498   8.570  1.5504  1.6557  1.8426
  476MOL0     H64224   6.969   5.349   8.861  1.9716 -1.7600  0.7966
  476MOL0     H64225   6.757   5.279   8.977 -1.0003 -0.1142  0.6696
  476MOL0     H64226   6.446   5.215   8.761 -1.5247 -0.4753  0.2119
  476MOL0     H64227   6.452   5.035   8.769 -2.1208 -0.6177  0.3300
  476MOL0     H64228   6.361   5.084   9.015 -0.0988 -1.2520 -0.5707
  476MOL0     H64229   6.361   5.250   8.964 -0.5102  1.4171 -2.9492
  476MOL0     H64230   6.208   5.047   8.797 -0.7555  0.3334 -1.1395
  476MOL0     H64231   6.204   5.227   8.792  1.8867  2.0383  2.1056
  476MOL0     H64232   5.995   5.143   8.894  0.8284 -0.4497 -0.4083
  476MOL0     H64233   6.075   5.027   8.993 -2.8786 -0.7619 -1.0180
  476MOL0     H64234   6.106   5.336   9.021 -2.1290 -0.7573 -0.1983
  476MOL0     H64235   6.197   5.222   9.122 -0.7954  0.0773  0.3927
  476MOL0     H64236   6.019   5.325   9.241  2.0729 -2.5550  1.6715
  476MOL0     H64237   5.887   5.275   9.141 -0.2134  0.1998 -0.0526
  476MOL0     H64238   6.094   5.093   9.268  0.6377  0.8022 -4.8081
  476MOL0     H64239   5.951   5.036   9.182 -1.9604  0.3193 -1.0022
  476MOL0     H64240   5.811   5.149   9.346 -0.0359 -1.2795  1.6662
  476MOL0     H64241   5.944   5.203   9.443 -1.5685 -1.6403  0.9258
  476MOL0     H64242   6.668   5.023   8.660  0.8749 -0.0456 -1.0590
  476MOL0     H64243   6.869   5.101   8.533 -1.5665  0.7725 -0.6573
  476MOL0     H64244   7.431   5.271   8.750 -0.5512  0.6232  0.8378
  476MOL0     H64245   7.624   5.347   8.624  0.5186  0.2967 -2.0308
  476MOL0     H64246   9.617   5.276   8.498  3.0685 -1.8794  0.6911
  476MOL0     H64247   9.780   5.086   8.455 -0.6927  1.6303 -0.9082
  476MOL0     H64248   9.753   4.461   8.435 -0.5292  2.9864  0.2925
  476MOL0     H64249   9.922   4.322   8.387 -2.8242  0.7862  2.1153
  476MOL0     H64250  10.280   4.217   8.422 -2.4267 -0.2275  3.6685
  476MOL0     H64251  10.117   4.205   8.393 -0.1042  1.1122  2.5120
  476MOL0     H64252  10.136   4.217   8.154 -0.3115 -0.7071 -0.5131
  476MOL0     H64253  10.243   4.099   8.198 -0.9221 -0.0110 -1.8606
  476MOL0     H64254  10.443   4.268   8.195 -0.3584  0.6037  1.4740
  476MOL0     H64255  10.337   4.368   8.115  2.2730  0.5459  2.9556
  476MOL0     H64256  10.377   4.076   8.030  1.6648  0.1830  0.9599
  476MOL0     H64257  10.495   4.206   7.986  1.1398  0.9678  4.6097
  476MOL0     H64258  10.173   4.238   7.707 -2.3382 -1.0892  1.8035
  476MOL0     H64259  10.192   4.669   8.396  0.8539 -0.8290  2.0310
  476MOL0     H64260  10.002   4.807   8.465 -0.3533 -0.6061  3.1877
  477MOL0     O64261   8.946   8.828   4.530 -0.5739  0.1389 -1.1466
  477MOL0     C64262   8.979   8.717   4.497  0.4726  0.5775 -0.7596
  477MOL0     O64263   9.083   8.646   4.555  0.4332  0.2361  0.0352
  477MOL0     C64264   9.151   8.697   4.665  0.0675  0.3491  0.4865
  477MOL0     C64265   9.290   8.665   4.677 -0.2400  0.2434 -0.6265
  477MOL0     C64266   9.378   8.730   4.767 -0.0608 -0.3580 -0.2082
  477MOL0     C64267   9.329   8.827   4.856 -0.0227 -0.3620  0.0388
  477MOL0     O64268   9.422   8.884   4.937  0.2649 -0.2700 -0.2506
  477MOL0     C64269   9.395   8.899   5.076  0.1912 -0.6083 -0.3257
  477MOL0     C64270   9.387   8.770   5.155  0.0829  0.8467 -1.0387
  477MOL0     C64271   9.250   8.722   5.178  0.2774  0.5421 -0.6636
  477MOL0     C64272   9.259   8.599   5.281 -0.3752  0.1096 -0.3783
  477MOL0     C64273   9.132   8.557   5.349 -0.0772  0.5909 -0.7182
  477MOL0     C64274   9.016   8.515   5.266  1.2055 -0.1041 -1.1080
  477MOL0     C64275   8.881   8.538   5.338  0.0695 -0.2307  0.2145
  477MOL0     C64276   8.856   8.468   5.469  0.8283  0.3346 -0.7307
  477MOL0     N64277   8.713   8.408   5.488 -0.4693 -0.2464  1.2475
  477MOL0     C64278   8.596   8.475   5.502 -0.4984 -0.4527 -0.7797
  477MOL0     C64279   8.503   8.382   5.530  0.2541 -0.3445  0.3007
  477MOL0     C64280   8.361   8.430   5.572 -0.1876  0.4009  0.4116
  477MOL0     C64281   8.356   8.580   5.621  0.8981 -0.1423 -0.2759
  477MOL0     C64282   8.225   8.616   5.693  0.5695  0.8988 -0.5040
  477MOL0     C64283   8.220   8.546   5.835 -0.4239  0.5043  0.4263
  477MOL0     O64284   8.103   8.587   5.910 -0.2710  0.4040  0.3284
  477MOL0     C64285   7.988   8.520   5.871  0.1669  0.4338 -0.4844
  477MOL0     C64286   7.900   8.567   5.774 -0.1107  0.1804  0.0347
  477MOL0     C64287   7.776   8.505   5.749  0.6945  0.5529 -0.1026
  477MOL0     C64288   7.670   8.590   5.676  0.7124  0.5562 -0.3592
  477MOL0     C64289   7.741   8.383   5.814  1.8679 -0.4301 -0.0654
  477MOL0     C64290   7.612   8.316   5.787 -0.2081 -0.2022 -1.1550
  477MOL0     O64291   7.555   8.315   5.662 -0.9482 -0.3469  0.3983
  477MOL0     C64292   7.429   8.263   5.642  0.4198 -0.5238 -0.3742
  477MOL0     C64293   7.396   8.129   5.669  0.2604  0.6103 -0.1473
  477MOL0     C64294   7.270   8.069   5.638  0.2633 -1.3805  0.2489
  477MOL0     C64295   7.175   8.150   5.572  0.0440  1.0429  0.3756
  477MOL0     O64296   7.064   8.085   5.524 -0.3957  0.5113  0.3423
  477MOL0     C64297   6.931   8.149   5.520 -0.5572  0.3354  0.5179
  477MOL0     C64298   6.852   8.122   5.650 -0.0220  0.1687 -0.3067
  477MOL0     C64299   6.709   8.170   5.649  0.5156  0.3769 -1.1290
  477MOL0     C64300   6.613   8.110   5.548  0.8394 -0.0510  0.4829
  477MOL0     C64301   6.586   7.957   5.580 -0.4778 -0.1312  0.3069
  477MOL0     C64302   6.527   7.923   5.709 -0.0796  0.3256  0.5242
  477MOL0     C64303   6.517   7.774   5.755  0.1489  0.8385  0.1927
  477MOL0     C64304   6.446   7.689   5.656 -0.1610 -0.3192 -0.7072
  477MOL0    Cl64305   6.407   7.543   5.744 -0.0086  0.4184  0.7538
  477MOL0     C64306   7.203   8.289   5.556 -0.0047 -0.4787  0.0456
  477MOL0     C64307   7.328   8.346   5.592  0.7554 -0.5425  0.2624
  477MOL0     O64308   7.546   8.273   5.890  0.5717  0.1191 -0.3097
  477MOL0     C64309   7.829   8.345   5.910 -0.1273  0.3455 -0.3843
  477MOL0     C64310   7.955   8.399   5.932 -0.6467  0.8595  0.2734
  477MOL0     N64311   8.566   8.257   5.533 -0.3097 -0.4187 -0.2111
  477MOL0     N64312   8.694   8.274   5.510  0.0953 -0.5972 -0.5234
  477MOL0     C64313   9.196   8.853   4.854  0.8761  0.3321  1.1013
  477MOL0     C64314   9.111   8.792   4.756  0.1823 -0.4564  0.2239
  477MOL0     C64315   8.908   8.660   4.391  0.0134  0.5154 -1.0279
  477MOL0     C64316   8.791   8.708   4.336  0.7947  0.1047 -0.1843
  477MOL0     C64317   8.731   8.648   4.221 -0.3148  0.1835  0.3491
  477MOL0     C64318   8.784   8.533   4.167  0.3162 -0.2664 -0.5776
  477MOL0     O64319   8.707   8.487   4.065 -0.5422 -0.0005 -0.3332
  477MOL0     C64320   8.763   8.382   3.984 -0.7791 -0.0962  0.6658
  477MOL0     C64321   8.792   8.445   3.844 -0.4729 -0.1759 -0.0614
  477MOL0     C64322   8.661   8.498   3.781  0.0687  0.4647 -0.0153
  477MOL0     C64323   8.595   8.399   3.694  0.2514 -0.3183 -0.9158
  477MOL0     C64324   8.501   8.451   3.592  0.4028  0.4414  0.6176
  477MOL0     C64325   8.420   8.487   3.503  0.3355  0.0909  0.6154
  477MOL0     C64326   8.902   8.482   4.221  0.2789 -0.2397 -1.4551
  477MOL0     C64327   8.962   8.543   4.332 -0.7254  0.0810 -0.1495
  477MOL0     H64328   9.319   8.593   4.601 -3.9481 -0.8330 -1.2205
  477MOL0     H64329   9.484   8.712   4.749  0.1026  0.5498 -0.2147
  477MOL0     H64330   9.469   8.962   5.126 -0.4764  0.7135 -0.9342
  477MOL0     H64331   9.298   8.948   5.090  0.5530  0.3149 -0.9672
  477MOL0     H64332   9.442   8.694   5.099 -0.0926 -0.0292 -0.0366
  477MOL0     H64333   9.448   8.779   5.245  0.0677  2.0600 -1.1311
  477MOL0     H64334   9.182   8.799   5.213 -1.9781 -1.7324  0.2733
  477MOL0     H64335   9.214   8.681   5.083 -0.1338 -1.7909  0.4197
  477MOL0     H64336   9.298   8.512   5.228 -0.7378  1.6011 -3.3117
  477MOL0     H64337   9.329   8.610   5.364 -0.6343 -1.6609  0.1286
  477MOL0     H64338   9.146   8.467   5.409 -0.9910 -0.6858 -2.3174
  477MOL0     H64339   9.095   8.640   5.410 -1.2138 -1.6885  1.8804
  477MOL0     H64340   9.020   8.577   5.175  2.2723  0.5394 -0.6425
  477MOL0     H64341   9.022   8.409   5.238 -0.6097  0.3052 -3.4091
  477MOL0     H64342   8.853   8.644   5.343 -2.7341 -0.8916 -0.0797
  477MOL0     H64343   8.808   8.494   5.270  0.3693  1.3809 -1.2355
  477MOL0     H64344   8.876   8.535   5.553  1.1295 -2.4578  1.5822
  477MOL0     H64345   8.931   8.389   5.477 -0.1003 -0.7113 -1.7839
  477MOL0     H64346   8.588   8.582   5.488  2.9550  0.1665  1.0199
  477MOL0     H64347   8.302   8.439   5.480  1.2590  0.2476 -0.5799
  477MOL0     H64348   8.310   8.366   5.644  0.6164 -0.2283  0.4412
  477MOL0     H64349   8.363   8.658   5.544  0.7987  1.5218  1.3186
  477MOL0     H64350   8.433   8.604   5.695 -1.4486  1.5002  1.8395
  477MOL0     H64351   8.142   8.580   5.631  0.9729 -2.0058  0.5091
  477MOL0     H64352   8.226   8.723   5.713  0.4363  0.4692  2.2532
  477MOL0     H64353   8.301   8.580   5.900  0.0450 -2.7913  1.7816
  477MOL0     H64354   8.233   8.437   5.831  0.5193  0.6019  0.6355
  477MOL0     H64355   7.919   8.664   5.729  1.7343 -0.1746 -0.0072
  477MOL0     H64356   7.706   8.693   5.671 -1.0234  1.4304  2.6550
  477MOL0     H64357   7.653   8.543   5.579  0.7616  0.4687 -0.3252
  477MOL0     H64358   7.580   8.588   5.739  2.1334 -1.7266  1.7984
  477MOL0     H64359   7.470   8.059   5.707  1.1051 -1.0724 -4.3619
  477MOL0     H64360   7.262   7.961   5.633  1.4067 -1.5678  1.8410
  477MOL0     H64361   6.944   8.257   5.518 -1.6092  0.4600 -0.3186
  477MOL0     H64362   6.878   8.112   5.432  3.7182  0.0506 -2.1984
  477MOL0     H64363   6.838   8.017   5.677 -2.7808  0.9992  2.1011
  477MOL0     H64364   6.906   8.176   5.729  1.4204 -0.8484 -0.5683
  477MOL0     H64365   6.711   8.277   5.631  2.8312  0.1716 -2.4261
  477MOL0     H64366   6.671   8.149   5.750  1.0907  0.7515 -0.8285
  477MOL0     H64367   6.514   8.155   5.556  0.2942 -1.1696  0.2177
  477MOL0     H64368   6.643   8.142   5.448 -0.0027  0.4952  0.3947
  477MOL0     H64369   6.684   7.910   5.577 -0.2562  0.3473 -1.3310
  477MOL0     H64370   6.524   7.918   5.498 -0.6265  0.7287 -0.0112
  477MOL0     H64371   6.580   7.966   5.795  0.5207  1.7488 -0.5201
  477MOL0     H64372   6.424   7.959   5.703  0.1240  0.6612 -2.4031
  477MOL0     H64373   6.474   7.770   5.856  3.4569 -2.5013  1.7331
  477MOL0     H64374   6.620   7.738   5.771  0.7391  0.1950 -3.9052
  477MOL0     H64375   6.520   7.675   5.576  0.6369 -0.5463  0.0518
  477MOL0     H64376   6.356   7.741   5.623  0.5856  1.3354 -0.2833
  477MOL0     H64377   7.129   8.355   5.512  1.3802  2.5800  1.9320
  477MOL0     H64378   7.333   8.453   5.577  0.2047 -0.5994 -0.3410
  477MOL0     H64379   7.809   8.253   5.965 -3.0358  1.0812 -0.0599
  477MOL0     H64380   8.019   8.356   6.008  0.1141  1.5015  0.0109
  477MOL0     H64381   9.164   8.938   4.913  0.1664  0.8125  0.0669
  477MOL0     H64382   9.006   8.813   4.772  0.2843  0.1868  0.0628
  477MOL0     H64383   8.745   8.793   4.386 -2.5282 -0.2737 -2.3062
  477MOL0     H64384   8.656   8.702   4.165  1.7374 -0.0541 -2.8604
  477MOL0     H64385   8.843   8.322   4.028  1.3832  0.8255 -1.7243
  477MOL0     H64386   8.683   8.312   3.958  0.2276 -0.9304 -0.2925
  477MOL0     H64387   8.843   8.373   3.780 -3.0576 -2.3425  0.1433
  477MOL0     H64388   8.859   8.531   3.853  1.6191 -1.3595 -2.9893
  477MOL0     H64389   8.691   8.579   3.714 -0.7525  0.7464 -0.0531
  477MOL0     H64390   8.595   8.553   3.848  2.7124  2.0053  1.5168
  477MOL0     H64391   8.534   8.338   3.761  1.2670  0.9228  1.2301
  477MOL0     H64392   8.671   8.340   3.641 -0.2987 -0.4734 -1.5523
  477MOL0     H64393   8.351   8.507   3.423  2.9459  2.3485 -1.2650
  477MOL0     H64394   8.946   8.392   4.179  1.1232 -1.1580  1.2082
  477MOL0     H64395   9.044   8.480   4.366 -1.9280 -1.8044 -0.6228
  478MOL0     O64396   7.980   5.586   6.346 -0.4210 -0.1402  0.5129
  478MOL0     C64397   8.043   5.647   6.430  1.0183 -0.1881  0.5218
  478MOL0     O64398   8.002   5.759   6.491  0.4306 -0.7053 -0.2951
  478MOL0     C64399   7.877   5.817   6.478  0.2638  0.4645  0.5738
  478MOL0     C64400   7.763   5.750   6.444  1.3769  0.3766  0.2205
  478MOL0     C64401   7.645   5.822   6.436 -0.1224  0.2053  0.1115
  478MOL0     C64402   7.633   5.954   6.467 -0.4454 -0.4766 -0.4623
  478MOL0     O64403   7.507   6.023   6.466  0.1206 -0.3089  0.2233
  478MOL0     C64404   7.390   5.953   6.419  0.4561 -0.8141 -0.0031
  478MOL0     C64405   7.281   6.066   6.393  0.4484 -0.3461  0.0999
  478MOL0     C64406   7.145   5.999   6.379 -0.6352 -0.0727 -0.1501
  478MOL0     C64407   7.049   6.092   6.310  0.0827  0.8269 -0.1889
  478MOL0     C64408   6.913   6.027   6.301 -0.9652  0.0438 -0.2154
  478MOL0     C64409   6.798   6.117   6.245  0.1062 -0.2646  0.0838
  478MOL0     C64410   6.660   6.079   6.315  0.3977  0.8271  0.0756
  478MOL0     C64411   6.563   6.182   6.267  0.5161  0.2579 -1.0568
  478MOL0     N64412   6.421   6.149   6.305 -0.0990  0.5889  0.7185
  478MOL0     C64413   6.319   6.237   6.296  0.4836  0.1798 -0.4288
  478MOL0     C64414   6.217   6.170   6.356 -0.5330 -1.2587 -0.1885
  478MOL0     C64415   6.085   6.229   6.396 -0.1719 -0.0207 -0.1163
  478MOL0     C64416   5.980   6.242   6.288  0.2743  0.9510  0.0682
  478MOL0     C64417   5.948   6.100   6.230 -0.3664 -0.3670 -0.8299
  478MOL0     C64418   5.827   6.070   6.148  0.3706  0.1113 -0.1612
  478MOL0     O64419   5.789   5.931   6.163  0.4792 -0.2266  0.3493
  478MOL0     C64420   5.655   5.906   6.147  1.1633 -0.6739  0.5846
  478MOL0     C64421   5.582   5.952   6.033  0.3252 -0.0844  0.0703
  478MOL0     C64422   5.447   5.909   6.018 -0.1194 -0.5054  0.3168
  478MOL0     C64423   5.377   5.946   5.894  0.0903 -0.8001  0.9739
  478MOL0     C64424   5.375   5.846   6.119  0.4525 -0.3402  0.3387
  478MOL0     C64425   5.233   5.811   6.119  0.3024 -0.9465 -0.3703
  478MOL0     O64426   5.185   5.700   6.193  0.1623 -0.5665 -0.2687
  478MOL0     C64427   5.057   5.655   6.170 -0.5127  0.1982  0.3983
  478MOL0     C64428   4.995   5.580   6.272 -0.1120  0.1803  0.0186
  478MOL0     C64429   4.887   5.498   6.243  0.7496  0.3337  0.8353
  478MOL0     C64430   4.836   5.492   6.115  0.2784  0.3796  0.1691
  478MOL0     O64431   4.709   5.433   6.071  0.1944 -0.4739 -0.0134
  478MOL0     C64432   4.617   5.416   6.171  0.5932 -0.3107  0.2659
  478MOL0     C64433   4.500   5.337   6.096 -0.4139 -0.7612 -0.0953
  478MOL0     C64434   4.370   5.329   6.182 -0.6909 -0.1007 -0.3615
  478MOL0     C64435   4.258   5.256   6.112  0.1181  0.2765 -0.5978
  478MOL0     C64436   4.127   5.255   6.192 -0.0081  0.3813 -0.4842
  478MOL0     C64437   4.016   5.172   6.135 -0.4620  0.5393 -0.2892
  478MOL0     C64438   3.896   5.173   6.231  0.0655 -0.4625  0.3054
  478MOL0     C64439   3.785   5.090   6.164  0.2114  0.0745  0.8367
  478MOL0    Cl64440   3.732   5.180   6.021 -0.1159 -0.0040 -0.3148
  478MOL0     C64441   4.887   5.568   6.012 -0.3656 -1.0109 -0.4867
  478MOL0     C64442   4.994   5.653   6.040  0.0984  0.0489  0.1833
  478MOL0     O64443   5.159   5.900   6.064 -0.1304  0.2744 -0.3504
  478MOL0     C64444   5.450   5.811   6.238  1.0689  0.7895  0.5658
  478MOL0     C64445   5.587   5.841   6.245 -0.2889  0.5492  0.2547
  478MOL0     N64446   6.259   6.048   6.412  0.2233  0.4356  0.1342
  478MOL0     N64447   6.380   6.038   6.369  0.3107  0.7485 -0.4963
  478MOL0     C64448   7.744   6.020   6.529 -0.2113  0.2591  0.7855
  478MOL0     C64449   7.867   5.950   6.522  0.1327  0.0338 -0.8608
  478MOL0     C64450   8.166   5.590   6.493 -0.1428 -0.0247  0.6412
  478MOL0     C64451   8.217   5.624   6.619  0.0404  0.0745 -0.2600
  478MOL0     C64452   8.336   5.578   6.667  1.2057  0.2972  0.6423
  478MOL0     C64453   8.409   5.483   6.596 -0.7980  0.0412 -0.2726
  478MOL0     O64454   8.532   5.434   6.640  0.5026 -0.6925  0.3911
  478MOL0     C64455   8.551   5.432   6.778 -0.3025  0.4746 -0.4186
  478MOL0     C64456   8.651   5.322   6.806 -0.2327 -0.3087 -0.8534
  478MOL0     C64457   8.661   5.281   6.953 -0.6828 -0.5479 -0.5105
  478MOL0     C64458   8.805   5.227   6.994 -0.7717 -0.7753 -0.4393
  478MOL0     C64459   8.799   5.219   7.141 -0.1771 -0.5421  0.0406
  478MOL0     C64460   8.785   5.214   7.259 -0.5204 -0.8665 -0.5905
  478MOL0     C64461   8.368   5.448   6.466 -0.8031 -0.0287  0.9120
  478MOL0     C64462   8.243   5.498   6.412  0.2529  0.3737 -0.5976
  478MOL0     H64463   7.770   5.643   6.430  2.7159  0.5815 -1.0264
  478MOL0     H64464   7.557   5.769   6.400 -0.2461  0.5186 -0.0604
  478MOL0     H64465   7.411   5.915   6.319  1.6314 -1.2352  0.3902
  478MOL0     H64466   7.351   5.875   6.484 -1.0154 -0.4353 -0.3805
  478MOL0     H64467   7.271   6.127   6.483 -2.3346 -1.2930  0.5230
  478MOL0     H64468   7.313   6.131   6.310 -1.2174 -0.3636 -0.5905
  478MOL0     H64469   7.161   5.929   6.296  2.9337  2.0339 -1.4915
  478MOL0     H64470   7.108   5.951   6.470  0.5881 -1.9635 -0.5869
  478MOL0     H64471   7.036   6.179   6.374  0.5617  1.9859 -1.6054
  478MOL0     H64472   7.082   6.111   6.208 -1.7727 -2.3243 -1.5226
  478MOL0     H64473   6.914   5.937   6.239  0.8932 -1.4175  1.7599
  478MOL0     H64474   6.893   5.989   6.402 -0.1162 -1.9729 -0.7618
  478MOL0     H64475   6.820   6.222   6.264 -1.3424  0.9473 -3.9231
  478MOL0     H64476   6.776   6.110   6.138  0.1465  2.8510 -0.2291
  478MOL0     H64477   6.642   5.975   6.288 -1.1202  1.3277 -0.9747
  478MOL0     H64478   6.674   6.086   6.423 -0.0161 -2.7248  0.4783
  478MOL0     H64479   6.564   6.191   6.158 -0.1753 -0.5425 -1.1368
  478MOL0     H64480   6.576   6.280   6.315 -1.8954  1.0001 -1.7635
  478MOL0     H64481   6.321   6.342   6.272  0.5197  0.5990  1.2951
  478MOL0     H64482   6.042   6.163   6.472  0.7157  0.1903  0.5847
  478MOL0     H64483   6.110   6.325   6.443  0.7554  2.3043 -4.7313
  478MOL0     H64484   5.999   6.317   6.211 -3.3053 -0.4586 -2.4560
  478MOL0     H64485   5.886   6.270   6.338  0.5592 -0.5047  1.5097
  478MOL0     H64486   5.938   6.034   6.317 -2.0824  0.6356 -0.2242
  478MOL0     H64487   6.036   6.093   6.164 -1.6783  0.4965 -2.7553
  478MOL0     H64488   5.846   6.117   6.051  1.9770  3.5081  1.6123
  478MOL0     H64489   5.750   6.137   6.188  1.3980 -0.3882  2.9415
  478MOL0     H64490   5.622   6.003   5.946 -0.6117  1.5740  0.5716
  478MOL0     H64491   5.436   6.013   5.832 -2.1193  0.3848  0.0525
  478MOL0     H64492   5.345   5.855   5.844  1.3870  0.2696 -2.0028
  478MOL0     H64493   5.295   6.018   5.900  2.0001  1.6643 -0.4803
  478MOL0     H64494   5.038   5.577   6.372 -1.5140  0.4277  0.6443
  478MOL0     H64495   4.848   5.450   6.333 -0.5646  1.5854  0.9713
  478MOL0     H64496   4.657   5.350   6.249 -0.6610 -3.5669 -1.6429
  478MOL0     H64497   4.582   5.510   6.214 -1.5882 -1.0603  0.2796
  478MOL0     H64498   4.470   5.389   6.005 -2.0852 -1.8124 -0.1851
  478MOL0     H64499   4.528   5.236   6.064  0.1195  0.4644 -3.9277
  478MOL0     H64500   4.335   5.431   6.198 -1.5940 -0.7033  2.1599
  478MOL0     H64501   4.386   5.285   6.281 -1.3417  1.9905  0.7213
  478MOL0     H64502   4.251   5.304   6.014  0.4144  0.3704 -0.5729
  478MOL0     H64503   4.286   5.152   6.092  0.4473  0.3413 -0.4843
  478MOL0     H64504   4.093   5.358   6.206  3.9466  1.5325  2.1719
  478MOL0     H64505   4.159   5.217   6.289  2.7718 -0.0551 -1.4913
  478MOL0     H64506   3.978   5.215   6.042 -2.2962 -0.7578 -0.1704
  478MOL0     H64507   4.056   5.074   6.110  1.3845  1.2313 -0.2182
  478MOL0     H64508   3.866   5.277   6.250  3.6899  1.5681 -3.4284
  478MOL0     H64509   3.924   5.130   6.328  2.0526 -0.0400 -0.0468
  478MOL0     H64510   3.698   5.088   6.230  1.9866 -0.0134  3.3278
  478MOL0     H64511   3.822   4.993   6.129  0.5099  1.2625 -2.4477
  478MOL0     H64512   4.845   5.562   5.912 -2.5687 -0.0890  0.3276
  478MOL0     H64513   5.048   5.700   5.959  1.8509 -0.1681  1.1784
  478MOL0     H64514   5.383   5.783   6.319 -0.9614 -0.3094 -1.3734
  478MOL0     H64515   5.645   5.811   6.331 -1.6563 -3.8078 -0.1344
  478MOL0     H64516   7.749   6.127   6.541  2.3107  1.5481 -6.5886
  478MOL0     H64517   7.954   6.009   6.548 -0.2543  0.4030 -0.3597
  478MOL0     H64518   8.167   5.697   6.681 -1.6022 -0.7966 -0.4831
  478MOL0     H64519   8.360   5.607   6.768 -1.1603  3.2160  0.5048
  478MOL0     H64520   8.597   5.528   6.803  0.8201  0.0705 -0.8550
  478MOL0     H64521   8.459   5.406   6.832  0.5687 -1.3841  0.2447
  478MOL0     H64522   8.751   5.361   6.786  1.1229 -1.2384  3.2052
  478MOL0     H64523   8.624   5.233   6.747 -2.4097 -1.6562  1.9452
  478MOL0     H64524   8.584   5.208   6.981  0.9511 -2.1958 -0.0890
  478MOL0     H64525   8.636   5.368   7.013  0.0788 -0.8330  0.2302
  478MOL0     H64526   8.889   5.291   6.966 -0.8965  0.2525  1.3654
  478MOL0     H64527   8.817   5.129   6.948  0.8788  0.0671 -1.9045
  478MOL0     H64528   8.780   5.209   7.365  0.2940 -1.0860 -0.5517
  478MOL0     H64529   8.427   5.376   6.411 -2.5531 -1.3473  0.6509
  478MOL0     H64530   8.212   5.465   6.313  0.1346  1.2146 -0.8448
  479MOL0     O64531   9.030   3.946   3.276  0.0256 -0.2575 -0.3027
  479MOL0     C64532   9.054   4.006   3.379 -0.3901 -0.3686  0.0281
  479MOL0     O64533   8.968   4.033   3.486 -0.0706  0.2698  0.7190
  479MOL0     C64534   8.839   3.992   3.492  0.4445  0.8662  0.1324
  479MOL0     C64535   8.754   4.076   3.556 -0.2690 -0.5997  0.1628
  479MOL0     C64536   8.625   4.034   3.590  0.5438 -0.4021  0.4791
  479MOL0     C64537   8.561   3.926   3.519 -0.6215  0.3409 -0.1721
  479MOL0     O64538   8.429   3.885   3.532  0.2891  0.5500  0.2189
  479MOL0     C64539   8.345   3.972   3.616 -0.0939  0.7649 -0.5578
  479MOL0     C64540   8.215   3.898   3.638 -0.1007 -0.5010  0.5802
  479MOL0     C64541   8.119   3.927   3.516  0.2959  0.2821  0.1795
  479MOL0     C64542   7.976   3.864   3.540  0.0320  0.9410  0.8173
  479MOL0     C64543   7.879   3.891   3.424 -0.7082  0.2912  0.4827
  479MOL0     C64544   7.742   3.822   3.430 -1.3641  0.0955 -0.0330
  479MOL0     C64545   7.678   3.800   3.290  0.7244 -0.3825 -1.3809
  479MOL0     C64546   7.538   3.730   3.302 -0.8362 -0.2828 -0.2101
  479MOL0     N64547   7.538   3.617   3.202 -0.2092  0.0529 -0.4453
  479MOL0     C64548   7.434   3.592   3.118  0.3448  0.1814 -0.4142
  479MOL0     C64549   7.472   3.472   3.056  0.2337 -0.4764 -0.4117
  479MOL0     C64550   7.385   3.387   2.969  0.3608 -0.1759  0.6160
  479MOL0     C64551   7.256   3.355   3.058  0.0560 -0.4027  0.4218
  479MOL0     C64552   7.143   3.286   2.977  1.1342  0.7103 -0.0459
  479MOL0     C64553   7.017   3.256   3.066  0.1799  0.0849  0.5302
  479MOL0     O64554   6.916   3.236   2.960 -0.0456 -0.1662  0.5893
  479MOL0     C64555   6.788   3.211   3.010  0.1918  0.3226 -0.3873
  479MOL0     C64556   6.694   3.189   2.903 -0.6102 -0.8049 -0.7824
  479MOL0     C64557   6.554   3.177   2.918  0.4876 -0.4842  0.3610
  479MOL0     C64558   6.468   3.159   2.807  0.5228 -0.1854 -0.4970
  479MOL0     C64559   6.511   3.172   3.054 -0.2122  0.1277 -0.5944
  479MOL0     C64560   6.370   3.173   3.091 -0.4272  0.1157  0.1643
  479MOL0     O64561   6.294   3.078   3.041 -0.2226 -0.2983 -0.0292
  479MOL0     C64562   6.158   3.086   3.052 -0.3179  0.0883  0.4584
  479MOL0     C64563   6.095   2.978   3.107 -0.7301 -0.3670 -0.1011
  479MOL0     C64564   5.956   2.987   3.109  0.1143 -0.0924  0.2462
  479MOL0     C64565   5.881   3.100   3.072 -0.4871 -0.1794 -0.0622
  479MOL0     O64566   5.749   3.098   3.098 -0.1343 -0.0237 -0.7370
  479MOL0     C64567   5.668   3.188   3.022 -1.2611  0.7768 -0.1574
  479MOL0     C64568   5.529   3.137   3.039  1.5124  0.2098  0.1691
  479MOL0     C64569   5.436   3.208   2.943 -0.7259 -0.5153  0.5934
  479MOL0     C64570   5.297   3.168   2.985 -0.0528  0.3008 -0.1306
  479MOL0     C64571   5.194   3.245   2.907  0.9049 -0.5021 -0.2802
  479MOL0     C64572   5.057   3.206   2.959  0.6679 -1.0292 -0.0066
  479MOL0     C64573   4.938   3.258   2.884 -1.1911 -0.3974 -0.1659
  479MOL0     C64574   4.810   3.192   2.937 -0.2889  0.6982  0.1621
  479MOL0    Cl64575   4.658   3.283   2.924 -0.0437 -0.0911  0.0220
  479MOL0     C64576   5.945   3.202   3.011  0.1015  0.0143  0.0438
  479MOL0     C64577   6.087   3.191   2.994  0.1168 -0.6117 -0.5778
  479MOL0     O64578   6.335   3.261   3.165  0.0110  0.3563 -0.0718
  479MOL0     C64579   6.604   3.186   3.157 -0.4730 -1.0833 -0.8735
  479MOL0     C64580   6.736   3.210   3.142 -0.4919 -0.4492  1.1061
  479MOL0     N64581   7.591   3.426   3.120 -0.5294  0.0895 -0.4824
  479MOL0     N64582   7.636   3.523   3.200 -1.3731 -0.2149  0.3313
  479MOL0     C64583   8.651   3.842   3.448  0.3507 -0.5058  1.0135
  479MOL0     C64584   8.787   3.866   3.436 -0.5360 -0.2794  0.6471
  479MOL0     C64585   9.191   4.059   3.388  0.3108 -0.4814  0.0228
  479MOL0     C64586   9.293   4.001   3.308  0.5801  0.5265 -0.1063
  479MOL0     C64587   9.424   4.047   3.327  0.1822  0.2600  0.8996
  479MOL0     C64588   9.462   4.136   3.420  0.5177 -0.1065 -0.3901
  479MOL0     O64589   9.595   4.157   3.446 -0.4389  0.1518  0.2545
  479MOL0     C64590   9.636   4.178   3.580 -0.3751 -0.4765 -0.9703
  479MOL0     C64591   9.783   4.133   3.581  0.1656 -0.1328 -0.0131
  479MOL0     C64592   9.834   4.110   3.721  0.2108 -0.4884  0.6883
  479MOL0     C64593   9.981   4.070   3.728  0.9559  0.2580 -0.5703
  479MOL0     C64594  10.057   4.163   3.646 -0.5305  0.3097 -0.3008
  479MOL0     C64595  10.115   4.223   3.561 -0.3571  1.0583 -0.5449
  479MOL0     C64596   9.356   4.186   3.509  0.0755 -0.0854 -0.6539
  479MOL0     C64597   9.227   4.149   3.489  0.0398 -0.5469 -0.0727
  479MOL0     H64598   8.802   4.152   3.617 -0.8812  0.2300 -0.3695
  479MOL0     H64599   8.573   4.106   3.651 -1.2598 -1.3925  0.2053
  479MOL0     H64600   8.385   3.983   3.717  1.8658 -2.0324 -0.9003
  479MOL0     H64601   8.333   4.074   3.579 -2.2723  0.4198 -0.9290
  479MOL0     H64602   8.232   3.791   3.654  1.3914 -0.4732 -0.6119
  479MOL0     H64603   8.172   3.932   3.733  0.1878 -1.1938  0.9673
  479MOL0     H64604   8.107   4.034   3.497  0.7028  0.8519  2.7707
  479MOL0     H64605   8.156   3.883   3.423  1.0124  0.7834  0.2207
  479MOL0     H64606   7.982   3.755   3.552 -0.8565  0.8398  0.4871
  479MOL0     H64607   7.935   3.904   3.633 -2.2678  1.8135 -0.4665
  479MOL0     H64608   7.853   3.997   3.431  0.9485  0.6365  2.7376
  479MOL0     H64609   7.931   3.871   3.329  0.6090  0.5613  1.1159
  479MOL0     H64610   7.751   3.720   3.470  0.0908  0.2243  0.0139
  479MOL0     H64611   7.683   3.900   3.478  1.5440  2.3651  0.1269
  479MOL0     H64612   7.671   3.898   3.240  2.0138  0.4308 -0.0529
  479MOL0     H64613   7.751   3.738   3.237  0.8851 -1.3751 -0.0323
  479MOL0     H64614   7.456   3.796   3.274 -0.8814 -0.8852 -1.5493
  479MOL0     H64615   7.522   3.698   3.406 -0.4640 -1.2493 -0.4421
  479MOL0     H64616   7.348   3.655   3.095  0.2784  0.1971 -0.1259
  479MOL0     H64617   7.355   3.441   2.878 -0.9843 -0.0859  1.1006
  479MOL0     H64618   7.438   3.299   2.931  1.8188  0.7505  0.4050
  479MOL0     H64619   7.221   3.450   3.098  0.5826 -0.2924  0.6199
  479MOL0     H64620   7.286   3.290   3.141  0.1259 -1.1039 -0.1399
  479MOL0     H64621   7.166   3.192   2.926 -2.0223 -1.7675  2.6384
  479MOL0     H64622   7.120   3.367   2.907 -1.6111 -1.6468 -2.0943
  479MOL0     H64623   6.988   3.341   3.128 -0.3985 -0.7769  1.4782
  479MOL0     H64624   7.030   3.172   3.135 -1.3646 -0.6967 -0.0855
  479MOL0     H64625   6.736   3.165   2.806 -1.5846 -1.9145 -0.9613
  479MOL0     H64626   6.379   3.221   2.826  0.7745 -0.1154  0.5035
  479MOL0     H64627   6.504   3.193   2.710  0.0378 -1.2489 -1.0646
  479MOL0     H64628   6.445   3.054   2.790  1.5606 -0.1806 -2.0438
  479MOL0     H64629   6.162   2.902   3.147 -1.2440 -1.0125 -0.4429
  479MOL0     H64630   5.913   2.901   3.160  0.2090 -0.0531  0.3931
  479MOL0     H64631   5.676   3.294   3.049 -2.5048  1.3535 -1.8129
  479MOL0     H64632   5.697   3.180   2.917 -2.9505 -0.3404 -0.5833
  479MOL0     H64633   5.520   3.032   3.011 -0.6161  0.3628  0.0994
  479MOL0     H64634   5.505   3.157   3.143 -1.1339 -1.3438 -0.0499
  479MOL0     H64635   5.451   3.165   2.843 -1.5752  0.2685  0.1194
  479MOL0     H64636   5.444   3.316   2.933 -0.2123 -0.5407  0.7160
  479MOL0     H64637   5.278   3.061   2.972  0.8279  0.3189 -1.7934
  479MOL0     H64638   5.282   3.195   3.090  2.0696  3.8418 -0.5840
  479MOL0     H64639   5.195   3.231   2.798 -2.1248 -0.9030 -0.3576
  479MOL0     H64640   5.216   3.350   2.928 -2.0852  0.4265 -1.2863
  479MOL0     H64641   5.046   3.097   2.950  1.7154 -1.1926  0.5895
  479MOL0     H64642   5.050   3.232   3.065  0.3369  1.6739 -0.6097
  479MOL0     H64643   4.947   3.243   2.776 -0.5630 -1.8644  0.0587
  479MOL0     H64644   4.918   3.362   2.910 -2.9278 -0.6099 -0.5384
  479MOL0     H64645   4.819   3.177   3.045  0.6609  1.5681  0.2169
  479MOL0     H64646   4.800   3.096   2.886 -0.5673  0.3940  0.7746
  479MOL0     H64647   5.877   3.284   2.992 -0.3616  0.4527  3.1233
  479MOL0     H64648   6.139   3.270   2.940 -0.4877  1.0121  1.1015
  479MOL0     H64649   6.570   3.183   3.260 -2.8279  0.1750 -1.5225
  479MOL0     H64650   6.803   3.218   3.227  0.0504  1.6676  0.5282
  479MOL0     H64651   8.611   3.752   3.404  1.7402 -0.2896 -0.7835
  479MOL0     H64652   8.855   3.792   3.395 -1.4558 -0.4615 -0.6070
  479MOL0     H64653   9.268   3.924   3.235 -1.8361  0.3887  0.7551
  479MOL0     H64654   9.507   4.007   3.269  0.9638  1.5359  1.0988
  479MOL0     H64655   9.627   4.286   3.597  0.0105 -0.5932  0.0790
  479MOL0     H64656   9.577   4.119   3.650 -2.6755  1.8221 -0.8351
  479MOL0     H64657   9.841   4.209   3.526  1.1173 -0.4246  0.5551
  479MOL0     H64658   9.803   4.037   3.534  0.3560 -0.9964  1.7333
  479MOL0     H64659   9.773   4.031   3.767 -0.2014 -0.7691 -0.2994
  479MOL0     H64660   9.813   4.201   3.777  1.8145  0.7547 -0.6329
  479MOL0     H64661  10.003   3.967   3.698  0.7462  0.2178 -0.5869
  479MOL0     H64662  10.005   4.079   3.835  0.2531  1.0579 -0.4700
  479MOL0     H64663  10.167   4.285   3.491 -0.4303 -0.6151 -2.1724
  479MOL0     H64664   9.385   4.245   3.596  0.5489 -1.6595  0.3117
  479MOL0     H64665   9.148   4.190   3.551  1.0109  0.9580  0.2221
  480MOL0     O64666   5.844   5.311   9.650 -0.3905 -1.0517 -0.4710
  480MOL0     C64667   5.861   5.214   9.722 -0.7496  0.1992 -0.0118
  480MOL0     O64668   5.766   5.145   9.796 -0.1364  0.1178 -0.0340
  480MOL0     C64669   5.644   5.193   9.785  1.0570  0.1369 -0.3970
  480MOL0     C64670   5.589   5.307   9.851  0.3929 -0.0517 -0.1857
  480MOL0     C64671   5.456   5.348   9.817 -0.8409 -0.6152 -0.2227
  480MOL0     C64672   5.377   5.267   9.740  0.3820 -0.1840  0.6987
  480MOL0     O64673   5.244   5.295   9.696 -0.3794 -0.3218 -0.2081
  480MOL0     C64674   5.199   5.257   9.567 -0.1862 -0.3257 -0.3044
  480MOL0     C64675   5.058   5.318   9.549 -0.2616  0.7859  0.0760
  480MOL0     C64676   4.945   5.230   9.599 -0.1108  0.4025  1.2444
  480MOL0     C64677   4.938   5.228   9.755  0.0917 -1.3274 -0.0056
  480MOL0     C64678   4.817   5.152   9.799 -0.1189  0.0363 -0.9691
  480MOL0     C64679   4.809   5.121   9.948  0.4215 -0.5458  1.0556
  480MOL0     C64680   4.728   4.997   9.971 -0.8029  0.8126  0.1593
  480MOL0     C64681   4.713   4.975  10.119 -0.6241 -0.0907 -0.9723
  480MOL0     N64682   4.629   4.857  10.144  0.0108  0.0578  0.8401
  480MOL0     C64683   4.515   4.858  10.220 -0.4002 -0.4395  0.7292
  480MOL0     C64684   4.479   4.728  10.226  0.1811  1.1373  0.2454
  480MOL0     C64685   4.362   4.671  10.300 -0.4162  0.3845  0.5116
  480MOL0     C64686   4.221   4.714  10.248 -0.1771 -0.5007 -0.7513
  480MOL0     C64687   4.121   4.598  10.268  0.4877 -0.3287  0.5285
  480MOL0     C64688   3.976   4.657  10.263  0.0046  0.1301 -0.6685
  480MOL0     O64689   3.883   4.553  10.269 -0.5491 -0.2492  0.3167
  480MOL0     C64690   3.747   4.576  10.280  0.7051  0.5435  0.2041
  480MOL0     C64691   3.667   4.473  10.336 -0.3231  0.0437 -0.1226
  480MOL0     C64692   3.527   4.476  10.348 -0.2409  0.4807 -0.6598
  480MOL0     C64693   3.458   4.357  10.411 -0.4690  0.0063  0.0556
  480MOL0     C64694   3.466   4.595  10.297  0.0529  0.2049 -0.4158
  480MOL0     C64695   3.316   4.606  10.290 -0.5597 -0.1829  0.3454
  480MOL0     O64696   3.234   4.503  10.322  0.3583  0.7326 -0.2414
  480MOL0     C64697   3.107   4.527  10.324 -0.2145 -0.5140 -0.2308
  480MOL0     C64698   3.027   4.586  10.226 -0.6039 -1.1143  0.0288
  480MOL0     C64699   2.889   4.603  10.246  0.5517 -0.6465 -0.7976
  480MOL0     C64700   2.828   4.569  10.370 -1.1802 -0.1397 -0.1480
  480MOL0     O64701   2.699   4.601  10.393  0.0523 -0.2819  0.2609
  480MOL0     C64702   2.668   4.663  10.514 -0.0236 -0.3059 -0.3948
  480MOL0     C64703   2.567   4.569  10.585 -1.2793 -0.8224 -0.7076
  480MOL0     C64704   2.432   4.557  10.528  0.4253 -0.1613  0.8970
  480MOL0     C64705   2.335   4.466  10.615 -0.4012  0.2362  0.2037
  480MOL0     C64706   2.216   4.417  10.528 -0.0401  0.6410 -0.5001
  480MOL0     C64707   2.242   4.318  10.416 -0.0025 -0.8931 -0.1195
  480MOL0     C64708   2.319   4.195  10.454 -0.4826  0.9464 -0.4301
  480MOL0     C64709   2.339   4.100  10.334  0.6384  0.1644 -0.0748
  480MOL0    Cl64710   2.190   4.014  10.282  0.1789  0.0245 -0.3971
  480MOL0     C64711   2.907   4.504  10.467 -1.3368 -1.0742  0.3125
  480MOL0     C64712   3.045   4.478  10.441 -0.2725 -0.1593  0.5738
  480MOL0     O64713   3.276   4.707  10.238 -0.2049 -0.1648  0.6527
  480MOL0     C64714   3.543   4.698  10.231 -0.0835  0.5023 -0.0079
  480MOL0     C64715   3.681   4.683  10.227  0.0299  0.1641 -0.3279
  480MOL0     N64716   4.574   4.654  10.153 -0.6126 -0.0419 -0.1756
  480MOL0     N64717   4.666   4.732  10.111  0.3037 -0.6429  0.1405
  480MOL0     C64718   5.428   5.161   9.681 -0.1462 -0.4906 -0.1756
  480MOL0     C64719   5.560   5.124   9.706  0.9106 -0.7189 -0.8194
  480MOL0     C64720   6.009   5.163   9.737 -0.3912  1.0448 -0.4689
  480MOL0     C64721   6.051   5.051   9.817 -0.0684  0.5138  0.0719
  480MOL0     C64722   6.183   5.036   9.850  0.3053 -0.2350 -0.2899
  480MOL0     C64723   6.287   5.113   9.803  0.8129 -0.2846 -0.0596
  480MOL0     O64724   6.419   5.105   9.836 -0.0341 -0.2800  0.0836
  480MOL0     C64725   6.450   5.002   9.927 -0.0641  0.1956 -0.2172
  480MOL0     C64726   6.602   4.990   9.955 -0.4531 -0.0560  0.4255
  480MOL0     C64727   6.633   4.914  10.083  0.4034 -0.4951 -0.0461
  480MOL0     C64728   6.776   4.903  10.120 -0.8841  0.0942 -0.6679
  480MOL0     C64729   6.857   4.822  10.032  0.1947 -0.4782  0.0279
  480MOL0     C64730   6.929   4.760   9.955  1.1303  0.3487  0.4091
  480MOL0     C64731   6.246   5.210   9.710  0.5539 -0.6787  0.3410
  480MOL0     C64732   6.109   5.239   9.682  0.1566  0.4503 -0.1096
  480MOL0     H64733   5.645   5.364   9.923 -0.3849  0.7468 -0.1964
  480MOL0     H64734   5.417   5.441   9.856  0.2756 -1.2528  2.7058
  480MOL0     H64735   5.256   5.295   9.482 -2.6518 -0.5793 -2.1928
  480MOL0     H64736   5.194   5.147   9.563  2.4768 -0.5113  0.1765
  480MOL0     H64737   5.043   5.411   9.604 -1.5803  0.3868  0.4155
  480MOL0     H64738   5.041   5.352   9.446  0.4236 -1.1414 -0.7340
  480MOL0     H64739   4.855   5.279   9.561  0.8893  0.7746 -0.7719
  480MOL0     H64740   4.940   5.122   9.579 -1.4653 -0.0078  3.4031
  480MOL0     H64741   5.023   5.173   9.797  0.7441  1.8592  3.4521
  480MOL0     H64742   4.937   5.328   9.800 -0.8362 -3.1281  4.4885
  480MOL0     H64743   4.728   5.213   9.782 -1.2569 -0.4927  2.3750
  480MOL0     H64744   4.822   5.060   9.740  3.5480 -0.9193  0.5002
  480MOL0     H64745   4.909   5.110   9.991  0.6371  1.4595  1.1831
  480MOL0     H64746   4.768   5.206  10.003  1.5045  0.9441 -0.3265
  480MOL0     H64747   4.631   5.021   9.926 -1.4557  1.0559  1.6523
  480MOL0     H64748   4.770   4.908   9.922 -2.8533 -0.4501  0.5775
  480MOL0     H64749   4.670   5.064  10.165 -0.4895 -0.6473  0.2784
  480MOL0     H64750   4.811   4.959  10.164 -1.0283 -0.4179 -0.1941
  480MOL0     H64751   4.466   4.941  10.270  0.3647  0.2290  0.3977
  480MOL0     H64752   4.364   4.562  10.290 -1.2311  0.3041  1.0967
  480MOL0     H64753   4.378   4.691  10.406  0.1150  0.1183  0.4844
  480MOL0     H64754   4.222   4.750  10.145  2.4904 -1.3049 -1.0630
  480MOL0     H64755   4.186   4.790  10.320 -0.9757 -1.2367 -0.3334
  480MOL0     H64756   4.134   4.536  10.357  1.7781 -1.8989 -0.6861
  480MOL0     H64757   4.123   4.529  10.182 -1.7638 -2.4154  1.9963
  480MOL0     H64758   3.960   4.723  10.177  1.0289  0.0314 -0.9544
  480MOL0     H64759   3.957   4.706  10.359 -0.6594 -1.1855 -0.1052
  480MOL0     H64760   3.719   4.387  10.377  0.3265  0.0701 -0.8659
  480MOL0     H64761   3.396   4.388  10.496 -1.0378 -0.1348 -0.2993
  480MOL0     H64762   3.402   4.296  10.338  2.7342 -3.2016 -0.0163
  480MOL0     H64763   3.522   4.279  10.454  0.9414 -0.7049 -3.0262
  480MOL0     H64764   3.079   4.620  10.137  0.1494  2.5286  1.6782
  480MOL0     H64765   2.829   4.656  10.173  0.3835  2.4676  1.4033
  480MOL0     H64766   2.749   4.674  10.587 -2.6324  2.7628  2.3698
  480MOL0     H64767   2.623   4.762  10.503  0.7427 -0.1637 -2.7801
  480MOL0     H64768   2.616   4.471  10.591  1.9500  0.6574 -0.5525
  480MOL0     H64769   2.558   4.603  10.688 -0.0728  1.0677 -1.1717
  480MOL0     H64770   2.440   4.533  10.422 -1.0393  0.9984  0.4861
  480MOL0     H64771   2.376   4.651  10.527 -0.4336 -0.6692 -0.0108
  480MOL0     H64772   2.388   4.373  10.634 -0.9575 -0.9992 -3.5249
  480MOL0     H64773   2.303   4.521  10.704 -1.0843  0.0496  0.0783
  480MOL0     H64774   2.161   4.503  10.490  2.3800  1.4333 -2.4593
  480MOL0     H64775   2.148   4.374  10.603  1.3214 -0.6436  0.0701
  480MOL0     H64776   2.142   4.284  10.387 -0.7818 -1.1413  2.6020
  480MOL0     H64777   2.293   4.362  10.330  0.3438 -2.9212 -1.0062
  480MOL0     H64778   2.278   4.137  10.537  1.0985 -0.7016 -0.7274
  480MOL0     H64779   2.418   4.229  10.487  0.1690 -1.2250  0.0040
  480MOL0     H64780   2.423   4.036  10.361 -0.1128  0.2644  2.7791
  480MOL0     H64781   2.373   4.157  10.247  2.7628 -2.5497 -1.1778
  480MOL0     H64782   2.865   4.484  10.565 -0.3169  0.5914  1.1300
  480MOL0     H64783   3.102   4.431  10.520 -0.3191 -0.4610  0.4317
  480MOL0     H64784   3.504   4.794  10.197  1.7751  1.4315  0.3994
  480MOL0     H64785   3.730   4.765  10.175 -0.2994 -1.8782 -4.2137
  480MOL0     H64786   5.373   5.092   9.617 -0.8476  0.4601 -0.6309
  480MOL0     H64787   5.594   5.039   9.648  2.1299 -1.4402  0.8652
  480MOL0     H64788   5.976   4.982   9.855 -0.1532 -1.0499 -2.6662
  480MOL0     H64789   6.199   4.947   9.910  1.1714  1.1995  1.7472
  480MOL0     H64790   6.393   5.009  10.020 -0.0045 -3.6557  0.2595
  480MOL0     H64791   6.419   4.905   9.888  1.2217 -0.5318  0.5084
  480MOL0     H64792   6.660   5.082   9.966  0.5623 -0.6619  0.3064
  480MOL0     H64793   6.659   4.944   9.873  1.7213  1.2439  1.1153
  480MOL0     H64794   6.588   4.815  10.073  0.2977 -0.4887  0.3424
  480MOL0     H64795   6.578   4.965  10.163 -0.6795  1.1782 -1.7734
  480MOL0     H64796   6.779   4.865  10.223 -0.5230  1.2907 -0.2245
  480MOL0     H64797   6.805   5.007  10.136 -2.3126  0.5573 -1.0378
  480MOL0     H64798   6.994   4.704   9.890  0.7461  0.8579 -0.4347
  480MOL0     H64799   6.318   5.274   9.659  0.4348 -2.1808 -1.8940
  480MOL0     H64800   6.093   5.328   9.622 -0.5142  1.3167  1.2831
  481MOL0     O64801   5.988   9.316   0.385  0.2092 -0.5836  0.3735
  481MOL0     C64802   6.048   9.217   0.425  0.3005  0.4025  0.0846
  481MOL0     O64803   6.008   9.134   0.523 -0.4239 -0.2296 -0.1633
  481MOL0     C64804   5.886   9.142   0.586 -0.0826  0.1490 -0.7987
  481MOL0     C64805   5.881   9.099   0.723  0.4315  0.9559  0.7676
  481MOL0     C64806   5.764   9.099   0.805 -0.5849  0.4379 -0.6405
  481MOL0     C64807   5.648   9.139   0.741  0.3475  0.0166 -0.2232
  481MOL0     O64808   5.530   9.145   0.809 -0.6950  0.0959 -0.0395
  481MOL0     C64809   5.530   9.149   0.954  0.4947  0.0764 -1.1048
  481MOL0     C64810   5.384   9.190   0.993  0.8373 -0.1987 -0.5064
  481MOL0     C64811   5.279   9.077   0.966  0.1463  0.2677  0.4885
  481MOL0     C64812   5.138   9.118   1.011 -0.9578 -0.5350 -0.5099
  481MOL0     C64813   5.052   9.003   1.046 -0.3542 -0.0885  0.2509
  481MOL0     C64814   4.927   9.057   1.114  0.8880  0.5929 -0.7959
  481MOL0     C64815   4.810   8.946   1.127  0.3409  0.1514  0.0907
  481MOL0     C64816   4.663   9.007   1.125 -0.4083 -0.0175  0.5470
  481MOL0     N64817   4.568   8.893   1.134  0.5249 -0.8536 -0.9421
  481MOL0     C64818   4.477   8.858   1.035 -0.2252  0.3384  0.2543
  481MOL0     C64819   4.400   8.767   1.098 -0.2746 -0.6731 -0.5229
  481MOL0     C64820   4.287   8.688   1.035 -0.4172 -0.4285  0.6668
  481MOL0     C64821   4.161   8.762   1.039 -0.5807 -0.1745  0.2156
  481MOL0     C64822   4.045   8.668   1.010  0.5844 -0.6746 -0.8094
  481MOL0     C64823   3.909   8.728   1.044 -0.2989  0.8952 -0.4276
  481MOL0     O64824   3.907   8.725   1.192  0.0264 -0.1048  1.0864
  481MOL0     C64825   3.783   8.708   1.237  0.3433 -0.0073 -0.1169
  481MOL0     C64826   3.678   8.783   1.186  0.0278  0.0691 -0.0134
  481MOL0     C64827   3.542   8.767   1.233 -0.6937  0.3641 -0.8539
  481MOL0     C64828   3.435   8.853   1.169 -0.6918  0.2036  0.0201
  481MOL0     C64829   3.515   8.675   1.340  0.4361 -0.1472 -0.6709
  481MOL0     C64830   3.376   8.664   1.408 -0.5664  0.0564  0.6449
  481MOL0     O64831   3.343   8.552   1.485  0.0652 -0.4160 -0.0963
  481MOL0     C64832   3.222   8.539   1.556  0.1013  0.5726 -0.3109
  481MOL0     C64833   3.175   8.411   1.577  0.3745  0.2949  0.8131
  481MOL0     C64834   3.058   8.381   1.648  0.1702 -0.6135  0.0634
  481MOL0     C64835   2.976   8.484   1.685 -0.0109 -0.0485  0.1372
  481MOL0     O64836   2.855   8.436   1.736 -0.1397 -0.3976  1.2273
  481MOL0     C64837   2.770   8.543   1.778 -0.6316  0.7928  0.0807
  481MOL0     C64838   2.642   8.472   1.837  0.0463 -0.1767 -0.2517
  481MOL0     C64839   2.533   8.578   1.872 -0.4879 -0.1999 -1.0811
  481MOL0     C64840   2.427   8.504   1.954  0.2014 -0.4660 -0.0306
  481MOL0     C64841   2.286   8.578   1.958  0.2148 -1.3338 -0.1524
  481MOL0     C64842   2.285   8.722   1.992 -0.4004  0.7325 -0.6504
  481MOL0     C64843   2.142   8.770   1.976  0.1559  0.9169 -1.1997
  481MOL0     C64844   2.133   8.916   1.983  0.4925 -0.1047 -0.3875
  481MOL0    Cl64845   1.964   8.966   2.006 -0.4427  0.0177  0.2265
  481MOL0     C64846   3.013   8.618   1.664  0.3551 -0.6299  0.1567
  481MOL0     C64847   3.134   8.643   1.599  0.0123  0.2038  0.3506
  481MOL0     O64848   3.298   8.755   1.387 -0.0759  0.0564  0.1671
  481MOL0     C64849   3.622   8.603   1.394 -0.7484 -0.4318 -0.5745
  481MOL0     C64850   3.751   8.620   1.336  0.1849  0.0565 -0.1810
  481MOL0     N64851   4.434   8.748   1.228  0.4306  0.3496 -0.6855
  481MOL0     N64852   4.534   8.830   1.251  0.6503 -0.6754 -0.8831
  481MOL0     C64853   5.650   9.174   0.606  0.1615 -0.0222 -0.4948
  481MOL0     C64854   5.766   9.178   0.531  0.3437  0.6586  1.0254
  481MOL0     C64855   6.184   9.193   0.366  0.3920 -0.0034  0.3077
  481MOL0     C64856   6.233   9.288   0.278  0.1922  0.2668  0.0886
  481MOL0     C64857   6.365   9.285   0.239  0.0428  0.4791 -0.3750
  481MOL0     C64858   6.446   9.182   0.272 -1.0208  0.5052  0.0407
  481MOL0     O64859   6.579   9.180   0.218  0.0662 -0.1642 -0.1603
  481MOL0     C64860   6.692   9.127   0.302  0.8643 -0.5237  0.0074
  481MOL0     C64861   6.834   9.149   0.237 -0.1846 -0.4903  0.8988
  481MOL0     C64862   6.850   9.088   0.096 -0.4911  0.0874 -0.4759
  481MOL0     C64863   6.995   9.098   0.048  0.1483  0.5151  0.5468
  481MOL0     C64864   7.019   9.042  -0.085 -0.4321  0.0668  0.1835
  481MOL0     C64865   7.038   8.993  -0.197 -0.0765  0.5157  0.0999
  481MOL0     C64866   6.402   9.091   0.366  0.1879 -0.9104 -0.0695
  481MOL0     C64867   6.270   9.099   0.421  0.5869 -0.2357  0.3229
  481MOL0     H64868   5.968   9.071   0.782  1.0057  0.7448 -0.1557
  481MOL0     H64869   5.758   9.066   0.908  0.3473 -0.5778 -0.8953
  481MOL0     H64870   5.549   9.046   0.986  0.3021  0.0467 -1.0837
  481MOL0     H64871   5.605   9.215   0.999  1.6599 -2.0808  0.2651
  481MOL0     H64872   5.374   9.227   1.095  0.7954 -2.2198  0.2670
  481MOL0     H64873   5.348   9.274   0.933 -3.5086 -0.0345  1.9620
  481MOL0     H64874   5.262   9.062   0.859 -3.0894 -0.4551  1.0127
  481MOL0     H64875   5.315   8.981   1.003 -0.2462  0.9197  2.6717
  481MOL0     H64876   5.150   9.182   1.099  0.8025 -0.3657 -0.8209
  481MOL0     H64877   5.091   9.180   0.934 -0.4925  0.6465  0.1265
  481MOL0     H64878   5.028   8.951   0.952  2.3418  0.9783 -1.1285
  481MOL0     H64879   5.104   8.931   1.110 -2.9994 -1.8181  0.6037
  481MOL0     H64880   4.951   9.097   1.213  0.4657 -0.1180 -0.3962
  481MOL0     H64881   4.876   9.141   1.067 -0.1692  1.8733  2.3290
  481MOL0     H64882   4.812   8.868   1.050  0.9702  0.6547 -0.4240
  481MOL0     H64883   4.819   8.900   1.225  1.2936  0.4576  0.1577
  481MOL0     H64884   4.642   9.067   1.036  0.3659 -0.0681  0.3194
  481MOL0     H64885   4.655   9.078   1.207 -1.7813  0.4410  0.0503
  481MOL0     H64886   4.431   8.905   0.949 -1.3106  1.4225  1.3867
  481MOL0     H64887   4.307   8.668   0.929 -0.3224  1.6647  0.2526
  481MOL0     H64888   4.289   8.589   1.083  1.1258 -1.1638 -0.8124
  481MOL0     H64889   4.154   8.846   0.969  0.0089 -0.0308  0.3279
  481MOL0     H64890   4.150   8.809   1.137  0.4149  2.6400 -0.9251
  481MOL0     H64891   4.062   8.581   1.075  2.2398  0.5067  0.4084
  481MOL0     H64892   4.034   8.647   0.903 -0.8551 -0.1153 -0.7912
  481MOL0     H64893   3.832   8.661   1.003 -1.4191  2.6104 -1.2242
  481MOL0     H64894   3.883   8.827   1.008  0.2092  1.3091  0.3123
  481MOL0     H64895   3.699   8.860   1.112  0.4526 -1.4459 -1.5055
  481MOL0     H64896   3.403   8.943   1.222  1.7442  1.8720 -1.1397
  481MOL0     H64897   3.476   8.916   1.089 -0.4903 -1.1787 -1.0128
  481MOL0     H64898   3.356   8.795   1.121 -0.3910  1.4465 -2.1188
  481MOL0     H64899   3.246   8.333   1.550  1.6961  0.8277  2.6156
  481MOL0     H64900   3.026   8.279   1.664  1.3909 -1.3188 -1.6398
  481MOL0     H64901   2.807   8.611   1.856  2.4920 -1.3776  0.6775
  481MOL0     H64902   2.749   8.601   1.688 -1.2499 -0.8351 -0.8762
  481MOL0     H64903   2.602   8.392   1.775 -0.0603 -1.5285  1.4626
  481MOL0     H64904   2.665   8.419   1.930 -1.0629 -2.0532 -0.9878
  481MOL0     H64905   2.504   8.617   1.774  0.8099 -2.1797 -2.3128
  481MOL0     H64906   2.593   8.649   1.930  1.0886 -1.9726 -0.4585
  481MOL0     H64907   2.416   8.402   1.916  2.6085 -0.3874 -1.1142
  481MOL0     H64908   2.466   8.499   2.056 -0.0457 -2.3556  0.0087
  481MOL0     H64909   2.226   8.528   2.034  0.3846  0.4293  1.2206
  481MOL0     H64910   2.231   8.561   1.865 -2.9898  1.6116  1.0181
  481MOL0     H64911   2.332   8.740   2.089  4.8267 -2.5887 -2.1563
  481MOL0     H64912   2.351   8.772   1.920  0.2849 -1.1320 -1.3990
  481MOL0     H64913   2.085   8.720   2.054 -0.2374  3.0978 -0.0237
  481MOL0     H64914   2.096   8.738   1.882 -3.1476  2.7925 -0.3738
  481MOL0     H64915   2.170   8.953   1.887 -2.0011  1.2070 -0.9332
  481MOL0     H64916   2.194   8.967   2.059 -0.9260  1.9742 -0.5483
  481MOL0     H64917   2.961   8.709   1.692  1.0360 -0.0436 -0.4511
  481MOL0     H64918   3.172   8.744   1.600  3.6567 -0.9153 -2.8695
  481MOL0     H64919   3.611   8.534   1.477 -1.2946  1.2154  0.8010
  481MOL0     H64920   3.834   8.569   1.383  0.3252 -0.6144 -1.1289
  481MOL0     H64921   5.565   9.212   0.550 -0.2451 -2.1877 -1.4367
  481MOL0     H64922   5.761   9.218   0.430 -2.2680 -1.8413  0.0298
  481MOL0     H64923   6.169   9.367   0.239  0.0260 -1.4678 -3.5556
  481MOL0     H64924   6.414   9.361   0.179  1.7669  0.7289  1.2691
  481MOL0     H64925   6.689   9.192   0.390 -0.3861  2.7406 -2.2444
  481MOL0     H64926   6.671   9.021   0.318 -0.2868 -0.5165 -1.2799
  481MOL0     H64927   6.905   9.091   0.296 -0.5000 -2.3697 -0.5069
  481MOL0     H64928   6.856   9.256   0.239 -1.7218 -0.1548  1.5968
  481MOL0     H64929   6.784   9.140   0.025  1.7915  1.3906 -1.7703
  481MOL0     H64930   6.810   8.987   0.096 -0.1572 -0.0460  0.4231
  481MOL0     H64931   7.064   9.044   0.112 -0.0859 -1.5527 -0.8446
  481MOL0     H64932   7.025   9.203   0.047 -3.5112  1.7342  0.9396
  481MOL0     H64933   7.054   8.959  -0.297 -0.5793  1.2017 -0.2252
  481MOL0     H64934   6.460   9.011   0.409 -0.5846  0.4969  4.0585
  481MOL0     H64935   6.244   9.025   0.496 -0.0218 -1.0263 -0.6417
  482MOL0     O64936   5.934   2.155   0.762  0.6873 -0.1994  0.0853
  482MOL0     C64937   5.974   2.039   0.767 -0.7868  0.2285 -0.6942
  482MOL0     O64938   5.897   1.932   0.759 -0.1508  0.2132  0.1846
  482MOL0     C64939   5.786   1.945   0.683 -0.5595 -0.5793 -0.5188
  482MOL0     C64940   5.670   2.012   0.725  0.0121 -0.5870  0.1874
  482MOL0     C64941   5.562   2.013   0.639  0.9434 -0.0425  0.2417
  482MOL0     C64942   5.566   1.946   0.518 -0.0054 -0.4183 -0.3502
  482MOL0     O64943   5.445   1.931   0.453 -0.6237  0.4539 -0.7308
  482MOL0     C64944   5.446   1.914   0.314  0.7620  0.5706  0.0334
  482MOL0     C64945   5.301   1.938   0.261  0.6307  0.3905  0.4507
  482MOL0     C64946   5.198   1.835   0.309 -0.2531 -0.2766 -0.2432
  482MOL0     C64947   5.046   1.862   0.267 -0.7149  0.4053 -0.7602
  482MOL0     C64948   4.961   1.748   0.328  1.2589  0.8664 -0.1426
  482MOL0     C64949   4.811   1.773   0.295 -0.3581  0.9358  0.8061
  482MOL0     C64950   4.761   1.897   0.351  0.3459  0.4765  0.1377
  482MOL0     C64951   4.615   1.895   0.403 -0.8439  0.2981  0.4490
  482MOL0     N64952   4.519   1.841   0.305 -0.0545  0.2328  0.0461
  482MOL0     C64953   4.398   1.780   0.339 -0.0996 -0.0158 -0.5872
  482MOL0     C64954   4.355   1.762   0.212  1.0997  0.6672  0.5666
  482MOL0     C64955   4.227   1.699   0.161 -0.4003  0.0352  0.1472
  482MOL0     C64956   4.088   1.778   0.201  0.0523 -0.1559  0.4234
  482MOL0     C64957   3.975   1.679   0.199  0.0908 -0.3444  0.2710
  482MOL0     C64958   3.844   1.737   0.261 -0.1560 -0.0058  0.8607
  482MOL0     O64959   3.791   1.836   0.166  0.1718  0.1387  0.8621
  482MOL0     C64960   3.666   1.887   0.183 -0.9354 -0.0563  1.3649
  482MOL0     C64961   3.640   2.003   0.108 -0.5146 -0.0545 -0.4756
  482MOL0     C64962   3.518   2.065   0.125  0.5705 -0.1972 -0.0369
  482MOL0     C64963   3.486   2.193   0.044 -0.1043  0.4820  0.6952
  482MOL0     C64964   3.426   2.017   0.226  0.1616  0.4865  0.3441
  482MOL0     C64965   3.293   2.078   0.245  0.7093  0.9317 -0.1755
  482MOL0     O64966   3.232   2.043   0.367 -0.3060  0.0686  0.2373
  482MOL0     C64967   3.095   2.053   0.380  0.5327 -0.1921 -0.6420
  482MOL0     C64968   3.010   2.031   0.272 -0.2064 -0.8937 -0.1567
  482MOL0     C64969   2.876   2.063   0.283  0.2200 -0.5051 -0.1078
  482MOL0     C64970   2.817   2.101   0.403 -1.0357 -0.0527  0.4666
  482MOL0     O64971   2.678   2.122   0.407 -0.3177 -0.2571  0.1911
  482MOL0     C64972   2.636   2.216   0.517  0.1012 -0.1961  0.4298
  482MOL0     C64973   2.491   2.276   0.482 -0.4381 -0.0946  0.1920
  482MOL0     C64974   2.375   2.176   0.509  0.6245 -0.2555  0.1429
  482MOL0     C64975   2.236   2.210   0.451 -0.8164  0.6093  0.1349
  482MOL0     C64976   2.138   2.086   0.462 -0.3576  0.1583 -0.1161
  482MOL0     C64977   2.005   2.111   0.398 -0.9156  0.1281 -0.5658
  482MOL0     C64978   1.907   1.996   0.406 -0.9713 -0.2630 -0.1766
  482MOL0     C64979   1.980   1.859   0.382 -0.6635 -0.4292 -0.0998
  482MOL0    Cl64980   2.074   1.851   0.233 -0.2917 -0.0689  0.2548
  482MOL0     C64981   2.903   2.108   0.514  0.5394  0.0852  0.5820
  482MOL0     C64982   3.038   2.087   0.504 -0.2424 -0.9934 -0.3389
  482MOL0     O64983   3.246   2.145   0.158  0.2593 -0.0018 -0.0917
  482MOL0     C64984   3.463   1.911   0.305  0.3904  0.1167 -0.3605
  482MOL0     C64985   3.581   1.846   0.281  0.7914 -1.5420 -0.5337
  482MOL0     N64986   4.447   1.802   0.112 -0.0949 -0.4890 -0.0790
  482MOL0     N64987   4.549   1.837   0.175 -0.4094  1.0931  0.0845
  482MOL0     C64988   5.685   1.878   0.480  0.4176 -0.3052 -1.1010
  482MOL0     C64989   5.791   1.877   0.565  0.2692  0.2057 -0.5515
  482MOL0     C64990   6.116   2.017   0.792 -0.0058 -0.8643  0.9818
  482MOL0     C64991   6.167   1.898   0.736 -1.1487  0.4169  0.2608
  482MOL0     C64992   6.303   1.864   0.755 -0.7643 -0.0637  0.6720
  482MOL0     C64993   6.384   1.940   0.847 -0.5462 -0.5263  0.1861
  482MOL0     O64994   6.518   1.924   0.876  0.1446  0.1486  0.1941
  482MOL0     C64995   6.569   1.788   0.855  0.4760 -0.2843  0.4298
  482MOL0     C64996   6.699   1.794   0.913  0.4465 -0.1132 -0.5119
  482MOL0     C64997   6.791   1.686   0.877  0.1244  0.3123  0.3462
  482MOL0     C64998   6.931   1.712   0.930 -0.4554 -0.1068  0.3437
  482MOL0     C64999   7.016   1.591   0.907  0.2693 -0.4183 -0.2900
  482MOL0     C65000   7.086   1.493   0.894 -0.1089 -0.4564 -0.5019
  482MOL0     C65001   6.319   2.050   0.906 -0.0335  0.3904 -0.9243
  482MOL0     C65002   6.186   2.083   0.885 -0.4082 -0.7445 -0.0448
  482MOL0     H65003   5.667   2.052   0.826  0.1773 -0.0869 -0.0039
  482MOL0     H65004   5.468   2.058   0.672  2.9558  2.1885  3.4738
  482MOL0     H65005   5.515   1.991   0.277  0.5035  0.9519  0.3412
  482MOL0     H65006   5.480   1.812   0.294 -0.8248 -0.7673  3.4111
  482MOL0     H65007   5.258   2.032   0.298 -2.4287 -0.3428 -0.9478
  482MOL0     H65008   5.301   1.932   0.152  0.4123 -2.0909  0.5378
  482MOL0     H65009   5.224   1.735   0.275 -2.4736 -0.9539 -0.0998
  482MOL0     H65010   5.197   1.852   0.417 -0.6363 -0.5421 -0.2004
  482MOL0     H65011   5.016   1.962   0.300 -1.8496  0.7221 -2.6140
  482MOL0     H65012   5.040   1.850   0.158  2.4622  0.3242 -1.0283
  482MOL0     H65013   4.984   1.643   0.308 -7.2879 -2.0332  1.0228
  482MOL0     H65014   4.966   1.756   0.437  2.2566 -1.0122 -0.0135
  482MOL0     H65015   4.804   1.763   0.186  0.9532 -0.9148  0.8473
  482MOL0     H65016   4.752   1.688   0.332 -2.0934  0.2018 -3.1551
  482MOL0     H65017   4.830   1.933   0.427  1.9088  1.3302 -1.6216
  482MOL0     H65018   4.768   1.977   0.276  1.0030  0.9116  0.6566
  482MOL0     H65019   4.590   1.996   0.437 -3.3351 -0.5963  1.4669
  482MOL0     H65020   4.610   1.823   0.485 -0.3751 -0.9957 -0.6257
  482MOL0     H65021   4.351   1.747   0.431  0.7128 -0.3766 -0.2900
  482MOL0     H65022   4.230   1.695   0.052 -2.7063  0.3756  0.0247
  482MOL0     H65023   4.222   1.602   0.210  2.7361  0.6397  2.0031
  482MOL0     H65024   4.078   1.872   0.146  1.5474 -1.3840 -2.1289
  482MOL0     H65025   4.106   1.810   0.304 -2.6683  1.5793  0.4614
  482MOL0     H65026   4.009   1.599   0.266  0.2438  1.0747  1.9789
  482MOL0     H65027   3.953   1.655   0.095  1.9380 -3.9225  0.5447
  482MOL0     H65028   3.852   1.791   0.356 -0.0769  2.4688 -0.4530
  482MOL0     H65029   3.775   1.658   0.290  0.0839  0.4935  2.9190
  482MOL0     H65030   3.697   2.049   0.026 -0.1440  0.3823  0.0172
  482MOL0     H65031   3.459   2.278   0.107  1.8793  0.9373  1.0119
  482MOL0     H65032   3.576   2.230  -0.008  0.9787  2.6583  3.8210
  482MOL0     H65033   3.411   2.166  -0.031 -0.5000  4.7918 -0.8054
  482MOL0     H65034   3.058   2.002   0.179 -0.6955 -1.2887 -0.2936
  482MOL0     H65035   2.811   2.035   0.200  0.3927 -0.9335 -0.1020
  482MOL0     H65036   2.626   2.166   0.614  0.1574  0.4995  0.7996
  482MOL0     H65037   2.706   2.299   0.524 -0.7495  0.6542 -0.7040
  482MOL0     H65038   2.477   2.367   0.541 -0.5722  1.4007 -2.0342
  482MOL0     H65039   2.485   2.303   0.377 -0.1636 -0.8378 -0.0205
  482MOL0     H65040   2.374   2.172   0.619 -0.4988 -0.9111  0.1192
  482MOL0     H65041   2.410   2.075   0.487  0.1027 -0.6098  0.8893
  482MOL0     H65042   2.194   2.295   0.506  1.2922  1.9833 -0.2561
  482MOL0     H65043   2.243   2.249   0.349  0.6246 -1.5505 -0.6587
  482MOL0     H65044   2.130   2.057   0.567 -0.6015 -0.3029 -0.2611
  482MOL0     H65045   2.197   2.013   0.405 -2.6203 -0.0470 -2.3803
  482MOL0     H65046   1.956   2.195   0.447 -0.9619 -1.4978  2.4041
  482MOL0     H65047   2.036   2.128   0.295  2.8775  0.0066  0.3840
  482MOL0     H65048   1.827   2.012   0.333 -0.0689 -3.4671 -2.0741
  482MOL0     H65049   1.867   1.995   0.508  0.1311 -0.8642  0.2638
  482MOL0     H65050   1.891   1.795   0.376 -4.3798  4.1653 -0.2813
  482MOL0     H65051   2.032   1.840   0.476  1.1217  1.9791 -0.5047
  482MOL0     H65052   2.861   2.147   0.607  1.4466 -0.2631  1.1451
  482MOL0     H65053   3.117   2.091   0.578  1.9620  2.1915 -2.5922
  482MOL0     H65054   3.403   1.865   0.383  2.3101 -0.7415  0.6836
  482MOL0     H65055   3.596   1.757   0.342  3.2438  0.1985  1.6493
  482MOL0     H65056   5.683   1.826   0.385  1.0144 -3.8886  0.6631
  482MOL0     H65057   5.877   1.816   0.539  1.7903  1.2833  1.6419
  482MOL0     H65058   6.107   1.832   0.675 -3.1227 -0.2129  2.7186
  482MOL0     H65059   6.336   1.773   0.706 -0.6343  0.0028  0.6362
  482MOL0     H65060   6.511   1.712   0.907  1.3222 -1.1639  0.1231
  482MOL0     H65061   6.573   1.764   0.748 -0.4696 -0.9909  0.5483
  482MOL0     H65062   6.682   1.797   1.021 -3.0472 -3.5314 -0.7321
  482MOL0     H65063   6.745   1.891   0.891 -1.1883  1.0871  1.0685
  482MOL0     H65064   6.796   1.672   0.769 -1.6842  1.8161  0.0197
  482MOL0     H65065   6.760   1.586   0.910  2.1546 -1.5442 -2.8130
  482MOL0     H65066   6.937   1.730   1.038  1.6821  2.4791 -0.0983
  482MOL0     H65067   6.970   1.794   0.869 -2.7034  0.9686  0.2462
  482MOL0     H65068   7.151   1.408   0.884  0.9561 -0.0460  2.0833
  482MOL0     H65069   6.377   2.112   0.973 -2.3420 -0.9283  2.5692
  482MOL0     H65070   6.149   2.176   0.927  0.4930 -0.6914  0.6503
  483MOL0     O65071   5.960   3.154   0.127 -0.6249 -0.6287 -0.1681
  483MOL0     C65072   5.871   3.110   0.200 -0.8288  0.4481  0.5172
  483MOL0     O65073   5.745   3.077   0.151 -0.5659 -0.6513 -0.8366
  483MOL0     C65074   5.701   3.136   0.035 -0.6356  0.5617  0.0899
  483MOL0     C65075   5.719   3.275   0.014  0.7387 -0.4230  0.2155
  483MOL0     C65076   5.657   3.340  -0.100  0.4303  0.7403 -0.7465
  483MOL0     C65077   5.589   3.259  -0.192 -0.2961 -0.3655  1.0458
  483MOL0     O65078   5.526   3.327  -0.299  1.1888  0.2824 -0.6734
  483MOL0     C65079   5.485   3.264  -0.431  0.0133 -0.1240 -0.3453
  483MOL0     C65080   5.402   3.355  -0.527 -0.3045 -0.3816 -0.2321
  483MOL0     C65081   5.411   3.301  -0.666 -0.2468 -0.0122  0.0529
  483MOL0     C65082   5.329   3.410  -0.748  0.6800  0.2530 -0.6651
  483MOL0     C65083   5.327   3.363  -0.896 -0.0960 -0.7650  0.6208
  483MOL0     C65084   5.230   3.449  -0.974 -0.0285 -0.3054  0.1848
  483MOL0     C65085   5.234   3.412  -1.126 -0.4827  0.6645 -0.4132
  483MOL0     C65086   5.224   3.260  -1.160  0.4851 -1.0133  1.2628
  483MOL0     N65087   5.225   3.256  -1.308  0.2771  0.3717  0.1214
  483MOL0     C65088   5.333   3.288  -1.398 -0.4275  0.3337 -0.5872
  483MOL0     C65089   5.271   3.309  -1.516 -0.3565  0.3199  0.1870
  483MOL0     C65090   5.349   3.335  -1.643  0.2013 -0.3946  0.5756
  483MOL0     C65091   5.254   3.397  -1.745 -0.6886 -0.2220  0.8910
  483MOL0     C65092   5.335   3.462  -1.857  0.2664  0.3664  0.3530
  483MOL0     C65093   5.241   3.553  -1.938 -0.0029  0.0471  0.3146
  483MOL0     O65094   5.303   3.638  -2.038 -0.7246  0.5918 -0.2139
  483MOL0     C65095   5.246   3.761  -2.048  0.3276 -0.6271 -0.4870
  483MOL0     C65096   5.235   3.814  -2.178 -0.5947  0.1615 -0.2218
  483MOL0     C65097   5.190   3.950  -2.201 -0.1461 -0.6920  0.2931
  483MOL0     C65098   5.198   3.982  -2.350  0.8280 -0.5150  0.1633
  483MOL0     C65099   5.149   4.034  -2.102 -0.0031  0.0894 -0.6701
  483MOL0     C65100   5.117   4.176  -2.145 -0.0328  0.7010 -0.7620
  483MOL0     O65101   5.184   4.286  -2.098  0.3328  0.1177 -0.2975
  483MOL0     C65102   5.271   4.276  -1.996  0.0823  0.1095 -0.0810
  483MOL0     C65103   5.223   4.298  -1.870  0.2462  0.6491 -0.2081
  483MOL0     C65104   5.312   4.289  -1.765  0.1596  0.0383 -0.5682
  483MOL0     C65105   5.444   4.252  -1.777  0.1691  0.2425 -0.8435
  483MOL0     O65106   5.520   4.251  -1.669 -0.1588 -0.4987  0.3589
  483MOL0     C65107   5.656   4.236  -1.686  0.0644  0.5633  0.1177
  483MOL0     C65108   5.734   4.246  -1.555  0.0800 -0.8279  0.2428
  483MOL0     C65109   5.882   4.237  -1.595 -0.1335 -0.3490  0.1510
  483MOL0     C65110   5.988   4.213  -1.487 -0.3418  0.0291  0.8364
  483MOL0     C65111   6.125   4.204  -1.544 -1.0322 -0.7097 -0.2829
  483MOL0     C65112   6.236   4.233  -1.439 -0.0802  0.3019  0.6079
  483MOL0     C65113   6.371   4.200  -1.488  0.4327  0.7968 -0.1375
  483MOL0     C65114   6.480   4.221  -1.382 -0.5264 -0.4148  0.2816
  483MOL0    Cl65115   6.635   4.167  -1.442  0.2724  0.3808 -0.7671
  483MOL0     C65116   5.495   4.238  -1.909  0.5728  0.5280 -0.8707
  483MOL0     C65117   5.406   4.250  -2.017  0.6867  0.3066  0.5117
  483MOL0     O65118   5.014   4.184  -2.209  0.0791  0.1549  0.0999
  483MOL0     C65119   5.165   3.977  -1.967  0.6062 -1.1108  0.0800
  483MOL0     C65120   5.207   3.851  -1.940 -0.4829  0.7391  0.3730
  483MOL0     N65121   5.134   3.285  -1.501 -0.3510  0.6019 -0.5453
  483MOL0     N65122   5.111   3.260  -1.385  0.0253  0.1535 -0.7996
  483MOL0     C65123   5.559   3.122  -0.171  0.0554  0.3382 -0.7182
  483MOL0     C65124   5.613   3.062  -0.055  0.0127  0.3737 -0.6453
  483MOL0     C65125   5.908   3.068   0.335  0.2680  0.5309 -0.2147
  483MOL0     C65126   6.029   3.087   0.397 -1.5188  0.7771 -0.1422
  483MOL0     C65127   6.044   3.055   0.532 -0.2343  0.1744 -0.2806
  483MOL0     C65128   5.950   2.994   0.604 -0.8088  0.8637 -1.2950
  483MOL0     O65129   5.955   2.951   0.736  0.1423 -0.1452  0.5780
  483MOL0     C65130   6.077   2.982   0.810  0.7735 -0.2281  0.1163
  483MOL0     C65131   6.079   3.131   0.856  0.1089 -0.1818 -0.4445
  483MOL0     C65132   5.986   3.153   0.982  0.5245  0.5006 -0.1893
  483MOL0     C65133   5.935   3.302   0.997  0.6056  0.0951  0.0808
  483MOL0     C65134   5.801   3.316   1.046 -0.2926 -1.1381  0.7289
  483MOL0     C65135   5.687   3.317   1.090 -0.5260 -0.7433  1.1680
  483MOL0     C65136   5.834   2.962   0.544 -0.4330 -0.4212 -0.9097
  483MOL0     C65137   5.817   2.989   0.411  0.1444  0.3134 -0.6433
  483MOL0     H65138   5.788   3.327   0.081 -0.1642  2.8552 -1.1812
  483MOL0     H65139   5.653   3.447  -0.119  2.6008  0.9590 -0.1959
  483MOL0     H65140   5.579   3.230  -0.474 -0.1425 -1.8634  0.5742
  483MOL0     H65141   5.424   3.174  -0.414  0.8455 -1.0762 -2.1597
  483MOL0     H65142   5.299   3.347  -0.492 -0.8521  0.1604 -1.6604
  483MOL0     H65143   5.421   3.463  -0.523  0.3107 -0.4522 -0.9484
  483MOL0     H65144   5.518   3.293  -0.687 -0.3289 -0.1251 -0.3353
  483MOL0     H65145   5.376   3.199  -0.681  2.1061 -0.5593 -2.4518
  483MOL0     H65146   5.228   3.405  -0.706 -0.2438  0.1222 -2.8110
  483MOL0     H65147   5.375   3.509  -0.738  0.3465  0.3448  0.0379
  483MOL0     H65148   5.423   3.382  -0.946 -0.7530 -0.0910 -0.4112
  483MOL0     H65149   5.300   3.257  -0.897  0.0163 -0.8077 -0.7278
  483MOL0     H65150   5.132   3.429  -0.930  0.2392  2.9129  2.6346
  483MOL0     H65151   5.257   3.554  -0.962 -0.4992 -0.1313 -0.2357
  483MOL0     H65152   5.147   3.462  -1.169 -0.9364 -0.8832 -1.3607
  483MOL0     H65153   5.326   3.462  -1.161  0.7746  0.3278  2.2015
  483MOL0     H65154   5.125   3.229  -1.126 -1.1419  1.9341 -0.3018
  483MOL0     H65155   5.311   3.208  -1.121  0.6392 -3.3526 -1.7973
  483MOL0     H65156   5.438   3.298  -1.371 -0.5265  1.1651 -0.4838
  483MOL0     H65157   5.427   3.408  -1.620 -1.0415  1.1858  0.0132
  483MOL0     H65158   5.398   3.241  -1.670  0.4567 -0.3956  1.0391
  483MOL0     H65159   5.196   3.477  -1.698 -2.1641  1.1751 -2.8878
  483MOL0     H65160   5.172   3.336  -1.785  1.3859 -3.6160  1.4094
  483MOL0     H65161   5.362   3.381  -1.924 -2.8642 -0.2684 -0.3054
  483MOL0     H65162   5.418   3.518  -1.813  0.0396  1.2629 -0.3375
  483MOL0     H65163   5.177   3.616  -1.876  1.9140  2.5376 -0.0709
  483MOL0     H65164   5.180   3.482  -1.994 -0.6604 -0.1838  1.2977
  483MOL0     H65165   5.259   3.757  -2.267  1.4585  0.8688 -0.1649
  483MOL0     H65166   5.145   3.916  -2.420  1.1319 -0.5813 -0.0094
  483MOL0     H65167   5.157   4.081  -2.372  0.2953 -0.4077  1.5487
  483MOL0     H65168   5.302   3.994  -2.381  0.2129  1.2472 -1.4245
  483MOL0     H65169   5.120   4.327  -1.852  0.4253  0.0560  2.0907
  483MOL0     H65170   5.282   4.317  -1.665  2.2813 -1.3232  0.5300
  483MOL0     H65171   5.674   4.136  -1.727 -0.1058 -0.8397  3.1818
  483MOL0     H65172   5.695   4.310  -1.757  1.0903  0.1484  0.2226
  483MOL0     H65173   5.709   4.343  -1.511  0.5640 -0.7199  0.2885
  483MOL0     H65174   5.721   4.166  -1.481 -0.4444  1.1380  2.4106
  483MOL0     H65175   5.902   4.327  -1.654  0.1647 -0.8646 -0.5474
  483MOL0     H65176   5.886   4.144  -1.653 -2.1447 -0.9779  0.9500
  483MOL0     H65177   5.986   4.291  -1.410  2.1965  1.8637 -0.8030
  483MOL0     H65178   5.958   4.118  -1.442 -1.3799  0.9031  2.0625
  483MOL0     H65179   6.139   4.276  -1.625 -0.4422 -0.0970  0.3547
  483MOL0     H65180   6.137   4.101  -1.581  0.5362 -0.7306  0.2153
  483MOL0     H65181   6.228   4.342  -1.435 -0.6935  0.4719 -2.6037
  483MOL0     H65182   6.209   4.191  -1.341  1.0393 -0.4138  0.6294
  483MOL0     H65183   6.372   4.251  -1.585 -1.8392 -3.1284 -2.4482
  483MOL0     H65184   6.360   4.093  -1.508  1.4826  0.5466  0.5718
  483MOL0     H65185   6.454   4.156  -1.298 -0.3444 -0.3321  0.4020
  483MOL0     H65186   6.491   4.325  -1.349  1.4917 -0.3446 -0.4357
  483MOL0     H65187   5.598   4.208  -1.927  0.5082 -0.4061  0.2223
  483MOL0     H65188   5.431   4.231  -2.121 -2.5148  1.8769 -0.6968
  483MOL0     H65189   5.131   4.046  -1.890 -1.9554  0.9408 -2.6553
  483MOL0     H65190   5.221   3.804  -1.843  1.0786 -0.4945 -0.4004
  483MOL0     H65191   5.485   3.068  -0.229 -1.8487  0.2620  1.6422
  483MOL0     H65192   5.586   2.962  -0.023 -3.5336  0.6329 -2.3556
  483MOL0     H65193   6.115   3.129   0.347  1.8049 -0.3780  4.0400
  483MOL0     H65194   6.146   3.066   0.568  0.4905  0.4669 -2.2957
  483MOL0     H65195   6.075   2.917   0.897 -3.0903  1.7194  1.7139
  483MOL0     H65196   6.169   2.953   0.757  1.8806  1.4653  1.0070
  483MOL0     H65197   6.046   3.198   0.776 -0.7822  0.0900  0.1358
  483MOL0     H65198   6.180   3.159   0.886 -0.4619 -0.8338  2.3752
  483MOL0     H65199   6.038   3.135   1.076  0.5337  2.1740  0.1624
  483MOL0     H65200   5.897   3.090   0.970  2.0628 -1.6750 -0.7463
  483MOL0     H65201   5.929   3.346   0.897 -3.5142 -0.0072  0.1308
  483MOL0     H65202   6.001   3.368   1.054 -1.5453  2.3201  0.1488
  483MOL0     H65203   5.587   3.338   1.124 -0.9569 -1.9836  0.7180
  483MOL0     H65204   5.766   2.893   0.592  0.7041 -2.2365 -1.8324
  483MOL0     H65205   5.725   2.952   0.366  0.6074 -0.3376 -1.0734
  484MOL0     O65206   1.487   0.951   4.654 -0.2593 -0.4554 -0.3784
  484MOL0     C65207   1.587   0.973   4.724  0.3534 -0.6483  0.3521
  484MOL0     O65208   1.586   0.988   4.860 -0.5112 -0.6452 -0.0197
  484MOL0     C65209   1.468   0.999   4.926  0.5938 -0.0302  0.1474
  484MOL0     C65210   1.380   0.893   4.931  0.2033  0.6394 -0.3268
  484MOL0     C65211   1.256   0.900   4.998 -0.2493  0.1977  0.3585
  484MOL0     C65212   1.216   1.016   5.063  0.5360  0.0578 -0.1145
  484MOL0     O65213   1.092   1.009   5.135  0.0868 -0.0101  0.3516
  484MOL0     C65214   1.056   1.099   5.235  0.5743 -0.6497  0.9008
  484MOL0     C65215   0.989   1.222   5.165 -0.2596  0.2883  0.6686
  484MOL0     C65216   0.866   1.206   5.081  0.7090 -0.1763  0.2311
  484MOL0     C65217   0.739   1.187   5.174 -0.4133 -0.5300 -0.1317
  484MOL0     C65218   0.618   1.201   5.091 -0.3123 -0.3118  0.1684
  484MOL0     C65219   0.499   1.139   5.160  0.4344 -0.1222  0.8204
  484MOL0     C65220   0.373   1.123   5.071 -0.1282 -0.1824 -0.3434
  484MOL0     C65221   0.278   1.053   5.168  1.2503  0.3084  0.5381
  484MOL0     N65222   0.138   1.073   5.113  1.0588  0.2256 -0.3177
  484MOL0     C65223   0.050   0.983   5.056  0.1643 -0.1098 -0.5436
  484MOL0     C65224  -0.042   1.066   5.008  0.4895 -0.1180 -0.5919
  484MOL0     C65225  -0.178   1.020   4.943 -0.3981  0.3769  0.0512
  484MOL0     C65226  -0.168   0.910   4.835 -0.0960  0.0072 -0.5705
  484MOL0     C65227  -0.114   0.953   4.708 -0.4212 -0.8679  0.4673
  484MOL0     C65228  -0.224   1.017   4.614  0.5652  0.1959  0.4797
  484MOL0     O65229  -0.280   0.906   4.539 -0.0004  0.0371  0.3679
  484MOL0     C65230  -0.387   0.928   4.462 -0.5196  0.1504 -0.0170
  484MOL0     C65231  -0.516   0.902   4.502 -0.4886  0.3990 -0.5782
  484MOL0     C65232  -0.629   0.912   4.425  1.2076 -0.6031  0.0681
  484MOL0     C65233  -0.754   0.873   4.495  1.2386 -0.5782  0.7756
  484MOL0     C65234  -0.621   0.959   4.298 -0.4132 -0.7136  0.3284
  484MOL0     C65235  -0.732   0.989   4.206  0.5222 -0.1037 -0.6560
  484MOL0     O65236  -0.850   1.016   4.267  0.5369 -0.1460  0.0843
  484MOL0     C65237  -0.951   1.040   4.184  1.2647  1.4428  0.7198
  484MOL0     C65238  -0.975   1.153   4.100 -0.0188  0.0693 -0.1720
  484MOL0     C65239  -1.096   1.166   4.032  0.7802 -0.4134  0.1097
  484MOL0     C65240  -1.192   1.061   4.033 -0.3712  0.0145 -0.7729
  484MOL0     O65241  -1.311   1.066   3.971 -0.1995 -0.2651  0.3104
  484MOL0     C65242  -1.377   1.188   3.985  0.0234 -0.0327  0.5185
  484MOL0     C65243  -1.509   1.165   3.914 -0.3788  0.2908 -0.5244
  484MOL0     C65244  -1.600   1.084   4.002  0.3724  1.3215 -0.4469
  484MOL0     C65245  -1.723   1.022   3.938 -0.3965  0.6954 -0.4452
  484MOL0     C65246  -1.826   1.123   3.904  0.5023  0.1138  0.4597
  484MOL0     C65247  -1.951   1.045   3.867  0.5736  0.1003  1.5287
  484MOL0     C65248  -2.078   1.140   3.866  0.4345 -0.0505 -0.3436
  484MOL0     C65249  -2.082   1.233   3.732  0.4950 -0.4067  1.1359
  484MOL0    Cl65250  -2.207   1.357   3.753 -0.3314  0.2410  0.2169
  484MOL0     C65251  -1.162   0.949   4.105  0.4048  0.3788  0.8337
  484MOL0     C65252  -1.048   0.944   4.185 -0.3485  0.0017 -0.2565
  484MOL0     O65253  -0.707   0.995   4.084  0.0799  0.2171 -0.2316
  484MOL0     C65254  -0.485   0.998   4.255  0.4549  0.2009 -0.3594
  484MOL0     C65255  -0.372   0.979   4.338  0.1322  0.4379 -0.6200
  484MOL0     N65256  -0.036   1.191   5.059  0.1244  0.5534 -0.2806
  484MOL0     N65257   0.077   1.200   5.108  0.0537  0.8799  0.6534
  484MOL0     C65258   1.308   1.123   5.058  0.3098 -0.1032 -1.1710
  484MOL0     C65259   1.432   1.120   4.990  0.5055 -0.2104  0.7891
  484MOL0     C65260   1.717   0.987   4.642  0.4904  0.2691  0.1334
  484MOL0     C65261   1.843   1.001   4.707  0.0293 -0.3061 -0.1914
  484MOL0     C65262   1.960   0.982   4.636 -0.4365  1.2566 -0.3873
  484MOL0     C65263   1.955   0.959   4.500  0.3020 -0.0065  0.7478
  484MOL0     O65264   2.054   0.977   4.411 -0.0937  0.3923  0.3407
  484MOL0     C65265   2.177   1.043   4.456  0.7323 -0.1549  0.9548
  484MOL0     C65266   2.302   0.966   4.408  0.7612  0.9691  0.5594
  484MOL0     C65267   2.426   1.027   4.450 -0.6098 -0.2024 -0.0666
  484MOL0     C65268   2.547   0.953   4.395  0.5498  0.9378  0.1548
  484MOL0     C65269   2.658   1.043   4.354  0.1639 -0.1557  0.2284
  484MOL0     C65270   2.749   1.130   4.327 -0.6065 -0.3584 -0.7702
  484MOL0     C65271   1.831   0.940   4.439  0.1779  0.0754 -0.0380
  484MOL0     C65272   1.714   0.961   4.509  0.2561  0.6849  0.8840
  484MOL0     H65273   1.413   0.796   4.897 -0.0387  0.1853  0.6948
  484MOL0     H65274   1.198   0.809   5.010  0.3042 -1.2864 -5.3942
  484MOL0     H65275   0.981   1.043   5.292 -0.0851 -0.6965  0.0170
  484MOL0     H65276   1.140   1.132   5.297  1.0795  0.8180 -0.4884
  484MOL0     H65277   0.970   1.298   5.241 -0.3826  0.3343  0.5925
  484MOL0     H65278   1.063   1.264   5.097  0.2709 -1.3358  0.1898
  484MOL0     H65279   0.862   1.297   5.021  1.4419  0.2734  0.8466
  484MOL0     H65280   0.859   1.122   5.011  0.6245 -0.0824  0.1257
  484MOL0     H65281   0.740   1.090   5.223  0.1277 -0.3898  0.1402
  484MOL0     H65282   0.744   1.266   5.250 -1.1083  0.9253 -1.5337
  484MOL0     H65283   0.601   1.307   5.071  2.3080 -0.4025 -3.5902
  484MOL0     H65284   0.626   1.154   4.992 -0.6702 -0.1626  0.0694
  484MOL0     H65285   0.523   1.040   5.199 -0.8269 -1.2325 -1.0763
  484MOL0     H65286   0.469   1.215   5.233 -1.8034  0.9155 -1.0178
  484MOL0     H65287   0.333   1.223   5.054 -0.2781 -0.6155 -2.8585
  484MOL0     H65288   0.381   1.079   4.971 -1.6195  1.9578 -1.4921
  484MOL0     H65289   0.269   1.095   5.269  3.8427  3.5288 -0.3811
  484MOL0     H65290   0.298   0.946   5.162 -0.3405  0.0453 -5.0931
  484MOL0     H65291   0.063   0.880   5.023 -0.1589 -0.5163  0.5697
  484MOL0     H65292  -0.243   0.984   5.023 -1.4238  0.2182 -0.8355
  484MOL0     H65293  -0.224   1.111   4.906 -0.5273  1.2571  2.2274
  484MOL0     H65294  -0.271   0.878   4.819 -0.7510  0.2596  2.6080
  484MOL0     H65295  -0.104   0.827   4.866  1.0931  0.2311 -2.2640
  484MOL0     H65296  -0.065   0.868   4.660 -0.2072 -0.8176  0.5944
  484MOL0     H65297  -0.051   1.040   4.728 -2.6399  0.5850  1.6218
  484MOL0     H65298  -0.186   1.091   4.543 -2.2305 -0.5221 -2.0114
  484MOL0     H65299  -0.300   1.069   4.672 -1.9658 -1.4007 -1.1927
  484MOL0     H65300  -0.520   0.867   4.605 -0.5512 -1.6976 -1.2610
  484MOL0     H65301  -0.820   0.802   4.444  1.1240 -0.2006  0.4015
  484MOL0     H65302  -0.722   0.830   4.591  0.1155 -3.1287  0.0878
  484MOL0     H65303  -0.819   0.957   4.519  1.3595 -0.6569  1.3954
  484MOL0     H65304  -0.900   1.228   4.081 -1.4056  0.9832 -2.4389
  484MOL0     H65305  -1.107   1.261   3.981  0.2746 -0.9176 -0.7379
  484MOL0     H65306  -1.394   1.204   4.091  3.0230 -0.3859  1.1339
  484MOL0     H65307  -1.325   1.275   3.942  0.4598  0.1985  1.4962
  484MOL0     H65308  -1.553   1.265   3.906 -0.5527  0.6006  2.7738
  484MOL0     H65309  -1.489   1.125   3.815  2.3766  2.1511 -0.8239
  484MOL0     H65310  -1.631   1.151   4.083 -0.4398  0.5272 -0.0909
  484MOL0     H65311  -1.547   1.002   4.051 -1.9505  1.0401  1.8025
  484MOL0     H65312  -1.697   0.956   3.854 -0.7524 -1.8255  1.3085
  484MOL0     H65313  -1.771   0.954   4.009  0.0717  1.3070  0.4850
  484MOL0     H65314  -1.793   1.182   3.818 -2.9387 -0.6005 -1.5213
  484MOL0     H65315  -1.847   1.193   3.985 -0.7858 -0.9291  1.0558
  484MOL0     H65316  -1.941   0.987   3.775  2.4768  2.9614 -0.2138
  484MOL0     H65317  -1.965   0.961   3.936  1.2581 -0.5381  0.9119
  484MOL0     H65318  -2.075   1.210   3.950 -1.2740 -0.0414 -0.2481
  484MOL0     H65319  -2.162   1.072   3.884  0.2739  0.6819  2.0079
  484MOL0     H65320  -2.099   1.167   3.646  0.8266 -2.1482  2.3401
  484MOL0     H65321  -1.981   1.276   3.736  1.9772 -3.4324 -0.1213
  484MOL0     H65322  -1.237   0.871   4.099 -2.0118  2.6259 -0.6093
  484MOL0     H65323  -1.038   0.859   4.251  0.7414 -0.0006 -0.4115
  484MOL0     H65324  -0.476   1.032   4.152  0.1416 -0.1775 -0.5163
  484MOL0     H65325  -0.279   1.009   4.291  1.6106  1.9518  2.9759
  484MOL0     H65326   1.275   1.214   5.108 -0.9290 -0.8715 -0.5259
  484MOL0     H65327   1.495   1.208   4.986  0.6751 -0.3650 -2.7491
  484MOL0     H65328   1.855   1.037   4.809 -0.5269  2.1322 -0.9213
  484MOL0     H65329   2.051   0.980   4.696 -0.0396 -1.7221 -0.9393
  484MOL0     H65330   2.175   1.144   4.415 -0.9409 -0.2245  0.7936
  484MOL0     H65331   2.191   1.051   4.564  0.5095  0.8515  0.9175
  484MOL0     H65332   2.300   0.958   4.299 -0.5385 -1.2728  0.6855
  484MOL0     H65333   2.306   0.863   4.446  0.8601  1.3539  1.6051
  484MOL0     H65334   2.434   1.024   4.559  1.2645  0.5993 -0.1374
  484MOL0     H65335   2.440   1.129   4.412  0.9844 -1.0556 -1.9699
  484MOL0     H65336   2.522   0.890   4.309 -2.0269  0.7825  0.9168
  484MOL0     H65337   2.596   0.890   4.470  0.3099 -1.2799 -1.4477
  484MOL0     H65338   2.837   1.189   4.317 -0.1324 -0.8862  0.1500
  484MOL0     H65339   1.831   0.928   4.331 -2.8859 -0.8780 -0.0251
  484MOL0     H65340   1.615   0.943   4.468  0.4617 -0.7927  0.9813
  485MOL0     O65341   3.849   5.039  11.304  0.2457  0.3429 -0.2896
  485MOL0     C65342   3.875   4.921  11.266  0.6503  0.5224 -0.5737
  485MOL0     O65343   3.779   4.824  11.248  0.0025 -0.0220 -0.0177
  485MOL0     C65344   3.659   4.840  11.306 -0.7019  0.3165  0.3827
  485MOL0     C65345   3.548   4.830  11.231  0.8992  0.2011 -0.4183
  485MOL0     C65346   3.418   4.841  11.294  0.5953  0.1802  0.1247
  485MOL0     C65347   3.405   4.866  11.431 -0.7719 -0.0854  0.3730
  485MOL0     O65348   3.281   4.886  11.483  0.8256 -0.0461 -0.5567
  485MOL0     C65349   3.277   4.901  11.630  0.2761 -0.2795  0.5956
  485MOL0     C65350   3.128   4.892  11.663 -0.8254  0.3070 -1.0204
  485MOL0     C65351   3.108   4.882  11.815  0.2778  0.0600  0.2496
  485MOL0     C65352   3.076   5.022  11.879 -0.2203  0.1487 -0.4789
  485MOL0     C65353   3.062   5.008  12.032  0.2457  0.7269 -0.5831
  485MOL0     C65354   2.929   4.941  12.082 -0.5643  0.3965  0.5996
  485MOL0     C65355   2.931   4.928  12.232 -0.1175 -0.3787  0.1017
  485MOL0     C65356   2.795   4.865  12.281 -0.1400  0.3412 -1.7185
  485MOL0     N65357   2.700   4.963  12.334  0.4859  0.6166  0.1175
  485MOL0     C65358   2.633   5.052  12.256  0.0517  0.2523  0.5809
  485MOL0     C65359   2.584   5.146  12.341 -0.1635 -0.1187 -0.7545
  485MOL0     C65360   2.500   5.264  12.310 -0.9179 -0.3656 -0.8938
  485MOL0     C65361   2.383   5.226  12.228  0.2227  0.8118  0.5806
  485MOL0     C65362   2.283   5.344  12.210 -0.0263 -0.2131  0.0804
  485MOL0     C65363   2.168   5.325  12.108  0.3546 -0.2151 -0.2802
  485MOL0     O65364   2.096   5.452  12.096  0.5415  0.1916 -0.0905
  485MOL0     C65365   1.972   5.458  12.154 -0.1228  1.0376  0.1188
  485MOL0     C65366   1.957   5.517  12.283  0.7446  0.3210  0.9218
  485MOL0     C65367   1.830   5.538  12.348  0.0409 -0.6832  0.6969
  485MOL0     C65368   1.833   5.600  12.485  0.6701 -0.0840 -0.4758
  485MOL0     C65369   1.721   5.523  12.264  0.2300 -0.0713 -0.0744
  485MOL0     C65370   1.577   5.548  12.306  0.0481 -0.0406 -0.5853
  485MOL0     O65371   1.564   5.663  12.377 -0.7601 -0.1843 -0.4430
  485MOL0     C65372   1.447   5.696  12.435  0.0050 -0.4571  0.9362
  485MOL0     C65373   1.413   5.829  12.430  0.1298 -0.3994  0.1948
  485MOL0     C65374   1.291   5.880  12.480  0.1557 -0.7820  0.2752
  485MOL0     C65375   1.205   5.790  12.545 -0.5656  0.3565 -0.5832
  485MOL0     O65376   1.081   5.835  12.588  0.2630 -0.3224  0.9079
  485MOL0     C65377   1.005   5.916  12.495  0.6308  0.0763  0.0651
  485MOL0     C65378   0.850   5.875  12.510 -0.9951 -0.2442 -0.4868
  485MOL0     C65379   0.803   5.913  12.652 -0.2209  0.0852 -1.0000
  485MOL0     C65380   0.654   5.887  12.671  0.1124  0.1568 -0.2125
  485MOL0     C65381   0.604   5.917  12.808 -0.0871  0.6357 -0.1741
  485MOL0     C65382   0.461   5.863  12.839  0.1714 -0.0215  0.7638
  485MOL0     C65383   0.424   5.892  12.987 -0.1132 -0.0498 -0.3598
  485MOL0     C65384   0.275   5.887  13.016  0.2165 -0.2638  0.0019
  485MOL0    Cl65385   0.222   5.733  12.990  0.3608  0.3473  0.3649
  485MOL0     C65386   1.239   5.655  12.555  0.1998 -0.1595  0.4075
  485MOL0     C65387   1.358   5.605  12.501 -0.6048 -0.8028 -0.0609
  485MOL0     O65388   1.491   5.476  12.266  0.6843 -0.3454 -0.4881
  485MOL0     C65389   1.735   5.455  12.140  0.3833  0.1738 -0.0464
  485MOL0     C65390   1.856   5.422  12.085  0.3855 -0.6667  0.4683
  485MOL0     N65391   2.614   5.110  12.473 -0.5840  0.2574  0.1938
  485MOL0     N65392   2.677   4.994  12.470  0.3798 -0.3636  0.7870
  485MOL0     C65393   3.521   4.876  11.506 -0.2495 -0.8148  0.5363
  485MOL0     C65394   3.648   4.863  11.446 -0.4762 -0.0811 -0.0130
  485MOL0     C65395   4.018   4.894  11.232  0.0007 -0.4132 -0.0537
  485MOL0     C65396   4.117   4.961  11.304 -0.4574  0.5418 -0.0845
  485MOL0     C65397   4.251   4.933  11.264 -0.5852  0.3008  0.2925
  485MOL0     C65398   4.282   4.830  11.174  0.0020 -0.6075  0.2165
  485MOL0     O65399   4.411   4.780  11.147  0.7211 -0.1707 -0.8522
  485MOL0     C65400   4.516   4.876  11.154 -0.0271 -0.2039 -0.4434
  485MOL0     C65401   4.627   4.839  11.056 -0.5827  0.0900 -0.0640
  485MOL0     C65402   4.594   4.734  10.957 -0.6386 -0.2902 -0.7484
  485MOL0     C65403   4.580   4.590  11.004 -0.1103 -0.0217 -0.4083
  485MOL0     C65404   4.706   4.540  11.071 -0.0350 -0.7428 -0.0490
  485MOL0     C65405   4.806   4.507  11.130 -1.0389  0.1090  0.3262
  485MOL0     C65406   4.177   4.764  11.115  0.3708  0.1419 -0.1382
  485MOL0     C65407   4.047   4.791  11.137  0.5215 -0.7096 -0.1784
  485MOL0     H65408   3.553   4.819  11.123  3.7840 -1.4200 -0.2120
  485MOL0     H65409   3.331   4.807  11.239  1.0632  0.9128 -1.1008
  485MOL0     H65410   3.325   4.815  11.679 -0.3078 -2.0009 -1.7111
  485MOL0     H65411   3.324   4.993  11.668  0.9667 -0.4828  0.2508
  485MOL0     H65412   3.078   4.979  11.619 -2.0301 -1.0267 -2.3898
  485MOL0     H65413   3.075   4.808  11.617 -1.9507  1.9538 -2.8990
  485MOL0     H65414   3.013   4.829  11.825  0.1176  0.7171  2.7714
  485MOL0     H65415   3.179   4.827  11.878  0.4560  2.9967  2.8645
  485MOL0     H65416   3.163   5.084  11.856 -2.3713  2.5548 -2.7043
  485MOL0     H65417   2.998   5.077  11.827  0.9837  1.8187 -0.6029
  485MOL0     H65418   3.144   4.950  12.076 -1.0724  0.5480  1.7928
  485MOL0     H65419   3.063   5.107  12.078  0.9186  0.9958 -1.1538
  485MOL0     H65420   2.853   5.018  12.065 -1.0953  0.0957  1.5400
  485MOL0     H65421   2.907   4.852  12.022  1.4317  0.1842  0.1097
  485MOL0     H65422   3.017   4.863  12.250  0.6848  0.4155 -0.7373
  485MOL0     H65423   2.940   5.022  12.286 -1.9248  1.0005 -1.8260
  485MOL0     H65424   2.828   4.799  12.362  0.7582  1.0933 -1.4623
  485MOL0     H65425   2.739   4.804  12.210  0.6960 -0.6824 -1.5272
  485MOL0     H65426   2.627   5.057  12.148  3.1184 -1.3759  0.2056
  485MOL0     H65427   2.478   5.321  12.401  0.6948  0.1736 -0.8044
  485MOL0     H65428   2.557   5.329  12.243 -0.7486  0.6993  0.2225
  485MOL0     H65429   2.324   5.148  12.276  0.7416  0.5458  0.7863
  485MOL0     H65430   2.421   5.201  12.128 -0.3253 -3.6648  1.2901
  485MOL0     H65431   2.331   5.440  12.191 -0.1836  0.0104  0.7747
  485MOL0     H65432   2.230   5.350  12.305 -2.6992 -1.6983 -1.1780
  485MOL0     H65433   2.116   5.234  12.139  0.9953  0.0907  1.8351
  485MOL0     H65434   2.218   5.313  12.011  0.2574  0.7110 -0.4536
  485MOL0     H65435   2.055   5.538  12.325  1.9461 -1.1524 -1.0007
  485MOL0     H65436   1.759   5.558  12.554  0.1167  0.0806 -0.9530
  485MOL0     H65437   1.931   5.582  12.529  1.2115  1.0150 -1.1868
  485MOL0     H65438   1.809   5.707  12.483 -0.2797 -0.2930 -1.5826
  485MOL0     H65439   1.483   5.903  12.393 -0.4117 -0.2323 -0.5240
  485MOL0     H65440   1.264   5.982  12.456 -1.6467 -1.5201 -1.1188
  485MOL0     H65441   1.017   6.024  12.503  2.5417 -0.0972  0.1576
  485MOL0     H65442   1.038   5.883  12.396 -1.2387 -1.8184  0.0184
  485MOL0     H65443   0.793   5.910  12.424 -2.1173 -1.9694 -0.4902
  485MOL0     H65444   0.853   5.766  12.503 -0.8649 -0.1238 -4.2133
  485MOL0     H65445   0.822   6.020  12.665  3.3850 -0.3670 -1.2889
  485MOL0     H65446   0.862   5.869  12.733 -2.0098  1.0709  0.9152
  485MOL0     H65447   0.597   5.943  12.596 -2.1988 -1.6919  0.0341
  485MOL0     H65448   0.622   5.785  12.645 -0.8865  0.8136 -1.7314
  485MOL0     H65449   0.610   6.024  12.828  1.6636  0.2517  1.6374
  485MOL0     H65450   0.665   5.866  12.883 -2.1035  0.1739  1.2393
  485MOL0     H65451   0.388   5.910  12.772  0.1517 -4.0595 -2.4543
  485MOL0     H65452   0.454   5.759  12.807 -0.1853  0.9041 -2.5186
  485MOL0     H65453   0.474   5.985  13.017  2.2621 -1.6219  0.9044
  485MOL0     H65454   0.464   5.821  13.061  1.8550 -0.5350 -1.7987
  485MOL0     H65455   0.221   5.968  12.966 -1.4083  0.0741  2.1550
  485MOL0     H65456   0.254   5.910  13.121 -0.5188 -0.0404 -0.1881
  485MOL0     H65457   1.165   5.593  12.603 -1.4681  0.2126 -1.5346
  485MOL0     H65458   1.367   5.498  12.516 -1.4464 -1.0483 -1.0843
  485MOL0     H65459   1.642   5.429  12.090  0.0295 -0.5764  0.9732
  485MOL0     H65460   1.874   5.376  11.988  1.7592  4.0613 -1.8080
  485MOL0     H65461   3.522   4.876  11.615 -2.7825 -0.9052  0.6174
  485MOL0     H65462   3.729   4.868  11.518  0.6381 -1.9310 -1.0899
  485MOL0     H65463   4.086   5.032  11.380  2.6995  1.4606  0.5031
  485MOL0     H65464   4.332   4.975  11.322  2.4413 -0.0676 -3.3118
  485MOL0     H65465   4.484   4.977  11.127 -1.0186  0.1218  1.7133
  485MOL0     H65466   4.551   4.879  11.258  0.8126 -1.6438 -0.6498
  485MOL0     H65467   4.717   4.814  11.113  0.0465 -0.8423 -1.4135
  485MOL0     H65468   4.644   4.924  10.990 -1.7889 -0.0806 -0.6281
  485MOL0     H65469   4.669   4.733  10.878  0.1385  0.5960 -0.0425
  485MOL0     H65470   4.506   4.762  10.899  0.4372  0.9426 -1.8435
  485MOL0     H65471   4.575   4.535  10.909  1.7769  1.4661 -1.4546
  485MOL0     H65472   4.491   4.579  11.067  0.7065 -0.5161  0.6945
  485MOL0     H65473   4.899   4.479  11.175 -0.1839  1.0250 -0.7910
  485MOL0     H65474   4.202   4.682  11.050 -0.8372  0.0660 -0.5382
  485MOL0     H65475   3.964   4.736  11.094 -0.2235 -0.3082  0.7041
  486MOL0     O65476   8.073   3.256   4.927 -0.4732  0.1536 -0.5627
  486MOL0     C65477   8.073   3.247   4.807 -0.8458 -0.6439 -0.0283
  486MOL0     O65478   8.179   3.284   4.725  0.9124 -0.8825 -0.0046
  486MOL0     C65479   8.295   3.317   4.793  0.5670  0.1438  0.8207
  486MOL0     C65480   8.325   3.448   4.852  1.1308  0.3383  0.8866
  486MOL0     C65481   8.453   3.471   4.906 -0.0900 -0.5653 -0.2729
  486MOL0     C65482   8.538   3.361   4.921  0.5120 -0.4060 -0.5257
  486MOL0     O65483   8.651   3.394   4.997 -0.0415 -0.2247  0.2101
  486MOL0     C65484   8.714   3.295   5.082 -0.3659 -0.1197 -0.8271
  486MOL0     C65485   8.808   3.364   5.185 -0.1783  0.0632  0.8057
  486MOL0     C65486   8.870   3.257   5.281 -0.1879  0.5687  0.6244
  486MOL0     C65487   8.981   3.305   5.372  0.3925  0.1451 -0.1156
  486MOL0     C65488   8.934   3.332   5.512  0.0105 -1.0640 -0.2584
  486MOL0     C65489   8.860   3.470   5.500 -0.1325 -0.7336 -0.1684
  486MOL0     C65490   8.814   3.520   5.631  0.5634  0.0095 -0.0831
  486MOL0     C65491   8.744   3.652   5.610  0.8343 -0.6061 -0.0027
  486MOL0     N65492   8.659   3.695   5.731 -0.2239  0.1247  0.1156
  486MOL0     C65493   8.696   3.702   5.869  2.0354  0.5784 -0.1727
  486MOL0     C65494   8.595   3.767   5.928  0.3771 -0.1790  0.5179
  486MOL0     C65495   8.566   3.811   6.072 -0.1754  0.7253 -0.0775
  486MOL0     C65496   8.694   3.881   6.130 -0.0677 -0.2518  0.4676
  486MOL0     C65497   8.691   3.842   6.285 -0.1171  0.0146 -0.4389
  486MOL0     C65498   8.563   3.892   6.359  0.1981 -0.3983  0.3377
  486MOL0     O65499   8.544   4.033   6.324 -0.4362 -0.1712 -0.1096
  486MOL0     C65500   8.416   4.091   6.356 -0.5136  0.4045 -0.0870
  486MOL0     C65501   8.392   4.227   6.332 -0.6663  0.5265  0.5479
  486MOL0     C65502   8.280   4.296   6.372 -0.4093 -0.0044 -0.0758
  486MOL0     C65503   8.268   4.451   6.341 -0.5521  0.4905 -0.5503
  486MOL0     C65504   8.182   4.219   6.437 -0.3996  1.0836  0.4897
  486MOL0     C65505   8.057   4.283   6.481  0.3553  0.4257  0.6661
  486MOL0     O65506   8.075   4.382   6.572 -0.0825  0.2988  0.0861
  486MOL0     C65507   7.979   4.438   6.658  0.2011 -0.6699  0.9395
  486MOL0     C65508   7.975   4.581   6.669  1.1245  0.3283  0.7304
  486MOL0     C65509   7.884   4.642   6.758 -0.7196  0.0952  0.7647
  486MOL0     C65510   7.789   4.568   6.826 -0.1942  0.0122  0.1414
  486MOL0     O65511   7.689   4.625   6.904 -0.0177 -0.1400  0.2590
  486MOL0     C65512   7.701   4.766   6.946 -1.0866  0.2709  0.1739
  486MOL0     C65513   7.599   4.785   7.051  0.5933  1.0571 -0.2439
  486MOL0     C65514   7.635   4.741   7.195  0.9190  0.3444  0.0240
  486MOL0     C65515   7.746   4.817   7.262 -0.4628  0.3537  0.5595
  486MOL0     C65516   7.776   4.747   7.393  0.4577 -0.0903 -0.3019
  486MOL0     C65517   7.890   4.815   7.479 -0.1647 -0.0909 -0.2509
  486MOL0     C65518   8.035   4.758   7.449  0.4892  0.2844 -0.6991
  486MOL0     C65519   8.124   4.839   7.545  0.2715  0.2520  0.0323
  486MOL0    Cl65520   8.294   4.802   7.531  0.1450  0.4234 -0.4418
  486MOL0     C65521   7.787   4.431   6.808  1.0681  0.2744  0.0656
  486MOL0     C65522   7.883   4.362   6.728 -0.7157 -0.1664  0.5707
  486MOL0     O65523   7.946   4.237   6.440  0.5632 -1.0190  0.4887
  486MOL0     C65524   8.200   4.085   6.469  0.2942 -0.3922  0.2246
  486MOL0     C65525   8.315   4.018   6.426 -0.0866 -0.7168  0.7696
  486MOL0     N65526   8.498   3.798   5.835  0.1969  0.5288 -0.2709
  486MOL0     N65527   8.535   3.751   5.720 -0.6991  0.0509  0.3043
  486MOL0     C65528   8.514   3.234   4.883 -0.1234  0.2780 -0.4953
  486MOL0     C65529   8.395   3.214   4.816 -1.1068  1.0349  0.0660
  486MOL0     C65530   7.959   3.198   4.737 -0.2035 -0.1663 -0.0499
  486MOL0     C65531   7.969   3.115   4.628  0.7683 -0.4206 -0.3247
  486MOL0     C65532   7.858   3.080   4.551  0.7581 -0.3519 -0.1486
  486MOL0     C65533   7.730   3.118   4.585 -0.0830  0.0635 -0.3101
  486MOL0     O65534   7.630   3.069   4.506 -0.1121  0.2105 -0.8084
  486MOL0     C65535   7.494   3.089   4.531 -0.6642 -1.1755 -0.1097
  486MOL0     C65536   7.415   3.062   4.408 -0.3617  0.6824 -0.4073
  486MOL0     C65537   7.439   2.922   4.354  0.4294 -0.8111 -0.5671
  486MOL0     C65538   7.381   2.814   4.443 -0.4006 -0.3020 -0.0388
  486MOL0     C65539   7.236   2.785   4.401 -0.4947  0.2488 -0.4641
  486MOL0     C65540   7.121   2.742   4.377 -0.3362 -0.0856 -0.3121
  486MOL0     C65541   7.720   3.191   4.703  0.0034 -0.4855 -0.1642
  486MOL0     C65542   7.831   3.239   4.779 -0.2535 -0.1679  0.6876
  486MOL0     H65543   8.245   3.521   4.848  2.0409  1.3422 -0.0373
  486MOL0     H65544   8.485   3.568   4.942  0.1924 -1.2284  1.3857
  486MOL0     H65545   8.635   3.237   5.129  2.5035 -2.9677  0.9323
  486MOL0     H65546   8.772   3.221   5.025  0.0039 -0.9735  0.6177
  486MOL0     H65547   8.881   3.431   5.138 -1.5515 -0.3425 -2.1731
  486MOL0     H65548   8.745   3.429   5.246 -1.0079 -0.5136  0.5780
  486MOL0     H65549   8.794   3.206   5.342 -1.2402  1.5787  0.2054
  486MOL0     H65550   8.906   3.176   5.218 -1.5468 -1.1528  1.9440
  486MOL0     H65551   9.064   3.234   5.386  3.1852  3.3632  1.0939
  486MOL0     H65552   9.029   3.393   5.327 -3.4974  2.2241 -0.5756
  486MOL0     H65553   8.872   3.259   5.565  1.2674  0.7017  4.0456
  486MOL0     H65554   9.027   3.348   5.567  0.8797  1.6297 -2.2665
  486MOL0     H65555   8.926   3.552   5.470 -1.9924  0.2779 -1.7509
  486MOL0     H65556   8.766   3.465   5.444 -0.3660  1.9510 -0.1530
  486MOL0     H65557   8.741   3.449   5.670  1.0110 -0.5821 -0.3164
  486MOL0     H65558   8.895   3.530   5.704 -0.1011 -1.6814  0.9382
  486MOL0     H65559   8.669   3.649   5.531  2.2235 -1.2237 -1.3514
  486MOL0     H65560   8.809   3.731   5.570 -1.9311  1.6058 -0.4702
  486MOL0     H65561   8.790   3.670   5.912  0.6244  0.1380  2.7819
  486MOL0     H65562   8.488   3.888   6.074 -0.1567  0.7235  0.8227
  486MOL0     H65563   8.540   3.720   6.126  0.2152 -0.3832 -1.6709
  486MOL0     H65564   8.682   3.989   6.121  0.8064 -0.0693  1.2712
  486MOL0     H65565   8.783   3.843   6.077 -2.3320 -1.9310 -2.4715
  486MOL0     H65566   8.772   3.899   6.331  0.0532 -0.2854 -0.3698
  486MOL0     H65567   8.711   3.736   6.299  2.0203  0.2583 -1.2985
  486MOL0     H65568   8.581   3.886   6.467  2.6161  1.1314  0.0996
  486MOL0     H65569   8.481   3.824   6.334 -0.6158  0.5500  0.3612
  486MOL0     H65570   8.473   4.284   6.289 -1.0492 -0.0888 -1.0823
  486MOL0     H65571   8.190   4.459   6.265 -0.2579 -4.0024 -1.6179
  486MOL0     H65572   8.236   4.507   6.429  1.5076  0.8613  0.0034
  486MOL0     H65573   8.365   4.491   6.309  0.0621  2.2838  3.1106
  486MOL0     H65574   8.045   4.642   6.614 -0.0835  1.2751  0.1923
  486MOL0     H65575   7.884   4.750   6.769  2.3454  0.1144  1.4670
  486MOL0     H65576   7.803   4.782   6.982 -1.8968  1.5299  2.1230
  486MOL0     H65577   7.688   4.833   6.860  0.0662  0.5121  0.1676
  486MOL0     H65578   7.571   4.891   7.056  4.0807  2.0653  1.5531
  486MOL0     H65579   7.507   4.735   7.018  0.1554  0.6900  1.4257
  486MOL0     H65580   7.661   4.636   7.201 -0.9354 -0.0744  2.3676
  486MOL0     H65581   7.555   4.769   7.265  1.4154  2.0002 -0.0119
  486MOL0     H65582   7.834   4.820   7.196 -2.0544 -2.7691 -2.0120
  486MOL0     H65583   7.710   4.917   7.285  0.4190  0.3178  2.2484
  486MOL0     H65584   7.816   4.647   7.370 -0.5484 -0.0789 -2.3191
  486MOL0     H65585   7.694   4.741   7.465  1.9055  1.9252  1.6542
  486MOL0     H65586   7.887   4.922   7.455 -0.9355  0.5457  2.3879
  486MOL0     H65587   7.872   4.800   7.585 -0.1725  3.1936  0.3127
  486MOL0     H65588   8.070   4.768   7.345  0.8520 -0.1281 -0.6198
  486MOL0     H65589   8.035   4.652   7.476 -0.5456  0.5380  0.3797
  486MOL0     H65590   8.094   4.816   7.648 -1.0187  2.0066  0.0781
  486MOL0     H65591   8.095   4.944   7.537 -4.8713 -0.4173  4.3088
  486MOL0     H65592   7.705   4.370   6.844  1.1976  0.4868  0.7452
  486MOL0     H65593   7.871   4.254   6.724  1.8814 -0.5380  0.9104
  486MOL0     H65594   8.122   4.030   6.520  0.9961 -2.1993 -0.5482
  486MOL0     H65595   8.332   3.918   6.466 -0.1611  0.3001  3.4903
  486MOL0     H65596   8.592   3.161   4.901  0.9068  0.8067 -2.4620
  486MOL0     H65597   8.374   3.115   4.777  1.8861 -0.4298  1.7526
  486MOL0     H65598   8.069   3.084   4.599  1.2765 -0.0555  0.9951
  486MOL0     H65599   7.876   3.020   4.462  2.5167  1.8792 -1.4081
  486MOL0     H65600   7.456   3.040   4.621  1.2276  0.9201  1.9762
  486MOL0     H65601   7.472   3.194   4.552 -1.0943 -1.8505  3.3705
  486MOL0     H65602   7.435   3.143   4.338 -5.3099  2.8255  0.2079
  486MOL0     H65603   7.309   3.074   4.432 -0.4492 -0.7500  0.0095
  486MOL0     H65604   7.549   2.917   4.351  0.3801 -1.6294 -1.2712
  486MOL0     H65605   7.408   2.912   4.250 -2.0887  2.8702 -0.3611
  486MOL0     H65606   7.386   2.844   4.548  1.1997 -4.5991  1.3582
  486MOL0     H65607   7.437   2.721   4.428 -0.7584 -0.8353  1.6907
  486MOL0     H65608   7.021   2.705   4.366 -0.1625 -1.0512  1.0518
  486MOL0     H65609   7.625   3.219   4.747  0.6107  0.4311  0.6066
  486MOL0     H65610   7.800   3.295   4.867 -1.4400  0.0258  0.1603
  487MOL0     O65611   5.666   9.061   4.305  0.0231 -0.0601 -0.0378
  487MOL0     C65612   5.735   9.153   4.282  0.1108 -0.0140  0.1644
  487MOL0     O65613   5.692   9.279   4.264  0.1529  0.1077 -0.0915
  487MOL0     C65614   5.556   9.296   4.237 -0.1385 -0.6229 -0.2418
  487MOL0     C65615   5.500   9.218   4.138 -0.0871 -0.6978  0.2171
  487MOL0     C65616   5.365   9.231   4.099 -0.4520 -0.7657  0.2039
  487MOL0     C65617   5.280   9.323   4.165 -0.2456 -0.9629  0.4959
  487MOL0     O65618   5.161   9.339   4.101  0.2887 -1.0157 -0.6147
  487MOL0     C65619   5.047   9.369   4.184 -0.6607 -0.8953 -0.1725
  487MOL0     C65620   4.919   9.383   4.107  0.3613  0.0276  0.4529
  487MOL0     C65621   4.804   9.419   4.200 -0.1267 -0.5563  0.3251
  487MOL0     C65622   4.674   9.471   4.139  0.2641 -0.2291 -0.4599
  487MOL0     C65623   4.581   9.526   4.243  0.2172 -0.1657 -0.1091
  487MOL0     C65624   4.448   9.571   4.178  1.1442 -0.3868 -0.2683
  487MOL0     C65625   4.468   9.709   4.114  1.1833 -0.2249  0.1436
  487MOL0     C65626   4.338   9.752   4.045 -0.1217 -0.3853  0.3583
  487MOL0     N65627   4.233   9.790   4.134 -0.4291  0.3144 -0.5742
  487MOL0     C65628   4.238   9.901   4.218  0.3366  0.7521  0.0331
  487MOL0     C65629   4.128   9.890   4.295  0.9676 -0.4726 -0.5651
  487MOL0     C65630   4.096   9.986   4.408 -0.9232  0.0585  0.2303
  487MOL0     C65631   3.957   9.986   4.455  0.1023 -0.1239 -0.2151
  487MOL0     C65632   3.861  10.045   4.347  0.5187 -0.4431 -0.8248
  487MOL0     C65633   3.715  10.041   4.393  0.3163 -0.4462 -0.1053
  487MOL0     O65634   3.689   9.942   4.496  1.0500 -0.1252  0.7190
  487MOL0     C65635   3.600   9.975   4.597 -0.4564 -0.0536 -0.3840
  487MOL0     C65636   3.492  10.055   4.564  0.2798  0.1934  0.3661
  487MOL0     C65637   3.385  10.070   4.642 -0.4528 -0.1908 -0.2730
  487MOL0     C65638   3.256  10.148   4.602 -0.2735  0.1724 -0.0451
  487MOL0     C65639   3.394  10.020   4.775  0.3248 -0.1736 -0.8647
  487MOL0     C65640   3.291  10.035   4.881 -0.4592  0.0457  0.0968
  487MOL0     O65641   3.251   9.924   4.947 -0.3399  0.1982  0.2693
  487MOL0     C65642   3.135   9.934   5.025 -0.1886  0.7690  0.0918
  487MOL0     C65643   3.011   9.976   4.968  0.6639 -0.1298 -0.1192
  487MOL0     C65644   2.890   9.968   5.033  1.0397  0.7159 -0.1433
  487MOL0     C65645   2.889   9.932   5.173  0.8294  0.5084  0.2705
  487MOL0     O65646   2.777   9.911   5.252  0.4290  0.5613 -0.1353
  487MOL0     C65647   2.644   9.932   5.192 -1.1343 -0.3334 -0.2674
  487MOL0     C65648   2.535   9.884   5.280 -0.1605 -0.0127  0.1756
  487MOL0     C65649   2.396   9.941   5.234  0.4758 -0.1636  0.3108
  487MOL0     C65650   2.294   9.853   5.297  0.6151  0.1136  0.4506
  487MOL0     C65651   2.148   9.887   5.254  0.3977  0.4021  0.2726
  487MOL0     C65652   2.047   9.808   5.334 -0.6260 -0.3319  0.5018
  487MOL0     C65653   1.908   9.841   5.278 -0.9923  0.1265  0.0603
  487MOL0     C65654   1.794   9.767   5.339 -0.7557  0.1916  0.2092
  487MOL0    Cl65655   1.827   9.601   5.335  0.2674  0.1162 -0.0293
  487MOL0     C65656   3.002   9.896   5.236 -0.4618  0.5954 -0.0404
  487MOL0     C65657   3.131   9.899   5.162  0.3520  0.5766  0.1481
  487MOL0     O65658   3.255  10.149   4.902  0.3536  0.0737  0.5948
  487MOL0     C65659   3.504   9.949   4.815  0.4480 -0.7007 -0.0863
  487MOL0     C65660   3.606   9.924   4.725 -0.5278 -0.2153 -0.4580
  487MOL0     N65661   4.051   9.782   4.248 -0.5229  0.3274  0.6562
  487MOL0     N65662   4.120   9.720   4.149  0.6091  0.2492 -0.3459
  487MOL0     C65663   5.332   9.407   4.272 -0.6746  0.3815 -0.8685
  487MOL0     C65664   5.469   9.389   4.303 -1.0659  0.0838  0.0693
  487MOL0     C65665   5.881   9.129   4.294  0.9719  0.2101 -0.3908
  487MOL0     C65666   5.966   9.232   4.271 -1.1469 -0.1212  0.3624
  487MOL0     C65667   6.106   9.208   4.271  0.8015  0.8148  0.6740
  487MOL0     C65668   6.157   9.087   4.305 -0.0512 -0.1055 -0.3845
  487MOL0     O65669   6.294   9.061   4.322 -0.3319  0.1823  0.1291
  487MOL0     C65670   6.382   9.174   4.321 -0.3793  0.9922  0.0086
  487MOL0     C65671   6.518   9.123   4.375 -0.1569 -0.2551  0.1741
  487MOL0     C65672   6.501   9.059   4.518  0.1350 -1.5597  0.1091
  487MOL0     C65673   6.606   8.965   4.548 -1.5294 -0.4496 -0.3972
  487MOL0     C65674   6.742   9.027   4.568  0.3544 -0.6907 -0.0962
  487MOL0     C65675   6.853   9.079   4.574  0.3567  0.0107  0.1955
  487MOL0     C65676   6.065   8.982   4.336 -0.6629  0.0810 -0.4308
  487MOL0     C65677   5.933   8.997   4.327  0.6532 -0.3408  0.2174
  487MOL0     H65678   5.560   9.148   4.081 -1.4242  0.4041 -2.7845
  487MOL0     H65679   5.331   9.167   4.018 -0.8275 -0.7402  0.3389
  487MOL0     H65680   5.035   9.290   4.259  0.2372 -0.5747  0.3190
  487MOL0     H65681   5.073   9.466   4.228 -0.0074 -0.5952 -1.1738
  487MOL0     H65682   4.929   9.464   4.033  1.5247  2.1689  2.7929
  487MOL0     H65683   4.902   9.287   4.058  3.2389  0.0618 -0.8820
  487MOL0     H65684   4.774   9.327   4.251  0.6256 -0.1741  1.4959
  487MOL0     H65685   4.832   9.497   4.272 -1.3660 -0.2988  0.5533
  487MOL0     H65686   4.704   9.538   4.057 -0.8779 -1.1773 -1.6874
  487MOL0     H65687   4.620   9.388   4.093  1.6722 -1.9135  0.8094
  487MOL0     H65688   4.564   9.457   4.326 -2.1567  1.7725  1.1820
  487MOL0     H65689   4.634   9.610   4.289  1.8735 -0.8660 -0.6988
  487MOL0     H65690   4.412   9.493   4.110 -0.7375 -0.1134  0.3699
  487MOL0     H65691   4.376   9.578   4.259  1.3755 -0.8550 -0.0128
  487MOL0     H65692   4.479   9.783   4.195 -0.8195  0.9389 -0.5779
  487MOL0     H65693   4.547   9.711   4.039 -0.1165 -0.0081 -1.2705
  487MOL0     H65694   4.304   9.667   3.986 -0.0274 -1.1344  1.3504
  487MOL0     H65695   4.358   9.834   3.975 -0.8741 -0.1917  0.3533
  487MOL0     H65696   4.309   9.984   4.220  0.2908  0.7731  1.0216
  487MOL0     H65697   4.155   9.948   4.492  0.1569  2.3732  0.6002
  487MOL0     H65698   4.140  10.085   4.393  1.8351 -0.9487  1.0302
  487MOL0     H65699   3.958  10.032   4.554  3.7022 -2.0042  0.7948
  487MOL0     H65700   3.926   9.881   4.463  3.2360 -1.1895 -0.8654
  487MOL0     H65701   3.860   9.980   4.259  0.6325 -0.6738 -0.6569
  487MOL0     H65702   3.901  10.143   4.319 -0.3445  0.3140  0.4385
  487MOL0     H65703   3.638  10.032   4.316 -1.2234 -1.3924  1.4664
  487MOL0     H65704   3.703  10.140   4.437 -0.4041 -0.2576 -0.7017
  487MOL0     H65705   3.481  10.102   4.467 -1.2215 -0.0539  0.3947
  487MOL0     H65706   3.227  10.133   4.497 -2.9088 -0.5123  0.7099
  487MOL0     H65707   3.171  10.103   4.653  1.2433 -0.7486  1.8112
  487MOL0     H65708   3.252  10.254   4.626  1.9855  0.8599 -2.2846
  487MOL0     H65709   3.007  10.015   4.867 -1.2922  1.1371  0.3950
  487MOL0     H65710   2.797   9.994   4.985 -0.6678  3.0360  3.8819
  487MOL0     H65711   2.624  10.035   5.159 -0.0847 -0.1228 -0.2765
  487MOL0     H65712   2.646   9.875   5.099  1.6391 -0.3285 -0.3124
  487MOL0     H65713   2.531   9.774   5.282 -0.2532 -0.0440  3.0172
  487MOL0     H65714   2.550   9.915   5.384 -1.3339  0.9478  0.0832
  487MOL0     H65715   2.379   9.932   5.127 -3.9153 -1.1758  0.9086
  487MOL0     H65716   2.388  10.048   5.253  1.1873  0.2199 -1.3642
  487MOL0     H65717   2.312   9.753   5.257 -1.1492 -0.8476  1.9188
  487MOL0     H65718   2.318   9.855   5.404  0.6484  0.3960  0.4399
  487MOL0     H65719   2.134   9.871   5.147  1.7076  2.3095 -0.2150
  487MOL0     H65720   2.131   9.993   5.271 -0.6882  0.4538 -0.9661
  487MOL0     H65721   2.079   9.704   5.331  0.9629  0.0333  2.2794
  487MOL0     H65722   2.047   9.836   5.440  2.4186  0.2963  0.4486
  487MOL0     H65723   1.917   9.810   5.173  2.5799 -0.4115  0.4018
  487MOL0     H65724   1.878   9.946   5.273 -0.7530  0.2504  1.1074
  487MOL0     H65725   1.708   9.795   5.279 -1.4407 -1.1284  0.5438
  487MOL0     H65726   1.772   9.794   5.443 -2.3146 -0.0892 -0.0302
  487MOL0     H65727   3.005   9.857   5.337  1.2367  0.3546 -0.1535
  487MOL0     H65728   3.213   9.860   5.221 -0.8828  0.2247  1.6933
  487MOL0     H65729   3.507   9.917   4.919 -1.3825 -1.9520 -0.3693
  487MOL0     H65730   3.693   9.874   4.765 -0.1541  0.5592 -0.2911
  487MOL0     H65731   5.279   9.478   4.334 -0.0473 -2.4309  3.2912
  487MOL0     H65732   5.519   9.438   4.386  0.4036  0.7848 -1.1751
  487MOL0     H65733   5.931   9.335   4.265 -0.2425  0.3048  1.8420
  487MOL0     H65734   6.177   9.288   4.252  0.2833  1.0648 -0.2945
  487MOL0     H65735   6.401   9.210   4.220 -1.8075 -0.1656 -0.7085
  487MOL0     H65736   6.351   9.264   4.375 -1.3112  1.1158 -0.7086
  487MOL0     H65737   6.595   9.200   4.386  0.3431 -0.5694 -1.0374
  487MOL0     H65738   6.568   9.049   4.311  0.7040  0.7590 -0.3418
  487MOL0     H65739   6.412   8.995   4.519 -0.6000 -0.6328 -1.8490
  487MOL0     H65740   6.492   9.139   4.593  0.8211  1.0518 -2.4387
  487MOL0     H65741   6.633   8.897   4.467 -1.1327 -0.8011  0.0234
  487MOL0     H65742   6.572   8.907   4.635 -1.8074 -3.2704 -2.2550
  487MOL0     H65743   6.939   9.141   4.556  0.6086 -1.0984 -2.8547
  487MOL0     H65744   6.101   8.882   4.358 -0.5549  0.4488  1.2549
  487MOL0     H65745   5.877   8.904   4.330  0.3224 -0.1267  1.5376
  488MOL0     O65746   9.333   2.545  11.179 -0.1508  0.2003  0.4899
  488MOL0     C65747   9.373   2.467  11.268  0.1165  0.4253 -0.8035
  488MOL0     O65748   9.294   2.421  11.369  0.0543 -0.6498  0.1214
  488MOL0     C65749   9.160   2.467  11.358  0.0247 -0.5624 -0.8850
  488MOL0     C65750   9.111   2.535  11.472  0.1969 -0.3591 -0.8254
  488MOL0     C65751   8.980   2.570  11.490 -0.6370 -0.3646  0.1065
  488MOL0     C65752   8.885   2.530  11.407  0.6377 -0.0795  0.0133
  488MOL0     O65753   8.750   2.563  11.417 -0.8278  0.0828  0.4119
  488MOL0     C65754   8.697   2.590  11.547  0.0155  0.3707 -1.0508
  488MOL0     C65755   8.548   2.610  11.523  0.7701  0.3615  1.3633
  488MOL0     C65756   8.519   2.743  11.455  0.2092  0.2934 -0.1320
  488MOL0     C65757   8.371   2.784  11.468  0.1397  0.3982  0.0641
  488MOL0     C65758   8.288   2.725  11.364 -0.0777 -0.7498 -0.2703
  488MOL0     C65759   8.143   2.762  11.378 -0.0218 -0.3927 -0.5757
  488MOL0     C65760   8.057   2.660  11.299  0.2840 -0.1393 -0.2975
  488MOL0     C65761   8.073   2.687  11.148 -0.3899  0.3041  0.7147
  488MOL0     N65762   7.978   2.615  11.066 -0.0892  0.5026 -0.3620
  488MOL0     C65763   7.854   2.666  11.045  0.5976  0.2323 -0.1322
  488MOL0     C65764   7.772   2.557  11.041  0.1970  0.1986  0.3060
  488MOL0     C65765   7.620   2.565  11.029 -0.2287 -0.1300 -0.1601
  488MOL0     C65766   7.544   2.472  11.116 -0.1147 -0.0607 -0.2677
  488MOL0     C65767   7.396   2.504  11.119 -0.5632  0.5816 -0.4217
  488MOL0     C65768   7.337   2.436  10.990  0.5521  1.1907 -0.1236
  488MOL0     O65769   7.194   2.445  10.987 -0.2090  0.0081  0.4430
  488MOL0     C65770   7.130   2.401  10.877  0.5164  0.8573  0.8115
  488MOL0     C65771   6.988   2.394  10.892  0.3217  0.5904  0.1176
  488MOL0     C65772   6.900   2.380  10.788  0.3793  0.3536  0.5537
  488MOL0     C65773   6.756   2.391  10.826  1.0180  0.8623 -0.2430
  488MOL0     C65774   6.947   2.360  10.658  1.1548 -0.3197  0.0777
  488MOL0     C65775   6.843   2.329  10.548 -1.1626  0.2447  0.0726
  488MOL0     O65776   6.715   2.288  10.578  0.2321 -0.6631  0.6210
  488MOL0     C65777   6.619   2.305  10.478 -0.3490 -0.1872 -0.7498
  488MOL0     C65778   6.566   2.427  10.449 -0.2142  0.1688 -0.0354
  488MOL0     C65779   6.471   2.441  10.346  0.6069  0.7471 -0.0140
  488MOL0     C65780   6.428   2.320  10.283  0.6440 -0.3143 -0.4521
  488MOL0     O65781   6.344   2.329  10.173 -0.1985 -0.2682 -0.0989
  488MOL0     C65782   6.259   2.220  10.148  0.6666 -0.2603  0.8246
  488MOL0     C65783   6.131   2.266  10.078  0.1408  0.4205  0.1539
  488MOL0     C65784   6.018   2.338  10.154  0.2831  0.5616 -0.4000
  488MOL0     C65785   5.981   2.271  10.294  0.4423 -0.6976 -0.2399
  488MOL0     C65786   5.847   2.311  10.353 -0.3341 -0.2810  0.8384
  488MOL0     C65787   5.850   2.465  10.379 -0.0200 -0.3331 -0.5678
  488MOL0     C65788   5.718   2.501  10.453 -0.2798 -1.0680  0.6800
  488MOL0     C65789   5.704   2.646  10.511 -0.6849 -0.7521 -0.8035
  488MOL0    Cl65790   5.781   2.766  10.407 -0.2148  0.0256  0.1367
  488MOL0     C65791   6.479   2.201  10.322 -0.3648  0.3294  0.0829
  488MOL0     C65792   6.575   2.189  10.422  0.4756  0.4926  0.0706
  488MOL0     O65793   6.879   2.361  10.436 -0.2703  0.1097 -0.0881
  488MOL0     C65794   7.088   2.363  10.642  0.4482  0.3203  0.3628
  488MOL0     C65795   7.176   2.393  10.747 -0.0996 -0.0416  0.1009
  488MOL0     N65796   7.851   2.445  11.043  0.5965  0.3728 -0.2426
  488MOL0     N65797   7.978   2.480  11.076 -0.2960 -0.1618 -0.0220
  488MOL0     C65798   8.926   2.443  11.296  0.9310 -0.3435  0.1222
  488MOL0     C65799   9.062   2.418  11.272 -0.1492  0.0326 -0.7141
  488MOL0     C65800   9.498   2.397  11.247  0.7922 -1.0204 -0.1250
  488MOL0     C65801   9.544   2.304  11.339  0.9064  0.5590  0.0834
  488MOL0     C65802   9.657   2.238  11.307 -0.1034  0.2186  0.5935
  488MOL0     C65803   9.737   2.266  11.199  1.1848  0.1597  0.2675
  488MOL0     O65804   9.860   2.207  11.188  1.1947  0.1175 -0.3728
  488MOL0     C65805   9.947   2.225  11.075 -0.1151 -0.3567 -0.5811
  488MOL0     C65806  10.062   2.125  11.086 -0.4084 -0.2191 -0.1406
  488MOL0     C65807  10.177   2.145  10.972  0.5233  0.6619 -0.2752
  488MOL0     C65808  10.314   2.096  11.023  0.0853  0.0531  0.4723
  488MOL0     C65809  10.409   2.053  10.918 -0.9279  0.2093 -0.1471
  488MOL0     C65810  10.491   2.023  10.833 -0.0483  0.6028  0.2350
  488MOL0     C65811   9.689   2.360  11.114 -0.6794 -1.5638 -0.0251
  488MOL0     C65812   9.569   2.431  11.136  0.3920  0.1089 -0.7848
  488MOL0     H65813   9.180   2.580  11.543 -2.4224  0.3992  1.4466
  488MOL0     H65814   8.959   2.626  11.581  1.7164 -1.4307  1.4266
  488MOL0     H65815   8.721   2.502  11.609  2.8814  2.0103  0.3608
  488MOL0     H65816   8.746   2.668  11.605 -0.8259  0.7120 -0.7903
  488MOL0     H65817   8.512   2.531  11.457 -2.4169  1.6166  1.4169
  488MOL0     H65818   8.499   2.603  11.621 -0.3155 -2.2074  0.7308
  488MOL0     H65819   8.586   2.809  11.511 -0.2230 -0.2010  1.0089
  488MOL0     H65820   8.555   2.741  11.352 -0.0264 -2.5072 -0.2599
  488MOL0     H65821   8.337   2.740  11.563  1.0926 -0.1590  0.1638
  488MOL0     H65822   8.363   2.892  11.484  1.1877  0.5352 -0.2661
  488MOL0     H65823   8.318   2.766  11.266  0.9459  0.2288  0.4151
  488MOL0     H65824   8.309   2.618  11.360  0.4141 -0.6694  0.0872
  488MOL0     H65825   8.121   2.749  11.484  0.1928 -0.6328 -0.5587
  488MOL0     H65826   8.113   2.864  11.355  1.3142  0.8888  2.7944
  488MOL0     H65827   8.069   2.561  11.343 -0.8721  1.1682  3.3329
  488MOL0     H65828   7.955   2.678  11.335  1.0253 -2.9544  3.8718
  488MOL0     H65829   8.176   2.666  11.118 -1.1843 -1.8764 -0.6892
  488MOL0     H65830   8.056   2.793  11.127 -0.9956 -0.1724 -1.4697
  488MOL0     H65831   7.819   2.768  11.033  0.4895  0.0438 -1.5341
  488MOL0     H65832   7.585   2.664  11.061 -0.7502 -0.6392  0.8983
  488MOL0     H65833   7.586   2.561  10.925 -0.2198  1.2641 -0.2345
  488MOL0     H65834   7.589   2.491  11.213  1.5125  0.2132 -1.0417
  488MOL0     H65835   7.561   2.365  11.096  2.8538  0.0992  0.9359
  488MOL0     H65836   7.372   2.610  11.124  1.9963  1.2492 -0.8718
  488MOL0     H65837   7.354   2.463  11.211 -1.5454  1.1749 -0.5906
  488MOL0     H65838   7.351   2.328  11.000 -2.4553  0.8101  0.9140
  488MOL0     H65839   7.385   2.475  10.900  0.8072  1.5036  0.1445
  488MOL0     H65840   6.944   2.399  10.991  4.6374  0.1172  2.2892
  488MOL0     H65841   6.697   2.463  10.768  1.5003  0.7631 -0.8668
  488MOL0     H65842   6.708   2.293  10.823  1.0234  0.8566 -3.6021
  488MOL0     H65843   6.750   2.424  10.930  0.9103 -0.0173  0.0344
  488MOL0     H65844   6.604   2.509  10.508  1.6276 -0.4451 -0.3168
  488MOL0     H65845   6.437   2.537  10.309 -2.4095 -0.7504 -1.4627
  488MOL0     H65846   6.308   2.144  10.087  0.1698  0.3287 -0.3258
  488MOL0     H65847   6.234   2.174  10.244  1.8070 -1.4942  0.5626
  488MOL0     H65848   6.150   2.319   9.984  0.9961 -0.4944 -0.2039
  488MOL0     H65849   6.089   2.167  10.058  0.7728 -0.0291  1.0114
  488MOL0     H65850   5.929   2.353  10.092 -2.3444  0.9226  3.0998
  488MOL0     H65851   6.058   2.440  10.160 -1.1230  1.2342 -1.5600
  488MOL0     H65852   5.977   2.162  10.280  0.0339 -0.7616  0.3106
  488MOL0     H65853   6.058   2.285  10.369  0.3278 -3.0728  0.3982
  488MOL0     H65854   5.822   2.257  10.444  2.7807 -2.8459  0.3324
  488MOL0     H65855   5.764   2.286  10.286  0.5485 -2.2823  0.4191
  488MOL0     H65856   5.937   2.478  10.445 -1.0067  0.0883  0.6940
  488MOL0     H65857   5.854   2.514  10.282 -1.1052 -1.2801 -1.1132
  488MOL0     H65858   5.692   2.437  10.538 -0.5000 -2.0149 -0.0813
  488MOL0     H65859   5.635   2.484  10.383  0.5990  1.7468 -1.2191
  488MOL0     H65860   5.762   2.643  10.604 -2.7629  0.1198  0.5809
  488MOL0     H65861   5.601   2.672  10.536 -0.7602  0.1797 -2.0052
  488MOL0     H65862   6.437   2.110  10.280 -0.6147  0.2173  0.5633
  488MOL0     H65863   6.613   2.091  10.447 -0.9746 -0.1340 -0.0791
  488MOL0     H65864   7.134   2.351  10.545  3.0068  0.0407  1.5152
  488MOL0     H65865   7.281   2.382  10.722 -0.1592  1.1349 -0.7209
  488MOL0     H65866   8.852   2.407  11.225 -1.1282  0.8475  1.5330
  488MOL0     H65867   9.101   2.354  11.194  2.6597 -1.0441  1.3875
  488MOL0     H65868   9.500   2.297  11.438  1.6474 -1.2623  0.3162
  488MOL0     H65869   9.692   2.161  11.375  0.8669  0.2799  0.1812
  488MOL0     H65870   9.893   2.224  10.980  0.8781  0.0807 -1.1654
  488MOL0     H65871   9.978   2.329  11.090  1.0009 -0.7385 -0.1232
  488MOL0     H65872  10.021   2.024  11.081 -2.4688  0.5475  0.2840
  488MOL0     H65873  10.112   2.138  11.182 -2.1240  2.1470  0.5370
  488MOL0     H65874  10.179   2.252  10.950  0.5253  1.3477  2.6607
  488MOL0     H65875  10.150   2.084  10.886 -0.8178 -0.2155  0.7356
  488MOL0     H65876  10.307   2.020  11.101 -2.8773  1.6427  1.9391
  488MOL0     H65877  10.364   2.181  11.070 -1.1651  2.3337 -2.0387
  488MOL0     H65878  10.563   1.981  10.766 -1.1571  1.0543 -1.2661
  488MOL0     H65879   9.744   2.380  11.023 -1.0162 -3.0961 -0.5925
  488MOL0     H65880   9.526   2.503  11.069 -0.1031  0.2668 -0.3050
  489MOL0     O65881   6.178  10.000  10.879  0.6905 -0.0097 -0.4261
  489MOL0     C65882   6.268  10.018  10.955 -0.8007 -0.6787  0.2706
  489MOL0     O65883   6.256  10.078  11.076 -0.8967  0.6592  0.8558
  489MOL0     C65884   6.129  10.105  11.118  0.2399 -0.3615 -0.0699
  489MOL0     C65885   6.018  10.016  11.125 -0.0319  0.2255 -0.1040
  489MOL0     C65886   5.888  10.068  11.153  0.3076  0.3178  0.2321
  489MOL0     C65887   5.868  10.197  11.196  0.8635  0.1946 -0.5281
  489MOL0     O65888   5.751  10.247  11.243  0.3177  0.3825 -0.2107
  489MOL0     C65889   5.645  10.167  11.296 -0.8327  0.7995  0.2962
  489MOL0     C65890   5.550  10.250  11.382  0.5218 -0.4899  0.6226
  489MOL0     C65891   5.417  10.176  11.423  0.1304 -0.1645  0.8616
  489MOL0     C65892   5.355  10.227  11.550 -0.0488  0.0611 -0.0567
  489MOL0     C65893   5.213  10.168  11.576 -0.4788 -0.3145  0.0786
  489MOL0     C65894   5.237  10.036  11.655  0.0900  0.3162 -0.1971
  489MOL0     C65895   5.109   9.988  11.725  0.0195  0.1230 -0.7750
  489MOL0     C65896   5.154   9.878  11.828 -0.3182  0.3528  0.5334
  489MOL0     N65897   5.044   9.869  11.923  0.4482 -0.8109  1.0655
  489MOL0     C65898   5.038   9.933  12.042  0.0291  0.2699 -0.5908
  489MOL0     C65899   4.918   9.917  12.091  0.0372  0.0624  0.1081
  489MOL0     C65900   4.855   9.982  12.216  1.1101  0.0331  0.2910
  489MOL0     C65901   4.888   9.905  12.336 -0.3653  0.6465  0.2583
  489MOL0     C65902   4.791   9.785  12.361  0.1930 -0.3102 -0.3031
  489MOL0     C65903   4.658   9.824  12.418  0.3611  0.3918  0.2218
  489MOL0     O65904   4.576   9.707  12.429  0.4261  0.0101 -0.1941
  489MOL0     C65905   4.441   9.726  12.408 -0.5070  0.4101  0.1470
  489MOL0     C65906   4.381   9.643  12.318  0.3865  0.6238 -0.2711
  489MOL0     C65907   4.240   9.638  12.293  0.1141 -0.0565 -0.1726
  489MOL0     C65908   4.191   9.548  12.185  0.1597 -1.1590 -0.0091
  489MOL0     C65909   4.161   9.732  12.359 -0.0490  0.0633  0.2266
  489MOL0     C65910   4.012   9.743  12.342  0.7740 -0.2234  0.0561
  489MOL0     O65911   3.956   9.855  12.405 -0.6392  0.2547 -0.1883
  489MOL0     C65912   3.818   9.878  12.387  0.2591 -0.2267 -0.2653
  489MOL0     C65913   3.749   9.950  12.486  0.1259  0.1658 -0.8784
  489MOL0     C65914   3.618   9.990  12.465  0.4446 -0.4359 -0.5431
  489MOL0     C65915   3.547   9.959  12.350 -0.1328  0.9195 -0.4568
  489MOL0     O65916   3.424   9.993  12.308  0.4225 -0.3795 -0.0380
  489MOL0     C65917   3.340  10.043  12.416  0.5154 -0.2096 -0.2047
  489MOL0     C65918   3.199  10.077  12.364  0.3909 -0.3857 -0.1451
  489MOL0     C65919   3.102  10.123  12.476 -0.0995  0.2381  0.0543
  489MOL0     C65920   2.963  10.143  12.407  0.1109  0.3020  0.3494
  489MOL0     C65921   2.853  10.164  12.517 -0.9810 -0.0027  0.0372
  489MOL0     C65922   2.714  10.173  12.463  0.7436  1.0270 -0.1312
  489MOL0     C65923   2.614  10.206  12.578  0.4381 -0.3037 -0.6808
  489MOL0     C65924   2.463  10.203  12.537 -0.3589 -0.4925  0.0435
  489MOL0    Cl65925   2.354  10.146  12.662 -0.4486  0.0693  0.0861
  489MOL0     C65926   3.625   9.905  12.244  0.2685  0.2261 -0.0800
  489MOL0     C65927   3.760   9.862  12.267 -0.2643  0.2936 -0.2444
  489MOL0     O65928   3.943   9.650  12.298 -0.2566  0.0501 -0.0041
  489MOL0     C65929   4.225   9.822  12.454 -0.3242  0.0241  1.5649
  489MOL0     C65930   4.366   9.824  12.471 -0.2442 -0.4608  0.1182
  489MOL0     N65931   4.848   9.833  12.002 -1.0347  0.3292 -0.0815
  489MOL0     N65932   4.925   9.803  11.906 -0.2451  0.8012  0.1227
  489MOL0     C65933   5.979  10.287  11.198 -0.3301 -0.2725  0.2031
  489MOL0     C65934   6.103  10.240  11.154  1.2803 -0.1084 -0.2223
  489MOL0     C65935   6.412   9.985  10.919 -0.1623  0.4850 -0.8329
  489MOL0     C65936   6.448   9.962  10.788  0.3211 -0.5389  0.6428
  489MOL0     C65937   6.575   9.918  10.745  0.1778  1.1528 -0.0799
  489MOL0     C65938   6.675   9.901  10.838  0.2060 -0.0940  0.3508
  489MOL0     O65939   6.798   9.874  10.783  0.5425  0.1944  0.3043
  489MOL0     C65940   6.905   9.871  10.874  0.6673  0.2347  0.3241
  489MOL0     C65941   7.047   9.867  10.810 -0.8410  0.2940 -0.4061
  489MOL0     C65942   7.046   9.786  10.674  0.5501 -0.2197 -0.1661
  489MOL0     C65943   7.182   9.740  10.616  0.0893 -0.1438 -0.1016
  489MOL0     C65944   7.252   9.856  10.559 -0.3968 -0.4185  0.0937
  489MOL0     C65945   7.315   9.952  10.522 -0.5532  0.0184 -0.5076
  489MOL0     C65946   6.641   9.915  10.970  0.5424 -0.0491  0.2123
  489MOL0     C65947   6.513   9.949  11.012 -0.3020 -0.3395 -1.0364
  489MOL0     H65948   6.030   9.918  11.081 -4.2951 -0.2719 -0.5119
  489MOL0     H65949   5.800  10.006  11.142 -1.5929  3.2019 -2.6907
  489MOL0     H65950   5.586  10.118  11.219  0.1474  0.0963 -0.0338
  489MOL0     H65951   5.693  10.082  11.347  0.0063  0.0022 -1.7166
  489MOL0     H65952   5.617  10.278  11.464  1.4988 -1.5346  0.2113
  489MOL0     H65953   5.531  10.340  11.323  0.2764 -1.2130 -0.4479
  489MOL0     H65954   5.350  10.190  11.338  2.6616 -0.6846 -1.3602
  489MOL0     H65955   5.431  10.067  11.425 -2.0189 -0.5405 -0.8723
  489MOL0     H65956   5.427  10.215  11.632  0.5607 -3.1021 -0.9006
  489MOL0     H65957   5.334  10.332  11.530  0.6791  0.4716  1.2138
  489MOL0     H65958   5.159  10.236  11.642  0.8638 -1.5395  2.6027
  489MOL0     H65959   5.154  10.164  11.484 -0.9388  0.4072  0.3368
  489MOL0     H65960   5.270   9.959  11.585  4.2331  1.1218  0.6094
  489MOL0     H65961   5.320  10.054  11.724  1.4028 -0.9160 -1.4126
  489MOL0     H65962   5.066  10.076  11.773 -0.1334 -0.9400  1.1050
  489MOL0     H65963   5.033   9.952  11.654 -2.0782  1.8369  0.4682
  489MOL0     H65964   5.245   9.901  11.885 -1.3503 -0.2747  2.5155
  489MOL0     H65965   5.180   9.792  11.767  3.2014  1.5173  0.1272
  489MOL0     H65966   5.117   9.984  12.096  1.6210 -2.2220 -0.3780
  489MOL0     H65967   4.899  10.082  12.229  2.2611 -0.1908 -1.4637
  489MOL0     H65968   4.749   9.999  12.199  1.3828  1.3226 -0.2670
  489MOL0     H65969   4.889   9.972  12.423  0.6483  1.7077 -0.5352
  489MOL0     H65970   4.986   9.859  12.320 -0.9838 -0.5946 -0.0625
  489MOL0     H65971   4.832   9.718  12.436 -0.7068  1.9181  2.3642
  489MOL0     H65972   4.764   9.733  12.268 -1.0471 -1.7121  0.7959
  489MOL0     H65973   4.615   9.901  12.353  0.3799 -0.1821 -0.4773
  489MOL0     H65974   4.673   9.869  12.517  2.5918  0.0725  0.0878
  489MOL0     H65975   4.445   9.580  12.257  0.4481  1.0568 -0.6560
  489MOL0     H65976   4.125   9.594  12.111  2.6723  1.0199 -1.0382
  489MOL0     H65977   4.282   9.527  12.127  1.3720  1.8032  0.6405
  489MOL0     H65978   4.146   9.454  12.218 -1.2026 -0.0773  1.3693
  489MOL0     H65979   3.810   9.959  12.575  0.8140 -0.4580 -1.2766
  489MOL0     H65980   3.572  10.059  12.536 -1.2162  0.5408 -2.4539
  489MOL0     H65981   3.330   9.971  12.497  0.8277 -1.7463 -1.4798
  489MOL0     H65982   3.377  10.134  12.465  0.7512 -1.2550  1.6389
  489MOL0     H65983   3.208  10.164  12.299 -0.4079  1.5028  2.1101
  489MOL0     H65984   3.173   9.985  12.312  2.8116 -0.6050 -1.0976
  489MOL0     H65985   3.131  10.210  12.536  1.0230  0.2320 -0.4555
  489MOL0     H65986   3.088  10.030  12.531  0.1746  0.6052  0.7602
  489MOL0     H65987   2.965  10.227  12.337 -1.4425 -1.3776 -1.8395
  489MOL0     H65988   2.939  10.059  12.341  0.0188 -0.0553  0.8284
  489MOL0     H65989   2.878  10.254  12.575  2.6102  0.8045 -2.4156
  489MOL0     H65990   2.866  10.080  12.586  0.6173  2.3851  2.8973
  489MOL0     H65991   2.718  10.259  12.395  1.8762  2.8054  2.0515
  489MOL0     H65992   2.687  10.078  12.417 -0.4581  1.0820  0.4113
  489MOL0     H65993   2.644  10.305  12.611 -0.0713 -0.4454  0.2229
  489MOL0     H65994   2.626  10.130  12.656 -0.0780  1.2454  0.9473
  489MOL0     H65995   2.449  10.141  12.448 -1.3142  0.8673 -0.7985
  489MOL0     H65996   2.441  10.302  12.494  1.5057  1.3396  2.9178
  489MOL0     H65997   3.585   9.894  12.144  0.5166  1.4964 -0.3332
  489MOL0     H65998   3.815   9.809  12.191 -2.0296  0.4303 -1.6866
  489MOL0     H65999   4.167   9.883  12.522  0.3831  1.0437  1.2800
  489MOL0     H66000   4.420   9.883  12.545  0.9665 -2.0792  0.5689
  489MOL0     H66001   5.966  10.392  11.225  1.6966  0.2678 -0.7509
  489MOL0     H66002   6.182  10.314  11.156 -1.3069  2.9526 -1.7867
  489MOL0     H66003   6.379   9.984  10.706  1.5746 -1.2651 -0.6459
  489MOL0     H66004   6.605   9.912  10.641 -1.7991  0.1106 -0.6472
  489MOL0     H66005   6.904   9.959  10.938  0.9813  1.1065 -0.8298
  489MOL0     H66006   6.887   9.778  10.929 -1.7878  0.1471 -0.5039
  489MOL0     H66007   7.111   9.811  10.879 -0.6692 -1.1226 -1.6697
  489MOL0     H66008   7.098   9.961  10.787  0.5325 -0.9296 -2.8496
  489MOL0     H66009   7.004   9.850  10.596  3.7277  0.2413 -1.6914
  489MOL0     H66010   6.984   9.698  10.687 -3.0824  2.2700  0.9020
  489MOL0     H66011   7.164   9.670  10.534 -1.1453 -1.0946  0.9269
  489MOL0     H66012   7.240   9.681  10.688  0.2231 -0.5067 -0.4983
  489MOL0     H66013   7.361  10.047  10.504  1.6857 -1.1832 -1.5038
  489MOL0     H66014   6.719   9.906  11.044 -0.9470  1.5179  2.0854
  489MOL0     H66015   6.491   9.949  11.118 -1.8923  1.0697 -1.3236
  490MOL0     O66016   5.693   3.894   9.567 -0.6252  0.2081  0.3404
  490MOL0     C66017   5.703   3.837   9.675  0.2842  0.2623  0.3672
  490MOL0     O66018   5.608   3.770   9.736 -0.1894  0.5361  0.6373
  490MOL0     C66019   5.477   3.805   9.742  0.5623 -0.1919  0.4305
  490MOL0     C66020   5.424   3.930   9.714  0.2833  0.0470  0.5763
  490MOL0     C66021   5.290   3.959   9.721 -0.6535 -0.2675 -0.3158
  490MOL0     C66022   5.203   3.866   9.785  0.4517  0.2616 -0.0203
  490MOL0     O66023   5.083   3.906   9.842 -0.2490  0.5966  0.7646
  490MOL0     C66024   5.003   4.018   9.786  0.7398 -0.6980 -0.2585
  490MOL0     C66025   4.902   3.954   9.686  0.3204  0.4304 -0.8972
  490MOL0     C66026   4.829   4.053   9.607 -0.1845  0.4273  0.6155
  490MOL0     C66027   4.732   4.139   9.690 -0.4652  0.5964  0.2762
  490MOL0     C66028   4.629   4.218   9.610 -0.0030  0.3708  0.4562
  490MOL0     C66029   4.687   4.325   9.521  0.0813 -0.3506 -0.0051
  490MOL0     C66030   4.587   4.431   9.478  1.0122 -0.0203  0.7613
  490MOL0     C66031   4.489   4.390   9.356  0.6663 -0.0930  0.3335
  490MOL0     N66032   4.394   4.503   9.329 -0.9187 -0.7881 -0.6602
  490MOL0     C66033   4.264   4.486   9.312 -0.1091 -0.2692 -0.7595
  490MOL0     C66034   4.211   4.611   9.289 -0.2178  0.0049 -0.2212
  490MOL0     C66035   4.068   4.641   9.242  0.1560 -0.0656 -0.0866
  490MOL0     C66036   3.956   4.541   9.281 -0.1325 -0.1216 -0.5676
  490MOL0     C66037   3.952   4.531   9.429 -0.1656 -0.9838 -0.0656
  490MOL0     C66038   3.815   4.476   9.485  0.0917 -0.7211 -0.0864
  490MOL0     O66039   3.698   4.561   9.452 -0.6451 -0.9635  0.0863
  490MOL0     C66040   3.573   4.516   9.487 -0.1066  0.3376 -0.5924
  490MOL0     C66041   3.546   4.401   9.545 -0.3418 -0.6168  0.6399
  490MOL0     C66042   3.421   4.356   9.572 -0.1525 -0.7421 -0.5731
  490MOL0     C66043   3.413   4.221   9.627 -0.1601  0.1042 -0.2912
  490MOL0     C66044   3.315   4.442   9.548 -0.6595 -0.2785  0.8732
  490MOL0     C66045   3.172   4.416   9.584 -0.3346  0.6735  0.6245
  490MOL0     O66046   3.089   4.522   9.566 -0.4069  0.0773 -0.5122
  490MOL0     C66047   2.968   4.524   9.636  0.5668 -0.0562 -0.4617
  490MOL0     C66048   2.844   4.553   9.571 -0.4798 -0.6728 -0.7962
  490MOL0     C66049   2.726   4.552   9.643 -0.3880  0.0386  0.3439
  490MOL0     C66050   2.726   4.522   9.776  1.0304  0.2090 -0.6552
  490MOL0     O66051   2.603   4.495   9.837 -0.3086  0.4881 -0.2814
  490MOL0     C66052   2.592   4.504   9.979  0.1848  0.0826 -0.0098
  490MOL0     C66053   2.447   4.518  10.028 -0.4849 -0.4431 -0.3920
  490MOL0     C66054   2.379   4.646   9.987 -0.4514 -0.4071  0.4282
  490MOL0     C66055   2.224   4.641  10.002  0.1635  0.2854  0.5634
  490MOL0     C66056   2.166   4.589  10.132  0.0443  0.1829  0.2100
  490MOL0     C66057   2.016   4.589  10.120 -1.1952 -0.2920 -0.0004
  490MOL0     C66058   1.969   4.473  10.038  0.1824  0.7005 -0.3009
  490MOL0     C66059   1.819   4.467  10.054 -0.1356 -0.1277  0.2509
  490MOL0    Cl66060   1.732   4.604   9.963 -0.3020  0.3452 -0.3084
  490MOL0     C66061   2.843   4.491   9.846 -0.2024 -0.4576 -0.2621
  490MOL0     C66062   2.962   4.497   9.775 -1.4958  0.5654  1.1980
  490MOL0     O66063   3.140   4.307   9.633  0.6682 -0.3869 -0.4385
  490MOL0     C66064   3.343   4.567   9.486  1.0202  0.3513 -0.1863
  490MOL0     C66065   3.473   4.608   9.448 -0.7948 -0.6549  0.2803
  490MOL0     N66066   4.315   4.695   9.315  0.1752  0.0397 -0.9062
  490MOL0     N66067   4.426   4.636   9.338 -0.3516  0.2121 -0.3420
  490MOL0     C66068   5.249   3.742   9.814  0.0845 -0.2846 -0.3319
  490MOL0     C66069   5.387   3.717   9.796  1.1593  0.3170 -0.2220
  490MOL0     C66070   5.840   3.832   9.727 -0.1716 -0.0123 -0.1321
  490MOL0     C66071   5.944   3.849   9.628  0.1815 -0.7821  0.2694
  490MOL0     C66072   6.085   3.830   9.662 -0.0567 -0.7892 -0.3950
  490MOL0     C66073   6.106   3.807   9.803 -0.5341 -0.0067  0.6690
  490MOL0     O66074   6.230   3.785   9.852 -0.2371 -1.0500  0.2518
  490MOL0     C66075   6.258   3.648   9.886  0.1735 -0.3600  0.0264
  490MOL0     C66076   6.332   3.578   9.766  1.1556 -0.0386  0.1081
  490MOL0     C66077   6.425   3.668   9.693  0.3400  0.1112 -0.8068
  490MOL0     C66078   6.537   3.593   9.642  0.3721  1.1746  0.4052
  490MOL0     C66079   6.609   3.680   9.552  0.5073 -0.7652 -1.1317
  490MOL0     C66080   6.670   3.743   9.472  0.5250 -0.9340  0.5080
  490MOL0     C66081   6.004   3.795   9.895  0.3549 -0.1242 -0.3477
  490MOL0     C66082   5.873   3.804   9.860  0.3753 -0.0211  0.9131
  490MOL0     H66083   5.487   4.009   9.674 -2.1383  1.1671 -1.2941
  490MOL0     H66084   5.269   4.063   9.698  3.3000  0.6597 -0.3583
  490MOL0     H66085   4.950   4.061   9.871  2.0251  2.1170 -0.7545
  490MOL0     H66086   5.049   4.114   9.759 -1.1822  1.1522  2.4930
  490MOL0     H66087   4.960   3.887   9.622 -0.4429  0.1028 -1.2607
  490MOL0     H66088   4.827   3.892   9.738 -1.1026  0.9012 -2.3251
  490MOL0     H66089   4.894   4.119   9.549  0.4082 -0.4159  0.3086
  490MOL0     H66090   4.755   4.004   9.542 -1.0085  0.2462  1.6660
  490MOL0     H66091   4.674   4.065   9.745 -2.7142  1.6671 -0.5324
  490MOL0     H66092   4.784   4.206   9.760 -0.4520 -0.1885  1.0246
  490MOL0     H66093   4.568   4.149   9.551  0.0132 -2.2082  3.2165
  490MOL0     H66094   4.553   4.254   9.681  0.1053 -0.8690  1.2378
  490MOL0     H66095   4.771   4.372   9.572 -1.7975  1.4185  1.6155
  490MOL0     H66096   4.725   4.272   9.432  1.5438 -0.0713  0.4238
  490MOL0     H66097   4.543   4.470   9.571  4.2454 -2.1019  3.3652
  490MOL0     H66098   4.656   4.504   9.435  1.2960 -1.1858 -0.8369
  490MOL0     H66099   4.431   4.303   9.390  2.0902 -0.5799  1.5838
  490MOL0     H66100   4.541   4.365   9.263 -0.8690  1.3810 -0.9953
  490MOL0     H66101   4.211   4.391   9.313 -3.2956  1.3707 -0.6203
  490MOL0     H66102   4.032   4.734   9.286 -0.8099  0.0425 -1.0659
  490MOL0     H66103   4.071   4.638   9.133 -0.1203 -0.4064 -0.0908
  490MOL0     H66104   3.987   4.442   9.246  1.7102 -1.1514  3.3782
  490MOL0     H66105   3.867   4.565   9.222 -0.4829  0.1320  0.0620
  490MOL0     H66106   3.968   4.630   9.474 -0.9271 -2.0994  2.8999
  490MOL0     H66107   4.039   4.469   9.451  0.5130  0.3523  1.2347
  490MOL0     H66108   3.829   4.490   9.593 -0.3231 -0.2631 -0.0881
  490MOL0     H66109   3.806   4.372   9.455 -1.5239 -0.6333  0.0216
  490MOL0     H66110   3.626   4.332   9.571  2.2224  1.4593 -1.2407
  490MOL0     H66111   3.347   4.166   9.560  0.8413 -2.1091  0.4452
  490MOL0     H66112   3.513   4.178   9.624  0.0034  0.4809 -0.3098
  490MOL0     H66113   3.375   4.219   9.730  3.2247 -3.6893  1.1594
  490MOL0     H66114   2.843   4.581   9.467 -0.0369  1.1855 -0.3418
  490MOL0     H66115   2.631   4.568   9.593 -0.4455 -1.1870  0.0222
  490MOL0     H66116   2.620   4.415  10.036 -0.7770 -0.0235  0.3062
  490MOL0     H66117   2.651   4.587  10.019  1.4957 -0.5100 -0.6220
  490MOL0     H66118   2.386   4.431  10.001 -0.6500 -0.6638  0.6531
  490MOL0     H66119   2.458   4.516  10.137 -0.9240  0.2142 -0.3312
  490MOL0     H66120   2.405   4.668   9.883 -1.3901  0.1298  0.2993
  490MOL0     H66121   2.431   4.731  10.032 -0.3776  0.2236 -0.7921
  490MOL0     H66122   2.189   4.743   9.981  0.2184  1.3566  4.8499
  490MOL0     H66123   2.186   4.580   9.920  3.0549  0.9986 -1.4675
  490MOL0     H66124   2.180   4.640  10.227  0.3193 -3.6742  2.4275
  490MOL0     H66125   2.200   4.485  10.136 -0.2619 -0.1187 -2.6424
  490MOL0     H66126   1.979   4.577  10.222 -0.9803 -0.3577  0.0713
  490MOL0     H66127   1.984   4.682  10.071  0.4729  0.6066  0.5394
  490MOL0     H66128   2.014   4.379  10.070  2.4968  2.0338  0.6683
  490MOL0     H66129   2.004   4.470   9.935 -2.9909  0.9794 -1.4849
  490MOL0     H66130   1.789   4.461  10.159  1.6832  2.2063  0.9726
  490MOL0     H66131   1.779   4.377  10.006  0.6524  0.3995 -1.4954
  490MOL0     H66132   2.834   4.458   9.949 -1.7574 -0.2152 -0.2907
  490MOL0     H66133   3.049   4.466   9.832 -3.2075 -1.4748  2.8658
  490MOL0     H66134   3.273   4.649   9.477  1.8593  1.1108  0.0408
  490MOL0     H66135   3.497   4.704   9.404  4.3607 -0.7890  2.0934
  490MOL0     H66136   5.189   3.676   9.877 -2.2899  1.1191 -0.9716
  490MOL0     H66137   5.428   3.618   9.811 -0.4924 -0.5324 -1.0437
  490MOL0     H66138   5.920   3.871   9.525  2.2022 -0.2118 -0.1247
  490MOL0     H66139   6.173   3.832   9.598  0.5172  0.3098  0.4000
  490MOL0     H66140   6.319   3.642   9.976  2.0004 -1.2451 -1.1975
  490MOL0     H66141   6.167   3.597   9.917  1.4336 -2.5833  0.2837
  490MOL0     H66142   6.257   3.541   9.697 -0.2597  3.3594 -0.3669
  490MOL0     H66143   6.386   3.500   9.822 -0.2598 -0.6587  0.6466
  490MOL0     H66144   6.465   3.741   9.764 -2.9689  0.2402  1.1253
  490MOL0     H66145   6.377   3.722   9.611  1.6624  1.8861 -0.4614
  490MOL0     H66146   6.493   3.513   9.582 -1.1616  2.9613 -0.9841
  490MOL0     H66147   6.600   3.548   9.719  0.9892  0.5222 -0.4686
  490MOL0     H66148   6.723   3.801   9.400  2.3577 -2.9307  0.1462
  490MOL0     H66149   6.025   3.771   9.999 -0.9766  0.0600 -0.0191
  490MOL0     H66150   5.798   3.786   9.936  0.0722  2.0091  1.1563
  491MOL0     O66151   4.742   9.423   7.950 -0.1783  0.5743  0.6044
  491MOL0     C66152   4.722   9.374   8.056 -0.8316  0.8883 -0.6973
  491MOL0     O66153   4.601   9.349   8.121  0.8802 -0.0798  1.3234
  491MOL0     C66154   4.472   9.379   8.075  0.0760  0.2825  0.8405
  491MOL0     C66155   4.444   9.449   7.952  0.4372 -0.3067  1.3082
  491MOL0     C66156   4.311   9.488   7.921  0.0737  0.6127 -0.0802
  491MOL0     C66157   4.202   9.454   7.995 -0.6315  0.0583  0.0703
  491MOL0     O66158   4.078   9.471   7.937 -0.4470 -0.3440  0.3511
  491MOL0     C66159   4.006   9.344   7.924  0.3799 -0.4943 -0.2096
  491MOL0     C66160   3.889   9.364   7.818  0.2622 -0.1867  0.5762
  491MOL0     C66161   3.818   9.233   7.803  0.4700 -0.4182  0.4132
  491MOL0     C66162   3.742   9.238   7.671 -0.2956 -0.0306 -0.0012
  491MOL0     C66163   3.648   9.121   7.659  0.5746 -0.1604 -0.8926
  491MOL0     C66164   3.562   9.121   7.537  0.1410  0.2227  0.1395
  491MOL0     C66165   3.645   9.036   7.432  0.6781  0.0189 -0.2046
  491MOL0     C66166   3.571   9.046   7.287 -0.7842 -0.1102  0.4400
  491MOL0     N66167   3.667   9.108   7.199  0.4913 -0.2717  0.4526
  491MOL0     C66168   3.678   9.248   7.198  0.0706 -0.2373  0.3892
  491MOL0     C66169   3.782   9.275   7.118  0.3596 -1.0781  0.1461
  491MOL0     C66170   3.840   9.408   7.086  0.3645 -0.2516 -0.1712
  491MOL0     C66171   3.725   9.517   7.065  0.3201 -0.7652  0.5080
  491MOL0     C66172   3.774   9.660   7.027 -0.3481 -0.3017 -0.4502
  491MOL0     C66173   3.655   9.757   7.009 -0.5073  1.0688 -0.1779
  491MOL0     O66174   3.571   9.743   7.120 -0.1042  0.2317 -0.5483
  491MOL0     C66175   3.438   9.780   7.097  0.0753  0.0510  0.0293
  491MOL0     C66176   3.401   9.899   7.041  0.2426  0.3121 -0.2494
  491MOL0     C66177   3.265   9.944   7.042 -0.4946 -0.7022  0.0554
  491MOL0     C66178   3.248  10.078   6.987 -0.0671 -0.0260 -0.0873
  491MOL0     C66179   3.166   9.865   7.104 -0.2478 -0.1043 -0.0368
  491MOL0     C66180   3.026   9.910   7.126 -0.2179 -0.4889 -0.2692
  491MOL0     O66181   2.986  10.039   7.086 -0.2524  0.4121  0.4912
  491MOL0     C66182   2.854  10.077   7.088 -0.2681  0.4802  0.2056
  491MOL0     C66183   2.847  10.208   7.046 -0.2272  0.5860 -0.2242
  491MOL0     C66184   2.718  10.266   7.038 -0.2024 -0.2198  0.2603
  491MOL0     C66185   2.602  10.191   7.054 -0.6501 -0.3669  0.4497
  491MOL0     O66186   2.494  10.262   7.009 -0.6176 -0.2463  0.1293
  491MOL0     C66187   2.357  10.214   7.024 -0.0820 -0.3161  0.3791
  491MOL0     C66188   2.245  10.298   6.951  0.1792  0.1543 -0.7722
  491MOL0     C66189   2.110  10.222   6.957  0.2373 -0.9791 -0.0779
  491MOL0     C66190   2.009  10.292   6.870 -0.3353  0.2636  0.8635
  491MOL0     C66191   1.871  10.220   6.867 -0.3674 -0.2596 -0.3609
  491MOL0     C66192   1.801  10.240   6.735  0.9657 -0.1598  0.2636
  491MOL0     C66193   1.663  10.159   6.733 -0.4241  0.6305 -0.5986
  491MOL0     C66194   1.675  10.010   6.767 -0.3709  0.3266 -0.1828
  491MOL0    Cl66195   1.813   9.933   6.682  0.0412  0.1911 -0.2826
  491MOL0     C66196   2.615  10.057   7.096  0.7327  0.2478 -0.0529
  491MOL0     C66197   2.737  10.003   7.126 -0.6165  0.4903 -0.3597
  491MOL0     O66198   2.954   9.828   7.195 -0.5840  0.6887  0.0235
  491MOL0     C66199   3.208   9.735   7.165 -1.1412 -0.3566 -0.0051
  491MOL0     C66200   3.341   9.698   7.159  0.0518 -0.8361 -1.1384
  491MOL0     N66201   3.843   9.157   7.084 -0.0280  0.4329 -0.7701
  491MOL0     N66202   3.775   9.058   7.133 -0.5336  0.3318  0.3833
  491MOL0     C66203   4.234   9.383   8.114  0.0591 -0.2430 -0.4102
  491MOL0     C66204   4.362   9.347   8.151 -0.8369 -0.7453 -0.3743
  491MOL0     C66205   4.832   9.333   8.145 -0.4912 -0.3818 -0.7667
  491MOL0     C66206   4.815   9.274   8.274 -0.7813  0.6299 -1.1001
  491MOL0     C66207   4.931   9.228   8.339 -0.5583  0.0784 -0.6287
  491MOL0     C66208   5.060   9.222   8.280 -0.0948 -0.0125 -0.9772
  491MOL0     O66209   5.165   9.163   8.347  0.3591 -0.1703 -0.1125
  491MOL0     C66210   5.291   9.145   8.282 -0.5421 -0.3602  0.2505
  491MOL0     C66211   5.397   9.109   8.387  0.4001 -0.4269  0.4212
  491MOL0     C66212   5.426   9.237   8.472 -0.2070  0.2930  0.7263
  491MOL0     C66213   5.554   9.231   8.556 -0.2669  0.9725  0.4718
  491MOL0     C66214   5.542   9.126   8.661 -1.0861  0.5188 -0.1158
  491MOL0     C66215   5.539   9.043   8.754 -0.1243  0.1750  0.2068
  491MOL0     C66216   5.065   9.263   8.150  0.3286  0.0598  0.1440
  491MOL0     C66217   4.961   9.326   8.087  0.5254 -0.5351 -0.5348
  491MOL0     H66218   4.523   9.483   7.886 -0.7534 -2.6488 -1.5589
  491MOL0     H66219   4.300   9.547   7.831  2.1658  1.0186 -0.1123
  491MOL0     H66220   4.073   9.268   7.881 -0.6263 -0.3954 -2.0331
  491MOL0     H66221   3.975   9.311   8.023  1.6554  0.3295  0.4968
  491MOL0     H66222   3.818   9.443   7.843  1.7684  1.2996  0.3751
  491MOL0     H66223   3.923   9.392   7.718  0.3377 -1.5197  0.2152
  491MOL0     H66224   3.890   9.151   7.805  1.0617 -0.0450 -1.9783
  491MOL0     H66225   3.746   9.217   7.884  0.6428  1.8532  1.0944
  491MOL0     H66226   3.678   9.327   7.678 -1.8990 -0.8571 -2.6924
  491MOL0     H66227   3.804   9.250   7.582  0.0017 -1.6850 -0.0530
  491MOL0     H66228   3.710   9.031   7.670  0.2765 -0.4529 -1.5755
  491MOL0     H66229   3.579   9.128   7.744 -1.5527  0.5143 -2.6164
  491MOL0     H66230   3.462   9.080   7.555 -0.3175  0.3529 -1.8103
  491MOL0     H66231   3.541   9.222   7.501 -2.3143  0.3756  1.7279
  491MOL0     H66232   3.749   9.071   7.432  0.8296 -0.2672  1.9380
  491MOL0     H66233   3.650   8.930   7.459 -3.2919 -0.4136 -0.5667
  491MOL0     H66234   3.486   9.115   7.290 -1.0518 -0.3913 -0.3615
  491MOL0     H66235   3.544   8.951   7.242 -1.0141 -1.4142  3.1216
  491MOL0     H66236   3.627   9.328   7.251  2.5979  0.7605  1.4607
  491MOL0     H66237   3.897   9.438   7.174 -1.3949 -0.9445  1.2684
  491MOL0     H66238   3.904   9.404   6.997 -1.1157 -0.8994 -1.2478
  491MOL0     H66239   3.655   9.522   7.149 -0.4647  1.9690 -0.2308
  491MOL0     H66240   3.664   9.482   6.981  0.7948 -1.6060  0.4950
  491MOL0     H66241   3.838   9.666   6.938 -1.1084  1.1338 -0.9334
  491MOL0     H66242   3.833   9.692   7.113 -1.2033 -1.0197  0.4216
  491MOL0     H66243   3.599   9.735   6.917  1.7493 -2.0610 -0.9719
  491MOL0     H66244   3.702   9.856   7.005  1.5470  0.1245 -0.8219
  491MOL0     H66245   3.475   9.959   6.988 -0.9216  2.3403  0.2942
  491MOL0     H66246   3.332  10.115   6.928 -1.6361  3.4922 -0.3675
  491MOL0     H66247   3.162  10.074   6.919  0.2517 -0.8180 -0.4546
  491MOL0     H66248   3.236  10.131   7.082 -0.1520 -1.1973  0.5688
  491MOL0     H66249   2.937  10.262   7.018  0.7171 -0.0263  1.5273
  491MOL0     H66250   2.706  10.368   7.005 -1.0636 -1.1240 -2.5071
  491MOL0     H66251   2.346  10.119   6.970 -1.7690  0.0243  0.0624
  491MOL0     H66252   2.334  10.206   7.130 -2.8505 -0.9248 -0.1788
  491MOL0     H66253   2.239  10.397   6.998 -1.1944 -0.5884  0.7094
  491MOL0     H66254   2.277  10.314   6.848 -2.0787 -0.3381 -1.6110
  491MOL0     H66255   2.071  10.226   7.059  1.0230  0.2790  0.2000
  491MOL0     H66256   2.123  10.115   6.938  4.1004 -1.2016  2.6412
  491MOL0     H66257   2.007  10.399   6.891  0.0513  0.1887  1.2994
  491MOL0     H66258   2.043  10.299   6.766 -2.6513 -0.1507  0.0275
  491MOL0     H66259   1.805  10.244   6.950 -0.8520 -2.1079 -0.1670
  491MOL0     H66260   1.884  10.113   6.885 -3.2256 -0.8854 -1.3619
  491MOL0     H66261   1.802  10.348   6.714  2.3427 -0.4178 -1.2091
  491MOL0     H66262   1.855  10.197   6.650  0.8939 -1.1853  0.7236
  491MOL0     H66263   1.627  10.172   6.630  1.0527  2.2005 -0.9834
  491MOL0     H66264   1.595  10.213   6.800  0.3580  0.9855 -0.0726
  491MOL0     H66265   1.583   9.963   6.728 -0.1435 -1.1405  0.9714
  491MOL0     H66266   1.679   9.992   6.875  1.2819 -2.0551 -0.5841
  491MOL0     H66267   2.526   9.993   7.094  1.0192 -0.1856 -2.5148
  491MOL0     H66268   2.744   9.900   7.158  2.3901  1.5358  3.1659
  491MOL0     H66269   3.139   9.671   7.219  0.5472 -2.0184  0.3121
  491MOL0     H66270   3.368   9.603   7.204  0.3905 -0.6837 -1.0126
  491MOL0     H66271   4.162   9.354   8.191 -0.2950  2.1957  0.2874
  491MOL0     H66272   4.373   9.288   8.241 -0.0269 -1.0793 -0.6855
  491MOL0     H66273   4.722   9.272   8.329  0.3548 -2.9090  1.0389
  491MOL0     H66274   4.911   9.182   8.435 -0.1908 -0.1698 -0.6692
  491MOL0     H66275   5.276   9.059   8.216 -0.0458 -1.3159  1.3590
  491MOL0     H66276   5.328   9.233   8.228  1.7801 -0.9504  0.7568
  491MOL0     H66277   5.489   9.066   8.348  0.4144 -0.9886  1.0640
  491MOL0     H66278   5.353   9.030   8.449 -1.7464 -0.4523 -1.0034
  491MOL0     H66279   5.341   9.269   8.532 -1.0694 -1.1305  0.3271
  491MOL0     H66280   5.440   9.322   8.405  0.5815 -0.6453 -0.3470
  491MOL0     H66281   5.559   9.329   8.603  0.4244  2.4274 -2.4177
  491MOL0     H66282   5.635   9.208   8.486 -2.1652 -0.4379 -1.3807
  491MOL0     H66283   5.542   8.979   8.841 -0.5792  1.7867  1.4563
  491MOL0     H66284   5.161   9.256   8.099  1.0657  0.8677  1.3397
  491MOL0     H66285   4.964   9.328   7.979  0.3676  0.1491 -0.5343
  492MOL0     O66286   6.005  10.726   2.797 -0.7935 -1.3971 -0.0901
  492MOL0     C66287   6.018  10.744   2.918  0.1609  0.6363  0.3801
  492MOL0     O66288   5.923  10.787   3.008  0.8756  0.3956  0.4767
  492MOL0     C66289   5.786  10.765   2.989  0.9523 -0.1258 -0.1013
  492MOL0     C66290   5.714  10.729   3.100 -1.0660  0.4523  0.7502
  492MOL0     C66291   5.577  10.716   3.100 -0.2188  0.0016  1.6169
  492MOL0     C66292   5.511  10.736   2.971 -0.2368  0.7730  0.0572
  492MOL0     O66293   5.369  10.733   2.954  0.7877 -0.5148 -0.1924
  492MOL0     C66294   5.296  10.666   3.055  0.7355 -0.1074 -0.3976
  492MOL0     C66295   5.161  10.637   2.997  0.5983  0.5211  0.6200
  492MOL0     C66296   5.061  10.594   3.110 -0.6005 -0.4387 -1.0439
  492MOL0     C66297   4.927  10.560   3.052  0.0200 -0.1446 -0.8308
  492MOL0     C66298   4.830  10.501   3.163 -1.2708 -0.3218  0.5358
  492MOL0     C66299   4.715  10.448   3.093  0.7885  0.8675 -0.0704
  492MOL0     C66300   4.603  10.404   3.192 -0.9091 -0.4436 -0.8796
  492MOL0     C66301   4.541  10.522   3.263 -0.3873 -0.5326  0.6228
  492MOL0     N66302   4.405  10.493   3.310 -0.0006 -0.2707  0.8534
  492MOL0     C66303   4.363  10.383   3.379 -0.6715 -0.3399 -0.5845
  492MOL0     C66304   4.232  10.392   3.403 -0.7590 -0.2079  0.0279
  492MOL0     C66305   4.152  10.302   3.493  0.2422 -0.6364  0.1555
  492MOL0     C66306   4.087  10.387   3.608 -0.3051  0.3443 -0.3172
  492MOL0     C66307   3.955  10.446   3.570  0.1881  0.0708 -0.0045
  492MOL0     C66308   3.828  10.364   3.586  0.1738 -0.0902  0.8701
  492MOL0     O66309   3.841  10.239   3.521  0.1200  0.4230  0.3147
  492MOL0     C66310   3.777  10.239   3.397 -0.2790  0.4037  0.6698
  492MOL0     C66311   3.642  10.219   3.402 -0.6324  0.6531 -0.6556
  492MOL0     C66312   3.552  10.227   3.301 -0.0588  0.4318  0.0022
  492MOL0     C66313   3.401  10.230   3.325  0.0516 -0.0053 -0.0174
  492MOL0     C66314   3.597  10.246   3.168 -0.3096  0.6167 -1.2425
  492MOL0     C66315   3.509  10.266   3.040 -0.0050 -0.2684  0.2957
  492MOL0     O66316   3.373  10.304   3.047 -0.4884 -0.7487 -0.6828
  492MOL0     C66317   3.300  10.338   2.934 -0.3264  0.4709 -1.6998
  492MOL0     C66318   3.357  10.418   2.834 -0.4230  0.8172 -0.9264
  492MOL0     C66319   3.290  10.459   2.724 -0.3153  0.1092  0.4890
  492MOL0     C66320   3.154  10.424   2.709  0.9794 -0.4365  0.3685
  492MOL0     O66321   3.073  10.476   2.610 -0.1319  0.3424 -0.5591
  492MOL0     C66322   3.116  10.597   2.542  0.2956 -0.4132 -0.1014
  492MOL0     C66323   2.994  10.645   2.460  0.2188  0.8926  0.9002
  492MOL0     C66324   2.877  10.707   2.531  0.1113  0.7194  0.0160
  492MOL0     C66325   2.748  10.669   2.469 -0.2911 -0.2248  0.6129
  492MOL0     C66326   2.621  10.697   2.551 -0.2356 -0.3286  0.6871
  492MOL0     C66327   2.610  10.612   2.674  0.4355  0.6515  0.4241
  492MOL0     C66328   2.496  10.661   2.766 -0.4849  0.2484 -0.4176
  492MOL0     C66329   2.356  10.659   2.711  0.2624 -0.0634  0.0587
  492MOL0    Cl66330   2.294  10.495   2.651 -0.3263  0.0273  0.2249
  492MOL0     C66331   3.094  10.345   2.820 -0.0937  0.8398  0.0093
  492MOL0     C66332   3.170  10.311   2.936  0.7873 -0.4933 -1.4113
  492MOL0     O66333   3.571  10.236   2.937 -0.2036 -0.0548 -0.0517
  492MOL0     C66334   3.742  10.253   3.164  0.3610 -0.1283  0.0841
  492MOL0     C66335   3.826  10.261   3.270  0.6573 -0.6500  0.0702
  492MOL0     N66336   4.194  10.522   3.358 -0.1111  0.2426 -0.2318
  492MOL0     N66337   4.301  10.577   3.312  0.3692 -0.3200  0.5618
  492MOL0     C66338   5.583  10.786   2.861  0.1841 -0.1133  0.5512
  492MOL0     C66339   5.719  10.805   2.873 -0.1750 -0.1547  0.1084
  492MOL0     C66340   6.156  10.731   2.974  0.4281  0.7214  0.8988
  492MOL0     C66341   6.178  10.721   3.110  0.8530 -0.5492  0.5264
  492MOL0     C66342   6.303  10.689   3.158 -0.5498  1.4741  0.5630
  492MOL0     C66343   6.411  10.661   3.078  0.4955  0.3675 -1.0634
  492MOL0     O66344   6.524  10.653   3.146 -0.4168  0.3493 -0.3191
  492MOL0     C66345   6.628  10.591   3.069  0.0177  0.4651  0.4749
  492MOL0     C66346   6.748  10.553   3.166 -0.2921 -0.6985  0.4534
  492MOL0     C66347   6.821  10.682   3.209  0.0781  0.2458  0.0109
  492MOL0     C66348   6.954  10.660   3.284 -1.2480  0.4095 -0.3888
  492MOL0     C66349   6.939  10.571   3.399 -0.0257  0.0842 -0.9969
  492MOL0     C66350   6.940  10.499   3.497  0.0569  1.0234  1.0119
  492MOL0     C66351   6.392  10.663   2.936 -0.1194 -0.4427 -0.3340
  492MOL0     C66352   6.270  10.710   2.886  1.0217  0.2122 -0.4071
  492MOL0     H66353   5.773  10.719   3.191 -3.0175  2.0585  2.2833
  492MOL0     H66354   5.528  10.672   3.186 -0.6680 -0.3347  1.1985
  492MOL0     H66355   5.347  10.576   3.092  1.2757  0.5293  0.4278
  492MOL0     H66356   5.286  10.735   3.138  1.3562  1.4913 -1.5994
  492MOL0     H66357   5.111  10.722   2.950  2.2832  0.1042 -2.1504
  492MOL0     H66358   5.169  10.565   2.915  1.8691  0.6005  0.6496
  492MOL0     H66359   5.122  10.512   3.149  0.6824  1.4202  1.0845
  492MOL0     H66360   5.054  10.670   3.189 -0.3333  2.0155 -3.2745
  492MOL0     H66361   4.879  10.650   3.012  1.7997  0.3130 -2.0664
  492MOL0     H66362   4.935  10.485   2.973 -3.5480 -2.6198  0.8695
  492MOL0     H66363   4.888  10.425   3.217  0.1061  0.4090  0.1229
  492MOL0     H66364   4.805  10.578   3.236  2.3704 -1.4521  3.3269
  492MOL0     H66365   4.669  10.512   3.017  0.5215 -1.1724 -1.7116
  492MOL0     H66366   4.748  10.363   3.033  0.8541  0.8744 -0.0449
  492MOL0     H66367   4.525  10.343   3.144  1.4763 -4.2763 -0.3225
  492MOL0     H66368   4.644  10.333   3.264 -0.7730 -1.7548 -2.2014
  492MOL0     H66369   4.532  10.594   3.181  2.3618 -1.8942 -1.0166
  492MOL0     H66370   4.599  10.565   3.345 -1.6035  1.8477  0.3516
  492MOL0     H66371   4.430  10.304   3.412 -0.1615  1.0142  1.8489
  492MOL0     H66372   4.077  10.267   3.421 -0.4760 -3.4196  2.0680
  492MOL0     H66373   4.211  10.225   3.544  0.3113 -0.9227 -0.3567
  492MOL0     H66374   4.146  10.478   3.627  0.0654 -0.2492  1.6675
  492MOL0     H66375   4.090  10.321   3.695 -0.1641 -1.2865 -1.5325
  492MOL0     H66376   3.958  10.472   3.464 -0.6120 -2.4693 -0.7247
  492MOL0     H66377   3.942  10.535   3.633  0.1868  0.3775 -0.4310
  492MOL0     H66378   3.757  10.429   3.536  1.3464  1.1145  0.7017
  492MOL0     H66379   3.807  10.342   3.692  0.9051  0.2814  1.1010
  492MOL0     H66380   3.608  10.205   3.504  1.1747  0.5950 -0.0185
  492MOL0     H66381   3.356  10.321   3.285 -1.4728 -1.2678 -1.2904
  492MOL0     H66382   3.348  10.147   3.279 -0.4961  1.9104 -3.1501
  492MOL0     H66383   3.374  10.230   3.431 -0.6114 -2.2927 -0.1271
  492MOL0     H66384   3.464  10.437   2.841 -0.1143 -1.4357  2.0410
  492MOL0     H66385   3.335  10.518   2.644 -1.2130 -0.2978 -0.3386
  492MOL0     H66386   3.151  10.674   2.612  1.9313 -0.3019 -0.9924
  492MOL0     H66387   3.196  10.570   2.472 -1.4867 -1.0723 -1.9731
  492MOL0     H66388   3.023  10.716   2.381  0.6022 -1.8110 -1.5425
  492MOL0     H66389   2.952  10.561   2.405 -1.5227  2.1238  0.2303
  492MOL0     H66390   2.889  10.815   2.547 -0.8332  1.1012 -1.5839
  492MOL0     H66391   2.873  10.662   2.630 -0.1750 -3.8091 -1.8081
  492MOL0     H66392   2.743  10.722   2.374  3.0275  1.8004  1.4159
  492MOL0     H66393   2.743  10.562   2.444 -1.5917  0.2621 -1.5219
  492MOL0     H66394   2.528  10.683   2.494  0.8419  1.0330 -1.5765
  492MOL0     H66395   2.621  10.804   2.573 -0.7539 -0.0172 -0.6920
  492MOL0     H66396   2.592  10.507   2.650  1.9931  0.3137  0.6279
  492MOL0     H66397   2.712  10.615   2.715  0.7530 -1.9006 -0.0330
  492MOL0     H66398   2.525  10.760   2.804  0.0481  0.2316 -0.7589
  492MOL0     H66399   2.493  10.597   2.854 -2.3315  1.9605  0.8536
  492MOL0     H66400   2.355  10.725   2.623  2.4053 -0.4509 -0.3132
  492MOL0     H66401   2.290  10.705   2.785 -0.4380  1.6650 -1.5538
  492MOL0     H66402   2.989  10.321   2.826  0.1611  0.0458  2.4935
  492MOL0     H66403   3.132  10.260   3.023  1.4057  2.8269  1.0056
  492MOL0     H66404   3.791  10.255   3.068  1.9572  0.9183  0.8788
  492MOL0     H66405   3.935  10.267   3.278  0.4698  1.2599  3.5742
  492MOL0     H66406   5.529  10.825   2.775  1.3722  2.1619  0.7286
  492MOL0     H66407   5.784  10.848   2.797 -0.2625 -0.9359 -0.4215
  492MOL0     H66408   6.090  10.731   3.172  0.6550  2.8366 -0.1230
  492MOL0     H66409   6.322  10.679   3.265 -1.3880  0.2305  0.6224
  492MOL0     H66410   6.587  10.495   3.035 -2.4592  1.1870  1.2680
  492MOL0     H66411   6.659  10.650   2.982 -0.7830 -0.7157 -0.6503
  492MOL0     H66412   6.818  10.484   3.118  0.0145 -0.4007  0.4702
  492MOL0     H66413   6.712  10.499   3.254 -0.8764  2.3995  2.2822
  492MOL0     H66414   6.755  10.730   3.283  0.6905  0.8047  0.2024
  492MOL0     H66415   6.825  10.750   3.123  0.5794 -0.7611 -0.7807
  492MOL0     H66416   6.990  10.757   3.318 -0.2800  0.0987 -0.4964
  492MOL0     H66417   7.023  10.618   3.210 -0.0231 -0.1946  1.0511
  492MOL0     H66418   6.924  10.443   3.587  0.4298 -0.3601  0.2588
  492MOL0     H66419   6.470  10.642   2.864 -0.9770  3.1567 -2.5580
  492MOL0     H66420   6.257  10.708   2.778 -2.5305 -1.5914 -0.1082
  493MOL0     O66421   8.209   8.051  10.107  1.0237  0.3326  0.6099
  493MOL0     C66422   8.212   8.175  10.080 -0.5908 -0.2094  0.1496
  493MOL0     O66423   8.314   8.259  10.104 -0.6302  0.1212  0.1673
  493MOL0     C66424   8.415   8.205  10.179  0.2007 -0.3797  0.6191
  493MOL0     C66425   8.514   8.127  10.118 -0.7350  0.5091  0.1851
  493MOL0     C66426   8.611   8.078  10.208  0.3474  0.1767  0.0899
  493MOL0     C66427   8.604   8.091  10.353  0.2605 -0.5871  0.7490
  493MOL0     O66428   8.701   8.045  10.435  0.1114 -0.2234  0.1914
  493MOL0     C66429   8.737   8.120  10.554 -1.4360 -0.5466  0.3055
  493MOL0     C66430   8.880   8.097  10.608 -0.2473  0.3148 -0.8424
  493MOL0     C66431   8.994   8.085  10.505 -0.2673 -0.0834  0.6326
  493MOL0     C66432   9.115   8.048  10.585 -0.3502  0.2036 -0.5925
  493MOL0     C66433   9.232   8.017  10.482 -0.2243 -0.5593 -0.2040
  493MOL0     C66434   9.368   7.995  10.545  0.2807 -0.4572  0.3171
  493MOL0     C66435   9.479   8.005  10.440 -0.6395 -0.4417 -0.0559
  493MOL0     C66436   9.610   7.938  10.492 -0.8408  0.2575  0.0769
  493MOL0     N66437   9.713   7.959  10.391  0.3841  0.4139  0.8860
  493MOL0     C66438   9.834   8.010  10.418  0.3522  0.3574  0.4515
  493MOL0     C66439   9.891   8.023  10.289 -0.2851  0.9097  0.6206
  493MOL0     C66440  10.029   8.071  10.276  0.0554  0.5222  0.2874
  493MOL0     C66441  10.022   8.219  10.230  0.5142  0.5534 -0.0762
  493MOL0     C66442   9.995   8.218  10.076 -0.1330  0.1226 -0.3472
  493MOL0     C66443  10.011   8.367  10.032  0.0973 -0.3979 -0.2223
  493MOL0     O66444   9.967   8.367   9.891  0.8806 -0.2380 -0.1194
  493MOL0     C66445   9.826   8.390   9.867 -0.0796 -0.4177 -0.0512
  493MOL0     C66446   9.779   8.371   9.743  0.2771  0.4928  0.0561
  493MOL0     C66447   9.647   8.410   9.707  0.3452  0.1044 -0.0629
  493MOL0     C66448   9.616   8.397   9.561 -0.3014 -0.9628 -0.1514
  493MOL0     C66449   9.562   8.476   9.797 -0.1100 -0.5529 -0.4218
  493MOL0     C66450   9.425   8.527   9.759 -0.6039  0.5764 -0.2882
  493MOL0     O66451   9.368   8.479   9.641  0.3981 -0.0928 -0.3037
  493MOL0     C66452   9.235   8.488   9.607 -0.4678  0.7678 -0.1952
  493MOL0     C66453   9.201   8.443   9.485 -0.5769 -0.2034  0.2019
  493MOL0     C66454   9.070   8.446   9.430  0.0281 -0.0509 -0.3318
  493MOL0     C66455   8.962   8.480   9.515 -0.2001  0.2864  0.4742
  493MOL0     O66456   8.832   8.478   9.463 -0.1584  0.0618 -0.0904
  493MOL0     C66457   8.725   8.439   9.550  0.2257  0.1003  0.2796
  493MOL0     C66458   8.708   8.289   9.539 -0.3381  0.9724 -0.7478
  493MOL0     C66459   8.640   8.243   9.411  0.4777  0.4475 -0.0205
  493MOL0     C66460   8.641   8.092   9.401 -0.2719  0.2784 -0.4033
  493MOL0     C66461   8.533   8.049   9.303 -0.8230 -0.4292  0.2996
  493MOL0     C66462   8.573   8.071   9.159  0.0179  0.1421  0.0536
  493MOL0     C66463   8.475   8.005   9.057 -0.7145  0.4207 -0.7100
  493MOL0     C66464   8.544   7.896   8.968 -0.2927 -0.6988 -0.0258
  493MOL0    Cl66465   8.411   7.806   8.889 -0.1676  0.0573  0.0879
  493MOL0     C66466   9.001   8.536   9.642  0.4558 -1.1415  0.3975
  493MOL0     C66467   9.126   8.533   9.689 -0.4764 -0.1250  0.0285
  493MOL0     O66468   9.367   8.607   9.839  0.6456  0.1350  0.2770
  493MOL0     C66469   9.607   8.489   9.927  0.5483  0.2014  0.7765
  493MOL0     C66470   9.738   8.436   9.963  0.4830 -0.9399 -0.0457
  493MOL0     N66471   9.800   7.970  10.195 -0.4610  0.4677  0.1723
  493MOL0     N66472   9.706   7.921  10.263 -0.1974  0.6189 -1.1601
  493MOL0     C66473   8.489   8.156  10.398  0.0515 -0.3430 -1.3515
  493MOL0     C66474   8.391   8.203  10.317  0.1258 -0.4892  0.2414
  493MOL0     C66475   8.095   8.236  10.023  0.1593 -0.1728  0.2256
  493MOL0     C66476   7.968   8.162  10.029 -0.0840  0.8111 -0.0123
  493MOL0     C66477   7.854   8.216   9.968  0.8873  0.0972 -1.3816
  493MOL0     C66478   7.855   8.341   9.904 -0.9166  0.4031 -0.1554
  493MOL0     O66479   7.737   8.389   9.854  0.5368  0.1010  0.6299
  493MOL0     C66480   7.745   8.456   9.720 -0.2816 -0.2019  0.1508
  493MOL0     C66481   7.800   8.370   9.604  0.0460 -0.3051 -0.6166
  493MOL0     C66482   7.747   8.414   9.468 -0.5182 -0.1201 -0.0795
  493MOL0     C66483   7.782   8.323   9.355 -0.6157  0.6102  0.7998
  493MOL0     C66484   7.680   8.340   9.250 -0.2359 -0.2253 -0.0599
  493MOL0     C66485   7.596   8.331   9.159 -1.1305  0.1236  0.1604
  493MOL0     C66486   7.979   8.408   9.892 -0.0856  0.7501  0.8153
  493MOL0     C66487   8.096   8.364   9.947  0.0315  0.7462  0.0547
  493MOL0     H66488   8.522   8.108  10.012  0.8680  1.2296  0.1493
  493MOL0     H66489   8.705   8.028  10.184  0.3985  0.5093 -0.4221
  493MOL0     H66490   8.729   8.224  10.522 -2.0798 -0.5550  0.4304
  493MOL0     H66491   8.670   8.096  10.637  0.2961  1.1748  2.3285
  493MOL0     H66492   8.903   8.188  10.665  1.1091  0.2986 -1.3161
  493MOL0     H66493   8.880   8.010  10.673 -0.6998 -0.8951 -2.3920
  493MOL0     H66494   8.972   8.005  10.434  1.6952  0.9499 -1.2508
  493MOL0     H66495   9.002   8.181  10.454 -0.5744  1.1498  2.7870
  493MOL0     H66496   9.147   8.135  10.643  0.1330 -1.2500  1.4161
  493MOL0     H66497   9.095   7.971  10.659  0.5231  0.2670 -0.2898
  493MOL0     H66498   9.207   7.927  10.424 -0.6824 -0.0320 -0.8342
  493MOL0     H66499   9.231   8.096  10.406 -3.7886  0.7763  1.0459
  493MOL0     H66500   9.391   8.073  10.619 -0.2260 -2.0274  2.2094
  493MOL0     H66501   9.382   7.896  10.591  0.7044 -0.0969  0.9839
  493MOL0     H66502   9.446   7.967  10.343 -0.2499  0.8857 -0.7293
  493MOL0     H66503   9.496   8.110  10.417 -1.6006 -0.5470 -1.3714
  493MOL0     H66504   9.594   7.830  10.499 -0.8637  0.3392  1.6387
  493MOL0     H66505   9.631   7.983  10.589  2.8795 -0.2677 -0.3690
  493MOL0     H66506   9.887   8.048  10.505 -0.7119  0.8771  0.8942
  493MOL0     H66507  10.073   8.082  10.376 -0.8033  0.2154  0.7147
  493MOL0     H66508  10.089   8.010  10.208 -0.0917  0.8539 -0.1445
  493MOL0     H66509  10.121   8.262  10.249  1.8061 -2.0504 -0.3945
  493MOL0     H66510   9.951   8.273  10.293  1.1569  0.8058  0.4427
  493MOL0     H66511   9.891   8.187  10.067 -0.7403 -1.1024  6.0627
  493MOL0     H66512  10.059   8.149  10.021 -1.3519  0.2105 -1.9431
  493MOL0     H66513  10.120   8.380  10.034 -0.0302  0.6575  0.0205
  493MOL0     H66514   9.976   8.443  10.102  0.4215 -1.0877  0.7093
  493MOL0     H66515   9.852   8.345   9.667 -0.5384  2.1921 -1.3745
  493MOL0     H66516   9.521   8.345   9.546  0.3070 -1.6268 -1.8537
  493MOL0     H66517   9.610   8.499   9.522  0.5726  0.0180  2.1107
  493MOL0     H66518   9.695   8.346   9.505  1.8659  1.8379  0.1068
  493MOL0     H66519   9.280   8.405   9.420  0.3719  0.1886  1.1074
  493MOL0     H66520   9.050   8.412   9.329  3.5880 -0.8125 -0.9265
  493MOL0     H66521   8.739   8.483   9.649  0.6057  5.2339 -1.7767
  493MOL0     H66522   8.636   8.476   9.498 -0.4021 -3.1506 -1.2832
  493MOL0     H66523   8.802   8.236   9.555  0.6191  1.9579 -2.6916
  493MOL0     H66524   8.659   8.268   9.634  2.0363 -0.1780  0.3013
  493MOL0     H66525   8.703   8.280   9.330  0.8800  1.6404  0.8002
  493MOL0     H66526   8.542   8.292   9.419  0.4160 -0.0058  3.2377
  493MOL0     H66527   8.743   8.054   9.390  0.6200  2.9377 -2.1774
  493MOL0     H66528   8.610   8.054   9.499 -0.2891 -0.8800 -0.8331
  493MOL0     H66529   8.435   8.098   9.311 -0.5660 -0.0116  0.9994
  493MOL0     H66530   8.514   7.944   9.327 -1.0243 -0.8022 -1.3940
  493MOL0     H66531   8.581   8.178   9.141 -3.0877  0.1067 -2.4458
  493MOL0     H66532   8.670   8.020   9.148 -0.9599 -1.8106  0.0249
  493MOL0     H66533   8.439   8.088   8.994  1.2587  2.6508  0.9004
  493MOL0     H66534   8.397   7.947   9.108 -1.7188  1.8899 -0.4962
  493MOL0     H66535   8.611   7.831   9.026  1.4542  0.9123 -0.1649
  493MOL0     H66536   8.608   7.941   8.892 -2.0487 -2.1797 -2.5435
  493MOL0     H66537   8.933   8.578   9.716  0.1513 -0.9017 -0.0088
  493MOL0     H66538   9.139   8.561   9.792 -0.1140  1.2301 -0.3777
  493MOL0     H66539   9.542   8.543   9.995 -0.2776 -1.9312  1.7764
  493MOL0     H66540   9.761   8.450  10.068  0.2702  0.2265 -0.1359
  493MOL0     H66541   8.473   8.158  10.505  2.2011 -0.5475 -0.9932
  493MOL0     H66542   8.312   8.262  10.362  1.0123 -0.3042  1.5899
  493MOL0     H66543   7.947   8.067  10.078 -2.5802  1.3550  0.0987
  493MOL0     H66544   7.760   8.164   9.984  1.3686  0.3215  5.6943
  493MOL0     H66545   7.641   8.483   9.699 -0.1704 -0.5679 -0.9314
  493MOL0     H66546   7.793   8.553   9.733  2.2409 -1.7051  3.3368
  493MOL0     H66547   7.767   8.267   9.624 -0.3872 -0.0111  0.2507
  493MOL0     H66548   7.909   8.362   9.606  0.0634 -0.6997 -1.9675
  493MOL0     H66549   7.789   8.514   9.449 -0.7115  0.5498  2.6881
  493MOL0     H66550   7.641   8.438   9.477 -0.1289  2.5598 -1.6287
  493MOL0     H66551   7.784   8.217   9.381  2.9490 -0.4657 -2.7531
  493MOL0     H66552   7.887   8.346   9.334  0.1670 -1.2008  2.3425
  493MOL0     H66553   7.516   8.301   9.095 -0.4832  2.3116 -1.8277
  493MOL0     H66554   7.971   8.499   9.834 -1.2407 -0.4108 -0.9700
  493MOL0     H66555   8.190   8.409   9.919 -0.2843  0.3922 -1.7060
  494MOL0     O66556   1.802   0.452   6.091 -0.4934  0.2585 -0.1742
  494MOL0     C66557   1.846   0.343   6.065 -0.6993  0.3042 -0.1210
  494MOL0     O66558   1.970   0.318   6.011 -0.3363  0.1375  0.6154
  494MOL0     C66559   2.044   0.405   5.936  0.2236  0.7561  0.1782
  494MOL0     C66560   1.994   0.517   5.872  0.2927 -0.4629  0.2661
  494MOL0     C66561   2.080   0.597   5.796  0.1185 -0.4125  0.3166
  494MOL0     C66562   2.215   0.570   5.784 -0.6434  1.1798 -0.6579
  494MOL0     O66563   2.307   0.640   5.710  0.4980  0.2189 -0.0655
  494MOL0     C66564   2.264   0.762   5.641 -0.4701  1.2943  0.1690
  494MOL0     C66565   2.387   0.827   5.582  0.6269 -0.2581 -0.2658
  494MOL0     C66566   2.348   0.966   5.538 -0.4779 -0.4364  0.3407
  494MOL0     C66567   2.277   0.964   5.400  0.8794 -1.2579  0.8541
  494MOL0     C66568   2.225   1.107   5.369 -0.5418 -0.1804  0.0394
  494MOL0     C66569   2.099   1.151   5.446  0.8539 -1.1868 -0.1149
  494MOL0     C66570   2.061   1.303   5.420  0.3094 -0.1427 -0.5742
  494MOL0     C66571   1.942   1.335   5.521  0.4650  0.0418 -0.0367
  494MOL0     N66572   1.879   1.470   5.496 -1.2172  0.4921 -0.5152
  494MOL0     C66573   1.950   1.590   5.496 -0.1234 -0.5451 -1.0394
  494MOL0     C66574   1.855   1.678   5.462 -0.1795  0.0256 -0.4034
  494MOL0     C66575   1.874   1.824   5.428  0.7576 -0.2735 -0.3210
  494MOL0     C66576   1.877   1.899   5.562  0.2882  0.1638  0.4288
  494MOL0     C66577   1.741   1.906   5.635  0.0086 -0.2730 -0.3732
  494MOL0     C66578   1.636   1.996   5.555  0.0199 -0.1062  0.0275
  494MOL0     O66579   1.504   1.974   5.597 -0.2841  0.9852 -0.5192
  494MOL0     C66580   1.396   2.051   5.559  0.7264 -0.8493  0.2033
  494MOL0     C66581   1.267   2.007   5.602  0.2706  0.7280  0.2384
  494MOL0     C66582   1.146   2.069   5.573  0.2164  0.4908  0.0009
  494MOL0     C66583   1.012   1.999   5.619  0.0524  0.7153  0.1719
  494MOL0     C66584   1.158   2.197   5.520 -0.1790 -1.0680  0.0501
  494MOL0     C66585   1.039   2.289   5.509 -0.5953  0.2750  0.3002
  494MOL0     O66586   0.922   2.252   5.574 -0.5532 -0.0551 -0.2956
  494MOL0     C66587   0.813   2.348   5.583 -0.2090  0.2514  0.6602
  494MOL0     C66588   0.680   2.298   5.572 -0.3348  0.3698 -0.1927
  494MOL0     C66589   0.572   2.392   5.580 -0.0959 -1.0054  0.1352
  494MOL0     C66590   0.588   2.528   5.623 -0.7823  1.1343  0.3030
  494MOL0     O66591   0.486   2.618   5.640 -0.7352  0.0954 -0.4428
  494MOL0     C66592   0.355   2.572   5.689 -0.2134 -0.9213  0.2131
  494MOL0     C66593   0.252   2.676   5.662  0.2124 -0.3435 -0.1830
  494MOL0     C66594   0.108   2.627   5.698  0.0432 -0.1940  1.0606
  494MOL0     C66595   0.003   2.682   5.594  0.8153  0.2555  0.7027
  494MOL0     C66596  -0.146   2.647   5.623  0.5682  0.9119 -0.3969
  494MOL0     C66597  -0.238   2.677   5.508 -0.7986 -0.0170 -0.0049
  494MOL0     C66598  -0.377   2.647   5.555 -0.5261 -0.2814  0.0870
  494MOL0     C66599  -0.477   2.647   5.440 -0.3740 -0.8769 -0.5705
  494MOL0    Cl66600  -0.438   2.518   5.330 -0.1048 -0.1639  0.2353
  494MOL0     C66601   0.726   2.577   5.632  0.4818  0.3061 -0.4300
  494MOL0     C66602   0.831   2.484   5.614 -0.5812 -0.4298 -0.9958
  494MOL0     O66603   1.050   2.387   5.438  0.2780  0.4290 -0.7554
  494MOL0     C66604   1.279   2.246   5.474  0.1719 -0.0203  0.1230
  494MOL0     C66605   1.399   2.179   5.502 -0.4614 -0.2914 -0.2538
  494MOL0     N66606   1.730   1.618   5.450  0.5506 -0.0944  0.7833
  494MOL0     N66607   1.751   1.496   5.468 -0.2430  0.7099  0.4277
  494MOL0     C66608   2.260   0.450   5.841  0.9277 -0.1831  0.2121
  494MOL0     C66609   2.176   0.370   5.926 -0.0852  0.2889  0.5124
  494MOL0     C66610   1.771   0.221   6.115  0.2263  0.1331 -0.2651
  494MOL0     C66611   1.828   0.098   6.133  0.4366  0.3784 -0.1437
  494MOL0     C66612   1.753  -0.015   6.178 -0.2381  0.3716 -0.3148
  494MOL0     C66613   1.614  -0.006   6.212  0.5421  0.3841  0.4617
  494MOL0     O66614   1.531  -0.105   6.257 -0.3771  0.4963  0.2088
  494MOL0     C66615   1.580  -0.241   6.267  0.3199  0.0604  0.2885
  494MOL0     C66616   1.474  -0.327   6.332  0.1658 -0.1465 -0.5523
  494MOL0     C66617   1.457  -0.292   6.480 -0.1897  0.9320 -0.9518
  494MOL0     C66618   1.367  -0.385   6.549 -0.4544  0.1440  0.0267
  494MOL0     C66619   1.360  -0.369   6.695 -0.6578 -0.9619 -0.1227
  494MOL0     C66620   1.359  -0.377   6.812 -0.2616 -0.3343  0.7167
  494MOL0     C66621   1.556   0.116   6.193  0.4964  0.7494 -0.3697
  494MOL0     C66622   1.633   0.228   6.151  0.3656  0.1970 -0.6306
  494MOL0     H66623   1.887   0.532   5.878  0.5865  1.2540  2.6251
  494MOL0     H66624   2.044   0.682   5.739  1.6810  0.4518  0.5593
  494MOL0     H66625   2.201   0.743   5.554 -3.4121  1.0786  2.1668
  494MOL0     H66626   2.201   0.819   5.711 -2.9657 -0.7310 -0.2867
  494MOL0     H66627   2.458   0.838   5.665  0.8659 -1.9935 -0.2096
  494MOL0     H66628   2.428   0.776   5.494  2.1260  2.1217 -1.0568
  494MOL0     H66629   2.285   1.020   5.610 -1.4768 -0.7616 -0.2764
  494MOL0     H66630   2.434   1.033   5.527 -1.7414  1.3211  0.6862
  494MOL0     H66631   2.346   0.931   5.323  1.0039 -2.4820  1.4735
  494MOL0     H66632   2.189   0.899   5.401 -1.5652  1.5167  5.9597
  494MOL0     H66633   2.304   1.178   5.391 -1.6186  1.0757 -0.0208
  494MOL0     H66634   2.198   1.103   5.263 -0.4087  0.1517 -0.0067
  494MOL0     H66635   2.018   1.081   5.425 -0.0287 -0.6559  1.4189
  494MOL0     H66636   2.115   1.144   5.554  3.5349  0.6518 -0.2999
  494MOL0     H66637   2.149   1.364   5.445  1.4655 -2.5843  1.7876
  494MOL0     H66638   2.026   1.309   5.317 -0.1560 -1.9951 -0.5606
  494MOL0     H66639   1.987   1.327   5.621  0.2770 -1.4035 -0.0524
  494MOL0     H66640   1.871   1.252   5.518 -1.7798  1.8595  0.3062
  494MOL0     H66641   2.051   1.603   5.531  0.5349 -2.4516 -2.0690
  494MOL0     H66642   1.967   1.817   5.371 -0.7343 -1.6965 -2.7412
  494MOL0     H66643   1.796   1.859   5.360  1.0136 -0.7319 -0.8531
  494MOL0     H66644   1.921   1.998   5.548  0.5855  0.1651  1.2924
  494MOL0     H66645   1.943   1.839   5.626 -1.1280 -0.8265  1.0191
  494MOL0     H66646   1.759   1.948   5.734 -0.9527  1.6851 -0.9803
  494MOL0     H66647   1.696   1.806   5.637 -2.5993  0.8241  1.8127
  494MOL0     H66648   1.642   1.980   5.447 -0.4573 -0.6145  0.0722
  494MOL0     H66649   1.675   2.095   5.580 -2.6957  0.2973  3.3149
  494MOL0     H66650   1.265   1.910   5.651  3.5748 -0.6769 -2.0515
  494MOL0     H66651   0.932   2.013   5.545  0.2678 -0.0491 -0.2274
  494MOL0     H66652   1.020   1.890   5.624 -0.9772  0.6856  1.4874
  494MOL0     H66653   0.976   2.035   5.715  0.1902 -4.3572  2.4434
  494MOL0     H66654   0.667   2.192   5.554  0.8586  0.3176 -0.8896
  494MOL0     H66655   0.471   2.357   5.562 -0.0103 -0.2711 -2.1286
  494MOL0     H66656   0.323   2.482   5.636  0.9501 -0.0885 -2.0393
  494MOL0     H66657   0.362   2.551   5.796 -1.7613 -0.6413  0.3856
  494MOL0     H66658   0.277   2.762   5.725  2.6004  0.1844 -1.7297
  494MOL0     H66659   0.253   2.706   5.556 -1.9585  1.3842  0.2225
  494MOL0     H66660   0.085   2.659   5.800 -0.3826  4.9962 -0.4119
  494MOL0     H66661   0.103   2.518   5.685  1.8127 -0.0759 -1.3119
  494MOL0     H66662   0.007   2.791   5.582  2.6452 -0.0944 -4.2860
  494MOL0     H66663   0.021   2.651   5.491 -0.3779  1.4333  0.1121
  494MOL0     H66664  -0.184   2.704   5.708  0.0891  2.0966 -1.3630
  494MOL0     H66665  -0.145   2.539   5.637 -1.1959  1.0350  1.0604
  494MOL0     H66666  -0.227   2.780   5.471 -1.3645 -0.6723 -2.0951
  494MOL0     H66667  -0.213   2.614   5.422  1.6449  0.0440  0.5710
  494MOL0     H66668  -0.404   2.728   5.623 -1.4158 -0.2149 -0.3303
  494MOL0     H66669  -0.379   2.551   5.608 -1.0503 -1.3883 -1.8138
  494MOL0     H66670  -0.481   2.746   5.393 -1.4067 -1.6284 -2.1755
  494MOL0     H66671  -0.582   2.635   5.467 -1.1640 -3.6116 -4.0796
  494MOL0     H66672   0.744   2.681   5.658  1.4071  0.4185 -1.4617
  494MOL0     H66673   0.934   2.516   5.627 -1.8155  2.9202  2.6235
  494MOL0     H66674   1.301   2.339   5.423  3.3642 -0.8235 -0.1939
  494MOL0     H66675   1.497   2.217   5.473 -0.8180  0.3837 -0.6020
  494MOL0     H66676   2.364   0.423   5.823  0.0088 -2.7649 -1.9822
  494MOL0     H66677   2.212   0.275   5.965  1.9161 -0.1892 -2.1602
  494MOL0     H66678   1.936   0.095   6.121  0.5410  1.6173  0.3330
  494MOL0     H66679   1.810  -0.107   6.185  1.4129  1.4715  2.2835
  494MOL0     H66680   1.595  -0.281   6.167 -2.2639 -3.0782  1.0056
  494MOL0     H66681   1.675  -0.252   6.321 -0.8719 -1.1415  2.2503
  494MOL0     H66682   1.497  -0.434   6.333  0.2748 -0.2188  3.0163
  494MOL0     H66683   1.375  -0.308   6.288 -2.0913 -0.7128  3.6731
  494MOL0     H66684   1.411  -0.193   6.494 -1.4201  1.0132 -4.4190
  494MOL0     H66685   1.557  -0.290   6.524  0.7486  0.0111 -2.9103
  494MOL0     H66686   1.411  -0.485   6.544  3.1610  1.4505  1.7282
  494MOL0     H66687   1.269  -0.388   6.503 -0.4906 -1.2598  0.1488
  494MOL0     H66688   1.383  -0.372   6.917 -1.0734  2.0049  0.8346
  494MOL0     H66689   1.452   0.129   6.220  0.6048  0.0208  0.4451
  494MOL0     H66690   1.591   0.324   6.124  3.7349  1.4819 -1.9725
  495MOL0     O66691  10.806   3.170   3.962  0.2341 -0.1852  0.6062
  495MOL0     C66692  10.923   3.193   3.919  0.1107  0.4844  0.3121
  495MOL0     O66693  10.954   3.265   3.811  0.3267  0.0974 -0.2975
  495MOL0     C66694  10.854   3.340   3.762 -0.2784 -1.2853 -0.6960
  495MOL0     C66695  10.818   3.467   3.804 -0.3853 -1.0280 -0.1298
  495MOL0     C66696  10.703   3.538   3.745  0.3186  0.4104 -0.1161
  495MOL0     C66697  10.632   3.473   3.646  0.0509 -0.4258  0.6037
  495MOL0     O66698  10.512   3.512   3.583  0.0259  0.1966  0.2692
  495MOL0     C66699  10.477   3.650   3.590 -0.4375 -0.0101  0.2188
  495MOL0     C66700  10.348   3.662   3.508 -0.0189  0.2326 -0.3496
  495MOL0     C66701  10.226   3.607   3.584  0.5400  0.4219 -0.3185
  495MOL0     C66702  10.179   3.693   3.698  0.0608  0.3902 -0.2936
  495MOL0     C66703  10.071   3.643   3.784 -0.8567 -0.3528 -0.1220
  495MOL0     C66704   9.938   3.627   3.700 -0.0767 -0.0964 -0.6954
  495MOL0     C66705   9.844   3.542   3.781  0.4735  0.1242  0.2724
  495MOL0     C66706   9.774   3.626   3.885 -0.4265  0.4950 -0.4292
  495MOL0     N66707   9.655   3.686   3.825 -0.3368 -0.0871 -0.3351
  495MOL0     C66708   9.526   3.647   3.840  0.0795  0.2783  0.7675
  495MOL0     C66709   9.450   3.754   3.796 -0.1165  0.5516  0.0372
  495MOL0     C66710   9.301   3.758   3.814  0.0199  0.4642 -0.5616
  495MOL0     C66711   9.232   3.757   3.685 -0.1942 -0.1434 -0.2696
  495MOL0     C66712   9.086   3.808   3.683 -0.5201  0.6771 -0.4768
  495MOL0     C66713   8.999   3.733   3.786  0.1331  0.3830 -0.4799
  495MOL0     O66714   9.019   3.590   3.784  0.0645  0.3877  0.5532
  495MOL0     C66715   8.925   3.505   3.848 -0.5571 -0.5571 -0.8418
  495MOL0     C66716   8.815   3.543   3.935 -0.4117 -1.1887  0.0844
  495MOL0     C66717   8.729   3.456   3.999  0.0276  0.3334  0.4733
  495MOL0     C66718   8.624   3.528   4.081  0.3542  0.4119  0.4673
  495MOL0     C66719   8.740   3.316   3.970  0.3573  0.7368 -0.0208
  495MOL0     C66720   8.655   3.207   4.041  0.4623 -0.0106  0.2662
  495MOL0     O66721   8.682   3.086   3.994 -0.4090  0.0054  0.1335
  495MOL0     C66722   8.589   2.980   4.019 -0.9330  0.2845  0.1488
  495MOL0     C66723   8.563   2.921   4.148 -0.0560  0.2691 -0.9325
  495MOL0     C66724   8.474   2.820   4.168 -0.0984  0.5750  0.4384
  495MOL0     C66725   8.387   2.784   4.064 -0.8034 -0.6946  0.2444
  495MOL0     O66726   8.302   2.685   4.087 -0.0257  0.1754 -0.2481
  495MOL0     C66727   8.179   2.665   4.008  0.2292 -0.0160 -0.0418
  495MOL0     C66728   8.166   2.514   3.988 -0.5556  0.2503 -0.4143
  495MOL0     C66729   8.249   2.448   3.864  0.3477 -0.7415 -0.8770
  495MOL0     C66730   8.176   2.320   3.831 -0.3597 -0.1976  0.4675
  495MOL0     C66731   8.196   2.279   3.681  0.4326  0.4204  0.1446
  495MOL0     C66732   8.338   2.270   3.643  0.0402  0.0061  0.5095
  495MOL0     C66733   8.347   2.259   3.488 -0.7878 -0.2156 -0.3267
  495MOL0     C66734   8.319   2.127   3.421 -0.1063  0.9471 -0.0546
  495MOL0    Cl66735   8.461   2.023   3.436  0.2236  0.3359  0.2879
  495MOL0     C66736   8.402   2.844   3.936  0.7469  0.6590 -0.2208
  495MOL0     C66737   8.509   2.933   3.915  0.0049  0.4138 -0.4182
  495MOL0     O66738   8.570   3.235   4.121  0.3319  0.1631 -0.3012
  495MOL0     C66739   8.836   3.279   3.876 -0.6374 -0.0657  0.4036
  495MOL0     C66740   8.934   3.364   3.823  0.0927 -0.0173  0.8065
  495MOL0     N66741   9.533   3.858   3.756  0.4239 -0.8565  0.4863
  495MOL0     N66742   9.659   3.809   3.776 -0.2494  0.2876 -0.1265
  495MOL0     C66743  10.681   3.355   3.595 -0.0682 -0.1366  0.2308
  495MOL0     C66744  10.789   3.286   3.653  0.5567 -0.1825  0.5773
  495MOL0     C66745  11.042   3.137   3.992  0.6270 -0.2754 -0.5220
  495MOL0     C66746  11.035   3.100   4.124 -0.7405  0.3531  0.3110
  495MOL0     C66747  11.148   3.040   4.187 -0.3052  0.0813  0.1805
  495MOL0     C66748  11.262   3.003   4.104 -0.5688  0.1352 -0.6159
  495MOL0     O66749  11.369   2.931   4.134  0.3530  0.3573 -0.5764
  495MOL0     C66750  11.387   2.925   4.276 -0.2256  0.3744  0.2872
  495MOL0     C66751  11.507   2.845   4.304 -0.7230  0.2458 -0.4590
  495MOL0     C66752  11.515   2.780   4.440 -0.1766 -0.0229 -0.3985
  495MOL0     C66753  11.633   2.671   4.447 -0.0661  0.1764  0.0950
  495MOL0     C66754  11.754   2.728   4.493 -0.9133  0.3084  0.3554
  495MOL0     C66755  11.867   2.770   4.514  0.2947 -0.6304  0.5081
  495MOL0     C66756  11.264   3.054   3.974  0.1703  0.2411  0.2469
  495MOL0     C66757  11.166   3.124   3.922  0.4947 -0.5655 -0.6743
  495MOL0     H66758  10.873   3.515   3.884  0.7277  0.5555 -1.7549
  495MOL0     H66759  10.669   3.631   3.790 -0.8932 -0.3165  0.5035
  495MOL0     H66760  10.456   3.673   3.695 -3.8922 -3.2581  0.4351
  495MOL0     H66761  10.555   3.712   3.544 -0.1662 -1.9550 -2.1135
  495MOL0     H66762  10.321   3.767   3.492 -2.0061 -0.4198 -1.8850
  495MOL0     H66763  10.348   3.612   3.410 -1.0250  1.9514 -1.2839
  495MOL0     H66764  10.144   3.593   3.512 -0.9099 -0.3828  1.3911
  495MOL0     H66765  10.243   3.508   3.628 -1.9827 -0.8329 -1.8644
  495MOL0     H66766  10.265   3.718   3.761 -1.5194  2.2604  1.2403
  495MOL0     H66767  10.156   3.789   3.653 -0.1400  0.7736  0.5997
  495MOL0     H66768  10.086   3.545   3.830  0.5751 -0.2746 -0.3699
  495MOL0     H66769  10.056   3.723   3.858 -3.0694  0.8698 -1.7461
  495MOL0     H66770   9.896   3.724   3.674 -0.3151  0.5163  1.7835
  495MOL0     H66771   9.952   3.563   3.613 -2.7033 -1.6923 -0.0582
  495MOL0     H66772   9.778   3.492   3.710 -0.4931  1.3876  0.2574
  495MOL0     H66773   9.899   3.465   3.837 -0.7345  0.8795  2.6167
  495MOL0     H66774   9.832   3.710   3.926 -0.4532  0.4923 -0.3856
  495MOL0     H66775   9.746   3.559   3.966  1.1446  1.4832  0.9944
  495MOL0     H66776   9.487   3.557   3.888 -2.3684  0.8699  0.0432
  495MOL0     H66777   9.274   3.675   3.879 -1.8728  1.5523  0.0960
  495MOL0     H66778   9.285   3.852   3.867  0.4358 -0.5692  1.5009
  495MOL0     H66779   9.244   3.661   3.633  3.5116  0.2960 -0.4587
  495MOL0     H66780   9.283   3.826   3.618 -1.5015  1.2105  0.0856
  495MOL0     H66781   9.041   3.799   3.583 -1.5866 -0.3471  0.0792
  495MOL0     H66782   9.087   3.914   3.711  0.5824  1.0304 -1.6989
  495MOL0     H66783   8.896   3.766   3.773 -0.2686 -0.2575  0.8940
  495MOL0     H66784   9.012   3.766   3.889 -5.4192  0.7087  0.4020
  495MOL0     H66785   8.808   3.649   3.957 -1.3812 -1.5082  1.4025
  495MOL0     H66786   8.608   3.480   4.178  0.5158  3.4970  2.1767
  495MOL0     H66787   8.662   3.628   4.102 -2.7441  1.3150  2.5702
  495MOL0     H66788   8.536   3.534   4.015  1.1552 -0.8567 -0.7583
  495MOL0     H66789   8.618   2.962   4.233 -0.5719 -1.2374  0.1755
  495MOL0     H66790   8.459   2.771   4.264  0.5022  0.2534  0.3684
  495MOL0     H66791   8.094   2.708   4.062  0.5776  1.1008 -0.3427
  495MOL0     H66792   8.183   2.714   3.910  0.8659 -2.3316 -1.2427
  495MOL0     H66793   8.189   2.460   4.081 -0.6428 -0.6488 -0.9039
  495MOL0     H66794   8.060   2.487   3.979  0.0401 -1.7322 -2.4598
  495MOL0     H66795   8.354   2.443   3.894 -0.0989  2.0481  1.6719
  495MOL0     H66796   8.253   2.517   3.779  0.1337  3.2257  2.0667
  495MOL0     H66797   8.219   2.237   3.887 -0.1372 -0.6047 -0.2856
  495MOL0     H66798   8.069   2.314   3.851 -0.2781 -0.8900  0.7005
  495MOL0     H66799   8.139   2.346   3.616  0.6424 -0.7156 -1.2833
  495MOL0     H66800   8.153   2.178   3.678  0.0392  0.5795  0.3277
  495MOL0     H66801   8.405   2.351   3.675  1.0108 -0.2224 -0.8617
  495MOL0     H66802   8.377   2.179   3.691  2.0821  0.4871 -0.1153
  495MOL0     H66803   8.447   2.296   3.462 -1.0186  0.2316 -0.5861
  495MOL0     H66804   8.280   2.332   3.443  2.3226  1.6590 -2.2405
  495MOL0     H66805   8.294   2.142   3.316 -1.0149  2.6325  0.3610
  495MOL0     H66806   8.225   2.076   3.445 -1.6170  2.5015 -2.3398
  495MOL0     H66807   8.347   2.833   3.843 -0.9755 -0.1503  0.8356
  495MOL0     H66808   8.516   2.970   3.813  0.2751 -0.5302 -0.7565
  495MOL0     H66809   8.849   3.176   3.844 -1.2375  0.0269 -0.1510
  495MOL0     H66810   9.012   3.330   3.756  0.1235 -2.2208  1.8657
  495MOL0     H66811  10.637   3.302   3.511  2.0239  1.3623 -1.9435
  495MOL0     H66812  10.826   3.194   3.609  2.3787  1.2033 -0.9625
  495MOL0     H66813  10.945   3.118   4.182 -0.8693 -0.1467  0.2690
  495MOL0     H66814  11.133   3.006   4.289  1.1699  0.7994  0.6614
  495MOL0     H66815  11.390   3.026   4.318 -1.2276  0.4385  0.2227
  495MOL0     H66816  11.300   2.878   4.323 -4.1234  1.5317 -4.8741
  495MOL0     H66817  11.595   2.903   4.273 -0.6828  1.5365  1.8398
  495MOL0     H66818  11.497   2.754   4.245  1.3594 -1.1764  1.2155
  495MOL0     H66819  11.419   2.731   4.461 -0.0686  0.0909  0.4080
  495MOL0     H66820  11.516   2.855   4.519 -0.7254  0.9107 -1.2507
  495MOL0     H66821  11.652   2.627   4.349 -1.1273 -0.4455  0.1500
  495MOL0     H66822  11.603   2.597   4.522  0.4386 -2.1134 -1.8179
  495MOL0     H66823  11.968   2.804   4.527  1.5541 -2.7325 -2.5434
  495MOL0     H66824  11.350   3.039   3.910 -0.3464  2.0576 -0.9385
  495MOL0     H66825  11.172   3.153   3.817  0.6339  0.6526 -0.3429
  496MOL0     O66826   3.132   3.496  10.950 -0.4547 -0.5894  0.1477
  496MOL0     C66827   3.197   3.599  10.913  0.2945  0.8183 -0.0097
  496MOL0     O66828   3.159   3.691  10.820  0.3139  0.1555 -0.3319
  496MOL0     C66829   3.034   3.692  10.757  0.6784  0.6989 -0.2842
  496MOL0     C66830   3.036   3.708  10.624 -0.4009  0.4747  0.8075
  496MOL0     C66831   2.916   3.708  10.552 -0.4271  0.1387 -0.6993
  496MOL0     C66832   2.791   3.676  10.610  0.6331 -0.4221 -0.8185
  496MOL0     O66833   2.668   3.673  10.550 -0.1052 -0.6731 -0.1425
  496MOL0     C66834   2.663   3.668  10.409  0.1695  0.4819 -0.4253
  496MOL0     C66835   2.530   3.606  10.371 -0.8857 -0.3498 -0.5441
  496MOL0     C66836   2.416   3.646  10.468  0.0665  0.3359  0.1175
  496MOL0     C66837   2.270   3.635  10.407 -0.7922 -0.2140  0.1395
  496MOL0     C66838   2.146   3.633  10.493  0.2439 -0.3040 -0.2251
  496MOL0     C66839   2.140   3.766  10.571  0.2724 -0.9656 -1.0824
  496MOL0     C66840   2.030   3.788  10.675  0.4585  0.0492  0.1099
  496MOL0     C66841   1.889   3.768  10.626 -0.3676 -0.0761  0.1653
  496MOL0     N66842   1.789   3.789  10.736  0.9343  0.0121 -0.8160
  496MOL0     C66843   1.775   3.900  10.819 -0.8683 -0.8647  0.7442
  496MOL0     C66844   1.663   3.877  10.893 -0.3121  0.0518  0.5166
  496MOL0     C66845   1.615   3.961  11.007 -0.4411  0.0657  1.1351
  496MOL0     C66846   1.489   3.908  11.071  0.2262  0.5886 -0.1393
  496MOL0     C66847   1.452   4.005  11.177  1.1019  0.1195 -1.1612
  496MOL0     C66848   1.322   3.966  11.242 -0.8167 -0.4275  0.0207
  496MOL0     O66849   1.210   3.982  11.155  0.2261 -0.1178  0.0215
  496MOL0     C66850   1.106   4.059  11.199 -0.6035 -0.3899  0.0645
  496MOL0     C66851   1.104   4.190  11.161 -0.2188 -0.0388  0.1616
  496MOL0     C66852   0.998   4.274  11.197  0.0932 -0.8245 -0.1272
  496MOL0     C66853   0.987   4.410  11.127 -0.0434 -0.1381 -0.0485
  496MOL0     C66854   0.893   4.220  11.282  0.0991  0.8435 -0.5857
  496MOL0     C66855   0.764   4.285  11.319 -0.4654  0.0311  0.1044
  496MOL0     O66856   0.660   4.207  11.354 -0.0399 -0.0380 -0.2930
  496MOL0     C66857   0.552   4.278  11.399 -0.5186  0.3583  0.1148
  496MOL0     C66858   0.445   4.321  11.318 -0.1697  0.1045  0.1153
  496MOL0     C66859   0.334   4.379  11.376  0.7753  0.3230  0.8533
  496MOL0     C66860   0.327   4.403  11.513 -0.6903  0.2818 -0.4847
  496MOL0     O66861   0.236   4.468  11.586  0.7496  0.0250  0.4696
  496MOL0     C66862   0.118   4.520  11.520  0.3499  0.1665  0.7110
  496MOL0     C66863  -0.002   4.571  11.622 -0.3175 -0.7901 -0.2646
  496MOL0     C66864  -0.068   4.471  11.708 -0.8800  0.9916  0.1430
  496MOL0     C66865   0.004   4.387  11.817 -0.5793  0.1991  0.3009
  496MOL0     C66866   0.095   4.458  11.928  0.0419 -0.1599 -0.3258
  496MOL0     C66867   0.021   4.551  12.025 -0.4883  0.0265 -0.4374
  496MOL0     C66868  -0.103   4.480  12.094  0.6055 -0.4313 -0.6111
  496MOL0     C66869  -0.183   4.563  12.195 -0.1318 -0.1328 -0.2198
  496MOL0    Cl66870  -0.094   4.594  12.351 -0.1105 -0.1061 -0.1178
  496MOL0     C66871   0.437   4.361  11.589  0.1089  0.4308 -0.5299
  496MOL0     C66872   0.547   4.296  11.535  0.1320  0.3086 -0.7362
  496MOL0     O66873   0.766   4.405  11.329 -0.4899  0.0592  0.3995
  496MOL0     C66874   0.908   4.085  11.328  0.0989  0.4823  0.2014
  496MOL0     C66875   1.020   4.016  11.299  0.0527  0.1475  0.8474
  496MOL0     N66876   1.605   3.763  10.850  0.4570  0.6095  0.2634
  496MOL0     N66877   1.681   3.709  10.752  0.4884 -0.8032 -0.2020
  496MOL0     C66878   2.795   3.656  10.750  0.5171  0.0564  0.4767
  496MOL0     C66879   2.910   3.669  10.822 -0.1362 -0.5108  0.0987
  496MOL0     C66880   3.334   3.597  10.959 -0.6256  0.6166 -0.3409
  496MOL0     C66881   3.371   3.537  11.083 -0.0516 -0.8203  0.0511
  496MOL0     C66882   3.501   3.542  11.129 -0.9622  0.1056 -1.0707
  496MOL0     C66883   3.610   3.603  11.052 -0.6274 -0.6807  1.1459
  496MOL0     O66884   3.739   3.605  11.101 -0.4875  0.3412  0.3813
  496MOL0     C66885   3.847   3.678  11.040  0.4688 -0.2515  0.6531
  496MOL0     C66886   3.959   3.702  11.140 -0.0090 -0.0068 -1.0281
  496MOL0     C66887   4.071   3.783  11.069  0.3269 -0.0868  0.4510
  496MOL0     C66888   4.174   3.841  11.172  0.7348 -0.7603 -1.0563
  496MOL0     C66889   4.229   3.736  11.264 -0.0630 -0.1542  0.3020
  496MOL0     C66890   4.281   3.653  11.337 -0.3452 -0.8882  0.1710
  496MOL0     C66891   3.575   3.654  10.927  1.2033  0.0541  0.3064
  496MOL0     C66892   3.439   3.644  10.878  0.1926 -0.0817  0.6473
  496MOL0     H66893   3.134   3.696  10.579  0.4201  3.7266  1.5127
  496MOL0     H66894   2.921   3.721  10.444  0.5840  1.2426 -0.5275
  496MOL0     H66895   2.676   3.771  10.375 -0.5027  1.1998  1.3621
  496MOL0     H66896   2.735   3.595  10.369 -2.1626 -0.9496 -2.3351
  496MOL0     H66897   2.502   3.646  10.273 -3.2653  0.0474  0.2200
  496MOL0     H66898   2.537   3.497  10.366 -0.4578 -0.3565  0.1262
  496MOL0     H66899   2.421   3.590  10.562  2.4646 -0.7177 -0.5796
  496MOL0     H66900   2.433   3.754  10.479  0.4497  0.7052 -3.1305
  496MOL0     H66901   2.252   3.708  10.328  2.3434  2.6089  1.7810
  496MOL0     H66902   2.271   3.541  10.351  0.7361 -0.9240  1.2691
  496MOL0     H66903   2.053   3.633  10.437  0.2490  0.2910 -0.2421
  496MOL0     H66904   2.150   3.546  10.559 -1.0846  0.9001  1.5246
  496MOL0     H66905   2.239   3.774  10.618 -0.3044 -0.9875  0.1700
  496MOL0     H66906   2.132   3.847  10.498 -0.5907  1.7924  1.8488
  496MOL0     H66907   2.048   3.709  10.749  0.7546  0.2418  0.2457
  496MOL0     H66908   2.046   3.882  10.729 -3.7650 -0.6539  3.0816
  496MOL0     H66909   1.875   3.668  10.583  1.4217 -0.6429  0.7867
  496MOL0     H66910   1.874   3.843  10.549 -0.6815 -0.3065  0.0001
  496MOL0     H66911   1.838   3.988  10.830 -1.2480 -0.7472  2.0733
  496MOL0     H66912   1.689   3.968  11.087 -1.2633 -1.8926  2.1258
  496MOL0     H66913   1.589   4.064  10.980  2.1880  0.8490  1.2223
  496MOL0     H66914   1.497   3.810  11.120  1.2377  1.4977  1.6257
  496MOL0     H66915   1.416   3.912  10.990  1.5726 -3.1254 -1.7599
  496MOL0     H66916   1.439   4.106  11.136  1.5161  1.5915  2.0147
  496MOL0     H66917   1.531   3.989  11.251 -0.1895 -4.2604 -0.4596
  496MOL0     H66918   1.317   4.034  11.327  3.8478  0.9454 -0.5089
  496MOL0     H66919   1.314   3.860  11.267 -2.0522 -0.5616 -0.8240
  496MOL0     H66920   1.176   4.234  11.093 -0.1135  0.2586  0.4589
  496MOL0     H66921   1.000   4.481  11.209  2.3264 -0.7507  0.1706
  496MOL0     H66922   1.072   4.434  11.063  0.5794 -0.9434  0.4535
  496MOL0     H66923   0.898   4.418  11.064  1.6535 -1.9265 -2.8767
  496MOL0     H66924   0.439   4.280  11.217 -0.9538  1.3125 -0.3579
  496MOL0     H66925   0.248   4.388  11.310 -0.6358 -1.5696  2.3022
  496MOL0     H66926   0.134   4.613  11.466 -0.2086 -0.1761 -0.0591
  496MOL0     H66927   0.076   4.448  11.450 -0.5734 -2.5554  3.7920
  496MOL0     H66928   0.038   4.655  11.680 -0.0100  0.4556 -2.1868
  496MOL0     H66929  -0.081   4.614  11.560  1.6326  1.8349 -1.0947
  496MOL0     H66930  -0.136   4.408  11.649 -2.0801  0.1992  2.2536
  496MOL0     H66931  -0.144   4.531  11.759 -2.7015 -0.3888 -0.8488
  496MOL0     H66932  -0.081   4.339  11.867  0.2844 -1.6156  0.1064
  496MOL0     H66933   0.073   4.308  11.785 -1.4363  0.2681 -1.9420
  496MOL0     H66934   0.161   4.520  11.867  0.7059 -1.9095 -1.4747
  496MOL0     H66935   0.161   4.386  11.977  1.0741  0.5584 -0.6431
  496MOL0     H66936   0.079   4.602  12.103 -3.8916  1.3950  1.4183
  496MOL0     H66937  -0.005   4.641  11.968 -0.2236 -0.0898 -0.7485
  496MOL0     H66938  -0.075   4.393  12.154 -2.0401 -1.6930 -1.0631
  496MOL0     H66939  -0.177   4.458  12.017 -1.2179  1.7259  0.3960
  496MOL0     H66940  -0.260   4.498  12.238  2.4846 -2.8059  0.8469
  496MOL0     H66941  -0.224   4.654  12.151  0.9776 -0.4906 -2.0816
  496MOL0     H66942   0.445   4.387  11.694 -1.2900 -3.1119  0.6331
  496MOL0     H66943   0.628   4.267  11.601  0.5517 -0.2688 -1.4850
  496MOL0     H66944   0.838   4.027  11.387  0.8769 -1.0531 -0.3546
  496MOL0     H66945   1.047   3.920  11.341  1.2436  0.6573  1.2694
  496MOL0     H66946   2.708   3.622  10.804  0.1828 -0.6546 -0.4887
  496MOL0     H66947   2.915   3.619  10.919  1.2405  0.2515  0.4474
  496MOL0     H66948   3.296   3.487  11.144 -2.5027  0.7501 -1.4646
  496MOL0     H66949   3.528   3.508  11.228  2.7029  4.1853 -0.3757
  496MOL0     H66950   3.875   3.618  10.952  0.5651  0.1976  0.3776
  496MOL0     H66951   3.800   3.771  11.007  0.4208 -0.7184 -0.6975
  496MOL0     H66952   4.003   3.607  11.172  0.5655  0.7458  0.5442
  496MOL0     H66953   3.922   3.759  11.226  0.1960 -1.2234 -0.1072
  496MOL0     H66954   4.031   3.869  11.016 -0.3529  0.9260  2.4932
  496MOL0     H66955   4.123   3.722  10.994 -0.2250  0.2210 -0.1930
  496MOL0     H66956   4.112   3.912  11.228  0.2743 -3.1074  1.6191
  496MOL0     H66957   4.251   3.905  11.127  0.3544  0.5673  0.0940
  496MOL0     H66958   4.329   3.571  11.388  0.7700 -1.4396 -1.6563
  496MOL0     H66959   3.644   3.683  10.849 -1.9614  0.1377 -2.6965
  496MOL0     H66960   3.433   3.673  10.774  2.2866  0.1196  0.5277
  497MOL0     O66961   2.039   5.443   4.673  0.5905 -0.0396  0.1748
  497MOL0     C66962   2.108   5.519   4.739  0.5727 -0.6640 -0.4261
  497MOL0     O66963   2.072   5.597   4.842  0.2210  0.0913 -0.2099
  497MOL0     C66964   1.933   5.634   4.845 -0.1380 -0.1215 -0.6511
  497MOL0     C66965   1.901   5.770   4.858  0.4904 -0.5068 -0.2672
  497MOL0     C66966   1.772   5.814   4.880  0.0719 -0.0845  0.4270
  497MOL0     C66967   1.671   5.719   4.883 -0.2574 -0.4915  0.2969
  497MOL0     O66968   1.548   5.760   4.924 -0.3282  0.2215  0.5221
  497MOL0     C66969   1.449   5.678   4.983  0.3602  0.0652 -0.0539
  497MOL0     C66970   1.363   5.778   5.054  0.6756 -0.2884 -0.2337
  497MOL0     C66971   1.266   5.707   5.144  0.0446 -0.5800  0.4539
  497MOL0     C66972   1.186   5.811   5.225  0.4220 -0.0477  0.3948
  497MOL0     C66973   1.102   5.745   5.332 -0.2398 -0.1495 -0.9536
  497MOL0     C66974   1.003   5.856   5.383  0.0257 -0.6703 -0.2802
  497MOL0     C66975   0.935   5.800   5.506 -0.1162  0.4927 -0.5571
  497MOL0     C66976   0.816   5.887   5.533  0.1454 -0.6169  0.1590
  497MOL0     N66977   0.737   5.835   5.643  0.6122 -0.0953  0.9562
  497MOL0     C66978   0.769   5.826   5.770 -0.5318  0.3760 -0.9352
  497MOL0     C66979   0.656   5.787   5.829  0.7700 -0.1368  0.0641
  497MOL0     C66980   0.631   5.744   5.966  0.5684  0.6893 -0.1972
  497MOL0     C66981   0.604   5.873   6.044 -0.2721 -1.0575 -1.1539
  497MOL0     C66982   0.478   5.945   6.001 -1.1519  0.0442 -0.0233
  497MOL0     C66983   0.354   5.859   6.001  0.6437  0.5860  1.1365
  497MOL0     O66984   0.241   5.947   5.997 -0.3174 -0.3050  0.2482
  497MOL0     C66985   0.194   6.013   5.885  0.3209  0.1524 -0.8421
  497MOL0     C66986   0.258   6.022   5.758 -0.3060  0.4197 -0.5176
  497MOL0     C66987   0.210   6.106   5.651  0.1565  0.3568 -0.0285
  497MOL0     C66988   0.297   6.115   5.527 -0.3150  0.8949 -0.8538
  497MOL0     C66989   0.093   6.184   5.675 -0.7366 -0.3027 -0.8131
  497MOL0     C66990   0.051   6.277   5.575 -1.1503  0.0473 -0.1565
  497MOL0     O66991   0.061   6.414   5.597 -0.1095 -0.1168  0.2532
  497MOL0     C66992  -0.045   6.490   5.545 -0.3386  0.5553 -0.3825
  497MOL0     C66993  -0.019   6.601   5.457 -0.0522 -0.1803 -0.3477
  497MOL0     C66994  -0.123   6.672   5.403  0.1965 -0.6625  0.8711
  497MOL0     C66995  -0.259   6.645   5.430 -0.1352  0.2528  0.4234
  497MOL0     O66996  -0.367   6.708   5.382 -0.0516 -0.6063 -0.6029
  497MOL0     C66997  -0.360   6.811   5.279  0.0646  0.2833 -0.1602
  497MOL0     C66998  -0.328   6.950   5.341 -0.0246  0.0052  0.1039
  497MOL0     C66999  -0.441   6.990   5.433 -0.5535  0.3842  0.1015
  497MOL0     C67000  -0.437   7.147   5.443 -0.1151  0.3061  0.1232
  497MOL0     C67001  -0.549   7.186   5.551  0.7458 -0.7469  0.5959
  497MOL0     C67002  -0.562   7.339   5.553 -0.4675  0.1469 -0.8618
  497MOL0     C67003  -0.681   7.393   5.630 -0.5914  0.8466 -0.5415
  497MOL0     C67004  -0.671   7.544   5.634  0.5406  0.8926 -0.0421
  497MOL0    Cl67005  -0.772   7.596   5.771 -0.1915 -0.0979  0.3860
  497MOL0     C67006  -0.286   6.541   5.524  0.2409 -0.2170  1.2833
  497MOL0     C67007  -0.184   6.461   5.573 -0.0714  0.1533 -0.1932
  497MOL0     O67008  -0.002   6.224   5.481 -0.0918 -0.2417  0.3983
  497MOL0     C67009   0.034   6.174   5.802 -0.3917  0.0253 -0.4343
  497MOL0     C67010   0.078   6.091   5.906  0.3432 -0.0021 -0.2309
  497MOL0     N67011   0.557   5.777   5.738  0.0878 -0.1388  0.1195
  497MOL0     N67012   0.608   5.804   5.620 -0.4342  0.0234  0.1359
  497MOL0     C67013   1.702   5.589   4.850 -0.0960  0.7550 -0.2283
  497MOL0     C67014   1.830   5.543   4.827  0.0436  0.2472  0.1501
  497MOL0     C67015   2.257   5.503   4.725 -0.3546  0.8388  0.5022
  497MOL0     C67016   2.299   5.448   4.603  0.8589  0.4636 -0.1348
  497MOL0     C67017   2.431   5.436   4.581 -0.7892  0.6185 -0.2617
  497MOL0     C67018   2.527   5.480   4.685 -0.4709  0.1102  0.9573
  497MOL0     O67019   2.661   5.469   4.655  1.0554  0.5815  0.1134
  497MOL0     C67020   2.707   5.531   4.531  0.3308 -0.6949 -0.4430
  497MOL0     C67021   2.861   5.534   4.524 -0.5383 -0.2296 -0.3948
  497MOL0     C67022   2.916   5.621   4.402 -0.3468  0.3036 -0.1996
  497MOL0     C67023   3.065   5.587   4.369  0.0770 -0.7357 -0.2087
  497MOL0     C67024   3.108   5.681   4.275 -0.0059 -0.8672  0.0586
  497MOL0     C67025   3.149   5.752   4.185 -0.6624  0.4357  0.4659
  497MOL0     C67026   2.479   5.524   4.808 -0.8635 -0.0251  0.7529
  497MOL0     C67027   2.344   5.532   4.827 -0.9822  0.6957  0.2219
  497MOL0     H67028   1.984   5.840   4.860  1.0879 -1.1807 -0.8022
  497MOL0     H67029   1.736   5.911   4.911 -0.7460 -0.3396  0.2971
  497MOL0     H67030   1.402   5.610   4.911  1.9304 -0.4872 -0.5955
  497MOL0     H67031   1.502   5.606   5.047 -1.0331 -0.2442  0.8041
  497MOL0     H67032   1.427   5.846   5.111  1.9324 -1.4937 -0.1677
  497MOL0     H67033   1.315   5.843   4.980  1.0878 -0.3633 -0.5694
  497MOL0     H67034   1.198   5.649   5.082  0.9820  1.5243 -2.7994
  497MOL0     H67035   1.324   5.641   5.210 -0.9014 -1.1903  0.6876
  497MOL0     H67036   1.251   5.882   5.277 -0.5328  1.1525  0.0050
  497MOL0     H67037   1.111   5.858   5.162 -0.3337  0.9303  1.9456
  497MOL0     H67038   1.052   5.658   5.289  0.2517 -0.0047 -1.8456
  497MOL0     H67039   1.168   5.706   5.410 -0.7299 -1.1392 -1.0199
  497MOL0     H67040   1.060   5.944   5.412 -1.3953 -0.4654  2.1697
  497MOL0     H67041   0.932   5.890   5.307 -1.7501 -2.5218  0.4400
  497MOL0     H67042   0.889   5.702   5.488 -2.0594  1.1152  0.7346
  497MOL0     H67043   1.002   5.780   5.591 -2.4395 -1.6367  0.9199
  497MOL0     H67044   0.755   5.891   5.442  1.8565  3.4769 -1.0368
  497MOL0     H67045   0.842   5.991   5.551 -3.8635  0.0751  3.4738
  497MOL0     H67046   0.869   5.837   5.809 -0.7470  3.4510 -0.9940
  497MOL0     H67047   0.546   5.675   5.954  2.1465 -1.6246  1.1023
  497MOL0     H67048   0.720   5.696   6.008 -1.3061 -1.7503  1.2847
  497MOL0     H67049   0.686   5.946   6.040 -2.4782  1.9708  1.9711
  497MOL0     H67050   0.591   5.860   6.152  1.0838 -0.5011 -0.9020
  497MOL0     H67051   0.498   5.987   5.902  0.2360  3.6864  1.6485
  497MOL0     H67052   0.452   6.026   6.070  0.2079 -0.2066  0.8149
  497MOL0     H67053   0.346   5.793   6.088  1.4861  0.3828  1.0726
  497MOL0     H67054   0.346   5.792   5.915 -1.1742  0.1385  1.6081
  497MOL0     H67055   0.346   5.960   5.744  1.4229  2.0382  2.2702
  497MOL0     H67056   0.336   6.013   5.516 -0.6244  0.7442 -0.5939
  497MOL0     H67057   0.236   6.132   5.438 -2.6070 -0.0044  0.4471
  497MOL0     H67058   0.381   6.183   5.545  0.3122 -0.4232  1.7422
  497MOL0     H67059   0.084   6.630   5.435  0.7561 -2.0352  0.7838
  497MOL0     H67060  -0.090   6.749   5.334 -0.4503 -0.7756  0.4238
  497MOL0     H67061  -0.297   6.787   5.192 -0.9406  0.5540 -0.9783
  497MOL0     H67062  -0.462   6.826   5.243 -0.9344 -0.8721  2.0182
  497MOL0     H67063  -0.227   6.962   5.381  0.4756 -0.1062 -1.0887
  497MOL0     H67064  -0.333   7.015   5.254 -3.2962 -0.0286  0.1455
  497MOL0     H67065  -0.423   6.965   5.538  0.5897  2.3696  0.4347
  497MOL0     H67066  -0.538   6.964   5.392 -0.1924 -2.7228  0.9725
  497MOL0     H67067  -0.342   7.184   5.482  0.0076  0.0359  0.0810
  497MOL0     H67068  -0.443   7.192   5.343 -0.1518  2.4677  1.0468
  497MOL0     H67069  -0.518   7.159   5.652  0.3124 -0.8261  0.7114
  497MOL0     H67070  -0.648   7.147   5.523  0.3064  1.3499 -1.0254
  497MOL0     H67071  -0.465   7.368   5.596 -0.3157 -0.6945 -0.6065
  497MOL0     H67072  -0.561   7.373   5.450 -0.4856  3.5857  0.1392
  497MOL0     H67073  -0.675   7.358   5.734  2.3598  1.5135 -0.3957
  497MOL0     H67074  -0.774   7.357   5.586 -1.2406 -0.3469  1.6709
  497MOL0     H67075  -0.700   7.582   5.536 -1.6201 -2.1229 -0.7402
  497MOL0     H67076  -0.570   7.576   5.660  0.2622  0.7729  1.2776
  497MOL0     H67077  -0.391   6.527   5.547 -1.2838  2.5818 -2.8472
  497MOL0     H67078  -0.220   6.375   5.628 -0.7781  0.9947  0.7079
  497MOL0     H67079  -0.056   6.232   5.819  0.4334  1.0870  0.4258
  497MOL0     H67080   0.013   6.081   5.993  1.2139  0.9892  0.5593
  497MOL0     H67081   1.635   5.504   4.858  3.5912 -2.1938  3.3655
  497MOL0     H67082   1.836   5.436   4.814 -0.0720  0.1633  0.7516
  497MOL0     H67083   2.225   5.424   4.528  1.5117 -0.4279 -0.5073
  497MOL0     H67084   2.480   5.404   4.490 -0.4061  1.8688 -0.5120
  497MOL0     H67085   2.663   5.488   4.440 -2.3004 -1.1967  0.9774
  497MOL0     H67086   2.682   5.637   4.525 -0.0171 -0.8383 -2.1827
  497MOL0     H67087   2.897   5.431   4.518 -0.0584 -0.0334 -1.0827
  497MOL0     H67088   2.911   5.562   4.617 -0.2817 -2.4728  0.2051
  497MOL0     H67089   2.906   5.726   4.429  0.1225  0.2487  0.1963
  497MOL0     H67090   2.854   5.610   4.312 -2.2469  2.1147  0.7932
  497MOL0     H67091   3.084   5.485   4.334  1.9237 -1.1406  1.7298
  497MOL0     H67092   3.122   5.605   4.462  1.0957 -1.4357 -0.6809
  497MOL0     H67093   3.191   5.797   4.098 -2.6928 -0.2463 -0.9663
  497MOL0     H67094   2.543   5.564   4.886 -2.8199  0.7108  2.0392
  497MOL0     H67095   2.307   5.569   4.922  1.7949  0.0822  1.6357
  498MOL0     O67096   3.453   2.678  10.365  0.8053  0.4395  0.5793
  498MOL0     C67097   3.405   2.725  10.264 -0.2286 -0.1705 -0.2564
  498MOL0     O67098   3.293   2.802  10.260  0.2734 -0.6494  0.2829
  498MOL0     C67099   3.229   2.838  10.374 -0.4407 -0.1709  0.7075
  498MOL0     C67100   3.297   2.878  10.490  0.0038  0.4683  0.3896
  498MOL0     C67101   3.224   2.915  10.598  0.2191  0.8504 -0.7376
  498MOL0     C67102   3.089   2.940  10.585 -0.3404  0.0041 -0.2147
  498MOL0     O67103   3.008   2.999  10.681  0.4169  0.0960 -0.3157
  498MOL0     C67104   3.074   3.036  10.806  0.4990 -0.2490 -0.0708
  498MOL0     C67105   2.965   3.094  10.904 -0.0462 -0.3016 -0.8271
  498MOL0     C67106   2.899   3.224  10.861  1.2574  0.1750 -0.1583
  498MOL0     C67107   2.780   3.198  10.764  0.1744  0.0530  0.0521
  498MOL0     C67108   2.695   3.330  10.749 -0.3159  1.2170  1.0767
  498MOL0     C67109   2.549   3.284  10.724  0.3808 -0.5320  0.4051
  498MOL0     C67110   2.466   3.407  10.758  0.5227 -0.1401  0.1183
  498MOL0     C67111   2.456   3.418  10.910 -0.4791  0.0775  0.4877
  498MOL0     N67112   2.383   3.541  10.945 -0.1982 -0.4343  0.1488
  498MOL0     C67113   2.247   3.552  10.941 -0.3954  0.1108 -0.6164
  498MOL0     C67114   2.220   3.675  10.992 -0.4823  0.0279 -0.4079
  498MOL0     C67115   2.086   3.737  11.038  0.2715 -0.0245  0.3881
  498MOL0     C67116   2.028   3.694  11.172 -0.0105  0.3448 -0.3517
  498MOL0     C67117   1.942   3.808  11.229 -0.0160  0.0418  0.5997
  498MOL0     C67118   1.877   3.769  11.366  0.3712  1.4037  0.5678
  498MOL0     O67119   1.824   3.888  11.420 -0.1379 -0.5006 -0.5079
  498MOL0     C67120   1.775   3.875  11.554  0.6464 -0.3092  1.3589
  498MOL0     C67121   1.776   3.984  11.642 -0.8344  0.0989  0.1363
  498MOL0     C67122   1.722   3.980  11.768 -0.2930  0.6493 -0.0998
  498MOL0     C67123   1.735   4.111  11.843  0.8239  0.5278 -0.0379
  498MOL0     C67124   1.654   3.863  11.816  0.1202 -0.1653 -0.1604
  498MOL0     C67125   1.561   3.847  11.930  0.0263 -0.4422  0.6250
  498MOL0     O67126   1.531   3.723  11.976  0.2464 -0.0385 -0.4016
  498MOL0     C67127   1.419   3.709  12.053  0.0410  0.6110  1.2281
  498MOL0     C67128   1.427   3.614  12.149  0.1985  0.2759  0.5817
  498MOL0     C67129   1.314   3.578  12.224 -0.3639  0.9035  0.0887
  498MOL0     C67130   1.183   3.625  12.199  0.3918 -0.0787 -0.0753
  498MOL0     O67131   1.086   3.565  12.268 -0.1271  0.1190  0.6687
  498MOL0     C67132   0.956   3.602  12.224  0.1116 -0.5069 -0.7030
  498MOL0     C67133   0.848   3.544  12.319  0.3053  0.1456 -1.1985
  498MOL0     C67134   0.827   3.637  12.443 -0.6402 -0.0600 -0.7841
  498MOL0     C67135   0.721   3.599  12.545  0.3033 -0.9851 -0.3495
  498MOL0     C67136   0.580   3.612  12.492  0.8297  0.0545 -0.4065
  498MOL0     C67137   0.469   3.573  12.589  0.5170 -0.4966  0.2920
  498MOL0     C67138   0.453   3.673  12.708 -0.2421  0.5026  0.0700
  498MOL0     C67139   0.313   3.679  12.772  0.1235 -1.3780  0.8703
  498MOL0    Cl67140   0.302   3.826  12.878  0.6577 -0.2238 -0.2014
  498MOL0     C67141   1.173   3.721  12.091 -0.0860 -0.6264  0.6390
  498MOL0     C67142   1.288   3.755  12.014  0.0481 -0.6157 -0.0822
  498MOL0     O67143   1.511   3.955  11.970 -0.1877 -0.3648  0.0570
  498MOL0     C67144   1.673   3.746  11.735 -0.5143 -0.5998  0.3061
  498MOL0     C67145   1.722   3.748  11.604 -0.0185 -0.5144  0.3236
  498MOL0     N67146   2.339   3.738  11.020  0.0963 -0.5802  0.6978
  498MOL0     N67147   2.435   3.658  10.989 -0.7832  0.4016 -0.0188
  498MOL0     C67148   3.022   2.904  10.467  0.7879 -0.7712 -0.0351
  498MOL0     C67149   3.093   2.847  10.363 -0.1270  0.3212  0.4353
  498MOL0     C67150   3.462   2.693  10.132 -0.3363 -0.3044 -0.1071
  498MOL0     C67151   3.597   2.644  10.124 -0.2044  0.2716  1.1686
  498MOL0     C67152   3.647   2.611  10.003  0.8955 -1.1511  0.2686
  498MOL0     C67153   3.565   2.628   9.881 -0.5682 -0.0762 -0.0684
  498MOL0     O67154   3.636   2.586   9.774  0.0830  0.2712 -0.8097
  498MOL0     C67155   3.559   2.549   9.657 -1.5403 -0.5503 -0.9645
  498MOL0     C67156   3.486   2.419   9.679 -0.1604 -0.1840  0.2691
  498MOL0     C67157   3.438   2.354   9.552 -0.4228  0.5970  0.0230
  498MOL0     C67158   3.367   2.219   9.572  0.5390  0.0166 -0.0343
  498MOL0     C67159   3.222   2.222   9.542  0.9519 -0.0774 -0.2268
  498MOL0     C67160   3.104   2.206   9.521  1.2025  0.5763  0.9778
  498MOL0     C67161   3.439   2.686   9.895  0.2655  0.2589 -0.3275
  498MOL0     C67162   3.385   2.713  10.018  0.7191 -0.1286  1.0247
  498MOL0     H67163   3.405   2.873  10.494 -0.0706 -1.4349  1.6827
  498MOL0     H67164   3.275   2.952  10.687  0.5932  0.1158 -0.6463
  498MOL0     H67165   3.125   2.949  10.848  1.6099  0.7770  0.7439
  498MOL0     H67166   3.147   3.114  10.783 -1.1239  1.9687  1.8263
  498MOL0     H67167   2.889   3.016  10.921  2.6440 -3.2011 -1.1708
  498MOL0     H67168   3.004   3.112  11.005 -0.3265  2.0588 -1.0878
  498MOL0     H67169   2.849   3.261  10.951 -1.7737 -1.8766 -0.8388
  498MOL0     H67170   2.977   3.286  10.816 -0.4001  0.9300 -2.1272
  498MOL0     H67171   2.809   3.158  10.666 -2.1846 -0.6527 -0.4273
  498MOL0     H67172   2.715   3.116  10.795 -1.2111  1.6176  1.4787
  498MOL0     H67173   2.711   3.391  10.839  0.8646  1.6351  0.6018
  498MOL0     H67174   2.722   3.383  10.657 -2.7127 -1.6486 -1.4862
  498MOL0     H67175   2.534   3.258  10.619 -0.5692 -0.5840  0.5525
  498MOL0     H67176   2.517   3.200  10.786  0.4768  0.0627  1.2715
  498MOL0     H67177   2.518   3.494  10.717 -0.9989  0.2001 -1.2278
  498MOL0     H67178   2.367   3.399  10.711  1.3062 -3.3574 -1.2770
  498MOL0     H67179   2.553   3.426  10.960  0.7231  4.6119 -2.0553
  498MOL0     H67180   2.400   3.335  10.954 -0.6136 -1.1856 -1.9093
  498MOL0     H67181   2.178   3.474  10.909  1.3465 -1.0767 -1.6761
  498MOL0     H67182   2.103   3.845  11.034  0.8979 -0.1322 -4.1296
  498MOL0     H67183   2.016   3.714  10.958  0.9883 -0.5736 -0.0900
  498MOL0     H67184   2.104   3.673  11.249 -0.7382 -2.4477 -0.2907
  498MOL0     H67185   1.987   3.593  11.167  2.3275 -0.6524 -1.0069
  498MOL0     H67186   1.860   3.814  11.157 -0.7187 -2.4550  1.0980
  498MOL0     H67187   2.004   3.896  11.248  1.0986 -0.8992  1.5008
  498MOL0     H67188   1.960   3.727  11.423  0.0091 -0.0196  0.0982
  498MOL0     H67189   1.803   3.688  11.361  0.7797  1.0769 -0.7051
  498MOL0     H67190   1.821   4.072  11.597 -0.2179  0.5114  1.4850
  498MOL0     H67191   1.642   4.167  11.851  1.8432  2.1733  0.9450
  498MOL0     H67192   1.773   4.088  11.943 -0.9708  1.2805  0.8517
  498MOL0     H67193   1.807   4.174  11.788  0.2704 -0.0426 -1.4503
  498MOL0     H67194   1.524   3.572  12.173 -0.1707 -0.3879  0.9318
  498MOL0     H67195   1.328   3.497  12.295 -1.7189  1.5150  1.1091
  498MOL0     H67196   0.952   3.710  12.214  0.5384 -0.6403 -2.5852
  498MOL0     H67197   0.942   3.555  12.126 -0.2569  1.4780 -1.6508
  498MOL0     H67198   0.750   3.537  12.269 -0.9102  1.8777  0.7789
  498MOL0     H67199   0.873   3.445  12.357 -0.7536  0.4079  0.2517
  498MOL0     H67200   0.811   3.738  12.404  0.5090  0.6146  0.4177
  498MOL0     H67201   0.919   3.638  12.502 -0.7555  0.9622 -0.6134
  498MOL0     H67202   0.750   3.500  12.580  2.5393 -0.6928 -1.2228
  498MOL0     H67203   0.740   3.655  12.638 -0.5304 -0.8117 -0.2764
  498MOL0     H67204   0.573   3.540  12.410  0.7816 -1.1903  0.6460
  498MOL0     H67205   0.562   3.710  12.448  0.2313  0.6001  1.0030
  498MOL0     H67206   0.375   3.545  12.540  0.7810 -0.0772 -0.4709
  498MOL0     H67207   0.492   3.476  12.635 -1.0571  0.7547  4.1114
  498MOL0     H67208   0.485   3.770  12.668 -1.0734 -0.2363 -2.5987
  498MOL0     H67209   0.527   3.645  12.783  0.2588 -0.9647 -0.9225
  498MOL0     H67210   0.297   3.584  12.824  0.5341 -2.5385 -1.0369
  498MOL0     H67211   0.246   3.684  12.686  2.1889  1.2683 -0.7088
  498MOL0     H67212   1.081   3.772  12.066 -0.6858 -2.3328 -0.8848
  498MOL0     H67213   1.271   3.813  11.924  0.0815 -0.4447  0.0206
  498MOL0     H67214   1.640   3.647  11.762 -2.3387 -1.3639 -3.9336
  498MOL0     H67215   1.717   3.649  11.561  1.3776 -0.5501  0.1988
  498MOL0     H67216   2.914   2.907  10.461  0.6828  2.0598  1.5820
  498MOL0     H67217   3.052   2.797  10.276 -0.0969 -1.5993  1.4724
  498MOL0     H67218   3.651   2.632  10.218  2.0097  3.8892  0.5442
  498MOL0     H67219   3.744   2.563  10.000  1.4229 -0.2735  2.0432
  498MOL0     H67220   3.490   2.630   9.633 -0.1726  0.9437  0.0015
  498MOL0     H67221   3.636   2.546   9.580  0.1838  1.5483  0.5710
  498MOL0     H67222   3.403   2.437   9.748  2.7337  0.2293  3.9339
  498MOL0     H67223   3.548   2.355   9.743  0.8257  1.6805  1.2554
  498MOL0     H67224   3.530   2.341   9.494  0.5666  5.0632  0.2267
  498MOL0     H67225   3.381   2.422   9.488  2.9450  2.0783 -1.6775
  498MOL0     H67226   3.373   2.193   9.678 -0.4502 -1.3288 -0.2744
  498MOL0     H67227   3.415   2.136   9.519 -3.2849 -2.3081 -0.2518
  498MOL0     H67228   3.000   2.191   9.499  1.1589  1.1897  0.7645
  498MOL0     H67229   3.372   2.679   9.809 -2.5436  0.7591  1.6845
  498MOL0     H67230   3.284   2.752  10.023  0.7375 -0.1977  2.0771
  499MOL0     O67231   7.109   3.227   1.363 -0.1761  0.3815 -0.6369
  499MOL0     C67232   7.178   3.156   1.443 -0.0245 -0.6488  0.1877
  499MOL0     O67233   7.124   3.087   1.558 -0.7149  0.2254  0.2392
  499MOL0     C67234   6.990   3.073   1.575 -0.9405 -0.2322  0.4538
  499MOL0     C67235   6.931   3.099   1.695  0.4802  0.8418  0.1194
  499MOL0     C67236   6.794   3.079   1.715 -0.4460  0.6716 -0.2386
  499MOL0     C67237   6.715   3.008   1.618 -0.4800 -0.0598 -0.3227
  499MOL0     O67238   6.583   2.966   1.622 -0.2088 -0.6383  1.0451
  499MOL0     C67239   6.514   2.982   1.748 -0.6375 -0.4942 -0.1811
  499MOL0     C67240   6.449   3.125   1.766 -0.2157 -0.2474 -0.0028
  499MOL0     C67241   6.349   3.182   1.658  0.6049 -1.0055 -0.3018
  499MOL0     C67242   6.219   3.098   1.644  0.6180  0.4609 -0.4954
  499MOL0     C67243   6.111   3.183   1.570 -0.3266  0.4978  0.7723
  499MOL0     C67244   6.010   3.081   1.523  0.0912  0.1144 -0.8245
  499MOL0     C67245   5.894   3.148   1.442 -1.1154  0.1432 -0.6373
  499MOL0     C67246   5.767   3.066   1.425 -0.1776 -0.2241  0.2883
  499MOL0     N67247   5.706   3.020   1.554  0.7030  0.4161 -0.1300
  499MOL0     C67248   5.629   3.093   1.650 -0.7131  0.4740  0.4898
  499MOL0     C67249   5.558   2.996   1.721  0.4215  0.6085 -0.1013
  499MOL0     C67250   5.468   3.041   1.837 -0.0243  0.1071 -0.4554
  499MOL0     C67251   5.344   2.962   1.863  0.1145 -1.1453  0.0999
  499MOL0     C67252   5.359   2.827   1.933 -0.2380 -0.4068  0.1239
  499MOL0     C67253   5.230   2.749   1.932 -0.8854 -0.7177  0.2456
  499MOL0     O67254   5.128   2.810   2.024  0.4882 -0.4875 -0.8124
  499MOL0     C67255   5.003   2.755   2.030  0.6923 -0.4846 -0.2173
  499MOL0     C67256   4.968   2.642   1.968 -0.1450  0.2717 -0.6259
  499MOL0     C67257   4.840   2.597   1.970 -0.2409  0.4567 -0.5516
  499MOL0     C67258   4.817   2.453   1.911  0.3221  0.3534 -0.2643
  499MOL0     C67259   4.740   2.667   2.044  0.4454 -0.3254  0.7533
  499MOL0     C67260   4.596   2.614   2.077  0.4904 -0.5049 -0.2568
  499MOL0     O67261   4.516   2.691   2.154  0.4035 -0.2109  0.2571
  499MOL0     C67262   4.375   2.679   2.163 -0.3349 -0.0545  0.6446
  499MOL0     C67263   4.291   2.601   2.073  0.2814  0.3940  0.7512
  499MOL0     C67264   4.155   2.597   2.083  0.4393 -0.4201  0.0828
  499MOL0     C67265   4.087   2.677   2.174  0.2191 -0.8940  0.5896
  499MOL0     O67266   3.949   2.652   2.182 -0.1021 -0.6692 -0.1925
  499MOL0     C67267   3.876   2.695   2.304  0.5299  1.0222 -1.2216
  499MOL0     C67268   3.731   2.705   2.280  0.9437  0.3355  0.4598
  499MOL0     C67269   3.644   2.578   2.255  0.1759  0.1589 -0.1490
  499MOL0     C67270   3.661   2.531   2.111 -0.1219 -1.4123 -0.3305
  499MOL0     C67271   3.567   2.408   2.073 -0.4454 -0.9038  0.7615
  499MOL0     C67272   3.420   2.419   2.107 -0.3138 -0.1026 -0.4239
  499MOL0     C67273   3.325   2.304   2.061 -0.7607  0.0399 -0.2775
  499MOL0     C67274   3.175   2.318   2.101 -0.1947  0.3688  0.4851
  499MOL0    Cl67275   3.128   2.488   2.171 -0.2208 -0.2396  0.3431
  499MOL0     C67276   4.166   2.756   2.255 -0.7401  0.0999 -0.4367
  499MOL0     C67277   4.309   2.761   2.255 -0.3554  0.5005 -0.1701
  499MOL0     O67278   4.558   2.506   2.035 -0.1585 -0.3884 -0.5613
  499MOL0     C67279   4.783   2.795   2.110  0.1675  0.8640  0.0565
  499MOL0     C67280   4.910   2.839   2.099 -0.3874 -0.4029 -0.3287
  499MOL0     N67281   5.590   2.875   1.671 -0.8545  0.1184 -0.5914
  499MOL0     N67282   5.672   2.884   1.572 -0.3967 -0.4192  0.2307
  499MOL0     C67283   6.784   2.979   1.503 -0.8789 -0.0544 -0.3700
  499MOL0     C67284   6.921   3.006   1.479  0.4661 -0.0287  0.2185
  499MOL0     C67285   7.324   3.164   1.438  0.2988  0.2340  0.2437
  499MOL0     C67286   7.389   3.262   1.359  0.5098 -0.3270  0.4721
  499MOL0     C67287   7.524   3.287   1.369 -0.6704  0.1235  0.6654
  499MOL0     C67288   7.611   3.200   1.436  0.0120 -0.1331  0.3382
  499MOL0     O67289   7.742   3.227   1.424 -0.1069  0.3877 -0.0080
  499MOL0     C67290   7.836   3.145   1.506  0.4618 -0.5306  0.0471
  499MOL0     C67291   7.972   3.218   1.501 -0.4335  0.8074 -0.0520
  499MOL0     C67292   8.089   3.131   1.554 -0.2269  0.0770 -0.4214
  499MOL0     C67293   8.211   3.224   1.569  0.2125  0.2942 -0.0992
  499MOL0     C67294   8.261   3.221   1.706 -0.0949 -0.3508  0.4737
  499MOL0     C67295   8.303   3.232   1.823 -0.0518  0.1986  0.1041
  499MOL0     C67296   7.552   3.094   1.508  0.9645 -0.0733  0.2844
  499MOL0     C67297   7.407   3.074   1.511 -1.0303 -0.3066 -0.0645
  499MOL0     H67298   6.987   3.141   1.779 -0.5419  1.5389  0.4679
  499MOL0     H67299   6.757   3.108   1.813  2.8030 -1.0540  1.6582
  499MOL0     H67300   6.424   2.919   1.742  0.6710 -2.7102  1.8028
  499MOL0     H67301   6.578   2.948   1.830 -0.5255  0.9563  0.3548
  499MOL0     H67302   6.410   3.126   1.868  2.6700  0.5606  1.1960
  499MOL0     H67303   6.522   3.206   1.760 -2.0604  1.4161 -3.3671
  499MOL0     H67304   6.331   3.286   1.687  1.1202 -0.4728 -1.7832
  499MOL0     H67305   6.406   3.176   1.565 -0.9037 -0.5987 -1.2832
  499MOL0     H67306   6.241   3.012   1.579 -3.3772  2.1162 -4.6234
  499MOL0     H67307   6.184   3.069   1.744 -0.5773 -0.0191 -1.0357
  499MOL0     H67308   6.070   3.253   1.643  0.5843 -0.5618  2.3461
  499MOL0     H67309   6.162   3.227   1.483 -0.7594  0.5401  0.5353
  499MOL0     H67310   6.066   3.012   1.459 -3.8543 -0.8773 -3.5891
  499MOL0     H67311   5.968   3.029   1.610 -2.8597  0.7534 -1.7243
  499MOL0     H67312   5.871   3.247   1.484  0.5472  0.1191  0.4442
  499MOL0     H67313   5.939   3.160   1.343  0.0240 -1.2241 -0.3194
  499MOL0     H67314   5.793   2.976   1.368 -1.6558 -0.6426  0.2263
  499MOL0     H67315   5.699   3.120   1.359  0.5990  1.4363  0.7987
  499MOL0     H67316   5.636   3.201   1.661 -1.8441  0.8944 -2.0454
  499MOL0     H67317   5.528   3.061   1.926 -1.8458  0.1011  0.8405
  499MOL0     H67318   5.428   3.139   1.810  1.0647  0.6927 -0.0032
  499MOL0     H67319   5.296   2.940   1.767 -0.5010 -2.6820  0.7282
  499MOL0     H67320   5.273   3.021   1.922  0.9872  0.7387 -0.6701
  499MOL0     H67321   5.401   2.835   2.034  0.4549  0.8898 -0.2480
  499MOL0     H67322   5.433   2.772   1.875  0.7894 -0.0765  1.0802
  499MOL0     H67323   5.250   2.646   1.963 -1.1918 -1.1672 -0.9863
  499MOL0     H67324   5.191   2.758   1.830  0.7387  4.0025 -0.2080
  499MOL0     H67325   5.041   2.583   1.912 -0.7523  1.7791 -3.1966
  499MOL0     H67326   4.735   2.475   1.842  0.9043  0.6612 -0.8712
  499MOL0     H67327   4.900   2.412   1.854  2.3916  2.8298  0.7723
  499MOL0     H67328   4.785   2.382   1.989  1.9972  0.3235  0.4460
  499MOL0     H67329   4.336   2.552   1.987 -0.5660  0.7060  0.1081
  499MOL0     H67330   4.090   2.541   2.017 -0.3082 -2.7974  2.6196
  499MOL0     H67331   3.900   2.616   2.375  1.9325  0.7963 -1.9204
  499MOL0     H67332   3.904   2.797   2.331  0.0351  0.7742  0.3250
  499MOL0     H67333   3.680   2.745   2.368  0.9107 -0.8531  0.9946
  499MOL0     H67334   3.718   2.781   2.202  0.2149 -0.8388 -0.6084
  499MOL0     H67335   3.537   2.595   2.272 -0.3421 -1.4467 -1.5698
  499MOL0     H67336   3.680   2.504   2.326 -1.7825  0.5011  1.2966
  499MOL0     H67337   3.638   2.617   2.047 -4.3512 -2.3285 -0.3438
  499MOL0     H67338   3.764   2.503   2.087  0.1378  0.9052 -2.1826
  499MOL0     H67339   3.611   2.315   2.111 -1.2288 -0.8613  1.8074
  499MOL0     H67340   3.568   2.391   1.965 -1.1905 -0.6427  0.7127
  499MOL0     H67341   3.414   2.447   2.212  3.0154  5.1008 -1.2315
  499MOL0     H67342   3.387   2.509   2.055 -1.7326 -0.1251  0.3850
  499MOL0     H67343   3.372   2.212   2.097  0.7089  2.0102  3.3126
  499MOL0     H67344   3.324   2.300   1.952 -0.3437  0.0805 -0.2828
  499MOL0     H67345   3.155   2.240   2.174  0.4855  1.2182  1.6087
  499MOL0     H67346   3.101   2.306   2.021  0.9211  1.5230 -0.7892
  499MOL0     H67347   4.123   2.814   2.337  2.0512 -0.5289  1.5988
  499MOL0     H67348   4.374   2.827   2.312  1.2415 -1.8607  0.9057
  499MOL0     H67349   4.710   2.853   2.166 -1.8066  0.4097 -1.9265
  499MOL0     H67350   4.938   2.926   2.156 -0.0836 -1.6999  1.6088
  499MOL0     H67351   6.732   2.963   1.409 -1.5326  0.6366 -0.1392
  499MOL0     H67352   6.960   2.982   1.380 -1.7149 -0.9631 -0.4785
  499MOL0     H67353   7.336   3.327   1.290  1.8258  0.0881 -0.1846
  499MOL0     H67354   7.582   3.364   1.319  0.6114  0.4236  2.5156
  499MOL0     H67355   7.816   3.150   1.614  1.7383  0.2809  0.2605
  499MOL0     H67356   7.833   3.038   1.483  0.2334 -0.7220  0.9432
  499MOL0     H67357   7.955   3.304   1.567 -1.3650 -0.5685  1.5904
  499MOL0     H67358   7.984   3.253   1.398 -1.3208  1.2117 -0.0233
  499MOL0     H67359   8.110   3.062   1.472 -1.0812 -1.0018  0.2367
  499MOL0     H67360   8.062   3.074   1.644  1.4268 -0.7504 -0.4166
  499MOL0     H67361   8.197   3.327   1.536  0.4144  0.2828 -0.2228
  499MOL0     H67362   8.294   3.184   1.509  0.0009 -2.0160  1.0177
  499MOL0     H67363   8.350   3.242   1.918  1.1896 -0.9750 -0.3472
  499MOL0     H67364   7.625   3.028   1.554  0.2300 -1.2221 -0.1530
  499MOL0     H67365   7.363   2.998   1.575 -4.8099  1.1644 -0.6375
  500MOL0     O67366   3.567   8.161   6.212 -0.3566  0.7470  0.4657
  500MOL0     C67367   3.558   8.156   6.088 -0.0483 -0.4221 -0.6572
  500MOL0     O67368   3.439   8.152   6.018  1.0282 -0.4129  0.2538
  500MOL0     C67369   3.336   8.098   6.091  0.7950  0.4246  0.7859
  500MOL0     C67370   3.274   8.174   6.194  0.2401  0.6004  0.7522
  500MOL0     C67371   3.187   8.112   6.282 -0.1905 -0.4198 -0.1871
  500MOL0     C67372   3.138   7.982   6.257 -0.2316 -0.5855  0.8567
  500MOL0     O67373   3.044   7.920   6.335 -0.4949 -0.4859 -0.1282
  500MOL0     C67374   2.936   8.011   6.365  0.3091 -0.6225  0.5755
  500MOL0     C67375   2.807   7.940   6.397  0.1981 -0.0203  0.0857
  500MOL0     C67376   2.697   8.042   6.417  0.5183 -0.0626 -0.3773
  500MOL0     C67377   2.554   7.974   6.427 -0.0606  0.0289  0.2527
  500MOL0     C67378   2.443   8.069   6.459 -0.0889  0.2938 -0.4383
  500MOL0     C67379   2.306   8.007   6.466  0.4511  0.1098 -1.1314
  500MOL0     C67380   2.196   8.085   6.544  0.4839 -0.5525  0.1625
  500MOL0     C67381   2.066   7.998   6.568 -0.4649 -0.3424 -0.0596
  500MOL0     N67382   2.004   7.935   6.451  0.3097  0.4056 -0.4919
  500MOL0     C67383   1.903   7.994   6.379 -0.1214 -0.2346  0.1768
  500MOL0     C67384   1.868   7.908   6.293  0.0391 -1.0388 -0.5098
  500MOL0     C67385   1.762   7.926   6.196 -0.1737 -0.1333  0.5192
  500MOL0     C67386   1.619   7.960   6.261 -0.6491 -0.5357 -0.3941
  500MOL0     C67387   1.584   7.854   6.369  0.1842  0.2247 -0.1120
  500MOL0     C67388   1.586   7.705   6.329  0.5546 -1.1113 -0.3297
  500MOL0     O67389   1.510   7.690   6.208 -0.2667 -0.0336 -0.2250
  500MOL0     C67390   1.370   7.656   6.213 -1.1522  0.6420 -0.0103
  500MOL0     C67391   1.328   7.582   6.102 -0.6550 -0.1838  0.5885
  500MOL0     C67392   1.194   7.537   6.082  0.4415 -0.1079 -0.5986
  500MOL0     C67393   1.159   7.454   5.960  0.3670  0.0634  0.3303
  500MOL0     C67394   1.096   7.579   6.178 -0.4073  0.8072 -0.3119
  500MOL0     C67395   0.945   7.565   6.157 -1.1490 -0.1764  0.2449
  500MOL0     O67396   0.900   7.589   6.034  0.1990 -0.3269  0.7071
  500MOL0     C67397   0.768   7.577   6.011  0.2416 -0.5470 -0.7255
  500MOL0     C67398   0.689   7.469   6.041 -0.6832 -0.7754 -0.0645
  500MOL0     C67399   0.557   7.461   6.002 -0.5568  0.5446 -1.0199
  500MOL0     C67400   0.490   7.554   5.921  0.6913  0.2075  0.0188
  500MOL0     O67401   0.356   7.535   5.888 -0.2440 -0.8674  0.6371
  500MOL0     C67402   0.282   7.653   5.854  0.4099 -0.6338  0.5805
  500MOL0     C67403   0.145   7.620   5.819  1.0804  0.0920 -0.4024
  500MOL0     C67404   0.131   7.565   5.676  0.5870  0.6319  0.1416
  500MOL0     C67405  -0.015   7.536   5.625 -0.4110 -0.4995  0.5653
  500MOL0     C67406  -0.023   7.467   5.486  0.0181  0.3424 -0.7958
  500MOL0     C67407  -0.170   7.434   5.458 -0.3768  0.0742  0.1245
  500MOL0     C67408  -0.183   7.366   5.315  1.2391  0.6300 -0.5357
  500MOL0     C67409  -0.167   7.468   5.211  0.0055  0.6755  0.1698
  500MOL0    Cl67410  -0.208   7.388   5.053  0.1621 -0.1108  0.3123
  500MOL0     C67411   0.562   7.675   5.893 -0.2908  0.9301  0.0043
  500MOL0     C67412   0.704   7.674   5.935  0.0806 -0.0117  0.0562
  500MOL0     O67413   0.875   7.552   6.256  0.4780 -0.2239  0.0506
  500MOL0     C67414   1.145   7.639   6.299  0.3141  0.5066 -0.1668
  500MOL0     C67415   1.282   7.678   6.316  0.6342 -0.1776  0.5281
  500MOL0     N67416   1.943   7.793   6.306 -0.7242 -0.1890 -0.8876
  500MOL0     N67417   2.033   7.809   6.401  1.1580  0.9312 -0.4458
  500MOL0     C67418   3.203   7.908   6.157  0.0136  0.1795  0.5097
  500MOL0     C67419   3.304   7.968   6.070  0.4645 -0.1843 -0.6522
  500MOL0     C67420   3.690   8.173   6.009  1.0297 -1.0507  0.5112
  500MOL0     C67421   3.808   8.166   6.087 -0.6923  0.1005  0.0037
  500MOL0     C67422   3.932   8.144   6.026  0.8964 -0.2575 -0.0657
  500MOL0     C67423   3.937   8.124   5.890  0.1573  0.0507  0.0069
  500MOL0     O67424   4.066   8.102   5.845 -0.3870  0.1720  0.1738
  500MOL0     C67425   4.113   8.144   5.715  0.1725 -0.3857 -0.5696
  500MOL0     C67426   4.256   8.105   5.667  0.1170 -0.4429  0.0281
  500MOL0     C67427   4.372   8.144   5.762  0.8835  0.1443  0.7829
  500MOL0     C67428   4.497   8.084   5.714 -1.3291 -0.2341  0.4584
  500MOL0     C67429   4.547   8.127   5.585 -0.5658 -0.8127 -0.5876
  500MOL0     C67430   4.592   8.168   5.480  0.0825 -0.1261  1.0093
  500MOL0     C67431   3.817   8.130   5.816  0.1838  0.8099 -0.5382
  500MOL0     C67432   3.690   8.150   5.871  0.0823  0.0007 -0.5065
  500MOL0     H67433   3.292   8.279   6.218 -1.7341  1.1647 -0.0342
  500MOL0     H67434   3.148   8.171   6.364 -0.3001  1.9099 -1.8085
  500MOL0     H67435   2.956   8.064   6.458 -2.1828 -1.6165  1.7725
  500MOL0     H67436   2.922   8.090   6.290  3.3564 -0.4712  0.0453
  500MOL0     H67437   2.778   7.863   6.325 -1.0068  0.9179 -0.4669
  500MOL0     H67438   2.819   7.892   6.494 -1.0973  2.3937  1.5236
  500MOL0     H67439   2.711   8.098   6.510  0.6756 -1.5532  0.5392
  500MOL0     H67440   2.692   8.111   6.332 -1.5049 -0.9764 -1.0372
  500MOL0     H67441   2.536   7.932   6.328 -0.5272  2.9138 -1.0014
  500MOL0     H67442   2.566   7.896   6.502 -0.3477 -0.2017  0.0609
  500MOL0     H67443   2.471   8.096   6.562 -0.5793 -3.2367  0.7366
  500MOL0     H67444   2.447   8.157   6.393  0.7078 -0.0527 -0.8697
  500MOL0     H67445   2.262   7.996   6.366  2.1678 -0.4350 -1.8691
  500MOL0     H67446   2.320   7.906   6.507 -0.6196 -0.2748 -1.6646
  500MOL0     H67447   2.225   8.136   6.636  1.6032 -0.3583 -0.2752
  500MOL0     H67448   2.163   8.172   6.488  0.6041 -0.1873  0.6488
  500MOL0     H67449   1.992   8.063   6.615  2.9201  2.7342  1.5521
  500MOL0     H67450   2.093   7.923   6.643 -0.0783 -1.3563 -1.1814
  500MOL0     H67451   1.858   8.089   6.407 -1.0033 -0.5398 -0.1541
  500MOL0     H67452   1.786   8.008   6.128  0.1071 -0.6594 -0.0183
  500MOL0     H67453   1.752   7.834   6.139  0.6524  0.5721 -0.7928
  500MOL0     H67454   1.543   7.964   6.182  0.7579 -2.2321 -1.9185
  500MOL0     H67455   1.621   8.052   6.321  0.4356 -1.6335  1.3088
  500MOL0     H67456   1.480   7.868   6.399  1.2314  2.5489  2.9876
  500MOL0     H67457   1.646   7.868   6.458  0.6424 -0.5198 -0.3047
  500MOL0     H67458   1.540   7.661   6.418 -1.3151 -1.2728 -1.3267
  500MOL0     H67459   1.688   7.673   6.307  0.5747  0.1709 -2.3505
  500MOL0     H67460   1.400   7.560   6.025  0.2061 -0.0575  1.3467
  500MOL0     H67461   1.063   7.479   5.914  0.0358 -2.3761 -0.4449
  500MOL0     H67462   1.247   7.454   5.894  0.7116 -0.5300  0.7757
  500MOL0     H67463   1.138   7.351   5.992 -0.1237 -0.1925 -0.7675
  500MOL0     H67464   0.736   7.387   6.094 -0.6701  0.1607  1.4214
  500MOL0     H67465   0.504   7.370   6.028 -0.7258  0.4293 -1.7367
  500MOL0     H67466   0.303   7.722   5.936  1.8329 -0.1109 -0.1977
  500MOL0     H67467   0.321   7.700   5.764  1.3596 -0.7692  0.9112
  500MOL0     H67468   0.097   7.550   5.889  3.5592 -2.6658 -1.2719
  500MOL0     H67469   0.085   7.711   5.834 -0.1364 -0.9333  1.4133
  500MOL0     H67470   0.172   7.463   5.672 -3.6962 -1.5029  2.9023
  500MOL0     H67471   0.174   7.634   5.603  1.5428  1.5060  1.4971
  500MOL0     H67472  -0.071   7.476   5.696 -1.8548  0.2443  0.0918
  500MOL0     H67473  -0.069   7.631   5.618  1.3076  0.5731  1.3177
  500MOL0     H67474   0.034   7.373   5.480 -0.5865 -0.0469 -0.5039
  500MOL0     H67475   0.024   7.539   5.417  0.3376  0.7348 -0.1724
  500MOL0     H67476  -0.197   7.364   5.537  1.6299  0.0659  0.8478
  500MOL0     H67477  -0.233   7.523   5.451 -1.2688 -0.5659 -0.1677
  500MOL0     H67478  -0.282   7.319   5.320  0.9491  1.3580  1.3900
  500MOL0     H67479  -0.112   7.282   5.306  3.2678  1.8612  2.3946
  500MOL0     H67480  -0.069   7.516   5.209  0.5460 -0.3467  1.1658
  500MOL0     H67481  -0.235   7.552   5.224  0.9696  1.4912  0.0169
  500MOL0     H67482   0.520   7.751   5.828 -1.6404  0.8308  0.7106
  500MOL0     H67483   0.767   7.755   5.899  0.0057 -0.3210 -0.8034
  500MOL0     H67484   1.073   7.662   6.377  1.2595 -1.6008  1.4305
  500MOL0     H67485   1.322   7.728   6.404 -2.1563  2.2192  0.6090
  500MOL0     H67486   3.174   7.804   6.154  0.3812  0.0993 -0.4375
  500MOL0     H67487   3.364   7.906   6.004  2.5915  0.6723  0.3867
  500MOL0     H67488   3.814   8.183   6.194 -0.2352  1.4821 -0.2234
  500MOL0     H67489   4.022   8.139   6.085 -0.0407 -0.4116  1.3950
  500MOL0     H67490   4.049   8.112   5.633  1.2367 -2.4662 -0.6419
  500MOL0     H67491   4.094   8.252   5.723 -0.5556 -0.4486 -1.2818
  500MOL0     H67492   4.281   8.159   5.575 -0.1467 -1.9575 -0.9735
  500MOL0     H67493   4.258   7.998   5.647 -2.8718 -0.4732 -0.5654
  500MOL0     H67494   4.360   8.126   5.870  0.0174  1.0837  0.8525
  500MOL0     H67495   4.376   8.253   5.757  2.5041  0.0788  0.0885
  500MOL0     H67496   4.497   7.975   5.710 -1.5316 -0.3761  2.8255
  500MOL0     H67497   4.569   8.105   5.794 -2.9706 -2.1161  2.5706
  500MOL0     H67498   4.632   8.200   5.386 -1.9567 -0.6379 -0.0875
  500MOL0     H67499   3.828   8.112   5.710 -0.5810  1.0260 -0.6576
  500MOL0     H67500   3.600   8.144   5.811  0.5325 -1.9607 -1.0698
  501MOL0     O67501   7.417   7.975   3.941  0.3995 -0.0137  0.0425
  501MOL0     C67502   7.493   8.067   3.928 -0.0537  0.1664  0.0228
  501MOL0     O67503   7.495   8.155   3.824 -0.0689 -0.2663  0.4009
  501MOL0     C67504   7.420   8.137   3.711  0.6296 -0.2333 -0.3349
  501MOL0     C67505   7.297   8.073   3.690  1.3041 -0.3960  0.4705
  501MOL0     C67506   7.223   8.102   3.575  0.6031  0.7370 -0.0717
  501MOL0     C67507   7.273   8.193   3.478 -0.1421 -0.0803 -0.1953
  501MOL0     O67508   7.208   8.221   3.362  0.1467 -0.3897  0.2392
  501MOL0     C67509   7.071   8.262   3.358 -0.9585  0.0181 -0.3461
  501MOL0     C67510   7.052   8.327   3.229  0.4170  0.0098  0.0224
  501MOL0     C67511   6.921   8.400   3.199 -0.9249  0.0307 -0.4687
  501MOL0     C67512   6.874   8.497   3.303  0.0189  0.4556 -0.7886
  501MOL0     C67513   6.793   8.608   3.244 -0.1722 -0.2805 -0.1496
  501MOL0     C67514   6.656   8.556   3.190 -0.1000  0.3350  0.0817
  501MOL0     C67515   6.556   8.478   3.276 -0.5567  0.4569  0.0731
  501MOL0     C67516   6.431   8.432   3.207  0.4360 -0.2435 -0.0953
  501MOL0     N67517   6.336   8.358   3.294  0.3923 -0.2796 -0.4421
  501MOL0     C67518   6.367   8.267   3.387  0.2495 -0.1151 -0.8090
  501MOL0     C67519   6.256   8.223   3.441  0.2909  0.1193 -0.1427
  501MOL0     C67520   6.241   8.128   3.554 -0.2724 -0.0451 -0.6819
  501MOL0     C67521   6.099   8.058   3.569  0.5282 -0.0699 -0.4773
  501MOL0     C67522   6.075   7.965   3.447  0.9172  0.1137 -0.0823
  501MOL0     C67523   5.958   7.866   3.451  0.1483 -0.3083 -0.0458
  501MOL0     O67524   5.837   7.935   3.487 -0.2752  0.3960  0.4690
  501MOL0     C67525   5.720   7.893   3.435  0.0621  1.4307  0.5767
  501MOL0     C67526   5.617   7.983   3.445  0.3366  0.0161 -0.0756
  501MOL0     C67527   5.490   7.949   3.391  0.1250 -0.8419 -0.3075
  501MOL0     C67528   5.401   8.079   3.381 -0.1611 -0.6123 -0.0435
  501MOL0     C67529   5.453   7.818   3.353  0.2686 -0.4853 -1.3573
  501MOL0     C67530   5.326   7.771   3.307 -0.2683 -0.2914 -0.0686
  501MOL0     O67531   5.212   7.845   3.335 -0.5495 -0.0818  0.7894
  501MOL0     C67532   5.092   7.796   3.289 -0.0862  0.8685  0.0041
  501MOL0     C67533   5.080   7.749   3.155  0.5314 -0.3924  0.4382
  501MOL0     C67534   4.959   7.699   3.104  0.8567  0.0842  0.6931
  501MOL0     C67535   4.847   7.681   3.193 -0.6722 -0.0640  0.5675
  501MOL0     O67536   4.726   7.633   3.159  0.9897 -0.5008 -0.3698
  501MOL0     C67537   4.682   7.631   3.025  0.5741 -0.3299  0.7213
  501MOL0     C67538   4.539   7.555   3.020 -0.2431 -0.2839 -0.2565
  501MOL0     C67539   4.424   7.646   3.069  0.2355  0.3225 -0.3969
  501MOL0     C67540   4.292   7.621   3.005 -0.0400 -0.3481  0.1917
  501MOL0     C67541   4.170   7.700   3.060 -1.1840 -0.4394  0.1512
  501MOL0     C67542   4.130   7.676   3.207  0.8714 -0.2715  0.0072
  501MOL0     C67543   4.061   7.537   3.227 -0.0645 -0.1742  0.0899
  501MOL0     C67544   3.923   7.522   3.167  0.4061  0.0663  0.1251
  501MOL0    Cl67545   3.825   7.674   3.191  0.8226  0.1069  0.4799
  501MOL0     C67546   4.861   7.721   3.325 -0.6928 -0.5623  0.4266
  501MOL0     C67547   4.980   7.780   3.370 -0.1861 -0.9082 -0.3401
  501MOL0     O67548   5.330   7.675   3.234  0.7345  0.3738  0.4803
  501MOL0     C67549   5.563   7.729   3.354  0.5655 -0.2637  0.0656
  501MOL0     C67550   5.696   7.762   3.395  0.3957 -0.4013  0.9492
  501MOL0     N67551   6.158   8.284   3.365  0.2438 -0.5635  0.3412
  501MOL0     N67552   6.205   8.363   3.277  0.3552  0.4063 -0.0916
  501MOL0     C67553   7.396   8.257   3.496  0.8131  0.4202 -0.2888
  501MOL0     C67554   7.458   8.233   3.614 -0.5162  0.0943  0.3818
  501MOL0     C67555   7.599   8.075   4.030  0.5656  0.2577 -0.4577
  501MOL0     C67556   7.718   8.139   4.000  0.2478  0.2663 -0.1392
  501MOL0     C67557   7.814   8.151   4.089  0.6560  0.7690 -0.8532
  501MOL0     C67558   7.802   8.120   4.220  0.1169  0.0286  0.5380
  501MOL0     O67559   7.902   8.136   4.312 -0.5160 -0.5796  0.3089
  501MOL0     C67560   7.875   8.130   4.453  0.5916  0.3276  0.0414
  501MOL0     C67561   7.966   8.239   4.517 -0.2486  0.2143  0.0708
  501MOL0     C67562   8.117   8.204   4.495 -0.3075  0.3119  0.2313
  501MOL0     C67563   8.211   8.289   4.583 -0.6698  0.0478  0.1041
  501MOL0     C67564   8.192   8.428   4.569 -0.3652 -0.5113 -0.1629
  501MOL0     C67565   8.197   8.551   4.549 -0.2662  0.3477 -0.6086
  501MOL0     C67566   7.676   8.054   4.252  0.3634 -0.1607  0.3463
  501MOL0     C67567   7.578   8.034   4.164 -0.4486  0.0749  0.6077
  501MOL0     H67568   7.249   8.010   3.764 -4.6658  1.9499 -0.8275
  501MOL0     H67569   7.127   8.052   3.564  0.7106  0.7939 -1.3889
  501MOL0     H67570   6.989   8.189   3.361 -1.2489  0.3756  1.3576
  501MOL0     H67571   7.054   8.341   3.432 -0.6777  1.1116 -1.4229
  501MOL0     H67572   7.134   8.399   3.231  1.6387 -1.2608  3.8420
  501MOL0     H67573   7.073   8.249   3.156  1.4950  1.2352 -1.0157
  501MOL0     H67574   6.951   8.451   3.107  5.2006 -0.0263  1.0388
  501MOL0     H67575   6.838   8.329   3.189 -0.5825 -0.0972 -2.8796
  501MOL0     H67576   6.825   8.452   3.390 -2.4537  0.9442 -1.8528
  501MOL0     H67577   6.965   8.546   3.336  1.0774 -1.3889 -0.8285
  501MOL0     H67578   6.777   8.688   3.317 -1.3890 -0.5269 -0.1238
  501MOL0     H67579   6.848   8.657   3.163  1.7094  1.3249  1.9824
  501MOL0     H67580   6.611   8.651   3.161  1.8413  1.1177 -0.5455
  501MOL0     H67581   6.683   8.500   3.100  1.3425 -0.9307  1.2350
  501MOL0     H67582   6.605   8.385   3.308 -1.5792 -0.3365 -0.5969
  501MOL0     H67583   6.535   8.533   3.367  2.0921 -3.5427  3.5272
  501MOL0     H67584   6.460   8.362   3.129  1.2794  0.9528 -0.8855
  501MOL0     H67585   6.390   8.520   3.156  0.1969 -1.3198 -1.8103
  501MOL0     H67586   6.465   8.252   3.431 -1.6638 -2.9572  3.1713
  501MOL0     H67587   6.322   8.057   3.537  2.6620  3.3218 -1.9898
  501MOL0     H67588   6.271   8.186   3.642  0.1033  0.8322 -1.3743
  501MOL0     H67589   6.020   8.133   3.574 -0.4646 -0.9003 -2.3577
  501MOL0     H67590   6.097   8.001   3.662  2.9970 -1.0301 -0.9265
  501MOL0     H67591   6.158   7.897   3.425  0.0372 -0.6631 -1.1356
  501MOL0     H67592   6.059   8.027   3.358  1.2219 -1.3921 -1.2426
  501MOL0     H67593   5.978   7.792   3.529  1.6907  0.8175  0.6804
  501MOL0     H67594   5.946   7.816   3.354 -1.2387 -1.3970  0.6537
  501MOL0     H67595   5.649   8.079   3.485  2.2226 -0.8637  0.6491
  501MOL0     H67596   5.313   8.082   3.317 -0.6036  2.8256  0.5341
  501MOL0     H67597   5.363   8.091   3.483 -0.3030 -0.4527 -0.1142
  501MOL0     H67598   5.463   8.165   3.354  1.4229 -1.9995 -1.0064
  501MOL0     H67599   5.162   7.772   3.088  0.0094  0.1662 -0.0139
  501MOL0     H67600   4.950   7.667   3.001 -0.8388 -4.1048  1.9382
  501MOL0     H67601   4.689   7.729   2.979  0.5023 -0.8619 -0.4703
  501MOL0     H67602   4.746   7.570   2.961 -1.8475 -2.0212 -0.2786
  501MOL0     H67603   4.526   7.529   2.915 -1.0849  2.3537 -0.8848
  501MOL0     H67604   4.541   7.460   3.075 -3.1281  0.8135  2.0271
  501MOL0     H67605   4.456   7.748   3.048 -0.0680  0.6600  0.7388
  501MOL0     H67606   4.408   7.626   3.175  0.0045  0.4687 -0.4040
  501MOL0     H67607   4.290   7.619   2.896 -1.9829 -2.6584  0.1861
  501MOL0     H67608   4.268   7.515   3.020  0.6513 -0.0167  5.4121
  501MOL0     H67609   4.082   7.673   3.002 -2.7489  1.3988  1.5416
  501MOL0     H67610   4.183   7.808   3.055 -1.3238 -0.4806 -2.6915
  501MOL0     H67611   4.213   7.694   3.276  1.3140 -2.4324  0.1041
  501MOL0     H67612   4.059   7.756   3.227  0.7154  0.0918 -1.8397
  501MOL0     H67613   4.037   7.540   3.333 -2.0642  2.4350 -0.3347
  501MOL0     H67614   4.126   7.451   3.209  1.8820  1.5661 -1.8825
  501MOL0     H67615   3.871   7.443   3.221 -0.3654 -0.9749 -2.0121
  501MOL0     H67616   3.929   7.506   3.059 -0.9281 -1.9207  0.3027
  501MOL0     H67617   4.777   7.701   3.391  0.4864 -0.8087  1.9034
  501MOL0     H67618   4.982   7.803   3.476 -0.3182  1.7653 -0.8464
  501MOL0     H67619   5.554   7.627   3.319  0.8921 -0.3003  0.0876
  501MOL0     H67620   5.773   7.686   3.401  1.3700  0.6208  1.8281
  501MOL0     H67621   7.432   8.329   3.424 -0.2885  1.9574  0.6580
  501MOL0     H67622   7.540   8.303   3.627 -1.9359  1.7339  0.9199
  501MOL0     H67623   7.721   8.194   3.906 -1.8852  1.3688  0.3664
  501MOL0     H67624   7.902   8.207   4.058  1.6964 -1.4256 -2.1312
  501MOL0     H67625   7.775   8.169   4.474 -0.5006 -1.2814 -1.8845
  501MOL0     H67626   7.890   8.029   4.493  0.3148  0.7412  1.2391
  501MOL0     H67627   7.939   8.237   4.623  0.7319 -0.8968  0.3166
  501MOL0     H67628   7.930   8.332   4.471 -0.9491  0.1626  0.4885
  501MOL0     H67629   8.136   8.201   4.388 -1.3099 -3.1541  0.0108
  501MOL0     H67630   8.132   8.103   4.535 -2.0045  1.2199  3.5613
  501MOL0     H67631   8.316   8.261   4.575 -0.8588 -1.4140  1.8751
  501MOL0     H67632   8.178   8.263   4.685 -1.5347  3.2791  0.7548
  501MOL0     H67633   8.204   8.657   4.547 -1.2826  0.5342  1.7078
  501MOL0     H67634   7.650   8.018   4.350 -1.6054  0.1287 -0.0193
  501MOL0     H67635   7.482   7.988   4.184 -0.3506 -0.5201 -0.2303
  502MOL0     O67636  11.121   2.222   8.802  0.3545 -0.7615 -0.2664
  502MOL0     C67637  11.148   2.318   8.735 -0.2327 -0.1001 -0.6016
  502MOL0     O67638  11.060   2.400   8.665 -0.4110  0.0915  0.1321
  502MOL0     C67639  10.930   2.419   8.714 -1.6113  0.6142 -0.6616
  502MOL0     C67640  10.840   2.319   8.740 -0.6278 -0.5025  0.7058
  502MOL0     C67641  10.724   2.344   8.810 -0.0010 -0.8544  0.0601
  502MOL0     C67642  10.697   2.481   8.845  0.2323 -0.5248  0.3218
  502MOL0     O67643  10.585   2.540   8.915  0.0614 -0.5723  0.9977
  502MOL0     C67644  10.507   2.450   8.982  1.4079 -0.7017 -0.0894
  502MOL0     C67645  10.379   2.508   9.040 -0.4729  0.4498 -0.7165
  502MOL0     C67646  10.296   2.406   9.111  0.2007 -0.2263 -0.4420
  502MOL0     C67647  10.157   2.462   9.164 -0.0986 -0.1020 -0.6783
  502MOL0     C67648  10.066   2.345   9.209  0.0527 -0.4293  0.1835
  502MOL0     C67649   9.942   2.395   9.272  0.2753 -0.1828  0.4991
  502MOL0     C67650   9.956   2.421   9.424 -0.7807  0.4109 -0.3154
  502MOL0     C67651   9.872   2.548   9.460 -0.8213  0.1234  0.1964
  502MOL0     N67652   9.720   2.523   9.438 -0.1090  0.1063  0.3486
  502MOL0     C67653   9.636   2.449   9.513 -0.0733  0.9874  0.7542
  502MOL0     C67654   9.524   2.433   9.442  0.0669  0.4483  0.5032
  502MOL0     C67655   9.404   2.337   9.464  0.5342 -0.4193  0.3744
  502MOL0     C67656   9.328   2.385   9.597 -0.2743 -0.0124  0.6447
  502MOL0     C67657   9.251   2.517   9.574 -0.3251 -0.1020 -0.3206
  502MOL0     C67658   9.142   2.498   9.471 -0.3658 -0.7556  0.7542
  502MOL0     O67659   9.042   2.400   9.503  1.1186 -0.7773  0.2119
  502MOL0     C67660   8.949   2.418   9.601 -0.1760 -0.4736 -0.0041
  502MOL0     C67661   8.936   2.307   9.683  0.0579 -1.1509 -1.2302
  502MOL0     C67662   8.863   2.312   9.806  0.4656 -0.4988  0.2989
  502MOL0     C67663   8.864   2.189   9.895 -1.5243 -0.1726  0.6230
  502MOL0     C67664   8.799   2.434   9.835 -0.4204 -0.5906 -1.3751
  502MOL0     C67665   8.719   2.458   9.953  0.0327 -0.4840  0.4499
  502MOL0     O67666   8.626   2.554   9.933  0.0126 -0.4885 -0.6616
  502MOL0     C67667   8.541   2.599  10.032 -0.0372  1.2942 -0.9349
  502MOL0     C67668   8.504   2.735  10.037 -0.7106  0.2064 -0.0306
  502MOL0     C67669   8.406   2.780  10.133 -0.5289 -0.2711  0.2361
  502MOL0     C67670   8.334   2.699  10.226 -0.2458 -0.0127  0.4333
  502MOL0     O67671   8.239   2.745  10.310  0.0507 -0.9965  0.0084
  502MOL0     C67672   8.116   2.790  10.246 -1.2351 -0.1610 -0.3424
  502MOL0     C67673   8.024   2.817  10.360  0.2162 -0.7687 -0.7205
  502MOL0     C67674   7.907   2.909  10.311  0.3158  0.4110 -0.0846
  502MOL0     C67675   7.781   2.840  10.267  0.2012  0.5766 -0.5681
  502MOL0     C67676   7.676   2.942  10.214  0.2842 -0.3533  0.3700
  502MOL0     C67677   7.613   3.014  10.337  0.0411 -0.6224 -0.5432
  502MOL0     C67678   7.486   3.090  10.277  0.9291  0.4009 -0.5605
  502MOL0     C67679   7.409   3.167  10.389 -0.2397 -0.4542 -0.9701
  502MOL0    Cl67680   7.517   3.278  10.479 -0.2929 -0.1730 -0.2952
  502MOL0     C67681   8.384   2.566  10.215  0.3929  0.2456 -0.0135
  502MOL0     C67682   8.478   2.514  10.124 -0.2806 -0.7585 -0.0683
  502MOL0     O67683   8.737   2.404  10.058 -0.5062 -0.0259 -0.4908
  502MOL0     C67684   8.813   2.541   9.750 -0.5528 -0.1368  0.1841
  502MOL0     C67685   8.879   2.539   9.630 -0.3191  1.2228 -0.0574
  502MOL0     N67686   9.542   2.507   9.328 -0.6864 -0.1837 -0.2508
  502MOL0     N67687   9.658   2.565   9.329  0.4250 -0.1907  0.6427
  502MOL0     C67688  10.782   2.581   8.801 -1.0180 -0.3210 -0.9414
  502MOL0     C67689  10.904   2.557   8.735 -0.1790 -0.0488 -0.9518
  502MOL0     C67690  11.294   2.342   8.719 -0.5488 -0.0377  0.0304
  502MOL0     C67691  11.399   2.245   8.744 -0.1301 -0.3276 -0.3305
  502MOL0     C67692  11.531   2.277   8.744  0.2771 -0.6948  0.6841
  502MOL0     C67693  11.576   2.408   8.709  0.3007  0.1749  0.9005
  502MOL0     O67694  11.711   2.437   8.695 -0.5574  1.0233  0.3357
  502MOL0     C67695  11.739   2.503   8.571  0.5060  0.1241  0.5551
  502MOL0     C67696  11.855   2.430   8.501  0.1226  0.9585  0.3084
  502MOL0     C67697  11.997   2.449   8.564  0.7528 -0.2452  0.0459
  502MOL0     C67698  12.060   2.585   8.519 -0.1586 -0.6078  0.0567
  502MOL0     C67699  12.187   2.611   8.587  1.0774 -0.3930 -0.5108
  502MOL0     C67700  12.283   2.614   8.655  0.2485  0.2645 -0.3694
  502MOL0     C67701  11.479   2.510   8.690 -0.7045 -0.1462 -0.1583
  502MOL0     C67702  11.345   2.475   8.685  0.1451 -0.1590 -0.2728
  502MOL0     H67703  10.870   2.219   8.712  4.2642  0.7177  0.7241
  502MOL0     H67704  10.658   2.259   8.822 -0.0051 -0.8009  0.4075
  502MOL0     H67705  10.470   2.376   8.911  0.9283 -1.3590  0.8357
  502MOL0     H67706  10.553   2.401   9.068 -1.2807 -1.4944  1.0052
  502MOL0     H67707  10.390   2.593   9.108 -0.8957  2.7221 -3.2759
  502MOL0     H67708  10.322   2.553   8.958  0.5505  2.3060 -0.4719
  502MOL0     H67709  10.283   2.320   9.045  0.4709 -0.0135 -0.7750
  502MOL0     H67710  10.359   2.382   9.197 -0.4734  1.1149  0.4720
  502MOL0     H67711  10.165   2.527   9.251  0.4965 -1.6810  0.4917
  502MOL0     H67712  10.110   2.524   9.087 -1.7903 -0.2462  0.1791
  502MOL0     H67713  10.044   2.286   9.120 -1.0911 -1.2667  1.0028
  502MOL0     H67714  10.122   2.279   9.275  2.2001 -0.7180 -1.7860
  502MOL0     H67715   9.894   2.479   9.221 -0.5802 -0.0678  1.4462
  502MOL0     H67716   9.856   2.329   9.258 -0.7722  1.3737 -0.7772
  502MOL0     H67717   9.924   2.333   9.480  0.0510  0.4891  0.3004
  502MOL0     H67718  10.061   2.428   9.455 -0.7208  2.0822 -0.8018
  502MOL0     H67719   9.905   2.633   9.400 -1.9658  1.6456  1.6375
  502MOL0     H67720   9.896   2.568   9.564 -2.0510  4.4779 -0.1725
  502MOL0     H67721   9.662   2.400   9.606  0.5537  0.9326  0.5528
  502MOL0     H67722   9.337   2.334   9.377 -0.7404  0.1667  1.3099
  502MOL0     H67723   9.439   2.234   9.463  0.4381 -0.4537  0.5544
  502MOL0     H67724   9.388   2.411   9.685 -0.3781 -0.1360  0.7531
  502MOL0     H67725   9.263   2.305   9.635 -0.9362 -0.5819 -1.5608
  502MOL0     H67726   9.325   2.583   9.529  0.2469 -0.8111 -0.4562
  502MOL0     H67727   9.212   2.565   9.664  1.4353  2.0479 -0.6180
  502MOL0     H67728   9.186   2.468   9.375  0.0239  0.7357  0.4306
  502MOL0     H67729   9.093   2.594   9.448  0.2359 -0.3805  1.0123
  502MOL0     H67730   8.989   2.216   9.660  0.4965 -1.3899  0.5965
  502MOL0     H67731   8.833   2.100   9.839 -0.0009  0.0569 -0.6500
  502MOL0     H67732   8.971   2.178   9.915 -0.5789  3.2188 -1.6840
  502MOL0     H67733   8.803   2.187   9.985 -0.4559 -1.0205  1.3567
  502MOL0     H67734   8.552   2.803   9.967 -0.3204 -0.7243 -0.6856
  502MOL0     H67735   8.380   2.884  10.116  1.5679  0.1793 -0.5237
  502MOL0     H67736   8.129   2.878  10.181  2.8256  0.8542  1.5328
  502MOL0     H67737   8.083   2.701  10.192  0.1435 -0.4561 -0.7221
  502MOL0     H67738   7.997   2.722  10.408  1.7311 -1.0291 -0.3534
  502MOL0     H67739   8.070   2.875  10.440 -0.4304  0.0019 -0.8917
  502MOL0     H67740   7.934   2.972  10.226  1.7695 -0.1337 -0.0545
  502MOL0     H67741   7.876   2.982  10.387  4.7007  3.4668 -0.9067
  502MOL0     H67742   7.796   2.770  10.184 -3.1644  0.3150 -1.0862
  502MOL0     H67743   7.739   2.790  10.355 -2.7131 -0.3527 -2.3308
  502MOL0     H67744   7.595   2.883  10.171 -0.4085 -0.9345  2.3826
  502MOL0     H67745   7.722   3.008  10.140  1.5663 -0.5874  0.9284
  502MOL0     H67746   7.584   2.934  10.405  0.0389 -1.4916 -1.5357
  502MOL0     H67747   7.672   3.088  10.392 -1.7246 -0.3925  1.1490
  502MOL0     H67748   7.418   3.015  10.233 -2.3802  2.8367 -0.0113
  502MOL0     H67749   7.515   3.162  10.200 -2.3041  1.9179 -0.5569
  502MOL0     H67750   7.369   3.098  10.465 -0.3842  1.3967  0.7240
  502MOL0     H67751   7.325   3.227  10.353 -0.8381  2.4198  4.2731
  502MOL0     H67752   8.352   2.487  10.283  0.1253  0.2300 -0.1551
  502MOL0     H67753   8.508   2.410  10.128 -2.4449 -1.4154  0.5784
  502MOL0     H67754   8.781   2.641   9.777  3.4942  1.7242 -1.1293
  502MOL0     H67755   8.904   2.627   9.571 -1.3452  3.1834  2.2545
  502MOL0     H67756  10.753   2.682   8.829 -1.9233 -0.5503 -1.0170
  502MOL0     H67757  10.964   2.641   8.700  1.4158 -0.9527 -0.4565
  502MOL0     H67758  11.368   2.146   8.774 -3.8482  1.1820  1.4864
  502MOL0     H67759  11.613   2.209   8.763  0.8565 -0.9555 -2.2426
  502MOL0     H67760  11.653   2.498   8.503  2.1707  0.2140 -1.6863
  502MOL0     H67761  11.757   2.611   8.577  0.4976  0.0688  1.6644
  502MOL0     H67762  11.863   2.430   8.392  1.0990 -1.9526  0.3201
  502MOL0     H67763  11.829   2.326   8.520 -2.5732  1.3699 -0.7075
  502MOL0     H67764  12.069   2.371   8.536  0.0264 -0.7352 -0.4788
  502MOL0     H67765  11.977   2.449   8.672 -0.3009  1.5468 -0.1198
  502MOL0     H67766  11.989   2.661   8.551 -2.0842 -0.7963 -3.2771
  502MOL0     H67767  12.065   2.602   8.411  0.7497 -2.2763 -0.2001
  502MOL0     H67768  12.367   2.609   8.721  0.3019 -2.1313 -0.5137
  502MOL0     H67769  11.511   2.611   8.669  1.7201 -0.9199 -0.4770
  502MOL0     H67770  11.283   2.561   8.663 -1.2655 -0.5832  1.7856
  503MOL0     O67771  10.774   3.701   2.991  0.1788  0.2273  0.3643
  503MOL0     C67772  10.711   3.803   3.032 -0.3405  0.1935  0.3949
  503MOL0     O67773  10.594   3.796   3.100 -0.3653 -0.7871  0.8857
  503MOL0     C67774  10.543   3.669   3.132 -0.0304  0.1966  0.5523
  503MOL0     C67775  10.416   3.629   3.102  0.1314  1.1098  0.9178
  503MOL0     C67776  10.379   3.497   3.127  0.6530 -0.1558  0.7125
  503MOL0     C67777  10.456   3.409   3.199 -0.3933  0.4001  0.3065
  503MOL0     O67778  10.418   3.280   3.237 -0.3544 -0.6744 -0.2790
  503MOL0     C67779  10.287   3.236   3.220  0.6806 -0.1779 -0.6109
  503MOL0     C67780  10.213   3.289   3.338  0.1460 -0.1280  0.5614
  503MOL0     C67781  10.068   3.227   3.338 -0.2878 -0.0348  0.1497
  503MOL0     C67782   9.988   3.284   3.455  0.6174  0.1769 -0.1528
  503MOL0     C67783   9.843   3.232   3.485 -0.9793 -0.2105 -0.1596
  503MOL0     C67784   9.746   3.283   3.376  0.9239 -0.1531 -1.0323
  503MOL0     C67785   9.606   3.221   3.397 -0.1276  0.4949  0.5337
  503MOL0     C67786   9.508   3.289   3.496 -0.3250 -0.1431 -0.0673
  503MOL0     N67787   9.371   3.220   3.494 -0.4372  0.4336 -0.2904
  503MOL0     C67788   9.261   3.244   3.413 -0.8109  0.0781 -0.6251
  503MOL0     C67789   9.158   3.168   3.454 -0.0817 -0.3522  0.0076
  503MOL0     C67790   9.006   3.167   3.424 -0.4307 -0.1583 -0.4650
  503MOL0     C67791   8.983   3.168   3.271 -0.8715  0.3198  0.7635
  503MOL0     C67792   8.955   3.032   3.208  0.3419 -0.1286 -0.1431
  503MOL0     C67793   9.072   2.939   3.205 -0.9429 -0.8423 -0.3245
  503MOL0     O67794   9.179   3.008   3.136  0.2387  0.8327  0.3191
  503MOL0     C67795   9.308   2.961   3.129  0.2341 -0.0368  1.0030
  503MOL0     C67796   9.338   2.830   3.143  0.0757 -0.1142 -0.4894
  503MOL0     C67797   9.467   2.784   3.133  0.9542 -0.1249  0.5260
  503MOL0     C67798   9.485   2.636   3.153 -1.4916  0.4020  0.7157
  503MOL0     C67799   9.573   2.877   3.093  0.3402 -0.0486 -0.3811
  503MOL0     C67800   9.711   2.837   3.059  0.0066 -0.0039  0.4227
  503MOL0     O67801   9.790   2.932   3.019 -0.4962  0.6762  0.6354
  503MOL0     C67802   9.925   2.909   3.011  0.1903 -0.5161  0.0344
  503MOL0     C67803   9.984   2.960   2.895 -0.4273 -0.2363  0.3351
  503MOL0     C67804  10.121   2.959   2.882 -0.0114  0.3881 -0.4877
  503MOL0     C67805  10.201   2.896   2.980 -0.6908  0.1015 -0.0165
  503MOL0     O67806  10.335   2.875   2.956  0.4367  0.6748 -0.3211
  503MOL0     C67807  10.415   2.991   2.937  0.4266  0.2297 -0.1431
  503MOL0     C67808  10.524   2.981   3.042  0.3940 -0.0162  0.5836
  503MOL0     C67809  10.633   3.084   3.028  0.7790 -0.4966  0.9677
  503MOL0     C67810  10.704   3.111   3.161 -0.5999  0.4351 -0.4133
  503MOL0     C67811  10.840   3.181   3.146 -0.3859 -0.4021 -0.2125
  503MOL0     C67812  10.929   3.171   3.267 -0.3740 -0.3746  0.0504
  503MOL0     C67813  11.061   3.247   3.252 -0.4761  0.6788  0.7890
  503MOL0     C67814  11.168   3.189   3.345 -0.1264  0.2194 -0.9171
  503MOL0    Cl67815  11.124   3.149   3.512 -0.1625  0.2111  0.2058
  503MOL0     C67816  10.138   2.846   3.095  0.7567  0.1052 -0.5477
  503MOL0     C67817  10.001   2.855   3.116  0.4310 -0.4988  0.3677
  503MOL0     O67818   9.748   2.717   3.076  0.8163 -0.0854  0.8058
  503MOL0     C67819   9.536   3.013   3.070  0.3433  0.6636  0.1534
  503MOL0     C67820   9.405   3.057   3.080  0.4411  0.0953 -0.6228
  503MOL0     N67821   9.209   3.078   3.544 -0.2173 -0.3056  0.5492
  503MOL0     N67822   9.334   3.112   3.566 -0.3333  0.3762 -0.4557
  503MOL0     C67823  10.578   3.456   3.248  0.3417 -0.4667  0.1655
  503MOL0     C67824  10.620   3.585   3.224 -0.7090  0.0451  0.7565
  503MOL0     C67825  10.738   3.942   2.979  0.2230 -0.8179 -0.1738
  503MOL0     C67826  10.835   3.964   2.881  0.7654 -1.0001  0.5696
  503MOL0     C67827  10.849   4.091   2.816  0.1887 -0.2579  0.4166
  503MOL0     C67828  10.775   4.204   2.860 -0.2453 -1.3891  0.0906
  503MOL0     O67829  10.763   4.330   2.801  0.1874  0.0781  0.0788
  503MOL0     C67830  10.846   4.352   2.680  0.1754 -0.0401  0.4127
  503MOL0     C67831  10.850   4.499   2.635  0.2846 -0.4478  0.3219
  503MOL0     C67832  10.706   4.553   2.639 -0.2399 -0.2679 -0.2200
  503MOL0     C67833  10.717   4.699   2.593  0.7098 -0.8742  0.0117
  503MOL0     C67834  10.776   4.793   2.686 -0.7092 -0.5534 -0.5401
  503MOL0     C67835  10.819   4.868   2.776  0.1064  1.2368  0.1440
  503MOL0     C67836  10.691   4.185   2.972 -0.1368 -0.0100  0.9208
  503MOL0     C67837  10.664   4.058   3.028  0.3372 -0.1020 -0.1515
  503MOL0     H67838  10.346   3.691   3.048 -0.9602  0.1244  1.1536
  503MOL0     H67839  10.277   3.473   3.098  0.8529 -3.7239  2.3834
  503MOL0     H67840  10.237   3.272   3.130  0.6215 -0.9641 -0.9048
  503MOL0     H67841  10.285   3.127   3.212  0.7365 -0.0655 -2.3895
  503MOL0     H67842  10.271   3.261   3.426  1.8113  2.3308  0.3310
  503MOL0     H67843  10.196   3.397   3.343  0.5375 -0.1011  1.5470
  503MOL0     H67844  10.014   3.246   3.245  0.7807  1.8491 -0.1392
  503MOL0     H67845  10.083   3.119   3.347  0.0684  0.0696  0.8313
  503MOL0     H67846  10.040   3.262   3.548  0.6185  0.6448 -0.0396
  503MOL0     H67847   9.990   3.393   3.444  0.9517  0.5773  3.0063
  503MOL0     H67848   9.838   3.123   3.499 -0.2215 -0.1380  0.7771
  503MOL0     H67849   9.806   3.273   3.579 -0.2951  1.7156 -0.6806
  503MOL0     H67850   9.748   3.393   3.379 -1.1369 -0.0925  1.1241
  503MOL0     H67851   9.789   3.254   3.279  3.3088 -2.0975  0.4825
  503MOL0     H67852   9.561   3.222   3.297  0.1651 -1.8998  0.3190
  503MOL0     H67853   9.629   3.120   3.432  1.5989 -0.1756 -2.1856
  503MOL0     H67854   9.503   3.397   3.480 -0.8515  0.1147  1.6214
  503MOL0     H67855   9.562   3.278   3.590  1.2553  2.6141 -0.5560
  503MOL0     H67856   9.259   3.319   3.334  2.2936  0.0712 -0.8518
  503MOL0     H67857   8.950   3.086   3.472 -2.2670  0.9658 -0.6291
  503MOL0     H67858   8.971   3.262   3.467 -4.0091 -1.4411 -0.2781
  503MOL0     H67859   9.055   3.227   3.214 -3.2583  0.3142 -2.5162
  503MOL0     H67860   8.892   3.226   3.257  0.4328  1.9552 -1.7415
  503MOL0     H67861   8.915   3.045   3.107 -0.8305  1.4902  0.4843
  503MOL0     H67862   8.869   2.992   3.263 -0.8011  3.1452  0.6453
  503MOL0     H67863   9.047   2.851   3.145  1.2188 -0.6761 -1.5645
  503MOL0     H67864   9.106   2.898   3.301 -0.0070  0.3257 -0.1332
  503MOL0     H67865   9.258   2.764   3.175  1.4248 -1.9647 -0.8089
  503MOL0     H67866   9.500   2.594   3.053 -2.1171 -1.0308  1.1946
  503MOL0     H67867   9.576   2.616   3.210  1.7938  0.6252 -3.8652
  503MOL0     H67868   9.399   2.600   3.210  0.1142  0.8050  3.6354
  503MOL0     H67869   9.916   3.009   2.826 -0.8151 -0.8022  0.3069
  503MOL0     H67870  10.162   2.994   2.788 -1.1068  3.5177  0.0872
  503MOL0     H67871  10.452   2.987   2.834  1.7840  3.4588  0.0948
  503MOL0     H67872  10.352   3.081   2.942 -1.0654 -0.8552  1.5121
  503MOL0     H67873  10.477   2.986   3.141  1.3323 -0.1409  1.0418
  503MOL0     H67874  10.576   2.885   3.038  0.8574  0.1847  1.4948
  503MOL0     H67875  10.586   3.175   2.989  0.1830  0.0417  2.8751
  503MOL0     H67876  10.702   3.049   2.950 -1.2273  1.8227 -2.0544
  503MOL0     H67877  10.637   3.159   3.233 -0.0539  1.0458 -0.3055
  503MOL0     H67878  10.725   3.016   3.211  0.8016  1.1306  0.3728
  503MOL0     H67879  10.816   3.286   3.128  0.5070 -0.1574 -0.0147
  503MOL0     H67880  10.899   3.140   3.064 -3.9103 -1.0767 -2.6171
  503MOL0     H67881  10.870   3.185   3.358  0.4076 -1.3291  0.7178
  503MOL0     H67882  10.965   3.069   3.280 -0.5910 -0.3691  0.6883
  503MOL0     H67883  11.047   3.351   3.283 -1.8318 -0.1020  3.0615
  503MOL0     H67884  11.101   3.235   3.150 -3.2489  0.3291 -0.3356
  503MOL0     H67885  11.246   3.265   3.351 -0.0385  0.0218  0.9142
  503MOL0     H67886  11.205   3.097   3.297 -2.5023 -1.4955  0.3276
  503MOL0     H67887  10.198   2.792   3.168  1.2130  1.1851 -0.1093
  503MOL0     H67888   9.953   2.819   3.206 -0.3689 -1.5437 -0.4566
  503MOL0     H67889   9.603   3.079   3.016  1.4138  0.1494  0.8185
  503MOL0     H67890   9.375   3.157   3.052 -0.1768 -0.4220 -1.8879
  503MOL0     H67891  10.629   3.386   3.313  1.0161 -3.7271 -3.4495
  503MOL0     H67892  10.717   3.622   3.256  1.5970 -3.4366 -1.5087
  503MOL0     H67893  10.903   3.887   2.845 -0.1002 -1.1035 -0.9044
  503MOL0     H67894  10.912   4.105   2.729  0.0948 -1.1654  0.1964
  503MOL0     H67895  10.949   4.318   2.694  0.6358  0.8223 -0.6949
  503MOL0     H67896  10.805   4.307   2.589 -2.3703  3.2395 -0.2398
  503MOL0     H67897  10.897   4.494   2.537  1.3043 -2.0876  0.8543
  503MOL0     H67898  10.914   4.561   2.698  0.3555  0.6717 -0.8120
  503MOL0     H67899  10.668   4.551   2.741 -0.9093 -1.5842 -0.4808
  503MOL0     H67900  10.633   4.501   2.576  1.4841 -3.5988  0.3296
  503MOL0     H67901  10.614   4.724   2.568  1.5255 -0.6084 -3.6578
  503MOL0     H67902  10.778   4.688   2.503 -1.0554 -2.4985 -1.0616
  503MOL0     H67903  10.852   4.929   2.858 -0.9664  1.2503  0.5825
  503MOL0     H67904  10.642   4.267   3.024 -1.6718 -0.3126  0.0215
  503MOL0     H67905  10.592   4.043   3.108 -0.2700  1.4781 -0.3675
  504MOL0     O67906   2.459  10.361   8.063  0.1079 -0.3111 -0.3642
  504MOL0     C67907   2.543  10.292   8.008  0.0544 -0.0468  0.2216
  504MOL0     O67908   2.521  10.162   7.965  0.1340  0.1215 -0.1818
  504MOL0     C67909   2.414  10.094   8.007  0.1571 -0.6727  0.4219
  504MOL0     C67910   2.419   9.994   8.106  0.0360  0.8748 -0.4601
  504MOL0     C67911   2.296   9.929   8.148  0.0132 -0.8586  0.5003
  504MOL0     C67912   2.178   9.951   8.081 -0.5688  0.4006  0.2479
  504MOL0     O67913   2.058   9.884   8.084 -0.5917  0.6782 -0.4117
  504MOL0     C67914   2.052   9.747   8.135 -0.3930  0.2069  0.6919
  504MOL0     C67915   1.945   9.665   8.049 -0.1474 -0.0609 -0.2921
  504MOL0     C67916   1.799   9.691   8.088  0.4882 -0.4404  0.8755
  504MOL0     C67917   1.704   9.604   8.000  0.3161 -0.2083  0.2958
  504MOL0     C67918   1.558   9.636   8.015 -0.0970  0.2506  0.4165
  504MOL0     C67919   1.471   9.549   7.925 -0.3211 -0.1127 -0.0467
  504MOL0     C67920   1.331   9.545   7.966  0.3139 -0.1977  0.0348
  504MOL0     C67921   1.290   9.468   8.088 -1.2539 -0.6382  0.7420
  504MOL0     N67922   1.351   9.328   8.102  0.3432  0.1939 -0.3795
  504MOL0     C67923   1.432   9.291   8.201 -0.2295  0.0242  0.5562
  504MOL0     C67924   1.476   9.168   8.171 -0.2102 -0.7579  0.8558
  504MOL0     C67925   1.588   9.104   8.240 -0.7790  0.4891 -1.0284
  504MOL0     C67926   1.535   8.990   8.331  0.3348  0.3528 -0.5640
  504MOL0     C67927   1.637   8.941   8.437 -0.7476  0.4348 -0.0587
  504MOL0     C67928   1.720   8.832   8.373  0.5733  0.6025 -0.0169
  504MOL0     O67929   1.826   8.787   8.456 -0.2947 -0.3577  0.7871
  504MOL0     C67930   1.941   8.868   8.479  0.2370 -0.2611 -0.1772
  504MOL0     C67931   2.031   8.838   8.578  0.1142 -0.2006  0.0315
  504MOL0     C67932   2.153   8.912   8.595  0.5543  0.2831  0.4621
  504MOL0     C67933   2.260   8.875   8.691 -0.5065  0.4385 -0.0008
  504MOL0     C67934   2.167   9.025   8.519  0.3860  0.0498 -0.9536
  504MOL0     C67935   2.281   9.119   8.530  0.6036  0.2931 -0.9055
  504MOL0     O67936   2.412   9.074   8.540  0.3198  0.0319  0.4641
  504MOL0     C67937   2.508   9.161   8.570  1.5862 -0.5759 -1.0299
  504MOL0     C67938   2.554   9.254   8.480 -0.1716 -0.4676 -0.4327
  504MOL0     C67939   2.651   9.342   8.516 -0.2263 -0.0035 -0.2232
  504MOL0     C67940   2.708   9.343   8.648  0.2800 -0.6369  0.7375
  504MOL0     O67941   2.814   9.437   8.682 -0.3951 -0.0210  0.4606
  504MOL0     C67942   2.866   9.425   8.817 -0.0797 -0.7347  0.1106
  504MOL0     C67943   2.966   9.535   8.842 -0.1454 -0.0770 -0.1987
  504MOL0     C67944   2.980   9.553   8.999  0.4713 -0.8772 -0.1012
  504MOL0     C67945   3.074   9.665   9.033 -1.1314  0.1294 -0.0974
  504MOL0     C67946   3.219   9.628   9.018 -0.8048  0.1288  0.0717
  504MOL0     C67947   3.314   9.736   9.032  0.2511  0.1267 -0.3796
  504MOL0     C67948   3.317   9.802   9.170 -0.7431 -0.0737  0.1566
  504MOL0     C67949   3.415   9.921   9.185 -0.3024  0.0759  0.9807
  504MOL0    Cl67950   3.587   9.867   9.199  0.4906 -0.0179 -0.2785
  504MOL0     C67951   2.660   9.246   8.730  0.6420 -0.7207  0.6541
  504MOL0     C67952   2.557   9.156   8.699  0.6033 -0.1071 -0.0256
  504MOL0     O67953   2.248   9.233   8.554 -0.2287 -0.8493  0.1944
  504MOL0     C67954   2.078   9.065   8.424 -0.1399  0.9166  0.0298
  504MOL0     C67955   1.971   8.984   8.399 -0.3999 -0.2525  0.8307
  504MOL0     N67956   1.412   9.121   8.058  0.8698  0.1371  0.3144
  504MOL0     N67957   1.334   9.224   8.016 -0.3205  0.1590 -0.7981
  504MOL0     C67958   2.177  10.049   7.980 -0.0588 -0.2046 -0.2154
  504MOL0     C67959   2.290  10.130   7.941  0.0585  0.4755 -0.8755
  504MOL0     C67960   2.670  10.349   7.983 -1.1757  0.8468  1.4323
  504MOL0     C67961   2.782  10.258   7.954  0.7129  0.0382 -0.1081
  504MOL0     C67962   2.914  10.315   7.924  0.5142  0.9550 -0.8551
  504MOL0     C67963   2.929  10.448   7.912 -0.8433  0.0594  0.4003
  504MOL0     O67964   3.046  10.512   7.895 -0.9975 -0.2716 -0.0234
  504MOL0     C67965   3.169  10.436   7.883  0.7608 -0.3007  0.2328
  504MOL0     C67966   3.282  10.539   7.880 -0.1087 -0.5905  0.7779
  504MOL0     C67967   3.415  10.465   7.850 -0.1181 -0.5869  0.1938
  504MOL0     C67968   3.531  10.554   7.881 -0.0776  0.1317 -0.4759
  504MOL0     C67969   3.653  10.470   7.901 -0.6644 -0.4756 -0.7577
  504MOL0     C67970   3.763  10.415   7.903  0.5400  0.0188 -0.2094
  504MOL0     C67971   2.824  10.531   7.942 -0.3860 -0.4524  0.7858
  504MOL0     C67972   2.699  10.485   7.978  0.0967 -0.3014  0.2998
  504MOL0     H67973   2.519   9.981   8.146 -0.8859  0.4913  1.8723
  504MOL0     H67974   2.310   9.852   8.223 -0.2653 -0.9506  0.4597
  504MOL0     H67975   2.143   9.688   8.121 -0.0742  1.1154 -1.3475
  504MOL0     H67976   2.023   9.740   8.240  2.4000 -3.3671  1.4256
  504MOL0     H67977   1.961   9.691   7.943  2.5243 -2.2008 -0.5023
  504MOL0     H67978   1.957   9.557   8.062  0.5455  0.1700  1.1080
  504MOL0     H67979   1.787   9.659   8.192 -3.4073 -1.9343  0.1445
  504MOL0     H67980   1.788   9.799   8.098  2.5530 -0.3363  3.1981
  504MOL0     H67981   1.735   9.629   7.898  0.9371 -0.8579  0.3136
  504MOL0     H67982   1.719   9.497   8.018  0.8251  0.0655  1.6604
  504MOL0     H67983   1.525   9.611   8.116 -0.7552 -0.3545  0.0708
  504MOL0     H67984   1.530   9.741   8.002  0.5007  0.5751  1.6123
  504MOL0     H67985   1.480   9.601   7.829 -1.6467 -1.5564 -0.9992
  504MOL0     H67986   1.510   9.449   7.906 -1.5050 -0.5029 -0.4742
  504MOL0     H67987   1.301   9.650   7.976  0.2513 -0.3600  2.0492
  504MOL0     H67988   1.270   9.507   7.884 -0.1661 -0.0403  0.3082
  504MOL0     H67989   1.181   9.475   8.093 -1.0963  2.7649  1.6388
  504MOL0     H67990   1.324   9.528   8.172  1.4853 -0.8874 -0.0805
  504MOL0     H67991   1.471   9.359   8.277  2.6723  1.4118 -1.9391
  504MOL0     H67992   1.656   9.066   8.163  1.0181  1.3620  0.0669
  504MOL0     H67993   1.645   9.167   8.308  1.2043 -2.6417  0.3983
  504MOL0     H67994   1.521   8.913   8.254 -1.0362 -1.8216  1.6822
  504MOL0     H67995   1.438   9.008   8.379  1.9138  1.5750  2.4231
  504MOL0     H67996   1.596   8.900   8.530  0.4559  0.9411  0.7207
  504MOL0     H67997   1.703   9.023   8.468 -0.2493 -0.3745  1.1100
  504MOL0     H67998   1.769   8.850   8.277 -1.0229 -1.2562 -1.2523
  504MOL0     H67999   1.659   8.742   8.365  1.9074 -0.3645  0.3718
  504MOL0     H68000   2.019   8.752   8.643  3.7490  1.1456  2.8471
  504MOL0     H68001   2.356   8.856   8.643 -1.5746  1.7769 -2.8466
  504MOL0     H68002   2.277   8.949   8.770 -0.0192 -1.2082  1.5308
  504MOL0     H68003   2.231   8.791   8.755 -1.7278  1.3385  0.6723
  504MOL0     H68004   2.514   9.258   8.379 -1.1035  1.4857 -0.0261
  504MOL0     H68005   2.698   9.409   8.444  2.7939 -0.9231  0.7391
  504MOL0     H68006   2.792   9.431   8.896 -0.6427  0.5746 -0.4746
  504MOL0     H68007   2.925   9.333   8.826  1.1823 -0.0259 -0.5297
  504MOL0     H68008   3.064   9.511   8.800 -0.2953  0.2758 -0.7674
  504MOL0     H68009   2.932   9.628   8.795 -0.3002 -0.7245 -1.4229
  504MOL0     H68010   3.011   9.459   9.045 -0.7299 -0.8753  0.7695
  504MOL0     H68011   2.885   9.584   9.042  1.5400  0.6832  1.2581
  504MOL0     H68012   3.043   9.745   8.966  0.8985  0.5143 -0.6289
  504MOL0     H68013   3.061   9.698   9.137 -1.5355  1.0679 -0.4433
  504MOL0     H68014   3.232   9.586   8.918 -0.7253  3.4661 -1.4490
  504MOL0     H68015   3.240   9.547   9.088 -2.4291 -0.0105  0.4301
  504MOL0     H68016   3.416   9.703   9.013  0.3776 -0.7337  1.5396
  504MOL0     H68017   3.289   9.817   8.963  0.8964  0.8799  0.2388
  504MOL0     H68018   3.334   9.728   9.248 -2.2161  2.5110  3.1549
  504MOL0     H68019   3.221   9.847   9.197 -1.0275 -1.6218  1.9124
  504MOL0     H68020   3.397   9.978   9.276 -0.2596  1.3202  0.2296
  504MOL0     H68021   3.403   9.999   9.110 -1.6300 -2.7462 -2.0200
  504MOL0     H68022   2.695   9.236   8.832 -0.8027 -0.8638  1.1632
  504MOL0     H68023   2.515   9.093   8.776  0.9304  1.3609  1.4049
  504MOL0     H68024   2.096   9.151   8.362 -0.6624  0.9302 -0.1082
  504MOL0     H68025   1.911   9.004   8.310  0.5499 -0.7672  0.0600
  504MOL0     H68026   2.080  10.060   7.933 -0.1769 -1.3936 -0.2799
  504MOL0     H68027   2.278  10.207   7.866  0.6079  2.9085  1.4006
  504MOL0     H68028   2.770  10.150   7.958  0.7224 -0.0035 -1.0898
  504MOL0     H68029   2.998  10.247   7.923 -0.5264 -0.3738 -1.1856
  504MOL0     H68030   3.174  10.384   7.979  1.8367 -1.2670 -0.3208
  504MOL0     H68031   3.159  10.364   7.802 -1.4756 -1.5427  1.5093
  504MOL0     H68032   3.295  10.596   7.973  1.3160  1.3568 -0.5238
  504MOL0     H68033   3.263  10.613   7.801 -1.5363  0.4710  2.0711
  504MOL0     H68034   3.415  10.434   7.745 -1.7337 -0.1930  0.0455
  504MOL0     H68035   3.415  10.374   7.910 -2.3159 -2.2304 -2.1009
  504MOL0     H68036   3.509  10.610   7.972 -3.1011  1.3942 -1.8623
  504MOL0     H68037   3.560  10.623   7.801  4.9757  0.9812  1.6724
  504MOL0     H68038   3.853  10.360   7.918 -1.5452 -3.4394  0.7258
  504MOL0     H68039   2.836  10.639   7.933  1.0746 -0.4901  1.9607
  504MOL0     H68040   2.626  10.558   8.011 -2.3780 -0.9015 -3.2376
  505MOL0     O68041   5.554   4.602   5.492 -0.4636 -1.0667  0.3908
  505MOL0     C68042   5.640   4.524   5.444  0.3496 -0.0005  0.2446
  505MOL0     O68043   5.613   4.427   5.356 -0.7854  0.5127 -0.0715
  505MOL0     C68044   5.495   4.410   5.295  1.0513 -0.5070 -0.1940
  505MOL0     C68045   5.462   4.278   5.250  0.2982 -0.3595  0.2711
  505MOL0     C68046   5.341   4.248   5.198  1.0759  0.2380  0.2806
  505MOL0     C68047   5.243   4.347   5.189 -0.7051  0.2296  0.5522
  505MOL0     O68048   5.123   4.294   5.153 -0.3566 -0.8326  0.6759
  505MOL0     C68049   5.025   4.388   5.115 -0.8755 -0.3940 -0.3703
  505MOL0     C68050   4.900   4.316   5.077 -0.3315  0.4266 -0.6562
  505MOL0     C68051   4.815   4.260   5.198  0.0882 -0.6238 -0.4383
  505MOL0     C68052   4.820   4.107   5.199 -0.4466 -0.1560 -0.6817
  505MOL0     C68053   4.721   4.059   5.314  0.2753  0.2530 -0.0560
  505MOL0     C68054   4.780   4.053   5.452  0.2198 -0.5726 -0.3984
  505MOL0     C68055   4.892   3.947   5.470 -0.2578  0.1186  0.1964
  505MOL0     C68056   5.042   4.004   5.453 -0.4264 -0.4132 -0.3790
  505MOL0     N68057   5.072   4.111   5.560 -0.1643  0.4000  0.9020
  505MOL0     C68058   5.174   4.203   5.541  0.0149  0.0922 -0.0948
  505MOL0     C68059   5.189   4.268   5.664 -0.0867  0.1800  0.2018
  505MOL0     C68060   5.288   4.380   5.699  0.5563 -0.0396  1.0281
  505MOL0     C68061   5.273   4.516   5.636 -0.3680  0.0847 -0.5058
  505MOL0     C68062   5.146   4.591   5.673 -0.4256 -0.5840  0.0163
  505MOL0     C68063   5.015   4.518   5.658  1.1123 -0.3369  0.4813
  505MOL0     O68064   4.914   4.607   5.614 -0.0293 -0.1156  0.7954
  505MOL0     C68065   4.794   4.552   5.572  0.4759  0.0965  0.5124
  505MOL0     C68066   4.704   4.638   5.509  0.2440 -0.1801  0.8728
  505MOL0     C68067   4.572   4.601   5.474  0.3662  0.0080  0.4267
  505MOL0     C68068   4.473   4.702   5.408 -0.2288 -0.5141 -0.2900
  505MOL0     C68069   4.542   4.461   5.483 -0.2591 -0.0019 -0.4383
  505MOL0     C68070   4.414   4.408   5.450 -0.2124  0.2409  0.0824
  505MOL0     O68071   4.303   4.485   5.479  0.0535  0.5539 -0.4709
  505MOL0     C68072   4.185   4.457   5.422  0.7087 -1.1805  0.1321
  505MOL0     C68073   4.163   4.462   5.290 -0.1888  0.0257 -0.7406
  505MOL0     C68074   4.045   4.418   5.229 -0.5079 -0.1815 -0.1691
  505MOL0     C68075   3.938   4.374   5.302 -0.2077 -1.3252  0.7295
  505MOL0     O68076   3.834   4.325   5.233  0.3773  0.6363  0.2837
  505MOL0     C68077   3.809   4.190   5.274 -0.9006 -0.0562  0.3343
  505MOL0     C68078   3.752   4.111   5.163  0.1077  0.4575 -0.1528
  505MOL0     C68079   3.615   4.170   5.129 -1.1831 -0.5394 -0.0760
  505MOL0     C68080   3.556   4.094   5.008 -0.4639 -0.8682  0.5044
  505MOL0     C68081   3.422   4.165   4.966  0.4342  0.3322  0.1065
  505MOL0     C68082   3.336   4.084   4.869  0.0607  0.2686 -0.2701
  505MOL0     C68083   3.191   4.140   4.856 -0.1781  0.5484  0.6774
  505MOL0     C68084   3.175   4.289   4.827  0.0705 -0.1326 -0.0487
  505MOL0    Cl68085   3.222   4.347   4.660  0.0718  0.3007  0.2329
  505MOL0     C68086   3.961   4.365   5.438 -0.2656  0.2706 -0.3353
  505MOL0     C68087   4.086   4.392   5.499  0.6922  0.2205 -0.3726
  505MOL0     O68088   4.409   4.293   5.403 -0.0096 -0.9150  0.1375
  505MOL0     C68089   4.642   4.373   5.537 -0.2111  0.6446  0.2287
  505MOL0     C68090   4.766   4.417   5.578  1.3741 -0.3345  0.3741
  505MOL0     N68091   5.099   4.209   5.756  0.1724 -0.1563 -0.0131
  505MOL0     N68092   5.027   4.129   5.686 -0.2638 -0.1748  0.0778
  505MOL0     C68093   5.278   4.478   5.214  0.5982  0.2497  0.0928
  505MOL0     C68094   5.395   4.510   5.281 -1.0443  0.1277  0.7330
  505MOL0     C68095   5.772   4.531   5.503 -0.2745  0.3338 -0.5380
  505MOL0     C68096   5.799   4.615   5.603 -0.0474 -0.8552 -0.0671
  505MOL0     C68097   5.923   4.625   5.666 -0.6727  0.6013  0.5547
  505MOL0     C68098   6.029   4.540   5.616  0.0143 -0.1203  0.4335
  505MOL0     O68099   6.161   4.553   5.666  0.3835  0.0162 -0.5839
  505MOL0     C68100   6.189   4.593   5.800  0.4622 -0.3890 -0.8624
  505MOL0     C68101   6.244   4.742   5.802 -0.0033  1.0184 -0.7125
  505MOL0     C68102   6.268   4.776   5.953 -0.1049 -0.3541 -0.2762
  505MOL0     C68103   6.314   4.921   5.975 -0.4150  0.1481  0.8823
  505MOL0     C68104   6.451   4.916   5.931  0.2264 -0.9000 -0.4337
  505MOL0     C68105   6.570   4.922   5.899  1.0956  0.4205 -0.3952
  505MOL0     C68106   6.012   4.459   5.501 -1.4355 -1.2539 -0.5642
  505MOL0     C68107   5.880   4.446   5.457  0.4783  0.6942  0.1266
  505MOL0     H68108   5.533   4.196   5.257  1.7747  0.9078  0.8473
  505MOL0     H68109   5.318   4.146   5.170  1.4739  0.4580 -0.9196
  505MOL0     H68110   5.012   4.458   5.198 -0.1440 -0.2446 -0.3695
  505MOL0     H68111   5.069   4.440   5.029  1.7893 -1.3001  0.3228
  505MOL0     H68112   4.848   4.391   5.016 -0.0035  0.0497 -1.4108
  505MOL0     H68113   4.918   4.234   5.007 -1.8465  0.0759 -0.6772
  505MOL0     H68114   4.847   4.297   5.296 -1.2330  0.8175 -0.5000
  505MOL0     H68115   4.709   4.289   5.194 -0.0186 -0.7868  0.8664
  505MOL0     H68116   4.781   4.068   5.104  0.7088 -0.6877 -0.9566
  505MOL0     H68117   4.919   4.064   5.215 -0.4741  0.5675  1.9692
  505MOL0     H68118   4.638   4.130   5.318 -0.1956 -0.3321  3.5031
  505MOL0     H68119   4.679   3.962   5.286  0.3718  0.6874 -1.8511
  505MOL0     H68120   4.815   4.152   5.485  1.1754 -1.4239  1.2601
  505MOL0     H68121   4.692   4.021   5.508 -1.2979 -1.2003 -2.9923
  505MOL0     H68122   4.877   3.897   5.566 -1.9084  0.2131  0.0082
  505MOL0     H68123   4.885   3.864   5.399  2.9082 -0.7331  0.6920
  505MOL0     H68124   5.067   4.043   5.354  0.4732  0.3632  0.1465
  505MOL0     H68125   5.102   3.913   5.469  2.3433  1.7961  3.5831
  505MOL0     H68126   5.247   4.224   5.463 -0.9635  0.0477 -1.0351
  505MOL0     H68127   5.301   4.388   5.808 -2.2305 -0.0785  1.4464
  505MOL0     H68128   5.391   4.357   5.671  1.3107  1.7167  2.2126
  505MOL0     H68129   5.277   4.504   5.528 -1.8658 -1.7548 -0.4148
  505MOL0     H68130   5.357   4.582   5.661 -2.9851  3.2238  0.7882
  505MOL0     H68131   5.149   4.683   5.613  0.1158  1.0625  2.4121
  505MOL0     H68132   5.150   4.609   5.781 -0.0067 -2.3686  0.3305
  505MOL0     H68133   4.981   4.477   5.754 -2.9279  2.0112  0.3009
  505MOL0     H68134   5.035   4.441   5.583  4.7794 -1.1314  2.0811
  505MOL0     H68135   4.740   4.741   5.517  3.3089 -1.0782 -0.0434
  505MOL0     H68136   4.381   4.711   5.467  0.5862 -0.8298  1.0549
  505MOL0     H68137   4.519   4.801   5.414 -2.1742  0.3722  1.9858
  505MOL0     H68138   4.456   4.682   5.302  0.3409 -0.2940 -0.4239
  505MOL0     H68139   4.247   4.497   5.231 -1.1463  2.6449 -0.6809
  505MOL0     H68140   4.028   4.420   5.122  1.1905 -1.0912 -0.4953
  505MOL0     H68141   3.908   4.146   5.291 -0.9068  0.9121  3.4354
  505MOL0     H68142   3.747   4.185   5.364 -0.8903  4.7336  0.8606
  505MOL0     H68143   3.820   4.108   5.078  0.1123 -1.9882 -0.1491
  505MOL0     H68144   3.729   4.010   5.199 -1.1094  0.8025  0.0673
  505MOL0     H68145   3.620   4.277   5.104  1.0945  0.0628  2.5085
  505MOL0     H68146   3.548   4.169   5.216 -1.2476  1.6660 -0.0392
  505MOL0     H68147   3.626   4.092   4.924 -0.3224  0.4931  0.5671
  505MOL0     H68148   3.546   3.992   5.045  3.1844 -1.3746  0.4556
  505MOL0     H68149   3.449   4.264   4.928  0.6542 -0.1949 -1.1826
  505MOL0     H68150   3.360   4.175   5.055  1.7839  0.5336  1.0464
  505MOL0     H68151   3.376   4.098   4.768 -1.0145  0.2280 -0.7205
  505MOL0     H68152   3.329   3.978   4.894 -1.7589  0.3814 -0.1022
  505MOL0     H68153   3.147   4.119   4.954 -0.0165 -1.4504  0.3545
  505MOL0     H68154   3.133   4.081   4.784  3.6636 -0.1819 -2.1074
  505MOL0     H68155   3.227   4.342   4.907  1.3954 -1.7542  0.2429
  505MOL0     H68156   3.071   4.314   4.845  0.1094 -0.3783  0.5320
  505MOL0     H68157   3.888   4.326   5.509 -0.6269  0.2176 -0.7301
  505MOL0     H68158   4.100   4.383   5.606 -1.3039  1.6544  0.0591
  505MOL0     H68159   4.611   4.270   5.549 -1.1091  1.0989  2.2168
  505MOL0     H68160   4.835   4.344   5.620 -0.0907 -2.9091 -1.3943
  505MOL0     H68161   5.214   4.563   5.193  0.6879  0.1294 -0.6896
  505MOL0     H68162   5.410   4.610   5.321  2.9599 -0.2020  0.3990
  505MOL0     H68163   5.724   4.674   5.656  1.8498  0.5116  1.2595
  505MOL0     H68164   5.943   4.690   5.750 -1.3325  3.1835 -1.1604
  505MOL0     H68165   6.114   4.562   5.874  2.2192 -1.6267  0.4597
  505MOL0     H68166   6.271   4.527   5.829 -0.1333 -0.9423 -0.3977
  505MOL0     H68167   6.174   4.817   5.764 -1.3128  0.4905  0.5559
  505MOL0     H68168   6.335   4.746   5.742  0.4991 -1.3637 -0.2246
  505MOL0     H68169   6.338   4.704   5.996  1.8794  0.0370 -2.6266
  505MOL0     H68170   6.174   4.766   6.009 -0.2440  0.0255 -0.4368
  505MOL0     H68171   6.314   4.936   6.084 -2.2365  1.3425  0.7735
  505MOL0     H68172   6.243   4.989   5.927 -0.7561  0.3002  1.5792
  505MOL0     H68173   6.674   4.914   5.872  1.5308 -0.1479  1.3123
  505MOL0     H68174   6.095   4.405   5.458 -0.6305 -1.7547  1.5139
  505MOL0     H68175   5.863   4.372   5.379  2.5926  0.8343 -0.5403
  506MOL0     O68176   7.402   8.364   9.903  0.1508 -0.0598  0.2099
  506MOL0     C68177   7.455   8.254   9.909 -0.0142 -0.6635  0.9349
  506MOL0     O68178   7.481   8.168   9.800  0.3768  0.3085  0.5655
  506MOL0     C68179   7.402   8.178   9.685 -0.1321  0.0136 -0.0736
  506MOL0     C68180   7.461   8.168   9.562  0.3368 -0.8578 -0.1752
  506MOL0     C68181   7.392   8.196   9.444 -1.1010  0.6664  0.2707
  506MOL0     C68182   7.256   8.236   9.456 -0.3846 -1.1944  0.2556
  506MOL0     O68183   7.167   8.267   9.349 -0.1305  1.0016 -0.1609
  506MOL0     C68184   7.234   8.290   9.225 -0.3467 -0.6195 -0.9603
  506MOL0     C68185   7.124   8.319   9.126  1.1621 -0.7937  0.3278
  506MOL0     C68186   7.182   8.372   8.993  0.3892  0.3533 -0.6107
  506MOL0     C68187   7.249   8.259   8.901 -0.0833 -0.6412 -0.1189
  506MOL0     C68188   7.306   8.320   8.776  0.6963  0.1442 -0.3860
  506MOL0     C68189   7.396   8.217   8.716  0.3441 -0.3283  0.2739
  506MOL0     C68190   7.473   8.263   8.596  1.3186  0.1101  0.3380
  506MOL0     C68191   7.548   8.145   8.528  1.1444 -0.1174  1.2708
  506MOL0     N68192   7.632   8.191   8.422  0.9166 -0.3578  0.1336
  506MOL0     C68193   7.758   8.242   8.441  0.3548  0.0836 -0.4100
  506MOL0     C68194   7.808   8.257   8.313 -0.1342  0.0835 -0.7755
  506MOL0     C68195   7.949   8.298   8.293 -0.2836 -0.3725 -0.1467
  506MOL0     C68196   8.013   8.228   8.170 -0.2318  0.0978 -0.3071
  506MOL0     C68197   8.137   8.307   8.120  0.4772 -0.3884  0.0054
  506MOL0     C68198   8.230   8.240   8.023 -0.0987 -0.6433 -0.5031
  506MOL0     O68199   8.322   8.337   7.982  0.1983 -0.6143  0.3442
  506MOL0     C68200   8.443   8.289   7.934  0.5101  0.3045 -0.6677
  506MOL0     C68201   8.482   8.321   7.805  0.4078 -0.5872  0.1793
  506MOL0     C68202   8.589   8.259   7.739  0.2054 -0.4524  0.1768
  506MOL0     C68203   8.629   8.319   7.607 -0.0509  0.6434  0.8904
  506MOL0     C68204   8.657   8.155   7.810  0.4213  0.7023 -0.0287
  506MOL0     C68205   8.773   8.072   7.763 -0.2307 -0.3257 -0.6642
  506MOL0     O68206   8.805   7.958   7.826 -0.0493 -0.2606  0.4342
  506MOL0     C68207   8.924   7.902   7.790  0.1499  1.1120 -0.3052
  506MOL0     C68208   9.033   7.911   7.883  0.5153  0.0683 -0.2919
  506MOL0     C68209   9.154   7.845   7.845 -0.0341 -0.2009 -0.8731
  506MOL0     C68210   9.177   7.791   7.719  0.3248  0.4994  0.5253
  506MOL0     O68211   9.310   7.757   7.681  0.2260 -0.5703  0.6116
  506MOL0     C68212   9.331   7.666   7.571  0.4686 -0.4941  0.1255
  506MOL0     C68213   9.470   7.621   7.555 -0.4246  0.1027 -0.1620
  506MOL0     C68214   9.565   7.743   7.541 -0.1768  0.7038  0.0679
  506MOL0     C68215   9.707   7.685   7.509 -0.1474  0.1755 -0.5250
  506MOL0     C68216   9.802   7.805   7.459 -0.2651  0.4035  0.8781
  506MOL0     C68217   9.950   7.762   7.460  0.7604 -0.8164 -1.1867
  506MOL0     C68218   9.998   7.687   7.341 -0.0449  0.4933  0.4811
  506MOL0     C68219  10.008   7.755   7.206  0.6385 -0.0644 -0.0622
  506MOL0    Cl68220   9.840   7.730   7.132 -0.8433  0.0454  0.0275
  506MOL0     C68221   9.067   7.779   7.629 -0.8004 -0.5099 -0.3970
  506MOL0     C68222   8.938   7.830   7.667 -0.0112  0.5666 -0.2016
  506MOL0     O68223   8.831   8.118   7.666 -0.0333 -0.0643  0.4617
  506MOL0     C68224   8.609   8.120   7.939 -0.0406  0.1943  0.2555
  506MOL0     C68225   8.508   8.187   8.003  0.3666 -0.1734  0.2048
  506MOL0     N68226   7.702   8.208   8.225  0.2844  0.1727 -0.2209
  506MOL0     N68227   7.604   8.160   8.292  0.1389 -0.2018 -0.5089
  506MOL0     C68228   7.194   8.242   9.579 -0.1173  0.6429  0.0435
  506MOL0     C68229   7.262   8.210   9.695  0.0246 -0.6449 -0.2693
  506MOL0     C68230   7.505   8.221  10.039 -0.5611 -0.7172  0.4460
  506MOL0     C68231   7.456   8.103  10.093 -0.8055  0.4505 -0.5608
  506MOL0     C68232   7.510   8.047  10.205  0.7643 -0.4376 -0.7731
  506MOL0     C68233   7.595   8.119  10.281  0.1252  0.3710 -0.4295
  506MOL0     O68234   7.648   8.065  10.393 -0.3766 -0.7172  0.0204
  506MOL0     C68235   7.638   8.139  10.515  0.1573  0.0427 -0.0183
  506MOL0     C68236   7.491   8.192  10.534  0.1851  0.4211  0.2521
  506MOL0     C68237   7.391   8.077  10.542 -1.0107  0.2421  0.3806
  506MOL0     C68238   7.252   8.109  10.596 -0.5327  1.0495  0.3534
  506MOL0     C68239   7.163   7.992  10.583 -0.8231 -0.3359  0.0938
  506MOL0     C68240   7.099   7.891  10.593  0.2665 -0.2380 -0.6084
  506MOL0     C68241   7.638   8.248  10.243  0.7318  0.2776  0.4981
  506MOL0     C68242   7.591   8.302  10.126  0.4578  0.0329  0.5294
  506MOL0     H68243   7.565   8.134   9.568  0.4690 -0.5358 -0.6143
  506MOL0     H68244   7.446   8.186   9.350  0.1348  0.8423  0.9479
  506MOL0     H68245   7.310   8.368   9.240 -1.3855  0.1691  0.3917
  506MOL0     H68246   7.287   8.202   9.188 -0.9953 -0.8008 -1.4657
  506MOL0     H68247   7.053   8.237   9.115  0.6203 -0.1312 -1.3885
  506MOL0     H68248   7.058   8.399   9.163 -0.2520 -1.7571 -0.0271
  506MOL0     H68249   7.100   8.417   8.936 -2.1178  0.1512  2.5709
  506MOL0     H68250   7.240   8.456   9.031 -1.0431  0.2452  2.0182
  506MOL0     H68251   7.322   8.204   8.962 -0.5913  1.4821  2.5838
  506MOL0     H68252   7.172   8.186   8.873 -0.2898  0.7780 -3.6412
  506MOL0     H68253   7.226   8.348   8.707  3.6018 -0.7221 -4.4221
  506MOL0     H68254   7.367   8.410   8.792  2.3399 -1.3383  2.5697
  506MOL0     H68255   7.470   8.189   8.792  0.3497  0.1439  0.4471
  506MOL0     H68256   7.334   8.128   8.704  0.4718 -0.8157  2.6742
  506MOL0     H68257   7.415   8.306   8.514 -0.4318 -1.0953  0.8740
  506MOL0     H68258   7.551   8.336   8.620 -0.0150  1.9845 -0.7868
  506MOL0     H68259   7.463   8.084   8.495 -0.3508  0.7775  3.2585
  506MOL0     H68260   7.610   8.096   8.604  0.8541 -0.6648  1.1651
  506MOL0     H68261   7.803   8.277   8.533  2.3650  1.0817 -1.6989
  506MOL0     H68262   7.948   8.403   8.262 -0.4258 -0.7106 -1.3224
  506MOL0     H68263   8.014   8.289   8.381 -0.9168  0.8363  0.4720
  506MOL0     H68264   7.936   8.215   8.094  0.4624  0.8568 -1.1502
  506MOL0     H68265   8.034   8.126   8.204 -2.1475 -0.2522 -0.0823
  506MOL0     H68266   8.186   8.344   8.210  2.2817  2.2187 -1.8785
  506MOL0     H68267   8.104   8.398   8.070 -2.9247 -1.2852  0.4201
  506MOL0     H68268   8.179   8.206   7.931  1.4755  0.3105 -1.7753
  506MOL0     H68269   8.273   8.156   8.078  1.6838  0.9228  0.6169
  506MOL0     H68270   8.423   8.399   7.757  0.9794  0.2860  0.8584
  506MOL0     H68271   8.629   8.246   7.525 -3.2046  1.3559  0.1044
  506MOL0     H68272   8.558   8.396   7.575 -0.4097  0.5012  1.3448
  506MOL0     H68273   8.726   8.368   7.614  0.3944  0.7084 -3.1126
  506MOL0     H68274   9.018   7.966   7.976 -3.6240 -1.7926  0.3589
  506MOL0     H68275   9.230   7.864   7.921 -0.0406  0.6344 -1.0686
  506MOL0     H68276   9.275   7.576   7.596 -1.5787  0.8904  0.7248
  506MOL0     H68277   9.286   7.715   7.484 -1.0591 -2.7274 -0.4192
  506MOL0     H68278   9.499   7.568   7.646 -1.0146  0.3795  0.1900
  506MOL0     H68279   9.477   7.550   7.472 -1.2280  0.0579 -0.1941
  506MOL0     H68280   9.564   7.818   7.620 -2.1964  0.1906  0.5646
  506MOL0     H68281   9.524   7.797   7.455 -1.7792 -0.7539 -0.1464
  506MOL0     H68282   9.738   7.654   7.609 -1.7732  0.4173  0.0892
  506MOL0     H68283   9.709   7.596   7.444 -2.1734 -1.0693  0.9846
  506MOL0     H68284   9.779   7.893   7.520  0.1637  2.1508 -1.3733
  506MOL0     H68285   9.778   7.827   7.355  2.3880  0.6524  0.2563
  506MOL0     H68286  10.013   7.852   7.466 -0.8989  0.3057  0.5972
  506MOL0     H68287   9.968   7.708   7.553  0.4567 -2.5280 -2.0872
  506MOL0     H68288   9.940   7.596   7.328  0.4758  0.3751 -1.3703
  506MOL0     H68289  10.103   7.660   7.356  0.5012  2.3589  0.3519
  506MOL0     H68290  10.074   7.703   7.136 -0.3329  1.9087 -2.6253
  506MOL0     H68291  10.030   7.862   7.211 -0.3032  0.0881  1.7145
  506MOL0     H68292   9.085   7.745   7.527  0.9174  1.1550 -0.6962
  506MOL0     H68293   8.852   7.830   7.602 -1.4507  1.1040  1.6083
  506MOL0     H68294   8.655   8.050   8.007  2.2981  3.1927  1.9726
  506MOL0     H68295   8.477   8.158   8.103 -1.5491  1.8161  0.2602
  506MOL0     H68296   7.094   8.284   9.579 -0.8436 -1.0164  0.4693
  506MOL0     H68297   7.224   8.236   9.794  2.3520 -0.5930  0.6901
  506MOL0     H68298   7.387   8.039  10.040 -0.7321 -0.5057  0.4552
  506MOL0     H68299   7.480   7.949  10.243  0.4604  0.6848  2.1562
  506MOL0     H68300   7.654   8.063  10.592  1.4457 -0.3829 -0.6814
  506MOL0     H68301   7.713   8.218  10.521  0.4480 -0.3378  2.3373
  506MOL0     H68302   7.449   8.248  10.450 -0.7255  1.3383  1.2838
  506MOL0     H68303   7.485   8.257  10.622 -1.5215 -0.1836  0.6262
  506MOL0     H68304   7.443   8.001  10.601  0.7705  1.2104  0.1038
  506MOL0     H68305   7.380   8.045  10.438 -1.1284  0.1006  0.4359
  506MOL0     H68306   7.201   8.189  10.542 -0.7469 -0.5645 -1.9845
  506MOL0     H68307   7.259   8.135  10.702 -2.3237  0.0988  0.7376
  506MOL0     H68308   7.045   7.800  10.610 -0.7465  0.7223  1.7314
  506MOL0     H68309   7.718   8.294  10.301  0.2507 -0.9403  2.1838
  506MOL0     H68310   7.627   8.396  10.085 -1.8514 -0.0798 -2.0967
  507MOL0     O68311  10.589   0.226   7.459 -0.3701  0.6218  0.0264
  507MOL0     C68312  10.652   0.154   7.538  0.8730 -0.8877  0.0244
  507MOL0     O68313  10.593   0.078   7.636  0.0049  0.0363 -1.2451
  507MOL0     C68314  10.455   0.075   7.647  0.4802 -0.8902  0.2037
  507MOL0     C68315  10.361   0.179   7.664  0.3155  0.2685  0.0689
  507MOL0     C68316  10.231   0.151   7.681  0.3575 -0.4822  0.5734
  507MOL0     C68317  10.183   0.024   7.669 -0.2168  0.0395 -0.7513
  507MOL0     O68318  10.045   0.002   7.672  0.0966  0.0298 -0.0362
  507MOL0     C68319   9.990  -0.129   7.693 -0.5147  0.5416 -0.4181
  507MOL0     C68320   9.834  -0.112   7.713 -0.2446 -0.0765  0.1254
  507MOL0     C68321   9.766  -0.068   7.583 -0.0541  0.2552 -0.7862
  507MOL0     C68322   9.611  -0.075   7.592  0.4415 -0.0276 -0.2534
  507MOL0     C68323   9.546  -0.041   7.453 -0.6592 -0.8672 -0.2975
  507MOL0     C68324   9.494   0.105   7.433 -0.5095  0.3472  0.1376
  507MOL0     C68325   9.407   0.120   7.303  0.7203 -0.3856  0.0693
  507MOL0     C68326   9.459   0.041   7.185 -0.0547 -0.3116  0.1110
  507MOL0     N68327   9.410   0.075   7.055 -0.0683  0.1058  0.7260
  507MOL0     C68328   9.340  -0.012   6.963 -0.5714 -0.8639 -0.8858
  507MOL0     C68329   9.332   0.054   6.847  0.2123  0.3388  1.0748
  507MOL0     C68330   9.244  -0.006   6.741  0.1654 -0.2712  0.0047
  507MOL0     C68331   9.336  -0.056   6.623 -0.5983  0.4872 -0.1074
  507MOL0     C68332   9.259  -0.112   6.507  0.2481  0.7617 -0.5683
  507MOL0     C68333   9.166  -0.016   6.446 -0.5545  0.4597  0.3835
  507MOL0     O68334   9.036   0.004   6.520 -0.0095  0.0124 -1.3079
  507MOL0     C68335   8.941  -0.091   6.529  0.4116  0.1449 -0.1036
  507MOL0     C68336   8.865  -0.105   6.642 -0.0041  0.4846 -0.2600
  507MOL0     C68337   8.772  -0.208   6.651  0.9189 -0.9258 -0.0500
  507MOL0     C68338   8.697  -0.215   6.780  0.4198 -0.7694  0.1533
  507MOL0     C68339   8.744  -0.296   6.550 -0.6961  0.3717  0.2087
  507MOL0     C68340   8.643  -0.410   6.550 -0.2586 -0.5167  0.0012
  507MOL0     O68341   8.671  -0.510   6.470  0.5197 -0.6276  0.5208
  507MOL0     C68342   8.553  -0.574   6.428 -0.3204 -0.1203 -0.9166
  507MOL0     C68343   8.473  -0.525   6.323  0.2147 -0.0087 -0.5732
  507MOL0     C68344   8.375  -0.603   6.267  0.0236 -1.0610  0.4525
  507MOL0     C68345   8.358  -0.734   6.313 -0.1672  0.3815 -0.2497
  507MOL0     O68346   8.264  -0.826   6.263 -0.3713  0.3396  0.5850
  507MOL0     C68347   8.155  -0.786   6.181 -0.8598  0.0510 -0.5079
  507MOL0     C68348   8.046  -0.701   6.257 -0.5544 -0.1301 -0.3020
  507MOL0     C68349   7.945  -0.791   6.329  0.5396 -0.1980 -0.7224
  507MOL0     C68350   8.000  -0.865   6.448  0.1123  0.0216 -0.0376
  507MOL0     C68351   7.907  -0.985   6.485 -0.3806  0.6110  0.0379
  507MOL0     C68352   7.752  -0.973   6.492 -0.7172 -0.0806  0.2124
  507MOL0     C68353   7.680  -1.104   6.519 -0.4949 -0.4079 -0.4313
  507MOL0     C68354   7.593  -1.141   6.402 -0.0930 -0.2119 -0.2079
  507MOL0    Cl68355   7.462  -1.033   6.368 -0.2241 -0.1515  0.1614
  507MOL0     C68356   8.430  -0.782   6.424  0.8683  0.1321 -1.0198
  507MOL0     C68357   8.522  -0.696   6.487  0.0196  0.3719  0.7699
  507MOL0     O68358   8.547  -0.401   6.628  0.0192  0.6287 -0.3000
  507MOL0     C68359   8.821  -0.282   6.430  0.3910 -0.6416  1.5165
  507MOL0     C68360   8.922  -0.179   6.423 -0.3867  0.0889 -1.1362
  507MOL0     N68361   9.389   0.179   6.864 -0.2810 -0.6640 -0.3128
  507MOL0     N68362   9.433   0.191   6.989 -0.3961 -0.0105 -0.1058
  507MOL0     C68363  10.273  -0.077   7.639 -0.3043  0.6963 -0.9523
  507MOL0     C68364  10.410  -0.051   7.644  0.1399  0.7618 -0.0065
  507MOL0     C68365  10.798   0.165   7.537 -1.0399 -0.0407 -0.1382
  507MOL0     C68366  10.882   0.054   7.511  0.3572 -0.1639 -0.1249
  507MOL0     C68367  11.013   0.064   7.480 -0.6128 -0.3500  0.0744
  507MOL0     C68368  11.073   0.194   7.489  1.0739 -0.3035 -0.0955
  507MOL0     O68369  11.194   0.229   7.457  0.5988  0.4217 -0.6595
  507MOL0     C68370  11.290   0.128   7.470 -0.0730 -0.2759  0.4872
  507MOL0     C68371  11.405   0.210   7.547  0.2080 -0.3903  0.1615
  507MOL0     C68372  11.461   0.331   7.471 -0.2923 -0.0488 -0.4594
  507MOL0     C68373  11.549   0.298   7.356 -0.8519 -0.4204  0.6093
  507MOL0     C68374  11.589   0.411   7.263 -0.1214  0.7293 -0.0689
  507MOL0     C68375  11.640   0.500   7.199  0.3482 -0.6054  0.2884
  507MOL0     C68376  10.996   0.301   7.533 -0.7743 -0.0986 -0.0619
  507MOL0     C68377  10.854   0.297   7.549 -0.6523 -0.5211  0.0222
  507MOL0     H68378  10.387   0.284   7.655  0.6290  0.1892  0.0381
  507MOL0     H68379  10.158   0.230   7.700  1.7063  0.8327  0.4906
  507MOL0     H68380  10.016  -0.202   7.615 -0.3060  1.6833 -1.4422
  507MOL0     H68381  10.022  -0.166   7.791  2.0913  3.0648 -0.1762
  507MOL0     H68382   9.792  -0.205   7.752 -1.1975  0.1382 -0.3331
  507MOL0     H68383   9.803  -0.033   7.782 -3.7465  0.0187 -1.3281
  507MOL0     H68384   9.792   0.038   7.574 -3.5752  1.4481  1.0780
  507MOL0     H68385   9.805  -0.134   7.506  0.1242 -0.4864 -0.0770
  507MOL0     H68386   9.571  -0.169   7.630  0.2343 -0.7248 -2.0645
  507MOL0     H68387   9.590   0.006   7.662 -1.7133 -0.5278 -0.2539
  507MOL0     H68388   9.618  -0.068   7.376 -2.8833 -2.5869 -1.9328
  507MOL0     H68389   9.452  -0.097   7.452 -0.9399 -0.5470  2.1554
  507MOL0     H68390   9.430   0.131   7.517 -0.7867  1.7181 -0.4519
  507MOL0     H68391   9.580   0.173   7.431 -1.7485  1.9841 -0.2935
  507MOL0     H68392   9.309   0.082   7.335  0.3151  0.2268 -0.4102
  507MOL0     H68393   9.407   0.226   7.277  0.0951 -0.5422 -0.6078
  507MOL0     H68394   9.453  -0.067   7.201  0.8389 -0.4553 -0.4524
  507MOL0     H68395   9.566   0.063   7.171  0.5424 -3.3917 -1.0694
  507MOL0     H68396   9.304  -0.113   6.979 -3.4555 -0.4042 -3.3077
  507MOL0     H68397   9.183  -0.086   6.784 -0.3529 -0.0215 -0.2611
  507MOL0     H68398   9.170   0.066   6.705  0.9977  0.7203  0.2144
  507MOL0     H68399   9.387  -0.144   6.663 -2.4892  0.5283  2.6996
  507MOL0     H68400   9.410   0.021   6.598 -0.9655  0.5790 -0.9589
  507MOL0     H68401   9.206  -0.201   6.542 -0.8922  0.3826 -2.9871
  507MOL0     H68402   9.332  -0.158   6.440  2.2635  2.0721  0.6073
  507MOL0     H68403   9.144  -0.041   6.342 -2.7882  1.3342  0.6048
  507MOL0     H68404   9.212   0.083   6.440 -0.1285  0.2559  0.1730
  507MOL0     H68405   8.879  -0.038   6.726 -1.7606 -1.9400  2.1317
  507MOL0     H68406   8.590  -0.195   6.770  0.8856  2.4171  0.3498
  507MOL0     H68407   8.696  -0.313   6.828 -0.5118 -0.5117  0.6888
  507MOL0     H68408   8.733  -0.144   6.855 -0.3270 -1.3521  1.0885
  507MOL0     H68409   8.487  -0.426   6.281  0.0709 -0.4493 -1.7010
  507MOL0     H68410   8.306  -0.561   6.194 -0.7225 -3.1122 -0.0844
  507MOL0     H68411   8.173  -0.738   6.085  2.2982 -0.2773 -0.2016
  507MOL0     H68412   8.099  -0.877   6.159 -0.8236 -0.1647  0.2547
  507MOL0     H68413   8.093  -0.626   6.321 -1.1162  0.9262 -1.0921
  507MOL0     H68414   7.994  -0.643   6.180  0.7987 -0.6821 -1.6702
  507MOL0     H68415   7.902  -0.862   6.259 -2.0633 -1.0837  1.5763
  507MOL0     H68416   7.857  -0.735   6.362 -0.0440 -1.2628 -0.4178
  507MOL0     H68417   8.100  -0.905   6.427  0.5354  0.5529  0.9079
  507MOL0     H68418   8.002  -0.801   6.537 -1.4207 -3.5245  2.7905
  507MOL0     H68419   7.942  -1.020   6.583 -0.3135  0.0328 -0.1883
  507MOL0     H68420   7.929  -1.057   6.406 -0.3124  0.1347  0.4868
  507MOL0     H68421   7.734  -0.905   6.575  3.0047 -0.4126  1.4720
  507MOL0     H68422   7.714  -0.923   6.402  0.6952  2.8126  1.0964
  507MOL0     H68423   7.626  -1.101   6.614  2.5194 -2.5975  1.5070
  507MOL0     H68424   7.753  -1.185   6.520 -2.1827 -2.3031 -4.7976
  507MOL0     H68425   7.544  -1.237   6.416 -0.2067  0.1988  3.1179
  507MOL0     H68426   7.656  -1.150   6.313  1.6833  2.3731  0.6803
  507MOL0     H68427   8.394  -0.875   6.467 -1.8241 -0.1634 -3.6224
  507MOL0     H68428   8.576  -0.732   6.574  2.8503 -0.2655 -1.1287
  507MOL0     H68429   8.819  -0.355   6.351  0.5914 -0.6336  1.5048
  507MOL0     H68430   8.985  -0.158   6.337  2.1228  0.1357  0.6133
  507MOL0     H68431  10.250  -0.181   7.619  0.9956  0.4192 -1.1447
  507MOL0     H68432  10.479  -0.134   7.634  0.1686  0.7877 -0.0215
  507MOL0     H68433  10.835  -0.044   7.520 -1.8357  0.9516  1.2922
  507MOL0     H68434  11.073  -0.022   7.451 -1.2171 -0.5885 -0.4833
  507MOL0     H68435  11.257   0.038   7.522 -3.8836  0.6681  0.0156
  507MOL0     H68436  11.328   0.101   7.371 -0.3643  3.3717 -0.7908
  507MOL0     H68437  11.492   0.153   7.581  1.3595  0.6273 -0.9756
  507MOL0     H68438  11.357   0.245   7.640 -1.1911  0.5345 -0.8670
  507MOL0     H68439  11.519   0.385   7.546 -0.8456  0.0123 -0.0675
  507MOL0     H68440  11.385   0.407   7.448 -1.3636  0.3439  3.5885
  507MOL0     H68441  11.509   0.214   7.299  2.0829  0.4737 -3.1391
  507MOL0     H68442  11.645   0.266   7.399 -0.3862  1.5950  1.1994
  507MOL0     H68443  11.671   0.576   7.130  2.3976 -0.7706  0.9599
  507MOL0     H68444  11.041   0.399   7.532 -2.2256  0.5982  0.7630
  507MOL0     H68445  10.805   0.393   7.562  1.2962  0.5674 -0.2558
  508MOL0     O68446   9.118   1.821   6.029  0.6450 -0.1456 -0.2735
  508MOL0     C68447   9.184   1.748   6.101  0.1195  0.4296  0.4687
  508MOL0     O68448   9.126   1.658   6.187  0.6655  0.2315 -0.2722
  508MOL0     C68449   8.988   1.638   6.193 -0.3335  0.8361 -0.0990
  508MOL0     C68450   8.933   1.598   6.313 -0.6448 -0.3485 -0.7046
  508MOL0     C68451   8.796   1.576   6.322  0.0731 -0.3591 -0.7749
  508MOL0     C68452   8.708   1.588   6.215 -0.0448  0.2827  0.0512
  508MOL0     O68453   8.577   1.542   6.234 -0.8473 -0.2712 -0.0491
  508MOL0     C68454   8.473   1.565   6.137 -0.0843 -0.5344 -0.5149
  508MOL0     C68455   8.343   1.513   6.186  0.6376  0.1160 -1.0373
  508MOL0     C68456   8.336   1.361   6.191 -0.1390  0.3631  0.3833
  508MOL0     C68457   8.210   1.331   6.273 -0.3127  0.2320  0.5658
  508MOL0     C68458   8.079   1.355   6.193  0.1931 -0.1979 -0.0588
  508MOL0     C68459   7.952   1.303   6.270 -0.2045  0.4549 -0.3675
  508MOL0     C68460   7.815   1.318   6.189 -0.5551  0.4537  0.1832
  508MOL0     C68461   7.692   1.324   6.274 -0.6290  0.0694 -0.8645
  508MOL0     N68462   7.600   1.421   6.225  0.4932  0.0276 -0.0728
  508MOL0     C68463   7.623   1.544   6.178 -0.9001 -0.1958 -0.0762
  508MOL0     C68464   7.503   1.589   6.123  0.2970  0.7885 -0.6178
  508MOL0     C68465   7.493   1.708   6.044  0.0439  0.3836  0.1050
  508MOL0     C68466   7.446   1.817   6.139  0.6361 -0.0203 -0.8494
  508MOL0     C68467   7.433   1.949   6.069  0.3204  0.6928  0.5143
  508MOL0     C68468   7.561   2.018   6.028 -0.3964  0.2854  0.6610
  508MOL0     O68469   7.596   1.982   5.894  0.1948 -0.8340  0.0746
  508MOL0     C68470   7.730   2.024   5.865  0.1972 -0.4309 -0.1522
  508MOL0     C68471   7.762   2.158   5.887 -0.1712 -0.6817  0.2044
  508MOL0     C68472   7.886   2.210   5.851 -0.3230 -0.1191 -0.4714
  508MOL0     C68473   7.914   2.353   5.876 -1.2151  0.5301  0.3702
  508MOL0     C68474   7.978   2.123   5.793 -0.0760  0.6533  0.2957
  508MOL0     C68475   8.114   2.163   5.756  0.4367 -0.3805 -0.3266
  508MOL0     O68476   8.178   2.103   5.651  0.0035  0.2881  0.0588
  508MOL0     C68477   8.295   2.165   5.617  1.1070  0.3996  1.0565
  508MOL0     C68478   8.412   2.107   5.671 -0.3158 -0.4037 -0.7767
  508MOL0     C68479   8.534   2.148   5.622 -0.1513 -0.1851  0.2601
  508MOL0     C68480   8.539   2.239   5.514 -0.0147  0.8620 -0.0798
  508MOL0     O68481   8.662   2.265   5.456  0.5830  0.2764  0.2013
  508MOL0     C68482   8.669   2.348   5.337 -0.7145 -0.3407  0.0701
  508MOL0     C68483   8.809   2.417   5.313 -0.3927 -0.4716  0.1450
  508MOL0     C68484   8.829   2.538   5.396 -0.5507 -0.0483  0.0300
  508MOL0     C68485   8.982   2.549   5.407  0.0642  0.2160 -0.0157
  508MOL0     C68486   9.024   2.698   5.445  0.2364 -0.5611 -0.1585
  508MOL0     C68487   9.175   2.719   5.475 -0.1151  0.5914 -0.0356
  508MOL0     C68488   9.191   2.867   5.510  0.2312 -0.2668 -0.9803
  508MOL0     C68489   9.207   2.951   5.391 -0.3944  0.4100 -0.2950
  508MOL0    Cl68490   9.324   2.894   5.273 -0.1528 -0.1636  0.4032
  508MOL0     C68491   8.420   2.299   5.468  0.6198  0.1787  0.6819
  508MOL0     C68492   8.299   2.264   5.513 -0.4162  0.3899 -0.5465
  508MOL0     O68493   8.164   2.233   5.837 -0.1736 -0.4995 -0.0082
  508MOL0     C68494   7.939   1.993   5.749  0.2257  0.1239 -0.8171
  508MOL0     C68495   7.816   1.944   5.797 -0.8831 -0.2664  0.1753
  508MOL0     N68496   7.406   1.493   6.150  0.0115  0.0527 -0.0190
  508MOL0     N68497   7.467   1.396   6.216 -0.4656 -0.4707 -0.3628
  508MOL0     C68498   8.757   1.630   6.094  0.8393 -0.3586 -0.1486
  508MOL0     C68499   8.897   1.664   6.089  0.3866  0.0274 -1.0667
  508MOL0     C68500   9.332   1.759   6.088 -0.1079  0.1636 -1.1180
  508MOL0     C68501   9.390   1.820   5.972  0.0940 -0.1496  0.2088
  508MOL0     C68502   9.531   1.827   5.960  0.6299  0.2295  0.2120
  508MOL0     C68503   9.617   1.777   6.054  0.2857 -0.5313  0.2222
  508MOL0     O68504   9.753   1.765   6.042  0.2629  0.1061 -0.3088
  508MOL0     C68505   9.821   1.888   6.036  0.7256 -0.0131 -0.2684
  508MOL0     C68506   9.964   1.871   5.994 -0.0446 -0.3706 -0.7075
  508MOL0     C68507  10.049   1.785   6.084  0.0180 -0.7826  0.0130
  508MOL0     C68508  10.052   1.808   6.240  0.6688 -0.5260  0.8551
  508MOL0     C68509  10.107   1.949   6.252  0.7278  1.0984  0.9716
  508MOL0     C68510  10.162   2.056   6.259 -0.5818 -0.7338  0.0513
  508MOL0     C68511   9.563   1.713   6.167 -0.4697 -0.0272 -0.8995
  508MOL0     C68512   9.421   1.704   6.180  0.7523 -0.4589  0.7827
  508MOL0     H68513   8.988   1.594   6.407 -1.1921  1.2507 -0.2968
  508MOL0     H68514   8.757   1.552   6.420  0.8002  1.7306  0.0680
  508MOL0     H68515   8.456   1.672   6.122 -1.8082 -0.8799 -1.2032
  508MOL0     H68516   8.497   1.517   6.042 -2.1236  2.2480 -2.5877
  508MOL0     H68517   8.324   1.557   6.284 -1.3525 -0.7164 -1.0100
  508MOL0     H68518   8.264   1.558   6.125  1.8901  2.6592 -0.9170
  508MOL0     H68519   8.333   1.330   6.086  0.5353  3.8626 -0.8012
  508MOL0     H68520   8.430   1.326   6.236  1.4537  0.7764 -2.3594
  508MOL0     H68521   8.208   1.222   6.284 -0.9764  0.0631 -1.0385
  508MOL0     H68522   8.212   1.377   6.372  0.3110  0.3351  0.5133
  508MOL0     H68523   8.048   1.459   6.181 -1.1820 -0.4987  0.6779
  508MOL0     H68524   8.097   1.324   6.090  1.0492 -1.2915  0.3975
  508MOL0     H68525   7.970   1.197   6.292  0.5134  0.9049  1.3550
  508MOL0     H68526   7.930   1.359   6.361 -2.8127  0.1424 -0.7260
  508MOL0     H68527   7.832   1.405   6.124  1.2158 -0.3816 -0.5297
  508MOL0     H68528   7.806   1.234   6.120  1.1359  2.4764 -2.7437
  508MOL0     H68529   7.721   1.366   6.370  0.0846 -2.1640 -0.0397
  508MOL0     H68530   7.638   1.229   6.278  0.4756 -0.5700 -0.4939
  508MOL0     H68531   7.712   1.602   6.153 -1.1628 -0.1785 -1.0062
  508MOL0     H68532   7.583   1.738   5.990 -0.7243  0.3326 -1.2587
  508MOL0     H68533   7.415   1.686   5.971  2.1329 -1.9053 -1.5951
  508MOL0     H68534   7.507   1.825   6.229 -1.9881  0.7346  0.9744
  508MOL0     H68535   7.347   1.784   6.173 -0.1061  1.4177 -1.5196
  508MOL0     H68536   7.386   2.010   6.147 -2.0331 -1.9775  1.3381
  508MOL0     H68537   7.362   1.949   5.986  0.5274  0.5659  0.3343
  508MOL0     H68538   7.645   2.014   6.097  1.2814  3.3175 -1.0071
  508MOL0     H68539   7.520   2.119   6.028 -0.4078  0.2889 -0.1370
  508MOL0     H68540   7.685   2.222   5.930 -0.0948 -0.3321 -0.1716
  508MOL0     H68541   7.942   2.393   5.778 -1.0395  1.7870  0.9082
  508MOL0     H68542   7.831   2.413   5.914 -0.2435  0.5693  2.6036
  508MOL0     H68543   7.999   2.365   5.944 -0.0301 -0.2691 -0.9209
  508MOL0     H68544   8.416   2.032   5.749 -1.4950  0.0036 -0.3077
  508MOL0     H68545   8.622   2.094   5.654  1.8501  1.7850 -1.5597
  508MOL0     H68546   8.667   2.280   5.251  0.9806  0.0222 -0.3007
  508MOL0     H68547   8.605   2.436   5.330  3.3260  2.7583 -2.0128
  508MOL0     H68548   8.886   2.340   5.328  0.4940 -0.2656 -2.8074
  508MOL0     H68549   8.809   2.442   5.207  0.0428 -3.2600 -0.5937
  508MOL0     H68550   8.783   2.523   5.495 -0.2031  2.9151  0.7395
  508MOL0     H68551   8.785   2.630   5.356  0.6363  0.9576  0.9551
  508MOL0     H68552   9.033   2.479   5.473 -0.5971 -1.3484 -1.0868
  508MOL0     H68553   9.033   2.525   5.313  0.5475  2.1397 -0.2891
  508MOL0     H68554   8.962   2.745   5.522  0.9664  1.9529 -1.0061
  508MOL0     H68555   8.998   2.756   5.355 -0.0766 -1.1671 -0.4605
  508MOL0     H68556   9.209   2.659   5.560 -1.9792 -0.2436  0.1564
  508MOL0     H68557   9.229   2.688   5.385 -2.9053 -0.7470 -1.3589
  508MOL0     H68558   9.278   2.884   5.574 -1.0162 -0.2795  0.8076
  508MOL0     H68559   9.106   2.909   5.565  1.4991 -0.6505  1.4449
  508MOL0     H68560   9.224   3.056   5.415 -1.3011  0.4423  0.2421
  508MOL0     H68561   9.119   2.955   5.325  1.8649  2.7518 -3.4942
  508MOL0     H68562   8.415   2.371   5.387  0.2958  1.0293  1.4408
  508MOL0     H68563   8.208   2.310   5.475 -1.4961  0.4426  1.8652
  508MOL0     H68564   8.011   1.941   5.687  0.4709  0.8228 -1.1246
  508MOL0     H68565   7.781   1.843   5.778  1.0417 -0.6630 -1.5294
  508MOL0     H68566   8.696   1.636   6.005  0.2230 -1.9860  0.1257
  508MOL0     H68567   8.933   1.705   5.995  3.9482  0.9547  0.5504
  508MOL0     H68568   9.326   1.858   5.892  1.7809  1.4760 -0.4203
  508MOL0     H68569   9.573   1.858   5.865  0.1619 -0.3535 -0.1864
  508MOL0     H68570   9.781   1.971   5.976 -0.4555  1.4488  2.3911
  508MOL0     H68571   9.813   1.931   6.136  1.8122  0.1788 -0.2491
  508MOL0     H68572  10.017   1.967   5.996  1.6321 -1.2274 -1.7846
  508MOL0     H68573   9.968   1.834   5.891  0.0134  0.6928 -1.1016
  508MOL0     H68574  10.153   1.792   6.053  0.6510  0.1374  2.1533
  508MOL0     H68575  10.024   1.679   6.071  2.7592 -1.4993 -0.0098
  508MOL0     H68576  10.115   1.735   6.291 -4.0540 -4.2631  2.0352
  508MOL0     H68577   9.955   1.806   6.289  0.0876  1.5638 -0.0897
  508MOL0     H68578  10.210   2.151   6.270 -0.0830 -1.1370  1.6502
  508MOL0     H68579   9.625   1.669   6.244 -1.0234  0.8348  0.0526
  508MOL0     H68580   9.376   1.644   6.259 -3.2828 -1.7838 -2.1578
  509MOL0     O68581   0.417   5.023   2.723 -0.0476 -0.4680 -0.1085
  509MOL0     C68582   0.446   5.148   2.719 -0.4731  0.2930  0.4097
  509MOL0     O68583   0.361   5.252   2.727  0.0334  0.3896  0.1825
  509MOL0     C68584   0.225   5.248   2.744 -0.2121 -0.6720 -0.3165
  509MOL0     C68585   0.149   5.134   2.762  0.4352  0.2803 -0.2126
  509MOL0     C68586   0.012   5.138   2.772  0.5202  0.4525 -0.0036
  509MOL0     C68587  -0.059   5.262   2.765 -0.0777 -0.4789  0.0253
  509MOL0     O68588  -0.202   5.264   2.767 -1.2891  0.4830  0.2362
  509MOL0     C68589  -0.258   5.312   2.644 -0.8065 -0.1856 -0.0809
  509MOL0     C68590  -0.409   5.335   2.655 -0.4833 -0.3042  0.1377
  509MOL0     C68591  -0.479   5.211   2.709  0.6864  0.3139 -0.5085
  509MOL0     C68592  -0.634   5.236   2.695  0.4593  0.1782  0.7847
  509MOL0     C68593  -0.686   5.160   2.576 -0.3966 -0.5099 -0.1739
  509MOL0     C68594  -0.837   5.149   2.580  0.2252  0.4108  0.4458
  509MOL0     C68595  -0.876   5.079   2.448 -0.0887 -0.4295  0.1860
  509MOL0     C68596  -1.026   5.038   2.438  0.4779  0.2635  0.7170
  509MOL0     N68597  -1.056   4.932   2.541 -0.3023 -0.3039  0.2033
  509MOL0     C68598  -0.993   4.808   2.541  0.0606  0.2498 -0.4487
  509MOL0     C68599  -1.009   4.761   2.671  0.4121 -0.8715 -0.2951
  509MOL0     C68600  -0.952   4.642   2.724  0.5698 -0.2520 -0.7057
  509MOL0     C68601  -1.058   4.577   2.825 -0.1811  0.4958  0.3185
  509MOL0     C68602  -1.168   4.506   2.739 -0.2478  0.7357 -0.1256
  509MOL0     C68603  -1.301   4.583   2.730  1.0888  0.0484 -0.2997
  509MOL0     O68604  -1.402   4.519   2.647  0.3623 -0.1409  0.7255
  509MOL0     C68605  -1.482   4.606   2.572 -0.3295 -0.1161 -0.5749
  509MOL0     C68606  -1.434   4.711   2.502 -0.0862 -0.3836  0.0468
  509MOL0     C68607  -1.522   4.790   2.426 -0.1648 -0.0085  0.2956
  509MOL0     C68608  -1.462   4.913   2.349  0.6291  1.3029 -0.3313
  509MOL0     C68609  -1.653   4.761   2.408 -0.0326  0.1443 -0.6011
  509MOL0     C68610  -1.746   4.835   2.322  0.7798  0.3768 -0.7228
  509MOL0     O68611  -1.840   4.756   2.260 -0.1518 -0.1875 -0.2278
  509MOL0     C68612  -1.947   4.816   2.197 -0.1837 -0.1507  0.1073
  509MOL0     C68613  -1.919   4.911   2.100 -0.5566 -0.8793  0.8078
  509MOL0     C68614  -2.018   4.987   2.029  0.5904 -0.4988  0.2136
  509MOL0     C68615  -2.151   4.927   2.026 -0.5456  0.3451  0.2932
  509MOL0     O68616  -2.256   4.956   1.947 -1.0331  0.9300 -0.4106
  509MOL0     C68617  -2.263   5.089   1.893  0.0723  0.6073 -0.1581
  509MOL0     C68618  -2.379   5.084   1.802  0.2918 -1.0408 -0.1463
  509MOL0     C68619  -2.382   5.203   1.697 -0.0350 -0.2567 -0.3257
  509MOL0     C68620  -2.510   5.211   1.614  0.1812  0.3430 -0.5742
  509MOL0     C68621  -2.560   5.082   1.549  0.5343  0.2289  0.2330
  509MOL0     C68622  -2.681   5.108   1.471  0.6966  0.5514 -0.5579
  509MOL0     C68623  -2.725   4.980   1.389 -0.6465  0.2403  0.7637
  509MOL0     C68624  -2.855   5.001   1.301  0.5213 -0.6610 -0.3966
  509MOL0    Cl68625  -2.898   4.833   1.244  0.5081 -0.5335 -0.4945
  509MOL0     C68626  -2.176   4.825   2.124  0.3975 -0.1933  0.1055
  509MOL0     C68627  -2.076   4.771   2.205  0.0501 -0.3507  0.5101
  509MOL0     O68628  -1.736   4.953   2.321  0.5956 -0.3305 -0.2898
  509MOL0     C68629  -1.702   4.649   2.482  0.4298  0.0800  0.4195
  509MOL0     C68630  -1.613   4.572   2.557  0.8522  0.3502 -0.2122
  509MOL0     N68631  -1.092   4.850   2.738 -0.0242  0.5475 -1.3014
  509MOL0     N68632  -1.118   4.948   2.663  0.1792 -0.6532  0.9916
  509MOL0     C68633   0.018   5.375   2.749  0.4055  0.1356 -1.4206
  509MOL0     C68634   0.155   5.370   2.741  0.0473  0.0880 -0.4214
  509MOL0     C68635   0.592   5.183   2.696 -0.2781  0.6240 -0.1240
  509MOL0     C68636   0.628   5.313   2.666  0.0383 -0.5166 -0.6034
  509MOL0     C68637   0.764   5.351   2.667  0.4825  0.2587  0.7184
  509MOL0     C68638   0.867   5.254   2.674  0.1059 -0.0398  0.6160
  509MOL0     O68639   0.999   5.274   2.680 -0.5976 -0.4519  0.1633
  509MOL0     C68640   1.051   5.408   2.710 -0.2816  0.1536 -0.5242
  509MOL0     C68641   1.061   5.415   2.865 -0.0279 -0.0427  0.2532
  509MOL0     C68642   1.155   5.303   2.916  0.0785  0.6397  0.8151
  509MOL0     C68643   1.240   5.351   3.025 -0.5609  1.3164 -0.1685
  509MOL0     C68644   1.350   5.449   2.997  0.4695  0.1185 -0.0010
  509MOL0     C68645   1.433   5.533   2.970  0.1780 -0.5714 -1.0625
  509MOL0     C68646   0.821   5.124   2.690  0.0216 -0.0127 -0.0217
  509MOL0     C68647   0.691   5.085   2.713  0.0247 -0.0730 -0.1042
  509MOL0     H68648   0.196   5.036   2.767 -0.4278 -0.1831 -0.9753
  509MOL0     H68649  -0.035   5.041   2.780  1.2301  0.0797 -0.2382
  509MOL0     H68650  -0.211   5.406   2.614  0.2510 -1.0856 -1.3470
  509MOL0     H68651  -0.236   5.235   2.570 -2.1660 -1.0644  0.3677
  509MOL0     H68652  -0.424   5.422   2.720  2.4651 -0.6837  1.4752
  509MOL0     H68653  -0.448   5.350   2.554 -2.0880 -3.2170  0.2096
  509MOL0     H68654  -0.447   5.133   2.639  1.3877 -1.3416  1.5483
  509MOL0     H68655  -0.454   5.190   2.813 -1.2414  1.5679  0.2663
  509MOL0     H68656  -0.697   5.187   2.771 -0.7939 -1.7737 -1.3918
  509MOL0     H68657  -0.669   5.339   2.689  2.7360  1.2432  3.7430
  509MOL0     H68658  -0.646   5.199   2.482  1.7479 -0.2117  0.8233
  509MOL0     H68659  -0.643   5.060   2.589  1.4708  0.4850  1.6767
  509MOL0     H68660  -0.869   5.095   2.670  0.6822  0.3533  0.5789
  509MOL0     H68661  -0.886   5.246   2.589 -3.8063 -1.1126 -2.2611
  509MOL0     H68662  -0.860   5.149   2.365 -4.1006 -1.9056 -2.1247
  509MOL0     H68663  -0.810   4.994   2.432  0.1053 -0.4038  0.8224
  509MOL0     H68664  -1.041   4.989   2.341 -1.6824 -1.1819  1.7028
  509MOL0     H68665  -1.099   5.118   2.440 -1.3893 -1.3476  0.3438
  509MOL0     H68666  -0.922   4.773   2.467 -0.5997 -1.3447 -0.3701
  509MOL0     H68667  -0.935   4.570   2.643 -1.2223 -1.5264 -0.0204
  509MOL0     H68668  -0.859   4.675   2.772  0.5062  1.3633 -1.6350
  509MOL0     H68669  -1.108   4.648   2.892 -3.1088 -1.8800  0.8552
  509MOL0     H68670  -1.012   4.496   2.882  2.0199  1.1329 -0.4407
  509MOL0     H68671  -1.193   4.407   2.779  0.1591  0.1766 -1.2102
  509MOL0     H68672  -1.133   4.492   2.636  0.7078 -0.1213  0.2964
  509MOL0     H68673  -1.272   4.680   2.687  0.3394 -0.7793 -2.8171
  509MOL0     H68674  -1.339   4.606   2.830 -2.4113  0.3366 -1.5685
  509MOL0     H68675  -1.331   4.745   2.504 -0.9275  2.4914  2.2296
  509MOL0     H68676  -1.456   4.900   2.240  2.3811  0.4398 -0.1782
  509MOL0     H68677  -1.519   5.006   2.359  2.1701  2.2468  0.2110
  509MOL0     H68678  -1.360   4.930   2.385  0.7477  1.8631 -0.9140
  509MOL0     H68679  -1.817   4.948   2.089 -1.0942  0.6887  0.8742
  509MOL0     H68680  -1.997   5.075   1.968 -0.8983  0.2344  0.7072
  509MOL0     H68681  -2.284   5.163   1.970  1.2762  1.0941 -0.2770
  509MOL0     H68682  -2.171   5.110   1.836  1.2659 -1.9825  0.6484
  509MOL0     H68683  -2.389   4.983   1.759 -0.6961 -1.0658  0.1061
  509MOL0     H68684  -2.470   5.095   1.863  1.3227  1.9396  1.0037
  509MOL0     H68685  -2.307   5.199   1.618 -1.9694 -3.8096 -2.2178
  509MOL0     H68686  -2.375   5.302   1.744  2.1999  0.8872 -2.8058
  509MOL0     H68687  -2.588   5.266   1.666  0.1295  0.4055 -0.7165
  509MOL0     H68688  -2.484   5.272   1.527 -1.0467 -0.1864 -1.3356
  509MOL0     H68689  -2.570   5.000   1.621 -0.5723 -1.1856 -1.4346
  509MOL0     H68690  -2.495   5.043   1.470  0.3720  1.9572 -0.8049
  509MOL0     H68691  -2.769   5.124   1.533  0.8017 -0.5640 -0.1040
  509MOL0     H68692  -2.664   5.196   1.409  0.8099  2.2666  1.7685
  509MOL0     H68693  -2.740   4.896   1.458 -0.5622  0.3348  0.8987
  509MOL0     H68694  -2.638   4.945   1.333 -1.4989 -1.2784  0.3245
  509MOL0     H68695  -2.832   5.068   1.218 -0.0571 -0.6109 -0.5211
  509MOL0     H68696  -2.935   5.052   1.356  0.7291  2.5656 -2.8480
  509MOL0     H68697  -2.267   4.766   2.122  0.4540 -0.2658 -1.1679
  509MOL0     H68698  -2.105   4.704   2.286  0.5230  1.4552  2.2415
  509MOL0     H68699  -1.804   4.615   2.469 -0.2806  1.8838  0.9354
  509MOL0     H68700  -1.654   4.487   2.612 -1.7792  0.4707 -1.8008
  509MOL0     H68701  -0.041   5.461   2.718  2.9554  1.3872 -3.1837
  509MOL0     H68702   0.215   5.458   2.720  3.3224 -2.3282 -2.1765
  509MOL0     H68703   0.552   5.388   2.645 -0.0203  0.2859  2.0706
  509MOL0     H68704   0.791   5.455   2.655  0.9823 -0.1311 -2.0793
  509MOL0     H68705   1.149   5.412   2.661 -0.7301  0.6519 -1.3989
  509MOL0     H68706   0.993   5.492   2.672 -1.6482  1.2957  3.5349
  509MOL0     H68707   0.965   5.390   2.910  0.6858 -2.2245  0.6520
  509MOL0     H68708   1.103   5.513   2.890  0.2961 -0.5443  1.7561
  509MOL0     H68709   1.224   5.277   2.836  1.3328  0.7951  1.8122
  509MOL0     H68710   1.094   5.215   2.940 -0.5463  0.1010 -2.3676
  509MOL0     H68711   1.291   5.262   3.061 -3.2910 -0.3325 -0.1049
  509MOL0     H68712   1.180   5.399   3.103  0.1516  2.7727 -0.4878
  509MOL0     H68713   1.508   5.606   2.946  0.3308  0.9330  3.1728
  509MOL0     H68714   0.898   5.049   2.684  0.1593  0.1633 -0.5432
  509MOL0     H68715   0.678   4.978   2.726 -0.6585 -0.3991 -2.7723
  510MOL0     O68716  11.174   3.678   6.372 -0.1792 -0.2101  0.5175
  510MOL0     C68717  11.287   3.631   6.338 -0.0683  0.3459  0.1915
  510MOL0     O68718  11.308   3.541   6.228 -0.9665  0.0312 -0.2294
  510MOL0     C68719  11.198   3.499   6.161 -0.2303 -0.2178  0.6430
  510MOL0     C68720  11.141   3.575   6.056 -0.4787 -0.5088 -0.4011
  510MOL0     C68721  11.032   3.533   5.990 -0.3191  0.5203  0.3962
  510MOL0     C68722  10.981   3.401   6.010 -0.3973  0.5438 -0.0162
  510MOL0     O68723  10.875   3.353   5.933 -0.1331 -0.2317 -0.5435
  510MOL0     C68724  10.795   3.440   5.847 -0.0478  0.2520  0.2847
  510MOL0     C68725  10.710   3.548   5.918  0.0645 -0.6077  0.6219
  510MOL0     C68726  10.628   3.648   5.826 -0.5385 -0.5823 -0.3975
  510MOL0     C68727  10.524   3.711   5.920 -0.7708  1.5752 -0.7776
  510MOL0     C68728  10.403   3.775   5.855  0.3099  0.1305  0.3221
  510MOL0     C68729  10.319   3.682   5.760  0.5286  0.5957 -0.7465
  510MOL0     C68730  10.250   3.563   5.830 -0.2219  0.0936  0.0198
  510MOL0     C68731  10.224   3.441   5.729 -0.1214 -0.4870  0.5443
  510MOL0     N68732  10.138   3.335   5.776 -0.3564  0.2650 -0.7368
  510MOL0     C68733  10.068   3.336   5.893 -0.0004 -0.1376  0.0632
  510MOL0     C68734   9.973   3.240   5.890 -0.2661 -0.9561  0.7309
  510MOL0     C68735   9.873   3.208   6.000  0.6822  0.5716  0.2476
  510MOL0     C68736   9.918   3.069   6.065 -0.3723  0.4107  0.5289
  510MOL0     C68737   9.841   2.949   6.001 -0.7428 -0.9293  0.3420
  510MOL0     C68738   9.836   2.830   6.103 -0.1667  0.0653  0.6125
  510MOL0     O68739   9.796   2.708   6.034 -0.2363 -0.8490 -0.2194
  510MOL0     C68740   9.663   2.691   5.992 -0.6871 -0.1192  0.6907
  510MOL0     C68741   9.638   2.643   5.856  0.3968 -0.8588 -0.2516
  510MOL0     C68742   9.503   2.625   5.809 -0.2367 -0.4658 -0.7381
  510MOL0     C68743   9.477   2.604   5.655  1.0090  0.7152 -0.8884
  510MOL0     C68744   9.397   2.643   5.899  0.8877  0.5477  0.0494
  510MOL0     C68745   9.251   2.640   5.865  0.5676  0.1384  0.1202
  510MOL0     O68746   9.173   2.536   5.909 -0.1159 -0.2867 -0.0198
  510MOL0     C68747   9.036   2.546   5.898 -0.1380  0.6498  0.2091
  510MOL0     C68748   8.964   2.453   5.818  0.2519 -0.0052 -0.3487
  510MOL0     C68749   8.827   2.457   5.811 -0.2100 -0.0180 -0.5550
  510MOL0     C68750   8.755   2.540   5.902 -1.0442  0.6168  0.3316
  510MOL0     O68751   8.621   2.552   5.907 -0.3977  0.2298  0.2930
  510MOL0     C68752   8.551   2.437   5.865  0.0058 -0.2040 -0.4476
  510MOL0     C68753   8.414   2.454   5.923  0.3708  0.7025 -0.3314
  510MOL0     C68754   8.419   2.449   6.078  0.0223  0.8883  0.2920
  510MOL0     C68755   8.279   2.435   6.135 -0.6052 -0.0482 -0.3395
  510MOL0     C68756   8.221   2.578   6.151 -0.8906  0.6706 -0.0141
  510MOL0     C68757   8.069   2.569   6.188  0.0067  1.2787  0.3417
  510MOL0     C68758   8.029   2.476   6.303  0.2473  0.1287  0.7877
  510MOL0     C68759   8.091   2.514   6.432  0.3390 -0.6090  0.1522
  510MOL0    Cl68760   8.058   2.398   6.555  0.6131 -0.3428 -0.1979
  510MOL0     C68761   8.824   2.619   5.987 -0.5885 -0.2167 -1.1931
  510MOL0     C68762   8.962   2.629   5.985  0.2564 -0.3200  0.1674
  510MOL0     O68763   9.208   2.737   5.810  0.0412 -0.1194 -0.4371
  510MOL0     C68764   9.424   2.680   6.032  0.1888 -0.1670  0.1912
  510MOL0     C68765   9.556   2.698   6.080  0.3218  0.1125 -0.4776
  510MOL0     N68766   9.982   3.184   5.761 -0.8359 -0.2492  0.5026
  510MOL0     N68767  10.082   3.241   5.693  0.6117  0.0587 -0.1523
  510MOL0     C68768  11.049   3.317   6.101 -0.3554 -0.6431  0.1398
  510MOL0     C68769  11.158   3.367   6.178  0.5163  0.7343  0.5286
  510MOL0     C68770  11.415   3.672   6.399 -0.0057 -1.0286 -0.3511
  510MOL0     C68771  11.526   3.707   6.322 -0.0197  0.6264  0.0550
  510MOL0     C68772  11.643   3.750   6.383 -0.0679  0.2161  0.4488
  510MOL0     C68773  11.659   3.771   6.516  0.4715 -0.3959 -0.1142
  510MOL0     O68774  11.773   3.814   6.575  0.9023 -0.0521  0.0044
  510MOL0     C68775  11.888   3.764   6.517 -0.2133  0.2446  0.4902
  510MOL0     C68776  12.007   3.788   6.604  0.6228  0.8534  0.1043
  510MOL0     C68777  12.044   3.938   6.621  0.7402 -0.0798  0.4770
  510MOL0     C68778  12.181   3.947   6.693 -0.2884  0.1354  0.6597
  510MOL0     C68779  12.279   3.858   6.638  0.2548  0.6861  0.4774
  510MOL0     C68780  12.363   3.777   6.603 -0.0357  0.1802 -0.9582
  510MOL0     C68781  11.544   3.741   6.593  0.8020 -1.0594 -0.9059
  510MOL0     C68782  11.425   3.701   6.538  0.0999 -0.5997  0.5004
  510MOL0     H68783  11.186   3.672   6.039 -1.9227  0.8331  2.6153
  510MOL0     H68784  10.991   3.603   5.918  1.2711  2.4681  1.2880
  510MOL0     H68785  10.860   3.484   5.772  0.6748  0.9461  1.2889
  510MOL0     H68786  10.720   3.372   5.804  0.6657 -2.1812  2.5887
  510MOL0     H68787  10.640   3.500   5.988  1.0915 -0.5197  1.7248
  510MOL0     H68788  10.778   3.604   5.982  1.2938 -0.7220 -0.5524
  510MOL0     H68789  10.701   3.712   5.775  0.1363 -0.9561  0.0919
  510MOL0     H68790  10.576   3.590   5.748 -1.9623 -1.2372  0.9725
  510MOL0     H68791  10.486   3.639   5.993  1.7338  1.4926  0.5403
  510MOL0     H68792  10.576   3.789   5.977  0.7262 -2.2365  3.6732
  510MOL0     H68793  10.335   3.817   5.930 -1.2912  1.3879 -1.7183
  510MOL0     H68794  10.432   3.859   5.791  1.0162 -0.4131 -0.0848
  510MOL0     H68795  10.231   3.733   5.719  1.6174  3.6048  0.3956
  510MOL0     H68796  10.383   3.648   5.678 -1.6054 -2.9713 -1.1858
  510MOL0     H68797  10.310   3.523   5.912 -2.7726  1.1795  2.5977
  510MOL0     H68798  10.157   3.596   5.879 -1.9213 -1.9192 -1.6455
  510MOL0     H68799  10.316   3.395   5.694 -0.6680 -1.2250  0.0729
  510MOL0     H68800  10.186   3.483   5.635  2.2175  0.6499  0.0208
  510MOL0     H68801  10.092   3.405   5.973  1.3956 -0.4354 -0.0666
  510MOL0     H68802   9.860   3.282   6.079 -2.5362 -1.4315  1.8146
  510MOL0     H68803   9.771   3.206   5.961  0.5279  1.2414  0.6054
  510MOL0     H68804   9.888   3.077   6.170 -2.2195  2.1572 -0.0806
  510MOL0     H68805  10.025   3.048   6.058 -1.0279 -2.7522 -2.5536
  510MOL0     H68806   9.886   2.915   5.907 -0.5449 -1.2553  0.5530
  510MOL0     H68807   9.743   2.986   5.973 -1.4319 -1.9954  1.2650
  510MOL0     H68808   9.760   2.848   6.180 -1.6218 -0.4807 -0.6511
  510MOL0     H68809   9.937   2.826   6.145  0.1520 -0.8455 -0.2181
  510MOL0     H68810   9.723   2.631   5.789  1.3407 -3.4065  1.2959
  510MOL0     H68811   9.435   2.689   5.601 -1.6379 -0.8758 -1.5669
  510MOL0     H68812   9.562   2.557   5.606  1.3882 -1.0940  1.3145
  510MOL0     H68813   9.394   2.532   5.648  2.8920 -2.1834  2.7305
  510MOL0     H68814   9.027   2.392   5.754 -1.8235 -1.4172 -1.1288
  510MOL0     H68815   8.783   2.390   5.738  0.3829 -0.6348 -0.3654
  510MOL0     H68816   8.538   2.431   5.756  1.0624 -0.0302 -0.5941
  510MOL0     H68817   8.589   2.343   5.907  0.0984  0.3247  0.6839
  510MOL0     H68818   8.380   2.553   5.892 -1.0074  0.1276 -0.7025
  510MOL0     H68819   8.351   2.370   5.893 -2.4827  1.5073  2.7864
  510MOL0     H68820   8.467   2.538   6.121  1.1988  0.0522  0.7785
  510MOL0     H68821   8.478   2.362   6.109 -0.5606  1.0416  1.9184
  510MOL0     H68822   8.215   2.381   6.064 -1.4939 -2.5124  2.1540
  510MOL0     H68823   8.291   2.382   6.230  1.3856  0.2032 -0.4038
  510MOL0     H68824   8.237   2.651   6.072  2.1650 -0.3166 -0.4392
  510MOL0     H68825   8.277   2.606   6.241  1.6820  0.1488 -1.3697
  510MOL0     H68826   8.043   2.674   6.204 -1.4488  0.9102  0.5270
  510MOL0     H68827   8.011   2.535   6.102  0.1968  0.2413  0.6125
  510MOL0     H68828   8.044   2.370   6.280 -3.3640 -0.0156 -1.7157
  510MOL0     H68829   7.921   2.477   6.322  0.2588 -2.4257  1.3163
  510MOL0     H68830   8.051   2.616   6.443 -2.2197 -1.3159 -1.5765
  510MOL0     H68831   8.199   2.530   6.424  0.1624  1.2433  0.8975
  510MOL0     H68832   8.779   2.688   6.057  0.7187  1.0985 -1.5960
  510MOL0     H68833   9.012   2.703   6.047 -0.8843 -0.5431  1.3780
  510MOL0     H68834   9.343   2.670   6.104 -0.0128 -1.6470 -0.2149
  510MOL0     H68835   9.578   2.722   6.184 -0.1223  1.2057 -0.6310
  510MOL0     H68836  11.018   3.214   6.118  3.0063 -1.8352 -0.3309
  510MOL0     H68837  11.197   3.292   6.246 -1.8207 -3.4420 -2.3051
  510MOL0     H68838  11.527   3.687   6.215 -1.5750  0.7300 -0.0130
  510MOL0     H68839  11.715   3.760   6.303  2.0424 -1.0785  2.0889
  510MOL0     H68840  11.871   3.656   6.512 -1.0684  0.4090 -3.0745
  510MOL0     H68841  11.917   3.805   6.420  2.3699  0.6872  1.3850
  510MOL0     H68842  12.089   3.727   6.564 -1.1187 -1.1154 -0.6867
  510MOL0     H68843  11.982   3.750   6.704  1.8056 -1.3913 -0.3697
  510MOL0     H68844  11.961   3.983   6.677 -0.6275  0.1830 -1.6656
  510MOL0     H68845  12.043   3.994   6.527 -2.6401 -1.5531 -0.5009
  510MOL0     H68846  12.162   3.920   6.797 -0.1056  3.9757  1.8643
  510MOL0     H68847  12.218   4.049   6.679  0.6575 -0.4715 -1.7344
  510MOL0     H68848  12.439   3.704   6.581 -2.2365 -1.0949 -5.3867
  510MOL0     H68849  11.552   3.759   6.700  1.1548  3.9855 -1.5397
  510MOL0     H68850  11.341   3.682   6.603 -1.8379 -1.7808 -2.1622
  511MOL0     O68851   8.643  10.759   4.065 -0.0389 -0.3815 -0.5994
  511MOL0     C68852   8.660  10.875   4.039 -0.4649 -0.6934 -0.0900
  511MOL0     O68853   8.563  10.968   4.012  0.0720  0.2655  0.3123
  511MOL0     C68854   8.431  10.917   4.007  0.1016  0.6771 -0.0309
  511MOL0     C68855   8.335  10.967   4.098 -1.2153  0.1217 -0.9117
  511MOL0     C68856   8.203  10.925   4.091  1.4194 -0.0015  0.0941
  511MOL0     C68857   8.160  10.848   3.978 -0.0273 -0.2241  0.1221
  511MOL0     O68858   8.036  10.795   3.954  0.0942 -0.0993 -0.6700
  511MOL0     C68859   7.932  10.881   3.997  0.4348 -0.0279 -0.1223
  511MOL0     C68860   7.796  10.834   3.953  0.0078 -0.6164  0.3075
  511MOL0     C68861   7.768  10.701   4.009  0.5174 -0.4661 -0.2382
  511MOL0     C68862   7.624  10.678   3.990 -0.5804  0.8430  0.0916
  511MOL0     C68863   7.582  10.665   3.841  0.2679  0.1192  0.0058
  511MOL0     C68864   7.432  10.622   3.831  1.2778  0.3226 -0.1949
  511MOL0     C68865   7.395  10.590   3.685 -0.2109 -0.6734 -0.2506
  511MOL0     C68866   7.259  10.517   3.677 -0.1998 -0.6588 -0.9298
  511MOL0     N68867   7.156  10.619   3.721  0.2433 -0.5704  0.3482
  511MOL0     C68868   7.116  10.726   3.639  0.5837  0.0535  0.1798
  511MOL0     C68869   7.027  10.790   3.719 -0.4501 -0.1574 -0.5014
  511MOL0     C68870   6.948  10.921   3.698  1.1211 -0.3859 -0.4998
  511MOL0     C68871   6.790  10.889   3.704  0.1576 -0.0408 -0.1334
  511MOL0     C68872   6.740  10.835   3.570 -0.3307  0.7372 -0.7953
  511MOL0     C68873   6.594  10.789   3.584  0.2461 -0.0767  0.9635
  511MOL0     O68874   6.504  10.897   3.610  0.0576  0.1267  0.6320
  511MOL0     C68875   6.368  10.879   3.579 -0.0523  0.1923 -0.1610
  511MOL0     C68876   6.301  10.756   3.550 -0.0153 -0.2559 -0.4426
  511MOL0     C68877   6.164  10.754   3.513 -0.6524 -0.5842  0.6997
  511MOL0     C68878   6.093  10.613   3.502 -0.0484 -0.1252 -0.3804
  511MOL0     C68879   6.091  10.875   3.499  0.2703 -0.5216  0.2360
  511MOL0     C68880   5.960  10.881   3.437  0.2681  0.4981  0.4640
  511MOL0     O68881   5.905  11.008   3.442 -0.1235  0.2368  0.2322
  511MOL0     C68882   5.787  11.021   3.388  0.6364  0.4249  0.6146
  511MOL0     C68883   5.676  11.032   3.472 -1.2016  0.6657  0.0527
  511MOL0     C68884   5.543  11.052   3.430 -0.2816  0.3358 -1.1607
  511MOL0     C68885   5.524  11.063   3.291  0.1909  0.2543  0.9970
  511MOL0     O68886   5.397  11.088   3.249 -0.6706  0.0505 -0.2731
  511MOL0     C68887   5.369  11.160   3.131 -0.3946 -0.7520  0.5290
  511MOL0     C68888   5.215  11.174   3.107  0.0588 -0.5876  0.4366
  511MOL0     C68889   5.139  11.044   3.125  0.2918  0.0862  0.5634
  511MOL0     C68890   4.989  11.075   3.096  0.9412  0.1307  0.2494
  511MOL0     C68891   4.905  10.951   3.069  0.5811 -1.6671 -0.2329
  511MOL0     C68892   4.768  10.984   3.015  0.4663 -0.3137 -0.9097
  511MOL0     C68893   4.692  10.863   2.973 -0.2695  0.7070  0.2468
  511MOL0     C68894   4.543  10.877   2.970  0.7634  0.4425  0.6098
  511MOL0    Cl68895   4.470  10.727   2.937 -0.0534  0.2562 -0.1589
  511MOL0     C68896   5.626  11.049   3.199 -0.6860  0.7191  0.1964
  511MOL0     C68897   5.761  11.025   3.249  0.5115  0.2409  0.0334
  511MOL0     O68898   5.906  10.782   3.401 -0.8697 -0.2911  0.6968
  511MOL0     C68899   6.158  10.997   3.533 -0.0922  0.1020 -0.2857
  511MOL0     C68900   6.293  10.996   3.574  0.4480 -0.3298 -0.0612
  511MOL0     N68901   7.017  10.725   3.839  0.6449 -0.2766 -0.1643
  511MOL0     N68902   7.094  10.624   3.841 -1.2056 -0.1727  0.3229
  511MOL0     C68903   8.248  10.822   3.875 -0.6485  0.2829 -0.3683
  511MOL0     C68904   8.386  10.852   3.888  0.4505 -0.6841  0.2958
  511MOL0     C68905   8.796  10.916   4.023  0.8052  0.6981  0.2421
  511MOL0     C68906   8.836  10.997   3.906  0.4163  0.1501  0.2648
  511MOL0     C68907   8.953  11.060   3.906 -0.2708 -0.1558 -0.3626
  511MOL0     C68908   9.046  11.029   4.015  0.3138 -0.5295  0.8478
  511MOL0     O68909   9.182  11.073   4.011 -0.1509  0.5875 -0.7098
  511MOL0     C68910   9.250  11.100   3.893  0.5764 -0.2581 -0.1250
  511MOL0     C68911   9.398  11.071   3.904  0.1089 -0.1594  0.0881
  511MOL0     C68912   9.478  11.130   3.784 -0.1557  0.2283 -0.6908
  511MOL0     C68913   9.631  11.098   3.805  0.2163 -0.3813  0.2527
  511MOL0     C68914   9.688  11.115   3.675  0.5704 -0.1990  0.2316
  511MOL0     C68915   9.740  11.126   3.564 -0.1101 -0.0109  0.2847
  511MOL0     C68916   9.011  10.948   4.126  0.2311  0.4341  0.4204
  511MOL0     C68917   8.884  10.894   4.131  0.1902  0.4636 -0.5670
  511MOL0     H68918   8.362  11.045   4.170 -0.3168 -0.4342 -0.6242
  511MOL0     H68919   8.133  10.956   4.167 -0.5405  1.2655 -2.1136
  511MOL0     H68920   7.941  10.892   4.106 -1.2354  1.6842 -0.1151
  511MOL0     H68921   7.952  10.980   3.957  1.0432 -0.5848 -1.2703
  511MOL0     H68922   7.728  10.907   3.998  1.1270 -0.3464  1.6337
  511MOL0     H68923   7.788  10.854   3.845  2.9921  0.2657  0.1459
  511MOL0     H68924   7.834  10.625   3.966  0.0265  0.5721 -3.0459
  511MOL0     H68925   7.790  10.699   4.115 -3.3706  2.2382  0.8575
  511MOL0     H68926   7.607  10.584   4.042  2.7874  0.5120  0.8009
  511MOL0     H68927   7.565  10.761   4.031 -0.5031  1.2698 -0.6275
  511MOL0     H68928   7.598  10.766   3.801  2.3123  0.2640  1.0678
  511MOL0     H68929   7.643  10.596   3.783 -1.5847 -0.7641 -0.9795
  511MOL0     H68930   7.428  10.535   3.898  2.1575  1.0526  0.8445
  511MOL0     H68931   7.370  10.692   3.889 -0.3879 -1.9144  0.8978
  511MOL0     H68932   7.398  10.678   3.621  2.2865 -1.5738 -1.4878
  511MOL0     H68933   7.474  10.530   3.639 -1.0592 -0.2647 -2.3625
  511MOL0     H68934   7.266  10.431   3.744 -2.7283 -0.4325 -0.2767
  511MOL0     H68935   7.242  10.481   3.575 -0.2301 -0.0603 -1.1395
  511MOL0     H68936   7.160  10.755   3.544 -0.1635 -1.8044 -0.7868
  511MOL0     H68937   6.968  10.989   3.782  0.9151  0.4873 -1.1452
  511MOL0     H68938   6.974  10.980   3.610  0.4660 -1.2716 -1.3147
  511MOL0     H68939   6.736  10.980   3.732  2.8843  1.3931  0.7886
  511MOL0     H68940   6.778  10.811   3.779 -0.5480  0.5441  0.3781
  511MOL0     H68941   6.800  10.745   3.551 -2.3102 -0.9277  0.4746
  511MOL0     H68942   6.753  10.906   3.488  0.0472  1.9170  0.2578
  511MOL0     H68943   6.583  10.718   3.666 -3.2554 -0.4864  0.2679
  511MOL0     H68944   6.572  10.737   3.490  2.2028  2.6554 -1.1966
  511MOL0     H68945   6.343  10.657   3.563 -3.0721 -1.5734  0.5398
  511MOL0     H68946   6.083  10.587   3.396 -1.0508  0.4181 -0.4276
  511MOL0     H68947   6.153  10.533   3.546  1.4856  1.1195 -0.1210
  511MOL0     H68948   5.993  10.630   3.542  0.1745  3.6507 -1.0080
  511MOL0     H68949   5.696  11.045   3.579  1.1255  2.9642 -0.5394
  511MOL0     H68950   5.451  11.053   3.488 -1.7654 -1.2627 -3.3388
  511MOL0     H68951   5.413  11.260   3.126 -1.9461 -0.0278  0.8362
  511MOL0     H68952   5.417  11.115   3.043  0.8392 -0.7878  1.2024
  511MOL0     H68953   5.178  11.248   3.179  0.1735 -0.0312 -0.0678
  511MOL0     H68954   5.201  11.219   3.008 -1.4947 -0.7043  0.5864
  511MOL0     H68955   5.153  10.993   3.221  0.8577  0.8870  0.9137
  511MOL0     H68956   5.166  10.975   3.044  0.0257  0.5083  0.1089
  511MOL0     H68957   4.933  11.132   3.171 -3.2921 -0.4040 -2.1968
  511MOL0     H68958   4.963  11.144   3.016 -4.2530 -1.2724  0.3606
  511MOL0     H68959   4.909  10.896   3.164 -1.4206 -1.5870 -0.0578
  511MOL0     H68960   4.956  10.892   2.992  1.9437  1.8531 -2.2356
  511MOL0     H68961   4.711  11.035   3.093 -2.2924 -0.5781 -2.6107
  511MOL0     H68962   4.771  11.054   2.931 -1.6128  0.3145 -0.5161
  511MOL0     H68963   4.728  10.786   3.043  2.9427  0.9182 -0.9783
  511MOL0     H68964   4.717  10.827   2.872  0.0150 -0.1833  0.6209
  511MOL0     H68965   4.518  10.942   2.886  2.5530  0.7920  0.3001
  511MOL0     H68966   4.505  10.909   3.067 -0.4556  1.5019 -0.1805
  511MOL0     H68967   5.612  11.033   3.092 -0.4275 -1.4356  0.4389
  511MOL0     H68968   5.848  11.021   3.184  0.1461  2.6822 -0.7176
  511MOL0     H68969   6.104  11.091   3.521 -0.3964 -0.2557 -2.0538
  511MOL0     H68970   6.328  11.097   3.586 -1.4088  0.5408 -1.3912
  511MOL0     H68971   8.218  10.771   3.784 -1.7708  0.4466 -0.1063
  511MOL0     H68972   8.440  10.806   3.806  0.9082  1.7681 -0.8687
  511MOL0     H68973   8.770  11.031   3.827  1.6353 -0.3128 -0.9977
  511MOL0     H68974   8.977  11.125   3.823  1.7604 -0.9307 -0.4395
  511MOL0     H68975   9.215  11.030   3.817 -0.6415  0.2777 -0.0819
  511MOL0     H68976   9.238  11.202   3.855  1.7303 -0.9261 -2.5017
  511MOL0     H68977   9.398  10.962   3.912 -1.4691 -0.1020  1.5696
  511MOL0     H68978   9.455  11.102   3.991 -0.2805 -1.2889  0.7595
  511MOL0     H68979   9.459  11.238   3.783  0.7983  0.4642  1.2023
  511MOL0     H68980   9.448  11.088   3.688 -0.8567  0.0471 -0.4001
  511MOL0     H68981   9.639  10.991   3.826 -0.3904 -0.1568  1.7565
  511MOL0     H68982   9.686  11.155   3.881  2.4970 -2.1769  0.0639
  511MOL0     H68983   9.780  11.129   3.464 -0.8926  0.2918 -0.0277
  511MOL0     H68984   9.083  10.932   4.206  0.4616  2.0430  0.5548
  511MOL0     H68985   8.856  10.832   4.216 -1.4766 -0.4400 -1.7343
  512MOL0     O68986   4.193   4.663   3.895 -0.8243  0.5687  0.5256
  512MOL0     C68987   4.279   4.598   3.958 -0.1552 -0.7773  0.6120
  512MOL0     O68988   4.263   4.542   4.083  0.2499  0.0018  0.4460
  512MOL0     C68989   4.138   4.547   4.141 -0.4731  0.5392 -0.3388
  512MOL0     C68990   4.063   4.429   4.154 -0.4064 -0.9926 -0.0903
  512MOL0     C68991   3.935   4.440   4.216 -0.0070  0.6415  0.2689
  512MOL0     C68992   3.893   4.562   4.268 -0.1880  0.1045  0.4496
  512MOL0     O68993   3.774   4.562   4.330  0.1092 -0.7701 -0.2091
  512MOL0     C68994   3.658   4.559   4.242  0.9045 -0.7913 -0.1126
  512MOL0     C68995   3.528   4.564   4.325  0.4474 -0.2510 -0.4582
  512MOL0     C68996   3.455   4.691   4.309  0.7089  0.0669  0.3621
  512MOL0     C68997   3.338   4.706   4.409 -0.1372  0.2190  0.7246
  512MOL0     C68998   3.291   4.842   4.394  0.1848 -0.0603  0.5199
  512MOL0     C68999   3.160   4.877   4.465 -0.6325  0.0513 -0.4938
  512MOL0     C69000   3.121   5.024   4.456  0.4712  0.8780  0.2560
  512MOL0     C69001   2.981   5.042   4.389 -0.7687 -0.6836 -0.2442
  512MOL0     N69002   2.853   5.018   4.460 -0.2917 -0.3452  0.2142
  512MOL0     C69003   2.787   4.894   4.472 -0.1385 -0.3672 -0.5574
  512MOL0     C69004   2.665   4.919   4.532 -0.0916 -0.2951 -0.3594
  512MOL0     C69005   2.557   4.820   4.569  0.2063  1.0384  0.1817
  512MOL0     C69006   2.490   4.764   4.445  0.3782  0.0532  0.0762
  512MOL0     C69007   2.381   4.660   4.488  0.0678  0.6811  0.7050
  512MOL0     C69008   2.326   4.592   4.372  0.0742 -0.1652 -0.4093
  512MOL0     O69009   2.218   4.503   4.400 -0.1209 -0.6995  0.2215
  512MOL0     C69010   2.083   4.529   4.388 -0.1875  0.5696  0.2095
  512MOL0     C69011   2.028   4.644   4.314 -0.3774  0.2990  0.5634
  512MOL0     C69012   1.892   4.670   4.310  0.3068 -0.2212 -0.2737
  512MOL0     C69013   1.853   4.798   4.246 -0.1287  0.3491 -0.5870
  512MOL0     C69014   1.798   4.577   4.367 -0.8407 -0.8100 -0.5214
  512MOL0     C69015   1.652   4.602   4.380 -0.0614  0.1095 -0.3109
  512MOL0     O69016   1.589   4.557   4.491 -0.4990  0.2062 -0.1986
  512MOL0     C69017   1.463   4.573   4.537  0.2135  0.7435 -0.5625
  512MOL0     C69018   1.439   4.513   4.662  0.4636 -0.2517 -0.1753
  512MOL0     C69019   1.311   4.517   4.719  0.8789 -0.2560 -0.3160
  512MOL0     C69020   1.210   4.601   4.662 -0.6257  0.2052  0.6145
  512MOL0     O69021   1.085   4.614   4.729 -0.1786 -0.4128 -0.0814
  512MOL0     C69022   0.965   4.674   4.670  0.9422  0.2212 -0.2288
  512MOL0     C69023   0.888   4.576   4.571 -0.1521  0.0053  0.8168
  512MOL0     C69024   0.803   4.662   4.477 -0.0528  0.9538 -0.4655
  512MOL0     C69025   0.697   4.748   4.542 -1.0725 -0.3083 -0.5193
  512MOL0     C69026   0.588   4.791   4.440 -0.3622 -0.2752  0.0942
  512MOL0     C69027   0.480   4.873   4.506 -0.1795 -0.0903  0.2896
  512MOL0     C69028   0.381   4.903   4.393 -0.2319  0.3466  0.1831
  512MOL0     C69029   0.248   4.951   4.459  0.2779  0.1699  0.4556
  512MOL0    Cl69030   0.130   4.935   4.329 -0.4687  0.1037  0.3233
  512MOL0     C69031   1.241   4.669   4.542 -0.1594  0.2930  0.9516
  512MOL0     C69032   1.358   4.650   4.477 -0.2376  0.8309  0.2149
  512MOL0     O69033   1.597   4.684   4.304  0.5894 -0.8493  0.2853
  512MOL0     C69034   1.856   4.466   4.438 -0.1440  0.5914 -0.1347
  512MOL0     C69035   1.994   4.444   4.449 -0.3391  0.9285 -0.2274
  512MOL0     N69036   2.659   5.049   4.566  0.3984 -0.0157  0.1898
  512MOL0     N69037   2.772   5.107   4.530 -0.3559  0.1424  0.2843
  512MOL0     C69038   3.974   4.681   4.260 -0.1845 -0.0976 -0.3978
  512MOL0     C69039   4.098   4.671   4.195  0.3067 -0.1431 -0.7585
  512MOL0     C69040   4.409   4.565   3.885  0.0493  0.2744 -0.1113
  512MOL0     C69041   4.528   4.544   3.961  0.2126  1.2308  0.7892
  512MOL0     C69042   4.653   4.542   3.896  0.0216  0.1644 -0.7540
  512MOL0     C69043   4.663   4.546   3.759  0.4516  0.9729 -0.4794
  512MOL0     O69044   4.783   4.550   3.690  0.3148 -0.7132  0.3114
  512MOL0     C69045   4.906   4.578   3.761 -0.8424 -0.1299  0.0107
  512MOL0     C69046   5.019   4.598   3.665 -0.5365  0.3679  0.0149
  512MOL0     C69047   5.046   4.477   3.571  0.6024  0.6808 -0.0655
  512MOL0     C69048   5.134   4.499   3.453  0.2870 -0.2536 -0.9109
  512MOL0     C69049   5.266   4.538   3.493 -0.6194  0.0882  0.0894
  512MOL0     C69050   5.380   4.570   3.513 -0.1140  0.6584 -0.3577
  512MOL0     C69051   4.544   4.558   3.682 -0.4951  0.0708  0.5388
  512MOL0     C69052   4.421   4.576   3.745 -0.3229 -0.2475 -0.5210
  512MOL0     H69053   4.106   4.335   4.121 -1.0745 -2.6754  3.3417
  512MOL0     H69054   3.862   4.360   4.215 -1.3475  1.8280 -0.9286
  512MOL0     H69055   3.666   4.642   4.172 -1.1098 -1.3645 -1.1025
  512MOL0     H69056   3.646   4.474   4.174  1.1513 -1.0221  0.1283
  512MOL0     H69057   3.458   4.481   4.310  0.7750 -1.0111  1.8534
  512MOL0     H69058   3.565   4.559   4.428  3.8331  0.5491 -1.4906
  512MOL0     H69059   3.530   4.770   4.315  0.7917  0.2285 -1.8812
  512MOL0     H69060   3.416   4.697   4.207 -1.6335  1.6590  1.2794
  512MOL0     H69061   3.259   4.631   4.396 -1.1759  0.5880  3.9147
  512MOL0     H69062   3.371   4.690   4.512  0.1195 -1.4280  0.4106
  512MOL0     H69063   3.362   4.916   4.432  0.1026  0.7512 -0.8462
  512MOL0     H69064   3.296   4.870   4.288  0.5614  1.8772  1.0070
  512MOL0     H69065   3.079   4.821   4.416 -0.7250 -0.8927  0.6921
  512MOL0     H69066   3.162   4.843   4.569 -0.5744 -2.5769 -1.2618
  512MOL0     H69067   3.114   5.056   4.560  0.3239 -1.2317  0.9367
  512MOL0     H69068   3.191   5.082   4.395  0.7270 -0.5002 -0.8166
  512MOL0     H69069   2.982   4.979   4.299  1.2011 -1.7781  0.4775
  512MOL0     H69070   2.974   5.146   4.356  1.4621 -0.1023  0.9130
  512MOL0     H69071   2.831   4.799   4.442  0.0850 -1.1076  1.9090
  512MOL0     H69072   2.596   4.744   4.638 -1.0243 -0.4040 -0.6505
  512MOL0     H69073   2.481   4.878   4.623  1.1329  1.3105  1.2320
  512MOL0     H69074   2.561   4.707   4.384 -2.2781 -2.8155 -0.6277
  512MOL0     H69075   2.438   4.842   4.388 -0.4736  0.0950  0.8841
  512MOL0     H69076   2.295   4.711   4.531 -0.0254  1.7380 -0.6761
  512MOL0     H69077   2.424   4.583   4.552 -0.4382  0.3119  0.6084
  512MOL0     H69078   2.408   4.535   4.327 -1.8800 -2.7003 -0.9558
  512MOL0     H69079   2.292   4.669   4.302  0.1675 -0.0767 -0.3579
  512MOL0     H69080   2.102   4.715   4.279  1.0036 -0.8785  1.0001
  512MOL0     H69081   1.936   4.856   4.204  0.1355  1.3367  1.2014
  512MOL0     H69082   1.789   4.775   4.160 -0.0875 -0.7966 -0.3245
  512MOL0     H69083   1.792   4.859   4.313  1.3274  0.4194  0.7409
  512MOL0     H69084   1.515   4.459   4.716 -1.4831 -3.2745 -0.1781
  512MOL0     H69085   1.300   4.478   4.819  0.4123 -0.6492 -0.5209
  512MOL0     H69086   0.895   4.696   4.751  0.0775 -1.9056 -0.3288
  512MOL0     H69087   0.983   4.769   4.618 -0.4329  0.2976 -0.5975
  512MOL0     H69088   0.953   4.513   4.510 -0.3053  0.8089 -0.2053
  512MOL0     H69089   0.834   4.505   4.635 -2.4209  0.4124 -0.5502
  512MOL0     H69090   0.755   4.583   4.418  0.0267  0.9405 -0.5128
  512MOL0     H69091   0.864   4.713   4.402  0.4851  1.5942  0.3978
  512MOL0     H69092   0.652   4.708   4.634 -1.6727 -2.0669 -1.5245
  512MOL0     H69093   0.754   4.838   4.565  1.7645 -2.1926  0.4136
  512MOL0     H69094   0.557   4.701   4.386 -2.0603  0.6408 -0.5208
  512MOL0     H69095   0.625   4.844   4.352 -1.9302  1.9875  0.6934
  512MOL0     H69096   0.434   4.806   4.580 -1.6165 -1.5790 -1.8372
  512MOL0     H69097   0.534   4.959   4.546  0.6962 -0.1688 -0.6914
  512MOL0     H69098   0.366   4.812   4.335  0.9641  0.4735 -0.3517
  512MOL0     H69099   0.419   4.977   4.321 -1.0919 -0.5340 -1.2098
  512MOL0     H69100   0.257   5.055   4.492 -1.2654  1.4551 -2.7642
  512MOL0     H69101   0.215   4.891   4.544  1.9321  0.7331  1.5491
  512MOL0     H69102   1.176   4.744   4.498 -0.0811  0.0059  0.3352
  512MOL0     H69103   1.388   4.694   4.383  1.6640 -1.2690 -0.2622
  512MOL0     H69104   1.791   4.394   4.486  1.0725 -0.2692  0.2575
  512MOL0     H69105   2.023   4.361   4.512 -0.2033  1.1172 -0.0408
  512MOL0     H69106   3.940   4.774   4.304 -1.3447 -0.5903 -0.2170
  512MOL0     H69107   4.158   4.762   4.191 -3.6556  3.1399  3.5653
  512MOL0     H69108   4.520   4.546   4.069  3.2024 -0.2617  1.1381
  512MOL0     H69109   4.735   4.542   3.967  0.8524  0.7059 -1.6902
  512MOL0     H69110   4.882   4.666   3.821  0.3701 -1.4467  2.5788
  512MOL0     H69111   4.921   4.502   3.838 -2.9971 -0.8701 -0.2366
  512MOL0     H69112   5.106   4.614   3.729 -1.2628 -0.9796  1.3950
  512MOL0     H69113   5.009   4.685   3.599  0.9624 -1.0954 -2.2977
  512MOL0     H69114   4.952   4.443   3.526  0.8493  0.8495 -0.7109
  512MOL0     H69115   5.090   4.394   3.628  0.9530  0.0708 -1.1970
  512MOL0     H69116   5.087   4.583   3.401  0.4154  1.0376  0.9621
  512MOL0     H69117   5.128   4.414   3.385  1.3731 -2.8095  1.9736
  512MOL0     H69118   5.486   4.579   3.528 -0.2209  2.2747 -0.4690
  512MOL0     H69119   4.559   4.565   3.574  0.0210  1.8491  0.6944
  512MOL0     H69120   4.339   4.597   3.676 -0.8080 -1.9343 -0.5116
  513MOL0     O69121   6.059   5.594  11.133  0.0199 -0.0390  0.6145
  513MOL0     C69122   6.074   5.535  11.237 -0.1907 -0.5166 -0.1556
  513MOL0     O69123   5.986   5.520  11.349  0.0701  0.5107 -0.2325
  513MOL0     C69124   5.879   5.605  11.360 -0.0768 -0.6860 -0.1026
  513MOL0     C69125   5.760   5.562  11.429  0.4588 -0.3701  0.3751
  513MOL0     C69126   5.651   5.648  11.450  0.1528  1.2421  0.3903
  513MOL0     C69127   5.665   5.781  11.400  0.0302 -0.4836 -0.3716
  513MOL0     O69128   5.566   5.876  11.405  0.7704 -0.0717 -0.2378
  513MOL0     C69129   5.429   5.830  11.442  0.5153 -0.1979 -0.0674
  513MOL0     C69130   5.345   5.954  11.414  0.1531 -0.5300 -0.4411
  513MOL0     C69131   5.213   5.958  11.487 -0.2517 -0.7455 -0.5618
  513MOL0     C69132   5.099   5.860  11.448 -0.9763 -0.5429 -0.0560
  513MOL0     C69133   4.987   5.873  11.549  0.0023 -0.2723  0.1365
  513MOL0     C69134   4.873   5.776  11.522  0.3940 -0.0609 -0.1292
  513MOL0     C69135   4.786   5.746  11.642 -0.6031 -0.0714  0.0242
  513MOL0     C69136   4.663   5.657  11.614 -0.0020  0.5767 -0.5550
  513MOL0     N69137   4.563   5.669  11.720 -0.0058  0.3903 -0.2556
  513MOL0     C69138   4.499   5.565  11.773 -0.9423  0.8448 -1.0530
  513MOL0     C69139   4.445   5.619  11.883 -0.3495  0.6594  0.1403
  513MOL0     C69140   4.335   5.557  11.978  0.0851 -0.7275  0.4241
  513MOL0     C69141   4.190   5.578  11.934  0.6743 -0.3925  0.5555
  513MOL0     C69142   4.150   5.722  11.904 -0.4638 -0.6356 -0.5364
  513MOL0     C69143   4.126   5.794  12.033  0.4505 -0.1947 -0.3218
  513MOL0     O69144   3.992   5.773  12.075 -0.0335 -0.0637  0.2734
  513MOL0     C69145   3.949   5.834  12.192  1.0096  0.5942  0.1228
  513MOL0     C69146   3.809   5.833  12.218 -0.8280  0.3317 -0.1317
  513MOL0     C69147   3.760   5.889  12.333 -0.1930 -0.6011 -0.5798
  513MOL0     C69148   3.611   5.868  12.356  0.0781  0.3931 -0.6745
  513MOL0     C69149   3.851   5.941  12.428 -0.2854  0.3053 -1.4388
  513MOL0     C69150   3.805   5.976  12.566 -0.0013 -0.2337  0.2496
  513MOL0     O69151   3.679   6.029  12.583 -0.3794  1.3748  0.0476
  513MOL0     C69152   3.625   6.068  12.703 -0.0278 -0.1834 -0.2485
  513MOL0     C69153   3.696   6.128  12.802  0.5497  0.4199 -0.1069
  513MOL0     C69154   3.638   6.157  12.921  0.2037  0.4723 -0.2205
  513MOL0     C69155   3.499   6.153  12.940 -0.1692  0.8507  0.1454
  513MOL0     O69156   3.450   6.189  13.064  0.2417 -0.1080  0.0152
  513MOL0     C69157   3.311   6.169  13.104 -0.2640  0.6603 -0.4388
  513MOL0     C69158   3.238   6.279  13.049  0.4897 -0.8471  0.4161
  513MOL0     C69159   3.080   6.274  13.039  0.0289  1.3530 -0.1622
  513MOL0     C69160   3.021   6.207  13.168 -0.3224 -0.9985 -0.0562
  513MOL0     C69161   2.872   6.196  13.179 -0.6352  0.3365  0.6448
  513MOL0     C69162   2.789   6.320  13.203  0.0273 -0.0005 -0.6372
  513MOL0     C69163   2.643   6.273  13.222 -1.3009 -0.0157 -0.3308
  513MOL0     C69164   2.555   6.393  13.249  0.3894  0.0763 -0.0631
  513MOL0    Cl69165   2.383   6.328  13.270 -0.3540  0.2944  0.0747
  513MOL0     C69166   3.423   6.101  12.831  0.6238 -0.1768  0.0512
  513MOL0     C69167   3.482   6.048  12.721 -0.0872  0.6823 -0.5540
  513MOL0     O69168   3.895   5.967  12.652  0.1632  0.4646  0.1642
  513MOL0     C69169   3.985   5.944  12.397  0.7972  0.1295 -0.5413
  513MOL0     C69170   4.039   5.890  12.275  0.0772 -0.6236 -0.2016
  513MOL0     N69171   4.481   5.750  11.894  0.0084  0.3441 -0.5073
  513MOL0     N69172   4.550   5.782  11.791 -0.8524 -0.1549 -0.3361
  513MOL0     C69173   5.777   5.831  11.334 -0.4331 -0.2125  0.1172
  513MOL0     C69174   5.883   5.737  11.315  0.2448 -0.9260  1.3821
  513MOL0     C69175   6.211   5.475  11.259  0.4401  0.6849  0.7692
  513MOL0     C69176   6.252   5.418  11.382  0.2761 -0.0217  0.2205
  513MOL0     C69177   6.372   5.358  11.402  0.0254  0.0845  0.2474
  513MOL0     C69178   6.454   5.333  11.291  1.1550 -0.7193 -0.7912
  513MOL0     O69179   6.571   5.268  11.288  0.2751 -0.2954  0.2205
  513MOL0     C69180   6.621   5.216  11.410 -0.4426  0.1695 -0.2701
  513MOL0     C69181   6.767   5.168  11.394 -0.8869  0.4178  0.2632
  513MOL0     C69182   6.860   5.282  11.365 -0.1381  0.2241  0.1969
  513MOL0     C69183   7.011   5.271  11.362 -0.3554 -0.6011 -0.7116
  513MOL0     C69184   7.069   5.158  11.289 -0.3874 -0.1453  0.0975
  513MOL0     C69185   7.120   5.060  11.247  0.6217  0.2711  0.2661
  513MOL0     C69186   6.409   5.391  11.170  0.5241 -0.0384  0.2758
  513MOL0     C69187   6.301   5.464  11.154 -0.4730  0.2719  0.7793
  513MOL0     H69188   5.750   5.460  11.464  1.8287 -0.7230 -0.1647
  513MOL0     H69189   5.563   5.608  11.499 -0.0266 -1.0270 -1.5852
  513MOL0     H69190   5.394   5.748  11.379 -0.2537 -0.6438  0.9028
  513MOL0     H69191   5.408   5.808  11.547 -1.2895 -2.8481 -0.8778
  513MOL0     H69192   5.404   6.043  11.438  0.7245 -0.2446 -2.6897
  513MOL0     H69193   5.333   5.960  11.305 -0.0055  2.8520 -0.3321
  513MOL0     H69194   5.233   5.943  11.594 -1.0526 -0.0545 -0.2996
  513MOL0     H69195   5.182   6.062  11.478  0.9792 -0.4670 -1.9779
  513MOL0     H69196   5.066   5.865  11.344  0.8408 -2.6851 -0.8260
  513MOL0     H69197   5.125   5.754  11.440 -1.2233 -0.5814 -0.3649
  513MOL0     H69198   5.031   5.850  11.647  0.8223 -2.4825 -0.6992
  513MOL0     H69199   4.955   5.978  11.551 -1.0760 -0.5910  0.1476
  513MOL0     H69200   4.817   5.807  11.434  0.5585 -1.5055 -0.7579
  513MOL0     H69201   4.915   5.679  11.494  1.2827 -0.5351  2.5201
  513MOL0     H69202   4.843   5.718  11.731  0.7482  1.7693 -0.2119
  513MOL0     H69203   4.751   5.845  11.673  0.2768 -0.0521  1.0166
  513MOL0     H69204   4.694   5.552  11.606 -0.0378  0.6615 -2.0712
  513MOL0     H69205   4.611   5.675  11.520  0.3345 -2.8695 -1.5472
  513MOL0     H69206   4.502   5.464  11.733 -0.5247 -0.7156  2.6074
  513MOL0     H69207   4.332   5.448  11.972  0.6846 -0.6738 -2.9550
  513MOL0     H69208   4.351   5.593  12.080 -2.5314  1.2974  0.2499
  513MOL0     H69209   4.127   5.529  12.009  1.8925 -1.6643  0.7876
  513MOL0     H69210   4.174   5.527  11.839  2.0710  1.0498 -0.5110
  513MOL0     H69211   4.062   5.732  11.840 -1.0319 -1.1097  0.1537
  513MOL0     H69212   4.237   5.763  11.852 -0.1981 -0.7011 -0.1493
  513MOL0     H69213   4.155   5.898  12.019 -1.2310  0.8888  3.1657
  513MOL0     H69214   4.195   5.747  12.104 -2.5866 -2.0117  1.6734
  513MOL0     H69215   3.739   5.790  12.147 -1.5370  0.6872  0.3362
  513MOL0     H69216   3.566   5.828  12.264 -1.3789 -0.4275  0.3588
  513MOL0     H69217   3.596   5.793  12.434 -1.5145  0.8734 -0.4798
  513MOL0     H69218   3.559   5.958  12.391 -1.8351 -1.6027  1.9829
  513MOL0     H69219   3.803   6.142  12.794  0.4455  0.9447 -0.5659
  513MOL0     H69220   3.708   6.201  12.992  1.5433 -2.4630  0.4308
  513MOL0     H69221   3.274   6.069  13.078 -1.1183  0.5522  1.0701
  513MOL0     H69222   3.320   6.155  13.212  4.8868  0.2011 -0.6978
  513MOL0     H69223   3.261   6.371  13.104  2.6885 -0.3921 -1.1319
  513MOL0     H69224   3.261   6.297  12.944  2.4058  0.4058  1.0084
  513MOL0     H69225   3.053   6.210  12.954  0.2618 -0.3481  0.9941
  513MOL0     H69226   3.037   6.374  13.029 -2.0158  0.9161  2.7471
  513MOL0     H69227   3.062   6.106  13.177  2.0045 -0.0580  0.6720
  513MOL0     H69228   3.058   6.265  13.253  0.5199 -1.3560 -0.1617
  513MOL0     H69229   2.838   6.133  13.262 -0.4624 -0.9613 -0.2488
  513MOL0     H69230   2.828   6.151  13.090  0.5057  1.0141 -0.2994
  513MOL0     H69231   2.813   6.386  13.287 -1.9614 -0.1515  0.1099
  513MOL0     H69232   2.792   6.385  13.116  1.2866 -0.4598 -0.9636
  513MOL0     H69233   2.632   6.212  13.312  1.1447  0.0533  0.0720
  513MOL0     H69234   2.603   6.223  13.133 -0.0095  1.5965 -1.8910
  513MOL0     H69235   2.569   6.461  13.164  4.1468  1.9678  1.8272
  513MOL0     H69236   2.586   6.450  13.337  2.0765 -0.9631  0.0641
  513MOL0     H69237   3.314   6.093  12.829  0.7438 -2.3757 -0.2108
  513MOL0     H69238   3.414   5.995  12.655  0.8762 -3.2000  1.2591
  513MOL0     H69239   4.053   5.993  12.466  2.8867 -2.1814 -0.7890
  513MOL0     H69240   4.147   5.901  12.271  0.0373  0.7381  1.1000
  513MOL0     H69241   5.764   5.935  11.308  0.9509 -0.2763 -0.9483
  513MOL0     H69242   5.972   5.780  11.268  1.0994 -0.4064  3.3653
  513MOL0     H69243   6.194   5.440  11.471  3.1215  1.8655  1.7573
  513MOL0     H69244   6.407   5.325  11.499  0.8382  0.2065  0.0001
  513MOL0     H69245   6.613   5.297  11.483  0.8028  1.8506 -1.9058
  513MOL0     H69246   6.565   5.128  11.446  0.5730  0.2937  1.7932
  513MOL0     H69247   6.773   5.093  11.315  2.7298 -1.0742  1.7230
  513MOL0     H69248   6.802   5.120  11.486 -2.0016 -0.1216  0.4237
  513MOL0     H69249   6.840   5.374  11.421  0.4809  0.9240 -0.7023
  513MOL0     H69250   6.839   5.326  11.267  1.8958  1.9524  0.4707
  513MOL0     H69251   7.028   5.262  11.470  2.4242  0.3974 -0.9788
  513MOL0     H69252   7.067   5.363  11.341  0.7352 -1.6870 -2.8835
  513MOL0     H69253   7.170   4.971  11.216 -0.5080 -0.0095 -0.8295
  513MOL0     H69254   6.473   5.381  11.083  0.9951  1.0836  0.4869
  513MOL0     H69255   6.290   5.519  11.061 -0.5243  0.8571  1.1286
  514MOL0     O69256   4.013   2.772   6.058  0.1336  0.2509  0.4365
  514MOL0     C69257   4.096   2.751   6.147  0.0926  0.1636 -0.0643
  514MOL0     O69258   4.084   2.768   6.283 -0.5481  0.1840  0.0609
  514MOL0     C69259   3.959   2.777   6.326  0.7635 -0.5758  0.2943
  514MOL0     C69260   3.884   2.654   6.329  1.3130  0.3235 -0.1030
  514MOL0     C69261   3.754   2.655   6.381  0.1277 -0.5629  0.4621
  514MOL0     C69262   3.694   2.777   6.422 -0.3758 -0.3450  0.3048
  514MOL0     O69263   3.563   2.773   6.464 -0.8860 -0.1141 -0.0838
  514MOL0     C69264   3.505   2.896   6.508  0.1941 -0.0638  0.7391
  514MOL0     C69265   3.346   2.874   6.513  0.5034 -0.3946 -0.0392
  514MOL0     C69266   3.304   2.748   6.585 -0.1376 -0.7974 -0.4246
  514MOL0     C69267   3.333   2.761   6.741 -0.7663 -0.1970 -1.2710
  514MOL0     C69268   3.247   2.676   6.842  0.5657  0.2700  0.2502
  514MOL0     C69269   3.299   2.677   6.982  0.3272  0.0427 -0.1117
  514MOL0     C69270   3.199   2.602   7.075  0.0258 -0.1900 -0.8594
  514MOL0     C69271   3.215   2.624   7.230  0.6248 -0.7820 -0.9667
  514MOL0     N69272   3.129   2.539   7.313  0.1150  0.6642 -0.6013
  514MOL0     C69273   3.157   2.407   7.348  0.5499  0.7856  0.0591
  514MOL0     C69274   3.047   2.363   7.416 -0.4300  0.1220 -0.2843
  514MOL0     C69275   3.026   2.213   7.446  0.0816 -0.2119 -0.1973
  514MOL0     C69276   2.979   2.146   7.327  0.1505  0.3944  0.2243
  514MOL0     C69277   2.862   2.214   7.257  0.0041  0.1492 -0.0893
  514MOL0     C69278   2.731   2.230   7.334 -0.2366 -0.4447  0.4442
  514MOL0     O69279   2.662   2.110   7.371 -0.1968 -0.0230  0.8644
  514MOL0     C69280   2.549   2.107   7.451  0.0369 -0.0469 -0.5265
  514MOL0     C69281   2.484   2.226   7.480 -0.0960  0.0778 -0.6186
  514MOL0     C69282   2.371   2.231   7.561  0.1601  0.2663  0.3346
  514MOL0     C69283   2.311   2.369   7.588 -0.5836 -0.0891  0.0908
  514MOL0     C69284   2.307   2.106   7.602  0.7613 -0.3765  0.0510
  514MOL0     C69285   2.180   2.099   7.689 -0.0350 -0.4940 -0.1138
  514MOL0     O69286   2.154   2.210   7.757  0.3272  0.0043 -0.2499
  514MOL0     C69287   2.029   2.219   7.812  0.2343  0.1980 -0.0423
  514MOL0     C69288   1.914   2.258   7.738  0.4472 -0.1575 -0.0070
  514MOL0     C69289   1.795   2.295   7.811  0.2304 -0.3896  0.4201
  514MOL0     C69290   1.787   2.290   7.950  0.2580 -0.4363  0.3072
  514MOL0     O69291   1.673   2.316   8.023  0.1313 -0.2734  0.2311
  514MOL0     C69292   1.587   2.416   7.970 -0.5471 -0.2908 -0.3200
  514MOL0     C69293   1.519   2.480   8.095  0.7687  0.0316  0.2658
  514MOL0     C69294   1.623   2.554   8.190  0.3624  0.0509 -0.1495
  514MOL0     C69295   1.585   2.533   8.332 -0.6060 -0.7187 -0.5262
  514MOL0     C69296   1.699   2.574   8.428 -0.4010 -0.1192 -0.0851
  514MOL0     C69297   1.669   2.558   8.582 -0.8227 -0.0190 -0.8979
  514MOL0     C69298   1.797   2.601   8.653 -0.3276  0.1974 -0.6771
  514MOL0     C69299   1.792   2.561   8.802 -0.0209 -0.6130  0.4058
  514MOL0    Cl69300   1.650   2.621   8.895  0.0489  0.2394  0.2793
  514MOL0     C69301   1.893   2.243   8.021  0.2707 -1.3641  0.4933
  514MOL0     C69302   2.018   2.212   7.953  0.9250  0.0383 -0.0213
  514MOL0     O69303   2.117   1.993   7.697  0.1942 -0.4037 -0.9536
  514MOL0     C69304   2.371   1.989   7.559 -0.8848  0.7220  0.4687
  514MOL0     C69305   2.490   1.992   7.487 -0.6167  0.2498  0.4424
  514MOL0     N69306   2.950   2.468   7.425 -0.4723 -0.0971  0.4421
  514MOL0     N69307   2.998   2.569   7.362 -0.3579 -1.4401  0.4990
  514MOL0     C69308   3.783   2.891   6.440 -0.7483  0.1840 -0.0447
  514MOL0     C69309   3.910   2.889   6.379 -0.2925  0.0696  0.2201
  514MOL0     C69310   4.239   2.730   6.093 -0.0582 -0.2097  0.0641
  514MOL0     C69311   4.278   2.731   5.962  1.0363 -0.0270  0.3303
  514MOL0     C69312   4.411   2.696   5.921  0.0393  0.1557 -0.6210
  514MOL0     C69313   4.510   2.683   6.016  0.3439 -0.7804  0.4975
  514MOL0     O69314   4.643   2.665   5.993 -0.1488 -0.5737  0.2945
  514MOL0     C69315   4.702   2.753   5.897 -0.7966 -0.1969  0.3204
  514MOL0     C69316   4.840   2.784   5.958  0.3772  1.0632 -0.6252
  514MOL0     C69317   4.829   2.869   6.085  0.5238  0.2539 -0.3874
  514MOL0     C69318   4.967   2.918   6.122  0.3466  0.6741  0.1174
  514MOL0     C69319   5.028   2.813   6.206 -1.0922 -0.1121  0.4785
  514MOL0     C69320   5.091   2.736   6.276  0.0413 -0.1369  0.6406
  514MOL0     C69321   4.479   2.693   6.157  1.0284  1.5081  0.0137
  514MOL0     C69322   4.341   2.710   6.189  0.4872  0.0837 -0.2169
  514MOL0     H69323   3.933   2.562   6.298  2.0418  0.7670 -0.2985
  514MOL0     H69324   3.695   2.564   6.371  1.0378 -0.9935 -1.3415
  514MOL0     H69325   3.538   2.924   6.608  0.3749  0.1828  0.6095
  514MOL0     H69326   3.522   2.979   6.438 -0.0877 -0.5439  0.0846
  514MOL0     H69327   3.296   2.960   6.558 -0.0023 -1.4247  1.4452
  514MOL0     H69328   3.314   2.873   6.409 -0.2784  2.9002  0.0662
  514MOL0     H69329   3.195   2.736   6.581 -0.0665 -1.3628 -0.7973
  514MOL0     H69330   3.344   2.656   6.540 -2.4119 -0.6926 -2.9519
  514MOL0     H69331   3.437   2.733   6.760 -0.6694  0.7954 -0.2425
  514MOL0     H69332   3.330   2.867   6.768 -0.5176 -0.7343  1.0208
  514MOL0     H69333   3.144   2.713   6.847  0.4366 -0.0815  0.1754
  514MOL0     H69334   3.224   2.578   6.799 -0.8562  0.2252  1.0432
  514MOL0     H69335   3.396   2.627   6.979  0.0993 -0.6046 -4.5880
  514MOL0     H69336   3.300   2.781   7.016  2.6259 -0.6015  2.0339
  514MOL0     H69337   3.095   2.622   7.047 -0.5442 -0.0539  1.1872
  514MOL0     H69338   3.208   2.494   7.056  1.5448 -0.1046 -0.7348
  514MOL0     H69339   3.209   2.732   7.251  2.1967 -0.9401  0.6312
  514MOL0     H69340   3.321   2.607   7.254  1.4975  1.3484 -2.9009
  514MOL0     H69341   3.244   2.348   7.321  1.9461  2.7154  0.1474
  514MOL0     H69342   3.120   2.170   7.482 -0.5901  0.3850  2.5136
  514MOL0     H69343   2.958   2.196   7.531  2.1101  0.8157  1.7307
  514MOL0     H69344   2.948   2.045   7.356  0.1332  1.1283  3.0790
  514MOL0     H69345   3.067   2.141   7.261  1.5778  3.5063  1.6828
  514MOL0     H69346   2.838   2.159   7.165 -1.7299  1.1314 -0.2799
  514MOL0     H69347   2.891   2.312   7.219  0.8521  1.2598  3.1116
  514MOL0     H69348   2.670   2.289   7.265 -0.1912  0.4464  1.1464
  514MOL0     H69349   2.745   2.290   7.425 -2.3211 -1.9497  1.8597
  514MOL0     H69350   2.519   2.322   7.443 -0.4628  1.4168  2.2691
  514MOL0     H69351   2.330   2.438   7.506 -1.6120 -0.6150 -0.6128
  514MOL0     H69352   2.204   2.358   7.571 -0.3985 -1.2048 -0.3844
  514MOL0     H69353   2.333   2.418   7.684  2.7777 -3.1002  1.0697
  514MOL0     H69354   1.904   2.248   7.630 -0.2603  1.0905 -0.0683
  514MOL0     H69355   1.719   2.339   7.747  1.3775 -1.5277 -1.8552
  514MOL0     H69356   1.649   2.488   7.916  0.3219 -1.7368 -1.3362
  514MOL0     H69357   1.520   2.371   7.896  1.1571 -0.9792 -1.4941
  514MOL0     H69358   1.452   2.554   8.052  2.0709  0.9735 -0.2151
  514MOL0     H69359   1.462   2.403   8.147  1.1545 -0.1914  0.3669
  514MOL0     H69360   1.633   2.660   8.162 -1.0431  0.2567  0.0493
  514MOL0     H69361   1.723   2.514   8.171  0.6816  0.3076  0.9221
  514MOL0     H69362   1.494   2.593   8.344 -0.8200 -1.1612  0.1429
  514MOL0     H69363   1.559   2.428   8.348 -0.6248 -0.4188  1.7212
  514MOL0     H69364   1.718   2.678   8.400  0.5482 -0.1742  0.3219
  514MOL0     H69365   1.782   2.514   8.390  0.4737  1.6070 -1.0235
  514MOL0     H69366   1.595   2.623   8.628  1.5358 -0.5424  4.3593
  514MOL0     H69367   1.648   2.451   8.595  0.0452 -0.5357 -3.2518
  514MOL0     H69368   1.809   2.709   8.658  0.6057  0.1580 -1.7070
  514MOL0     H69369   1.887   2.557   8.609  1.2410  1.0676  1.4420
  514MOL0     H69370   1.877   2.612   8.847  1.6435  0.2941 -3.3991
  514MOL0     H69371   1.809   2.453   8.812 -2.6375 -0.9431  2.1143
  514MOL0     H69372   1.884   2.251   8.129  2.7483 -1.7025  0.7984
  514MOL0     H69373   2.105   2.178   8.008  2.3692  0.0931 -2.1498
  514MOL0     H69374   2.350   1.892   7.603  0.9481  1.6740  3.7184
  514MOL0     H69375   2.540   1.898   7.466 -0.1544  0.9767 -2.1142
  514MOL0     H69376   3.766   2.985   6.490  0.8748  0.9308 -0.8313
  514MOL0     H69377   3.974   2.973   6.405  0.9161  0.5014 -3.6211
  514MOL0     H69378   4.203   2.749   5.886  1.5620  0.8600 -0.0008
  514MOL0     H69379   4.432   2.681   5.816 -1.8227 -1.4898 -0.7963
  514MOL0     H69380   4.720   2.713   5.796  0.3924 -2.7340  1.4475
  514MOL0     H69381   4.648   2.848   5.891 -0.0525  0.3127  1.4188
  514MOL0     H69382   4.904   2.836   5.886  0.7526  0.7531 -0.5249
  514MOL0     H69383   4.879   2.690   6.000  1.1383  0.7053 -2.0570
  514MOL0     H69384   4.784   2.800   6.157  0.1836 -0.1662 -0.9947
  514MOL0     H69385   4.759   2.952   6.073  0.2148 -0.0018 -0.3610
  514MOL0     H69386   4.947   3.015   6.168 -1.8602  1.0349 -1.4746
  514MOL0     H69387   5.035   2.931   6.036  1.3609  1.2325  0.9795
  514MOL0     H69388   5.144   2.672   6.344  2.9671  1.3380 -0.0812
  514MOL0     H69389   4.553   2.681   6.236  2.1009 -1.3856 -1.3072
  514MOL0     H69390   4.326   2.704   6.296 -0.6593  0.0984 -0.3669
  515MOL0     O69391   1.597   5.241   7.375  0.2413  0.2920  0.4173
  515MOL0     C69392   1.675   5.214   7.286 -0.4308  0.3805 -0.5104
  515MOL0     O69393   1.643   5.199   7.157  0.0048  0.0498  0.1154
  515MOL0     C69394   1.519   5.174   7.106  0.7696  0.8367 -0.1701
  515MOL0     C69395   1.489   5.208   6.979 -0.2085  0.3110  0.4850
  515MOL0     C69396   1.358   5.209   6.933  0.9995 -0.3030 -0.1210
  515MOL0     C69397   1.249   5.166   7.006  0.4901 -0.2611 -0.2013
  515MOL0     O69398   1.123   5.163   6.947  0.2559 -0.6403  0.4410
  515MOL0     C69399   1.013   5.144   7.026 -0.2022 -0.0089 -0.4254
  515MOL0     C69400   0.883   5.161   6.943 -0.3763 -0.1949 -0.1180
  515MOL0     C69401   0.774   5.115   7.033  0.2600  0.2788  0.3229
  515MOL0     C69402   0.646   5.170   6.984  0.1198  0.0221  0.0850
  515MOL0     C69403   0.530   5.145   7.076 -0.0831  0.0588  0.4848
  515MOL0     C69404   0.535   5.225   7.205  0.3833  0.5402 -0.4240
  515MOL0     C69405   0.402   5.191   7.279 -0.4290 -0.2861 -0.1497
  515MOL0     C69406   0.408   5.045   7.342 -0.9265  0.0121 -0.0521
  515MOL0     N69407   0.295   5.018   7.426  0.1132  0.3049 -0.3443
  515MOL0     C69408   0.186   5.099   7.463 -0.8542 -0.0105 -0.6311
  515MOL0     C69409   0.107   5.022   7.538  0.4616  0.1746  0.1267
  515MOL0     C69410  -0.018   5.064   7.613 -0.5505 -0.1973  0.4451
  515MOL0     C69411  -0.117   5.130   7.526 -1.2141  0.3612  0.1465
  515MOL0     C69412  -0.225   5.196   7.612 -0.3052  0.3225 -0.9132
  515MOL0     C69413  -0.369   5.188   7.559  0.2131  0.1954  0.2878
  515MOL0     O69414  -0.452   5.254   7.648  0.7472  0.5780 -0.4866
  515MOL0     C69415  -0.569   5.305   7.606  0.2281  0.7896 -0.3770
  515MOL0     C69416  -0.627   5.402   7.691  0.9693  0.0606 -0.0124
  515MOL0     C69417  -0.745   5.469   7.655 -0.4156 -1.1833 -0.0934
  515MOL0     C69418  -0.781   5.581   7.749  0.3952 -0.5862  0.7142
  515MOL0     C69419  -0.820   5.442   7.542  0.1752  1.0105 -0.1756
  515MOL0     C69420  -0.959   5.495   7.504 -0.2034 -0.2863 -0.5516
  515MOL0     O69421  -1.008   5.471   7.375  0.4150 -0.0224 -0.3684
  515MOL0     C69422  -1.136   5.521   7.362 -0.8689  0.6855  0.0958
  515MOL0     C69423  -1.252   5.451   7.384  0.3650  0.6569  0.5016
  515MOL0     C69424  -1.376   5.510   7.367 -0.4469 -0.3653 -0.0025
  515MOL0     C69425  -1.381   5.650   7.336  0.3672  0.6537 -0.2591
  515MOL0     O69426  -1.499   5.724   7.322 -0.4852 -0.3012  0.0734
  515MOL0     C69427  -1.622   5.666   7.264 -1.2772 -0.3593 -0.3321
  515MOL0     C69428  -1.734   5.764   7.293 -0.0469 -0.4784  0.0303
  515MOL0     C69429  -1.854   5.727   7.204 -0.0828 -0.5443 -0.4159
  515MOL0     C69430  -1.827   5.770   7.061  0.4157 -0.1566 -0.0961
  515MOL0     C69431  -1.922   5.713   6.957  0.5923 -0.3252  0.3088
  515MOL0     C69432  -2.071   5.746   6.970 -0.8455 -0.0813 -0.3401
  515MOL0     C69433  -2.102   5.895   6.975 -0.3125  0.1775  1.0313
  515MOL0     C69434  -2.251   5.920   6.965 -0.1424 -0.6118  0.8834
  515MOL0    Cl69435  -2.340   5.850   7.103  0.5366  0.4567 -0.3144
  515MOL0     C69436  -1.259   5.717   7.307 -0.3619 -0.1354 -0.5759
  515MOL0     C69437  -1.136   5.655   7.323 -0.5525 -0.3149  0.3345
  515MOL0     O69438  -1.010   5.574   7.584 -0.8312  0.6861 -0.1756
  515MOL0     C69439  -0.764   5.332   7.462 -0.1742 -0.1733  0.2528
  515MOL0     C69440  -0.641   5.270   7.489 -0.3052 -0.3246  0.2126
  515MOL0     N69441   0.171   4.899   7.546 -0.0096  0.4611 -0.2325
  515MOL0     N69442   0.277   4.889   7.478  0.3744  0.1592 -0.1822
  515MOL0     C69443   1.274   5.136   7.136 -1.0188  0.6195 -0.6606
  515MOL0     C69444   1.409   5.137   7.184 -0.1902 -0.3018 -0.2024
  515MOL0     C69445   1.803   5.166   7.329 -0.0325 -0.2807  0.1769
  515MOL0     C69446   1.905   5.133   7.229  0.1162 -1.0025 -0.2908
  515MOL0     C69447   2.030   5.075   7.266 -0.2306 -0.3649 -0.2787
  515MOL0     C69448   2.042   5.047   7.404 -0.5481  0.0046  0.7833
  515MOL0     O69449   2.162   4.982   7.436  0.2185 -0.0536 -0.1257
  515MOL0     C69450   2.202   4.964   7.577 -0.2838 -0.1820 -0.7107
  515MOL0     C69451   2.328   4.887   7.593  0.4186  0.4595  0.0239
  515MOL0     C69452   2.436   4.933   7.498 -0.1070 -0.7361 -0.3549
  515MOL0     C69453   2.556   5.004   7.556 -0.4733 -0.4055  0.0175
  515MOL0     C69454   2.663   5.040   7.463 -0.1491  0.4182 -0.5159
  515MOL0     C69455   2.759   5.072   7.393 -0.6967  0.5433 -0.1706
  515MOL0     C69456   1.944   5.079   7.490  0.8471 -0.4712 -0.2365
  515MOL0     C69457   1.823   5.139   7.459  0.5251 -0.1008 -0.0864
  515MOL0     H69458   1.556   5.258   6.909  0.2838  0.5740  1.1231
  515MOL0     H69459   1.323   5.240   6.835 -1.3931 -0.2975  0.6809
  515MOL0     H69460   1.017   5.048   7.077  2.8720  0.5306  0.5946
  515MOL0     H69461   1.016   5.215   7.109 -0.5140 -1.4956  0.9081
  515MOL0     H69462   0.873   5.265   6.911 -0.8690  0.0511  0.7801
  515MOL0     H69463   0.882   5.095   6.856 -0.7489 -0.9262  0.4353
  515MOL0     H69464   0.765   5.006   7.026  0.3561  0.3547 -1.6908
  515MOL0     H69465   0.791   5.139   7.138 -0.3824 -0.8297  0.6985
  515MOL0     H69466   0.653   5.277   6.962 -0.4575 -0.2538 -1.6379
  515MOL0     H69467   0.628   5.121   6.887  1.8027  1.7573 -1.1862
  515MOL0     H69468   0.440   5.171   7.019 -0.0266  1.4296  0.9799
  515MOL0     H69469   0.528   5.040   7.104 -0.0583  0.4779  2.1283
  515MOL0     H69470   0.612   5.181   7.269 -1.8416 -2.6496  0.2746
  515MOL0     H69471   0.541   5.333   7.186  1.9987  0.1944 -2.1210
  515MOL0     H69472   0.395   5.264   7.360  1.6189 -1.1210  0.8301
  515MOL0     H69473   0.311   5.206   7.219 -0.0782  0.7596 -0.4371
  515MOL0     H69474   0.504   5.027   7.390 -0.7912 -0.6333 -0.5487
  515MOL0     H69475   0.403   4.977   7.256  1.8617 -0.3849  0.0140
  515MOL0     H69476   0.170   5.202   7.435 -0.7504  0.8739  2.2521
  515MOL0     H69477  -0.066   4.976   7.656 -0.5953 -1.4163 -1.8922
  515MOL0     H69478   0.004   5.132   7.696 -1.3289  1.2233 -0.4549
  515MOL0     H69479  -0.164   5.049   7.469  1.5047 -1.0900 -0.2123
  515MOL0     H69480  -0.074   5.188   7.443 -1.5816 -0.0772 -0.3552
  515MOL0     H69481  -0.203   5.302   7.623 -0.2738  0.0716  3.3956
  515MOL0     H69482  -0.229   5.145   7.709  1.1791  0.1657 -0.9176
  515MOL0     H69483  -0.401   5.083   7.557 -1.7839  0.7679 -0.5718
  515MOL0     H69484  -0.379   5.225   7.457 -2.2319  1.6581  0.9839
  515MOL0     H69485  -0.565   5.432   7.775  0.5667 -0.4837  0.4862
  515MOL0     H69486  -0.797   5.672   7.691 -3.0754 -0.3303  1.8020
  515MOL0     H69487  -0.875   5.545   7.794 -1.0973  0.9900 -0.9626
  515MOL0     H69488  -0.706   5.602   7.826 -0.1374  0.8398  0.8741
  515MOL0     H69489  -1.236   5.347   7.408 -0.3329  0.2442 -0.7259
  515MOL0     H69490  -1.468   5.454   7.382  0.1508 -1.3026  0.2046
  515MOL0     H69491  -1.607   5.653   7.156 -2.0943  3.6447 -1.0675
  515MOL0     H69492  -1.636   5.570   7.315 -2.1820 -0.1880 -0.2498
  515MOL0     H69493  -1.766   5.756   7.398 -0.7186  2.7818  0.2046
  515MOL0     H69494  -1.700   5.865   7.269 -2.2434  0.1889 -0.5553
  515MOL0     H69495  -1.947   5.767   7.244  0.9742 -1.7274  3.6452
  515MOL0     H69496  -1.868   5.619   7.206  0.8951 -0.6753  1.1092
  515MOL0     H69497  -1.818   5.879   7.055 -1.4725  0.0300 -0.2458
  515MOL0     H69498  -1.726   5.743   7.030  0.4722 -0.9632  0.7607
  515MOL0     H69499  -1.900   5.606   6.949  7.1743  0.6398 -0.2848
  515MOL0     H69500  -1.884   5.750   6.861 -2.4944 -0.8132 -1.2087
  515MOL0     H69501  -2.125   5.701   6.886  0.5616 -0.6350 -0.9672
  515MOL0     H69502  -2.118   5.705   7.061 -2.8793  0.3743 -1.1181
  515MOL0     H69503  -2.047   5.961   6.907  2.9995 -0.6750  2.6717
  515MOL0     H69504  -2.069   5.932   7.073 -0.1832 -0.6556  1.3026
  515MOL0     H69505  -2.290   5.878   6.871 -1.5672 -0.0377  1.1828
  515MOL0     H69506  -2.280   6.026   6.961 -0.3190 -0.5793  2.4358
  515MOL0     H69507  -1.260   5.824   7.287 -0.6605  0.4346  2.1015
  515MOL0     H69508  -1.039   5.699   7.302 -1.3270  2.4067  2.0512
  515MOL0     H69509  -0.820   5.313   7.371 -1.1416  2.1584  0.2878
  515MOL0     H69510  -0.594   5.192   7.429  1.0080  2.6673 -2.9798
  515MOL0     H69511   1.189   5.093   7.188  0.3075 -1.1777  0.1302
  515MOL0     H69512   1.415   5.107   7.288  4.5746  1.3847  0.2940
  515MOL0     H69513   1.880   5.147   7.124  0.6764 -1.2844 -0.4673
  515MOL0     H69514   2.109   5.047   7.197 -0.0141 -0.8875  0.1707
  515MOL0     H69515   2.218   5.063   7.623 -3.8250 -0.5751  1.7910
  515MOL0     H69516   2.118   4.918   7.629  0.2909  0.1241  0.5260
  515MOL0     H69517   2.303   4.783   7.571 -2.9712  0.7645  1.7206
  515MOL0     H69518   2.374   4.884   7.692  2.1225  0.0779 -0.7463
  515MOL0     H69519   2.398   5.000   7.420  0.7895  0.4922  0.2169
  515MOL0     H69520   2.471   4.842   7.449 -0.2605 -0.4329 -1.0453
  515MOL0     H69521   2.606   4.936   7.626 -0.0516 -0.0572  0.0536
  515MOL0     H69522   2.515   5.090   7.609 -0.3176  1.4584 -2.7116
  515MOL0     H69523   2.838   5.113   7.334 -0.0660 -0.2663  0.0881
  515MOL0     H69524   1.951   5.047   7.594 -1.7754 -1.1214 -0.1928
  515MOL0     H69525   1.750   5.154   7.539  2.9210  2.8815  1.7702
  516MOL0     O69526   9.778   6.562   4.002  0.0240 -0.8088  0.5548
  516MOL0     C69527   9.833   6.531   3.897 -0.2589  0.0602  0.3752
  516MOL0     O69528   9.769   6.493   3.776 -0.5212  0.1426  0.5475
  516MOL0     C69529   9.632   6.474   3.772 -0.1840  1.0581 -0.3562
  516MOL0     C69530   9.539   6.541   3.846  0.1491  0.1822  0.0283
  516MOL0     C69531   9.401   6.500   3.831 -0.8109  0.4530  0.0016
  516MOL0     C69532   9.363   6.383   3.768 -0.3183 -0.2073 -0.2651
  516MOL0     O69533   9.231   6.354   3.771  0.7811 -0.3976 -0.5108
  516MOL0     C69534   9.174   6.262   3.681  0.6802  0.0986  0.4519
  516MOL0     C69535   9.032   6.300   3.635 -0.1023 -0.1423  1.1138
  516MOL0     C69536   8.939   6.318   3.753  0.9604  0.4019  1.1071
  516MOL0     C69537   8.787   6.308   3.711  1.0139  0.1698  0.9235
  516MOL0     C69538   8.707   6.346   3.822  0.7398  0.5815  0.3104
  516MOL0     C69539   8.560   6.352   3.781 -1.6816  0.7170  0.2661
  516MOL0     C69540   8.466   6.368   3.904  0.1875 -0.5839 -0.0368
  516MOL0     C69541   8.314   6.350   3.864  0.2634  0.4197  0.0828
  516MOL0     N69542   8.224   6.366   3.974 -0.0495  0.5012 -0.4639
  516MOL0     C69543   8.102   6.422   3.984 -0.4598  0.0762 -0.0615
  516MOL0     C69544   8.057   6.405   4.108 -0.0693 -0.2039  0.3629
  516MOL0     C69545   7.937   6.462   4.177 -0.0599 -0.1197  0.2150
  516MOL0     C69546   7.879   6.595   4.114  1.1456  0.4629 -0.4908
  516MOL0     C69547   7.760   6.650   4.202  0.5286 -0.2046 -0.1275
  516MOL0     C69548   7.718   6.785   4.152  0.7242 -0.0707 -0.2696
  516MOL0     O69549   7.624   6.754   4.037 -0.7913 -0.2124  0.5174
  516MOL0     C69550   7.489   6.760   4.047  0.5162 -0.2663 -0.2068
  516MOL0     C69551   7.416   6.778   4.170 -0.1933 -1.0345  0.4809
  516MOL0     C69552   7.284   6.750   4.177 -0.2957  0.0645 -0.5100
  516MOL0     C69553   7.218   6.767   4.315 -1.1549 -0.0127  0.3279
  516MOL0     C69554   7.207   6.712   4.067  0.5205 -0.5129  0.6324
  516MOL0     C69555   7.058   6.689   4.074  0.2633 -0.0854  0.8806
  516MOL0     O69556   6.989   6.738   4.175  0.1433  0.4118 -0.4003
  516MOL0     C69557   6.853   6.751   4.153 -0.4222 -0.6334 -1.0037
  516MOL0     C69558   6.764   6.641   4.148 -0.6735  0.6216 -0.8147
  516MOL0     C69559   6.633   6.662   4.133  0.1472 -0.4732 -0.1701
  516MOL0     C69560   6.571   6.786   4.137  0.4771  1.0142  0.0003
  516MOL0     O69561   6.435   6.795   4.151 -0.0932 -0.2905 -0.0854
  516MOL0     C69562   6.375   6.919   4.190 -0.3649 -1.4261 -0.6952
  516MOL0     C69563   6.234   6.894   4.185 -0.1091  0.3647  0.2905
  516MOL0     C69564   6.180   6.824   4.318 -0.1981 -0.5631 -0.6801
  516MOL0     C69565   6.038   6.781   4.283 -0.4560  0.7312  0.0924
  516MOL0     C69566   5.997   6.691   4.409  0.6136 -0.0511  0.4821
  516MOL0     C69567   5.850   6.658   4.393 -0.1750  0.4758 -0.0424
  516MOL0     C69568   5.801   6.591   4.522  0.1023 -0.3615 -0.1758
  516MOL0     C69569   5.660   6.544   4.510  0.3772  0.3175  0.4029
  516MOL0    Cl69570   5.534   6.662   4.559  0.1323 -0.4220  0.1633
  516MOL0     C69571   6.656   6.902   4.133 -0.4531  0.2846 -0.1824
  516MOL0     C69572   6.800   6.884   4.133 -0.5478 -1.0842 -0.5818
  516MOL0     O69573   7.011   6.624   3.978 -0.1268  0.0464 -0.7567
  516MOL0     C69574   7.283   6.687   3.943 -0.3977  0.7501 -0.9893
  516MOL0     C69575   7.417   6.704   3.944 -0.5296  0.0688  0.3318
  516MOL0     N69576   8.156   6.329   4.168 -0.1719 -0.2370 -0.1840
  516MOL0     N69577   8.248   6.295   4.092 -0.6070 -0.1293  0.7631
  516MOL0     C69578   9.463   6.305   3.708 -0.1229 -0.6286  0.1986
  516MOL0     C69579   9.597   6.362   3.700 -0.3148  0.3823  0.4145
  516MOL0     C69580   9.984   6.530   3.882  0.6405 -0.6360  0.0254
  516MOL0     C69581  10.055   6.490   3.766  0.9807  0.3790 -0.1435
  516MOL0     C69582  10.194   6.489   3.760 -0.2623 -0.3496  0.1106
  516MOL0     C69583  10.275   6.512   3.877  1.2964 -0.1410  0.6637
  516MOL0     O69584  10.413   6.513   3.866 -0.1354 -0.1742 -0.1896
  516MOL0     C69585  10.487   6.563   3.971  0.2023  0.2935  0.0407
  516MOL0     C69586  10.634   6.570   3.928 -0.1579  0.2800  0.5704
  516MOL0     C69587  10.730   6.637   4.031 -0.9871 -1.3719  0.0434
  516MOL0     C69588  10.874   6.626   3.972 -0.0881 -0.4757 -0.4366
  516MOL0     C69589  10.972   6.684   4.066  0.4337 -0.0125  0.1449
  516MOL0     C69590  11.046   6.723   4.148  0.2757  0.0757  1.0359
  516MOL0     C69591  10.204   6.546   3.998 -0.3610 -0.1950 -0.3680
  516MOL0     C69592  10.059   6.556   4.001 -0.3271  1.1139  0.0808
  516MOL0     H69593   9.555   6.626   3.912  0.0919  0.3717 -0.1990
  516MOL0     H69594   9.316   6.548   3.878 -0.6358  0.3188  0.4594
  516MOL0     H69595   9.225   6.247   3.586  2.1913 -1.5210  1.4605
  516MOL0     H69596   9.179   6.166   3.732  1.8540  0.0911  0.3430
  516MOL0     H69597   9.040   6.391   3.574  1.4277 -0.0848  1.3549
  516MOL0     H69598   8.989   6.234   3.559  0.6572 -0.2595  0.7754
  516MOL0     H69599   8.952   6.244   3.833 -0.2109  2.8318  3.7134
  516MOL0     H69600   8.950   6.411   3.810 -0.8852  0.3624  1.6016
  516MOL0     H69601   8.776   6.382   3.632  1.3825  1.4876  2.0528
  516MOL0     H69602   8.772   6.206   3.674 -0.5704  1.3494 -1.9922
  516MOL0     H69603   8.722   6.286   3.913 -0.8556  0.2640  0.4064
  516MOL0     H69604   8.738   6.448   3.844 -1.3740  1.0830  1.3122
  516MOL0     H69605   8.550   6.442   3.720  0.5016  0.5939 -0.3468
  516MOL0     H69606   8.534   6.265   3.720  0.3779 -0.1226  0.5035
  516MOL0     H69607   8.485   6.284   3.971  0.2383  1.0867  2.1621
  516MOL0     H69608   8.479   6.454   3.970  1.0171 -0.8301  0.1302
  516MOL0     H69609   8.300   6.252   3.819 -0.9117  1.4575 -1.9701
  516MOL0     H69610   8.276   6.421   3.790  0.2655  0.1586 -0.1671
  516MOL0     H69611   8.052   6.476   3.904 -1.2979  0.6458  0.8132
  516MOL0     H69612   7.860   6.385   4.191  0.2580 -0.4578  0.1197
  516MOL0     H69613   7.968   6.482   4.280 -1.2534 -0.8585  0.7418
  516MOL0     H69614   7.836   6.559   4.020  2.8853  0.7097 -1.4247
  516MOL0     H69615   7.954   6.672   4.097 -0.0084  1.3348 -1.9230
  516MOL0     H69616   7.802   6.642   4.303 -0.0920 -0.6559  0.1011
  516MOL0     H69617   7.672   6.587   4.184  1.0231 -0.5272 -1.5864
  516MOL0     H69618   7.804   6.836   4.108  0.7369  0.6690  0.5943
  516MOL0     H69619   7.673   6.848   4.229  2.4168  1.6983 -0.6491
  516MOL0     H69620   7.478   6.811   4.253  2.3222 -0.5818 -1.4915
  516MOL0     H69621   7.295   6.756   4.392  0.0602 -2.1179 -1.0874
  516MOL0     H69622   7.158   6.859   4.317  1.3861  1.8138 -1.3688
  516MOL0     H69623   7.156   6.680   4.338 -0.5286 -1.2795 -2.4098
  516MOL0     H69624   6.798   6.538   4.157  1.4697  1.4508  1.6797
  516MOL0     H69625   6.574   6.571   4.133  1.3832 -1.3079 -1.4147
  516MOL0     H69626   6.398   6.951   4.292  0.3765 -1.8490 -0.7167
  516MOL0     H69627   6.410   7.000   4.126 -0.9382 -2.0338 -1.7940
  516MOL0     H69628   6.173   6.984   4.167 -0.3024  0.1943  0.0892
  516MOL0     H69629   6.212   6.831   4.098 -0.6185 -1.6796  1.8312
  516MOL0     H69630   6.176   6.896   4.401 -5.9142  0.5478 -1.4903
  516MOL0     H69631   6.244   6.736   4.328 -0.5642 -1.0627 -2.4532
  516MOL0     H69632   5.971   6.865   4.264 -1.7968 -0.4352 -0.5239
  516MOL0     H69633   6.053   6.722   4.192  0.1159  0.0094  0.6481
  516MOL0     H69634   6.013   6.755   4.496  2.0973 -0.7791  0.7848
  516MOL0     H69635   6.058   6.600   4.415 -0.9061 -1.1700 -0.2905
  516MOL0     H69636   5.797   6.752   4.375  0.7587  0.6178 -2.3961
  516MOL0     H69637   5.825   6.601   4.302  0.8900  0.7010 -0.4847
  516MOL0     H69638   5.826   6.655   4.607  1.6309 -0.6664 -0.3808
  516MOL0     H69639   5.863   6.502   4.536  0.0361 -0.1298  1.8932
  516MOL0     H69640   5.649   6.448   4.562  0.2730 -0.5958 -1.2381
  516MOL0     H69641   5.642   6.526   4.404  0.7169  1.0060  0.2196
  516MOL0     H69642   6.624   7.005   4.123 -0.9870  0.2312  0.7854
  516MOL0     H69643   6.870   6.966   4.119 -0.5676 -1.0405 -0.4190
  516MOL0     H69644   7.238   6.629   3.863 -0.9280  0.6227 -0.6064
  516MOL0     H69645   7.478   6.674   3.859  1.1333  1.6823  0.8866
  516MOL0     H69646   9.438   6.215   3.652 -0.8448  0.8082 -1.9075
  516MOL0     H69647   9.665   6.294   3.650 -1.4299 -0.3206 -0.2016
  516MOL0     H69648  10.006   6.466   3.673 -0.8123 -0.8149  1.0502
  516MOL0     H69649  10.255   6.464   3.674 -0.1708 -1.1359  0.4009
  516MOL0     H69650  10.457   6.667   3.989 -1.1538  0.0869 -0.9343
  516MOL0     H69651  10.460   6.502   4.058 -0.8315  0.1489 -0.3677
  516MOL0     H69652  10.637   6.623   3.832 -0.5621 -0.4757  0.1314
  516MOL0     H69653  10.671   6.468   3.915 -0.4568  0.0433  1.5258
  516MOL0     H69654  10.720   6.585   4.126 -0.1383  0.7253  1.3583
  516MOL0     H69655  10.687   6.737   4.046 -2.7018 -2.2261  1.0563
  516MOL0     H69656  10.871   6.687   3.881 -1.0314 -0.3932 -0.3587
  516MOL0     H69657  10.911   6.526   3.948  1.4042  0.2979 -1.5866
  516MOL0     H69658  11.120   6.760   4.216  1.2919 -3.6167  2.1339
  516MOL0     H69659  10.254   6.557   4.094 -2.2794 -0.9805  0.7666
  516MOL0     H69660  10.013   6.563   4.099  1.6031  1.9969  0.9900
  517MOL0     O69661   4.108   7.771  10.303  0.4762  0.1344  0.3875
  517MOL0     C69662   4.097   7.694  10.213  0.7346 -0.3965 -0.5481
  517MOL0     O69663   3.983   7.618  10.182 -1.0345 -0.4430 -0.1501
  517MOL0     C69664   3.864   7.634  10.240 -0.4209 -0.2133 -0.9884
  517MOL0     C69665   3.818   7.529  10.310  0.2487  0.6535  0.2346
  517MOL0     C69666   3.692   7.530  10.367  0.7736 -0.5611  0.3470
  517MOL0     C69667   3.617   7.645  10.356  0.8933 -0.1695 -1.4487
  517MOL0     O69668   3.502   7.663  10.428  0.1874 -0.1927 -0.6132
  517MOL0     C69669   3.384   7.595  10.395  0.6254 -0.5167 -0.4430
  517MOL0     C69670   3.320   7.526  10.516 -0.5196 -0.2097 -0.5379
  517MOL0     C69671   3.193   7.451  10.490 -0.3102 -0.6575  0.3541
  517MOL0     C69672   3.115   7.426  10.623  0.0451 -1.7740 -0.5415
  517MOL0     C69673   2.958   7.397  10.608 -0.7876 -0.5377  0.0528
  517MOL0     C69674   2.945   7.243  10.586  0.1755 -0.4951  0.7091
  517MOL0     C69675   2.808   7.223  10.511 -0.6652  0.0510  0.2191
  517MOL0     C69676   2.689   7.277  10.601  1.0902  0.0448 -0.3983
  517MOL0     N69677   2.561   7.262  10.528 -0.8959 -0.1961  0.3079
  517MOL0     C69678   2.499   7.352  10.443 -0.5516 -0.3516 -0.1618
  517MOL0     C69679   2.397   7.288  10.377 -0.7408  0.3242 -0.0604
  517MOL0     C69680   2.289   7.346  10.298  0.3926 -0.0148  0.0391
  517MOL0     C69681   2.352   7.403  10.180 -0.2038  0.7943  0.7226
  517MOL0     C69682   2.267   7.492  10.091  0.0862  0.2612  0.1143
  517MOL0     C69683   2.147   7.430  10.023 -0.5363 -0.1925  1.3620
  517MOL0     O69684   2.070   7.520   9.945  0.0115  0.3404 -0.0703
  517MOL0     C69685   1.937   7.486   9.905 -0.5519 -0.0902 -0.6980
  517MOL0     C69686   1.823   7.572   9.890  0.0803 -0.5324  0.1314
  517MOL0     C69687   1.706   7.527   9.834  0.1120 -0.2978  0.2440
  517MOL0     C69688   1.598   7.633   9.816  0.2634 -0.0159 -0.1522
  517MOL0     C69689   1.679   7.390   9.810  0.4558  0.5352 -1.1257
  517MOL0     C69690   1.544   7.328   9.788  0.2898 -0.9254  0.7148
  517MOL0     O69691   1.436   7.402   9.799 -0.3736 -0.1959  0.2316
  517MOL0     C69692   1.319   7.354   9.813  1.1344  0.3727  0.4492
  517MOL0     C69693   1.275   7.224   9.855  0.2285  0.8006  0.2311
  517MOL0     C69694   1.143   7.190   9.866  0.1961  0.3974 -0.6862
  517MOL0     C69695   1.045   7.289   9.834 -0.4254  0.4898 -0.7545
  517MOL0     O69696   0.912   7.276   9.835  0.1307  0.1264 -0.4958
  517MOL0     C69697   0.859   7.147   9.837 -0.2901 -0.0032  0.0844
  517MOL0     C69698   0.709   7.142   9.837  1.0467 -0.8112 -0.6889
  517MOL0     C69699   0.644   7.286   9.847  1.0540 -0.1004  0.3542
  517MOL0     C69700   0.489   7.257   9.848  0.0599  0.4137 -0.1589
  517MOL0     C69701   0.412   7.381   9.856  1.1465 -0.3724 -0.3370
  517MOL0     C69702   0.263   7.367   9.878  0.1535  0.2708 -0.2601
  517MOL0     C69703   0.204   7.319  10.011  0.7799  0.5886 -0.4455
  517MOL0     C69704   0.062   7.387  10.042  0.1612  0.1004  0.4569
  517MOL0    Cl69705  -0.057   7.321   9.920 -0.1921 -0.1797 -0.2523
  517MOL0     C69706   1.094   7.419   9.800  0.6145 -0.0800 -0.1922
  517MOL0     C69707   1.221   7.453   9.792  0.2570 -0.4108 -0.0966
  517MOL0     O69708   1.541   7.208   9.762 -0.4108  0.1129  0.0433
  517MOL0     C69709   1.789   7.304   9.836  0.5723 -0.4560  0.4147
  517MOL0     C69710   1.915   7.351   9.870  0.2315 -0.6222 -0.4146
  517MOL0     N69711   2.387   7.166  10.436 -0.0523  0.0179 -0.5134
  517MOL0     N69712   2.488   7.150  10.526  0.6656  0.6470 -0.7576
  517MOL0     C69713   3.666   7.755  10.282 -1.3257 -0.2852  0.7087
  517MOL0     C69714   3.795   7.748  10.225  1.0412 -0.0564 -0.4630
  517MOL0     C69715   4.218   7.661  10.136 -0.5506 -1.0026  0.4848
  517MOL0     C69716   4.214   7.589  10.018 -0.4736  0.1918  0.2079
  517MOL0     C69717   4.332   7.544   9.956  0.1599  0.0975 -0.0667
  517MOL0     C69718   4.454   7.592   9.996  0.3199 -0.0850 -0.5120
  517MOL0     O69719   4.573   7.570   9.944  0.6178  0.1416  0.3411
  517MOL0     C69720   4.591   7.457   9.857 -0.5072 -0.6496 -0.7489
  517MOL0     C69721   4.718   7.386   9.897 -0.9387 -0.0595 -0.5147
  517MOL0     C69722   4.847   7.469   9.905 -0.9390  0.1491  0.6456
  517MOL0     C69723   4.877   7.546   9.774 -0.2026 -0.0630 -0.3592
  517MOL0     C69724   4.940   7.460   9.673 -0.3975  0.0736 -0.7526
  517MOL0     C69725   4.974   7.393   9.580  0.5712  0.5522 -0.3316
  517MOL0     C69726   4.464   7.682  10.106 -0.0560  0.3239 -0.7604
  517MOL0     C69727   4.343   7.716  10.172  0.1510  0.3050 -0.3085
  517MOL0     H69728   3.883   7.442  10.313 -0.2465  0.3038  1.4861
  517MOL0     H69729   3.658   7.450  10.432  0.0085 -1.5994 -1.2643
  517MOL0     H69730   3.306   7.662  10.357 -1.8938 -1.9912  1.7708
  517MOL0     H69731   3.401   7.526  10.312  1.1351 -2.1222  0.9344
  517MOL0     H69732   3.396   7.460  10.557  0.3526  0.0255 -1.7192
  517MOL0     H69733   3.293   7.613  10.578  1.7136 -0.0112  0.2349
  517MOL0     H69734   3.125   7.507  10.425  0.1866  0.2256  0.5824
  517MOL0     H69735   3.225   7.354  10.450 -0.7635  0.0454 -1.8168
  517MOL0     H69736   3.166   7.356  10.690  1.0114 -1.1153 -0.5685
  517MOL0     H69737   3.113   7.525  10.668  0.4928 -2.5400  1.2719
  517MOL0     H69738   2.905   7.422  10.700  0.1709 -0.4003  0.5807
  517MOL0     H69739   2.937   7.471  10.530  1.3233  0.4047  0.2939
  517MOL0     H69740   3.033   7.207  10.533  0.4879 -0.0185  0.8884
  517MOL0     H69741   2.943   7.177  10.673  0.1546 -1.2046  0.1785
  517MOL0     H69742   2.816   7.287  10.423  1.2382  2.2463  1.8622
  517MOL0     H69743   2.796   7.120  10.477  1.5358  0.0482 -0.7002
  517MOL0     H69744   2.690   7.377  10.644 -2.4362 -0.3468  0.8675
  517MOL0     H69745   2.683   7.220  10.694 -3.0908 -0.5994 -0.8913
  517MOL0     H69746   2.524   7.456  10.430  2.1995 -0.8412  0.4427
  517MOL0     H69747   2.216   7.272  10.262 -0.5383  0.4776  0.8562
  517MOL0     H69748   2.238   7.414  10.367 -1.1656  0.8408 -1.8645
  517MOL0     H69749   2.380   7.324  10.109  1.3292  3.4432 -1.8650
  517MOL0     H69750   2.442   7.458  10.205  0.0571  0.7763 -0.1380
  517MOL0     H69751   2.331   7.535  10.014  1.5322 -0.2881  0.9721
  517MOL0     H69752   2.233   7.574  10.155 -0.9100  0.4411 -0.6230
  517MOL0     H69753   2.085   7.382  10.099  0.0971  1.6547  3.1160
  517MOL0     H69754   2.191   7.352   9.960  4.9379 -0.4899  4.8932
  517MOL0     H69755   1.834   7.677   9.915  3.4121 -0.1839 -2.0089
  517MOL0     H69756   1.634   7.733   9.842  1.5406 -0.0912 -1.4761
  517MOL0     H69757   1.565   7.636   9.712  1.6102 -0.4897 -0.6195
  517MOL0     H69758   1.512   7.614   9.880 -2.0007 -0.8155 -3.2130
  517MOL0     H69759   1.342   7.146   9.890  0.3148  0.2687 -1.0631
  517MOL0     H69760   1.107   7.097   9.908 -3.5654  3.2894  3.4226
  517MOL0     H69761   0.907   7.080   9.765  1.6887  0.0077  1.3097
  517MOL0     H69762   0.883   7.100   9.934  0.1500 -1.3063 -0.6278
  517MOL0     H69763   0.659   7.102   9.748 -0.1736  0.2272 -0.4949
  517MOL0     H69764   0.682   7.076   9.920  1.1472  0.6510  0.5461
  517MOL0     H69765   0.672   7.345   9.760 -1.8280  2.5897  1.0666
  517MOL0     H69766   0.680   7.344   9.933  1.4773 -1.4600  1.1445
  517MOL0     H69767   0.463   7.209   9.753 -1.5610 -1.7354  1.2938
  517MOL0     H69768   0.470   7.178   9.920 -1.0460 -1.8539 -2.7452
  517MOL0     H69769   0.433   7.434   9.763  0.5399  1.3614  0.4820
  517MOL0     H69770   0.455   7.434   9.941 -1.9594  2.7644 -0.5159
  517MOL0     H69771   0.231   7.472   9.870 -1.8302 -0.1944  0.8639
  517MOL0     H69772   0.227   7.309   9.792  1.6632  0.0630 -0.7793
  517MOL0     H69773   0.278   7.341  10.088  0.0288 -1.7269  1.0446
  517MOL0     H69774   0.185   7.211  10.010 -2.3422  0.8902 -4.7134
  517MOL0     H69775   0.061   7.496  10.033 -2.6205  0.1879  0.9477
  517MOL0     H69776   0.036   7.363  10.146  2.9792 -1.4366  0.9238
  517MOL0     H69777   1.012   7.486   9.779 -0.3169 -1.1086  0.0874
  517MOL0     H69778   1.260   7.553   9.778  1.9737 -1.1312 -0.9354
  517MOL0     H69779   1.784   7.196   9.832 -1.5082 -0.3759  0.0819
  517MOL0     H69780   1.997   7.282   9.886 -0.7495 -2.2882 -2.1347
  517MOL0     H69781   3.599   7.841  10.277  2.4049  2.9274 -3.6399
  517MOL0     H69782   3.842   7.826  10.166 -1.1357  0.3860 -1.7281
  517MOL0     H69783   4.116   7.568   9.976 -0.3989  0.1080  0.0726
  517MOL0     H69784   4.306   7.493   9.864  0.6251  2.6115 -1.6990
  517MOL0     H69785   4.511   7.383   9.865 -0.9705 -0.0163  0.9264
  517MOL0     H69786   4.599   7.501   9.757 -0.6439 -1.3059 -1.0501
  517MOL0     H69787   4.745   7.305   9.828  2.0812  0.6609 -0.3368
  517MOL0     H69788   4.699   7.327   9.987 -0.0586 -2.2324 -1.6822
  517MOL0     H69789   4.927   7.397   9.921 -1.8075 -1.6495 -2.3277
  517MOL0     H69790   4.832   7.540   9.987  1.4326 -0.7350  1.9352
  517MOL0     H69791   4.941   7.629   9.804 -1.3420 -0.2838  3.1409
  517MOL0     H69792   4.789   7.598   9.734  1.0008  0.8945 -1.8826
  517MOL0     H69793   5.001   7.320   9.506 -1.6971  0.1795 -0.8657
  517MOL0     H69794   4.560   7.696  10.154 -1.1023  1.1784  1.2427
  517MOL0     H69795   4.342   7.754  10.273  1.7440 -1.2590  0.3459
  518MOL0     O69796  10.414   7.122   6.932 -0.1629 -0.1165  0.1229
  518MOL0     C69797  10.388   7.128   7.051 -0.0466 -0.2888 -0.0590
  518MOL0     O69798  10.289   7.202   7.105  0.1948  0.1002  0.0564
  518MOL0     C69799  10.181   7.256   7.036  0.2028 -0.4466 -0.5156
  518MOL0     C69800  10.087   7.312   7.123  0.6840  0.1022  0.4566
  518MOL0     C69801   9.974   7.376   7.075  0.2765 -0.2653  0.0117
  518MOL0     C69802   9.950   7.389   6.946 -0.3970  0.5355  0.4693
  518MOL0     O69803   9.838   7.461   6.906 -0.1425 -0.1161  0.0785
  518MOL0     C69804   9.835   7.536   6.784 -0.3540 -0.3332  0.2842
  518MOL0     C69805   9.703   7.528   6.703  0.0024  0.0122 -0.1661
  518MOL0     C69806   9.578   7.560   6.795 -0.6932 -0.3934 -0.4019
  518MOL0     C69807   9.593   7.691   6.884 -0.3043 -0.1639  0.3309
  518MOL0     C69808   9.464   7.747   6.926 -0.4274  0.1309 -0.0109
  518MOL0     C69809   9.471   7.884   6.983  0.2586 -0.5027 -0.5756
  518MOL0     C69810   9.330   7.946   7.007  0.0768 -0.6202  0.3102
  518MOL0     C69811   9.242   7.838   7.085  0.4931 -0.3213  0.5613
  518MOL0     N69812   9.117   7.890   7.148 -0.2221  0.1632  0.2929
  518MOL0     C69813   9.016   7.951   7.081 -0.9102  1.4102  0.5526
  518MOL0     C69814   8.923   7.977   7.176 -0.5092 -0.4172  0.4307
  518MOL0     C69815   8.787   8.039   7.166  0.9640  0.0484  0.2471
  518MOL0     C69816   8.772   8.159   7.266  0.6966 -0.3932  0.2689
  518MOL0     C69817   8.877   8.274   7.243 -0.0657  0.3208 -0.6331
  518MOL0     C69818   8.865   8.329   7.096 -0.0672 -0.0840 -0.5542
  518MOL0     O69819   8.946   8.266   6.995  0.6418  0.0206 -0.4208
  518MOL0     C69820   9.074   8.291   6.979 -0.4493  0.2803 -0.8199
  518MOL0     C69821   9.140   8.221   6.878  0.5919 -0.5142 -0.2046
  518MOL0     C69822   9.279   8.241   6.850 -0.0118  0.5724 -0.8376
  518MOL0     C69823   9.338   8.171   6.728  0.1150 -0.4176  0.1112
  518MOL0     C69824   9.364   8.313   6.946 -0.4136  0.4384 -0.5525
  518MOL0     C69825   9.516   8.322   6.949  0.1880 -0.1558 -0.0910
  518MOL0     O69826   9.563   8.409   7.046  0.2920  0.1705  0.1194
  518MOL0     C69827   9.696   8.427   7.039  0.4547 -0.1220 -0.5742
  518MOL0     C69828   9.790   8.321   7.059  1.1363 -0.3713  0.0580
  518MOL0     C69829   9.921   8.343   7.058 -0.7992 -0.4860 -0.4836
  518MOL0     C69830   9.972   8.472   7.044  0.2501  0.5227  0.5950
  518MOL0     O69831  10.109   8.495   7.030  0.1153 -0.5481  0.7949
  518MOL0     C69832  10.161   8.622   7.051  0.2924 -0.0870 -0.4338
  518MOL0     C69833  10.311   8.615   7.032 -0.4753  0.6800 -0.0125
  518MOL0     C69834  10.380   8.498   7.111  0.0217 -0.5490  0.4039
  518MOL0     C69835  10.531   8.522   7.097 -0.4403  0.0995  0.6784
  518MOL0     C69836  10.593   8.403   7.166 -0.2492  0.7390  0.1682
  518MOL0     C69837  10.747   8.402   7.145  0.6759 -0.4243 -0.5922
  518MOL0     C69838  10.805   8.282   7.211 -0.0355  0.6848 -0.1599
  518MOL0     C69839  10.962   8.286   7.205  0.4104  1.0585 -0.2480
  518MOL0    Cl69840  11.041   8.406   7.299 -0.0180  0.0767 -0.1188
  518MOL0     C69841   9.882   8.579   7.035 -0.0417 -0.5983 -0.4338
  518MOL0     C69842   9.746   8.561   7.039 -0.3368 -0.2737  0.0870
  518MOL0     O69843   9.587   8.264   6.869 -0.3432  0.2195 -1.2065
  518MOL0     C69844   9.288   8.386   7.043 -0.2209  1.4266 -0.5147
  518MOL0     C69845   9.153   8.373   7.065  0.3300 -0.6052 -0.4852
  518MOL0     N69846   8.969   7.928   7.299 -0.2468 -0.0175  0.6115
  518MOL0     N69847   9.084   7.880   7.284 -0.2027 -0.5152  0.9479
  518MOL0     C69848  10.027   7.316   6.856 -0.2438  0.0534  0.0843
  518MOL0     C69849  10.143   7.251   6.899 -0.2269  0.9966 -0.2885
  518MOL0     C69850  10.481   7.058   7.149  0.0079  0.6316 -0.3367
  518MOL0     C69851  10.448   7.067   7.288  0.5181  0.6782  0.9219
  518MOL0     C69852  10.535   7.003   7.380 -0.4387 -0.2500 -0.2853
  518MOL0     C69853  10.641   6.924   7.343 -0.4767 -0.3341 -0.2600
  518MOL0     O69854  10.722   6.867   7.440 -0.0080 -0.1249 -0.2284
  518MOL0     C69855  10.688   6.855   7.579  0.0456  0.4751  0.5801
  518MOL0     C69856  10.795   6.759   7.631 -0.0683 -0.7998 -0.5633
  518MOL0     C69857  10.749   6.677   7.757 -0.1644 -0.6240  0.3771
  518MOL0     C69858  10.824   6.551   7.792  0.4743 -0.3981 -0.0121
  518MOL0     C69859  10.961   6.579   7.839  0.6779  0.1827  0.2613
  518MOL0     C69860  11.066   6.593   7.900  0.3056  0.2412  0.5695
  518MOL0     C69861  10.668   6.908   7.205 -0.2135  0.5064 -0.7908
  518MOL0     C69862  10.582   6.969   7.109 -0.4004  0.7871 -0.3678
  518MOL0     H69863  10.088   7.307   7.232  0.7810  5.2042  0.9383
  518MOL0     H69864   9.910   7.430   7.144  0.4928 -0.7747  0.6198
  518MOL0     H69865   9.865   7.640   6.806 -0.7647 -0.5026  1.7562
  518MOL0     H69866   9.916   7.508   6.717  0.5870  0.0195  1.2269
  518MOL0     H69867   9.699   7.605   6.625 -0.0809 -0.4017 -0.5743
  518MOL0     H69868   9.687   7.427   6.666  1.1994 -0.3589  0.2880
  518MOL0     H69869   9.487   7.568   6.735  0.2764 -0.9726 -1.9820
  518MOL0     H69870   9.576   7.474   6.863  1.9973  1.4091  2.2198
  518MOL0     H69871   9.657   7.671   6.970  1.3981  1.5767 -0.4352
  518MOL0     H69872   9.646   7.765   6.823 -0.6034  0.4564  0.8155
  518MOL0     H69873   9.397   7.753   6.840 -0.2913 -0.0285 -0.1292
  518MOL0     H69874   9.430   7.679   7.005  1.4444 -1.5820 -0.5813
  518MOL0     H69875   9.512   7.879   7.084 -0.3931 -0.0623 -0.2822
  518MOL0     H69876   9.531   7.956   6.927 -2.2045  2.6352  0.5017
  518MOL0     H69877   9.330   8.041   7.060 -0.1542 -0.7899  0.6197
  518MOL0     H69878   9.278   7.959   6.912 -0.1608 -2.8734  0.0807
  518MOL0     H69879   9.298   7.791   7.167 -0.6313  0.8249  2.0494
  518MOL0     H69880   9.211   7.756   7.020 -1.7647  0.5810  0.4119
  518MOL0     H69881   9.007   7.972   6.975  0.8191  3.4131  0.7366
  518MOL0     H69882   8.762   8.070   7.064 -0.2093 -1.5741  0.0068
  518MOL0     H69883   8.709   7.967   7.191 -0.8189  1.6101 -0.5037
  518MOL0     H69884   8.778   8.123   7.369 -1.8986  0.8640  0.9279
  518MOL0     H69885   8.675   8.204   7.245  1.4395 -0.0926 -3.2689
  518MOL0     H69886   8.979   8.247   7.273  0.3976  2.9700  0.5146
  518MOL0     H69887   8.857   8.354   7.315 -0.6620 -1.3375  1.1259
  518MOL0     H69888   8.887   8.436   7.094  0.6509 -0.2347 -2.2933
  518MOL0     H69889   8.764   8.301   7.065 -1.1846  0.9774  1.8468
  518MOL0     H69890   9.073   8.161   6.818  2.8514 -2.1665 -1.2165
  518MOL0     H69891   9.391   8.251   6.675  0.3230 -0.0058  0.9208
  518MOL0     H69892   9.401   8.089   6.766 -1.7710 -0.7912  2.7115
  518MOL0     H69893   9.260   8.130   6.664 -0.3792  0.3350  0.2290
  518MOL0     H69894   9.744   8.223   7.049 -0.6048  0.5160 -1.2196
  518MOL0     H69895   9.994   8.262   7.065 -0.7465 -0.5510 -1.5621
  518MOL0     H69896  10.120   8.698   6.983  1.1650 -0.5300 -1.4889
  518MOL0     H69897  10.134   8.655   7.152 -0.2400 -0.2403 -0.5234
  518MOL0     H69898  10.348   8.604   6.929  2.3009  0.7792  0.8779
  518MOL0     H69899  10.357   8.708   7.065  1.6546 -0.2381 -0.2031
  518MOL0     H69900  10.345   8.404   7.068 -0.5778 -0.0942 -0.1354
  518MOL0     H69901  10.351   8.497   7.217  0.5695 -2.6799  0.5795
  518MOL0     H69902  10.570   8.528   6.995  2.4738  2.3050  1.7530
  518MOL0     H69903  10.567   8.618   7.136  2.0868  0.0711 -1.2920
  518MOL0     H69904  10.552   8.312   7.120  1.9722 -1.8064  2.8207
  518MOL0     H69905  10.561   8.390   7.270 -0.6056  1.2276  0.1236
  518MOL0     H69906  10.768   8.405   7.038  2.0930  1.6851 -0.3149
  518MOL0     H69907  10.789   8.493   7.189 -1.2177  0.4761 -0.5455
  518MOL0     H69908  10.765   8.198   7.153  0.8744 -0.1144  0.3440
  518MOL0     H69909  10.763   8.270   7.311 -3.7575 -2.3270 -1.8076
  518MOL0     H69910  10.995   8.282   7.101  0.8697  1.2842 -0.1151
  518MOL0     H69911  10.986   8.193   7.256 -0.1219  0.6977 -0.6426
  518MOL0     H69912   9.927   8.678   7.034  0.1570 -0.6799 -1.9267
  518MOL0     H69913   9.691   8.654   7.024  2.0122  1.1668 -0.1557
  518MOL0     H69914   9.339   8.444   7.119 -2.0907  1.2267  0.9732
  518MOL0     H69915   9.119   8.430   7.152  0.5466  0.8167 -1.2964
  518MOL0     H69916  10.015   7.304   6.748  4.9743 -0.6905 -0.6711
  518MOL0     H69917  10.210   7.196   6.835  1.0379 -0.7178  2.3216
  518MOL0     H69918  10.365   7.124   7.327  1.0978  1.9794  0.3288
  518MOL0     H69919  10.511   7.024   7.484 -2.8328  0.2437 -0.8827
  518MOL0     H69920  10.704   6.950   7.631  0.0855  0.0301  1.3993
  518MOL0     H69921  10.583   6.825   7.591  0.5955 -1.8970 -0.0913
  518MOL0     H69922  10.893   6.806   7.638 -0.3898  0.2709 -2.5625
  518MOL0     H69923  10.811   6.687   7.550  1.5200  1.3475 -2.2595
  518MOL0     H69924  10.643   6.652   7.749 -0.5077 -0.0688  2.6635
  518MOL0     H69925  10.762   6.734   7.849  2.2166 -0.8477  0.2512
  518MOL0     H69926  10.840   6.490   7.703  1.6557  1.0450 -0.8390
  518MOL0     H69927  10.763   6.490   7.859 -1.0200 -0.8833 -1.7464
  518MOL0     H69928  11.147   6.613   7.967 -1.1813 -0.9367  2.8325
  518MOL0     H69929  10.749   6.841   7.181 -0.7569 -0.9087  1.0544
  518MOL0     H69930  10.602   6.941   7.006 -0.6463 -1.4935  0.1494
  519MOL0     O69931   8.600   8.114   1.265  0.1308 -0.2611 -0.3388
  519MOL0     C69932   8.673   8.117   1.162  0.0948 -0.2835  0.9654
  519MOL0     O69933   8.648   8.051   1.047  0.1640  0.3988 -0.4932
  519MOL0     C69934   8.533   7.973   1.033 -0.0338 -0.5317 -0.9187
  519MOL0     C69935   8.405   8.028   1.023  0.0088 -0.0741 -0.6263
  519MOL0     C69936   8.305   7.963   0.965  0.1266  0.4085  0.1257
  519MOL0     C69937   8.326   7.837   0.910 -0.6207  0.6758 -0.9519
  519MOL0     O69938   8.213   7.763   0.869  0.4831  0.2686 -0.4017
  519MOL0     C69939   8.205   7.623   0.885 -0.5303 -0.2394 -0.1108
  519MOL0     C69940   8.064   7.580   0.859 -0.6095 -0.1273  0.8576
  519MOL0     C69941   7.969   7.640   0.964 -0.1044 -0.7304 -0.9837
  519MOL0     C69942   7.826   7.589   0.931 -0.2491 -0.8463  0.3373
  519MOL0     C69943   7.715   7.654   1.011  0.2410 -0.9520  0.9755
  519MOL0     C69944   7.561   7.600   0.981 -0.4008  0.1304 -0.2036
  519MOL0     C69945   7.518   7.663   0.853  0.3484 -0.1025  0.8130
  519MOL0     C69946   7.519   7.552   0.745 -0.2686 -0.1694 -0.1824
  519MOL0     N69947   7.454   7.581   0.617  1.0004 -0.8087  0.3882
  519MOL0     C69948   7.312   7.594   0.602 -0.6742 -1.0270 -0.9228
  519MOL0     C69949   7.274   7.588   0.475  0.1493  0.1700  0.4201
  519MOL0     C69950   7.143   7.645   0.424 -0.4484  0.2208  0.2054
  519MOL0     C69951   7.097   7.546   0.307  0.1173 -0.1456 -0.1496
  519MOL0     C69952   7.065   7.408   0.359  0.0656 -0.2237  0.3687
  519MOL0     C69953   6.931   7.361   0.303 -0.4919 -0.5844 -0.4436
  519MOL0     O69954   6.916   7.229   0.355  0.0148 -0.0738 -1.0529
  519MOL0     C69955   6.796   7.158   0.312  0.3183 -1.3423 -0.6804
  519MOL0     C69956   6.673   7.219   0.351 -0.0142 -0.0874  0.3680
  519MOL0     C69957   6.556   7.157   0.322  0.8499 -0.5492 -0.4605
  519MOL0     C69958   6.430   7.235   0.372  0.1294 -0.7992  0.5150
  519MOL0     C69959   6.557   7.034   0.246 -1.0407  0.4811 -0.5904
  519MOL0     C69960   6.428   6.950   0.224  0.3454 -0.2312 -0.3463
  519MOL0     O69961   6.439   6.847   0.134 -0.0655 -0.5442  0.3463
  519MOL0     C69962   6.324   6.777   0.114  0.5679  0.0781  0.5093
  519MOL0     C69963   6.241   6.807   0.003  0.1655  0.1024  0.1975
  519MOL0     C69964   6.123   6.732  -0.020 -0.4931  0.1591 -0.5269
  519MOL0     C69965   6.075   6.638   0.066 -0.5195 -0.0731  0.2580
  519MOL0     O69966   5.954   6.573   0.028 -0.1946  0.2216 -0.6978
  519MOL0     C69967   5.864   6.549   0.134 -0.9314 -0.2226 -0.1523
  519MOL0     C69968   5.726   6.540   0.081  0.7867  0.0617  0.4897
  519MOL0     C69969   5.620   6.487   0.171 -1.1821 -0.0299  0.0303
  519MOL0     C69970   5.478   6.516   0.133  0.5194 -1.3776 -1.0496
  519MOL0     C69971   5.382   6.436   0.226 -0.1270 -0.2535 -0.1856
  519MOL0     C69972   5.232   6.461   0.183  0.0822  1.9787 -0.3260
  519MOL0     C69973   5.131   6.394   0.282 -0.1330 -0.6869  0.3359
  519MOL0     C69974   5.002   6.470   0.263  0.1425 -0.2084  0.0349
  519MOL0    Cl69975   4.910   6.403   0.128  0.3481 -0.1921 -0.2169
  519MOL0     C69976   6.154   6.611   0.177 -0.2453  0.3435  0.0970
  519MOL0     C69977   6.278   6.679   0.200  0.0590 -0.2080 -1.0201
  519MOL0     O69978   6.318   6.994   0.262 -0.5189  0.1636 -0.1351
  519MOL0     C69979   6.675   6.993   0.187  0.1692  0.1725  0.2365
  519MOL0     C69980   6.796   7.048   0.222 -0.3843 -0.2854  0.0756
  519MOL0     N69981   7.396   7.562   0.405 -0.4824  0.3200  0.2162
  519MOL0     N69982   7.500   7.559   0.488  0.4786  0.1126 -0.2750
  519MOL0     C69983   8.456   7.778   0.918 -0.0552  0.1589 -0.2495
  519MOL0     C69984   8.559   7.847   0.981  0.8724 -0.3435 -0.1174
  519MOL0     C69985   8.791   8.213   1.165 -0.3049  0.7961  0.1136
  519MOL0     C69986   8.821   8.278   1.283  0.6082 -0.1139  0.2241
  519MOL0     C69987   8.924   8.366   1.296  0.8856 -0.4452  0.2487
  519MOL0     C69988   9.007   8.389   1.192  0.3517  0.9472  0.6848
  519MOL0     O69989   9.127   8.450   1.195  0.1732  0.6411  0.4315
  519MOL0     C69990   9.162   8.517   1.316 -1.1561  0.5958 -0.2966
  519MOL0     C69991   9.272   8.625   1.280  0.2772 -0.6681 -0.3808
  519MOL0     C69992   9.399   8.576   1.211 -0.9096  0.2891  0.2417
  519MOL0     C69993   9.491   8.492   1.306 -0.2704 -0.5560 -0.9233
  519MOL0     C69994   9.630   8.498   1.276  0.1000  0.8090 -0.3538
  519MOL0     C69995   9.746   8.489   1.243  1.0268 -0.4981  0.4625
  519MOL0     C69996   8.973   8.332   1.062  1.2726  0.4160 -0.1685
  519MOL0     C69997   8.863   8.250   1.052  0.8552  0.2310  0.1991
  519MOL0     H69998   8.399   8.128   1.065  2.2499  0.5069 -1.5401
  519MOL0     H69999   8.207   8.009   0.954 -1.1993 -2.4052 -0.8433
  519MOL0     H70000   8.268   7.570   0.812 -0.9711 -4.8656  2.5063
  519MOL0     H70001   8.238   7.591   0.984 -0.9374  0.1588  0.1565
  519MOL0     H70002   8.037   7.610   0.758  0.0839 -3.5530 -0.4958
  519MOL0     H70003   8.058   7.471   0.871 -0.7150  0.1759  5.1075
  519MOL0     H70004   7.997   7.620   1.068  1.3015  1.1778 -0.9371
  519MOL0     H70005   7.965   7.749   0.950 -1.1143 -0.5807  0.2928
  519MOL0     H70006   7.825   7.614   0.824 -3.2786  2.2612  0.8805
  519MOL0     H70007   7.817   7.480   0.928 -0.4620 -0.8521  1.1320
  519MOL0     H70008   7.731   7.630   1.116 -0.2443 -2.2806  0.7708
  519MOL0     H70009   7.719   7.762   0.997 -2.1557 -1.1828 -3.6708
  519MOL0     H70010   7.550   7.492   0.985  0.3766  0.0960  1.9662
  519MOL0     H70011   7.502   7.643   1.062  0.9514  3.7274 -0.9270
  519MOL0     H70012   7.417   7.704   0.859  0.4648  0.2612  0.4367
  519MOL0     H70013   7.582   7.749   0.827 -1.1409  0.2024 -2.3586
  519MOL0     H70014   7.464   7.463   0.778 -1.1616  0.2365 -0.5306
  519MOL0     H70015   7.622   7.522   0.724 -1.0267 -2.8053 -0.5939
  519MOL0     H70016   7.252   7.626   0.687 -2.2004 -3.3273 -1.0513
  519MOL0     H70017   7.065   7.650   0.500 -2.7704  4.7700 -2.0861
  519MOL0     H70018   7.154   7.747   0.386  0.2537  0.3552  0.7473
  519MOL0     H70019   7.170   7.544   0.225  0.3767 -1.3571  0.0978
  519MOL0     H70020   7.004   7.582   0.263 -0.8700 -1.1899  1.0278
  519MOL0     H70021   7.067   7.391   0.467  1.4963 -2.0307  0.1205
  519MOL0     H70022   7.140   7.335   0.326 -1.0644 -1.7514  1.0425
  519MOL0     H70023   6.921   7.357   0.194  1.2340 -1.5703 -0.5970
  519MOL0     H70024   6.857   7.431   0.343  1.2752  0.1655  1.7261
  519MOL0     H70025   6.673   7.313   0.405  2.5553 -1.2145  2.5325
  519MOL0     H70026   6.375   7.191   0.456  0.5385 -0.8753  0.7475
  519MOL0     H70027   6.459   7.335   0.403  1.5429 -1.2012  0.5604
  519MOL0     H70028   6.366   7.239   0.284 -0.5562 -0.6296  1.0084
  519MOL0     H70029   6.278   6.879  -0.069  1.6784 -0.1308  0.7034
  519MOL0     H70030   6.080   6.754  -0.117 -0.9968  1.2758 -0.0758
  519MOL0     H70031   5.893   6.457   0.186 -1.1286 -1.2524 -1.7976
  519MOL0     H70032   5.865   6.622   0.215 -0.2343 -3.9207  3.4891
  519MOL0     H70033   5.689   6.641   0.058 -0.1850 -0.4323 -0.1957
  519MOL0     H70034   5.727   6.478  -0.009  2.2755 -0.2117  0.6757
  519MOL0     H70035   5.637   6.526   0.271  0.0102 -0.8894  0.1789
  519MOL0     H70036   5.638   6.380   0.185 -2.1709 -0.6217 -2.5285
  519MOL0     H70037   5.463   6.622   0.154 -0.0965 -1.6589  0.0153
  519MOL0     H70038   5.446   6.497   0.030 -1.2379  0.9751 -1.0290
  519MOL0     H70039   5.389   6.484   0.323  0.1389 -1.8450  0.6149
  519MOL0     H70040   5.411   6.331   0.236  0.8575  0.0061 -0.1848
  519MOL0     H70041   5.215   6.569   0.179 -3.2161  1.6061  0.8994
  519MOL0     H70042   5.220   6.427   0.080  2.5207  1.5751 -0.5504
  519MOL0     H70043   5.160   6.409   0.387 -0.6919  3.1895  0.0668
  519MOL0     H70044   5.115   6.288   0.261 -1.9803 -0.6984  1.5526
  519MOL0     H70045   5.020   6.577   0.252  0.4505 -0.1837  0.7253
  519MOL0     H70046   4.942   6.468   0.355  0.9638  0.7367  0.6060
  519MOL0     H70047   6.123   6.529   0.241 -1.1797  1.1812  0.7517
  519MOL0     H70048   6.336   6.665   0.290 -1.6434  0.2643  0.1984
  519MOL0     H70049   6.688   6.907   0.123  0.4683  0.7659 -0.5093
  519MOL0     H70050   6.890   7.008   0.187 -0.1409  1.8162 -1.8887
  519MOL0     H70051   8.472   7.677   0.883  2.8987  0.2573  0.5602
  519MOL0     H70052   8.649   7.788   0.992 -0.3486 -2.1380  0.8204
  519MOL0     H70053   8.761   8.271   1.373 -0.1024  1.0574 -0.1446
  519MOL0     H70054   8.940   8.413   1.393  0.8747  1.7759 -0.7814
  519MOL0     H70055   9.089   8.582   1.367  0.1641 -0.7967  3.7238
  519MOL0     H70056   9.205   8.440   1.380 -2.2031 -0.7414 -1.1262
  519MOL0     H70057   9.289   8.680   1.373  1.9043 -0.2438 -0.8838
  519MOL0     H70058   9.214   8.688   1.211 -1.5433 -0.2898  1.4049
  519MOL0     H70059   9.451   8.661   1.167  0.1268 -0.1569  0.5615
  519MOL0     H70060   9.368   8.516   1.125  0.1682  0.1458 -0.0696
  519MOL0     H70061   9.460   8.387   1.307  0.0118 -0.6508 -1.6602
  519MOL0     H70062   9.481   8.526   1.410 -1.6193 -0.1597 -1.1567
  519MOL0     H70063   9.832   8.476   1.181 -0.8161  0.3058 -2.4552
  519MOL0     H70064   9.030   8.353   0.972  1.1301  1.3728 -0.0468
  519MOL0     H70065   8.845   8.200   0.957  0.4015  3.0739 -1.3416
  520MOL0     O70066   6.785   1.704   5.165 -0.4504  0.1830  0.5213
  520MOL0     C70067   6.848   1.645   5.070  0.2692 -0.2073 -0.4823
  520MOL0     O70068   6.798   1.604   4.955 -0.4486  0.3351  0.6330
  520MOL0     C70069   6.671   1.646   4.931 -0.5986  0.5439  0.1316
  520MOL0     C70070   6.625   1.781   4.933 -0.1506  0.7747 -0.0621
  520MOL0     C70071   6.489   1.808   4.921 -0.1379  0.0549  0.1743
  520MOL0     C70072   6.400   1.712   4.888  0.0574  0.1404  0.0224
  520MOL0     O70073   6.275   1.751   4.847 -0.0175 -0.3621  0.1121
  520MOL0     C70074   6.175   1.676   4.777 -0.2957 -0.1592 -0.0877
  520MOL0     C70075   6.071   1.768   4.714  0.3836  0.8850  0.2134
  520MOL0     C70076   5.925   1.722   4.734 -0.2840  1.1314 -0.0520
  520MOL0     C70077   5.820   1.824   4.667  0.9697  0.1825  0.5431
  520MOL0     C70078   5.688   1.744   4.708 -1.7461 -0.5149  0.1269
  520MOL0     C70079   5.577   1.803   4.620 -0.3920  0.3775 -0.8396
  520MOL0     C70080   5.442   1.767   4.685 -0.7364  0.5577 -0.0521
  520MOL0     C70081   5.332   1.839   4.613  0.3404  0.4417 -0.2628
  520MOL0     N70082   5.259   1.750   4.518 -0.2862 -0.0125  0.3510
  520MOL0     C70083   5.276   1.753   4.384  0.2429  0.6576  1.1375
  520MOL0     C70084   5.194   1.665   4.320 -0.2130 -0.2996 -0.4237
  520MOL0     C70085   5.197   1.626   4.181 -0.5818 -0.7469 -0.4364
  520MOL0     C70086   5.075   1.546   4.135 -0.1946  0.7842 -0.4664
  520MOL0     C70087   5.089   1.483   4.001  0.0274  0.1805 -0.3243
  520MOL0     C70088   4.962   1.412   3.949  0.2363  0.1787 -0.2021
  520MOL0     O70089   4.883   1.530   3.923  0.4939  0.1394  0.3123
  520MOL0     C70090   4.747   1.511   3.943 -0.4356 -0.6679  0.9034
  520MOL0     C70091   4.694   1.522   4.074 -1.1799 -0.7540 -0.5236
  520MOL0     C70092   4.558   1.496   4.101 -0.0622  1.9064  0.1980
  520MOL0     C70093   4.498   1.537   4.235 -0.0853  0.2082  0.0775
  520MOL0     C70094   4.473   1.455   3.990 -0.4009 -0.3155  0.1434
  520MOL0     C70095   4.332   1.419   4.006 -0.2684  0.1466  0.9435
  520MOL0     O70096   4.255   1.439   3.897 -0.7726  0.1557  0.8516
  520MOL0     C70097   4.119   1.428   3.898  0.6596 -0.8266 -0.4269
  520MOL0     C70098   4.057   1.381   3.783  0.5377 -0.4474  0.2862
  520MOL0     C70099   3.924   1.350   3.784  0.9785 -0.9420 -0.6266
  520MOL0     C70100   3.846   1.382   3.897  0.4635 -0.0786 -0.4102
  520MOL0     O70101   3.713   1.359   3.897  0.4389  0.1729 -0.4799
  520MOL0     C70102   3.673   1.248   3.976 -0.3309  0.3142  0.3766
  520MOL0     C70103   3.645   1.120   3.890  0.3487 -0.6920  0.1914
  520MOL0     C70104   3.604   0.995   3.965  0.6485 -0.9494  0.5042
  520MOL0     C70105   3.461   1.001   4.021  0.6029  0.1473  1.0278
  520MOL0     C70106   3.422   0.873   4.101  0.7209 -0.5069  0.6099
  520MOL0     C70107   3.276   0.863   4.140 -0.9340 -0.3676  1.0002
  520MOL0     C70108   3.251   0.969   4.242  0.1863  0.8710 -0.7403
  520MOL0     C70109   3.121   0.924   4.317  0.3642  0.8905 -0.5844
  520MOL0    Cl70110   2.967   0.936   4.201 -0.0199 -0.1299  0.1036
  520MOL0     C70111   3.907   1.445   4.005 -0.2785 -0.8899 -0.3677
  520MOL0     C70112   4.044   1.459   4.014  0.0988  0.4778 -0.4878
  520MOL0     O70113   4.297   1.369   4.112  0.0192 -0.8176 -0.4201
  520MOL0     C70114   4.527   1.458   3.861  0.2353 -0.3076  0.3121
  520MOL0     C70115   4.662   1.480   3.837 -0.4880  0.0614  0.6042
  520MOL0     N70116   5.124   1.615   4.423  0.6349  0.2550 -0.5803
  520MOL0     N70117   5.149   1.665   4.540 -0.2148  0.2760  0.0121
  520MOL0     C70118   6.441   1.584   4.877  0.5237 -0.0986 -0.1789
  520MOL0     C70119   6.578   1.550   4.900 -0.3412  0.5270  0.0526
  520MOL0     C70120   6.989   1.602   5.106 -0.2781 -0.3766  0.2799
  520MOL0     C70121   7.073   1.541   5.013  0.1471  0.3195  1.3715
  520MOL0     C70122   7.196   1.482   5.038 -0.1965 -0.0624 -0.3203
  520MOL0     C70123   7.250   1.509   5.169  0.3331 -0.1585  0.1399
  520MOL0     O70124   7.371   1.470   5.214  0.2699  0.5110  0.8566
  520MOL0     C70125   7.469   1.419   5.122  1.2752  0.3359 -0.0574
  520MOL0     C70126   7.599   1.417   5.198  0.3356 -0.9973 -0.0390
  520MOL0     C70127   7.588   1.322   5.313 -0.3818  0.0242  1.1253
  520MOL0     C70128   7.717   1.260   5.340  0.1908  0.5314  0.7353
  520MOL0     C70129   7.828   1.352   5.364  0.0263 -0.2733 -0.5420
  520MOL0     C70130   7.918   1.434   5.377 -0.9093  0.7338 -0.1259
  520MOL0     C70131   7.173   1.568   5.259  0.1132 -0.0711 -0.0608
  520MOL0     C70132   7.047   1.612   5.236 -0.0132 -0.1970 -0.7444
  520MOL0     H70133   6.689   1.863   4.966  0.2753  0.7399 -0.7701
  520MOL0     H70134   6.458   1.908   4.949  0.0266  0.6992 -1.7696
  520MOL0     H70135   6.236   1.614   4.710 -0.6995 -2.6262  1.6937
  520MOL0     H70136   6.136   1.603   4.848  1.9933 -0.1155  1.3153
  520MOL0     H70137   6.072   1.872   4.749 -0.1175  0.9522  0.0315
  520MOL0     H70138   6.085   1.764   4.606  2.6987  1.5220  0.4147
  520MOL0     H70139   5.923   1.627   4.680 -2.4856  2.8458 -3.3296
  520MOL0     H70140   5.903   1.717   4.841  1.5787  0.8029  0.3495
  520MOL0     H70141   5.814   1.928   4.699 -0.8419 -0.4269  2.3783
  520MOL0     H70142   5.825   1.832   4.558 -4.1780 -2.3273 -0.1534
  520MOL0     H70143   5.693   1.638   4.683  0.7210  0.1551 -2.7272
  520MOL0     H70144   5.665   1.762   4.814 -0.0734 -1.3194  0.6719
  520MOL0     H70145   5.584   1.911   4.637  1.6413  0.1672 -0.0094
  520MOL0     H70146   5.595   1.764   4.519  3.3121  1.0143 -0.5770
  520MOL0     H70147   5.428   1.659   4.684 -1.3134  0.5647  2.0506
  520MOL0     H70148   5.442   1.810   4.786  0.7138  1.1783 -0.2940
  520MOL0     H70149   5.372   1.924   4.558  2.3331  0.0802  0.5008
  520MOL0     H70150   5.261   1.870   4.689  3.1185  0.7564  2.4044
  520MOL0     H70151   5.348   1.817   4.334 -0.0377  0.0483 -0.0738
  520MOL0     H70152   5.204   1.721   4.128 -0.7478 -0.1726  0.5420
  520MOL0     H70153   5.289   1.570   4.160  0.0767  0.8844 -2.1928
  520MOL0     H70154   4.992   1.617   4.128 -0.0837  0.9388 -0.2037
  520MOL0     H70155   5.058   1.455   4.193  4.3613 -1.6087 -2.3799
  520MOL0     H70156   5.171   1.411   4.003  0.0020  0.1551 -0.1453
  520MOL0     H70157   5.114   1.567   3.935  0.3208  1.1796  1.0089
  520MOL0     H70158   4.919   1.347   4.025  0.3407 -0.0939 -0.3782
  520MOL0     H70159   4.974   1.357   3.856 -1.4842 -1.1279  0.3097
  520MOL0     H70160   4.754   1.551   4.159 -1.2572  1.0475 -1.0522
  520MOL0     H70161   4.576   1.573   4.302  0.0078 -1.0789  0.6918
  520MOL0     H70162   4.418   1.606   4.208 -2.3579 -2.6961 -1.2208
  520MOL0     H70163   4.451   1.449   4.280  0.1335 -0.4330 -0.9132
  520MOL0     H70164   4.124   1.374   3.698 -1.3665  0.4470 -1.3676
  520MOL0     H70165   3.873   1.318   3.694 -0.7311 -0.9936  0.2941
  520MOL0     H70166   3.753   1.225   4.047  0.0126 -1.0917 -0.4233
  520MOL0     H70167   3.584   1.276   4.033 -0.2469  1.8288 -0.1988
  520MOL0     H70168   3.569   1.136   3.813  1.0574 -1.8553 -0.7937
  520MOL0     H70169   3.743   1.095   3.847 -0.8143 -2.3634 -1.6815
  520MOL0     H70170   3.684   0.970   4.035  1.4919 -2.9482 -1.0729
  520MOL0     H70171   3.599   0.913   3.893  0.7618 -1.4329  1.0369
  520MOL0     H70172   3.447   1.090   4.084 -0.6040  1.3540 -0.8300
  520MOL0     H70173   3.396   1.018   3.934 -0.9207 -1.0460  1.8691
  520MOL0     H70174   3.487   0.881   4.188  2.7090 -0.2002 -0.8158
  520MOL0     H70175   3.446   0.789   4.035  1.2505 -1.2211  1.6811
  520MOL0     H70176   3.212   0.890   4.055  1.1976  0.7810 -0.3315
  520MOL0     H70177   3.248   0.761   4.166 -2.2323 -0.6298 -1.2026
  520MOL0     H70178   3.244   1.071   4.205  1.3078  1.2785  0.1342
  520MOL0     H70179   3.334   0.975   4.312  0.3059  3.9304 -1.0268
  520MOL0     H70180   3.116   0.980   4.411  4.1786  0.0776  0.2592
  520MOL0     H70181   3.124   0.819   4.347 -0.0804  0.9188 -0.4336
  520MOL0     H70182   3.845   1.486   4.084 -0.0768  1.0849 -1.1843
  520MOL0     H70183   4.091   1.512   4.096  0.4494 -2.9110  1.6981
  520MOL0     H70184   4.473   1.455   3.767  3.8258 -1.4966 -1.9506
  520MOL0     H70185   4.710   1.480   3.740  1.5007  1.8143  1.5190
  520MOL0     H70186   6.369   1.507   4.856  0.1821 -0.4382  2.0356
  520MOL0     H70187   6.615   1.449   4.893 -2.5272 -0.2263 -2.3596
  520MOL0     H70188   7.033   1.533   4.912  4.6156  0.2145 -0.6457
  520MOL0     H70189   7.246   1.431   4.956  2.6619 -2.0948  2.4905
  520MOL0     H70190   7.451   1.316   5.089  2.3581  0.1933 -0.2244
  520MOL0     H70191   7.462   1.496   5.045 -0.6624  1.6772  1.3519
  520MOL0     H70192   7.630   1.517   5.230 -0.5233 -1.0175  0.8991
  520MOL0     H70193   7.675   1.384   5.127  0.6829 -0.5814  0.1376
  520MOL0     H70194   7.513   1.243   5.299  0.5873 -0.4597 -2.1312
  520MOL0     H70195   7.561   1.373   5.406 -0.8600 -0.3149  1.1783
  520MOL0     H70196   7.734   1.192   5.256 -1.0939  1.8082 -0.6298
  520MOL0     H70197   7.706   1.201   5.431  1.5601  0.5231  0.9217
  520MOL0     H70198   8.007   1.494   5.377 -1.8359  2.1349 -0.5679
  520MOL0     H70199   7.213   1.576   5.360  0.0593 -0.0901 -0.0384
  520MOL0     H70200   6.988   1.641   5.322 -1.1746 -0.7463 -1.3389
  521MOL0     O70201   5.953   1.010   2.932 -0.1199  0.7272 -0.1796
  521MOL0     C70202   5.972   0.892   2.891  0.8053 -0.7696  0.4222
  521MOL0     O70203   5.882   0.827   2.816  0.4225  0.1643  0.5025
  521MOL0     C70204   5.767   0.894   2.795  1.1917 -0.0114 -0.7484
  521MOL0     C70205   5.647   0.887   2.876  0.0281  0.7363  0.3068
  521MOL0     C70206   5.536   0.960   2.839 -0.1803 -0.1004  0.6097
  521MOL0     C70207   5.538   1.036   2.721 -1.0105 -0.1530 -0.2986
  521MOL0     O70208   5.422   1.104   2.698 -0.5148  1.1540 -0.5897
  521MOL0     C70209   5.383   1.123   2.566 -0.1731  0.6404  1.0536
  521MOL0     C70210   5.253   1.200   2.564  0.3886  1.0856  0.3313
  521MOL0     C70211   5.127   1.114   2.590 -0.2135 -0.1703  0.9076
  521MOL0     C70212   5.008   1.208   2.568  0.6447  0.3490  0.4830
  521MOL0     C70213   4.878   1.123   2.594  0.7097 -0.2322  0.1902
  521MOL0     C70214   4.743   1.178   2.544 -0.9521  0.1929 -0.2363
  521MOL0     C70215   4.628   1.081   2.566 -0.1705  0.0157 -0.0897
  521MOL0     C70216   4.509   1.125   2.486 -0.4804  0.0999 -0.0307
  521MOL0     N70217   4.483   1.269   2.518 -0.0424 -0.0788 -0.3902
  521MOL0     C70218   4.401   1.310   2.624  0.1044 -0.7201 -0.4421
  521MOL0     C70219   4.379   1.449   2.612 -0.6189 -0.8468 -0.3710
  521MOL0     C70220   4.308   1.539   2.709 -0.6286 -0.5661  0.5348
  521MOL0     C70221   4.199   1.471   2.789  0.4466 -0.5846  0.5784
  521MOL0     C70222   4.109   1.571   2.864 -0.0012 -0.1748 -0.0071
  521MOL0     C70223   4.022   1.493   2.951 -0.0034 -0.4865 -0.9465
  521MOL0     O70224   3.914   1.571   3.014  0.6814  0.0586 -0.5737
  521MOL0     C70225   3.790   1.552   2.951 -0.3770  0.6162  0.0018
  521MOL0     C70226   3.766   1.494   2.832  1.4132 -0.2696 -0.7066
  521MOL0     C70227   3.641   1.471   2.770 -0.6482 -0.5328 -0.1162
  521MOL0     C70228   3.642   1.397   2.633  0.0047  0.0016  0.1617
  521MOL0     C70229   3.523   1.492   2.847 -0.2312 -0.3731 -0.5830
  521MOL0     C70230   3.378   1.463   2.802 -0.0746 -0.3788  0.2826
  521MOL0     O70231   3.279   1.480   2.893  0.4758 -0.1024 -0.0214
  521MOL0     C70232   3.147   1.463   2.849 -0.1298  0.2688  0.9130
  521MOL0     C70233   3.076   1.341   2.865 -0.4222  0.2054  0.5893
  521MOL0     C70234   2.939   1.328   2.838  0.2124  0.6852 -0.1204
  521MOL0     C70235   2.868   1.447   2.804  0.0552  0.6905 -0.3917
  521MOL0     O70236   2.730   1.447   2.790 -0.5126 -0.0503 -0.1875
  521MOL0     C70237   2.647   1.329   2.802 -0.9144 -0.0844 -0.7035
  521MOL0     C70238   2.500   1.365   2.781 -0.7221 -0.9280  0.2617
  521MOL0     C70239   2.413   1.250   2.751  0.6462  0.4642  0.4127
  521MOL0     C70240   2.402   1.233   2.596 -1.4823  0.2202 -0.0119
  521MOL0     C70241   2.311   1.104   2.562 -0.0748 -0.2369 -0.2186
  521MOL0     C70242   2.309   1.079   2.408  0.1178  0.0741 -0.6847
  521MOL0     C70243   2.227   0.953   2.375  0.0338 -0.9459  0.3013
  521MOL0     C70244   2.174   0.954   2.234 -0.3232 -0.2303  0.4191
  521MOL0    Cl70245   2.020   1.018   2.206  0.2595 -0.0422  0.1265
  521MOL0     C70246   2.946   1.564   2.777 -0.4557 -0.0073  0.4979
  521MOL0     C70247   3.082   1.569   2.798  0.1060 -0.2730 -0.4005
  521MOL0     O70248   3.360   1.440   2.681  0.2061  0.7668  0.3215
  521MOL0     C70249   3.538   1.558   2.972  0.2903  0.2869 -0.2145
  521MOL0     C70250   3.671   1.592   3.016  0.3701 -0.0425  0.4349
  521MOL0     N70251   4.453   1.489   2.502  0.2384  0.4485  0.6830
  521MOL0     N70252   4.510   1.380   2.448 -0.9167 -0.9293  0.2357
  521MOL0     C70253   5.656   1.047   2.649  0.0906  0.0309  0.6445
  521MOL0     C70254   5.771   0.973   2.682  0.6155 -0.8050  0.1528
  521MOL0     C70255   6.086   0.818   2.935  1.1876 -0.2027  0.8694
  521MOL0     C70256   6.178   0.879   3.013 -0.2638 -0.5098 -0.6095
  521MOL0     C70257   6.306   0.817   3.056  0.9449  0.4189  0.1372
  521MOL0     C70258   6.340   0.698   3.005 -0.1500 -0.0094 -0.1742
  521MOL0     O70259   6.452   0.627   3.030  0.6334 -0.7832  0.7251
  521MOL0     C70260   6.436   0.544   3.152  0.5305 -0.1508  0.4495
  521MOL0     C70261   6.546   0.435   3.158 -0.1937 -0.0636 -0.3561
  521MOL0     C70262   6.673   0.502   3.183 -0.7703 -0.0491  0.7047
  521MOL0     C70263   6.781   0.418   3.244  0.1856 -0.2405 -0.3735
  521MOL0     C70264   6.829   0.309   3.157  0.4067  0.7613  0.0625
  521MOL0     C70265   6.870   0.217   3.094  0.1486  0.5861 -0.1641
  521MOL0     C70266   6.251   0.637   2.915  0.0138  0.2072 -0.3025
  521MOL0     C70267   6.119   0.693   2.882  0.0988 -0.0847  0.2536
  521MOL0     H70268   5.646   0.815   2.957  0.5278 -0.6935 -0.9150
  521MOL0     H70269   5.449   0.959   2.904  1.6616 -1.7024  3.2395
  521MOL0     H70270   5.466   1.183   2.525  1.0753 -1.2583  0.6941
  521MOL0     H70271   5.377   1.030   2.510 -0.3832 -0.1386  2.3317
  521MOL0     H70272   5.250   1.273   2.645  1.2167 -1.0553  2.4141
  521MOL0     H70273   5.236   1.248   2.467  3.2702 -0.6202 -1.1730
  521MOL0     H70274   5.123   1.032   2.517 -0.7320  0.8793 -0.2926
  521MOL0     H70275   5.123   1.079   2.694  0.8789  1.0773  1.3901
  521MOL0     H70276   5.011   1.293   2.637 -0.5317  1.3735 -0.6806
  521MOL0     H70277   5.012   1.235   2.462  1.3943 -2.0136 -0.1535
  521MOL0     H70278   4.891   1.027   2.544 -2.5533 -0.0723 -1.1823
  521MOL0     H70279   4.871   1.112   2.703  1.7688  1.7609  0.4939
  521MOL0     H70280   4.742   1.271   2.602  1.8627 -1.3193  2.4838
  521MOL0     H70281   4.747   1.207   2.439 -0.2967  3.4301  0.5557
  521MOL0     H70282   4.651   0.979   2.534 -4.2848 -1.2269  0.3906
  521MOL0     H70283   4.601   1.066   2.671 -1.0313 -0.9520 -0.4338
  521MOL0     H70284   4.417   1.072   2.513 -0.7698  0.4804 -0.2533
  521MOL0     H70285   4.529   1.119   2.378  2.2283  1.7022  0.2848
  521MOL0     H70286   4.364   1.251   2.707 -0.7152  1.2963  0.7009
  521MOL0     H70287   4.381   1.586   2.775 -0.8665 -0.0065  0.4015
  521MOL0     H70288   4.263   1.621   2.651  1.0896  1.0105  1.3480
  521MOL0     H70289   4.231   1.396   2.863 -0.7672 -2.2973 -0.5791
  521MOL0     H70290   4.137   1.420   2.716  0.4480  0.5828 -0.2576
  521MOL0     H70291   4.054   1.630   2.790  0.8546  1.2121  0.4378
  521MOL0     H70292   4.173   1.637   2.922 -1.4426  1.7215 -0.4861
  521MOL0     H70293   4.080   1.449   3.033  1.0377 -1.0413 -1.9527
  521MOL0     H70294   3.991   1.404   2.895  2.1144 -1.0437 -1.3161
  521MOL0     H70295   3.854   1.472   2.772  1.0855  1.0128 -1.7234
  521MOL0     H70296   3.599   1.459   2.554  1.5408 -0.5605 -1.1773
  521MOL0     H70297   3.741   1.370   2.596 -0.4931  1.6792 -2.7536
  521MOL0     H70298   3.586   1.303   2.639 -1.5280  0.9089  0.8633
  521MOL0     H70299   3.119   1.249   2.905 -1.0134  0.2701  1.4017
  521MOL0     H70300   2.889   1.235   2.862  0.1179  0.4490 -1.1639
  521MOL0     H70301   2.675   1.249   2.732  1.7219 -0.4441  0.6058
  521MOL0     H70302   2.670   1.291   2.902  0.4407  0.6337 -0.7242
  521MOL0     H70303   2.461   1.408   2.874 -1.6299 -2.2602  0.5296
  521MOL0     H70304   2.487   1.439   2.702  0.9638  1.7554  2.3525
  521MOL0     H70305   2.312   1.259   2.791 -1.2620 -1.7738 -3.2566
  521MOL0     H70306   2.463   1.158   2.783 -0.9775 -1.4523 -2.1460
  521MOL0     H70307   2.360   1.322   2.548  0.1809  0.2688 -1.4629
  521MOL0     H70308   2.497   1.223   2.544 -1.8341 -0.4945 -0.5220
  521MOL0     H70309   2.213   1.115   2.609  1.5220 -1.1970  3.6832
  521MOL0     H70310   2.364   1.026   2.616 -0.2966  1.0203  1.9352
  521MOL0     H70311   2.260   1.167   2.366  2.9608  2.3421  0.3686
  521MOL0     H70312   2.412   1.068   2.372  0.7938  0.2214  1.1150
  521MOL0     H70313   2.147   0.938   2.448  2.6358  0.8125  3.8099
  521MOL0     H70314   2.295   0.867   2.382 -1.9465 -2.9237 -2.3391
  521MOL0     H70315   2.162   0.852   2.195 -2.5409 -0.1884  0.8441
  521MOL0     H70316   2.246   1.003   2.168 -1.3682  1.5667  0.5260
  521MOL0     H70317   2.898   1.658   2.754  1.8769  0.8984 -1.1312
  521MOL0     H70318   3.120   1.665   2.764 -1.7012  0.2656 -0.9976
  521MOL0     H70319   3.443   1.577   3.023  0.3367  2.6517 -0.8560
  521MOL0     H70320   3.686   1.634   3.115  0.7331  0.8888 -0.0022
  521MOL0     H70321   5.674   1.112   2.563  0.7484 -1.9175 -0.7525
  521MOL0     H70322   5.858   0.999   2.623 -1.6709  1.1549 -2.6004
  521MOL0     H70323   6.172   0.980   3.054  1.7370 -0.2996 -0.7344
  521MOL0     H70324   6.368   0.874   3.125  1.5913 -0.9942  0.7733
  521MOL0     H70325   6.445   0.613   3.237 -1.5591  1.0113 -0.2153
  521MOL0     H70326   6.339   0.495   3.148 -0.7230  2.2583 -1.7796
  521MOL0     H70327   6.555   0.395   3.057 -0.6148  3.8297 -2.1199
  521MOL0     H70328   6.531   0.353   3.229 -1.9677 -0.7088 -1.3989
  521MOL0     H70329   6.656   0.581   3.256  1.7066  1.5392 -0.3292
  521MOL0     H70330   6.719   0.525   3.086 -0.4233 -3.3165 -0.0385
  521MOL0     H70331   6.749   0.372   3.338  2.0294  0.6438  0.7353
  521MOL0     H70332   6.865   0.485   3.265 -0.1697  0.6913 -1.7883
  521MOL0     H70333   6.921   0.144   3.034 -0.2113  0.2941 -0.1202
  521MOL0     H70334   6.286   0.539   2.882  1.9783 -0.0092  2.1049
  521MOL0     H70335   6.051   0.644   2.813 -2.1544  0.4400  1.9975
  522MOL0     O70336   7.461   4.434   8.792  0.6271 -0.1076 -0.5561
  522MOL0     C70337   7.477   4.315   8.820  0.8775  0.4935  0.6116
  522MOL0     O70338   7.382   4.214   8.820 -0.0435  0.7016 -0.4396
  522MOL0     C70339   7.248   4.241   8.824 -0.2948  0.1980  0.1027
  522MOL0     C70340   7.189   4.360   8.885 -1.2912 -0.6514 -0.0347
  522MOL0     C70341   7.052   4.365   8.918 -0.4733 -0.1349  0.1939
  522MOL0     C70342   6.970   4.256   8.883  0.2363  0.1064 -0.3604
  522MOL0     O70343   6.836   4.256   8.903 -0.3054  0.1973  0.3942
  522MOL0     C70344   6.786   4.315   9.024  0.0029 -0.3777 -0.1809
  522MOL0     C70345   6.636   4.298   9.036  0.0783  0.2804  0.0759
  522MOL0     C70346   6.553   4.350   8.920 -0.2019 -0.0545 -0.0476
  522MOL0     C70347   6.396   4.332   8.954 -0.0634 -0.5113  0.9352
  522MOL0     C70348   6.330   4.343   8.813 -0.8724 -0.0197 -0.3109
  522MOL0     C70349   6.178   4.352   8.836  0.6084  0.7612 -0.2207
  522MOL0     C70350   6.105   4.364   8.698  0.0131 -0.1608  0.4622
  522MOL0     C70351   5.953   4.340   8.714 -0.6368 -0.4632  0.8779
  522MOL0     N70352   5.889   4.340   8.579 -0.2979 -0.3797  0.0606
  522MOL0     C70353   5.798   4.430   8.530 -0.4512  0.0624  0.1896
  522MOL0     C70354   5.757   4.386   8.404  0.8049 -0.3660  0.1957
  522MOL0     C70355   5.661   4.459   8.304 -0.4348  0.1909  0.4308
  522MOL0     C70356   5.523   4.404   8.309 -0.3536  0.1644  0.5232
  522MOL0     C70357   5.427   4.468   8.205 -0.7139  0.4734  0.3861
  522MOL0     C70358   5.280   4.448   8.236  0.2279  0.8946 -0.1285
  522MOL0     O70359   5.227   4.516   8.347  0.1199  0.4204 -0.4205
  522MOL0     C70360   5.097   4.487   8.380  0.2845  0.1709  0.3372
  522MOL0     C70361   5.066   4.534   8.504 -0.0279  0.3127  0.2865
  522MOL0     C70362   4.944   4.498   8.570 -0.6047 -0.1404 -0.6029
  522MOL0     C70363   4.933   4.532   8.716  0.2227 -0.5449 -1.2028
  522MOL0     C70364   4.846   4.419   8.507  0.1030  0.3255 -0.3554
  522MOL0     C70365   4.715   4.371   8.570 -0.2693  0.6389 -0.9610
  522MOL0     O70366   4.646   4.263   8.505 -0.1305 -0.2861 -0.2314
  522MOL0     C70367   4.532   4.215   8.563  0.9071 -0.1666  0.7089
  522MOL0     C70368   4.405   4.239   8.514  0.2206 -0.2529 -0.8252
  522MOL0     C70369   4.297   4.182   8.578  0.6225 -0.0239  0.0039
  522MOL0     C70370   4.308   4.095   8.679  0.9775  0.0029 -0.4172
  522MOL0     O70371   4.205   4.038   8.749  0.2009 -0.5740 -0.2951
  522MOL0     C70372   4.081   3.997   8.687 -0.1587  0.6312 -0.2372
  522MOL0     C70373   3.987   3.946   8.793  0.0014 -0.0603 -0.2181
  522MOL0     C70374   4.009   3.797   8.836  0.0691 -0.2616 -1.2025
  522MOL0     C70375   4.160   3.759   8.857  0.7326 -0.0604  0.0886
  522MOL0     C70376   4.174   3.637   8.950  0.6805  0.2067 -0.2355
  522MOL0     C70377   4.319   3.604   8.962  0.2091  0.5864 -0.3936
  522MOL0     C70378   4.331   3.494   9.068 -0.4799 -0.3475 -0.1221
  522MOL0     C70379   4.473   3.480   9.124  0.6960 -0.3611 -0.1675
  522MOL0    Cl70380   4.479   3.354   9.242  0.0693  0.4770  0.3656
  522MOL0     C70381   4.435   4.067   8.737 -0.1394 -0.3903 -0.5406
  522MOL0     C70382   4.546   4.136   8.679 -0.2743 -0.0952 -0.9108
  522MOL0     O70383   4.671   4.441   8.663 -0.4175  0.5110 -0.4838
  522MOL0     C70384   4.878   4.373   8.376  0.2069  0.1358 -0.3222
  522MOL0     C70385   5.000   4.413   8.302  0.4913  0.3910  0.2634
  522MOL0     N70386   5.823   4.268   8.394  0.0837 -0.3586  1.1780
  522MOL0     N70387   5.893   4.237   8.491 -0.5021 -0.6211 -0.1976
  522MOL0     C70388   7.029   4.148   8.816  1.2300  0.1897 -0.1829
  522MOL0     C70389   7.160   4.139   8.778 -0.3130 -0.3542  0.0181
  522MOL0     C70390   7.621   4.270   8.816  0.3104 -0.2165  0.0946
  522MOL0     C70391   7.727   4.368   8.802  0.5623 -0.7991 -0.2608
  522MOL0     C70392   7.858   4.321   8.805  0.5866 -0.3318  0.2161
  522MOL0     C70393   7.891   4.190   8.825  0.1341  0.2268 -0.2087
  522MOL0     O70394   8.015   4.143   8.825 -0.4167 -0.3795 -0.8436
  522MOL0     C70395   8.111   4.228   8.752  0.0387 -0.4977  0.4779
  522MOL0     C70396   8.239   4.134   8.743 -0.2572  0.4081 -1.0171
  522MOL0     C70397   8.366   4.220   8.728  0.5674 -0.5498  1.3030
  522MOL0     C70398   8.483   4.163   8.795 -0.4241 -0.0262 -1.2468
  522MOL0     C70399   8.467   4.178   8.945  0.2425 -0.1597 -0.0506
  522MOL0     C70400   8.455   4.199   9.068  0.0419 -0.3095 -0.3738
  522MOL0     C70401   7.789   4.104   8.861 -0.4931 -0.0895 -0.4374
  522MOL0     C70402   7.655   4.142   8.850 -0.7796  0.4234 -0.2458
  522MOL0     H70403   7.247   4.440   8.931 -1.1703 -1.1523  0.7010
  522MOL0     H70404   7.005   4.451   8.966 -0.0663  1.4065 -1.9989
  522MOL0     H70405   6.835   4.274   9.113  2.4242  0.7525 -0.9066
  522MOL0     H70406   6.804   4.423   9.017 -1.3776 -0.1178 -0.0821
  522MOL0     H70407   6.607   4.193   9.043 -3.0372  1.1276  2.1428
  522MOL0     H70408   6.602   4.352   9.126  2.7847 -0.4348  1.6369
  522MOL0     H70409   6.580   4.454   8.898  1.2331 -0.6041 -1.0132
  522MOL0     H70410   6.568   4.282   8.836  2.7459 -0.5164  0.7128
  522MOL0     H70411   6.385   4.237   9.006 -1.7270 -0.1746  1.2567
  522MOL0     H70412   6.365   4.409   9.025 -0.8602 -2.1845  2.4686
  522MOL0     H70413   6.368   4.436   8.770 -0.1604 -1.5224 -3.2268
  522MOL0     H70414   6.361   4.258   8.751  2.0100  1.2227 -0.7306
  522MOL0     H70415   6.150   4.266   8.897 -0.4994  0.5748 -0.9712
  522MOL0     H70416   6.149   4.428   8.910  0.3748 -0.1085  0.6035
  522MOL0     H70417   6.110   4.463   8.653 -1.3874  0.1322  0.8835
  522MOL0     H70418   6.141   4.288   8.628 -1.0178 -1.8467  1.6634
  522MOL0     H70419   5.911   4.411   8.785  0.3223 -0.0657  1.0593
  522MOL0     H70420   5.942   4.247   8.770  0.1893  0.0940  1.9895
  522MOL0     H70421   5.774   4.520   8.586  4.6209  1.6357  0.3066
  522MOL0     H70422   5.667   4.567   8.322 -2.2491  0.3854  0.0373
  522MOL0     H70423   5.692   4.450   8.200 -3.6528 -1.6540 -0.5109
  522MOL0     H70424   5.477   4.423   8.406 -1.2597  2.5353 -0.3104
  522MOL0     H70425   5.524   4.296   8.287 -0.8589  0.1407  0.5978
  522MOL0     H70426   5.445   4.421   8.108  2.1563  0.0455  1.0282
  522MOL0     H70427   5.457   4.573   8.198 -0.7798  0.4676 -0.0191
  522MOL0     H70428   5.257   4.341   8.243 -2.3386  1.5092  2.5163
  522MOL0     H70429   5.225   4.502   8.158  1.8786  2.9264  0.0297
  522MOL0     H70430   5.137   4.595   8.560 -0.2271 -1.4539  2.6187
  522MOL0     H70431   5.033   4.561   8.748  0.5965 -1.2862 -1.6587
  522MOL0     H70432   4.858   4.611   8.726 -3.5877 -3.9939  1.0569
  522MOL0     H70433   4.902   4.445   8.775  0.0077 -0.4112 -1.1157
  522MOL0     H70434   4.389   4.311   8.433 -0.6124 -0.5733 -0.9558
  522MOL0     H70435   4.199   4.210   8.541  0.7233 -0.4031 -0.5695
  522MOL0     H70436   4.032   4.089   8.653 -1.7443 -0.4382 -0.9348
  522MOL0     H70437   4.098   3.926   8.606 -0.1687  0.9731 -0.5417
  522MOL0     H70438   3.996   4.015   8.877 -1.4302 -0.8261  0.6049
  522MOL0     H70439   3.884   3.955   8.756  0.1589  1.1802 -0.3877
  522MOL0     H70440   3.978   3.728   8.756  0.2321  0.1779 -1.6509
  522MOL0     H70441   3.951   3.766   8.923  1.4348  0.8141  0.1627
  522MOL0     H70442   4.212   3.742   8.762  1.5345  1.1932  0.2845
  522MOL0     H70443   4.207   3.844   8.907  1.1825  0.0888 -0.5820
  522MOL0     H70444   4.112   3.549   8.930  0.2510  0.0353  1.6846
  522MOL0     H70445   4.139   3.674   9.047  1.5586 -0.8876  0.5271
  522MOL0     H70446   4.353   3.560   8.868 -0.7063  1.1262 -0.9909
  522MOL0     H70447   4.374   3.694   8.992  3.7634 -2.3981  2.9924
  522MOL0     H70448   4.307   3.396   9.024  2.0838 -0.4258 -1.6021
  522MOL0     H70449   4.256   3.514   9.144 -2.2007 -1.0611 -1.5661
  522MOL0     H70450   4.503   3.569   9.179  0.1175  0.7291 -1.5660
  522MOL0     H70451   4.553   3.471   9.051  1.1025  1.6237 -0.0032
  522MOL0     H70452   4.438   4.002   8.823  0.6972 -0.5722 -0.7021
  522MOL0     H70453   4.636   4.131   8.739 -0.2538  0.9697 -0.8280
  522MOL0     H70454   4.800   4.321   8.321  0.0737  0.9801 -0.9505
  522MOL0     H70455   5.020   4.376   8.202  0.4812  0.6589  0.1630
  522MOL0     H70456   6.962   4.066   8.789 -0.5941  1.6965 -0.4884
  522MOL0     H70457   7.199   4.053   8.726 -0.8905 -0.3515 -0.4276
  522MOL0     H70458   7.704   4.473   8.790  1.6998 -0.3668  1.1491
  522MOL0     H70459   7.920   4.407   8.779 -1.9745  1.4395 -0.4692
  522MOL0     H70460   8.074   4.244   8.650 -1.9166 -1.6139  0.9754
  522MOL0     H70461   8.139   4.327   8.789 -0.3295 -0.3069  0.2522
  522MOL0     H70462   8.232   4.069   8.655 -0.6739  0.8645 -1.3241
  522MOL0     H70463   8.249   4.074   8.834 -2.6825 -0.2564 -1.1329
  522MOL0     H70464   8.350   4.324   8.757  0.4903 -0.0750 -0.3559
  522MOL0     H70465   8.394   4.228   8.622 -0.2444 -0.1847  1.1113
  522MOL0     H70466   8.581   4.202   8.767 -0.5269  0.0437 -1.5158
  522MOL0     H70467   8.476   4.055   8.774 -2.4536 -0.5071  1.3571
  522MOL0     H70468   8.434   4.191   9.172 -0.3786 -1.3671 -0.5288
  522MOL0     H70469   7.814   4.000   8.880 -2.3541 -0.6075 -0.6778
  522MOL0     H70470   7.588   4.060   8.873  0.1064 -0.8177 -1.8523
  523MOL0     O70471   3.348  10.706   6.628  0.3178 -0.3965 -0.2782
  523MOL0     C70472   3.390  10.709   6.743 -0.8051  0.3873 -0.7997
  523MOL0     O70473   3.316  10.693   6.847  0.2249 -0.0855  0.0845
  523MOL0     C70474   3.176  10.669   6.833  0.4065 -0.1106  0.1640
  523MOL0     C70475   3.091  10.719   6.729  0.1718  0.3925  0.3971
  523MOL0     C70476   2.949  10.696   6.737 -0.1103  0.0367 -0.1991
  523MOL0     C70477   2.894  10.610   6.821 -0.8461  0.3816  0.0574
  523MOL0     O70478   2.759  10.567   6.831 -0.7356 -0.1323 -0.5835
  523MOL0     C70479   2.695  10.537   6.703 -0.4975 -0.0515 -1.1570
  523MOL0     C70480   2.543  10.501   6.719 -0.1474  0.8534  0.0489
  523MOL0     C70481   2.462  10.616   6.782 -0.1202 -0.0804  0.1300
  523MOL0     C70482   2.325  10.626   6.728  0.4490 -0.7318  0.2190
  523MOL0     C70483   2.227  10.707   6.825  0.1478  0.0964  0.4432
  523MOL0     C70484   2.295  10.844   6.860 -0.3208  0.5399  1.1039
  523MOL0     C70485   2.199  10.937   6.931  0.5374  0.5123 -0.3460
  523MOL0     C70486   2.085  10.984   6.848 -0.0509 -0.0697  0.8112
  523MOL0     N70487   2.114  11.112   6.778  0.1843 -0.1755 -0.3067
  523MOL0     C70488   2.180  11.130   6.651  0.3648  0.8220  0.3600
  523MOL0     C70489   2.149  11.257   6.612 -0.9860 -0.5717  0.2060
  523MOL0     C70490   2.197  11.335   6.494  0.2002 -0.9565 -0.8738
  523MOL0     C70491   2.348  11.328   6.461 -0.5920  0.4877 -0.4971
  523MOL0     C70492   2.444  11.347   6.574 -0.3995 -0.2449  0.6240
  523MOL0     C70493   2.587  11.367   6.542  1.0647  0.1009  0.1007
  523MOL0     O70494   2.604  11.499   6.483 -0.6310  0.6148  0.9687
  523MOL0     C70495   2.725  11.532   6.426 -0.5487 -0.1813 -0.3365
  523MOL0     C70496   2.846  11.468   6.463 -0.2544 -0.8729 -0.0915
  523MOL0     C70497   2.966  11.512   6.411  0.2551  0.0722  0.6799
  523MOL0     C70498   3.092  11.449   6.464  0.5454 -0.7855 -0.6959
  523MOL0     C70499   2.965  11.622   6.321 -0.2435 -0.5680 -0.6025
  523MOL0     C70500   3.091  11.679   6.266  0.0405  0.2075  0.0768
  523MOL0     O70501   3.200  11.603   6.242  0.0890  1.0848 -0.4101
  523MOL0     C70502   3.307  11.658   6.184  0.4521 -0.2056  0.2633
  523MOL0     C70503   3.419  11.679   6.271 -0.1101  0.0322  1.2953
  523MOL0     C70504   3.539  11.746   6.228  0.0260  0.3797 -0.1183
  523MOL0     C70505   3.549  11.791   6.094 -0.2633 -0.1487  0.0608
  523MOL0     O70506   3.647  11.884   6.052 -0.4893  0.5283  0.3953
  523MOL0     C70507   3.778  11.850   6.092  0.0740  0.3117  0.4387
  523MOL0     C70508   3.874  11.948   6.027 -0.1281  1.0887 -0.1310
  523MOL0     C70509   3.902  11.918   5.882 -0.7436 -0.1648  0.4526
  523MOL0     C70510   3.955  12.037   5.808 -0.7032 -0.3586 -0.4087
  523MOL0     C70511   4.101  12.059   5.854  0.9420 -0.0184  0.1484
  523MOL0     C70512   4.184  12.133   5.749  0.9469 -0.9931 -0.2967
  523MOL0     C70513   4.312  12.171   5.819  1.1500 -0.4190 -0.2415
  523MOL0     C70514   4.406  12.252   5.742  1.1663  0.0714  0.7349
  523MOL0    Cl70515   4.433  12.163   5.576  0.1526  0.0352 -0.1543
  523MOL0     C70516   3.442  11.755   6.004  0.3565 -0.7088  0.3212
  523MOL0     C70517   3.332  11.691   6.046  0.2800  0.5841  0.1855
  523MOL0     O70518   3.087  11.802   6.255  0.9155  0.3344 -0.1720
  523MOL0     C70519   2.846  11.686   6.285  0.1641 -0.3434  0.1382
  523MOL0     C70520   2.726  11.633   6.323 -0.2000 -0.1871  0.5108
  523MOL0     N70521   2.073  11.313   6.716  0.3058  0.3389 -0.1893
  523MOL0     N70522   2.056  11.227   6.815 -0.3791  0.4196  0.5506
  523MOL0     C70523   2.977  10.553   6.917 -0.6990  0.2318 -0.1037
  523MOL0     C70524   3.118  10.584   6.928  0.2275  0.4633  0.0908
  523MOL0     C70525   3.542  10.711   6.757  0.1445  1.0758  0.4776
  523MOL0     C70526   3.598  10.735   6.884 -1.2823 -0.2065  0.9325
  523MOL0     C70527   3.749  10.715   6.898  0.4640  0.3515  0.0212
  523MOL0     C70528   3.824  10.674   6.782 -0.5445 -0.5538 -0.6357
  523MOL0     O70529   3.967  10.651   6.770  0.0169  0.0079 -0.6362
  523MOL0     C70530   4.040  10.658   6.895  1.5812  0.0080  0.0905
  523MOL0     C70531   4.184  10.659   6.863 -0.3585 -0.1525  1.1373
  523MOL0     C70532   4.219  10.533   6.789 -0.5287 -0.6191  0.5847
  523MOL0     C70533   4.372  10.509   6.792 -0.4262 -0.8195  0.0914
  523MOL0     C70534   4.419  10.445   6.920 -1.1368 -0.0863  0.2304
  523MOL0     C70535   4.439  10.352   7.003 -1.0067 -0.0521 -0.2378
  523MOL0     C70536   3.753  10.650   6.661 -0.6295  0.2247  1.3069
  523MOL0     C70537   3.620  10.671   6.645  0.0396 -0.4458 -0.8988
  523MOL0     H70538   3.133  10.782   6.651  1.1915  0.9025  1.3150
  523MOL0     H70539   2.882  10.740   6.664 -1.3086 -0.2241  0.7149
  523MOL0     H70540   2.699  10.621   6.634  0.2237  0.7164 -0.1997
  523MOL0     H70541   2.750  10.454   6.657  2.1521  1.2835 -0.5867
  523MOL0     H70542   2.507  10.486   6.618  0.2422  2.1444 -0.3048
  523MOL0     H70543   2.533  10.407   6.774 -0.9752  0.0340 -1.4603
  523MOL0     H70544   2.474  10.597   6.889  0.9347  0.6266  0.1605
  523MOL0     H70545   2.513  10.711   6.762  2.4428 -1.1040  1.3739
  523MOL0     H70546   2.328  10.679   6.632  1.7577 -0.3404  0.4582
  523MOL0     H70547   2.276  10.530   6.704 -1.4268  0.0989  0.5065
  523MOL0     H70548   2.126  10.721   6.786 -1.0379  0.4760  3.3954
  523MOL0     H70549   2.208  10.645   6.913  0.4223 -0.6746 -0.0217
  523MOL0     H70550   2.378  10.811   6.923 -1.4876 -4.4955  0.4684
  523MOL0     H70551   2.339  10.896   6.775 -0.7434 -1.7388 -0.6025
  523MOL0     H70552   2.155  10.881   7.014 -4.3140  1.4736 -1.9198
  523MOL0     H70553   2.253  11.027   6.961  2.7882 -0.7150 -0.4781
  523MOL0     H70554   2.000  11.006   6.913 -0.7380 -0.0358 -0.0817
  523MOL0     H70555   2.046  10.913   6.774 -1.2875  0.1928  1.2051
  523MOL0     H70556   2.241  11.058   6.597  0.7231  0.8161  0.7643
  523MOL0     H70557   2.137  11.321   6.404  1.1501 -0.3279 -1.6103
  523MOL0     H70558   2.180  11.441   6.515 -1.5054 -1.4164  0.3854
  523MOL0     H70559   2.357  11.406   6.385 -1.5867  0.5856 -0.5176
  523MOL0     H70560   2.377  11.239   6.403 -0.2842  0.5623 -0.4618
  523MOL0     H70561   2.442  11.265   6.647 -1.7509  0.6396  1.6224
  523MOL0     H70562   2.410  11.439   6.622  1.0378  0.9581 -0.5924
  523MOL0     H70563   2.627  11.286   6.479  1.5541 -0.0275  0.5696
  523MOL0     H70564   2.645  11.362   6.635  0.2582  0.5144  0.6338
  523MOL0     H70565   2.856  11.389   6.537  0.4971 -0.0330  0.7243
  523MOL0     H70566   3.154  11.529   6.506 -0.9855  0.2240 -0.2480
  523MOL0     H70567   3.067  11.375   6.541 -1.9470  0.2819 -0.3730
  523MOL0     H70568   3.140  11.403   6.378  0.8109 -0.0694 -0.9423
  523MOL0     H70569   3.405  11.639   6.371 -0.9890 -1.1530  0.7165
  523MOL0     H70570   3.625  11.775   6.287  1.5740  3.4651 -3.4392
  523MOL0     H70571   3.775  11.869   6.200 -2.2995  1.1310  0.2851
  523MOL0     H70572   3.795  11.746   6.065  1.1556  0.7207 -0.5717
  523MOL0     H70573   3.846  12.053   6.045 -0.4082  1.0176 -0.1410
  523MOL0     H70574   3.970  11.928   6.075 -1.2934 -3.3075  0.8122
  523MOL0     H70575   3.802  11.907   5.839  0.2106  1.9958 -2.6236
  523MOL0     H70576   3.960  11.827   5.863 -2.1133 -0.5790 -2.2655
  523MOL0     H70577   3.950  12.015   5.701  0.2475  0.5564 -0.6560
  523MOL0     H70578   3.899  12.126   5.839  1.6353  0.3114  2.2379
  523MOL0     H70579   4.151  11.963   5.871  3.5804  1.4573  1.3557
  523MOL0     H70580   4.102  12.105   5.953  2.5360  0.4123 -0.0493
  523MOL0     H70581   4.200  12.063   5.667 -5.0195 -1.6227 -1.4196
  523MOL0     H70582   4.133  12.225   5.718 -1.0761 -2.2266 -0.8178
  523MOL0     H70583   4.364  12.080   5.851  2.6638 -0.2658 -2.0768
  523MOL0     H70584   4.288  12.234   5.905  2.6171 -0.3432  0.1436
  523MOL0     H70585   4.495  12.257   5.805  2.7218 -0.3698 -1.3160
  523MOL0     H70586   4.364  12.351   5.719  2.1215  0.0280 -1.5058
  523MOL0     H70587   3.456  11.787   5.901 -1.5192 -0.6183  0.0603
  523MOL0     H70588   3.263  11.666   5.966  2.1915 -1.2591 -0.9859
  523MOL0     H70589   2.844  11.763   6.209  1.0294  1.0369  1.4673
  523MOL0     H70590   2.639  11.687   6.287  1.4636  0.3894 -3.0590
  523MOL0     H70591   2.935  10.474   6.978  2.0796 -0.8178  0.5911
  523MOL0     H70592   3.179  10.548   7.010 -0.2657  0.4337  0.4513
  523MOL0     H70593   3.543  10.763   6.973  1.1467  1.3275  2.0733
  523MOL0     H70594   3.794  10.725   6.996 -0.2203 -0.3945  0.4212
  523MOL0     H70595   4.021  10.747   6.957 -0.8416 -1.9285  2.3651
  523MOL0     H70596   4.010  10.575   6.960  1.8405  1.1775  1.7756
  523MOL0     H70597   4.224  10.666   6.964 -0.9988  2.1510  1.3024
  523MOL0     H70598   4.213  10.752   6.813  2.9555 -1.7034 -0.0658
  523MOL0     H70599   4.193  10.554   6.685  2.3593  1.7670  0.2201
  523MOL0     H70600   4.170  10.447   6.836  0.4187 -0.5174  1.8363
  523MOL0     H70601   4.420  10.606   6.777 -1.9169  0.3403  2.2664
  523MOL0     H70602   4.393  10.440   6.710 -2.8687 -1.3668 -0.1291
  523MOL0     H70603   4.443  10.272   7.074  2.9193 -0.5480 -0.7360
  523MOL0     H70604   3.809  10.615   6.576 -1.1933 -0.6181  1.2726
  523MOL0     H70605   3.572  10.640   6.553  2.3296  1.2322 -2.7613
  524MOL0     O70606   7.748   4.051   9.247  0.2698  0.3289 -0.3838
  524MOL0     C70607   7.784   4.100   9.349 -0.7404 -0.3514 -0.6272
  524MOL0     O70608   7.718   4.106   9.468  0.5310 -0.3065 -0.3695
  524MOL0     C70609   7.593   4.044   9.485  0.2075  0.3592  1.2036
  524MOL0     C70610   7.505   3.979   9.395 -0.1252  0.6247  0.1424
  524MOL0     C70611   7.372   3.938   9.430 -0.5863  0.2191 -0.4057
  524MOL0     C70612   7.331   3.948   9.567 -0.0077 -0.4458  1.0068
  524MOL0     O70613   7.207   3.904   9.611  0.1855  0.1021  0.2165
  524MOL0     C70614   7.123   3.826   9.527 -0.6509 -0.1975  0.5086
  524MOL0     C70615   7.008   3.760   9.602 -0.2949 -0.5837  0.2892
  524MOL0     C70616   7.057   3.664   9.709  0.0298  0.3919 -0.4893
  524MOL0     C70617   6.936   3.585   9.754  0.2989 -0.3171  0.2476
  524MOL0     C70618   6.953   3.488   9.873  0.0475 -1.0603 -0.0301
  524MOL0     C70619   7.101   3.437   9.893  0.2077 -0.1150  0.0139
  524MOL0     C70620   7.122   3.366  10.020 -0.2460  0.2047  0.9107
  524MOL0     C70621   7.033   3.242  10.025 -1.4896  0.4286 -0.2622
  524MOL0     N70622   7.056   3.179  10.155 -0.0464 -0.2793  0.8636
  524MOL0     C70623   6.993   3.214  10.271 -0.3636  0.5887  0.7346
  524MOL0     C70624   7.042   3.127  10.358 -0.1538  0.8703 -1.0099
  524MOL0     C70625   6.992   3.126  10.495 -0.2478  0.2949  0.5446
  524MOL0     C70626   7.089   3.196  10.594  0.8111  0.4639  0.6855
  524MOL0     C70627   7.058   3.159  10.733  0.7069 -0.6326 -0.7901
  524MOL0     C70628   7.140   3.235  10.845 -0.2237  0.4214 -0.4005
  524MOL0     O70629   7.161   3.150  10.962  0.5799  0.1966  0.4411
  524MOL0     C70630   7.239   3.201  11.061  0.0336  0.5861  0.0682
  524MOL0     C70631   7.341   3.293  11.044  0.4307 -0.5288 -0.1787
  524MOL0     C70632   7.416   3.349  11.148  0.1152  0.0075  0.1415
  524MOL0     C70633   7.537   3.439  11.116  0.4984 -0.1457 -0.1817
  524MOL0     C70634   7.385   3.309  11.282  0.1058 -0.0371 -0.6611
  524MOL0     C70635   7.467   3.345  11.410  0.1919  0.2587 -0.4134
  524MOL0     O70636   7.553   3.449  11.407  0.1318  0.3931  0.0283
  524MOL0     C70637   7.669   3.458  11.471  0.2331 -0.7415 -0.6568
  524MOL0     C70638   7.719   3.371  11.570 -0.4348  0.3265  0.1563
  524MOL0     C70639   7.847   3.386  11.621  0.2094 -0.1265  0.7109
  524MOL0     C70640   7.931   3.484  11.572  0.1798  0.1654 -0.2549
  524MOL0     O70641   8.057   3.508  11.620  0.3587  0.1428  0.5069
  524MOL0     C70642   8.131   3.394  11.659  0.1899 -0.2869  0.0682
  524MOL0     C70643   8.265   3.442  11.700 -0.0317 -1.1260  0.2863
  524MOL0     C70644   8.355   3.498  11.588  0.1098 -1.1685  0.0109
  524MOL0     C70645   8.501   3.525  11.635 -0.0678  1.4377 -0.0203
  524MOL0     C70646   8.597   3.592  11.546  0.1882  0.4935 -0.1144
  524MOL0     C70647   8.615   3.531  11.411 -0.0400  0.2566  0.0664
  524MOL0     C70648   8.688   3.627  11.312 -0.5261  0.4873 -0.0912
  524MOL0     C70649   8.710   3.567  11.171 -0.5318 -0.1943  0.6182
  524MOL0    Cl70650   8.781   3.405  11.177 -0.4352 -0.2895 -0.5223
  524MOL0     C70651   7.879   3.570  11.476 -0.6500  0.1181  0.3531
  524MOL0     C70652   7.753   3.563  11.425  0.3382 -0.9171 -0.1340
  524MOL0     O70653   7.432   3.284  11.513 -0.1427 -0.1306  0.7406
  524MOL0     C70654   7.274   3.219  11.298 -0.4509  0.9036  0.1284
  524MOL0     C70655   7.210   3.167  11.190  0.6541 -0.8705  0.7531
  524MOL0     N70656   7.137   3.047  10.308  0.6247  0.2087 -0.8359
  524MOL0     N70657   7.148   3.083  10.185 -1.3393  0.0585  0.0111
  524MOL0     C70658   7.425   3.996   9.663  0.6957 -0.6887 -0.4152
  524MOL0     C70659   7.545   4.043   9.621 -0.2629 -0.5949  0.0654
  524MOL0     C70660   7.931   4.144   9.354  0.3185  0.9873  0.1598
  524MOL0     C70661   7.981   4.192   9.474  0.6420 -0.4157 -0.0353
  524MOL0     C70662   8.117   4.238   9.479 -0.2397 -0.0403  0.5430
  524MOL0     C70663   8.197   4.240   9.359 -0.5274 -0.5683 -0.1549
  524MOL0     O70664   8.319   4.289   9.360  0.1546 -0.3552 -0.1472
  524MOL0     C70665   8.350   4.378   9.461 -0.2436  0.1781  0.5127
  524MOL0     C70666   8.494   4.427   9.427  1.0048  0.2491  0.5307
  524MOL0     C70667   8.594   4.355   9.516  0.2130 -0.8668  0.1681
  524MOL0     C70668   8.738   4.385   9.467  0.7848 -0.0001 -0.0921
  524MOL0     C70669   8.752   4.527   9.471 -0.5978  0.2605  0.5097
  524MOL0     C70670   8.777   4.645   9.472  0.1396  0.6434  0.1813
  524MOL0     C70671   8.138   4.198   9.239 -0.1705 -0.3830 -0.2033
  524MOL0     C70672   8.008   4.149   9.239 -0.2157 -0.4532  0.0333
  524MOL0     H70673   7.539   3.959   9.295  0.3109  0.2084  0.3699
  524MOL0     H70674   7.317   3.877   9.359  0.8676 -0.4296 -1.0271
  524MOL0     H70675   7.088   3.895   9.450 -0.1449 -0.2850  0.1929
  524MOL0     H70676   7.176   3.750   9.469  1.4015  1.3259  0.2778
  524MOL0     H70677   6.947   3.839   9.647  0.6620  0.2389  0.1731
  524MOL0     H70678   6.942   3.707   9.533 -0.7158 -1.6353  1.4478
  524MOL0     H70679   7.123   3.594   9.656 -2.0119 -2.3765  0.3615
  524MOL0     H70680   7.110   3.714   9.790  0.4784 -0.0168 -0.5279
  524MOL0     H70681   6.855   3.657   9.772 -1.6696 -2.2483 -0.5620
  524MOL0     H70682   6.908   3.518   9.673 -1.6667 -0.6853  1.1588
  524MOL0     H70683   6.926   3.538   9.966  0.5319  0.9603 -0.9163
  524MOL0     H70684   6.881   3.406   9.865  0.5528 -1.3604 -2.3577
  524MOL0     H70685   7.121   3.366   9.812 -1.2968 -0.4517 -0.0989
  524MOL0     H70686   7.168   3.523   9.903  0.1522 -0.1367  0.6253
  524MOL0     H70687   7.225   3.332  10.034  0.1689  1.4911  1.0838
  524MOL0     H70688   7.103   3.429  10.107  0.5519 -0.1328  1.3378
  524MOL0     H70689   7.063   3.179   9.942  3.6554  0.6398  1.1155
  524MOL0     H70690   6.926   3.262  10.009 -1.9677 -2.1089 -0.5600
  524MOL0     H70691   6.920   3.293  10.282  0.4515  1.2346  1.7377
  524MOL0     H70692   6.888   3.155  10.510 -0.6596 -1.0555  0.3566
  524MOL0     H70693   6.981   3.020  10.520  1.3608  0.0328  0.2772
  524MOL0     H70694   7.090   3.304  10.578 -0.9617  0.4350  0.1062
  524MOL0     H70695   7.191   3.165  10.568  0.7280  0.2845  0.5710
  524MOL0     H70696   7.081   3.053  10.745  0.8560 -0.5940 -0.7405
  524MOL0     H70697   6.950   3.170  10.751  1.0934 -0.3312  1.7363
  524MOL0     H70698   7.083   3.326  10.862 -0.6801  0.2187 -0.8082
  524MOL0     H70699   7.233   3.273  10.802 -2.5206  1.5259 -4.9530
  524MOL0     H70700   7.371   3.312  10.941  0.4297 -1.3212 -0.3290
  524MOL0     H70701   7.510   3.543  11.137 -1.0651 -0.7344  0.8981
  524MOL0     H70702   7.614   3.408  11.187 -1.3271 -2.6841  0.8334
  524MOL0     H70703   7.569   3.425  11.012  1.1186  0.8891 -0.1455
  524MOL0     H70704   7.658   3.296  11.620  0.1268  0.6761  1.4135
  524MOL0     H70705   7.871   3.315  11.699 -0.9559  0.2443  1.4319
  524MOL0     H70706   8.086   3.347  11.746  1.5949  0.6950  1.3694
  524MOL0     H70707   8.136   3.322  11.577 -3.2307 -0.2420 -0.3310
  524MOL0     H70708   8.258   3.525  11.771  2.6768 -1.1431  0.6632
  524MOL0     H70709   8.323   3.367  11.755  1.2131  0.0322  0.6072
  524MOL0     H70710   8.307   3.591  11.556  1.2917 -0.9272 -1.1433
  524MOL0     H70711   8.361   3.422  11.510  0.3014 -2.0594  0.8809
  524MOL0     H70712   8.498   3.595  11.718 -1.7020  0.9767  0.3381
  524MOL0     H70713   8.551   3.432  11.665 -0.1848  0.9972 -1.1382
  524MOL0     H70714   8.689   3.604  11.604 -0.4566 -0.2683  1.1102
  524MOL0     H70715   8.557   3.693  11.531 -1.6318 -0.0130  1.1188
  524MOL0     H70716   8.668   3.438  11.433 -0.8890  0.4027  3.2783
  524MOL0     H70717   8.516   3.494  11.380 -1.3706 -0.4980  4.5521
  524MOL0     H70718   8.783   3.664  11.352 -1.0582  0.9026  0.8222
  524MOL0     H70719   8.618   3.709  11.291 -1.7732 -0.3912  0.4725
  524MOL0     H70720   8.769   3.634  11.108 -1.8920 -0.4886 -1.0457
  524MOL0     H70721   8.616   3.555  11.116  1.8349  0.4655 -4.0009
  524MOL0     H70722   7.948   3.645  11.440 -0.2689 -0.3039  0.1907
  524MOL0     H70723   7.706   3.630  11.354  2.0325 -1.1010 -1.4800
  524MOL0     H70724   7.234   3.195  11.396  0.8118 -1.6596  0.1055
  524MOL0     H70725   7.115   3.117  11.210 -0.6638  1.7178  1.3508
  524MOL0     H70726   7.411   3.999   9.771  0.9022  0.8647 -0.4096
  524MOL0     H70727   7.611   4.080   9.700 -0.1842  1.0526 -0.7169
  524MOL0     H70728   7.918   4.201   9.562  1.5065  0.8582  0.4929
  524MOL0     H70729   8.154   4.280   9.572  1.0488  1.5951 -0.6459
  524MOL0     H70730   8.277   4.460   9.468  0.6773  1.0718 -0.0973
  524MOL0     H70731   8.354   4.330   9.559 -0.3363 -0.3495  0.2570
  524MOL0     H70732   8.493   4.536   9.441 -1.5415  0.3969 -0.3435
  524MOL0     H70733   8.504   4.403   9.321  0.2781  0.3283  0.4388
  524MOL0     H70734   8.568   4.249   9.516 -2.2912 -0.3300  1.4512
  524MOL0     H70735   8.577   4.386   9.619  1.7550  1.2441 -0.1482
  524MOL0     H70736   8.754   4.348   9.365  3.1095 -0.6165  0.4438
  524MOL0     H70737   8.798   4.328   9.537  1.6583 -0.2491 -1.0274
  524MOL0     H70738   8.774   4.746   9.507 -0.0947 -0.3063  3.1360
  524MOL0     H70739   8.188   4.210   9.144  0.9210 -2.1887  0.1123
  524MOL0     H70740   7.970   4.128   9.140 -0.6216  1.7271 -0.3116
  525MOL0     O70741   4.978   6.878   2.617  0.3634 -0.4389  0.1863
  525MOL0     C70742   5.031   6.890   2.505 -0.0301 -1.0333 -1.1538
  525MOL0     O70743   4.970   6.863   2.386  0.1767 -0.5245  0.4816
  525MOL0     C70744   4.840   6.820   2.396 -0.3704 -1.3723 -0.2094
  525MOL0     C70745   4.807   6.689   2.436  0.7236  0.6282  0.3412
  525MOL0     C70746   4.672   6.638   2.421  0.2793 -0.5233 -0.8203
  525MOL0     C70747   4.564   6.724   2.383  0.0747 -0.2789 -0.0517
  525MOL0     O70748   4.431   6.691   2.367 -0.5361 -0.2063  0.0396
  525MOL0     C70749   4.389   6.587   2.460  0.3963  0.5254 -0.2113
  525MOL0     C70750   4.245   6.546   2.415  0.6453  0.7193  0.2264
  525MOL0     C70751   4.182   6.462   2.521  0.4379  0.7576 -0.0742
  525MOL0     C70752   4.056   6.387   2.481  0.1062 -0.1192  0.5917
  525MOL0     C70753   3.935   6.463   2.445 -0.6688  0.3104  0.3539
  525MOL0     C70754   3.890   6.559   2.547 -0.3485  0.3170  0.3282
  525MOL0     C70755   3.881   6.516   2.689 -0.0977  0.5343 -0.9984
  525MOL0     C70756   3.785   6.401   2.701 -0.0052  1.1089 -0.1263
  525MOL0     N70757   3.645   6.432   2.674  1.2394 -0.3317 -0.4015
  525MOL0     C70758   3.567   6.373   2.579 -0.2743 -0.3107 -0.1642
  525MOL0     C70759   3.444   6.427   2.595 -0.4154  0.7184 -0.1081
  525MOL0     C70760   3.317   6.367   2.534 -0.4454 -0.3613 -0.5568
  525MOL0     C70761   3.187   6.425   2.584 -0.3320 -1.2714 -0.2462
  525MOL0     C70762   3.068   6.390   2.488 -0.1139 -0.3345 -0.6164
  525MOL0     C70763   2.927   6.405   2.555  0.5061 -0.0430  0.1192
  525MOL0     O70764   2.819   6.331   2.491 -0.0646 -0.2793  0.3934
  525MOL0     C70765   2.712   6.329   2.572  0.2985  0.0267 -0.1778
  525MOL0     C70766   2.602   6.405   2.548 -0.0649 -0.5573 -0.2487
  525MOL0     C70767   2.482   6.406   2.623 -0.3550 -0.7841 -0.1457
  525MOL0     C70768   2.380   6.503   2.573  0.4905 -0.3867  0.3168
  525MOL0     C70769   2.473   6.325   2.747  0.6703 -0.6462  1.2026
  525MOL0     C70770   2.351   6.330   2.833  0.5214  0.6830 -0.4889
  525MOL0     O70771   2.318   6.213   2.897 -0.9363  0.3634  0.2469
  525MOL0     C70772   2.190   6.192   2.966  0.8180  0.7829 -0.5277
  525MOL0     C70773   2.106   6.289   3.024 -0.1678 -0.8011 -1.1460
  525MOL0     C70774   1.989   6.265   3.101  0.4203  0.0291  0.0199
  525MOL0     C70775   1.935   6.136   3.096 -0.2776  0.1745 -0.1440
  525MOL0     O70776   1.826   6.089   3.161 -0.1033  0.0460  0.7128
  525MOL0     C70777   1.707   6.150   3.136  0.4960  0.4956  0.4788
  525MOL0     C70778   1.669   6.133   2.993  0.2247  1.4116 -0.1933
  525MOL0     C70779   1.635   5.992   2.949 -0.2111  0.3086  0.0593
  525MOL0     C70780   1.543   6.003   2.823  0.7695  0.3628  0.1447
  525MOL0     C70781   1.525   5.859   2.758  0.0039  0.3733  0.6863
  525MOL0     C70782   1.452   5.870   2.621  0.2525 -0.8741  0.6021
  525MOL0     C70783   1.472   5.741   2.540 -0.1199  0.5736  0.6308
  525MOL0     C70784   1.368   5.635   2.569 -0.5930 -0.2193 -0.2016
  525MOL0    Cl70785   1.207   5.690   2.513 -0.2165  0.2754 -0.4088
  525MOL0     C70786   2.018   6.037   3.046 -0.3061  0.2566  0.6522
  525MOL0     C70787   2.144   6.060   2.984 -0.2479  0.0747  0.3495
  525MOL0     O70788   2.295   6.434   2.839  0.3254 -0.3798  0.3366
  525MOL0     C70789   2.590   6.242   2.768  0.8031  0.4672  0.6704
  525MOL0     C70790   2.705   6.241   2.678  0.9762 -0.4931 -0.5298
  525MOL0     N70791   3.442   6.500   2.708  0.0722 -0.2248  0.2349
  525MOL0     N70792   3.560   6.514   2.751  0.4389  0.3810 -0.3559
  525MOL0     C70793   4.606   6.850   2.352 -0.1377 -0.1758  0.3572
  525MOL0     C70794   4.735   6.897   2.351 -0.1672 -0.3162  0.0376
  525MOL0     C70795   5.176   6.931   2.505  1.0008 -0.4405 -0.3840
  525MOL0     C70796   5.228   6.982   2.389  0.3770 -0.4165 -0.0035
  525MOL0     C70797   5.366   7.029   2.368  0.8948  0.1491 -0.3009
  525MOL0     C70798   5.450   7.008   2.474  0.4977 -0.1524 -0.2433
  525MOL0     O70799   5.585   7.035   2.483  0.0063 -0.5771 -0.1499
  525MOL0     C70800   5.671   7.085   2.378 -0.1154 -0.1839  0.0451
  525MOL0     C70801   5.770   7.180   2.436  0.2666  0.2648  0.1689
  525MOL0     C70802   5.895   7.096   2.479  0.4998  0.9067 -0.7624
  525MOL0     C70803   5.971   7.153   2.593  0.2796 -0.2779  0.9205
  525MOL0     C70804   6.098   7.090   2.625  0.4189  0.5443  0.1618
  525MOL0     C70805   6.213   7.046   2.638  0.9333 -0.2276 -0.2039
  525MOL0     C70806   5.401   6.952   2.597  0.6226  0.2719  0.7323
  525MOL0     C70807   5.264   6.923   2.614 -0.3676  0.1341 -0.0096
  525MOL0     H70808   4.872   6.607   2.466 -0.8788 -0.2946  1.4727
  525MOL0     H70809   4.642   6.535   2.442  0.0592 -0.1408  0.8350
  525MOL0     H70810   4.443   6.492   2.463 -1.2261 -0.5289  4.9712
  525MOL0     H70811   4.380   6.639   2.555  0.1577  0.8664 -0.4166
  525MOL0     H70812   4.176   6.631   2.405  0.0266  0.1303 -0.5963
  525MOL0     H70813   4.254   6.500   2.316 -0.2160 -0.6041  0.7368
  525MOL0     H70814   4.256   6.390   2.557 -1.0910  0.3234  2.4596
  525MOL0     H70815   4.160   6.538   2.597 -0.9302 -0.0240  0.3473
  525MOL0     H70816   4.081   6.323   2.395  0.9959  2.5735 -1.2817
  525MOL0     H70817   4.024   6.330   2.569 -0.1387  0.4873  0.8999
  525MOL0     H70818   3.948   6.519   2.352 -0.8676  2.9991  1.8553
  525MOL0     H70819   3.853   6.393   2.427  0.3304 -0.7433 -0.2727
  525MOL0     H70820   3.946   6.652   2.539  2.4448 -1.1539  1.2400
  525MOL0     H70821   3.786   6.582   2.525  0.0862  1.0038 -1.1205
  525MOL0     H70822   3.981   6.486   2.723 -0.1161 -1.3394 -2.4276
  525MOL0     H70823   3.836   6.583   2.762 -1.9098 -3.0473  1.4891
  525MOL0     H70824   3.807   6.356   2.798 -1.8534 -3.6706 -1.5862
  525MOL0     H70825   3.813   6.329   2.623  0.6553  3.7847 -2.5089
  525MOL0     H70826   3.593   6.295   2.508  2.2514  1.6929 -1.6322
  525MOL0     H70827   3.323   6.391   2.427  1.3199 -2.5730 -1.0214
  525MOL0     H70828   3.300   6.260   2.551 -0.8871  0.0006  1.6056
  525MOL0     H70829   3.184   6.535   2.589 -1.8654 -0.9183 -4.3549
  525MOL0     H70830   3.167   6.383   2.683 -0.2735 -0.5296  0.0931
  525MOL0     H70831   3.075   6.284   2.461  0.9515 -0.4590  0.1141
  525MOL0     H70832   3.064   6.456   2.400 -0.8320  2.1611  1.1750
  525MOL0     H70833   2.903   6.511   2.556 -0.8424 -0.3256  0.1061
  525MOL0     H70834   2.939   6.368   2.657 -2.0475  0.5831  0.7250
  525MOL0     H70835   2.607   6.469   2.461 -0.3610  1.0301  0.8722
  525MOL0     H70836   2.399   6.515   2.466  0.4513 -3.2641 -0.0966
  525MOL0     H70837   2.284   6.451   2.578  0.4729 -0.5038 -1.0737
  525MOL0     H70838   2.382   6.591   2.639  0.1979 -0.9921  1.1473
  525MOL0     H70839   2.141   6.391   3.015  0.6122 -1.0100 -0.6128
  525MOL0     H70840   1.936   6.340   3.158 -2.5387 -1.4117 -0.6441
  525MOL0     H70841   1.632   6.113   3.206  3.7300 -1.0989  3.3766
  525MOL0     H70842   1.717   6.255   3.163 -1.7349  0.6829  0.7847
  525MOL0     H70843   1.588   6.205   2.980 -1.0899  0.4289  2.0369
  525MOL0     H70844   1.744   6.173   2.924 -1.2004  1.0862 -1.9864
  525MOL0     H70845   1.593   5.933   3.031 -0.2714 -0.2909 -0.3918
  525MOL0     H70846   1.727   5.938   2.922 -0.1120 -0.1057  1.1667
  525MOL0     H70847   1.447   6.050   2.847  1.1745  0.5604  1.4822
  525MOL0     H70848   1.588   6.070   2.749  0.4914  0.0203 -0.3369
  525MOL0     H70849   1.458   5.809   2.828 -0.6578 -0.2152 -0.3303
  525MOL0     H70850   1.624   5.818   2.738 -0.0104  0.2811  0.8069
  525MOL0     H70851   1.348   5.902   2.632  0.6911  0.8088  0.2493
  525MOL0     H70852   1.513   5.939   2.562  2.2561 -3.4217 -0.4827
  525MOL0     H70853   1.572   5.698   2.552 -0.3374 -0.4021 -0.7942
  525MOL0     H70854   1.450   5.759   2.434  1.8571  0.8022  0.2246
  525MOL0     H70855   1.376   5.607   2.675  4.0269 -1.3627 -0.6085
  525MOL0     H70856   1.404   5.542   2.523  1.5544  0.2357  0.4201
  525MOL0     H70857   1.968   5.940   3.044 -0.5685  0.3253  2.4462
  525MOL0     H70858   2.198   5.977   2.940  0.9792  0.9268  0.1672
  525MOL0     H70859   2.589   6.167   2.847  1.7993 -0.9205 -0.5843
  525MOL0     H70860   2.793   6.185   2.707  1.4016  1.0985  1.4955
  525MOL0     H70861   4.526   6.912   2.314 -1.0303 -0.3941  1.7961
  525MOL0     H70862   4.749   6.998   2.313  0.5415 -1.1032 -1.9181
  525MOL0     H70863   5.158   6.999   2.308 -1.7161 -2.1623  1.3372
  525MOL0     H70864   5.398   7.080   2.278 -0.6464  1.1761 -0.3177
  525MOL0     H70865   5.705   7.002   2.316 -1.3565 -0.1877 -0.6620
  525MOL0     H70866   5.602   7.135   2.309  1.0533 -2.7313 -3.2150
  525MOL0     H70867   5.720   7.238   2.514 -1.9050 -0.4226 -0.6462
  525MOL0     H70868   5.802   7.246   2.354 -2.8002 -1.0766 -2.3113
  525MOL0     H70869   5.966   7.082   2.396  0.6722  0.0423 -0.4841
  525MOL0     H70870   5.851   6.998   2.502  0.9467  0.7698 -0.4713
  525MOL0     H70871   5.913   7.155   2.686  0.2313  1.3149  0.8900
  525MOL0     H70872   6.005   7.252   2.562  3.4574 -1.7387 -0.7741
  525MOL0     H70873   6.316   7.021   2.645  1.0405  0.1579 -0.3755
  525MOL0     H70874   5.480   6.948   2.672  1.0714  1.1204  0.3265
  525MOL0     H70875   5.217   6.903   2.710  1.5118  2.3301  1.4989
  526MOL0     O70876   6.863   4.661   2.184  0.1350 -0.8834  0.1607
  526MOL0     C70877   6.843   4.639   2.069  0.0883 -0.7013  0.0428
  526MOL0     O70878   6.933   4.602   1.977 -0.0695 -0.2771 -0.1049
  526MOL0     C70879   7.060   4.562   2.019  1.4567  0.3073 -0.0943
  526MOL0     C70880   7.171   4.611   1.945  0.3684  0.9876  0.0464
  526MOL0     C70881   7.299   4.573   1.985 -0.4475 -0.2104 -0.4504
  526MOL0     C70882   7.324   4.483   2.085  0.0692  0.0433  0.1410
  526MOL0     O70883   7.451   4.441   2.116 -0.1991 -0.9853 -0.4669
  526MOL0     C70884   7.480   4.358   2.227  0.2589  0.2899 -0.2690
  526MOL0     C70885   7.638   4.324   2.247 -0.3955  0.2505  0.5139
  526MOL0     C70886   7.716   4.445   2.296  0.5562  0.3404  0.2058
  526MOL0     C70887   7.857   4.386   2.313 -0.4429 -0.0513  0.6103
  526MOL0     C70888   7.975   4.487   2.312  0.0098  0.2498  0.4047
  526MOL0     C70889   8.018   4.525   2.167  0.6739 -0.8656  0.2255
  526MOL0     C70890   8.130   4.627   2.165 -0.2903  0.8906 -0.7398
  526MOL0     C70891   8.259   4.571   2.232 -0.1965  0.3617  0.1968
  526MOL0     N70892   8.361   4.675   2.223 -0.0062 -0.3956 -0.1646
  526MOL0     C70893   8.377   4.771   2.315  0.3273  0.7667 -0.8300
  526MOL0     C70894   8.491   4.826   2.279 -0.2005 -0.4616 -0.4082
  526MOL0     C70895   8.555   4.941   2.359 -0.0702  0.3744  0.5280
  526MOL0     C70896   8.628   4.882   2.481  0.1410 -0.6720  0.5471
  526MOL0     C70897   8.774   4.846   2.440  0.2999  0.1395 -0.3346
  526MOL0     C70898   8.858   4.823   2.563  0.3655 -0.1263 -0.5844
  526MOL0     O70899   8.982   4.770   2.526 -0.0821 -0.0839 -0.2871
  526MOL0     C70900   9.094   4.796   2.605 -0.4070 -0.2344  0.0089
  526MOL0     C70901   9.104   4.733   2.731  0.8374 -0.4988 -0.1895
  526MOL0     C70902   9.209   4.742   2.818 -0.0191 -0.5351 -0.3250
  526MOL0     C70903   9.200   4.688   2.958  0.2023  0.9900 -0.3459
  526MOL0     C70904   9.325   4.813   2.776  0.1643  0.2839 -0.4845
  526MOL0     C70905   9.445   4.859   2.858  0.8757 -0.6823  0.2582
  526MOL0     O70906   9.529   4.936   2.787 -0.5375 -0.0015 -0.1371
  526MOL0     C70907   9.642   4.986   2.852 -0.0362 -0.2912 -0.5513
  526MOL0     C70908   9.765   4.940   2.815 -0.2940  0.6835 -0.1087
  526MOL0     C70909   9.882   4.983   2.879  0.4808  0.2767  0.5613
  526MOL0     C70910   9.883   5.076   2.980  0.7113 -0.4571  0.7273
  526MOL0     O70911   9.990   5.123   3.042  0.2189  0.0253  0.4331
  526MOL0     C70912  10.124   5.089   2.994 -1.2317  0.2104 -0.0265
  526MOL0     C70913  10.219   5.194   3.070 -0.2156  0.3028  0.1121
  526MOL0     C70914  10.366   5.203   3.017  0.0818 -0.3751 -1.0248
  526MOL0     C70915  10.471   5.124   3.102  0.1721 -0.0706 -0.0142
  526MOL0     C70916  10.453   4.973   3.088  0.2613 -0.7247  0.0286
  526MOL0     C70917  10.576   4.895   3.154  0.5812  0.6873 -0.0061
  526MOL0     C70918  10.545   4.751   3.186 -1.0137 -0.7105  0.8035
  526MOL0     C70919  10.512   4.675   3.054 -0.3504 -0.2559  0.2478
  526MOL0    Cl70920  10.490   4.507   3.118  0.3616  0.1839  0.2544
  526MOL0     C70921   9.757   5.131   3.014 -0.6066  0.3577  0.0733
  526MOL0     C70922   9.639   5.083   2.957  0.2840  0.3002  0.0006
  526MOL0     O70923   9.448   4.836   2.976 -0.4802 -0.9050 -0.0196
  526MOL0     C70924   9.323   4.861   2.638  0.1931  0.2337  0.2761
  526MOL0     C70925   9.212   4.850   2.550 -0.2644 -0.2057  0.9275
  526MOL0     N70926   8.519   4.791   2.147 -0.3195  0.2235  0.3516
  526MOL0     N70927   8.435   4.706   2.112  0.5772  0.9317 -0.4018
  526MOL0     C70928   7.214   4.433   2.162  0.8220  0.4595  0.1233
  526MOL0     C70929   7.087   4.472   2.126  0.2718 -0.1511 -0.0322
  526MOL0     C70930   6.716   4.684   2.017  0.2387 -0.3973  0.4745
  526MOL0     C70931   6.643   4.791   2.077  0.2526  0.5778 -0.4865
  526MOL0     C70932   6.528   4.844   2.012 -0.5671  0.6830 -0.4065
  526MOL0     C70933   6.475   4.789   1.893  0.6431  0.6952 -0.2533
  526MOL0     O70934   6.359   4.825   1.835 -0.5057  0.2681  0.1791
  526MOL0     C70935   6.265   4.916   1.901 -0.2152  0.8816  0.0101
  526MOL0     C70936   6.140   4.921   1.811  0.6693 -0.1209 -0.2704
  526MOL0     C70937   6.024   4.992   1.874 -0.3385 -0.3914  0.4624
  526MOL0     C70938   5.900   5.007   1.779  0.2107 -0.0750 -0.8487
  526MOL0     C70939   5.781   5.051   1.857 -0.3668 -0.5568  0.7493
  526MOL0     C70940   5.688   5.073   1.937 -0.4201  0.0237  0.8868
  526MOL0     C70941   6.543   4.679   1.843 -0.0284  0.2752  0.4726
  526MOL0     C70942   6.663   4.636   1.895  0.9386  0.4139 -0.0541
  526MOL0     H70943   7.151   4.668   1.854 -3.6587 -2.7843 -1.8155
  526MOL0     H70944   7.379   4.608   1.922  1.8046 -1.9065  1.3112
  526MOL0     H70945   7.458   4.408   2.322  0.2546 -2.9173  1.5797
  526MOL0     H70946   7.427   4.262   2.222 -1.7101  1.3606 -0.5833
  526MOL0     H70947   7.638   4.245   2.323 -2.9208  1.2626  1.6800
  526MOL0     H70948   7.681   4.279   2.157 -0.1113  3.5979 -1.1600
  526MOL0     H70949   7.733   4.514   2.213  0.9272 -0.9193 -0.7998
  526MOL0     H70950   7.681   4.499   2.384 -3.1342 -2.9078  1.0184
  526MOL0     H70951   7.863   4.341   2.413  1.8474  2.3843  1.7087
  526MOL0     H70952   7.884   4.308   2.242  2.1557  1.2798 -0.0046
  526MOL0     H70953   7.939   4.577   2.363 -3.1047 -1.0791  0.7298
  526MOL0     H70954   8.053   4.430   2.364  0.1516 -0.4075 -0.5140
  526MOL0     H70955   8.032   4.432   2.110  2.2580 -0.6321  0.1676
  526MOL0     H70956   7.935   4.568   2.110  0.6209 -2.7914 -1.2788
  526MOL0     H70957   8.151   4.642   2.059 -0.3763 -0.2329 -0.9211
  526MOL0     H70958   8.106   4.721   2.216  2.0331 -0.6788  3.8727
  526MOL0     H70959   8.288   4.482   2.175 -2.8722  1.8418 -3.9712
  526MOL0     H70960   8.233   4.563   2.338 -0.3973  1.7168  0.2752
  526MOL0     H70961   8.329   4.789   2.411 -1.0922  2.7991 -1.8632
  526MOL0     H70962   8.612   5.008   2.294  1.3075 -0.0786  1.2399
  526MOL0     H70963   8.472   5.005   2.391  2.2869  3.7129  0.4718
  526MOL0     H70964   8.570   4.802   2.529 -0.7639  0.6056  1.6713
  526MOL0     H70965   8.624   4.962   2.555 -2.4112  1.1513 -1.3893
  526MOL0     H70966   8.811   4.932   2.384  1.7249 -0.1039  0.1927
  526MOL0     H70967   8.776   4.760   2.373  2.1746 -1.1997  1.3194
  526MOL0     H70968   8.802   4.765   2.637 -0.1758  0.2905 -0.6589
  526MOL0     H70969   8.875   4.919   2.612 -3.1513 -0.2812  1.2350
  526MOL0     H70970   9.015   4.672   2.742  0.7066 -0.3070 -0.1689
  526MOL0     H70971   9.295   4.643   2.989 -0.8153 -1.8484 -1.0596
  526MOL0     H70972   9.168   4.760   3.034 -3.6777 -1.4320  0.6295
  526MOL0     H70973   9.128   4.606   2.949  0.7289  0.4424  0.3750
  526MOL0     H70974   9.770   4.877   2.727  2.4723  0.3274  0.2142
  526MOL0     H70975   9.973   4.935   2.845 -0.2793 -0.3458 -0.6900
  526MOL0     H70976  10.155   4.986   3.011 -1.9107  0.0255  0.1183
  526MOL0     H70977  10.138   5.109   2.888 -0.2856 -0.1072  0.0324
  526MOL0     H70978  10.167   5.290   3.064  0.8758  0.7969 -3.1296
  526MOL0     H70979  10.231   5.166   3.175  0.6001 -2.5486 -0.6483
  526MOL0     H70980  10.385   5.309   3.039 -3.1951  0.1151  0.0271
  526MOL0     H70981  10.374   5.202   2.908  0.5693  3.2425 -1.1635
  526MOL0     H70982  10.569   5.155   3.064 -0.2746 -0.6956 -1.8019
  526MOL0     H70983  10.459   5.148   3.208 -3.0095  0.7424 -0.4566
  526MOL0     H70984  10.434   4.952   2.982 -3.2773  0.5412  0.2820
  526MOL0     H70985  10.361   4.947   3.140  0.7892  2.5163  2.9340
  526MOL0     H70986  10.666   4.898   3.093  0.0777  1.0325 -0.7577
  526MOL0     H70987  10.593   4.936   3.254 -3.0361  0.5258  0.8504
  526MOL0     H70988  10.459   4.736   3.251 -1.4081  1.3919  0.8462
  526MOL0     H70989  10.635   4.701   3.223  3.1243  3.1578 -2.6659
  526MOL0     H70990  10.588   4.697   2.978 -1.0075  0.7763 -0.1338
  526MOL0     H70991  10.419   4.708   3.007  0.6925  1.6739 -0.5663
  526MOL0     H70992   9.758   5.220   3.075 -2.1796 -0.5299  1.4751
  526MOL0     H70993   9.546   5.122   2.998  2.1625  0.1473  5.1987
  526MOL0     H70994   9.416   4.893   2.592  0.3131  0.2107  0.5021
  526MOL0     H70995   9.210   4.877   2.445  0.6402  0.2843  1.0272
  526MOL0     H70996   7.226   4.353   2.235  0.3332  1.7074  1.6218
  526MOL0     H70997   7.003   4.425   2.176  0.0115  0.9174  0.5580
  526MOL0     H70998   6.692   4.828   2.166  3.2131 -2.3476 -0.7121
  526MOL0     H70999   6.478   4.926   2.064 -0.7781  0.6804 -0.6014
  526MOL0     H71000   6.235   4.876   1.998 -1.3682  2.1398  0.2128
  526MOL0     H71001   6.310   5.016   1.907 -0.1318  0.7740  1.4719
  526MOL0     H71002   6.111   4.818   1.792  1.3512 -0.7612  1.8258
  526MOL0     H71003   6.166   4.972   1.718 -0.9284  1.5850  0.1541
  526MOL0     H71004   6.062   5.094   1.889  1.8790 -0.8039 -1.7940
  526MOL0     H71005   5.990   4.961   1.973 -2.2228  2.1454  0.7391
  526MOL0     H71006   5.886   4.909   1.731  2.0783 -1.4950  1.2664
  526MOL0     H71007   5.921   5.084   1.705 -1.6565  0.2396 -1.1027
  526MOL0     H71008   5.598   5.074   1.995  0.3173 -0.1627  2.0560
  526MOL0     H71009   6.507   4.630   1.753 -0.2287 -0.2165  0.8145
  526MOL0     H71010   6.722   4.568   1.835  0.2817 -0.8139  0.6488
  527MOL0     O71011   0.423  11.086   7.288  0.1653  0.7404 -0.2284
  527MOL0     C71012   0.415  10.961   7.281 -1.3370 -0.5367  0.5102
  527MOL0     O71013   0.302  10.883   7.262 -0.1726 -0.4431  0.0247
  527MOL0     C71014   0.179  10.945   7.245  0.3704  0.0977  0.4975
  527MOL0     C71015   0.128  11.038   7.341  0.0091  0.1118  0.6820
  527MOL0     C71016  -0.001  11.092   7.312  0.1928 -0.2899 -0.5872
  527MOL0     C71017  -0.083  11.048   7.212  0.4196  0.4376  0.1871
  527MOL0     O71018  -0.217  11.076   7.209 -0.5660 -0.2010 -0.2393
  527MOL0     C71019  -0.268  11.102   7.079  0.6106 -0.4011 -1.0506
  527MOL0     C71020  -0.344  11.244   7.066  0.1400  0.1676 -0.7594
  527MOL0     C71021  -0.237  11.351   7.066 -0.8190  0.0657 -0.5955
  527MOL0     C71022  -0.287  11.493   7.038  0.1057 -0.2557  0.1292
  527MOL0     C71023  -0.364  11.559   7.144  0.5881  0.7149 -0.6461
  527MOL0     C71024  -0.516  11.523   7.163  0.6291  0.2950  0.1577
  527MOL0     C71025  -0.609  11.595   7.061 -0.0212 -0.0878  0.5424
  527MOL0     C71026  -0.755  11.618   7.107 -0.0841 -0.0797 -0.7008
  527MOL0     N71027  -0.846  11.498   7.110  0.4710  1.0080  0.1668
  527MOL0     C71028  -0.944  11.480   7.199  0.0892 -0.3997 -1.2033
  527MOL0     C71029  -0.992  11.357   7.173  0.6930  0.0927  0.6741
  527MOL0     C71030  -1.116  11.313   7.249 -0.2173  0.1386  0.0006
  527MOL0     C71031  -1.147  11.165   7.233  0.1916  0.1393 -0.0861
  527MOL0     C71032  -1.280  11.125   7.306 -0.3638 -0.0749 -0.2478
  527MOL0     C71033  -1.296  10.974   7.292 -0.1656 -0.0119 -0.9471
  527MOL0     O71034  -1.407  10.926   7.366  1.1159 -0.1424 -0.5893
  527MOL0     C71035  -1.535  10.948   7.316  1.0457 -1.2261 -0.2494
  527MOL0     C71036  -1.640  10.894   7.388  0.6975  0.5081 -0.3625
  527MOL0     C71037  -1.764  10.890   7.333 -0.1113  0.7270  0.3444
  527MOL0     C71038  -1.862  10.831   7.432 -0.5024 -0.4738  0.3013
  527MOL0     C71039  -1.790  10.948   7.199  0.4490  0.1420 -0.3185
  527MOL0     C71040  -1.924  10.960   7.137  0.0708  0.9475 -1.5143
  527MOL0     O71041  -2.027  10.947   7.215  0.4125 -0.1641 -0.3781
  527MOL0     C71042  -2.155  10.980   7.178  0.2314 -0.4772 -0.2889
  527MOL0     C71043  -2.213  11.019   7.054 -0.8548 -0.1521 -0.1670
  527MOL0     C71044  -2.349  11.043   7.046  1.1933  0.5140 -0.5502
  527MOL0     C71045  -2.435  11.042   7.157 -0.9893 -0.7661 -0.3227
  527MOL0     O71046  -2.560  11.089   7.141  0.4122 -0.4251 -0.2692
  527MOL0     C71047  -2.672  11.063   7.232 -1.7678 -0.4467  0.4148
  527MOL0     C71048  -2.777  11.172   7.206  0.6165  0.6835  0.2207
  527MOL0     C71049  -2.906  11.136   7.271 -0.0084  0.1404  0.1225
  527MOL0     C71050  -2.995  11.263   7.284  0.6063  0.0217  0.5424
  527MOL0     C71051  -3.148  11.226   7.316  0.3022  0.8573  1.2201
  527MOL0     C71052  -3.238  11.352   7.301 -0.2149  0.1086  0.3422
  527MOL0     C71053  -3.367  11.348   7.386 -0.0898 -0.7953  0.5695
  527MOL0     C71054  -3.445  11.477   7.382  0.3054  0.8142 -0.3111
  527MOL0    Cl71055  -3.573  11.470   7.246 -0.0647  0.2470  0.1197
  527MOL0     C71056  -2.371  11.005   7.279 -0.4433  0.6251  0.3441
  527MOL0     C71057  -2.237  10.969   7.287  0.3549  0.6655 -0.1638
  527MOL0     O71058  -1.924  10.966   7.018  0.2637 -1.2799  0.0579
  527MOL0     C71059  -1.688  11.004   7.133 -0.1815  0.2922 -0.3417
  527MOL0     C71060  -1.560  11.001   7.184 -0.5377 -0.2961 -0.1426
  527MOL0     N71061  -0.936  11.307   7.057 -0.2644 -0.2748 -0.2029
  527MOL0     N71062  -0.839  11.387   7.030 -0.2276 -0.1531  0.1934
  527MOL0     C71063  -0.025  10.946   7.131  0.0402  0.3355  0.8352
  527MOL0     C71064   0.102  10.892   7.145 -0.0096 -0.3717  0.8568
  527MOL0     C71065   0.540  10.884   7.302 -0.1154  0.1409  0.3213
  527MOL0     C71066   0.665  10.941   7.320 -0.9636 -0.6404 -0.3554
  527MOL0     C71067   0.785  10.862   7.342  0.4661  0.0886 -0.1270
  527MOL0     C71068   0.775  10.719   7.350 -0.0390 -0.1406 -0.3247
  527MOL0     O71069   0.893  10.648   7.372  0.3167 -0.1812  0.5740
  527MOL0     C71070   0.885  10.503   7.365 -0.0536 -0.6138 -0.0625
  527MOL0     C71071   1.027  10.448   7.315 -1.2403 -0.4370  0.4977
  527MOL0     C71072   1.146  10.461   7.420 -0.1472  0.5306 -0.7690
  527MOL0     C71073   1.273  10.374   7.367  0.1744 -0.5440  0.1076
  527MOL0     C71074   1.370  10.378   7.477 -0.1877  0.5173  0.2621
  527MOL0     C71075   1.435  10.397   7.575 -0.4113 -1.0812  0.6371
  527MOL0     C71076   0.647  10.665   7.335 -0.3444  0.5607 -0.1795
  527MOL0     C71077   0.536  10.740   7.301 -0.7360  0.2516 -0.4935
  527MOL0     H71078   0.183  11.076   7.426 -0.5941 -0.9366  1.5605
  527MOL0     H71079  -0.056  11.160   7.377  0.0704 -0.7537 -0.1987
  527MOL0     H71080  -0.194  11.102   6.999  0.5971  0.4850 -1.0737
  527MOL0     H71081  -0.347  11.030   7.056 -0.8364  0.7143  0.2149
  527MOL0     H71082  -0.404  11.243   6.975  0.2159  0.1610 -0.8096
  527MOL0     H71083  -0.409  11.255   7.153 -0.3524  0.0608 -1.1072
  527MOL0     H71084  -0.190  11.345   7.165 -1.8487 -4.4342 -0.1752
  527MOL0     H71085  -0.162  11.320   6.992  1.6918 -1.4477  2.3268
  527MOL0     H71086  -0.207  11.566   7.022 -2.1308  3.1258  2.9460
  527MOL0     H71087  -0.344  11.475   6.947  2.0421 -1.4844 -0.9054
  527MOL0     H71088  -0.326  11.533   7.243 -0.6585  1.5401  0.0678
  527MOL0     H71089  -0.357  11.667   7.127 -0.0943  0.2767 -4.6776
  527MOL0     H71090  -0.533  11.415   7.161  1.6971  0.1121  0.0253
  527MOL0     H71091  -0.547  11.566   7.258  1.2537 -0.2536  0.6211
  527MOL0     H71092  -0.564  11.691   7.035  1.8734 -0.7552  1.2468
  527MOL0     H71093  -0.619  11.529   6.973 -1.6044 -1.8096  1.9172
  527MOL0     H71094  -0.798  11.688   7.035 -0.7729  0.1919 -0.0364
  527MOL0     H71095  -0.765  11.663   7.206  0.1628  1.3055 -1.2810
  527MOL0     H71096  -0.986  11.553   7.268  0.3670  1.7971 -3.2320
  527MOL0     H71097  -1.102  11.334   7.356  0.7480 -4.1929  0.9348
  527MOL0     H71098  -1.201  11.366   7.205  0.6087 -0.5032 -2.5266
  527MOL0     H71099  -1.062  11.112   7.279  1.0688  2.7470  1.5596
  527MOL0     H71100  -1.136  11.139   7.128  4.7485 -1.9101  0.6313
  527MOL0     H71101  -1.365  11.173   7.257 -0.1781 -0.0022 -0.5007
  527MOL0     H71102  -1.267  11.151   7.412  0.0114 -2.6498  0.4234
  527MOL0     H71103  -1.212  10.918   7.333 -0.7712 -2.1994 -2.5214
  527MOL0     H71104  -1.302  10.961   7.184  2.6944 -3.5221 -0.8551
  527MOL0     H71105  -1.622  10.835   7.478  0.1580 -0.3316 -0.8010
  527MOL0     H71106  -1.930  10.904   7.477 -0.1806 -1.3648  2.3592
  527MOL0     H71107  -1.913  10.758   7.369 -1.0505  1.8454 -2.0958
  527MOL0     H71108  -1.827  10.784   7.525  1.6385  2.4748  1.1281
  527MOL0     H71109  -2.162  11.025   6.958  0.9791 -0.3629  0.7376
  527MOL0     H71110  -2.395  11.060   6.949 -1.4173  0.3538  0.5777
  527MOL0     H71111  -2.719  10.966   7.217 -0.4201 -1.0223 -0.2880
  527MOL0     H71112  -2.629  11.059   7.332  1.5604 -2.5373 -0.9376
  527MOL0     H71113  -2.730  11.267   7.234  1.5861  0.4880 -0.6519
  527MOL0     H71114  -2.793  11.190   7.099  1.6848 -0.0166 -0.0760
  527MOL0     H71115  -2.896  11.085   7.367 -1.8434 -0.4272  0.0532
  527MOL0     H71116  -2.948  11.067   7.196 -0.1472  1.5786 -1.1771
  527MOL0     H71117  -2.953  11.322   7.366 -0.7981 -0.5257  1.6989
  527MOL0     H71118  -2.997  11.329   7.197  0.2165  0.4754  0.8879
  527MOL0     H71119  -3.160  11.185   7.417 -0.5107  2.1138  1.6644
  527MOL0     H71120  -3.177  11.152   7.241 -1.2015 -0.6417  3.1536
  527MOL0     H71121  -3.182  11.440   7.334  1.5156 -0.8017 -0.0617
  527MOL0     H71122  -3.266  11.359   7.196 -1.0274 -0.2250  0.5288
  527MOL0     H71123  -3.337  11.338   7.490  1.2962 -2.4071  0.0450
  527MOL0     H71124  -3.424  11.257   7.364 -0.0666 -0.6983  0.0781
  527MOL0     H71125  -3.382  11.563   7.357  1.8158 -1.1133 -3.7630
  527MOL0     H71126  -3.495  11.493   7.478 -1.3151 -1.9549 -0.5914
  527MOL0     H71127  -2.430  11.002   7.370 -1.3648 -2.3065 -0.2498
  527MOL0     H71128  -2.204  10.948   7.388 -0.9351 -1.5655 -0.1311
  527MOL0     H71129  -1.683  11.030   7.028  1.4566 -2.2264 -0.9618
  527MOL0     H71130  -1.479  11.047   7.129  1.9218 -2.0657  1.7537
  527MOL0     H71131  -0.096  10.903   7.061  0.1278 -0.3714  1.1659
  527MOL0     H71132   0.134  10.800   7.098 -1.6632 -1.8671  2.4802
  527MOL0     H71133   0.673  11.049   7.312 -2.1353 -0.5525 -0.4650
  527MOL0     H71134   0.883  10.897   7.372 -0.6987  1.8449  1.9276
  527MOL0     H71135   0.872  10.472   7.469  2.8960 -0.4098  0.4615
  527MOL0     H71136   0.816  10.471   7.287  1.7377 -0.1239 -1.9743
  527MOL0     H71137   1.050  10.508   7.226 -1.7660  0.9802  1.2875
  527MOL0     H71138   1.002  10.347   7.282 -1.1715  0.5455 -2.9029
  527MOL0     H71139   1.117  10.419   7.517 -2.5792 -1.6106 -2.2799
  527MOL0     H71140   1.162  10.566   7.444  0.7091 -0.2044  2.2335
  527MOL0     H71141   1.335  10.408   7.283  1.4716 -3.0264 -0.0416
  527MOL0     H71142   1.243  10.269   7.356  0.8703 -0.7093 -0.2965
  527MOL0     H71143   1.505  10.423   7.652 -1.4683  1.9027  0.7396
  527MOL0     H71144   0.630  10.558   7.337 -2.7153  0.8945  1.0423
  527MOL0     H71145   0.439  10.692   7.291 -0.7837  0.5455 -1.6452
  528MOL0     O71146   6.290   9.340   3.968 -0.5977  0.3405 -0.4074
  528MOL0     C71147   6.261   9.289   3.860  0.1442  0.8280  0.9269
  528MOL0     O71148   6.347   9.216   3.781  0.7810 -0.2200  0.0796
  528MOL0     C71149   6.473   9.195   3.831 -0.4961  0.0394 -0.4314
  528MOL0     C71150   6.582   9.262   3.772  0.7343  0.7478 -0.4307
  528MOL0     C71151   6.714   9.238   3.809 -0.2693 -0.0470 -0.6185
  528MOL0     C71152   6.745   9.154   3.918  0.0947  0.1654  0.8088
  528MOL0     O71153   6.878   9.148   3.941 -0.2491 -0.2450  0.2997
  528MOL0     C71154   6.915   9.033   4.022  0.2571 -0.3938  0.4701
  528MOL0     C71155   7.068   9.029   4.028  0.2187 -0.3722  0.5409
  528MOL0     C71156   7.132   8.921   4.111  0.3750 -0.2173 -0.3992
  528MOL0     C71157   7.159   8.962   4.257 -0.8207  0.4532 -0.3810
  528MOL0     C71158   7.253   8.869   4.327 -0.2437  0.2156 -0.3872
  528MOL0     C71159   7.256   8.923   4.477  0.0819 -0.5233 -0.3301
  528MOL0     C71160   7.330   8.856   4.582 -0.4033  0.1315 -0.0179
  528MOL0     C71161   7.357   8.938   4.716  0.9181  0.5917  0.0764
  528MOL0     N71162   7.242   8.997   4.778  0.3405  0.5025 -0.2093
  528MOL0     C71163   7.138   8.921   4.831  0.2971 -0.0664 -0.6442
  528MOL0     C71164   7.072   9.009   4.907 -0.0466  0.6077 -0.3449
  528MOL0     C71165   6.960   8.963   4.996 -0.6911  0.0532  0.1871
  528MOL0     C71166   6.832   8.989   4.916 -0.0667  0.5032  0.3723
  528MOL0     C71167   6.713   8.941   5.001  0.8046  0.1936 -0.2185
  528MOL0     C71168   6.580   8.979   4.926  0.1046  0.5223 -0.6573
  528MOL0     O71169   6.479   8.890   4.978  0.0694  0.4528  1.1912
  528MOL0     C71170   6.350   8.928   4.943 -0.4170  0.4510 -0.0065
  528MOL0     C71171   6.316   9.016   4.843  0.3875  0.4468  0.3225
  528MOL0     C71172   6.178   9.023   4.803 -0.1812  0.4874 -0.0314
  528MOL0     C71173   6.156   9.107   4.683  0.3718 -0.4544 -0.0870
  528MOL0     C71174   6.077   8.956   4.878 -0.2546  0.7927 -0.0766
  528MOL0     C71175   5.934   8.966   4.846 -0.2426  0.5672  0.0612
  528MOL0     O71176   5.888   9.081   4.794  0.5770  0.6380  0.2866
  528MOL0     C71177   5.749   9.100   4.785  0.3392 -0.0543  0.5558
  528MOL0     C71178   5.699   9.092   4.655  0.6794 -0.5400  0.3323
  528MOL0     C71179   5.564   9.115   4.622  0.9207 -0.4179  0.0941
  528MOL0     C71180   5.473   9.153   4.722 -0.3969  0.2258 -0.2671
  528MOL0     O71181   5.333   9.179   4.714  0.1033  0.1892 -0.5103
  528MOL0     C71182   5.268   9.198   4.588 -0.4278 -0.5920 -0.1330
  528MOL0     C71183   5.196   9.069   4.532 -0.3767 -0.5878  0.0576
  528MOL0     C71184   5.266   8.928   4.539 -0.4859 -0.7488 -0.2980
  528MOL0     C71185   5.161   8.819   4.552  0.3902 -1.1276 -0.4900
  528MOL0     C71186   5.238   8.688   4.533 -0.0062 -0.9032  0.1799
  528MOL0     C71187   5.165   8.577   4.615  0.2810  0.6645 -1.1784
  528MOL0     C71188   5.194   8.440   4.553 -0.6771  0.4826 -0.3100
  528MOL0     C71189   5.128   8.327   4.621 -0.3071  1.7350  0.2489
  528MOL0    Cl71190   4.951   8.314   4.594 -0.1186  0.5029 -0.0330
  528MOL0     C71191   5.521   9.165   4.851 -0.6859  0.2461 -0.2730
  528MOL0     C71192   5.661   9.140   4.886 -1.0315 -0.2511 -0.3247
  528MOL0     O71193   5.862   8.875   4.900  0.5639 -0.0343 -0.1030
  528MOL0     C71194   6.114   8.868   4.980 -0.5875  0.2889 -0.0374
  528MOL0     C71195   6.248   8.862   5.016 -0.7629 -0.4914  0.0793
  528MOL0     N71196   7.120   9.142   4.880  0.2423 -0.1061 -0.2656
  528MOL0     N71197   7.223   9.129   4.806 -0.9788 -0.6245  0.6759
  528MOL0     C71198   6.639   9.082   3.979  0.2572  0.5572  0.3844
  528MOL0     C71199   6.509   9.106   3.928  0.8736  0.4053 -0.4814
  528MOL0     C71200   6.112   9.298   3.831  0.6853  0.7852  0.8036
  528MOL0     C71201   6.068   9.276   3.697 -0.0407 -0.5755  0.6214
  528MOL0     C71202   5.931   9.274   3.674  0.2988 -0.5462 -0.2835
  528MOL0     C71203   5.841   9.314   3.772  1.0536  0.2573  0.5043
  528MOL0     O71204   5.714   9.334   3.714 -0.3038  0.5561  0.0048
  528MOL0     C71205   5.597   9.358   3.806 -0.9517  0.1090  0.0366
  528MOL0     C71206   5.461   9.329   3.745 -0.3203  0.4857 -0.6814
  528MOL0     C71207   5.415   9.442   3.648  0.7074  0.0483  0.0483
  528MOL0     C71208   5.277   9.396   3.588 -0.0090 -0.6319 -1.0045
  528MOL0     C71209   5.174   9.359   3.686 -1.1214  0.2905  0.6715
  528MOL0     C71210   5.092   9.323   3.765 -0.2655 -0.2784 -0.1575
  528MOL0     C71211   5.885   9.322   3.907 -0.2243 -1.1057  0.3177
  528MOL0     C71212   6.018   9.319   3.928 -0.0773  0.2708 -0.5140
  528MOL0     H71213   6.559   9.331   3.691  0.1365  2.1995  0.9338
  528MOL0     H71214   6.797   9.283   3.755  0.1407  0.2076  0.2099
  528MOL0     H71215   6.876   9.046   4.124  0.5504 -0.3009  0.5713
  528MOL0     H71216   6.878   8.934   3.995 -0.4861 -0.3355  1.2273
  528MOL0     H71217   7.108   9.023   3.926 -0.8721  1.5035 -0.0374
  528MOL0     H71218   7.108   9.122   4.068  0.1855 -1.1885  2.5928
  528MOL0     H71219   7.088   8.821   4.108 -2.1649  0.8213 -0.1025
  528MOL0     H71220   7.237   8.913   4.080  0.8223  2.2915  0.2352
  528MOL0     H71221   7.192   9.067   4.257  0.9708 -0.0788 -1.1632
  528MOL0     H71222   7.059   8.970   4.300 -0.8705 -1.8186  0.0192
  528MOL0     H71223   7.208   8.769   4.327 -0.0643  0.0946  1.9131
  528MOL0     H71224   7.350   8.868   4.276 -1.1175  1.0625 -2.1610
  528MOL0     H71225   7.284   9.028   4.470 -0.4510  0.0962  4.2469
  528MOL0     H71226   7.151   8.923   4.510  0.1170 -0.9817 -0.2097
  528MOL0     H71227   7.283   8.760   4.603 -0.3806 -0.2574 -1.6466
  528MOL0     H71228   7.430   8.836   4.542  0.2015  1.2961  0.8448
  528MOL0     H71229   7.425   9.015   4.677  2.7755  0.1481  2.2197
  528MOL0     H71230   7.403   8.875   4.793  1.7021  1.3014  0.2002
  528MOL0     H71231   7.139   8.813   4.843  0.7591 -0.1520 -1.3888
  528MOL0     H71232   6.981   8.864   5.037  1.4911  0.7791  0.9351
  528MOL0     H71233   6.950   9.034   5.080 -1.8803  2.6786 -2.0110
  528MOL0     H71234   6.839   8.929   4.824  2.0407  1.2994 -0.0484
  528MOL0     H71235   6.824   9.093   4.885 -1.1974 -0.3147 -2.4249
  528MOL0     H71236   6.710   8.986   5.101  0.8977  0.7668 -0.4705
  528MOL0     H71237   6.720   8.832   5.011 -0.3548  0.1707  0.5837
  528MOL0     H71238   6.593   8.971   4.818 -2.3835  0.8768 -1.0447
  528MOL0     H71239   6.564   9.086   4.942  3.0367  1.0615 -0.8445
  528MOL0     H71240   6.388   9.080   4.793  2.3966 -1.5202  0.4876
  528MOL0     H71241   6.115   9.203   4.715  0.8538 -0.0552 -0.6559
  528MOL0     H71242   6.244   9.142   4.628 -0.6304 -0.1611 -1.5612
  528MOL0     H71243   6.089   9.040   4.628 -0.5722 -2.5467  3.3025
  528MOL0     H71244   5.770   9.057   4.581 -2.9238 -1.7605 -2.8960
  528MOL0     H71245   5.527   9.106   4.520  0.3044 -2.2805  0.4338
  528MOL0     H71246   5.190   9.273   4.601  0.3701  0.4493 -1.1164
  528MOL0     H71247   5.339   9.237   4.514 -0.7620  0.6444  0.1709
  528MOL0     H71248   5.101   9.067   4.587 -2.1296  0.6416 -2.7130
  528MOL0     H71249   5.165   9.080   4.427 -0.5139  1.8927  0.3068
  528MOL0     H71250   5.334   8.917   4.623  1.7718  2.0808 -1.6025
  528MOL0     H71251   5.317   8.900   4.446  0.1913 -0.8210  0.0922
  528MOL0     H71252   5.117   8.825   4.652  2.4913 -3.6070  0.6988
  528MOL0     H71253   5.086   8.825   4.473 -1.4158 -1.2081  1.1555
  528MOL0     H71254   5.337   8.705   4.576  0.4940 -1.2456 -0.7950
  528MOL0     H71255   5.248   8.660   4.427  1.3398 -1.8952  0.5403
  528MOL0     H71256   5.201   8.572   4.718 -2.1411 -2.0388 -0.3094
  528MOL0     H71257   5.057   8.588   4.629  0.4374 -0.8974  2.1162
  528MOL0     H71258   5.302   8.420   4.554 -0.9393 -1.2149  1.7214
  528MOL0     H71259   5.161   8.444   4.449 -0.8931 -0.3201 -0.2731
  528MOL0     H71260   5.136   8.329   4.730  0.7594 -2.8435  0.4766
  528MOL0     H71261   5.174   8.234   4.587 -2.2059 -0.4482  3.1339
  528MOL0     H71262   5.459   9.202   4.931 -0.8537  2.8738 -1.5130
  528MOL0     H71263   5.695   9.153   4.988 -2.8128 -0.9260  0.3962
  528MOL0     H71264   6.044   8.806   5.035  0.7145 -1.3054 -0.1103
  528MOL0     H71265   6.286   8.794   5.091 -0.0684  0.8025  0.9345
  528MOL0     H71266   6.655   9.014   4.062 -3.2280  1.1589  1.7022
  528MOL0     H71267   6.429   9.052   3.977 -1.0623  1.5523 -2.2288
  528MOL0     H71268   6.148   9.257   3.626 -0.7426  0.8777 -0.6222
  528MOL0     H71269   5.893   9.257   3.574 -1.6273 -0.3881  0.3703
  528MOL0     H71270   5.602   9.288   3.890 -2.1499  0.2671  0.2588
  528MOL0     H71271   5.608   9.464   3.833 -0.0205 -0.2126  1.0000
  528MOL0     H71272   5.389   9.311   3.826 -0.3738  0.3431 -0.7596
  528MOL0     H71273   5.458   9.233   3.692 -3.4802 -0.3538  0.7395
  528MOL0     H71274   5.474   9.464   3.558 -1.8105  0.7590 -1.5236
  528MOL0     H71275   5.392   9.524   3.716 -4.0013 -1.7044  0.9325
  528MOL0     H71276   5.289   9.311   3.520 -1.3467 -2.4365  0.9082
  528MOL0     H71277   5.234   9.481   3.535 -3.0922 -0.4587  1.4568
  528MOL0     H71278   5.023   9.276   3.833 -0.3415 -1.7742 -1.2066
  528MOL0     H71279   5.817   9.339   3.989  0.3576 -1.6527  0.9204
  528MOL0     H71280   6.053   9.328   4.030 -0.4763 -2.3486 -0.0852
  529MOL0     O71281   1.336   7.249   3.920  0.0436 -0.5730  0.1047
  529MOL0     C71282   1.265   7.147   3.919 -0.4861  0.1782 -0.4167
  529MOL0     O71283   1.134   7.143   3.951 -0.7303  0.3666 -0.4524
  529MOL0     C71284   1.068   7.260   3.974 -0.9436  0.4399  0.1332
  529MOL0     C71285   0.947   7.275   3.918 -0.1436  0.6317 -0.2638
  529MOL0     C71286   0.879   7.395   3.947 -0.2868 -1.2457 -0.0712
  529MOL0     C71287   0.924   7.490   4.033 -0.1387 -0.6882  0.2493
  529MOL0     O71288   0.857   7.601   4.045 -0.3784 -0.2782  0.1891
  529MOL0     C71289   0.918   7.714   4.110  0.6044 -0.7252  0.2282
  529MOL0     C71290   0.822   7.833   4.111 -0.3990  0.6226  0.3116
  529MOL0     C71291   0.688   7.794   4.171  0.7264  1.2290 -0.1994
  529MOL0     C71292   0.605   7.914   4.192  0.1199  0.3782 -0.3640
  529MOL0     C71293   0.457   7.888   4.210  0.0963 -0.1580  1.0622
  529MOL0     C71294   0.374   8.016   4.228  0.0638 -0.4006  0.2131
  529MOL0     C71295   0.226   7.994   4.225  0.0690 -0.7029 -0.2875
  529MOL0     C71296   0.180   7.921   4.343  0.3445 -0.4171 -0.5055
  529MOL0     N71297   0.028   7.913   4.346 -0.1539 -0.1743  0.5268
  529MOL0     C71298  -0.061   8.006   4.390  0.0973 -0.1009 -0.5380
  529MOL0     C71299  -0.178   7.940   4.361 -0.0331  0.1359  1.1411
  529MOL0     C71300  -0.306   8.014   4.387  0.4224  0.0781  0.2800
  529MOL0     C71301  -0.435   7.938   4.341  0.5082 -0.0627 -0.8465
  529MOL0     C71302  -0.435   7.920   4.186  0.0245 -0.5613 -0.4856
  529MOL0     C71303  -0.526   7.805   4.150  0.0775  1.1681  0.8564
  529MOL0     O71304  -0.550   7.800   4.008 -0.1697 -0.1965 -0.0039
  529MOL0     C71305  -0.676   7.847   3.974 -0.5270  0.1053 -0.2836
  529MOL0     C71306  -0.733   7.797   3.861  0.3229  0.0985  0.4348
  529MOL0     C71307  -0.861   7.843   3.816  0.5464  0.3038 -0.4693
  529MOL0     C71308  -0.913   7.777   3.693 -0.2792 -0.1225 -0.9620
  529MOL0     C71309  -0.929   7.943   3.886  0.3885 -0.5232 -0.7076
  529MOL0     C71310  -1.051   8.011   3.834  0.3385 -0.0836  0.6092
  529MOL0     O71311  -1.056   8.024   3.701 -0.1456 -0.1149  0.3793
  529MOL0     C71312  -1.177   8.069   3.648 -0.2232 -1.1481 -0.2614
  529MOL0     C71313  -1.222   8.207   3.657 -0.0488  1.4497  0.4178
  529MOL0     C71314  -1.357   8.235   3.617 -0.0832 -0.3187  0.4262
  529MOL0     C71315  -1.444   8.138   3.566  0.2625  0.5994  0.6172
  529MOL0     O71316  -1.569   8.171   3.520 -0.0574  0.3717  1.0866
  529MOL0     C71317  -1.636   8.289   3.565 -0.5676 -0.2143 -0.3613
  529MOL0     C71318  -1.781   8.284   3.538 -0.3165  0.2669  0.2642
  529MOL0     C71319  -1.838   8.413   3.579 -0.5923  0.2353 -0.1372
  529MOL0     C71320  -1.986   8.418   3.543 -0.6212 -0.4656 -0.3712
  529MOL0     C71321  -2.054   8.538   3.617 -0.1769  0.2168 -0.5195
  529MOL0     C71322  -2.101   8.500   3.759  1.2274 -0.6904  0.4018
  529MOL0     C71323  -2.150   8.622   3.833  0.2292  0.2694  0.2465
  529MOL0     C71324  -2.186   8.597   3.971 -0.7101  0.0713 -0.4597
  529MOL0    Cl71325  -2.211   8.753   4.044 -0.7974  0.0902 -0.2866
  529MOL0     C71326  -1.391   8.011   3.556  0.3370  1.3037 -0.1332
  529MOL0     C71327  -1.260   7.981   3.593  0.7038  0.8535  0.0334
  529MOL0     O71328  -1.131   8.054   3.913  0.7324  0.1262 -0.5225
  529MOL0     C71329  -0.874   7.990   4.003  0.6219  0.2458 -0.9658
  529MOL0     C71330  -0.748   7.948   4.043 -0.1393  0.1550 -0.3919
  529MOL0     N71331  -0.156   7.806   4.311  0.9183 -0.3888  0.3688
  529MOL0     N71332  -0.034   7.798   4.299  0.3614  0.3859  0.1893
  529MOL0     C71333   1.056   7.472   4.090 -0.3140  0.5222  0.5458
  529MOL0     C71334   1.118   7.355   4.065  0.0627 -0.6176  0.1556
  529MOL0     C71335   1.340   7.026   3.898 -0.1934 -0.2452 -0.7179
  529MOL0     C71336   1.286   6.905   3.948  1.0809 -0.3842 -0.9230
  529MOL0     C71337   1.357   6.785   3.933  0.4855  0.0965  0.1546
  529MOL0     C71338   1.487   6.791   3.870  0.3703 -0.6111 -0.0797
  529MOL0     O71339   1.554   6.676   3.839  0.4558 -0.2485  0.2005
  529MOL0     C71340   1.613   6.629   3.964 -0.3555  0.1180 -0.6979
  529MOL0     C71341   1.653   6.485   3.959 -0.0223  0.1538 -0.5357
  529MOL0     C71342   1.742   6.424   4.072  0.3191  0.1535 -0.3277
  529MOL0     C71343   1.824   6.310   4.010  0.2185 -0.1358 -0.4663
  529MOL0     C71344   1.930   6.369   3.930  1.0102  0.4596 -0.0485
  529MOL0     C71345   2.033   6.406   3.870 -0.0383  1.0358  0.4439
  529MOL0     C71346   1.535   6.910   3.820 -0.1086 -0.0188 -0.1823
  529MOL0     C71347   1.462   7.024   3.834  0.4104  0.3453 -0.6336
  529MOL0     H71348   0.907   7.194   3.858  0.8806 -1.8451  2.1951
  529MOL0     H71349   0.774   7.399   3.920 -1.0611  0.0017  2.7403
  529MOL0     H71350   0.935   7.705   4.217 -2.7095  1.9510  1.1483
  529MOL0     H71351   1.006   7.749   4.055 -0.1006  1.4451  0.3811
  529MOL0     H71352   0.865   7.911   4.174 -0.6003 -0.4296  1.7943
  529MOL0     H71353   0.813   7.870   4.008  0.9585 -0.1471 -0.1046
  529MOL0     H71354   0.637   7.726   4.101  5.2312 -2.8555 -0.0500
  529MOL0     H71355   0.704   7.738   4.263  0.7262 -0.4437 -1.1718
  529MOL0     H71356   0.641   7.966   4.282 -2.1665 -1.1706  1.5803
  529MOL0     H71357   0.613   7.983   4.107 -1.0578  0.3320 -0.5246
  529MOL0     H71358   0.426   7.829   4.123 -0.5985 -1.5314  2.1902
  529MOL0     H71359   0.450   7.822   4.298  1.1049 -0.8654  0.6364
  529MOL0     H71360   0.401   8.074   4.317 -0.5315 -2.5046  1.8440
  529MOL0     H71361   0.389   8.086   4.145  1.8103 -2.6309 -1.5054
  529MOL0     H71362   0.170   8.088   4.219  1.8329  0.4073  0.1616
  529MOL0     H71363   0.200   7.940   4.133 -0.3961 -2.6689  0.9194
  529MOL0     H71364   0.217   7.977   4.430 -1.5148 -2.3067  1.6358
  529MOL0     H71365   0.229   7.825   4.356  0.2280 -0.1823  2.3384
  529MOL0     H71366  -0.052   8.109   4.423 -3.5163 -0.0452  0.7349
  529MOL0     H71367  -0.314   8.034   4.494 -2.2513  1.7416 -0.1459
  529MOL0     H71368  -0.296   8.109   4.333  0.5548 -1.3090 -2.3083
  529MOL0     H71369  -0.527   7.991   4.367 -0.3428 -1.4763 -0.8883
  529MOL0     H71370  -0.445   7.841   4.390  0.1840  0.4747  0.1876
  529MOL0     H71371  -0.339   7.892   4.142  1.0316 -0.7932  1.6913
  529MOL0     H71372  -0.462   8.017   4.145 -0.0981 -1.2871 -2.1929
  529MOL0     H71373  -0.614   7.814   4.214 -1.2620  2.2187 -1.0006
  529MOL0     H71374  -0.475   7.711   4.173  3.9194  2.5725 -1.0525
  529MOL0     H71375  -0.695   7.703   3.822 -3.3086 -1.9778  1.3441
  529MOL0     H71376  -0.895   7.854   3.618  0.3209  1.4250  0.6833
  529MOL0     H71377  -0.852   7.688   3.673  2.1617  1.2250  0.0051
  529MOL0     H71378  -1.020   7.756   3.701  0.0581 -2.1229 -1.0585
  529MOL0     H71379  -1.155   8.282   3.698  0.3314 -0.0649  2.7745
  529MOL0     H71380  -1.382   8.340   3.607  2.2503  0.1915 -0.5404
  529MOL0     H71381  -1.624   8.321   3.668  1.2497 -1.4134 -0.1484
  529MOL0     H71382  -1.597   8.373   3.507 -3.0896  1.5787  0.3956
  529MOL0     H71383  -1.803   8.256   3.435 -2.6928 -0.9720  1.0159
  529MOL0     H71384  -1.823   8.201   3.596 -2.3328  0.8714 -0.2578
  529MOL0     H71385  -1.783   8.490   3.524  4.4450 -0.7894  2.7677
  529MOL0     H71386  -1.820   8.437   3.684  0.0591  0.5740 -0.3189
  529MOL0     H71387  -1.986   8.445   3.437  2.0590  2.1408  0.1637
  529MOL0     H71388  -2.041   8.324   3.556 -1.9215  0.2840 -0.2505
  529MOL0     H71389  -2.140   8.577   3.563 -3.1432 -1.2497  2.7439
  529MOL0     H71390  -1.981   8.620   3.621  1.8739 -1.5390  0.5409
  529MOL0     H71391  -2.187   8.433   3.753 -0.3467  1.3588 -2.8012
  529MOL0     H71392  -2.013   8.459   3.810  1.6435 -0.0707  0.1908
  529MOL0     H71393  -2.242   8.660   3.788  0.3000  0.1045 -0.0412
  529MOL0     H71394  -2.072   8.699   3.822  2.7402 -2.2021 -0.4264
  529MOL0     H71395  -2.103   8.547   4.021  1.0740 -0.1917 -3.4708
  529MOL0     H71396  -2.278   8.541   3.990 -0.6086  0.5156  1.5779
  529MOL0     H71397  -1.461   7.934   3.526  0.6261  0.9295  0.1375
  529MOL0     H71398  -1.223   7.879   3.596 -0.6863  0.1517 -3.0268
  529MOL0     H71399  -0.937   8.063   4.053 -0.3508  0.5025 -2.4924
  529MOL0     H71400  -0.714   7.980   4.141  3.3887 -2.0303 -0.7075
  529MOL0     H71401   1.089   7.541   4.167 -1.1300  1.4107  0.1242
  529MOL0     H71402   1.213   7.326   4.110  0.1976  0.8476  0.8561
  529MOL0     H71403   1.189   6.903   3.996  2.5869  2.2290  2.6401
  529MOL0     H71404   1.309   6.691   3.958 -2.7933  1.8901  1.1266
  529MOL0     H71405   1.708   6.684   3.970 -0.9203  1.1272 -0.6360
  529MOL0     H71406   1.546   6.648   4.048  0.0970  0.8968 -0.5015
  529MOL0     H71407   1.708   6.482   3.865  0.5968 -2.8005 -0.1818
  529MOL0     H71408   1.567   6.418   3.949  0.6021 -0.5857 -1.0849
  529MOL0     H71409   1.679   6.376   4.148  0.4732  2.2679  1.2239
  529MOL0     H71410   1.803   6.505   4.112 -1.2308  0.8161  0.8067
  529MOL0     H71411   1.756   6.246   3.952 -0.8867 -0.2456  0.8837
  529MOL0     H71412   1.891   6.257   4.078  2.5450  1.2616 -1.5625
  529MOL0     H71413   2.129   6.411   3.823 -0.3242 -1.0752 -0.4769
  529MOL0     H71414   1.626   6.895   3.763  0.7563 -1.9483  1.5666
  529MOL0     H71415   1.499   7.118   3.795 -0.6661  1.5705  1.0948
  530MOL0     O71416   2.856   8.130   2.760 -0.0089 -0.2252 -0.1005
  530MOL0     C71417   2.918   8.238   2.765 -0.5249  0.2857 -0.5320
  530MOL0     O71418   2.872   8.358   2.814  0.2843  0.4605 -0.1512
  530MOL0     C71419   2.732   8.378   2.819 -0.6803  0.1645  0.4439
  530MOL0     C71420   2.666   8.421   2.708  0.3507 -0.3473  0.6537
  530MOL0     C71421   2.527   8.411   2.706  0.2438  0.5314 -0.9159
  530MOL0     C71422   2.458   8.368   2.817  0.2595  0.2911  0.3745
  530MOL0     O71423   2.323   8.357   2.802 -0.0884 -0.1410  0.7368
  530MOL0     C71424   2.235   8.322   2.908  0.1807  0.0238  1.3062
  530MOL0     C71425   2.093   8.318   2.842 -0.4316 -0.5118 -0.5891
  530MOL0     C71426   2.042   8.464   2.813 -0.0692 -0.4042 -0.0591
  530MOL0     C71427   1.896   8.457   2.789  0.5129 -0.3637 -0.1791
  530MOL0     C71428   1.833   8.593   2.819 -0.9369  0.4268 -0.5160
  530MOL0     C71429   1.696   8.616   2.763  0.2676  0.0600 -1.0250
  530MOL0     C71430   1.586   8.561   2.860 -0.2662 -0.4728 -0.0954
  530MOL0     C71431   1.454   8.527   2.789  0.3924  0.5702  0.7485
  530MOL0     N71432   1.371   8.644   2.750 -0.5089 -0.0014  0.1119
  530MOL0     C71433   1.261   8.692   2.813  0.1099  0.3747 -0.0748
  530MOL0     C71434   1.211   8.785   2.726  0.4120  0.2562 -0.6736
  530MOL0     C71435   1.069   8.850   2.741  0.1597 -0.3710  0.3800
  530MOL0     C71436   1.068   8.966   2.840  0.5739 -0.3566 -0.2083
  530MOL0     C71437   0.930   9.027   2.850 -0.0610 -0.5605 -0.0348
  530MOL0     C71438   0.910   9.125   2.964 -0.4930 -0.0850  0.6830
  530MOL0     O71439   0.765   9.170   2.959  0.2549 -0.4068 -0.6038
  530MOL0     C71440   0.718   9.285   2.902 -0.4105 -0.1272 -0.1230
  530MOL0     C71441   0.797   9.391   2.849  0.1388  0.5091 -0.6939
  530MOL0     C71442   0.735   9.499   2.769  0.5204 -0.4808  0.2160
  530MOL0     C71443   0.820   9.625   2.726  0.2267  0.0169 -0.5212
  530MOL0     C71444   0.598   9.504   2.749 -0.3158 -0.5789 -0.2829
  530MOL0     C71445   0.529   9.619   2.681 -0.5577 -0.4778 -0.4885
  530MOL0     O71446   0.400   9.640   2.717 -0.0227 -0.3855 -0.4762
  530MOL0     C71447   0.334   9.755   2.682  0.3472  0.0743 -0.6243
  530MOL0     C71448   0.393   9.881   2.660 -0.1039 -0.0131  0.4532
  530MOL0     C71449   0.318   9.996   2.631 -0.7900  0.6494  1.2101
  530MOL0     C71450   0.177   9.985   2.623  0.1215 -0.0730 -0.3782
  530MOL0     O71451   0.100  10.088   2.572  0.7220  0.3977 -0.0351
  530MOL0     C71452   0.162  10.201   2.531  0.9867 -0.1884 -0.3807
  530MOL0     C71453   0.036  10.294   2.494 -0.2959 -0.7834 -0.1757
  530MOL0     C71454  -0.014  10.263   2.355  0.1466  0.0307  1.1619
  530MOL0     C71455  -0.121  10.353   2.316  0.1201 -1.2793  0.5542
  530MOL0     C71456  -0.188  10.311   2.178  0.6158 -0.0366 -0.2246
  530MOL0     C71457  -0.302  10.412   2.132 -0.2153 -0.2692  0.0017
  530MOL0     C71458  -0.377  10.375   2.000  0.6764  0.1393 -0.2283
  530MOL0     C71459  -0.495  10.479   1.977 -0.7004  0.2368 -0.0719
  530MOL0    Cl71460  -0.438  10.642   1.991  0.0353 -0.0069 -0.1963
  530MOL0     C71461   0.113   9.862   2.652 -0.2833 -0.8808  0.2809
  530MOL0     C71462   0.191   9.754   2.678  0.8252  0.2479 -0.3861
  530MOL0     O71463   0.585   9.676   2.589  0.0461  0.5670  0.2948
  530MOL0     C71464   0.522   9.402   2.805 -0.2634  0.6342 -0.5010
  530MOL0     C71465   0.582   9.297   2.883  0.3431 -0.5436 -0.1302
  530MOL0     N71466   1.299   8.805   2.619  0.4309  0.0791 -0.1684
  530MOL0     N71467   1.383   8.710   2.635 -0.7667 -0.8329 -0.2555
  530MOL0     C71468   2.519   8.349   2.936 -0.2735 -0.3539 -0.3942
  530MOL0     C71469   2.658   8.347   2.939  0.0130  0.4013  0.5138
  530MOL0     C71470   3.057   8.235   2.710 -0.0964 -0.0969 -0.2616
  530MOL0     C71471   3.127   8.115   2.674  0.7140 -0.3968  0.3224
  530MOL0     C71472   3.254   8.122   2.620 -0.2616  0.4130 -0.2719
  530MOL0     C71473   3.321   8.248   2.594 -0.7381 -0.5390 -0.0757
  530MOL0     O71474   3.451   8.264   2.553 -0.3970 -0.2527 -0.7207
  530MOL0     C71475   3.504   8.148   2.487 -0.4466  0.5877  1.1430
  530MOL0     C71476   3.639   8.193   2.435 -1.0204  0.0782  0.6691
  530MOL0     C71477   3.634   8.293   2.317 -0.3751 -0.3809 -0.6861
  530MOL0     C71478   3.770   8.331   2.256  0.4352 -0.6129 -0.2334
  530MOL0     C71479   3.803   8.220   2.166 -0.9032 -1.1537  0.8944
  530MOL0     C71480   3.835   8.114   2.112  0.4523 -0.9882 -0.1483
  530MOL0     C71481   3.251   8.370   2.631  0.6924  0.3345 -0.5432
  530MOL0     C71482   3.123   8.358   2.695  0.4895  0.0127  0.2827
  530MOL0     H71483   2.722   8.465   2.625 -0.6637 -1.5671 -0.7301
  530MOL0     H71484   2.466   8.438   2.620  0.2401  3.6605 -0.0324
  530MOL0     H71485   2.259   8.221   2.944  0.3320  0.3492  2.1580
  530MOL0     H71486   2.232   8.388   2.996  2.9391 -1.7586  2.8911
  530MOL0     H71487   2.109   8.263   2.749  1.9125  0.6645 -0.9583
  530MOL0     H71488   2.014   8.277   2.905 -1.9050  2.5716 -0.2162
  530MOL0     H71489   2.065   8.535   2.892 -1.2265 -0.2803  0.1829
  530MOL0     H71490   2.082   8.508   2.721 -1.3508  0.7644 -0.0813
  530MOL0     H71491   1.881   8.423   2.686  4.8696  1.2923 -1.5704
  530MOL0     H71492   1.839   8.385   2.849 -2.3779 -0.8735 -3.2307
  530MOL0     H71493   1.837   8.601   2.928 -0.3503  0.1144 -0.5049
  530MOL0     H71494   1.902   8.668   2.778 -1.2768  0.4206 -1.1088
  530MOL0     H71495   1.673   8.721   2.740  0.7450  0.1736 -1.0112
  530MOL0     H71496   1.684   8.563   2.668  0.3995 -0.7782 -0.5816
  530MOL0     H71497   1.634   8.483   2.920  1.3421  0.6153  0.0957
  530MOL0     H71498   1.563   8.642   2.930  0.2376  0.7526 -1.3155
  530MOL0     H71499   1.401   8.460   2.858  3.3830 -1.3790  1.3720
  530MOL0     H71500   1.479   8.460   2.706  2.7805 -0.3882  2.1482
  530MOL0     H71501   1.213   8.648   2.899  0.5108 -1.4065 -0.7185
  530MOL0     H71502   1.038   8.891   2.644 -0.5445  0.6761  1.0218
  530MOL0     H71503   1.001   8.771   2.775 -0.1418 -0.4808 -0.4567
  530MOL0     H71504   1.148   9.035   2.811  0.3434  0.4966  1.1047
  530MOL0     H71505   1.100   8.930   2.939 -2.3138 -0.4438  0.7946
  530MOL0     H71506   0.863   8.945   2.877 -3.8463  1.6646 -1.8348
  530MOL0     H71507   0.896   9.063   2.753  0.0941 -2.6079 -0.8800
  530MOL0     H71508   0.985   9.204   2.961 -1.2367  0.6003 -0.2817
  530MOL0     H71509   0.912   9.070   3.059 -1.0025 -2.8785 -0.7968
  530MOL0     H71510   0.905   9.387   2.859  0.2511  1.1435 -1.5439
  530MOL0     H71511   0.920   9.634   2.770  0.3569  1.3372 -1.0490
  530MOL0     H71512   0.837   9.612   2.618  2.9307 -0.5753 -0.0945
  530MOL0     H71513   0.771   9.716   2.760 -2.3813 -1.2851 -0.5585
  530MOL0     H71514   0.500   9.893   2.649 -0.0154  1.2742  2.3364
  530MOL0     H71515   0.383  10.077   2.598  0.1441 -1.4861 -2.9097
  530MOL0     H71516   0.216  10.243   2.616 -2.0223  0.1681  1.5225
  530MOL0     H71517   0.230  10.198   2.445  2.7582  1.3055  0.8968
  530MOL0     H71518  -0.037  10.276   2.574 -0.5635 -1.5114 -0.5732
  530MOL0     H71519   0.058  10.401   2.492  1.4064 -1.1281 -1.5411
  530MOL0     H71520  -0.060  10.164   2.349 -1.9375  0.9473  1.0412
  530MOL0     H71521   0.073  10.277   2.290 -1.3799 -0.4632 -1.0888
  530MOL0     H71522  -0.187  10.355   2.402  0.1316  1.8850  0.5990
  530MOL0     H71523  -0.088  10.455   2.298 -1.4116 -0.8137  0.2943
  530MOL0     H71524  -0.225  10.210   2.199  1.6764 -0.0590  1.7640
  530MOL0     H71525  -0.115  10.302   2.097 -0.5558 -2.4241 -1.1262
  530MOL0     H71526  -0.372  10.424   2.216 -0.0386  2.9058 -0.2067
  530MOL0     H71527  -0.250  10.505   2.111 -1.4761  0.4350 -0.0873
  530MOL0     H71528  -0.421  10.276   2.009  0.0141  0.3338 -1.1489
  530MOL0     H71529  -0.306  10.376   1.917 -1.8838 -0.0359 -2.6048
  530MOL0     H71530  -0.568  10.471   2.058 -0.9682  0.7084 -0.2625
  530MOL0     H71531  -0.536  10.457   1.878  1.6885 -5.1957 -0.1824
  530MOL0     H71532   0.005   9.851   2.651 -0.2619 -1.0738  0.0914
  530MOL0     H71533   0.141   9.658   2.684  0.1930  0.6735  2.5891
  530MOL0     H71534   0.416   9.398   2.782  0.1880  0.4903 -2.8158
  530MOL0     H71535   0.513   9.222   2.922 -0.2846  0.4708  0.7568
  530MOL0     H71536   2.459   8.319   3.022 -0.4237 -1.7358 -0.9451
  530MOL0     H71537   2.724   8.339   3.024 -0.9630  4.7459  1.9249
  530MOL0     H71538   3.085   8.016   2.680  2.1846 -1.0894 -0.2329
  530MOL0     H71539   3.300   8.031   2.582 -0.4024  0.0332  0.4376
  530MOL0     H71540   3.518   8.071   2.564 -0.8026  0.1105  0.7365
  530MOL0     H71541   3.437   8.096   2.418  1.8529 -2.6152  1.0832
  530MOL0     H71542   3.704   8.109   2.411  0.2691  0.4829  2.4844
  530MOL0     H71543   3.696   8.236   2.518 -0.3404 -0.9035  0.7139
  530MOL0     H71544   3.615   8.391   2.363  1.8737 -0.1719 -0.0852
  530MOL0     H71545   3.568   8.254   2.240 -0.8494 -0.9055 -0.0273
  530MOL0     H71546   3.844   8.343   2.336  3.1824 -0.2595 -2.6584
  530MOL0     H71547   3.753   8.425   2.203 -2.2219  0.0841  1.6057
  530MOL0     H71548   3.852   8.023   2.058  2.2336  0.4420 -2.1875
  530MOL0     H71549   3.301   8.465   2.617  1.3577 -0.1863 -1.8189
  530MOL0     H71550   3.088   8.457   2.723  3.9030  1.8139 -1.1997
  531MOL0     O71551   9.645  10.001   5.757  0.1096 -0.2734  0.4928
  531MOL0     C71552   9.676  10.043   5.865  0.0046  0.6538  0.6044
  531MOL0     O71553   9.592  10.057   5.967  0.1663 -0.1841  0.6406
  531MOL0     C71554   9.465  10.015   5.955 -0.1577 -0.2478 -0.4382
  531MOL0     C71555   9.362  10.104   5.970 -0.8481 -0.1640  0.8100
  531MOL0     C71556   9.229  10.064   5.979 -0.4552 -0.3013  0.3924
  531MOL0     C71557   9.186   9.932   5.969  0.0700 -0.2743 -1.1759
  531MOL0     O71558   9.051   9.895   5.977 -0.8704  0.0246 -0.0159
  531MOL0     C71559   9.009   9.816   6.083  0.6517 -0.6414  0.2318
  531MOL0     C71560   8.877   9.869   6.138  0.1036  0.3165 -0.0483
  531MOL0     C71561   8.881  10.022   6.188 -0.3478  0.0345 -1.0636
  531MOL0     C71562   8.775  10.047   6.295 -1.2122  0.5329 -0.1987
  531MOL0     C71563   8.634  10.028   6.238  0.1974  0.3011 -0.7136
  531MOL0     C71564   8.519  10.083   6.327  0.6326 -0.0824 -0.1608
  531MOL0     C71565   8.383  10.089   6.268  0.5208 -0.2721  0.7801
  531MOL0     C71566   8.279  10.131   6.376 -0.1819 -0.0895 -0.0279
  531MOL0     N71567   8.260  10.020   6.475 -0.1322  0.8948 -0.3642
  531MOL0     C71568   8.151   9.932   6.457  0.2466 -0.4221  0.0696
  531MOL0     C71569   8.146   9.864   6.575 -0.2280 -1.1086  0.6082
  531MOL0     C71570   8.040   9.766   6.623 -0.0420  0.4187 -0.3838
  531MOL0     C71571   7.904   9.818   6.600  0.2045  0.4805  0.2704
  531MOL0     C71572   7.797   9.729   6.658  0.4949 -0.0180  0.3340
  531MOL0     C71573   7.664   9.803   6.659  0.4732 -0.0497 -0.2995
  531MOL0     O71574   7.660   9.884   6.776 -0.6932  0.4594 -0.0409
  531MOL0     C71575   7.557   9.971   6.804  0.7949 -0.7288  0.2412
  531MOL0     C71576   7.553  10.042   6.916 -0.6635  0.0982  0.1528
  531MOL0     C71577   7.450  10.126   6.954  0.0041 -0.9327 -0.1333
  531MOL0     C71578   7.491  10.196   7.084  0.9061  0.1624  0.5831
  531MOL0     C71579   7.332  10.129   6.867  0.0945  0.0603  0.1399
  531MOL0     C71580   7.212  10.221   6.884 -0.9039  0.5492  0.5000
  531MOL0     O71581   7.108  10.218   6.794  0.1595 -0.6029  0.2183
  531MOL0     C71582   6.989  10.269   6.837  0.8159 -0.4637 -0.8987
  531MOL0     C71583   6.926  10.230   6.958  0.0101 -0.8296  0.0604
  531MOL0     C71584   6.795  10.279   6.993  0.0034 -0.2932  0.5608
  531MOL0     C71585   6.730  10.369   6.906 -1.1950  0.2664  0.3942
  531MOL0     O71586   6.601  10.409   6.929  0.6265 -0.4598  0.2531
  531MOL0     C71587   6.509  10.413   6.811 -0.2781  0.9644  0.7640
  531MOL0     C71588   6.368  10.407   6.846  0.0580 -0.2287 -0.3392
  531MOL0     C71589   6.286  10.370   6.715 -0.7049  0.0703  0.1117
  531MOL0     C71590   6.129  10.366   6.756  0.0952 -0.5370  0.6229
  531MOL0     C71591   6.036  10.345   6.636 -0.5099 -0.7201  0.0952
  531MOL0     C71592   5.884  10.327   6.677 -0.5627  0.3448 -0.8560
  531MOL0     C71593   5.783  10.318   6.567  0.5293 -0.3822 -0.0408
  531MOL0     C71594   5.640  10.290   6.612  0.1164 -0.3898  0.2439
  531MOL0    Cl71595   5.545  10.240   6.461  0.0677  0.3498  0.0141
  531MOL0     C71596   6.799  10.404   6.782 -0.0202  0.3103 -0.4814
  531MOL0     C71597   6.927  10.356   6.754  0.2757  0.0013  0.3319
  531MOL0     O71598   7.222  10.306   6.974 -0.2595 -0.2403 -0.0717
  531MOL0     C71599   7.337  10.053   6.746  0.5560 -0.1079 -0.5757
  531MOL0     C71600   7.445   9.973   6.716 -0.1001  0.1686 -0.0796
  531MOL0     N71601   8.249   9.902   6.659 -0.6183 -0.2267  0.9095
  531MOL0     N71602   8.314   9.997   6.595  0.2921  0.9271 -0.0184
  531MOL0     C71603   9.296   9.839   5.947 -0.0185  0.3583  1.1479
  531MOL0     C71604   9.430   9.876   5.950 -0.2406  1.2988 -0.4899
  531MOL0     C71605   9.816  10.031   5.910 -0.2159 -0.9149 -0.0385
  531MOL0     C71606   9.843  10.022   6.047 -0.4707 -0.2075 -0.8014
  531MOL0     C71607   9.974  10.016   6.092 -0.7976  0.0294  0.1146
  531MOL0     C71608  10.082  10.017   6.004  0.4812  1.0647 -0.3140
  531MOL0     O71609  10.218  10.018   6.037  0.1808 -0.0269 -0.2483
  531MOL0     C71610  10.253  10.012   6.177  0.4153  0.1318  0.3970
  531MOL0     C71611  10.407   9.999   6.174  0.2895  0.4442  0.3152
  531MOL0     C71612  10.454   9.852   6.151 -0.4658  0.2962 -0.4585
  531MOL0     C71613  10.603   9.824   6.186  0.5018  0.6761  0.0516
  531MOL0     C71614  10.694   9.864   6.073  0.5011  0.6832 -0.2061
  531MOL0     C71615  10.793   9.880   5.997 -0.6689  0.3260 -0.1495
  531MOL0     C71616  10.058  10.016   5.869  1.2444  0.1439 -0.2956
  531MOL0     C71617   9.929  10.038   5.822 -0.5697  1.1739  0.1312
  531MOL0     H71618   9.401  10.201   5.996 -1.3360  1.4026 -3.4640
  531MOL0     H71619   9.157  10.144   5.988  1.6571  1.4510  4.2376
  531MOL0     H71620   8.997   9.717   6.039  1.6779  0.2730 -2.2959
  531MOL0     H71621   9.089   9.812   6.157 -0.4509 -2.1855  1.4118
  531MOL0     H71622   8.804   9.884   6.057  0.2886  0.9401 -0.1037
  531MOL0     H71623   8.832   9.793   6.202 -0.4010  1.8827  1.5291
  531MOL0     H71624   8.980  10.053   6.222 -0.3452 -0.6554 -0.4376
  531MOL0     H71625   8.874  10.093   6.105  0.6642  2.0655  0.4883
  531MOL0     H71626   8.796   9.989   6.385  0.7429 -0.0415 -0.9780
  531MOL0     H71627   8.801  10.151   6.317  0.1154  0.4121 -1.0807
  531MOL0     H71628   8.622  10.076   6.140  0.3148 -0.9617 -1.3679
  531MOL0     H71629   8.611   9.922   6.229 -0.1423  0.0937  1.8557
  531MOL0     H71630   8.518  10.016   6.413  0.3775  0.9697  0.6838
  531MOL0     H71631   8.549  10.185   6.355  1.4082 -0.0017 -1.2068
  531MOL0     H71632   8.385  10.171   6.195 -2.4245 -0.8884 -0.1235
  531MOL0     H71633   8.355   9.997   6.215 -0.2930  0.8215 -0.7672
  531MOL0     H71634   8.184  10.164   6.335  0.1717 -0.4423 -1.1711
  531MOL0     H71635   8.311  10.215   6.438 -2.8845  0.3792  0.8364
  531MOL0     H71636   8.089   9.922   6.369  1.4221 -0.6911 -0.7506
  531MOL0     H71637   8.058   9.669   6.574  0.3399 -0.1697  0.8962
  531MOL0     H71638   8.054   9.769   6.731  1.7730 -1.1706 -0.5046
  531MOL0     H71639   7.897   9.822   6.491 -1.5244  0.6686  0.3637
  531MOL0     H71640   7.889   9.922   6.630 -1.3649  0.7973 -1.4182
  531MOL0     H71641   7.816   9.695   6.760  0.2691 -2.2204 -0.3049
  531MOL0     H71642   7.787   9.645   6.589 -3.0688 -0.2577  0.9444
  531MOL0     H71643   7.585   9.727   6.651  1.3613 -1.1130  0.6526
  531MOL0     H71644   7.647   9.871   6.575 -4.3696  1.5312  1.5621
  531MOL0     H71645   7.641  10.039   6.980 -1.3571  2.9350  1.4172
  531MOL0     H71646   7.403  10.254   7.116 -0.0491 -0.7674 -0.2552
  531MOL0     H71647   7.510  10.115   7.154  1.9327 -0.5800 -0.5076
  531MOL0     H71648   7.580  10.254   7.058  0.4638  0.2819 -0.7486
  531MOL0     H71649   6.977  10.152   7.014  0.9451 -0.7083 -0.5910
  531MOL0     H71650   6.747  10.228   7.077 -1.1571 -1.3101 -0.6719
  531MOL0     H71651   6.537  10.497   6.746 -0.3923  0.0341 -0.5231
  531MOL0     H71652   6.529  10.322   6.754 -2.5560  1.1082 -0.3661
  531MOL0     H71653   6.363  10.326   6.920 -0.3204  0.6347  0.6155
  531MOL0     H71654   6.355  10.503   6.896  0.0574 -1.0033  1.2174
  531MOL0     H71655   6.317  10.272   6.679 -1.7862  0.3161 -1.5762
  531MOL0     H71656   6.309  10.438   6.633  3.5899 -1.0699  0.0964
  531MOL0     H71657   6.107  10.296   6.836 -0.9427 -1.4801 -0.4539
  531MOL0     H71658   6.098  10.459   6.806 -1.2958 -0.8214  0.3272
  531MOL0     H71659   6.063  10.250   6.589  0.4814 -0.1449 -0.5533
  531MOL0     H71660   6.030  10.437   6.577 -0.2384  1.8159  3.6799
  531MOL0     H71661   5.885  10.234   6.734  3.2327  1.6481  1.5626
  531MOL0     H71662   5.871  10.418   6.738 -1.7121  0.2464 -0.9326
  531MOL0     H71663   5.809  10.233   6.503  1.0740  1.4147 -2.3205
  531MOL0     H71664   5.782  10.413   6.514 -0.5979 -0.7218 -0.6464
  531MOL0     H71665   5.591  10.376   6.659  2.4141  0.2422  1.6486
  531MOL0     H71666   5.637  10.212   6.689  1.4618 -1.1799 -0.4589
  531MOL0     H71667   6.750  10.473   6.714  2.0760  1.0405 -1.3097
  531MOL0     H71668   6.978  10.398   6.668 -1.5180  0.5996 -0.5046
  531MOL0     H71669   7.249  10.045   6.683  0.5793  0.2114 -0.6523
  531MOL0     H71670   7.447   9.906   6.631 -1.1956 -1.8969  1.4305
  531MOL0     H71671   9.272   9.735   5.929  3.9487 -0.4973 -0.2540
  531MOL0     H71672   9.511   9.807   5.932 -0.5262  0.9306 -0.3656
  531MOL0     H71673   9.765  10.014   6.122 -0.7680  1.7772 -0.8499
  531MOL0     H71674   9.988  10.008   6.199 -0.3824  0.4459  0.0940
  531MOL0     H71675  10.225  10.103   6.231  1.8159  1.5814 -1.2050
  531MOL0     H71676  10.213   9.923   6.225 -1.1342  0.4385 -0.2504
  531MOL0     H71677  10.448  10.024   6.272  1.8015  0.1620 -0.2213
  531MOL0     H71678  10.448  10.065   6.097 -0.3804  0.3647 -0.1210
  531MOL0     H71679  10.419   9.823   6.052 -2.2109 -1.0197  0.4760
  531MOL0     H71680  10.393   9.794   6.222  1.4092 -0.1446  0.8776
  531MOL0     H71681  10.610   9.717   6.204 -0.3746  0.5254 -0.4220
  531MOL0     H71682  10.632   9.886   6.271  4.0462 -0.0212 -0.4762
  531MOL0     H71683  10.875   9.902   5.931 -2.4926 -0.3093 -2.7575
  531MOL0     H71684  10.149  10.015   5.810  0.8498 -3.5789 -1.1064
  531MOL0     H71685   9.916  10.066   5.718 -1.3500  2.1360  0.4716
  532MOL0     O71686   5.655   0.088   1.074 -0.2500 -0.7558  0.1198
  532MOL0     C71687   5.674  -0.027   1.088 -0.0567 -0.4678  0.7789
  532MOL0     O71688   5.578  -0.118   1.114  0.0005  0.4763 -0.5667
  532MOL0     C71689   5.441  -0.089   1.105 -0.3993  0.0491  0.3051
  532MOL0     C71690   5.381  -0.125   0.982 -0.8214  0.2459  0.0748
  532MOL0     C71691   5.246  -0.109   0.955  0.5354  0.3137 -0.7559
  532MOL0     C71692   5.163  -0.074   1.060  0.1661 -0.4536 -0.5876
  532MOL0     O71693   5.029  -0.047   1.045 -0.0539  0.6570  0.0393
  532MOL0     C71694   4.934  -0.157   1.033 -0.0999  0.4399  0.5025
  532MOL0     C71695   4.787  -0.123   1.029 -0.7998  0.5604  0.2336
  532MOL0     C71696   4.738  -0.045   1.148  0.0663  0.8853 -0.2629
  532MOL0     C71697   4.590   0.009   1.139  0.6918 -0.2379  0.1079
  532MOL0     C71698   4.517  -0.010   1.280 -0.8168  0.5297  0.2216
  532MOL0     C71699   4.369  -0.031   1.270 -0.6759 -0.1487 -0.0117
  532MOL0     C71700   4.287   0.072   1.186  0.0138  0.4659  0.1465
  532MOL0     C71701   4.259   0.207   1.258  0.3851 -0.0464  0.3483
  532MOL0     N71702   4.126   0.203   1.319 -0.0513 -1.0760 -0.3212
  532MOL0     C71703   4.008   0.164   1.252 -0.2750 -0.3205 -0.2601
  532MOL0     C71704   3.916   0.143   1.350  0.4000 -0.0748  0.4812
  532MOL0     C71705   3.777   0.104   1.313 -0.8143 -0.3927 -0.2858
  532MOL0     C71706   3.770  -0.045   1.286  0.1628  0.2275  0.2099
  532MOL0     C71707   3.623  -0.079   1.240 -0.5859  0.7913  0.5780
  532MOL0     C71708   3.527  -0.107   1.357 -0.0250 -0.4974  0.7801
  532MOL0     O71709   3.577  -0.212   1.428 -0.3321  0.2637  0.2861
  532MOL0     C71710   3.523  -0.254   1.547  0.1362  0.7305  0.7057
  532MOL0     C71711   3.584  -0.359   1.604 -1.0009  0.0405 -0.7285
  532MOL0     C71712   3.530  -0.428   1.716 -0.6346 -0.7014  0.5410
  532MOL0     C71713   3.598  -0.544   1.770 -0.3688  0.1674  0.6381
  532MOL0     C71714   3.399  -0.388   1.760  0.7674  0.0504  0.8650
  532MOL0     C71715   3.327  -0.463   1.867 -0.1391  0.5851 -0.6706
  532MOL0     O71716   3.339  -0.605   1.869  0.2511  0.2988  0.3898
  532MOL0     C71717   3.259  -0.678   1.954  0.2807  1.3456  0.2532
  532MOL0     C71718   3.137  -0.639   2.007  0.1554  0.1967  1.0602
  532MOL0     C71719   3.068  -0.722   2.093 -0.8012 -0.2240 -0.1036
  532MOL0     C71720   3.117  -0.845   2.133 -0.5416 -0.0011  0.4426
  532MOL0     O71721   3.042  -0.913   2.229  0.5939 -0.1391  0.4876
  532MOL0     C71722   3.086  -1.035   2.285  0.4775 -0.4411  0.4320
  532MOL0     C71723   3.070  -1.161   2.187  0.1208 -0.0548 -0.5836
  532MOL0     C71724   2.923  -1.211   2.168  0.4527  0.7884  0.6074
  532MOL0     C71725   2.859  -1.260   2.296  0.5530  0.6265  0.9096
  532MOL0     C71726   2.894  -1.409   2.329 -0.1669  0.4474  0.2585
  532MOL0     C71727   2.772  -1.462   2.409 -0.3321  0.1236  0.0206
  532MOL0     C71728   2.796  -1.609   2.434  1.3166  0.3606 -0.3745
  532MOL0     C71729   2.656  -1.670   2.470 -0.2804  0.1479 -0.3024
  532MOL0    Cl71730   2.601  -1.627   2.635 -0.2998 -0.1953  0.4693
  532MOL0     C71731   3.240  -0.894   2.080  1.1918  0.2976 -0.3778
  532MOL0     C71732   3.303  -0.808   1.989  0.1425  0.2659 -0.0601
  532MOL0     O71733   3.265  -0.392   1.953 -0.1435 -0.5004  0.1383
  532MOL0     C71734   3.340  -0.281   1.695 -0.6879 -0.5554 -0.1618
  532MOL0     C71735   3.398  -0.220   1.586  0.5505  0.6084 -1.0781
  532MOL0     N71736   3.977   0.163   1.472  0.0917 -0.3864  0.1674
  532MOL0     N71737   4.098   0.199   1.458 -0.1818  0.1307  0.3281
  532MOL0     C71738   5.226  -0.023   1.176 -0.1443  0.0391  0.5622
  532MOL0     C71739   5.364  -0.037   1.207  0.8745 -0.2884 -0.6577
  532MOL0     C71740   5.812  -0.074   1.062  0.1161  1.1041  0.0370
  532MOL0     C71741   5.847  -0.213   1.047  0.4802  0.8037  1.1397
  532MOL0     C71742   5.972  -0.263   1.037 -0.1929 -0.6597  0.3824
  532MOL0     C71743   6.076  -0.173   1.043 -0.7935 -0.6036 -0.0368
  532MOL0     O71744   6.204  -0.224   1.030 -0.1006  0.5147  0.6926
  532MOL0     C71745   6.305  -0.139   1.075  0.7767  0.2294  0.0464
  532MOL0     C71746   6.431  -0.221   1.090  0.0754  0.1702 -0.5187
  532MOL0     C71747   6.549  -0.139   1.151 -0.1461 -0.0230  0.4475
  532MOL0     C71748   6.627  -0.226   1.243  0.1670  0.2373  0.1026
  532MOL0     C71749   6.716  -0.315   1.169 -0.1741  0.1506  1.3116
  532MOL0     C71750   6.796  -0.386   1.109 -0.8779  0.0310  0.0731
  532MOL0     C71751   6.055  -0.029   1.039  0.1310  0.8526 -0.1873
  532MOL0     C71752   5.922   0.015   1.050 -0.1540 -0.5994 -0.0238
  532MOL0     H71753   5.442  -0.178   0.910 -1.9860  0.0765 -0.8086
  532MOL0     H71754   5.199  -0.145   0.864 -3.1183  4.3024 -0.7898
  532MOL0     H71755   4.967  -0.233   0.961 -1.9398  1.0113 -1.0228
  532MOL0     H71756   4.948  -0.213   1.126 -2.3737 -0.5709  0.2974
  532MOL0     H71757   4.760  -0.067   0.939 -0.4541  0.6317  0.1716
  532MOL0     H71758   4.723  -0.211   1.031 -1.5288  1.0822  0.1718
  532MOL0     H71759   4.736  -0.115   1.232 -0.9181 -0.2672 -1.2218
  532MOL0     H71760   4.804   0.040   1.170  0.5108  0.2545  0.9773
  532MOL0     H71761   4.587   0.116   1.115 -0.0283 -0.1860  0.3946
  532MOL0     H71762   4.525  -0.036   1.064 -1.8781  1.9299  0.8605
  532MOL0     H71763   4.561  -0.096   1.332 -1.1044  1.3956  1.9636
  532MOL0     H71764   4.542   0.079   1.338 -1.0462  0.1306  0.9335
  532MOL0     H71765   4.347  -0.128   1.224  1.9161 -0.0285 -1.7310
  532MOL0     H71766   4.337  -0.035   1.374 -2.7576 -0.2935 -0.6147
  532MOL0     H71767   4.346   0.088   1.095 -0.2774 -2.8224 -0.7267
  532MOL0     H71768   4.200   0.023   1.141 -0.9475  2.1906  0.0233
  532MOL0     H71769   4.270   0.281   1.178 -2.8610 -0.2977 -0.4609
  532MOL0     H71770   4.337   0.230   1.331  0.6409 -1.6137  0.6161
  532MOL0     H71771   3.999   0.153   1.144 -0.5712  0.9373 -0.3889
  532MOL0     H71772   3.711   0.125   1.397  0.8076 -0.4028  1.0377
  532MOL0     H71773   3.746   0.150   1.219 -0.9332 -4.4304 -2.4531
  532MOL0     H71774   3.808  -0.111   1.364  2.5587 -2.1658 -2.7399
  532MOL0     H71775   3.834  -0.085   1.207 -1.2870 -2.5033  0.3159
  532MOL0     H71776   3.626  -0.174   1.188 -1.0339  1.7507 -1.2836
  532MOL0     H71777   3.594  -0.004   1.165 -1.3461 -2.0838 -2.1920
  532MOL0     H71778   3.429  -0.129   1.316 -0.2244  3.1642 -1.1547
  532MOL0     H71779   3.524  -0.016   1.418  2.3609  0.1234  0.0759
  532MOL0     H71780   3.675  -0.399   1.561  1.1951  0.8968  2.7559
  532MOL0     H71781   3.554  -0.628   1.715 -3.2541 -0.6629  3.8373
  532MOL0     H71782   3.704  -0.534   1.748  0.0566  0.8675  2.7151
  532MOL0     H71783   3.575  -0.543   1.877 -2.5253  1.8966  0.2313
  532MOL0     H71784   3.099  -0.549   1.960  0.0947  0.0217  0.7718
  532MOL0     H71785   2.964  -0.691   2.099 -0.5532  1.4324 -2.8391
  532MOL0     H71786   3.189  -1.028   2.320  1.2759 -1.3490 -1.5848
  532MOL0     H71787   3.025  -1.039   2.376 -0.5293  1.6399 -0.0834
  532MOL0     H71788   3.111  -1.139   2.088  0.6461  2.2119  0.0777
  532MOL0     H71789   3.115  -1.248   2.234 -1.7942  0.0474  1.6363
  532MOL0     H71790   2.923  -1.290   2.092 -1.2205 -0.5904  1.9549
  532MOL0     H71791   2.852  -1.142   2.120 -2.6134 -2.2351  0.4024
  532MOL0     H71792   2.881  -1.195   2.381 -1.9539 -0.6733  2.6884
  532MOL0     H71793   2.750  -1.259   2.285  0.6652  1.8053 -0.3175
  532MOL0     H71794   2.984  -1.410   2.390  0.1499 -1.0858 -0.1865
  532MOL0     H71795   2.901  -1.471   2.239  0.1719 -1.1019  1.3022
  532MOL0     H71796   2.764  -1.413   2.506  1.3870 -0.4812  0.4981
  532MOL0     H71797   2.681  -1.436   2.354  1.4240  3.2498 -1.6827
  532MOL0     H71798   2.862  -1.630   2.519 -0.7390 -2.5027  0.6482
  532MOL0     H71799   2.837  -1.658   2.345  1.6072 -3.1836  1.5286
  532MOL0     H71800   2.679  -1.777   2.475 -0.0371  0.0903 -2.0187
  532MOL0     H71801   2.581  -1.654   2.393  0.6462  0.0281 -1.2491
  532MOL0     H71802   3.279  -0.988   2.117 -2.5703 -1.1476  0.4204
  532MOL0     H71803   3.387  -0.847   1.932 -0.4076  0.1886 -0.8387
  532MOL0     H71804   3.239  -0.254   1.724 -0.0438  0.5589  1.1965
  532MOL0     H71805   3.348  -0.135   1.541 -1.9081 -0.3748 -0.3806
  532MOL0     H71806   5.160   0.034   1.240  0.1257 -0.6186  1.4444
  532MOL0     H71807   5.401   0.001   1.302  1.1342 -1.6657 -0.1751
  532MOL0     H71808   5.758  -0.274   1.035  1.0845  0.4006 -1.9756
  532MOL0     H71809   5.980  -0.368   1.011 -3.1035 -0.7201 -0.7115
  532MOL0     H71810   6.325  -0.055   1.008  0.5098 -0.0662 -0.4082
  532MOL0     H71811   6.271  -0.114   1.177 -2.3205 -1.2957 -0.4781
  532MOL0     H71812   6.450  -0.268   0.994  0.2310  1.4152 -1.1125
  532MOL0     H71813   6.414  -0.303   1.161  0.2330  1.1180  0.6607
  532MOL0     H71814   6.519  -0.049   1.205  1.1497  2.0517 -2.0956
  532MOL0     H71815   6.604  -0.109   1.062 -1.8889 -1.8864 -1.3887
  532MOL0     H71816   6.558  -0.280   1.308  0.9038 -3.8304 -2.1224
  532MOL0     H71817   6.678  -0.154   1.308 -0.0453  0.1768  0.3385
  532MOL0     H71818   6.870  -0.455   1.074 -0.9989 -0.8421  1.4811
  532MOL0     H71819   6.136   0.042   1.021  1.1205 -0.0163  0.7714
  532MOL0     H71820   5.913   0.122   1.067 -0.3799 -0.7952  1.2253
  533MOL0     O71821   6.294   1.166   3.678  0.3913  0.2944 -0.7161
  533MOL0     C71822   6.319   1.091   3.771 -0.2853  0.8557 -0.2251
  533MOL0     O71823   6.226   1.006   3.832  0.3207 -0.4487 -0.0312
  533MOL0     C71824   6.095   1.020   3.793 -0.0514 -0.3225 -0.3633
  533MOL0     C71825   6.015   1.118   3.845 -0.2506  0.4380 -0.1200
  533MOL0     C71826   5.883   1.117   3.807  0.5196 -0.2584 -0.7934
  533MOL0     C71827   5.831   1.030   3.714 -0.8650  1.4622 -0.5170
  533MOL0     O71828   5.707   1.061   3.667 -0.4548  0.0023  0.8681
  533MOL0     C71829   5.634   0.944   3.628 -0.1189  0.2295 -0.2521
  533MOL0     C71830   5.489   0.994   3.598 -0.5309 -0.2727 -0.6824
  533MOL0     C71831   5.443   1.090   3.712 -0.7491  0.4336  0.0157
  533MOL0     C71832   5.308   1.141   3.684  0.1201 -0.2275 -1.4299
  533MOL0     C71833   5.311   1.291   3.649  0.4465  0.2653 -0.2668
  533MOL0     C71834   5.169   1.341   3.602 -0.4951 -0.0859 -1.2274
  533MOL0     C71835   5.179   1.489   3.573  0.3445 -0.3536  0.7890
  533MOL0     C71836   5.056   1.566   3.609  0.8021 -0.8777  0.1379
  533MOL0     N71837   4.934   1.542   3.522 -0.0227 -0.1696  1.1681
  533MOL0     C71838   4.877   1.632   3.433 -0.2283 -0.0404 -0.4362
  533MOL0     C71839   4.762   1.565   3.397  0.5444  0.9451 -0.3187
  533MOL0     C71840   4.661   1.617   3.298  0.5229 -0.3105 -0.2926
  533MOL0     C71841   4.573   1.724   3.353  0.3433  0.5228 -0.6965
  533MOL0     C71842   4.482   1.677   3.467  0.0186  0.0940 -0.4062
  533MOL0     C71843   4.393   1.795   3.507 -0.6106 -0.2263  0.4566
  533MOL0     O71844   4.339   1.769   3.635  0.3365  0.1375  0.0334
  533MOL0     C71845   4.233   1.850   3.672  1.0939 -0.0844  0.8935
  533MOL0     C71846   4.129   1.794   3.747 -0.8945 -0.0004  0.5164
  533MOL0     C71847   4.022   1.857   3.794  0.1622 -0.1891 -0.5155
  533MOL0     C71848   3.923   1.783   3.881  0.2845  0.9440 -1.4203
  533MOL0     C71849   4.003   1.995   3.763 -0.2717 -1.0045  0.4177
  533MOL0     C71850   3.893   2.090   3.813  0.1452 -0.5340  0.4713
  533MOL0     O71851   3.914   2.221   3.797 -0.1282  0.1138 -0.4881
  533MOL0     C71852   3.844   2.321   3.861  0.1237 -0.8138 -0.0532
  533MOL0     C71853   3.910   2.395   3.964  0.2040 -0.7661  0.0719
  533MOL0     C71854   3.845   2.497   4.040 -0.0927  0.4995  0.1181
  533MOL0     C71855   3.709   2.517   4.019 -0.0800  0.7524  0.5616
  533MOL0     O71856   3.639   2.617   4.081  0.8373  0.1059 -0.1404
  533MOL0     C71857   3.497   2.635   4.067  0.9907  0.6642  0.2172
  533MOL0     C71858   3.443   2.753   4.143  0.0789  0.5159 -0.4064
  533MOL0     C71859   3.294   2.750   4.153 -0.1464  0.1724  0.4522
  533MOL0     C71860   3.247   2.879   4.225  0.7896 -0.2670 -0.2466
  533MOL0     C71861   3.092   2.885   4.231  0.5912  0.1026 -0.9758
  533MOL0     C71862   3.017   2.867   4.093 -0.4381  0.3899 -0.6328
  533MOL0     C71863   2.864   2.873   4.111  0.4080  0.4171  0.3444
  533MOL0     C71864   2.817   3.014   4.177  0.2506  1.2115 -0.0252
  533MOL0    Cl71865   2.649   3.039   4.111  0.5624 -0.1004 -0.0453
  533MOL0     C71866   3.642   2.445   3.917 -0.0496 -0.1062  1.2869
  533MOL0     C71867   3.708   2.354   3.835 -0.1469  0.4118  0.2160
  533MOL0     O71868   3.797   2.036   3.871  0.4932 -0.1746  0.7443
  533MOL0     C71869   4.106   2.054   3.683  0.9861 -0.9819 -0.5338
  533MOL0     C71870   4.221   1.991   3.640  0.2390 -0.0488  0.1615
  533MOL0     N71871   4.759   1.436   3.461  0.4557 -0.4422  0.7079
  533MOL0     N71872   4.865   1.425   3.532 -0.9422 -0.4004 -0.0797
  533MOL0     C71873   5.912   0.932   3.655  0.5611  0.4632 -0.5219
  533MOL0     C71874   6.052   0.930   3.698 -0.3790  0.3479  0.5106
  533MOL0     C71875   6.458   1.090   3.821 -0.1497  0.8491 -0.5521
  533MOL0     C71876   6.554   1.173   3.764 -0.4868  0.3330 -0.3364
  533MOL0     C71877   6.690   1.159   3.799 -0.9206 -0.1903 -0.1800
  533MOL0     C71878   6.730   1.078   3.907 -0.4546 -0.2639 -0.2330
  533MOL0     O71879   6.858   1.068   3.959 -0.9327  0.4434  0.6928
  533MOL0     C71880   6.969   1.094   3.872  0.7385  0.2522 -0.0845
  533MOL0     C71881   7.093   1.028   3.935  0.2241 -0.7317 -0.5148
  533MOL0     C71882   7.227   1.079   3.890 -0.3096 -0.5644 -0.1718
  533MOL0     C71883   7.345   0.982   3.933 -0.0474  0.1104  0.2297
  533MOL0     C71884   7.361   0.877   3.830  0.0170  0.9157  0.4798
  533MOL0     C71885   7.387   0.798   3.739  0.5736  0.6808 -0.2776
  533MOL0     C71886   6.633   1.004   3.972 -0.2291 -0.0000 -0.7581
  533MOL0     C71887   6.498   1.005   3.924 -0.1021  1.0832 -0.1030
  533MOL0     H71888   6.050   1.191   3.917 -2.5368  1.6529 -0.1192
  533MOL0     H71889   5.813   1.190   3.847 -1.0836 -3.1349  2.1717
  533MOL0     H71890   5.667   0.899   3.534  1.4748 -0.4107  0.5636
  533MOL0     H71891   5.627   0.865   3.704  0.7314  1.0176  0.6706
  533MOL0     H71892   5.492   1.057   3.509  0.7750 -2.6580 -2.4422
  533MOL0     H71893   5.427   0.905   3.581  0.6241 -1.2118 -0.0795
  533MOL0     H71894   5.442   1.029   3.803 -0.2155 -2.7986 -1.9863
  533MOL0     H71895   5.517   1.170   3.719  2.0417 -1.9623  0.0019
  533MOL0     H71896   5.267   1.081   3.603 -0.1107 -2.0970  0.0058
  533MOL0     H71897   5.246   1.148   3.774  1.5742  2.6722 -0.5371
  533MOL0     H71898   5.343   1.335   3.744  1.1705 -0.3672 -0.2098
  533MOL0     H71899   5.383   1.303   3.567 -0.1896 -0.4475 -0.9498
  533MOL0     H71900   5.138   1.290   3.511 -0.0613  0.2834 -1.5805
  533MOL0     H71901   5.094   1.323   3.680  1.4495 -0.7058  0.6002
  533MOL0     H71902   5.263   1.541   3.620  1.8357 -3.6780  2.1078
  533MOL0     H71903   5.194   1.502   3.466 -1.5211  1.6623  0.7151
  533MOL0     H71904   5.085   1.672   3.611  0.0203 -0.6603  0.2212
  533MOL0     H71905   5.026   1.551   3.713 -0.5589  0.2971 -0.0554
  533MOL0     H71906   4.902   1.737   3.415  1.8741 -0.5018 -0.5301
  533MOL0     H71907   4.713   1.659   3.210 -1.8107  4.6127  0.3149
  533MOL0     H71908   4.592   1.537   3.270 -0.8775  1.4902 -2.3374
  533MOL0     H71909   4.510   1.771   3.277 -0.3031  1.3199  0.2855
  533MOL0     H71910   4.643   1.799   3.392  0.0121 -0.2626  1.5582
  533MOL0     H71911   4.542   1.621   3.540 -0.1189  0.2357 -0.1847
  533MOL0     H71912   4.420   1.605   3.412  0.2298 -0.3419 -0.0792
  533MOL0     H71913   4.321   1.799   3.424 -1.6307 -2.3222  1.1645
  533MOL0     H71914   4.459   1.882   3.509  0.8820 -1.1915 -2.0939
  533MOL0     H71915   4.141   1.694   3.785 -2.0928 -0.7691 -0.9934
  533MOL0     H71916   3.945   1.676   3.888  1.0891  1.2293  2.5432
  533MOL0     H71917   3.921   1.824   3.982  0.9073  0.4704 -1.2147
  533MOL0     H71918   3.824   1.787   3.834  0.3583  1.4018 -1.5402
  533MOL0     H71919   4.011   2.367   3.990  0.3904 -1.0857 -0.9711
  533MOL0     H71920   3.886   2.562   4.117  0.6312 -0.0526  0.2081
  533MOL0     H71921   3.480   2.663   3.963  1.3803 -0.7165 -0.2401
  533MOL0     H71922   3.450   2.537   4.083  1.4155  0.6868  1.7538
  533MOL0     H71923   3.475   2.742   4.247 -2.3772 -1.2230  0.2647
  533MOL0     H71924   3.486   2.845   4.104 -2.1934  1.8011 -0.0746
  533MOL0     H71925   3.264   2.667   4.218  0.9493 -1.4873 -1.0743
  533MOL0     H71926   3.254   2.743   4.051  0.7636 -1.9385  0.1928
  533MOL0     H71927   3.292   2.890   4.324 -0.2927  4.1585 -0.0629
  533MOL0     H71928   3.285   2.962   4.165 -0.9690  1.4187  0.8488
  533MOL0     H71929   3.070   2.979   4.282  0.1126 -0.3729 -0.2755
  533MOL0     H71930   3.057   2.796   4.285  2.3716 -2.9555 -4.4147
  533MOL0     H71931   3.059   2.937   4.019 -1.0997  0.5003 -0.9134
  533MOL0     H71932   3.038   2.771   4.046 -0.8522  1.0601 -2.2735
  533MOL0     H71933   2.825   2.786   4.165 -1.4305 -0.0693 -1.6328
  533MOL0     H71934   2.811   2.869   4.015 -0.3428 -0.9977  0.7905
  533MOL0     H71935   2.878   3.098   4.143  0.5236 -0.0654 -2.9910
  533MOL0     H71936   2.816   2.995   4.285  1.6053  0.7939 -0.0708
  533MOL0     H71937   3.538   2.462   3.891 -0.0350  0.0239  1.3156
  533MOL0     H71938   3.662   2.294   3.757 -0.0147 -0.4279  0.7726
  533MOL0     H71939   4.102   2.161   3.662  0.6443 -0.3878  2.1325
  533MOL0     H71940   4.292   2.047   3.580 -0.1663  1.8940  1.4074
  533MOL0     H71941   5.879   0.866   3.576  1.7906 -1.3043  0.3755
  533MOL0     H71942   6.111   0.849   3.655 -2.1673 -1.4456  1.3160
  533MOL0     H71943   6.534   1.241   3.682  1.9205  0.6980 -0.6740
  533MOL0     H71944   6.758   1.222   3.743  1.3241 -1.8522  0.5557
  533MOL0     H71945   6.947   1.054   3.772 -0.7515 -1.4200  0.8680
  533MOL0     H71946   6.979   1.203   3.881 -4.2317  0.8104  1.8735
  533MOL0     H71947   7.081   0.919   3.929 -4.6280 -0.9001  4.5081
  533MOL0     H71948   7.105   1.059   4.039 -0.6690  2.8813 -1.3488
  533MOL0     H71949   7.255   1.180   3.922  0.7430  0.0459 -2.6928
  533MOL0     H71950   7.226   1.088   3.781 -2.1987  0.3922 -0.1180
  533MOL0     H71951   7.314   0.943   4.030  1.7538 -0.1438  0.7358
  533MOL0     H71952   7.437   1.041   3.943  1.2939 -1.1679 -3.1546
  533MOL0     H71953   7.418   0.728   3.663  0.7244 -0.3098  0.6672
  533MOL0     H71954   6.661   0.947   4.060 -0.9974  0.3269 -0.2883
  533MOL0     H71955   6.431   0.943   3.983  0.6702  0.4119  0.0845
  534MOL0     O71956   4.829   4.744   6.445  0.4527 -0.7129  0.6436
  534MOL0     C71957   4.868   4.686   6.541  0.9573  0.4998 -0.2997
  534MOL0     O71958   4.790   4.599   6.606  0.5410 -0.1060 -0.1227
  534MOL0     C71959   4.660   4.568   6.564 -0.1498 -0.1577 -0.6365
  534MOL0     C71960   4.562   4.673   6.591  0.1600  0.0981 -0.1242
  534MOL0     C71961   4.429   4.645   6.551  0.5167 -0.2227  0.0893
  534MOL0     C71962   4.392   4.523   6.490 -0.5837 -0.2322  0.2422
  534MOL0     O71963   4.262   4.483   6.456  0.3170 -0.5200  0.8416
  534MOL0     C71964   4.160   4.575   6.515  0.5654  0.4286 -0.4446
  534MOL0     C71965   4.014   4.528   6.490  0.7487  0.0754 -0.4671
  534MOL0     C71966   3.980   4.386   6.548  0.3645  1.1530  0.2231
  534MOL0     C71967   3.859   4.315   6.495 -0.5262 -0.3577  0.5535
  534MOL0     C71968   3.811   4.198   6.587 -0.2408 -0.5977 -0.2486
  534MOL0     C71969   3.674   4.150   6.548 -0.0510  0.7389 -0.9793
  534MOL0     C71970   3.668   4.105   6.393  0.2110  1.2068 -0.6880
  534MOL0     C71971   3.541   4.022   6.359 -0.0392 -0.2965 -0.2131
  534MOL0     N71972   3.420   4.090   6.407 -0.1409  1.0192  0.5037
  534MOL0     C71973   3.327   4.147   6.325  0.0974 -0.5460 -0.0048
  534MOL0     C71974   3.240   4.205   6.412  0.1632  0.4308 -0.5363
  534MOL0     C71975   3.128   4.304   6.376 -0.0979  0.9730  0.0686
  534MOL0     C71976   3.022   4.248   6.268  0.5289  0.4823 -0.3866
  534MOL0     C71977   2.964   4.123   6.339  0.3273 -0.0815  0.7989
  534MOL0     C71978   2.835   4.082   6.273 -0.1085  0.3377  0.8304
  534MOL0     O71979   2.737   4.180   6.308  0.5246  0.0651  0.5486
  534MOL0     C71980   2.607   4.144   6.286  0.7154  0.0334 -0.9583
  534MOL0     C71981   2.502   4.230   6.329 -0.5869  0.1487 -0.7064
  534MOL0     C71982   2.370   4.206   6.306  0.1215 -0.7225  0.1048
  534MOL0     C71983   2.276   4.301   6.373 -0.2728  0.6675  0.3125
  534MOL0     C71984   2.328   4.082   6.243 -0.3057 -1.4472  0.1121
  534MOL0     C71985   2.189   4.042   6.223 -0.0319  0.0681 -1.4150
  534MOL0     O71986   2.099   4.111   6.301  0.6233  0.3256 -0.1121
  534MOL0     C71987   1.964   4.094   6.305  0.1954 -1.1189 -0.6189
  534MOL0     C71988   1.894   4.159   6.410 -0.7318 -1.0112  0.3549
  534MOL0     C71989   1.757   4.147   6.435  0.4799  0.5232 -0.1599
  534MOL0     C71990   1.682   4.054   6.363  0.2237  1.7544  0.3380
  534MOL0     O71991   1.545   4.026   6.380 -0.5967 -0.0723  0.6263
  534MOL0     C71992   1.457   3.999   6.266 -0.7362  0.1744 -0.3974
  534MOL0     C71993   1.324   3.941   6.306  0.0628  0.2985  0.4557
  534MOL0     C71994   1.210   3.946   6.201  0.0207  0.3586  0.0162
  534MOL0     C71995   1.080   3.890   6.253 -0.2396 -0.0906 -0.1941
  534MOL0     C71996   0.975   3.941   6.153  0.1851 -0.4885  0.2717
  534MOL0     C71997   0.838   3.877   6.176 -0.2957  0.1025 -0.3383
  534MOL0     C71998   0.735   3.938   6.074 -0.1526  0.0722 -0.2517
  534MOL0     C71999   0.599   3.890   6.108  0.2258 -0.1758  0.5639
  534MOL0    Cl72000   0.556   3.722   6.083 -0.4195  0.1836  0.0662
  534MOL0     C72001   1.756   3.981   6.266 -0.3068 -0.6578  0.0948
  534MOL0     C72002   1.892   4.002   6.232 -0.0075  0.2073 -0.1762
  534MOL0     O72003   2.166   3.957   6.139  0.0256 -0.3145  0.2797
  534MOL0     C72004   2.424   3.998   6.200 -0.1687 -1.0153 -0.1862
  534MOL0     C72005   2.563   4.033   6.215  0.3119 -0.0790 -0.2053
  534MOL0     N72006   3.276   4.179   6.542  0.5805 -0.7793  0.1537
  534MOL0     N72007   3.384   4.110   6.534 -0.1230 -0.1689  0.4827
  534MOL0     C72008   4.488   4.426   6.466  0.1585  0.3007 -0.3741
  534MOL0     C72009   4.624   4.446   6.508 -0.0313 -0.0366  0.2204
  534MOL0     C72010   5.009   4.691   6.575  0.6756  0.3347 -0.6947
  534MOL0     C72011   5.093   4.782   6.508  0.6748  0.1519  0.4578
  534MOL0     C72012   5.223   4.798   6.554  0.3328  0.1699 -0.2834
  534MOL0     C72013   5.266   4.717   6.663 -0.3982  0.1504 -0.1129
  534MOL0     O72014   5.401   4.712   6.689 -0.4345 -0.2642  0.2805
  534MOL0     C72015   5.458   4.589   6.740 -1.2883 -0.4541  0.0671
  534MOL0     C72016   5.615   4.623   6.759 -0.1081  0.0239 -0.0604
  534MOL0     C72017   5.636   4.763   6.817 -0.0598  0.2367  0.5173
  534MOL0     C72018   5.776   4.793   6.858 -0.3818 -0.3823  0.0382
  534MOL0     C72019   5.856   4.694   6.926 -0.7519 -1.1155 -0.6896
  534MOL0     C72020   5.918   4.606   6.975 -0.0955  0.2390 -0.3385
  534MOL0     C72021   5.184   4.624   6.728 -0.0417 -0.1554  0.2263
  534MOL0     C72022   5.054   4.612   6.687 -0.1171 -1.0989 -0.1938
  534MOL0     H72023   4.582   4.768   6.638  1.0501 -0.5932  0.9440
  534MOL0     H72024   4.357   4.724   6.565 -0.0110 -0.4886 -1.0481
  534MOL0     H72025   4.172   4.576   6.624 -1.6294  2.3017 -0.1445
  534MOL0     H72026   4.170   4.677   6.477 -0.5609  1.6203  2.1965
  534MOL0     H72027   3.947   4.604   6.531 -1.1168 -1.9357  0.4678
  534MOL0     H72028   3.997   4.518   6.382  0.9262  0.2222 -0.5097
  534MOL0     H72029   4.067   4.320   6.555 -0.4559 -0.8513 -4.6600
  534MOL0     H72030   3.952   4.402   6.653  1.5191 -0.1292  0.7714
  534MOL0     H72031   3.786   4.395   6.481  2.0620  1.8340 -1.5554
  534MOL0     H72032   3.892   4.278   6.397  1.1578  1.1256  0.5096
  534MOL0     H72033   3.887   4.120   6.576 -0.1211 -0.5309  0.1006
  534MOL0     H72034   3.811   4.238   6.688  4.5056 -0.0083 -0.2865
  534MOL0     H72035   3.637   4.075   6.617 -0.6576  0.3685 -1.6917
  534MOL0     H72036   3.599   4.226   6.570  0.6809  0.7997  1.6158
  534MOL0     H72037   3.674   4.190   6.325 -0.6722  1.4142 -0.5197
  534MOL0     H72038   3.745   4.029   6.381 -0.2341  0.9196 -1.8007
  534MOL0     H72039   3.547   3.927   6.413 -0.6213  0.2642  0.8912
  534MOL0     H72040   3.550   4.003   6.252  2.4604 -0.7868  0.0289
  534MOL0     H72041   3.339   4.165   6.219  1.0032 -2.1623 -0.2142
  534MOL0     H72042   3.072   4.326   6.467 -2.7181 -2.8392 -0.3684
  534MOL0     H72043   3.170   4.388   6.319  2.5689 -1.5635 -2.0013
  534MOL0     H72044   3.061   4.215   6.171  2.7735  0.5727  0.4187
  534MOL0     H72045   2.942   4.320   6.249  0.8039  1.0401  0.5061
  534MOL0     H72046   2.938   4.141   6.444 -1.8605 -1.8988  0.6531
  534MOL0     H72047   3.029   4.036   6.330 -2.8418 -2.4016 -2.3242
  534MOL0     H72048   2.807   3.980   6.301 -0.8912  0.0915 -0.7240
  534MOL0     H72049   2.849   4.072   6.165 -2.3094 -1.2886  0.6172
  534MOL0     H72050   2.524   4.318   6.389 -0.4008 -0.2907 -0.1258
  534MOL0     H72051   2.195   4.335   6.308  1.3456  4.9101  0.2182
  534MOL0     H72052   2.236   4.256   6.464 -0.6103 -1.5491 -0.8595
  534MOL0     H72053   2.323   4.390   6.415 -1.3736  0.2106  2.6262
  534MOL0     H72054   1.950   4.226   6.475 -0.6872 -0.3720 -0.3372
  534MOL0     H72055   1.722   4.192   6.527  1.6982  2.9516 -0.7946
  534MOL0     H72056   1.438   4.088   6.204 -1.3124  0.0523 -0.4058
  534MOL0     H72057   1.506   3.920   6.208  0.1907  0.5191 -0.1059
  534MOL0     H72058   1.332   3.835   6.331 -0.9439 -0.2312 -1.2677
  534MOL0     H72059   1.272   3.988   6.390 -0.6536 -0.4068  0.4259
  534MOL0     H72060   1.237   3.899   6.105 -2.8564 -0.5474 -0.4330
  534MOL0     H72061   1.197   4.051   6.173 -2.3893 -0.3113 -1.7142
  534MOL0     H72062   1.082   3.781   6.243 -0.1486 -0.0542 -0.5895
  534MOL0     H72063   1.068   3.919   6.357  1.4441  1.1951 -0.3134
  534MOL0     H72064   1.021   3.923   6.056  1.4335  2.3588  0.2495
  534MOL0     H72065   0.973   4.048   6.174  2.9404 -0.6753  1.9927
  534MOL0     H72066   0.849   3.773   6.144  2.0546  0.3713 -0.5384
  534MOL0     H72067   0.808   3.883   6.281 -0.0466  1.9482 -0.3369
  534MOL0     H72068   0.768   3.917   5.972  0.1987  1.9820 -0.5606
  534MOL0     H72069   0.744   4.047   6.073  0.8232  0.0071 -1.6485
  534MOL0     H72070   0.528   3.940   6.042  0.2606 -0.1294  0.5612
  534MOL0     H72071   0.566   3.921   6.208 -2.9974 -2.0993  0.2174
  534MOL0     H72072   1.708   3.903   6.207 -0.4153 -1.0884  0.7294
  534MOL0     H72073   1.935   3.944   6.151  1.6376 -1.0867  1.5315
  534MOL0     H72074   2.392   3.907   6.152  1.6468 -1.3368 -0.8279
  534MOL0     H72075   2.631   3.959   6.174  1.0460  0.3127  0.2845
  534MOL0     H72076   4.455   4.347   6.399 -0.6966  0.4367 -0.1288
  534MOL0     H72077   4.695   4.375   6.467 -1.4151 -0.4435 -1.6745
  534MOL0     H72078   5.062   4.838   6.420 -0.4781 -2.3970 -0.8985
  534MOL0     H72079   5.292   4.867   6.507 -1.0315  1.3527 -0.6623
  534MOL0     H72080   5.409   4.583   6.837 -2.1561  5.2190  0.3471
  534MOL0     H72081   5.432   4.510   6.668  0.7712 -1.4815  0.3893
  534MOL0     H72082   5.674   4.616   6.667 -0.0633 -4.2784  0.1115
  534MOL0     H72083   5.656   4.548   6.827  0.5036  0.0507 -0.3956
  534MOL0     H72084   5.563   4.780   6.896 -0.8005  0.9559 -0.2967
  534MOL0     H72085   5.617   4.830   6.732  0.7269  0.5860  0.6101
  534MOL0     H72086   5.768   4.885   6.917 -2.5503  0.3703 -1.3406
  534MOL0     H72087   5.834   4.822   6.770 -0.6908 -0.4389 -0.1842
  534MOL0     H72088   5.981   4.526   7.010 -1.8173 -0.6214  0.9366
  534MOL0     H72089   5.211   4.567   6.816 -1.1583  0.5135  1.0376
  534MOL0     H72090   4.988   4.551   6.748  0.9328 -0.2469  1.8913
  535MOL0     O72091   2.434   9.080   7.741  0.6170 -0.2070 -0.2897
  535MOL0     C72092   2.492   9.191   7.715  0.7023 -0.4742  0.4703
  535MOL0     O72093   2.454   9.296   7.631 -0.1313 -0.4519  0.4465
  535MOL0     C72094   2.337   9.283   7.562  0.3061  0.0824  0.3611
  535MOL0     C72095   2.297   9.168   7.489  0.0673 -0.7560 -0.2270
  535MOL0     C72096   2.165   9.179   7.427  0.0085  0.4974  0.2424
  535MOL0     C72097   2.086   9.295   7.428 -0.3900 -0.1722 -0.9926
  535MOL0     O72098   1.962   9.293   7.371  0.2525 -0.5127  0.1854
  535MOL0     C72099   1.942   9.390   7.274  0.8324 -0.4397 -0.0867
  535MOL0     C72100   1.832   9.344   7.172  0.1454 -0.7792 -0.1035
  535MOL0     C72101   1.692   9.311   7.243  0.5848  0.4771  0.9175
  535MOL0     C72102   1.595   9.311   7.128  0.3041  0.7764 -0.4136
  535MOL0     C72103   1.454   9.364   7.181 -1.2037  0.3265 -0.2746
  535MOL0     C72104   1.349   9.384   7.071  0.6833 -0.1322 -0.1102
  535MOL0     C72105   1.201   9.421   7.117 -0.3744 -0.0173  0.1854
  535MOL0     C72106   1.103   9.401   7.006 -0.1189 -0.2652 -0.8857
  535MOL0     N72107   0.995   9.485   7.055  0.2215  0.7840 -0.0336
  535MOL0     C72108   0.904   9.451   7.149 -0.4419 -0.0976 -0.7876
  535MOL0     C72109   0.843   9.569   7.170  0.9021  1.1874  0.1671
  535MOL0     C72110   0.733   9.571   7.274 -0.1826  0.4107 -0.0398
  535MOL0     C72111   0.590   9.570   7.212  0.2335 -0.9933  0.7633
  535MOL0     C72112   0.489   9.543   7.321 -0.2105  0.1155 -0.2707
  535MOL0     C72113   0.353   9.617   7.300  0.0771  0.2735  0.3876
  535MOL0     O72114   0.281   9.616   7.422  0.5633  0.0715  0.1028
  535MOL0     C72115   0.146   9.639   7.423  0.3035 -0.6068  0.3884
  535MOL0     C72116   0.048   9.586   7.344 -0.2383  0.3817 -1.0079
  535MOL0     C72117  -0.092   9.603   7.361 -0.2393 -0.3616 -0.2091
  535MOL0     C72118  -0.195   9.528   7.267  0.5220  0.3133  0.4712
  535MOL0     C72119  -0.134   9.691   7.464  0.6693 -0.8341  0.2108
  535MOL0     C72120  -0.278   9.720   7.484 -0.2667 -0.4613 -0.1839
  535MOL0     O72121  -0.364   9.621   7.475  0.1874  0.5979 -0.3561
  535MOL0     C72122  -0.494   9.641   7.509  0.3471  0.8147 -0.0746
  535MOL0     C72123  -0.586   9.682   7.412 -0.9005 -0.4680 -0.9379
  535MOL0     C72124  -0.719   9.718   7.443 -0.4859  0.6599 -0.0391
  535MOL0     C72125  -0.771   9.681   7.570  0.0582 -0.0921  0.1944
  535MOL0     O72126  -0.900   9.710   7.585 -0.2290 -0.7909  0.3137
  535MOL0     C72127  -0.975   9.675   7.701 -0.1428  0.0568  0.1162
  535MOL0     C72128  -0.956   9.774   7.816  1.3299 -0.3077 -0.1142
  535MOL0     C72129  -1.036   9.754   7.944 -1.1531  0.2085 -0.1892
  535MOL0     C72130  -0.995   9.862   8.041  0.2013 -0.9276  0.0133
  535MOL0     C72131  -1.101   9.847   8.151 -0.5553  0.0600 -1.2122
  535MOL0     C72132  -1.113   9.960   8.252  0.4877  0.1384  0.5101
  535MOL0     C72133  -1.162  10.082   8.180  0.6859  0.6899  0.4248
  535MOL0     C72134  -1.247  10.184   8.265  0.0372 -0.5741  0.7255
  535MOL0    Cl72135  -1.418  10.119   8.269  0.0965 -0.4892 -0.5005
  535MOL0     C72136  -0.678   9.612   7.657  0.0678  0.1669 -1.0636
  535MOL0     C72137  -0.545   9.600   7.629 -0.1778 -0.8958  0.4157
  535MOL0     O72138  -0.318   9.833   7.518  0.1405 -0.7191  0.0647
  535MOL0     C72139  -0.038   9.763   7.538 -0.5911 -0.2220  0.2460
  535MOL0     C72140   0.098   9.732   7.510  0.5750 -0.3010  0.2035
  535MOL0     N72141   0.891   9.665   7.083  0.2379 -0.3354 -0.0196
  535MOL0     N72142   0.985   9.613   7.015  0.4597 -0.0267 -0.2815
  535MOL0     C72143   2.142   9.412   7.485  0.0428 -0.2276  0.1672
  535MOL0     C72144   2.261   9.409   7.554  0.3402  0.6103  0.0879
  535MOL0     C72145   2.635   9.197   7.756  0.2455  0.0709  0.1792
  535MOL0     C72146   2.693   9.081   7.811  0.0009  0.1253  0.4126
  535MOL0     C72147   2.835   9.075   7.832 -0.4320 -0.2284  0.2295
  535MOL0     C72148   2.918   9.181   7.799 -0.0585 -0.2747  0.0853
  535MOL0     O72149   3.055   9.182   7.815  0.8857 -0.0685 -0.0915
  535MOL0     C72150   3.130   9.060   7.836  0.2842  0.1121  0.1683
  535MOL0     C72151   3.142   9.022   7.986 -0.1344 -1.0280 -0.0346
  535MOL0     C72152   3.197   8.882   8.008 -0.4003 -0.1474  0.9026
  535MOL0     C72153   3.188   8.841   8.153 -0.1458  0.0432 -0.0470
  535MOL0     C72154   3.259   8.928   8.247  0.1798 -0.1298  0.5202
  535MOL0     C72155   3.306   9.006   8.320  0.0087 -0.1502  0.1751
  535MOL0     C72156   2.859   9.299   7.758  0.0217 -0.2823 -0.6860
  535MOL0     C72157   2.723   9.306   7.734 -0.6795  0.0734 -0.2637
  535MOL0     H72158   2.362   9.081   7.486  0.3488 -0.5474 -0.1985
  535MOL0     H72159   2.136   9.088   7.377  0.2566 -0.6740  2.1416
  535MOL0     H72160   1.919   9.484   7.325 -0.3931  1.2742 -3.4287
  535MOL0     H72161   2.034   9.422   7.224  0.1423  0.2357 -0.9623
  535MOL0     H72162   1.825   9.425   7.100  0.7864 -0.8538 -0.2494
  535MOL0     H72163   1.868   9.260   7.113  1.0016  1.4722 -2.9926
  535MOL0     H72164   1.698   9.210   7.285 -0.9728  0.9905  2.5088
  535MOL0     H72165   1.658   9.378   7.323 -0.0380  0.6131  0.5485
  535MOL0     H72166   1.626   9.372   7.044  1.0947 -1.4275 -1.7978
  535MOL0     H72167   1.587   9.213   7.080  0.0071  0.7366 -0.2871
  535MOL0     H72168   1.425   9.293   7.259  0.7355 -0.7499 -0.4489
  535MOL0     H72169   1.473   9.455   7.238 -2.2192  0.7485 -0.5859
  535MOL0     H72170   1.379   9.465   7.003  1.2119 -0.2542 -0.0232
  535MOL0     H72171   1.341   9.300   7.001  0.3750 -0.5721  0.4409
  535MOL0     H72172   1.166   9.358   7.199 -1.1701  2.8730  2.2154
  535MOL0     H72173   1.220   9.526   7.141 -1.6985  1.4361 -4.1976
  535MOL0     H72174   1.059   9.301   7.016 -2.8024  1.0725  5.1683
  535MOL0     H72175   1.150   9.422   6.910  0.8874 -0.7658 -0.5168
  535MOL0     H72176   0.883   9.355   7.195 -1.6054  1.1593  1.4629
  535MOL0     H72177   0.745   9.488   7.345  0.9671  0.1742 -0.4813
  535MOL0     H72178   0.741   9.668   7.324  0.8726 -0.6051  1.8937
  535MOL0     H72179   0.593   9.490   7.137 -0.9845  0.5414 -1.0355
  535MOL0     H72180   0.558   9.652   7.146 -3.5642 -3.0695 -0.2686
  535MOL0     H72181   0.538   9.577   7.413 -0.5299  0.2183 -0.1356
  535MOL0     H72182   0.468   9.436   7.329 -1.8170  0.4167  0.0388
  535MOL0     H72183   0.306   9.563   7.217  0.7912 -1.2528  0.9278
  535MOL0     H72184   0.363   9.722   7.272 -0.4425  0.0770 -0.5786
  535MOL0     H72185   0.068   9.506   7.274 -0.4167 -2.0997  1.6078
  535MOL0     H72186  -0.259   9.455   7.318 -0.1857  1.4095  1.1868
  535MOL0     H72187  -0.248   9.607   7.214 -0.5420  1.2722  2.8158
  535MOL0     H72188  -0.142   9.470   7.191  1.3742 -0.3683  1.5376
  535MOL0     H72189  -0.552   9.679   7.309  1.2964 -1.6337 -0.2342
  535MOL0     H72190  -0.784   9.758   7.366  0.7123  1.0728 -0.8625
  535MOL0     H72191  -1.079   9.671   7.670 -0.2166 -0.1343  0.3816
  535MOL0     H72192  -0.951   9.574   7.737  1.1326  0.9708  2.0275
  535MOL0     H72193  -0.852   9.782   7.849  0.6284 -0.1391  2.2553
  535MOL0     H72194  -0.978   9.872   7.774  0.5686 -2.1616 -4.5712
  535MOL0     H72195  -1.015   9.654   7.983 -0.3409  0.0164 -1.0719
  535MOL0     H72196  -1.142   9.754   7.921 -1.0217 -1.1332 -0.8699
  535MOL0     H72197  -0.890   9.855   8.072  1.0673 -0.5367 -2.6275
  535MOL0     H72198  -1.016   9.953   7.984 -1.5946 -3.1054 -3.1301
  535MOL0     H72199  -1.078   9.760   8.213 -1.4708  0.9674  0.4791
  535MOL0     H72200  -1.204   9.834   8.118 -2.4593  1.7186  3.2163
  535MOL0     H72201  -1.184   9.934   8.329 -0.7335  0.5604 -0.4396
  535MOL0     H72202  -1.016   9.986   8.296  0.8919  1.4762 -1.0419
  535MOL0     H72203  -1.223  10.048   8.096  1.5607 -1.8003  0.7157
  535MOL0     H72204  -1.071  10.129   8.142  0.9944 -1.0331 -1.0460
  535MOL0     H72205  -1.254  10.281   8.214 -1.0075 -1.6075 -1.1934
  535MOL0     H72206  -1.198  10.201   8.361  1.9608  1.6327 -0.5458
  535MOL0     H72207  -0.714   9.562   7.746 -0.7634  1.1188 -0.8555
  535MOL0     H72208  -0.463   9.563   7.690  1.9854  0.8036 -1.2964
  535MOL0     H72209  -0.061   9.833   7.617 -1.0687 -0.3670  0.2351
  535MOL0     H72210   0.173   9.787   7.565 -0.3534  1.0365  0.1707
  535MOL0     H72211   2.085   9.503   7.472  0.4649 -0.1309 -1.1543
  535MOL0     H72212   2.307   9.495   7.603 -1.3012  1.3560  0.3945
  535MOL0     H72213   2.629   8.998   7.841  0.0349  0.2615  0.8790
  535MOL0     H72214   2.875   8.982   7.872 -1.9339 -1.0669 -0.1685
  535MOL0     H72215   3.096   8.970   7.784 -2.3538  2.4594 -2.6279
  535MOL0     H72216   3.232   9.086   7.805 -0.5114  2.0116 -1.1177
  535MOL0     H72217   3.042   9.033   8.030 -0.5221 -0.5747 -0.9965
  535MOL0     H72218   3.206   9.092   8.040  0.9140 -0.5212 -1.8566
  535MOL0     H72219   3.300   8.864   7.974  0.2862 -1.8822  3.6015
  535MOL0     H72220   3.130   8.815   7.954  0.6537  0.8397 -1.8111
  535MOL0     H72221   3.228   8.740   8.164  1.2109  0.2486 -2.4812
  535MOL0     H72222   3.084   8.829   8.188  0.0060 -0.1829  0.3327
  535MOL0     H72223   3.349   9.080   8.386 -1.1237 -0.0425  0.8133
  535MOL0     H72224   2.928   9.382   7.743  0.6000 -0.7806 -0.8525
  535MOL0     H72225   2.685   9.401   7.698  0.5842  0.7652  0.1301
  536MOL0     O72226   3.499   7.386  10.147  0.3519 -0.0444  0.3347
  536MOL0     C72227   3.492   7.345  10.032  0.6257  0.0905 -0.1888
  536MOL0     O72228   3.380   7.319   9.969  0.3560 -0.1545 -0.0061
  536MOL0     C72229   3.268   7.299  10.046  0.7509 -0.4168  0.8641
  536MOL0     C72230   3.151   7.333   9.973  0.0315  0.1067 -0.0067
  536MOL0     C72231   3.022   7.301  10.010  0.0522 -0.5553 -0.0229
  536MOL0     C72232   3.007   7.237  10.133  0.3074  0.1591 -0.0535
  536MOL0     O72233   2.888   7.183  10.174 -0.4820 -0.3252  0.2998
  536MOL0     C72234   2.789   7.156  10.067 -0.5922 -0.3651 -0.2280
  536MOL0     C72235   2.710   7.038  10.114  0.7243  0.0829  0.1814
  536MOL0     C72236   2.573   7.054  10.048  0.1830 -0.2020  0.4194
  536MOL0     C72237   2.467   6.946  10.052 -1.7680  0.5309  0.0453
  536MOL0     C72238   2.325   6.998  10.030 -0.4691 -0.0896  0.3640
  536MOL0     C72239   2.233   6.936  10.142  0.2799 -0.5376 -0.6420
  536MOL0     C72240   2.085   6.969  10.112  0.4147  0.4152  0.5632
  536MOL0     C72241   1.987   6.955  10.234 -0.1803  0.1625 -0.0739
  536MOL0     N72242   1.848   6.961  10.203  0.3861 -0.3928 -0.4626
  536MOL0     C72243   1.785   7.071  10.158 -0.2469 -0.2554 -0.2604
  536MOL0     C72244   1.653   7.024  10.136 -1.0363 -1.4535  0.0066
  536MOL0     C72245   1.545   7.111  10.064 -0.2325 -0.1357 -0.1105
  536MOL0     C72246   1.419   7.138  10.149  0.8127 -0.0978  0.2285
  536MOL0     C72247   1.326   7.008  10.167  0.5616  0.1269 -0.3268
  536MOL0     C72248   1.211   7.035  10.266 -0.1664 -0.6188 -0.4471
  536MOL0     O72249   1.100   7.112  10.209 -0.4321  0.4681 -0.3810
  536MOL0     C72250   0.976   7.074  10.236  0.1265  0.1872 -0.6113
  536MOL0     C72251   0.937   6.969  10.313 -0.6056  0.2611  0.2814
  536MOL0     C72252   0.797   6.940  10.335 -0.1663 -0.8263  1.0930
  536MOL0     C72253   0.763   6.819  10.404  0.0199 -0.1025 -0.3859
  536MOL0     C72254   0.696   7.027  10.283  0.6446  0.2087  0.5122
  536MOL0     C72255   0.549   7.004  10.299 -0.3801  0.6298 -0.8912
  536MOL0     O72256   0.476   7.108  10.252 -0.4665 -0.4568 -0.1947
  536MOL0     C72257   0.340   7.110  10.283 -0.6885 -0.6018  1.0270
  536MOL0     C72258   0.247   7.026  10.229 -0.3123  0.8657  0.1695
  536MOL0     C72259   0.114   7.047  10.253  0.2907  0.7611 -1.3549
  536MOL0     C72260   0.068   7.154  10.334  0.6156  0.3447  1.0129
  536MOL0     O72261  -0.066   7.181  10.349  0.3338 -0.5142 -0.0763
  536MOL0     C72262  -0.162   7.139  10.253  0.5367  0.4411 -0.2225
  536MOL0     C72263  -0.304   7.158  10.299  0.7358  0.4374 -0.8406
  536MOL0     C72264  -0.382   7.284  10.248 -0.1811  0.3744 -0.7623
  536MOL0     C72265  -0.324   7.424  10.268  0.0017 -0.7286 -0.9421
  536MOL0     C72266  -0.426   7.528  10.245  0.7253 -0.1608 -0.5173
  536MOL0     C72267  -0.384   7.678  10.239  1.0645  0.1267 -0.2185
  536MOL0     C72268  -0.333   7.728  10.376  0.7081  0.4955  0.1290
  536MOL0     C72269  -0.450   7.750  10.479  0.2348  0.4084  0.1757
  536MOL0    Cl72270  -0.408   7.860  10.609 -0.0503  0.4208  0.1579
  536MOL0     C72271   0.162   7.241  10.389 -0.1585  0.3600 -0.1352
  536MOL0     C72272   0.296   7.213  10.375 -0.6381 -0.1881 -0.0342
  536MOL0     O72273   0.506   6.903  10.359 -0.5649  0.6900  0.3613
  536MOL0     C72274   0.740   7.139  10.211 -0.3819 -0.5357  0.0253
  536MOL0     C72275   0.880   7.167  10.191 -0.4616  0.9603  0.6728
  536MOL0     N72276   1.651   6.892  10.165  0.9237 -0.2700 -0.6790
  536MOL0     N72277   1.764   6.856  10.211 -0.0045  0.1096 -0.4169
  536MOL0     C72278   3.111   7.204  10.212 -0.4111 -0.5188 -0.2425
  536MOL0     C72279   3.242   7.227  10.166 -0.2461 -0.1436 -0.1218
  536MOL0     C72280   3.607   7.349   9.945  0.1442  0.4496  0.5144
  536MOL0     C72281   3.604   7.274   9.823 -0.2989  0.2447  0.5916
  536MOL0     C72282   3.724   7.271   9.746  1.2882 -0.1204  0.1017
  536MOL0     C72283   3.839   7.335   9.786  0.2576 -0.0081 -0.0017
  536MOL0     O72284   3.952   7.321   9.703  0.4791 -0.8052 -0.2688
  536MOL0     C72285   4.075   7.379   9.738  1.0009 -0.5637 -0.0295
  536MOL0     C72286   4.169   7.365   9.622 -0.3106  0.2490  0.2596
  536MOL0     C72287   4.217   7.225   9.591  0.4712  0.4925  0.2238
  536MOL0     C72288   4.328   7.215   9.497  0.0337 -0.4808  0.4400
  536MOL0     C72289   4.384   7.080   9.487 -0.1195 -0.6850  0.1196
  536MOL0     C72290   4.441   6.973   9.488  0.4194 -0.2036 -0.3490
  536MOL0     C72291   3.842   7.400   9.913 -0.0776 -0.2176  0.4441
  536MOL0     C72292   3.724   7.403   9.994 -0.5120  0.3445 -0.2190
  536MOL0     H72293   3.167   7.390   9.882  1.9133  2.3337  1.5854
  536MOL0     H72294   2.941   7.319   9.940 -0.3113 -0.8473  0.3240
  536MOL0     H72295   2.724   7.243  10.049  1.0659  0.7143 -1.2764
  536MOL0     H72296   2.837   7.129   9.973 -0.2688 -5.2839  1.1091
  536MOL0     H72297   2.754   6.941  10.088 -2.6341 -2.0518  1.8426
  536MOL0     H72298   2.692   7.036  10.222 -0.9208 -0.2261 -0.0825
  536MOL0     H72299   2.537   7.137  10.110 -1.0025 -0.3750 -0.0006
  536MOL0     H72300   2.583   7.089   9.945  2.0961  2.8591  1.5313
  536MOL0     H72301   2.492   6.880   9.969 -0.6314 -1.0849  1.6149
  536MOL0     H72302   2.473   6.892  10.147  0.1777  1.0842  0.2869
  536MOL0     H72303   2.308   7.104  10.046 -2.6400 -0.0954 -1.3977
  536MOL0     H72304   2.302   6.983   9.924 -0.8799 -0.1147  0.4581
  536MOL0     H72305   2.238   6.828  10.160  0.9149 -0.2658  0.8988
  536MOL0     H72306   2.242   6.994  10.234 -2.3864  1.9340 -1.7696
  536MOL0     H72307   2.075   7.073  10.078 -0.6575  0.4732  1.0143
  536MOL0     H72308   2.042   6.895  10.044 -0.2053 -0.9809  2.4047
  536MOL0     H72309   2.014   7.022  10.316  1.9706 -0.6443 -0.0411
  536MOL0     H72310   1.995   6.853  10.274 -0.5504  0.8747  1.9219
  536MOL0     H72311   1.828   7.167  10.132  1.9056 -1.1866 -0.4115
  536MOL0     H72312   1.590   7.201  10.023 -0.3095 -0.1504 -0.2278
  536MOL0     H72313   1.517   7.058   9.972 -0.9150  1.2119 -0.7100
  536MOL0     H72314   1.349   7.210  10.105  1.6562  0.9283  0.5148
  536MOL0     H72315   1.449   7.175  10.248  2.0831  0.4404 -0.3375
  536MOL0     H72316   1.388   6.926  10.206  0.5104 -0.6804 -1.8473
  536MOL0     H72317   1.292   6.977  10.068  0.0919 -1.9043  0.4175
  536MOL0     H72318   1.246   7.089  10.355  1.1212  0.1132 -1.3719
  536MOL0     H72319   1.178   6.935  10.295 -2.6030  0.1056 -0.5492
  536MOL0     H72320   1.005   6.906  10.369 -0.1309 -0.6183 -1.2223
  536MOL0     H72321   0.696   6.760  10.342 -1.2813  1.4476 -0.5037
  536MOL0     H72322   0.855   6.763  10.422  3.5142  5.0211 -0.2420
  536MOL0     H72323   0.715   6.837  10.501 -0.7180 -3.3641 -0.0144
  536MOL0     H72324   0.284   6.947  10.165 -0.8910  1.9772 -1.6159
  536MOL0     H72325   0.043   6.973  10.217 -0.8386  1.7178 -1.1640
  536MOL0     H72326  -0.161   7.185  10.154 -2.8304  0.2061 -0.5008
  536MOL0     H72327  -0.165   7.030  10.240  0.5626  0.3345  0.6178
  536MOL0     H72328  -0.361   7.067  10.276 -1.3820  0.8760  2.0649
  536MOL0     H72329  -0.315   7.162  10.407 -1.1893  0.9717 -1.0104
  536MOL0     H72330  -0.490   7.289  10.261 -0.0615 -0.6286  0.8248
  536MOL0     H72331  -0.383   7.263  10.140  1.7946 -1.0022 -0.5873
  536MOL0     H72332  -0.288   7.431  10.372 -2.4217  1.5345 -0.1579
  536MOL0     H72333  -0.236   7.429  10.203  0.5253 -2.3798 -0.4174
  536MOL0     H72334  -0.498   7.515  10.327  0.2256 -0.3394 -0.9814
  536MOL0     H72335  -0.474   7.500  10.151  2.4564 -3.0013 -0.6871
  536MOL0     H72336  -0.302   7.683  10.166  0.5605  1.2702 -0.7303
  536MOL0     H72337  -0.471   7.733  10.202  2.2002  1.2597 -1.2711
  536MOL0     H72338  -0.283   7.823  10.351  0.1115  0.8591  0.3010
  536MOL0     H72339  -0.259   7.665  10.426 -0.1467  0.1583  0.9875
  536MOL0     H72340  -0.477   7.648  10.508  0.0848 -0.1542 -1.7728
  536MOL0     H72341  -0.530   7.792  10.418  0.2089 -1.2351 -0.9983
  536MOL0     H72342   0.134   7.337  10.432  1.0770  0.6870 -0.0189
  536MOL0     H72343   0.372   7.285  10.406 -0.2638 -0.5105 -0.1900
  536MOL0     H72344   0.669   7.211  10.170  1.1009  1.1995  0.3440
  536MOL0     H72345   0.903   7.248  10.124 -0.3290  1.1416  0.9366
  536MOL0     H72346   3.094   7.141  10.299 -0.9908 -1.8360 -1.2764
  536MOL0     H72347   3.332   7.192  10.216 -1.0189 -0.7134  0.8868
  536MOL0     H72348   3.514   7.221   9.794  1.4015 -2.7108  0.3810
  536MOL0     H72349   3.715   7.215   9.653 -2.8337 -1.1524  0.9051
  536MOL0     H72350   4.074   7.488   9.751  0.1903 -0.5111 -0.4468
  536MOL0     H72351   4.117   7.343   9.832  1.7769 -0.0074 -0.1520
  536MOL0     H72352   4.251   7.435   9.640 -1.5304  1.7696  0.0826
  536MOL0     H72353   4.116   7.398   9.533 -1.2594  0.3709  0.8598
  536MOL0     H72354   4.136   7.159   9.560  1.4357 -0.7317  0.2452
  536MOL0     H72355   4.246   7.177   9.685 -0.1051 -0.1640  0.0718
  536MOL0     H72356   4.402   7.295   9.513  0.3444 -0.5508 -0.5306
  536MOL0     H72357   4.288   7.239   9.398 -0.2706 -2.9931 -0.0983
  536MOL0     H72358   4.482   6.874   9.483 -0.2845 -0.4433 -2.0573
  536MOL0     H72359   3.936   7.452   9.929  0.9406 -1.2501 -1.7046
  536MOL0     H72360   3.740   7.467  10.080  2.4289 -1.3393  0.6238
  537MOL0     O72361   2.222   3.952   3.143  0.0160 -0.4387 -0.5488
  537MOL0     C72362   2.265   4.024   3.234  0.8495 -0.0643  0.2835
  537MOL0     O72363   2.288   4.163   3.224  0.1081  0.4430 -0.3690
  537MOL0     C72364   2.247   4.221   3.113 -0.5069  0.2710  0.5277
  537MOL0     C72365   2.344   4.310   3.062  0.3123  0.4298 -0.1950
  537MOL0     C72366   2.307   4.389   2.953 -1.0358  1.0216  0.5583
  537MOL0     C72367   2.185   4.364   2.885  0.1812 -0.4782  0.0752
  537MOL0     O72368   2.146   4.422   2.764 -0.7388  0.0219  0.5673
  537MOL0     C72369   2.205   4.545   2.712 -0.0046 -0.1053  0.0403
  537MOL0     C72370   2.148   4.578   2.576 -0.1422 -0.0685  0.7909
  537MOL0     C72371   1.996   4.571   2.564  0.1262 -0.2885 -0.1054
  537MOL0     C72372   1.919   4.669   2.654  0.0067 -0.2251  0.1528
  537MOL0     C72373   1.764   4.641   2.652  0.0333 -0.2027 -0.1849
  537MOL0     C72374   1.684   4.740   2.730  0.1494 -0.0017 -0.2882
  537MOL0     C72375   1.540   4.696   2.748  0.3514  0.4970  0.5038
  537MOL0     C72376   1.476   4.648   2.618 -1.2249  0.7076  0.0436
  537MOL0     N72377   1.328   4.657   2.627  0.1692 -0.8986  0.1390
  537MOL0     C72378   1.251   4.575   2.711  0.2512 -0.1813 -0.4457
  537MOL0     C72379   1.124   4.610   2.691 -0.2005 -0.2915  0.2035
  537MOL0     C72380   1.004   4.543   2.754  0.3480  0.3110  0.1640
  537MOL0     C72381   0.902   4.646   2.810  0.7428 -0.3173  0.0768
  537MOL0     C72382   0.958   4.731   2.924 -0.8718 -0.0591  0.3527
  537MOL0     C72383   0.863   4.827   2.989  0.7488  0.0015  0.4506
  537MOL0     O72384   0.932   4.927   3.069 -0.5585 -0.0655 -0.1101
  537MOL0     C72385   0.852   5.002   3.144 -0.3184 -0.3094  0.7923
  537MOL0     C72386   0.808   5.122   3.094  0.1360  0.1136 -0.7022
  537MOL0     C72387   0.718   5.200   3.176 -0.0886 -0.3250 -0.0414
  537MOL0     C72388   0.642   5.306   3.104 -0.0666 -0.1279  0.0469
  537MOL0     C72389   0.693   5.180   3.312  0.2780  0.3758 -0.6579
  537MOL0     C72390   0.623   5.266   3.409 -0.0637  1.1609 -0.7071
  537MOL0     O72391   0.590   5.391   3.367  0.6208  0.0831 -0.1971
  537MOL0     C72392   0.494   5.458   3.443 -0.8924 -0.0100 -0.1335
  537MOL0     C72393   0.525   5.503   3.571 -0.1984 -0.7897  0.9291
  537MOL0     C72394   0.420   5.555   3.645  0.0793  0.1638  0.3036
  537MOL0     C72395   0.288   5.564   3.604  0.4914 -0.2047  0.0559
  537MOL0     O72396   0.198   5.616   3.694 -0.0087 -0.2447 -0.7624
  537MOL0     C72397   0.062   5.624   3.653  0.1124 -0.1612 -1.1183
  537MOL0     C72398  -0.016   5.677   3.779  0.4817 -0.1561  0.3852
  537MOL0     C72399  -0.033   5.569   3.890 -0.5698  0.9832 -0.0145
  537MOL0     C72400  -0.149   5.468   3.874  0.0030  0.4860 -0.9252
  537MOL0     C72401  -0.173   5.370   3.995  0.1835 -0.4285 -0.3115
  537MOL0     C72402  -0.054   5.278   4.014 -0.7116  0.3990 -0.3717
  537MOL0     C72403  -0.090   5.180   4.121  0.4165  0.1239  0.0314
  537MOL0     C72404  -0.151   5.048   4.057  0.2520 -0.2020  0.0525
  537MOL0    Cl72405  -0.034   4.960   3.971 -0.2815 -0.0713  0.0721
  537MOL0     C72406   0.258   5.516   3.472  0.1959 -0.0743  0.2538
  537MOL0     C72407   0.364   5.457   3.396  0.5374  0.5124 -0.3348
  537MOL0     O72408   0.583   5.208   3.512 -0.6254  0.3689  0.0752
  537MOL0     C72409   0.752   5.056   3.363 -0.3044 -0.2262  0.5836
  537MOL0     C72410   0.823   4.971   3.277 -0.7065  0.0036  0.1783
  537MOL0     N72411   1.119   4.708   2.598  0.1060 -0.0163 -0.0637
  537MOL0     N72412   1.239   4.737   2.560 -0.4060 -0.1905 -0.0124
  537MOL0     C72413   2.092   4.275   2.942 -0.2469 -0.0781  0.5500
  537MOL0     C72414   2.125   4.208   3.056 -0.4029 -0.5041 -1.0044
  537MOL0     C72415   2.291   3.962   3.366  0.0012  0.1703  0.3205
  537MOL0     C72416   2.278   3.826   3.383 -0.7554  0.3579 -1.0171
  537MOL0     C72417   2.268   3.770   3.517  0.1909 -0.2175  0.0875
  537MOL0     C72418   2.278   3.848   3.629 -1.1552 -0.3433  0.6370
  537MOL0     O72419   2.278   3.792   3.756 -0.3510  0.0586  0.2260
  537MOL0     C72420   2.311   3.863   3.885  0.4016  0.5881 -0.4415
  537MOL0     C72421   2.459   3.897   3.899  0.0266 -0.7677 -1.0161
  537MOL0     C72422   2.532   3.761   3.916 -0.2626  0.1816 -0.1127
  537MOL0     C72423   2.680   3.798   3.910 -0.1788  0.0244  0.1978
  537MOL0     C72424   2.767   3.681   3.914  0.0575  0.1562 -0.2216
  537MOL0     C72425   2.836   3.578   3.912  0.8694  0.1210 -0.0889
  537MOL0     C72426   2.291   3.983   3.612  0.1116 -0.5264  0.2703
  537MOL0     C72427   2.296   4.042   3.482 -0.6990 -0.5126 -0.6508
  537MOL0     H72428   2.441   4.321   3.109  1.7647  1.4242 -3.2230
  537MOL0     H72429   2.381   4.458   2.912 -0.3500 -0.4562 -0.7941
  537MOL0     H72430   2.188   4.621   2.789  0.3265  0.5706 -0.5431
  537MOL0     H72431   2.312   4.527   2.702  0.2955  1.6469 -0.1608
  537MOL0     H72432   2.176   4.681   2.551  2.1492 -1.5118 -3.6200
  537MOL0     H72433   2.200   4.528   2.494  2.6997  1.8338  1.2811
  537MOL0     H72434   1.949   4.583   2.466 -5.2361  0.3871  2.2020
  537MOL0     H72435   1.959   4.473   2.595  0.7233 -0.2300  0.8317
  537MOL0     H72436   1.969   4.674   2.751  0.7607  2.7544 -0.3005
  537MOL0     H72437   1.936   4.771   2.619  2.1024 -0.0958  1.3755
  537MOL0     H72438   1.734   4.646   2.547 -2.2979  1.0234  0.4755
  537MOL0     H72439   1.738   4.540   2.684  3.0855 -1.3575 -1.0171
  537MOL0     H72440   1.734   4.755   2.827 -0.4767 -0.4258  0.1035
  537MOL0     H72441   1.692   4.836   2.677  3.2239 -0.2804 -0.5505
  537MOL0     H72442   1.540   4.615   2.822 -1.3367  0.8462  0.9371
  537MOL0     H72443   1.476   4.772   2.793  1.9662  1.0186  1.9876
  537MOL0     H72444   1.519   4.551   2.594 -1.3284 -0.0386  2.6398
  537MOL0     H72445   1.507   4.717   2.538  0.0019  0.6777  0.4817
  537MOL0     H72446   1.289   4.493   2.772  1.1649  0.9229  0.5092
  537MOL0     H72447   0.954   4.474   2.685 -3.8378  1.1967  1.9940
  537MOL0     H72448   1.035   4.486   2.842 -2.7525  2.4707  2.9406
  537MOL0     H72449   0.826   4.588   2.863  2.4742 -4.3782 -1.4574
  537MOL0     H72450   0.866   4.709   2.728  0.6643  0.3225  0.5943
  537MOL0     H72451   1.033   4.797   2.878 -1.0386  0.0235  0.1951
  537MOL0     H72452   0.989   4.674   3.012  4.3788 -1.6113 -2.0584
  537MOL0     H72453   0.794   4.769   3.050 -1.7215  0.3156 -1.8645
  537MOL0     H72454   0.806   4.872   2.907 -1.1867 -0.9094  1.2532
  537MOL0     H72455   0.832   5.138   2.989  0.5001  0.6863 -0.5343
  537MOL0     H72456   0.669   5.411   3.122 -2.3815  0.3844  0.8726
  537MOL0     H72457   0.656   5.294   2.996 -0.3913  0.1204 -0.0264
  537MOL0     H72458   0.535   5.296   3.125 -0.0826 -0.5046 -0.2152
  537MOL0     H72459   0.630   5.505   3.598 -0.3516  0.4582  1.5362
  537MOL0     H72460   0.429   5.595   3.746  0.0790 -1.5320  1.0078
  537MOL0     H72461   0.046   5.690   3.567  2.1454  0.6074 -0.9608
  537MOL0     H72462   0.022   5.524   3.636 -3.4838  0.4614  2.2296
  537MOL0     H72463   0.052   5.751   3.822  0.6391  0.6276 -1.1563
  537MOL0     H72464  -0.113   5.726   3.762  1.7572  2.0886 -0.8221
  537MOL0     H72465  -0.040   5.632   3.978 -0.6226  1.2881 -0.2349
  537MOL0     H72466   0.062   5.516   3.906  0.2212  2.9706  2.6140
  537MOL0     H72467  -0.241   5.525   3.858 -2.1169 -1.3448  3.2650
  537MOL0     H72468  -0.134   5.412   3.782 -1.9085 -1.3974 -0.1619
  537MOL0     H72469  -0.261   5.308   3.977 -1.1646  1.0568  0.9094
  537MOL0     H72470  -0.190   5.427   4.086 -0.1479  3.9576 -2.8168
  537MOL0     H72471  -0.024   5.238   3.917  0.1732 -0.3466  0.1885
  537MOL0     H72472   0.032   5.340   4.043 -1.6684  0.8503  1.6978
  537MOL0     H72473  -0.159   5.222   4.194 -0.2464 -1.7688  0.5516
  537MOL0     H72474   0.000   5.155   4.179  0.8497  2.5753  0.5197
  537MOL0     H72475  -0.237   5.068   3.993 -2.3262  1.3480  3.6569
  537MOL0     H72476  -0.192   4.987   4.138 -1.2112  0.4315 -0.1796
  537MOL0     H72477   0.159   5.523   3.430  0.0800  0.7179  0.6341
  537MOL0     H72478   0.343   5.421   3.296  0.1070 -1.3239  0.3731
  537MOL0     H72479   0.734   5.006   3.458 -0.3878 -1.0410  0.1503
  537MOL0     H72480   0.858   4.876   3.317 -0.3578  0.9499  2.2301
  537MOL0     H72481   1.998   4.263   2.891  0.2685  0.4151 -0.5391
  537MOL0     H72482   2.048   4.141   3.093  0.0389  0.3826  1.7450
  537MOL0     H72483   2.274   3.747   3.308 -0.8991  1.2178 -1.9354
  537MOL0     H72484   2.270   3.665   3.541  0.9534  0.0844  1.4334
  537MOL0     H72485   2.244   3.949   3.891  0.0654  0.2712  0.5110
  537MOL0     H72486   2.290   3.797   3.970  0.6548 -0.9789 -1.5593
  537MOL0     H72487   2.474   3.961   3.987 -1.8832  1.6379 -2.3129
  537MOL0     H72488   2.482   3.948   3.805 -2.5512 -0.7568 -1.7203
  537MOL0     H72489   2.501   3.690   3.838 -3.4745  0.3365  0.8502
  537MOL0     H72490   2.518   3.711   4.013 -0.0197  0.1167 -0.1112
  537MOL0     H72491   2.707   3.870   3.987 -2.6577  2.1184 -0.7434
  537MOL0     H72492   2.693   3.848   3.813  2.1189  2.2121  1.5184
  537MOL0     H72493   2.896   3.489   3.913  0.4867 -0.1731  1.8246
  537MOL0     H72494   2.295   4.047   3.699 -0.0541  2.1208 -1.5464
  537MOL0     H72495   2.302   4.151   3.478  1.1571 -0.5290  0.3592
  538MOL0     O72496   5.089   5.480   0.809 -0.7004  0.2441  0.0656
  538MOL0     C72497   5.060   5.387   0.883  0.0783 -0.5932 -0.3211
  538MOL0     O72498   5.121   5.267   0.884 -0.9818 -0.5445  0.1428
  538MOL0     C72499   5.204   5.235   0.776  0.3175  0.2701 -0.2146
  538MOL0     C72500   5.165   5.225   0.647  0.3950 -0.7299 -0.2483
  538MOL0     C72501   5.245   5.194   0.542  0.5584  0.1586 -1.0360
  538MOL0     C72502   5.382   5.181   0.562  0.3731  0.0291  0.0761
  538MOL0     O72503   5.472   5.168   0.459 -0.3500  0.3430  0.9234
  538MOL0     C72504   5.617   5.186   0.480  0.0787  0.3700 -0.6507
  538MOL0     C72505   5.681   5.147   0.347  0.3704  0.3187  0.5121
  538MOL0     C72506   5.827   5.145   0.355 -0.0454 -0.0054  0.1509
  538MOL0     C72507   5.879   5.289   0.384  0.0393  0.7870 -0.7424
  538MOL0     C72508   6.035   5.289   0.360 -0.4911  0.5523  0.8434
  538MOL0     C72509   6.115   5.187   0.441 -0.1592 -0.2296  0.6238
  538MOL0     C72510   6.273   5.204   0.415  0.7915 -0.3797 -0.3895
  538MOL0     C72511   6.366   5.133   0.511 -0.0135 -0.1478 -0.3708
  538MOL0     N72512   6.328   5.164   0.647  0.2701 -0.8568 -0.2923
  538MOL0     C72513   6.326   5.291   0.700  0.0114 -1.0159  0.2040
  538MOL0     C72514   6.255   5.288   0.813  0.4385 -0.0738  0.2628
  538MOL0     C72515   6.226   5.407   0.905 -0.3370  0.5605  1.1647
  538MOL0     C72516   6.096   5.467   0.882  0.6949 -0.4041  0.3290
  538MOL0     C72517   5.983   5.406   0.963  0.9927 -0.6922  0.0972
  538MOL0     C72518   5.839   5.456   0.935 -0.1587 -0.5317 -0.1378
  538MOL0     O72519   5.825   5.590   0.986  0.7648 -0.1446 -0.1200
  538MOL0     C72520   5.702   5.622   1.043  0.0818  0.0997  0.2444
  538MOL0     C72521   5.581   5.550   1.037  0.3802 -0.4396 -0.0196
  538MOL0     C72522   5.463   5.588   1.105  0.4683 -0.4629 -0.2667
  538MOL0     C72523   5.344   5.506   1.096 -0.3812  1.1574  0.1783
  538MOL0     C72524   5.461   5.720   1.168 -0.4006  0.7266  0.1204
  538MOL0     C72525   5.342   5.772   1.240 -0.1753 -0.0652 -0.5472
  538MOL0     O72526   5.283   5.689   1.341 -0.0717  0.3283  0.0304
  538MOL0     C72527   5.168   5.732   1.391  0.3024  0.5317  0.7119
  538MOL0     C72528   5.148   5.816   1.505 -0.6402 -0.1928  0.7235
  538MOL0     C72529   5.020   5.834   1.565  1.1376  0.9692 -0.0385
  538MOL0     C72530   4.911   5.781   1.501 -0.4033  0.3530 -0.3062
  538MOL0     O72531   4.780   5.779   1.545 -0.1631  0.0517  0.5397
  538MOL0     C72532   4.756   5.830   1.683 -0.0759 -0.1595 -0.1408
  538MOL0     C72533   4.748   5.981   1.684 -0.4993  0.4654 -0.3654
  538MOL0     C72534   4.731   6.034   1.832 -0.5172 -0.0394 -0.3843
  538MOL0     C72535   4.780   6.181   1.837  0.8087 -0.0926  0.3679
  538MOL0     C72536   4.703   6.267   1.939 -0.4168 -0.2290  0.4149
  538MOL0     C72537   4.705   6.208   2.080 -0.2658  0.1616  0.5014
  538MOL0     C72538   4.619   6.275   2.173  0.1965  0.4997  0.1563
  538MOL0     C72539   4.470   6.280   2.149  1.0527  0.5389  0.5118
  538MOL0    Cl72540   4.379   6.124   2.174 -0.2842 -0.2449  0.5374
  538MOL0     C72541   4.927   5.702   1.381  0.4378 -1.0730  0.2379
  538MOL0     C72542   5.048   5.677   1.332 -0.3458 -0.1391  0.6073
  538MOL0     O72543   5.310   5.888   1.214  0.3171  0.4846 -0.1452
  538MOL0     C72544   5.577   5.794   1.163 -0.8744 -0.5251  0.3112
  538MOL0     C72545   5.691   5.745   1.108 -0.8499  0.5428  0.1063
  538MOL0     N72546   6.208   5.165   0.829  0.0758 -0.8175 -0.6257
  538MOL0     N72547   6.251   5.091   0.738  0.6067 -0.1701 -0.4641
  538MOL0     C72548   5.432   5.203   0.692 -0.0130  0.6569 -1.2653
  538MOL0     C72549   5.341   5.225   0.799  0.3185 -0.4333  0.6270
  538MOL0     C72550   4.958   5.403   0.985  0.1397 -0.2632  0.1512
  538MOL0     C72551   4.858   5.508   0.978  0.4166 -0.2390 -0.2955
  538MOL0     C72552   4.753   5.518   1.061 -0.9658 -0.1249 -0.1610
  538MOL0     C72553   4.748   5.442   1.180 -0.7695 -0.7918  0.5189
  538MOL0     O72554   4.652   5.462   1.280  0.4274 -0.7460 -0.7224
  538MOL0     C72555   4.602   5.344   1.348 -0.2841 -0.5635 -0.6354
  538MOL0     C72556   4.521   5.413   1.459 -0.3947  0.2906  0.5077
  538MOL0     C72557   4.433   5.536   1.431  0.5279  0.5304 -0.1060
  538MOL0     C72558   4.326   5.562   1.545  0.8004 -0.3469  0.6573
  538MOL0     C72559   4.205   5.644   1.497  1.0791 -0.1042  0.8903
  538MOL0     C72560   4.105   5.701   1.458  0.7998  0.1423 -0.0625
  538MOL0     C72561   4.851   5.349   1.195  0.4785  0.4105  0.3137
  538MOL0     C72562   4.948   5.320   1.090  0.8490  0.4942  0.6179
  538MOL0     H72563   5.060   5.249   0.638  0.8653  2.1984  0.9035
  538MOL0     H72564   5.200   5.169   0.446 -2.3736 -0.5086  0.4131
  538MOL0     H72565   5.633   5.289   0.511 -0.0301  0.6902 -1.6207
  538MOL0     H72566   5.658   5.115   0.552  3.0546  1.5146 -1.0662
  538MOL0     H72567   5.639   5.054   0.309 -2.5267  2.3842 -1.8567
  538MOL0     H72568   5.651   5.218   0.269 -0.3701  0.3255  0.8007
  538MOL0     H72569   5.855   5.070   0.430 -1.1704 -2.7579 -1.9982
  538MOL0     H72570   5.884   5.122   0.264 -1.9284  0.4732 -1.2113
  538MOL0     H72571   5.820   5.358   0.323 -1.0358  1.4668  0.9957
  538MOL0     H72572   5.858   5.321   0.486 -2.1076  1.3108 -1.2907
  538MOL0     H72573   6.059   5.289   0.253  1.3636  4.7274  1.0406
  538MOL0     H72574   6.062   5.391   0.392 -0.7388  1.7575 -2.4202
  538MOL0     H72575   6.093   5.203   0.547  1.1002  0.8372  0.7572
  538MOL0     H72576   6.091   5.090   0.397 -1.4360  0.8283 -1.1160
  538MOL0     H72577   6.301   5.173   0.314 -1.1157  1.5245 -1.5894
  538MOL0     H72578   6.304   5.308   0.427  1.2733 -0.3071 -2.0436
  538MOL0     H72579   6.467   5.155   0.475  0.2528 -1.2381 -0.3359
  538MOL0     H72580   6.354   5.024   0.507  1.1736 -0.3629  1.0562
  538MOL0     H72581   6.369   5.380   0.657  0.6361 -0.9023  1.0406
  538MOL0     H72582   6.232   5.375   1.010  0.2567 -2.7682  0.2355
  538MOL0     H72583   6.304   5.481   0.887 -2.4709  2.3410 -1.4201
  538MOL0     H72584   6.078   5.474   0.774 -2.0867  1.8320  0.8208
  538MOL0     H72585   6.110   5.568   0.922  1.0652 -0.9676  1.6639
  538MOL0     H72586   5.998   5.405   1.071  0.0145 -0.2270  0.2548
  538MOL0     H72587   5.982   5.303   0.928  1.1564 -0.0145 -2.0525
  538MOL0     H72588   5.788   5.379   0.994  0.7960  0.7295  2.5147
  538MOL0     H72589   5.824   5.463   0.827  1.8350 -0.3376 -0.4382
  538MOL0     H72590   5.573   5.452   0.992 -1.5904  0.2128 -1.2135
  538MOL0     H72591   5.259   5.574   1.082 -3.7591 -2.9538 -1.6247
  538MOL0     H72592   5.342   5.438   1.010 -0.5746 -0.7341  1.6125
  538MOL0     H72593   5.326   5.438   1.180 -1.1236 -2.6741 -2.7974
  538MOL0     H72594   5.232   5.861   1.557  1.0981 -0.3083 -1.8099
  538MOL0     H72595   5.022   5.907   1.646  2.0096  1.3153 -0.3463
  538MOL0     H72596   4.662   5.788   1.721  0.1734 -1.3023 -0.7164
  538MOL0     H72597   4.839   5.809   1.750  0.2162 -0.1085 -0.4865
  538MOL0     H72598   4.837   6.021   1.635  0.6457 -0.9149  0.4850
  538MOL0     H72599   4.669   6.010   1.614  2.1741  2.3407 -2.8284
  538MOL0     H72600   4.792   5.969   1.894 -0.9323 -3.1322 -2.9844
  538MOL0     H72601   4.623   6.033   1.851 -0.4939  0.0487 -0.2466
  538MOL0     H72602   4.888   6.175   1.854  1.0591 -0.1988 -1.1199
  538MOL0     H72603   4.768   6.227   1.739 -0.5263 -1.0443  0.0583
  538MOL0     H72604   4.605   6.288   1.896  0.2409  0.6382 -0.7158
  538MOL0     H72605   4.759   6.361   1.931 -0.6528 -0.1489 -0.4706
  538MOL0     H72606   4.671   6.104   2.079  0.8685 -0.2313 -1.2060
  538MOL0     H72607   4.808   6.207   2.116 -0.5781 -2.9448  1.5741
  538MOL0     H72608   4.654   6.374   2.203 -2.0111  1.1333  0.7823
  538MOL0     H72609   4.629   6.220   2.267 -1.5700 -1.9381 -0.9720
  538MOL0     H72610   4.458   6.330   2.053  1.9417  1.3902  0.8317
  538MOL0     H72611   4.411   6.344   2.215 -0.3204 -2.2886  2.2370
  538MOL0     H72612   4.839   5.663   1.329 -0.0922  1.0942 -0.5903
  538MOL0     H72613   5.059   5.615   1.243  0.5679  0.1746  0.4940
  538MOL0     H72614   5.571   5.896   1.202  1.2063 -0.1773 -0.1624
  538MOL0     H72615   5.787   5.795   1.100 -0.3721 -0.1817  1.1562
  538MOL0     H72616   5.532   5.175   0.722 -1.1088 -1.3491  0.8776
  538MOL0     H72617   5.389   5.250   0.894 -2.0104  4.6181  0.8358
  538MOL0     H72618   4.869   5.590   0.908  3.3157 -0.4693 -0.2526
  538MOL0     H72619   4.685   5.600   1.043  3.4365  3.5299 -2.3929
  538MOL0     H72620   4.553   5.277   1.277 -0.6541 -1.7003  0.6538
  538MOL0     H72621   4.680   5.285   1.396 -0.2374 -0.4535 -0.5772
  538MOL0     H72622   4.600   5.433   1.532  1.1332  2.5567 -1.6247
  538MOL0     H72623   4.453   5.338   1.502  0.9568 -1.2350  0.0553
  538MOL0     H72624   4.380   5.520   1.337  0.3138  0.3983  0.0342
  538MOL0     H72625   4.493   5.625   1.412  0.0146  1.2063  1.2643
  538MOL0     H72626   4.364   5.612   1.635 -1.0094  1.0729  0.6822
  538MOL0     H72627   4.289   5.465   1.577  3.7492 -2.6286 -2.1866
  538MOL0     H72628   4.019   5.759   1.429 -1.5313 -2.6747  0.7077
  538MOL0     H72629   4.851   5.287   1.284 -0.1885 -0.9311 -0.5874
  538MOL0     H72630   5.021   5.241   1.105  0.3223 -0.5573 -1.8351
  539MOL0     O72631  10.920   0.476   7.902 -0.0849 -0.0715 -1.0709
  539MOL0     C72632  10.954   0.551   7.809  1.1707  1.3632  0.3917
  539MOL0     O72633  10.869   0.614   7.718 -0.0014  0.4510  0.6958
  539MOL0     C72634  10.736   0.626   7.734  0.3686  0.6185 -0.0221
  539MOL0     C72635  10.667   0.740   7.676  0.2377  0.6414 -0.1472
  539MOL0     C72636  10.528   0.766   7.689 -0.4485  0.0327 -0.6681
  539MOL0     C72637  10.452   0.662   7.750 -0.9677 -0.3176  0.1403
  539MOL0     O72638  10.316   0.673   7.778  0.1150 -0.2368  0.3928
  539MOL0     C72639  10.238   0.756   7.684 -0.1315  0.4980  0.1987
  539MOL0     C72640  10.093   0.697   7.684  0.5439 -0.5593 -0.0131
  539MOL0     C72641  10.086   0.563   7.616 -0.2056  0.3568 -0.5547
  539MOL0     C72642   9.953   0.489   7.647 -0.0893 -1.5034 -0.4102
  539MOL0     C72643   9.937   0.354   7.567  0.6246  0.2928  0.1468
  539MOL0     C72644   9.864   0.375   7.440 -0.1295  0.2224 -0.1723
  539MOL0     C72645   9.883   0.262   7.348  1.4349 -0.2884 -0.0974
  539MOL0     C72646   9.802   0.308   7.229 -0.2680 -0.4121  0.3371
  539MOL0     N72647   9.795   0.208   7.128 -0.4793 -0.0455 -0.3588
  539MOL0     C72648   9.759   0.217   6.996 -0.1357  0.3402  0.0208
  539MOL0     C72649   9.744   0.098   6.951 -1.1724  0.0647  0.4296
  539MOL0     C72650   9.677   0.050   6.827 -0.6338  0.3428 -0.6562
  539MOL0     C72651   9.765  -0.026   6.735  0.6232 -0.5561 -0.6580
  539MOL0     C72652   9.700  -0.086   6.609 -0.0329  0.4709  0.0090
  539MOL0     C72653   9.796  -0.180   6.529  0.2320  0.2261  0.3747
  539MOL0     O72654   9.729  -0.235   6.413  0.1714 -0.6658 -0.1655
  539MOL0     C72655   9.748  -0.172   6.292 -0.2228 -0.8164  0.1361
  539MOL0     C72656   9.827  -0.056   6.266  0.5928 -0.0759  0.0974
  539MOL0     C72657   9.840  -0.004   6.137  0.3203 -0.2630 -0.1508
  539MOL0     C72658   9.901   0.137   6.129 -0.7816 -0.4553  0.1886
  539MOL0     C72659   9.797  -0.080   6.022 -0.0165 -0.4243 -0.5735
  539MOL0     C72660   9.833  -0.054   5.882 -0.6862 -0.1566  0.9441
  539MOL0     O72661   9.923   0.051   5.847 -0.2295  0.6967 -0.4873
  539MOL0     C72662  10.002   0.041   5.734  0.0229  0.2388  0.2833
  539MOL0     C72663  10.105  -0.046   5.735 -0.0733  0.6411  0.8861
  539MOL0     C72664  10.166  -0.083   5.610  0.0390 -0.8913 -0.2356
  539MOL0     C72665  10.118  -0.029   5.489 -0.5649 -0.6583 -0.8220
  539MOL0     O72666  10.176  -0.056   5.364  0.7210  0.5943 -0.1371
  539MOL0     C72667  10.261   0.044   5.312  0.7530  0.2176 -0.5311
  539MOL0     C72668  10.404   0.024   5.343 -0.3763  0.1651 -0.0789
  539MOL0     C72669  10.467  -0.098   5.266  0.4429 -0.0839 -0.4258
  539MOL0     C72670  10.614  -0.120   5.321  0.3307  0.5429 -0.1844
  539MOL0     C72671  10.678  -0.219   5.220 -0.6234  0.2819  1.2062
  539MOL0     C72672  10.825  -0.233   5.247 -0.2742  0.4497  0.4631
  539MOL0     C72673  10.902  -0.307   5.139  0.8593  0.2395  1.1139
  539MOL0     C72674  11.045  -0.337   5.172 -0.2130  0.0248 -0.0773
  539MOL0    Cl72675  11.150  -0.205   5.114 -0.7669 -0.0872 -0.6118
  539MOL0     C72676  10.022   0.078   5.489 -0.5235  0.6146 -0.2026
  539MOL0     C72677   9.957   0.107   5.618 -0.1036 -0.1427 -0.2386
  539MOL0     O72678   9.781  -0.127   5.796  0.5291 -0.0180  0.0600
  539MOL0     C72679   9.721  -0.196   6.050  1.7026  0.2484  0.6545
  539MOL0     C72680   9.697  -0.241   6.182 -0.5240  0.1086  0.1066
  539MOL0     N72681   9.791   0.010   7.043  0.1481  0.3618  0.2465
  539MOL0     N72682   9.834   0.077   7.143 -0.7869  0.0965 -0.2156
  539MOL0     C72683  10.521   0.545   7.787  0.3604 -0.3038  0.0843
  539MOL0     C72684  10.658   0.527   7.793 -0.2289 -0.5611 -0.0359
  539MOL0     C72685  11.096   0.567   7.795 -0.1802  0.0138 -0.0310
  539MOL0     C72686  11.151   0.640   7.689 -0.3823 -0.2838  0.4002
  539MOL0     C72687  11.295   0.643   7.669  0.1011 -0.1949 -0.0790
  539MOL0     C72688  11.379   0.582   7.758 -0.6295 -0.4312  0.4290
  539MOL0     O72689  11.512   0.603   7.729 -0.0798 -0.7999 -0.0877
  539MOL0     C72690  11.611   0.510   7.779  0.0887  0.3462 -0.1087
  539MOL0     C72691  11.668   0.563   7.913 -0.1458  0.0128  0.7194
  539MOL0     C72692  11.755   0.684   7.890  0.2692  0.5005 -0.7747
  539MOL0     C72693  11.902   0.642   7.853  0.0692 -0.2277 -0.1646
  539MOL0     C72694  11.996   0.757   7.839 -0.0890 -0.6258  0.2140
  539MOL0     C72695  12.071   0.849   7.847 -0.1308 -0.3134  1.1652
  539MOL0     C72696  11.324   0.517   7.868 -0.1865 -0.8085 -0.2953
  539MOL0     C72697  11.186   0.499   7.881  0.0344 -0.3134 -0.2458
  539MOL0     H72698  10.738   0.807   7.628  3.8222 -2.5636  0.2285
  539MOL0     H72699  10.477   0.854   7.652 -1.6384 -0.9558 -1.4557
  539MOL0     H72700  10.230   0.859   7.721 -1.4707  0.2664  0.5923
  539MOL0     H72701  10.288   0.763   7.587 -1.2540 -1.2779 -0.5678
  539MOL0     H72702  10.048   0.696   7.784 -0.2358  1.5051 -0.2853
  539MOL0     H72703  10.020   0.756   7.627  0.4405 -2.2247 -1.6812
  539MOL0     H72704  10.106   0.576   7.509  2.4569 -1.1967 -0.3403
  539MOL0     H72705  10.171   0.511   7.662 -1.6208 -2.3291 -0.7898
  539MOL0     H72706   9.949   0.463   7.753 -4.5814  0.3231  0.0852
  539MOL0     H72707   9.865   0.548   7.622  1.0996 -0.1455 -1.6115
  539MOL0     H72708  10.036   0.307   7.562  1.0776  1.3123 -1.0451
  539MOL0     H72709   9.886   0.278   7.626  3.6019 -4.5023 -2.7826
  539MOL0     H72710   9.761   0.400   7.466 -0.5862 -0.1513 -1.5176
  539MOL0     H72711   9.902   0.465   7.390  3.1915  0.6847  2.8124
  539MOL0     H72712   9.990   0.253   7.325  1.3887 -0.6769 -0.1685
  539MOL0     H72713   9.853   0.165   7.389 -0.4130 -0.0909 -0.8842
  539MOL0     H72714   9.841   0.402   7.190 -0.9221  0.4657  1.7201
  539MOL0     H72715   9.701   0.329   7.265 -0.7595 -2.3616  0.2182
  539MOL0     H72716   9.724   0.310   6.951  1.6856  0.5551 -1.0515
  539MOL0     H72717   9.598  -0.020   6.856 -1.8588  1.9130 -0.0391
  539MOL0     H72718   9.615   0.127   6.780  0.5031  1.9021  0.3071
  539MOL0     H72719   9.817  -0.106   6.789  2.0613 -0.8401 -2.3665
  539MOL0     H72720   9.843   0.040   6.696  1.5807 -1.4581 -0.3163
  539MOL0     H72721   9.668  -0.001   6.548 -1.3812 -0.7051 -0.9977
  539MOL0     H72722   9.617  -0.152   6.634  1.0524  0.1194  3.1087
  539MOL0     H72723   9.819  -0.260   6.601  1.1239 -0.6472 -0.8250
  539MOL0     H72724   9.892  -0.133   6.505 -0.5008  1.7981  0.3941
  539MOL0     H72725   9.889  -0.009   6.342  1.3681 -1.0296  0.0685
  539MOL0     H72726   9.978   0.154   6.053 -0.2424 -3.5458 -0.1059
  539MOL0     H72727   9.814   0.196   6.100 -1.1709 -0.4701  1.2954
  539MOL0     H72728   9.941   0.178   6.222 -0.5659  0.0938 -0.1429
  539MOL0     H72729  10.136  -0.088   5.830  1.8754 -0.9605 -0.3676
  539MOL0     H72730  10.254  -0.147   5.602 -0.3299 -1.4035 -0.2461
  539MOL0     H72731  10.250   0.062   5.204 -2.9590  1.0690 -0.1240
  539MOL0     H72732  10.229   0.141   5.352 -0.1148 -0.1283 -0.3668
  539MOL0     H72733  10.463   0.109   5.306  2.0764 -1.1037  0.6577
  539MOL0     H72734  10.408   0.002   5.450 -2.7567  1.2249  0.3011
  539MOL0     H72735  10.475  -0.074   5.159  1.1036 -1.7543 -0.7755
  539MOL0     H72736  10.398  -0.179   5.291  1.0248 -0.2334  0.7492
  539MOL0     H72737  10.666  -0.024   5.323 -0.9886  1.2775  0.3622
  539MOL0     H72738  10.604  -0.162   5.422  0.7391 -0.3958 -0.5212
  539MOL0     H72739  10.664  -0.179   5.119 -1.4533  0.6785  1.4672
  539MOL0     H72740  10.636  -0.320   5.223  1.4149 -0.8638 -2.6143
  539MOL0     H72741  10.860  -0.130   5.250 -4.4867  2.0858 -0.1193
  539MOL0     H72742  10.835  -0.283   5.345 -1.8841 -2.7756 -0.8533
  539MOL0     H72743  10.891  -0.261   5.040  0.0782 -0.1709  0.9966
  539MOL0     H72744  10.846  -0.401   5.132 -0.2719  0.9164  0.7028
  539MOL0     H72745  11.074  -0.431   5.124  0.0629 -0.5719  1.2181
  539MOL0     H72746  11.059  -0.344   5.280 -1.0714 -1.2491 -0.0199
  539MOL0     H72747   9.985   0.121   5.396 -1.1393 -1.1990 -0.8280
  539MOL0     H72748   9.878   0.181   5.615 -0.2055 -0.3008 -1.8066
  539MOL0     H72749   9.674  -0.259   5.976 -0.1125  1.2533  0.9060
  539MOL0     H72750   9.632  -0.324   6.203 -1.9408  1.4231  1.1366
  539MOL0     H72751  10.468   0.464   7.837  2.2117 -2.3607 -1.1335
  539MOL0     H72752  10.705   0.444   7.846 -1.6619 -2.9223 -2.2042
  539MOL0     H72753  11.094   0.693   7.613  0.1241 -2.4995 -1.6349
  539MOL0     H72754  11.334   0.715   7.598  2.2194  1.2770  2.4089
  539MOL0     H72755  11.574   0.407   7.791  0.5877  0.1437 -0.2924
  539MOL0     H72756  11.681   0.510   7.695 -1.1672  0.8667 -1.2035
  539MOL0     H72757  11.723   0.487   7.969 -1.9310 -0.3868  2.0320
  539MOL0     H72758  11.591   0.603   7.980  0.2233  2.3708 -0.1652
  539MOL0     H72759  11.748   0.730   7.989 -1.4358  0.2386 -0.7581
  539MOL0     H72760  11.716   0.746   7.809 -1.2628  2.0204  1.0649
  539MOL0     H72761  11.895   0.594   7.755 -0.2782 -0.9151  0.1924
  539MOL0     H72762  11.947   0.574   7.926  3.4128  1.8036 -0.1280
  539MOL0     H72763  12.129   0.937   7.862 -0.4770 -0.1299  1.4383
  539MOL0     H72764  11.387   0.465   7.939 -0.7848 -1.6367 -0.3530
  539MOL0     H72765  11.157   0.440   7.967  0.9611 -1.2804 -0.5639
  540MOL0     O72766   1.889   4.046   5.754 -0.5063  0.2744 -0.3725
  540MOL0     C72767   1.928   3.932   5.753 -0.5043  0.2572 -1.4156
  540MOL0     O72768   1.851   3.830   5.712  0.1523 -0.4759 -0.7441
  540MOL0     C72769   1.717   3.828   5.747  0.4000  0.4137  0.2363
  540MOL0     C72770   1.625   3.803   5.642 -0.7962 -0.0290 -0.4499
  540MOL0     C72771   1.481   3.812   5.668 -0.0278  0.2931  0.0359
  540MOL0     C72772   1.426   3.842   5.795 -0.3292  0.3137 -0.3962
  540MOL0     O72773   1.298   3.857   5.826 -1.0146  0.0698  0.3681
  540MOL0     C72774   1.215   3.879   5.713 -0.1106  0.5221 -0.4617
  540MOL0     C72775   1.076   3.932   5.762 -0.0828 -0.5897  0.1925
  540MOL0     C72776   0.996   3.956   5.635  1.5602  0.4971  0.0888
  540MOL0     C72777   0.869   4.040   5.658  0.5054 -0.6025 -0.7407
  540MOL0     C72778   0.791   4.071   5.532 -0.6260  0.1757  1.0286
  540MOL0     C72779   0.700   4.187   5.558  0.6195  0.5287  0.6641
  540MOL0     C72780   0.605   4.203   5.440 -0.2873  0.2602  0.4974
  540MOL0     C72781   0.529   4.333   5.455 -0.5374 -0.2522  0.2602
  540MOL0     N72782   0.453   4.367   5.336  0.0759  0.2129  0.8616
  540MOL0     C72783   0.412   4.293   5.224  0.1077  1.1893 -1.0190
  540MOL0     C72784   0.328   4.364   5.157 -0.3302 -0.5379  0.8076
  540MOL0     C72785   0.262   4.312   5.032 -0.5237  0.2968 -0.1243
  540MOL0     C72786   0.110   4.305   5.050 -0.0351  0.9079  0.4474
  540MOL0     C72787   0.054   4.446   5.081  0.3701  0.0033 -0.0526
  540MOL0     C72788  -0.092   4.475   5.070 -0.4579 -0.1586 -1.5786
  540MOL0     O72789  -0.140   4.450   4.939 -0.8832  0.2461 -0.0182
  540MOL0     C72790  -0.275   4.459   4.920 -0.1512  0.0728  0.1269
  540MOL0     C72791  -0.320   4.409   4.795  0.2280  0.0722 -0.2930
  540MOL0     C72792  -0.453   4.404   4.748  0.0189  0.1239 -0.1344
  540MOL0     C72793  -0.489   4.323   4.630 -1.2311  0.5907  0.3466
  540MOL0     C72794  -0.555   4.470   4.825  0.2654 -0.4303 -0.0281
  540MOL0     C72795  -0.703   4.482   4.787 -0.6719 -0.0562 -0.8014
  540MOL0     O72796  -0.790   4.511   4.889 -0.3804  0.9820  0.7564
  540MOL0     C72797  -0.918   4.502   4.854 -0.1873  0.2688  0.1835
  540MOL0     C72798  -0.995   4.393   4.903 -0.6106 -0.4160 -0.1247
  540MOL0     C72799  -1.126   4.375   4.872 -0.0710 -0.3823  0.1734
  540MOL0     C72800  -1.197   4.465   4.797 -0.6911 -0.8237 -0.5354
  540MOL0     O72801  -1.327   4.439   4.789  0.1548 -0.8818  0.0162
  540MOL0     C72802  -1.411   4.551   4.799  0.4477 -0.9797 -0.7081
  540MOL0     C72803  -1.518   4.571   4.688 -1.5702  0.1016 -0.1071
  540MOL0     C72804  -1.457   4.592   4.550  0.9647  0.1848 -0.8382
  540MOL0     C72805  -1.364   4.485   4.491 -0.1360  0.3896  0.3170
  540MOL0     C72806  -1.330   4.511   4.348 -0.8425 -0.2000  0.3397
  540MOL0     C72807  -1.228   4.627   4.324  0.3701 -0.0077  0.2839
  540MOL0     C72808  -1.082   4.562   4.341  0.1041  0.0449 -0.4816
  540MOL0     C72809  -0.969   4.659   4.308  0.7213 -0.4079  0.2761
  540MOL0    Cl72810  -0.924   4.761   4.444  0.2194  0.0368  0.2639
  540MOL0     C72811  -1.125   4.581   4.748  0.2782 -0.7292 -1.0472
  540MOL0     C72812  -0.990   4.603   4.781 -1.0549 -0.4406  0.3030
  540MOL0     O72813  -0.732   4.462   4.671 -1.1184  0.1549 -0.3948
  540MOL0     C72814  -0.520   4.521   4.953 -0.5028  0.3947 -0.1101
  540MOL0     C72815  -0.383   4.508   4.999  1.3288  0.1555 -0.5401
  540MOL0     N72816   0.328   4.493   5.221  0.4852 -0.1358  0.1237
  540MOL0     N72817   0.397   4.488   5.325  0.2098 -0.1660 -0.1545
  540MOL0     C72818   1.520   3.853   5.895  0.3071 -0.2366 -0.0377
  540MOL0     C72819   1.664   3.852   5.877  0.1279  0.8309 -0.0509
  540MOL0     C72820   2.065   3.886   5.790 -0.4106 -0.3308 -0.1428
  540MOL0     C72821   2.097   3.753   5.831 -0.1020 -0.4626  0.6051
  540MOL0     C72822   2.222   3.725   5.874 -0.6977 -0.4317  0.6231
  540MOL0     C72823   2.329   3.822   5.881 -0.0855  0.2199  0.3919
  540MOL0     O72824   2.458   3.796   5.927 -0.2398  0.1931  0.5771
  540MOL0     C72825   2.501   3.657   5.931 -0.5127  0.3590 -0.2611
  540MOL0     C72826   2.477   3.590   6.064  1.1556  0.6190  0.0761
  540MOL0     C72827   2.575   3.637   6.175  0.3094  0.2810  0.2232
  540MOL0     C72828   2.571   3.526   6.285  0.0505  0.0010 -0.0455
  540MOL0     C72829   2.436   3.506   6.340 -0.3643 -0.4053  0.5426
  540MOL0     C72830   2.325   3.504   6.385  0.2561 -0.9600  0.0817
  540MOL0     C72831   2.290   3.950   5.841 -0.6518  0.5152  0.4554
  540MOL0     C72832   2.161   3.983   5.799 -0.2477 -0.1530  0.8178
  540MOL0     H72833   1.652   3.788   5.538  1.6857  3.0490 -0.3843
  540MOL0     H72834   1.412   3.796   5.586 -0.4480 -0.7198  0.5811
  540MOL0     H72835   1.263   3.942   5.638 -0.0183 -1.3281 -2.0333
  540MOL0     H72836   1.197   3.783   5.665  1.8849  0.7997 -1.9062
  540MOL0     H72837   1.019   3.849   5.806 -2.4498  0.3020 -0.9934
  540MOL0     H72838   1.075   4.020   5.827 -2.0113 -1.5042  1.5064
  540MOL0     H72839   1.056   4.015   5.565 -1.8117 -1.2169 -4.7856
  540MOL0     H72840   0.972   3.863   5.583  0.0248  0.2526  1.1718
  540MOL0     H72841   0.797   3.985   5.720  1.0537  0.0649  0.5237
  540MOL0     H72842   0.893   4.134   5.708 -1.4581  0.2994 -1.3877
  540MOL0     H72843   0.862   4.095   5.452 -1.2713  1.1060  0.7155
  540MOL0     H72844   0.725   3.994   5.491 -1.1420  2.0480 -1.9733
  540MOL0     H72845   0.635   4.157   5.641  0.0465  1.8426  0.7295
  540MOL0     H72846   0.756   4.279   5.578  0.5263  0.3360  1.8808
  540MOL0     H72847   0.663   4.203   5.347 -0.5576 -2.1707  0.2613
  540MOL0     H72848   0.534   4.121   5.428 -2.4472  2.2565 -1.2010
  540MOL0     H72849   0.605   4.410   5.473  1.9016 -2.3929 -0.2311
  540MOL0     H72850   0.461   4.336   5.541 -2.1039  1.0818 -0.9549
  540MOL0     H72851   0.439   4.189   5.209 -3.5668 -0.0506 -0.0569
  540MOL0     H72852   0.285   4.370   4.942 -1.0535 -1.9654 -1.8004
  540MOL0     H72853   0.299   4.211   5.011  1.9149  0.7581  1.5223
  540MOL0     H72854   0.077   4.226   5.118 -1.1759  0.3985 -0.6569
  540MOL0     H72855   0.057   4.273   4.960 -2.1609  2.6008  1.0255
  540MOL0     H72856   0.106   4.527   5.028  1.3485  0.9420  2.2280
  540MOL0     H72857   0.071   4.467   5.187  1.1536 -2.5645  0.3910
  540MOL0     H72858  -0.110   4.580   5.094  0.2739 -0.0574 -1.4564
  540MOL0     H72859  -0.151   4.420   5.144  1.8901  1.6332  1.9040
  540MOL0     H72860  -0.240   4.368   4.734 -0.9711  0.4466 -2.2050
  540MOL0     H72861  -0.573   4.253   4.639 -2.3641  1.3266 -2.9729
  540MOL0     H72862  -0.512   4.395   4.551 -0.9399  0.4067  0.0926
  540MOL0     H72863  -0.407   4.265   4.587 -1.4392  0.5885 -0.0452
  540MOL0     H72864  -0.942   4.319   4.961 -0.0683 -0.6480 -0.8920
  540MOL0     H72865  -1.178   4.292   4.918 -0.1390 -1.2832 -1.4581
  540MOL0     H72866  -1.460   4.534   4.895 -1.8930 -0.8887 -1.8069
  540MOL0     H72867  -1.351   4.639   4.827 -1.0949 -0.2175  0.3774
  540MOL0     H72868  -1.575   4.478   4.680 -0.8956 -0.1327 -3.5360
  540MOL0     H72869  -1.584   4.654   4.715  1.0830  1.9186  1.2430
  540MOL0     H72870  -1.408   4.689   4.536 -0.1008  0.8548 -0.0839
  540MOL0     H72871  -1.538   4.607   4.478 -0.8813  0.2687  1.1690
  540MOL0     H72872  -1.275   4.472   4.555 -1.6117  0.1093  2.4260
  540MOL0     H72873  -1.417   4.390   4.495 -0.7357  0.6743 -0.8073
  540MOL0     H72874  -1.422   4.528   4.292  0.7025  0.3399 -2.2117
  540MOL0     H72875  -1.283   4.422   4.304 -0.1081  1.0196 -1.4962
  540MOL0     H72876  -1.245   4.657   4.221  0.0866 -0.1642  0.2853
  540MOL0     H72877  -1.247   4.720   4.377  1.3040  0.4135 -0.0970
  540MOL0     H72878  -1.081   4.477   4.273 -1.6139 -1.0732  0.7960
  540MOL0     H72879  -1.069   4.531   4.445  1.1545  0.6237 -0.4345
  540MOL0     H72880  -1.003   4.708   4.216  2.3083 -3.5316 -2.1578
  540MOL0     H72881  -0.879   4.599   4.296 -1.0925 -4.3257  3.8193
  540MOL0     H72882  -1.183   4.657   4.696  0.4629  1.6301  1.9508
  540MOL0     H72883  -0.934   4.690   4.747  1.1491 -1.1995  1.7672
  540MOL0     H72884  -0.600   4.552   5.020  0.5893  1.0191  0.9496
  540MOL0     H72885  -0.356   4.544   5.098  3.3156 -4.4390  0.8865
  540MOL0     H72886   1.482   3.866   5.996  1.1139 -1.4326  0.4462
  540MOL0     H72887   1.733   3.872   5.959 -2.2522 -0.1253  2.3263
  540MOL0     H72888   2.033   3.665   5.827  1.4365 -1.7667  2.7101
  540MOL0     H72889   2.234   3.622   5.905 -0.4574 -0.1752  1.4032
  540MOL0     H72890   2.449   3.595   5.857 -1.7021 -0.3383  1.1019
  540MOL0     H72891   2.606   3.647   5.903  0.6571  2.3764  2.8858
  540MOL0     H72892   2.497   3.484   6.050  2.0118  0.8494 -0.5196
  540MOL0     H72893   2.371   3.608   6.085  1.5465  1.2321  1.7673
  540MOL0     H72894   2.547   3.736   6.212 -1.3482  0.5910 -1.6870
  540MOL0     H72895   2.677   3.641   6.136  0.1156 -0.2552 -0.3635
  540MOL0     H72896   2.646   3.547   6.362 -0.5954  0.9453  0.3532
  540MOL0     H72897   2.595   3.429   6.240  1.8607 -0.4940  1.8439
  540MOL0     H72898   2.226   3.495   6.424  0.0008  0.4137 -0.1869
  540MOL0     H72899   2.368   4.025   5.840 -0.5810  0.4867  2.2249
  540MOL0     H72900   2.145   4.086   5.769  3.2414  0.5929  1.0972
  541MOL0     O72901   3.482   5.233   6.428  0.2787  0.0226 -0.1907
  541MOL0     C72902   3.390   5.167   6.476  1.1135 -0.4543 -0.8828
  541MOL0     O72903   3.374   5.130   6.609 -0.4431 -0.0382  0.1912
  541MOL0     C72904   3.478   5.136   6.698  0.4381  0.1639 -0.4449
  541MOL0     C72905   3.459   5.192   6.826 -0.8312  0.4375  0.1299
  541MOL0     C72906   3.570   5.200   6.917 -0.1412 -0.3223  0.0407
  541MOL0     C72907   3.705   5.164   6.882  0.8562  0.9042  1.0737
  541MOL0     O72908   3.813   5.149   6.966  0.2689 -0.2979  0.0987
  541MOL0     C72909   3.821   5.231   7.082  0.4793 -0.2714 -0.4150
  541MOL0     C72910   3.769   5.153   7.203 -1.6615 -0.3019  1.2565
  541MOL0     C72911   3.775   5.245   7.326  0.4453 -0.4258  0.4261
  541MOL0     C72912   3.740   5.157   7.440 -0.5253  0.7238  0.0782
  541MOL0     C72913   3.741   5.243   7.569  0.4344  0.1890 -0.4609
  541MOL0     C72914   3.598   5.296   7.611  0.8623  0.3852  0.3117
  541MOL0     C72915   3.499   5.183   7.665  0.2699  0.4240  0.2987
  541MOL0     C72916   3.361   5.251   7.715 -0.0943  0.2910  0.6832
  541MOL0     N72917   3.276   5.131   7.745 -0.8450 -1.0702  0.7007
  541MOL0     C72918   3.212   5.050   7.648 -0.0768  0.3618 -0.9764
  541MOL0     C72919   3.124   4.974   7.728  0.0198  0.4042 -0.8154
  541MOL0     C72920   3.000   4.897   7.679  0.1617 -0.1089 -0.4258
  541MOL0     C72921   3.032   4.842   7.542  0.1099  0.0869  0.7407
  541MOL0     C72922   2.908   4.755   7.502  0.1873  0.4068 -0.0494
  541MOL0     C72923   2.889   4.707   7.354 -0.4614  0.0518 -0.9477
  541MOL0     O72924   2.940   4.817   7.276  0.0415 -0.0596  0.8333
  541MOL0     C72925   2.922   4.803   7.130 -0.5122 -0.7314 -0.6276
  541MOL0     C72926   2.977   4.898   7.043  0.5288  0.2264 -0.5441
  541MOL0     C72927   2.954   4.902   6.906 -0.2438  0.5219 -0.0832
  541MOL0     C72928   2.992   5.034   6.845 -0.6051 -0.1117 -1.0886
  541MOL0     C72929   2.886   4.795   6.843 -0.2920  0.1687 -0.7232
  541MOL0     C72930   2.881   4.779   6.704 -0.0166  0.3017  0.0492
  541MOL0     O72931   2.775   4.710   6.656 -0.3338  0.8769 -0.4285
  541MOL0     C72932   2.745   4.720   6.522  0.3877  0.9821 -0.1490
  541MOL0     C72933   2.723   4.840   6.448 -0.4476 -0.4623  0.5946
  541MOL0     C72934   2.697   4.851   6.312 -0.8367  0.2837  0.2789
  541MOL0     C72935   2.700   4.734   6.232  0.4828  0.4192  0.4949
  541MOL0     O72936   2.672   4.761   6.101  0.3158 -0.2716  0.0374
  541MOL0     C72937   2.592   4.663   6.028  0.3709  0.1608  0.1700
  541MOL0     C72938   2.447   4.640   6.083  0.6569  0.2687  0.9659
  541MOL0     C72939   2.390   4.512   6.016  0.6500 -0.7924 -0.3761
  541MOL0     C72940   2.239   4.506   6.058 -0.5242 -0.2774 -0.2563
  541MOL0     C72941   2.164   4.377   6.010  0.4282  0.9467  0.1810
  541MOL0     C72942   2.012   4.396   6.053 -0.6385  0.0267  0.0315
  541MOL0     C72943   1.925   4.302   5.965 -1.0772 -0.0580  0.1778
  541MOL0     C72944   1.777   4.314   5.992  0.3434  0.2985  0.1870
  541MOL0    Cl72945   1.717   4.482   5.944  0.0182 -0.1171  0.4997
  541MOL0     C72946   2.733   4.609   6.281  0.2395  0.7803 -0.3835
  541MOL0     C72947   2.748   4.602   6.431 -0.1505 -0.7135  0.5703
  541MOL0     O72948   2.973   4.810   6.628 -0.4317 -0.9864 -0.8621
  541MOL0     C72949   2.844   4.686   6.923 -0.6150  0.0965  0.1720
  541MOL0     C72950   2.862   4.692   7.064 -0.3147  0.7677  0.0209
  541MOL0     N72951   3.135   5.016   7.859  0.2962 -0.5740  0.1575
  541MOL0     N72952   3.223   5.104   7.864 -0.0342 -0.4723 -0.1594
  541MOL0     C72953   3.717   5.107   6.750  0.1573  0.0950  0.2411
  541MOL0     C72954   3.616   5.103   6.661  0.4413 -0.0091 -0.2553
  541MOL0     C72955   3.264   5.140   6.399 -0.1025  0.0570 -0.6241
  541MOL0     C72956   3.142   5.094   6.452  0.3202  0.1758  0.0750
  541MOL0     C72957   3.022   5.082   6.378  0.1274 -0.2354  0.0632
  541MOL0     C72958   3.014   5.109   6.240 -1.5257  0.4306 -1.1357
  541MOL0     O72959   2.898   5.087   6.166 -0.6235 -0.2790  0.2711
  541MOL0     C72960   2.899   5.104   6.023 -0.5492  0.1075  0.6174
  541MOL0     C72961   2.758   5.057   5.966  0.3263 -0.3279  0.8110
  541MOL0     C72962   2.748   5.059   5.811  0.0184 -0.0247 -0.4838
  541MOL0     C72963   2.613   5.022   5.748  0.0007  0.6267 -0.3164
  541MOL0     C72964   2.497   5.098   5.798  0.2091 -0.0412  0.8766
  541MOL0     C72965   2.400   5.162   5.824 -0.1920  0.1245 -0.1747
  541MOL0     C72966   3.143   5.148   6.187 -0.0238  0.9391  0.0701
  541MOL0     C72967   3.265   5.156   6.258  0.1218 -0.1756 -0.8083
  541MOL0     H72968   3.359   5.213   6.862 -1.3503  0.3464 -1.2029
  541MOL0     H72969   3.554   5.226   7.021 -1.1310  0.9480 -0.4014
  541MOL0     H72970   3.923   5.264   7.102  0.4600 -0.3359 -0.2049
  541MOL0     H72971   3.764   5.321   7.057  3.0886  1.3359 -0.9437
  541MOL0     H72972   3.668   5.119   7.182 -2.3067  2.2166 -0.0619
  541MOL0     H72973   3.840   5.069   7.198 -0.5651  0.6420  0.1762
  541MOL0     H72974   3.868   5.303   7.332 -1.3048  2.4715  1.6812
  541MOL0     H72975   3.694   5.318   7.322 -0.4211 -1.2692  1.8484
  541MOL0     H72976   3.647   5.101   7.428 -1.0756  0.4524  4.2062
  541MOL0     H72977   3.818   5.082   7.458  0.1021  0.8303 -1.9041
  541MOL0     H72978   3.774   5.181   7.653  3.4979  1.2432 -0.7479
  541MOL0     H72979   3.803   5.333   7.562 -2.3665  2.1595 -2.0621
  541MOL0     H72980   3.595   5.373   7.688 -2.1798  1.0000 -0.2859
  541MOL0     H72981   3.548   5.337   7.522  2.5907  0.9352 -0.4597
  541MOL0     H72982   3.489   5.102   7.593  1.1193  0.3838  0.2077
  541MOL0     H72983   3.538   5.139   7.758 -1.4334 -3.7522 -0.7629
  541MOL0     H72984   3.320   5.302   7.627  0.1831 -3.4267 -1.8248
  541MOL0     H72985   3.380   5.320   7.797  0.5566  0.5720  0.3105
  541MOL0     H72986   3.220   5.079   7.543  3.7103 -2.0006 -1.5483
  541MOL0     H72987   2.998   4.809   7.744  3.4210  0.8255  1.1818
  541MOL0     H72988   2.910   4.957   7.690 -0.4217 -1.3199  2.5654
  541MOL0     H72989   3.117   4.774   7.553 -0.8440 -0.9330  2.2102
  541MOL0     H72990   3.046   4.924   7.471 -0.3324 -1.5615 -1.3481
  541MOL0     H72991   2.822   4.823   7.513  0.6726  1.0444 -0.1367
  541MOL0     H72992   2.881   4.673   7.569  0.5181 -0.3220 -0.8012
  541MOL0     H72993   2.781   4.701   7.333 -0.0097  1.3540 -4.2174
  541MOL0     H72994   2.936   4.611   7.331 -1.4949 -0.8160  0.3778
  541MOL0     H72995   3.030   4.979   7.093 -4.7987  3.1666  1.1896
  541MOL0     H72996   2.911   5.107   6.855  0.1713  1.1434 -3.2942
  541MOL0     H72997   3.080   5.072   6.898  0.0710 -0.9791 -1.5740
  541MOL0     H72998   3.010   5.032   6.737  0.1361 -1.7760 -0.9600
  541MOL0     H72999   2.741   4.929   6.506  0.8389 -2.5203  3.6237
  541MOL0     H73000   2.680   4.944   6.257  5.3772  0.4511 -2.1585
  541MOL0     H73001   2.599   4.686   5.921  1.8347 -2.1668 -0.3166
  541MOL0     H73002   2.644   4.567   6.037 -0.5522 -0.5650 -1.7313
  541MOL0     H73003   2.447   4.636   6.192  0.2678 -2.0130  0.9289
  541MOL0     H73004   2.376   4.714   6.045 -2.4830 -2.7387  0.4124
  541MOL0     H73005   2.446   4.424   6.050  0.3498  0.0952  2.7173
  541MOL0     H73006   2.403   4.516   5.907 -1.3682 -1.6029 -0.6827
  541MOL0     H73007   2.241   4.498   6.167  3.3979 -1.1181 -0.2688
  541MOL0     H73008   2.196   4.601   6.026  1.2706  0.6772  0.0554
  541MOL0     H73009   2.216   4.291   6.052  0.4650  1.1572  0.5774
  541MOL0     H73010   2.174   4.354   5.903  1.7434 -1.4442  0.7450
  541MOL0     H73011   2.001   4.381   6.161  1.9381 -0.4196  0.2924
  541MOL0     H73012   1.982   4.495   6.019 -0.7615  0.1377  0.4586
  541MOL0     H73013   1.953   4.198   5.982  0.4917  0.1962 -0.7167
  541MOL0     H73014   1.946   4.323   5.860  2.8772  0.4382  0.9045
  541MOL0     H73015   1.757   4.307   6.099 -0.3650  0.6787  0.0882
  541MOL0     H73016   1.725   4.232   5.941  1.2109  0.1869 -0.5578
  541MOL0     H73017   2.726   4.520   6.219 -2.5007  0.9409 -0.4073
  541MOL0     H73018   2.741   4.497   6.460 -1.2341 -0.3378  1.7085
  541MOL0     H73019   2.805   4.596   6.877  0.7235 -1.2845  1.5974
  541MOL0     H73020   2.826   4.604   7.117  3.6410 -2.0574 -1.4862
  541MOL0     H73021   3.811   5.065   6.718  0.1517 -0.5874  1.0772
  541MOL0     H73022   3.631   5.063   6.561 -2.5475  0.5493 -1.0502
  541MOL0     H73023   3.136   5.068   6.557 -0.4084 -2.0071 -0.4532
  541MOL0     H73024   2.931   5.037   6.419 -0.5867 -2.0292 -3.1499
  541MOL0     H73025   2.931   5.204   5.990  2.6239 -1.3373 -1.2262
  541MOL0     H73026   2.974   5.040   5.977 -1.1399  0.2305 -0.5557
  541MOL0     H73027   2.673   5.112   6.006  0.3405  1.3744 -1.3183
  541MOL0     H73028   2.744   4.949   5.982 -0.2244 -1.1583 -3.6975
  541MOL0     H73029   2.818   4.983   5.775  0.8662  1.0402 -1.1610
  541MOL0     H73030   2.779   5.154   5.767  1.2043  0.3293  1.0329
  541MOL0     H73031   2.591   4.916   5.768 -2.5172  0.6280 -2.4963
  541MOL0     H73032   2.625   5.035   5.640 -2.5539 -0.5473 -0.8334
  541MOL0     H73033   2.313   5.222   5.841  0.9190  2.1355 -1.2443
  541MOL0     H73034   3.158   5.174   6.082 -0.2583  0.3996 -0.1030
  541MOL0     H73035   3.352   5.181   6.199 -0.3594 -1.0073 -1.8888
  542MOL0     O73036   4.905  10.611   1.387 -0.1828 -0.3534 -0.8321
  542MOL0     C73037   4.880  10.718   1.330  0.1606  0.4074  0.3032
  542MOL0     O73038   4.964  10.819   1.312  0.6814  0.3927  0.5555
  542MOL0     C73039   5.100  10.792   1.302  0.9642  0.8189  0.7792
  542MOL0     C73040   5.196  10.895   1.319  0.5264  0.3300  0.1917
  542MOL0     C73041   5.330  10.863   1.302 -0.6429  0.7697  1.1471
  542MOL0     C73042   5.378  10.737   1.262 -0.3301  0.9634 -0.1059
  542MOL0     O73043   5.513  10.707   1.238 -0.2769 -0.0801 -0.2308
  542MOL0     C73044   5.590  10.713   1.360  0.2335  0.2726  0.5353
  542MOL0     C73045   5.727  10.660   1.323 -0.4119  0.3378 -0.6731
  542MOL0     C73046   5.826  10.722   1.425 -0.4170  0.3891 -0.3313
  542MOL0     C73047   5.896  10.849   1.374  0.7988 -0.0562  0.1235
  542MOL0     C73048   6.028  10.886   1.441  0.2473  0.0929  0.1931
  542MOL0     C73049   6.048  11.037   1.426 -0.8009 -0.9239  0.1687
  542MOL0     C73050   6.190  11.083   1.423 -0.5244 -0.3009  0.1267
  542MOL0     C73051   6.249  11.045   1.558 -1.3249  0.2241  0.3376
  542MOL0     N73052   6.180  11.093   1.674 -0.3889 -0.2380 -0.4709
  542MOL0     C73053   6.150  11.231   1.697  0.2712 -0.5404 -0.7142
  542MOL0     C73054   6.077  11.227   1.816 -0.1894 -0.2643 -0.5365
  542MOL0     C73055   6.040  11.332   1.914 -0.3556  0.6317  0.8969
  542MOL0     C73056   5.927  11.428   1.862 -0.5806  0.1622 -0.6036
  542MOL0     C73057   5.791  11.356   1.850  0.9493 -0.0705  0.2488
  542MOL0     C73058   5.710  11.355   1.981  0.1091  0.1238  0.3721
  542MOL0     O73059   5.629  11.237   1.988  0.2334 -0.4216  0.0495
  542MOL0     C73060   5.503  11.239   2.045  0.8784  0.4441 -0.9779
  542MOL0     C73061   5.426  11.130   2.012  0.7825  0.4092  0.3683
  542MOL0     C73062   5.292  11.103   2.059 -0.2691 -0.2081 -0.1211
  542MOL0     C73063   5.236  10.973   2.031  0.7852 -0.1066  0.2822
  542MOL0     C73064   5.234  11.216   2.129 -0.1707 -0.0794  0.6643
  542MOL0     C73065   5.086  11.210   2.168 -0.0205  0.1742  1.2832
  542MOL0     O73066   5.021  11.317   2.168  0.2519  0.2704  0.0821
  542MOL0     C73067   4.892  11.328   2.199 -0.5350  0.0203  0.3586
  542MOL0     C73068   4.797  11.261   2.120  0.0511  0.7903 -0.3847
  542MOL0     C73069   4.665  11.284   2.149  0.7715 -0.1224  0.1256
  542MOL0     C73070   4.613  11.367   2.255  1.0016  0.6660  0.2735
  542MOL0     O73071   4.483  11.382   2.308  0.2163  0.2483  0.0038
  542MOL0     C73072   4.380  11.301   2.260  1.1820 -0.0450 -0.9073
  542MOL0     C73073   4.289  11.373   2.157  0.3843 -0.5726 -0.0351
  542MOL0     C73074   4.218  11.491   2.213  0.0981 -0.5591  0.5092
  542MOL0     C73075   4.129  11.551   2.107 -0.4788  0.2226  0.3517
  542MOL0     C73076   4.013  11.640   2.157 -0.6881  0.3118  0.1516
  542MOL0     C73077   3.912  11.667   2.049  0.5153  0.0192 -0.1174
  542MOL0     C73078   3.808  11.767   2.089 -0.0266  0.1513  0.5384
  542MOL0     C73079   3.693  11.779   1.986 -0.7170  0.7747 -0.1606
  542MOL0    Cl73080   3.571  11.644   2.013  0.2073 -0.1115  0.0666
  542MOL0     C73081   4.713  11.429   2.330  0.6451 -0.3977  0.0551
  542MOL0     C73082   4.848  11.412   2.304 -0.2138 -0.3646  0.3156
  542MOL0     O73083   5.038  11.104   2.183  0.8630 -0.1408 -0.2956
  542MOL0     C73084   5.308  11.326   2.157 -0.0100 -0.5349  0.1497
  542MOL0     C73085   5.442  11.342   2.115  0.4038  0.0167  0.3976
  542MOL0     N73086   6.062  11.094   1.852  0.0162  0.1329  0.3335
  542MOL0     N73087   6.123  11.014   1.765 -0.2903 -0.1515  0.3109
  542MOL0     C73088   5.284  10.639   1.233 -0.5421 -0.2579  0.0490
  542MOL0     C73089   5.145  10.669   1.252  0.2138  0.7121 -0.6640
  542MOL0     C73090   4.737  10.749   1.294 -1.0142  0.8972 -0.0145
  542MOL0     C73091   4.641  10.639   1.293 -0.6168 -0.4119  0.2635
  542MOL0     C73092   4.516  10.663   1.256  0.7560  0.0599 -0.0627
  542MOL0     C73093   4.466  10.798   1.233 -0.3716  1.1306  0.3851
  542MOL0     O73094   4.343  10.837   1.199 -0.3782  0.4278  0.3906
  542MOL0     C73095   4.246  10.742   1.190 -0.0071 -0.1273 -0.4408
  542MOL0     C73096   4.132  10.802   1.118  0.2670 -1.1029  0.4966
  542MOL0     C73097   4.083  10.946   1.154 -0.4474 -0.0893  0.1530
  542MOL0     C73098   4.055  10.969   1.302 -0.2576  0.3141  0.3205
  542MOL0     C73099   3.957  10.875   1.343  0.3582  0.3573 -0.3786
  542MOL0     C73100   3.873  10.791   1.379 -0.7659 -0.3963 -0.3771
  542MOL0     C73101   4.561  10.900   1.246  0.1631  0.5339  0.1601
  542MOL0     C73102   4.698  10.877   1.267  0.5416  0.5783 -0.1018
  542MOL0     H73103   5.173  10.994   1.357  2.9910  0.5721  1.3006
  542MOL0     H73104   5.394  10.951   1.298 -0.1584  0.3820 -0.0558
  542MOL0     H73105   5.596  10.816   1.395 -1.8606  0.3985  0.6534
  542MOL0     H73106   5.551  10.651   1.442  0.3455 -1.2846 -0.5367
  542MOL0     H73107   5.732  10.552   1.340  3.2809  0.5637  0.6806
  542MOL0     H73108   5.762  10.680   1.221  1.8292 -1.0761 -0.2562
  542MOL0     H73109   5.780  10.750   1.520 -0.3806  1.6427 -0.6645
  542MOL0     H73110   5.903  10.645   1.437 -0.0819  0.4498 -1.8727
  542MOL0     H73111   5.918  10.834   1.268 -1.2604  2.4871 -0.7593
  542MOL0     H73112   5.820  10.928   1.376  1.0983  0.2567 -0.5508
  542MOL0     H73113   6.018  10.857   1.546 -0.5580  2.0313  0.6941
  542MOL0     H73114   6.109  10.829   1.395  1.3180  0.4044  1.6225
  542MOL0     H73115   6.002  11.067   1.331  0.4073 -3.4870 -1.3560
  542MOL0     H73116   5.993  11.086   1.506 -0.8596 -0.3769 -0.2007
  542MOL0     H73117   6.250  11.026   1.351  0.5597 -3.2028  3.0556
  542MOL0     H73118   6.194  11.192   1.411  1.1701  0.0377  2.8166
  542MOL0     H73119   6.354  11.074   1.551  0.0039 -3.9913  0.2589
  542MOL0     H73120   6.242  10.936   1.563 -0.4830  0.0993 -0.9066
  542MOL0     H73121   6.178  11.321   1.643 -0.0455  0.4408  0.7152
  542MOL0     H73122   5.996  11.277   1.998 -1.5210 -3.0307 -1.8221
  542MOL0     H73123   6.131  11.388   1.937  0.4493  0.5640 -1.7445
  542MOL0     H73124   5.963  11.468   1.767 -1.0477  2.0099 -0.0439
  542MOL0     H73125   5.917  11.516   1.926  3.6852 -0.2737  1.0084
  542MOL0     H73126   5.812  11.251   1.826 -1.5813  0.0475 -3.2810
  542MOL0     H73127   5.726  11.402   1.776  0.7368 -1.0413 -0.1864
  542MOL0     H73128   5.653  11.448   1.972 -2.9837 -1.8205 -2.3734
  542MOL0     H73129   5.781  11.358   2.064 -0.0233 -0.0359  0.4923
  542MOL0     H73130   5.469  11.054   1.948 -2.7829 -0.4922 -1.1487
  542MOL0     H73131   5.220  10.913   2.120 -0.9024 -0.8317 -0.4613
  542MOL0     H73132   5.138  10.974   1.982  0.1112 -1.6237  1.5247
  542MOL0     H73133   5.311  10.924   1.968  1.9397  1.5076  0.3449
  542MOL0     H73134   4.814  11.192   2.038 -2.8762  0.0679 -0.4643
  542MOL0     H73135   4.597  11.227   2.087  2.8939 -1.6162 -0.9451
  542MOL0     H73136   4.411  11.204   2.219  0.5426  0.3252 -2.3390
  542MOL0     H73137   4.320  11.296   2.351  1.3042  1.2419 -0.7488
  542MOL0     H73138   4.345  11.406   2.069 -0.7389 -0.9558 -0.9145
  542MOL0     H73139   4.218  11.297   2.122 -0.0790 -0.0679 -0.1970
  542MOL0     H73140   4.294  11.560   2.252 -0.6429  0.2108  0.6103
  542MOL0     H73141   4.152  11.461   2.294  0.8088 -2.2151  0.5259
  542MOL0     H73142   4.188  11.607   2.035 -0.7162 -0.2220 -0.1905
  542MOL0     H73143   4.093  11.470   2.044 -3.0040  1.3367  0.2146
  542MOL0     H73144   4.056  11.737   2.183 -0.4617  0.0407  0.8215
  542MOL0     H73145   3.959  11.598   2.243 -0.5266 -0.8314 -0.2973
  542MOL0     H73146   3.965  11.701   1.960 -0.3472  2.0002  0.0676
  542MOL0     H73147   3.862  11.576   2.014 -5.5725  2.6872  0.4148
  542MOL0     H73148   3.861  11.862   2.099  1.3967 -0.3187 -1.7521
  542MOL0     H73149   3.763  11.747   2.186 -1.4213  0.3001 -0.0481
  542MOL0     H73150   3.736  11.744   1.892  3.9772  1.4539  1.4473
  542MOL0     H73151   3.639  11.873   1.979 -0.7507  0.8471  0.9013
  542MOL0     H73152   4.683  11.495   2.411  0.6354  2.2077 -1.9180
  542MOL0     H73153   4.935  11.456   2.350 -0.5934  1.3566 -0.5192
  542MOL0     H73154   5.264  11.413   2.206  2.6463 -0.1215  1.9938
  542MOL0     H73155   5.483  11.440   2.134 -2.6066  1.9342 -2.1518
  542MOL0     H73156   5.321  10.551   1.181 -1.1647 -0.0605 -0.7629
  542MOL0     H73157   5.074  10.590   1.229  0.6100 -0.0664  0.6556
  542MOL0     H73158   4.668  10.541   1.330 -1.2383  0.2335  2.6098
  542MOL0     H73159   4.443  10.583   1.250 -1.0375  1.3141  2.7393
  542MOL0     H73160   4.271  10.651   1.134  1.4577  0.7807 -1.3528
  542MOL0     H73161   4.217  10.717   1.292 -1.4330  3.0467  0.0536
  542MOL0     H73162   4.043  10.739   1.121 -0.6808 -0.0169 -1.7481
  542MOL0     H73163   4.168  10.814   1.015 -2.8399  0.0311 -0.5942
  542MOL0     H73164   4.004  10.980   1.087 -0.0732  3.4027  1.2614
  542MOL0     H73165   4.167  11.011   1.127  0.0664 -0.2230  1.3400
  542MOL0     H73166   4.019  11.071   1.316  0.1801  1.1392 -3.5213
  542MOL0     H73167   4.149  10.947   1.353 -0.3171 -1.1179 -0.1484
  542MOL0     H73168   3.794  10.721   1.399 -2.0522  1.0489 -0.1615
  542MOL0     H73169   4.526  11.002   1.230 -1.1249  0.0382 -0.2885
  542MOL0     H73170   4.770  10.957   1.267 -0.0646  1.1343 -0.5705
  543MOL0     O73171   2.362   7.211   9.307 -0.1088  1.5941  0.5161
  543MOL0     C73172   2.419   7.289   9.230  0.4752 -0.1230 -0.2549
  543MOL0     O73173   2.358   7.350   9.124 -0.4505 -0.6060  0.6608
  543MOL0     C73174   2.233   7.311   9.068 -0.3843 -1.0599 -0.1573
  543MOL0     C73175   2.140   7.216   9.112 -0.0437 -0.3928  0.8159
  543MOL0     C73176   2.019   7.195   9.033 -0.9413  0.5491  0.0014
  543MOL0     C73177   1.994   7.276   8.925 -1.0575 -0.7543  0.1471
  543MOL0     O73178   1.884   7.266   8.843  0.6519 -0.3314  0.1272
  543MOL0     C73179   1.848   7.140   8.799  0.2781  0.1118  0.3706
  543MOL0     C73180   1.779   7.149   8.662  0.8282  0.0433 -0.5741
  543MOL0     C73181   1.637   7.200   8.663  0.0962 -0.2451 -0.1275
  543MOL0     C73182   1.568   7.182   8.531 -0.7446 -0.1461 -0.2234
  543MOL0     C73183   1.436   7.233   8.511 -0.6764  0.6717  0.0679
  543MOL0     C73184   1.338   7.184   8.621  0.1620  0.2982 -0.0038
  543MOL0     C73185   1.203   7.238   8.590  0.1202  0.0530 -0.1033
  543MOL0     C73186   1.138   7.180   8.462  0.2793 -0.1919  0.2998
  543MOL0     N73187   1.000   7.241   8.442 -0.2918  0.6144  1.0376
  543MOL0     C73188   0.889   7.186   8.496  0.6922 -0.6237 -0.1622
  543MOL0     C73189   0.789   7.272   8.477  0.1834 -0.2292  0.2693
  543MOL0     C73190   0.656   7.258   8.542  0.1908  0.5997  0.1051
  543MOL0     C73191   0.545   7.296   8.453  0.7335  1.0704  0.5515
  543MOL0     C73192   0.411   7.227   8.474  0.5527 -0.1227  0.2078
  543MOL0     C73193   0.338   7.276   8.601 -0.0536 -0.5066 -0.0769
  543MOL0     O73194   0.224   7.197   8.628 -0.2234  0.3664 -0.4868
  543MOL0     C73195   0.131   7.251   8.722  0.1302  0.0236  1.1110
  543MOL0     C73196   0.164   7.251   8.853 -1.2979  0.9526 -0.1731
  543MOL0     C73197   0.063   7.290   8.939  0.3344  0.4974  0.9504
  543MOL0     C73198   0.108   7.284   9.081  0.5774  1.5310 -0.4246
  543MOL0     C73199  -0.066   7.344   8.897  0.5235  1.3697  0.3861
  543MOL0     C73200  -0.173   7.372   8.992  0.0061  0.2799  0.1248
  543MOL0     O73201  -0.255   7.464   8.942 -0.1922 -0.2233  0.0381
  543MOL0     C73202  -0.373   7.494   9.010 -0.2598 -0.3601  0.6637
  543MOL0     C73203  -0.373   7.551   9.137 -0.4224 -0.2747  0.3840
  543MOL0     C73204  -0.491   7.579   9.209  0.0383  0.4180  0.3862
  543MOL0     C73205  -0.616   7.547   9.144 -0.6667  0.5652 -0.4593
  543MOL0     O73206  -0.733   7.563   9.206 -0.3905  0.3627  1.2158
  543MOL0     C73207  -0.856   7.509   9.164 -1.9243  0.3406  0.6746
  543MOL0     C73208  -0.963   7.561   9.257  0.7193 -0.2386 -0.0757
  543MOL0     C73209  -0.970   7.710   9.265  0.2511 -0.1412  0.3976
  543MOL0     C73210  -1.041   7.738   9.396 -0.0531 -1.0572 -0.8917
  543MOL0     C73211  -1.181   7.684   9.401  0.1297  0.0977 -0.1188
  543MOL0     C73212  -1.279   7.746   9.502  0.8266 -0.0377  0.2926
  543MOL0     C73213  -1.334   7.882   9.448  0.6643  0.5218  0.7666
  543MOL0     C73214  -1.430   7.944   9.541 -0.7725  1.5206 -0.3003
  543MOL0    Cl73215  -1.519   8.085   9.470 -0.0287 -0.5656 -0.2617
  543MOL0     C73216  -0.608   7.494   9.012  0.5860  0.0458 -0.0792
  543MOL0     C73217  -0.492   7.472   8.947  0.1144  0.2435  0.0216
  543MOL0     O73218  -0.185   7.313   9.100  0.0357  1.0539 -0.3481
  543MOL0     C73219  -0.089   7.353   8.761 -0.6720  0.3698 -0.2773
  543MOL0     C73220   0.007   7.302   8.672  0.0234 -0.1303 -0.5780
  543MOL0     N73221   0.839   7.375   8.404 -0.1607  0.8566  0.1442
  543MOL0     N73222   0.972   7.359   8.387  0.2348 -0.1428 -0.3377
  543MOL0     C73223   2.092   7.371   8.879  0.4317  0.9742 -0.0285
  543MOL0     C73224   2.211   7.385   8.951  0.0802 -0.5715 -0.6884
  543MOL0     C73225   2.567   7.320   9.258 -0.7791 -0.2091 -0.1070
  543MOL0     C73226   2.645   7.377   9.151 -0.0658  0.1379 -0.0728
  543MOL0     C73227   2.784   7.403   9.162  0.0469  0.4185  0.7308
  543MOL0     C73228   2.851   7.374   9.278 -0.6403  0.2069  0.2860
  543MOL0     O73229   2.982   7.406   9.301 -0.1794 -0.1546  0.5218
  543MOL0     C73230   3.079   7.433   9.194  0.6230 -0.6475  0.0230
  543MOL0     C73231   3.093   7.312   9.098  0.3788  0.6506  0.2607
  543MOL0     C73232   3.133   7.179   9.172  0.1828  0.2867  0.2217
  543MOL0     C73233   3.280   7.167   9.194 -0.4953 -0.7211 -0.9902
  543MOL0     C73234   3.359   7.132   9.076  0.5413  0.0237 -0.4422
  543MOL0     C73235   3.428   7.106   8.986  0.3251  0.3578 -0.0008
  543MOL0     C73236   2.782   7.306   9.379  0.4655  0.3550 -0.8170
  543MOL0     C73237   2.643   7.281   9.373 -0.4036 -1.0447 -1.4255
  543MOL0     H73238   2.167   7.145   9.190  1.2297 -0.9037 -0.0547
  543MOL0     H73239   1.952   7.112   9.053  2.3276 -2.2993 -0.0227
  543MOL0     H73240   1.941   7.086   8.779  0.6817  0.5092  1.1334
  543MOL0     H73241   1.784   7.083   8.866  2.6795 -2.1633  0.8851
  543MOL0     H73242   1.837   7.209   8.592  0.6278 -0.0345 -0.8053
  543MOL0     H73243   1.773   7.045   8.629  0.1358  0.2535 -1.1322
  543MOL0     H73244   1.580   7.145   8.739  0.2380 -1.4113 -0.8415
  543MOL0     H73245   1.629   7.303   8.700  2.5745 -0.4382  1.2015
  543MOL0     H73246   1.636   7.218   8.453 -0.1057  0.3635  0.5598
  543MOL0     H73247   1.557   7.074   8.517  1.4579 -0.3014 -1.1219
  543MOL0     H73248   1.429   7.342   8.506  0.2385  0.7219 -0.2832
  543MOL0     H73249   1.400   7.182   8.421  1.2496 -1.0515  0.1980
  543MOL0     H73250   1.338   7.076   8.635 -1.9487  0.3757  0.8963
  543MOL0     H73251   1.363   7.225   8.719  1.2191  1.5358 -0.7450
  543MOL0     H73252   1.136   7.202   8.669  1.7164 -0.7474  0.9451
  543MOL0     H73253   1.195   7.347   8.597  0.4543  0.0495  0.4038
  543MOL0     H73254   1.152   7.071   8.464 -3.0929 -0.8128 -1.9020
  543MOL0     H73255   1.196   7.201   8.371  3.2336 -1.7545  1.6959
  543MOL0     H73256   0.875   7.098   8.558 -1.3195 -1.2081 -1.3386
  543MOL0     H73257   0.653   7.150   8.562 -0.3141  0.4427 -0.7578
  543MOL0     H73258   0.652   7.311   8.637 -4.3865 -0.0156  0.4819
  543MOL0     H73259   0.578   7.270   8.352  0.2062  0.8953  0.4209
  543MOL0     H73260   0.534   7.405   8.457 -2.3302  0.8340  0.9707
  543MOL0     H73261   0.434   7.120   8.469  0.8912 -0.0983  0.9800
  543MOL0     H73262   0.348   7.247   8.387  0.7697 -1.4348 -0.2682
  543MOL0     H73263   0.311   7.382   8.590 -0.6841 -0.7507 -1.0763
  543MOL0     H73264   0.406   7.289   8.685 -0.1405  1.3107 -0.2437
  543MOL0     H73265   0.261   7.215   8.887 -1.4872  0.5078 -0.0975
  543MOL0     H73266   0.199   7.227   9.104  1.2122  2.2032 -1.1921
  543MOL0     H73267   0.133   7.383   9.121  4.3417  0.3232  0.6568
  543MOL0     H73268   0.034   7.237   9.146  0.5753  1.2700 -0.6172
  543MOL0     H73269  -0.281   7.575   9.190 -1.4366 -0.1503  2.1506
  543MOL0     H73270  -0.480   7.614   9.311 -1.3378  1.1623  0.3064
  543MOL0     H73271  -0.877   7.531   9.059 -0.0325  1.6576  0.5162
  543MOL0     H73272  -0.848   7.400   9.172  1.6510  0.5916  2.1611
  543MOL0     H73273  -1.058   7.518   9.226  1.1718 -1.1142 -0.2951
  543MOL0     H73274  -0.945   7.523   9.358  2.5171  2.5119  0.7453
  543MOL0     H73275  -1.030   7.746   9.181  2.7733  2.6141 -0.3957
  543MOL0     H73276  -0.872   7.757   9.259  0.7854 -1.1808  0.6931
  543MOL0     H73277  -0.978   7.720   9.484 -2.6996 -2.5341  0.8224
  543MOL0     H73278  -1.057   7.846   9.394 -1.2363 -1.1665  0.7960
  543MOL0     H73279  -1.171   7.578   9.426  0.8536 -0.2026 -1.5500
  543MOL0     H73280  -1.227   7.694   9.302 -1.1662  3.2734  0.6886
  543MOL0     H73281  -1.367   7.682   9.506 -1.0384  2.3942  0.6600
  543MOL0     H73282  -1.225   7.756   9.598 -0.5208  0.0887  1.0611
  543MOL0     H73283  -1.385   7.861   9.354 -0.5128  0.6026  1.3768
  543MOL0     H73284  -1.253   7.946   9.411 -0.1231  0.8002 -0.5204
  543MOL0     H73285  -1.364   7.982   9.619 -0.6453 -0.4323  0.5942
  543MOL0     H73286  -1.493   7.863   9.580  0.2017 -0.1139 -1.9519
  543MOL0     H73287  -0.696   7.464   8.957  0.8095  0.4541 -0.6681
  543MOL0     H73288  -0.491   7.411   8.857  0.4073  1.7621 -1.0375
  543MOL0     H73289  -0.180   7.395   8.719  0.4204  1.8110 -1.3058
  543MOL0     H73290  -0.015   7.315   8.567 -3.5365 -2.2557 -0.2556
  543MOL0     H73291   2.069   7.439   8.797  2.2747 -0.6263 -2.0126
  543MOL0     H73292   2.287   7.455   8.920 -0.2008 -0.5871 -1.4348
  543MOL0     H73293   2.604   7.388   9.051  1.4013  0.1637 -0.6895
  543MOL0     H73294   2.839   7.460   9.089  0.5347  0.2230  0.9392
  543MOL0     H73295   3.043   7.523   9.142  0.1660 -0.3071  0.9114
  543MOL0     H73296   3.175   7.459   9.239  1.3680 -1.7507 -0.8659
  543MOL0     H73297   3.153   7.340   9.012 -2.6468  2.0152 -1.5851
  543MOL0     H73298   2.994   7.288   9.057  1.2744 -2.4031 -0.4290
  543MOL0     H73299   3.104   7.094   9.108  1.4740  0.6080 -0.8338
  543MOL0     H73300   3.066   7.169   9.258  0.5918  1.1986  0.6441
  543MOL0     H73301   3.294   7.083   9.262  2.9964  1.2488  1.0092
  543MOL0     H73302   3.307   7.263   9.239 -4.8820  1.0352 -1.5562
  543MOL0     H73303   3.489   7.094   8.898  0.2179 -1.8022  0.1740
  543MOL0     H73304   2.834   7.281   9.471 -3.4956  0.3735  1.6532
  543MOL0     H73305   2.595   7.247   9.465  0.5333  1.1061 -0.0508
  544MOL0     O73306   6.407   6.494   6.451  0.7586 -0.4027  0.2458
  544MOL0     C73307   6.437   6.607   6.484 -0.1276 -0.4986  0.0250
  544MOL0     O73308   6.356   6.710   6.505  0.1965  0.4592 -0.0898
  544MOL0     C73309   6.228   6.713   6.453  0.7327 -0.2434  0.8226
  544MOL0     C73310   6.122   6.759   6.531 -0.2107 -0.0462 -0.1865
  544MOL0     C73311   5.987   6.757   6.495  0.0124  0.4189  0.4823
  544MOL0     C73312   5.956   6.725   6.365  0.2132 -0.4949  0.4621
  544MOL0     O73313   5.821   6.741   6.322 -0.5134  0.6018 -0.3432
  544MOL0     C73314   5.771   6.671   6.207 -0.0433  0.1376 -0.4465
  544MOL0     C73315   5.615   6.664   6.198 -0.5321 -0.2645  0.1311
  544MOL0     C73316   5.561   6.802   6.165  0.3174  0.8914  0.1601
  544MOL0     C73317   5.417   6.791   6.110  0.4156  0.0125 -0.8839
  544MOL0     C73318   5.362   6.932   6.070 -0.3505 -0.5705 -1.4036
  544MOL0     C73319   5.209   6.943   6.070 -0.6051  0.1328 -0.2871
  544MOL0     C73320   5.142   6.834   5.978  0.0822 -0.1981  0.6622
  544MOL0     C73321   4.997   6.858   5.949  0.3781 -0.4694  0.3409
  544MOL0     N73322   4.912   6.822   6.056 -0.4111  0.2128  0.1809
  544MOL0     C73323   4.877   6.891   6.163  0.6239 -0.1138 -0.3837
  544MOL0     C73324   4.778   6.825   6.219  0.3707 -0.9036 -1.2128
  544MOL0     C73325   4.672   6.871   6.324 -0.2690 -0.6274  0.2252
  544MOL0     C73326   4.717   6.893   6.470 -0.9836 -0.1192  0.8936
  544MOL0     C73327   4.739   6.756   6.549  0.1210  0.3910 -0.5329
  544MOL0     C73328   4.826   6.768   6.673 -0.0904 -0.7851  0.7333
  544MOL0     O73329   4.757   6.836   6.785 -0.8556 -0.3245  0.0322
  544MOL0     C73330   4.667   6.757   6.857 -0.1927  0.5138  0.2290
  544MOL0     C73331   4.720   6.669   6.957  0.1178  0.7677  1.2153
  544MOL0     C73332   4.627   6.591   7.035  0.2633 -0.0711 -0.4506
  544MOL0     C73333   4.687   6.489   7.135 -0.0184  0.1418  1.3742
  544MOL0     C73334   4.485   6.599   7.010  0.1783  0.4078  0.5512
  544MOL0     C73335   4.396   6.518   7.086 -0.6143 -0.6028  0.3829
  544MOL0     O73336   4.387   6.389   7.037  0.5206 -0.0399  0.2007
  544MOL0     C73337   4.298   6.293   7.083 -1.3304  0.7562 -0.5679
  544MOL0     C73338   4.226   6.226   6.981  0.7165 -0.3005 -0.1690
  544MOL0     C73339   4.123   6.142   7.031  0.3434 -0.5372  0.0418
  544MOL0     C73340   4.098   6.109   7.159  0.2382 -0.3733  0.3301
  544MOL0     O73341   3.992   6.029   7.190 -0.4657  0.0014  0.6950
  544MOL0     C73342   3.929   6.032   7.319  0.0288 -0.8524 -0.4571
  544MOL0     C73343   4.011   5.942   7.407 -1.2856 -0.2500  0.1202
  544MOL0     C73344   3.958   5.936   7.551 -0.8151 -0.9538  0.2115
  544MOL0     C73345   4.026   6.046   7.635 -0.2862  0.0323 -0.4597
  544MOL0     C73346   3.966   6.058   7.774  0.6923 -0.3982  0.5612
  544MOL0     C73347   3.987   6.183   7.870  0.6195  1.0672 -0.6025
  544MOL0     C73348   4.140   6.219   7.867 -0.0626  0.1726  0.2017
  544MOL0     C73349   4.167   6.317   7.976  0.3214 -0.4110 -0.0927
  544MOL0    Cl73350   4.077   6.468   7.949 -0.1419  0.0395 -0.7062
  544MOL0     C73351   4.185   6.169   7.258 -0.5862  0.3194  1.4056
  544MOL0     C73352   4.276   6.265   7.216 -0.2330  0.5938  0.2960
  544MOL0     O73353   4.325   6.566   7.171  0.4051  0.6228  0.5465
  544MOL0     C73354   4.438   6.698   6.922 -0.0740 -0.1137  0.2945
  544MOL0     C73355   4.527   6.774   6.842  0.3767 -0.1493 -0.1429
  544MOL0     N73356   4.768   6.711   6.146 -0.7383 -0.5394 -0.2351
  544MOL0     N73357   4.853   6.701   6.051  0.8467 -0.2519  0.4596
  544MOL0     C73358   6.058   6.688   6.279  0.2982  0.1083  0.0928
  544MOL0     C73359   6.191   6.687   6.320 -0.2082 -0.8781  1.0344
  544MOL0     C73360   6.580   6.617   6.531 -0.5282  0.0273  0.7229
  544MOL0     C73361   6.672   6.551   6.444 -0.1736 -0.4123 -0.3710
  544MOL0     C73362   6.811   6.554   6.479  0.1715  0.6584  0.0373
  544MOL0     C73363   6.856   6.612   6.597 -0.1345 -0.2070  0.6770
  544MOL0     O73364   6.989   6.614   6.634  0.1732 -0.2267  1.1486
  544MOL0     C73365   7.079   6.525   6.559  0.0866  0.2111 -1.1641
  544MOL0     C73366   7.184   6.488   6.664  0.3251 -0.1602  0.3176
  544MOL0     C73367   7.308   6.434   6.593 -0.2684 -0.4826  0.2469
  544MOL0     C73368   7.398   6.361   6.690  0.5377 -0.7421 -0.1027
  544MOL0     C73369   7.494   6.458   6.744  0.0920  0.1184  0.1195
  544MOL0     C73370   7.570   6.541   6.786  0.1278 -0.5714 -0.4358
  544MOL0     C73371   6.764   6.682   6.673 -0.1287 -0.2823  0.1507
  544MOL0     C73372   6.632   6.668   6.647 -0.1505 -0.3375 -0.2324
  544MOL0     H73373   6.147   6.771   6.636 -2.0180 -2.1474  0.5701
  544MOL0     H73374   5.901   6.784   6.555 -2.0930  0.0597 -2.1336
  544MOL0     H73375   5.810   6.715   6.115  2.5695 -2.1199 -0.5558
  544MOL0     H73376   5.803   6.567   6.214  1.6518  0.6910  0.9164
  544MOL0     H73377   5.583   6.596   6.119  1.9627 -1.7732  0.3283
  544MOL0     H73378   5.580   6.624   6.294 -2.1437  0.4596 -0.1279
  544MOL0     H73379   5.575   6.855   6.260  1.5462 -0.9250  1.0568
  544MOL0     H73380   5.628   6.846   6.089  0.4280 -0.5016 -0.5792
  544MOL0     H73381   5.425   6.734   6.017 -1.2291 -0.6723 -0.6224
  544MOL0     H73382   5.352   6.732   6.175 -0.0623  2.0319  0.5733
  544MOL0     H73383   5.408   6.996   6.146 -1.3292 -1.3094 -0.1485
  544MOL0     H73384   5.397   6.974   5.975  1.3067  1.6723  0.0703
  544MOL0     H73385   5.186   6.932   6.176 -1.0660  3.5181  0.0650
  544MOL0     H73386   5.178   7.045   6.046 -1.1766  0.2211  0.7684
  544MOL0     H73387   5.189   6.828   5.880 -2.0496 -0.0170 -0.4315
  544MOL0     H73388   5.148   6.731   6.015 -1.8181  0.0560  1.8472
  544MOL0     H73389   4.974   6.797   5.861 -1.4746  0.6618 -0.0117
  544MOL0     H73390   4.980   6.964   5.932  1.2193 -0.4641 -0.5394
  544MOL0     H73391   4.905   6.994   6.184 -4.6310  1.3329  0.9214
  544MOL0     H73392   4.648   6.970   6.285 -1.2578 -1.4101 -1.2323
  544MOL0     H73393   4.588   6.802   6.309 -0.0927 -0.5366 -1.2576
  544MOL0     H73394   4.635   6.944   6.521 -1.6732  1.4047 -1.5595
  544MOL0     H73395   4.805   6.957   6.473  0.3814 -1.9068  0.7687
  544MOL0     H73396   4.797   6.694   6.479 -2.4252 -1.9753 -0.7185
  544MOL0     H73397   4.642   6.709   6.566 -1.2555  2.0635 -3.1076
  544MOL0     H73398   4.914   6.826   6.643  0.0636 -2.1977 -1.7569
  544MOL0     H73399   4.870   6.673   6.702  1.8448 -0.6215 -1.4049
  544MOL0     H73400   4.826   6.651   6.968  0.1551  0.8299  0.9576
  544MOL0     H73401   4.684   6.390   7.089  3.4068  0.6954 -0.3523
  544MOL0     H73402   4.794   6.512   7.146  0.2543 -0.3938  0.0223
  544MOL0     H73403   4.638   6.479   7.232  1.7020 -3.7039  2.0825
  544MOL0     H73404   4.221   6.243   6.874  0.9133 -0.8507 -0.2674
  544MOL0     H73405   4.069   6.085   6.956  1.8181 -3.8890  1.2895
  544MOL0     H73406   3.952   6.129   7.364  2.1204 -1.4059 -0.2299
  544MOL0     H73407   3.823   6.004   7.322  0.0049 -0.8306  2.9759
  544MOL0     H73408   3.990   5.845   7.363  1.3023 -0.1214 -1.5934
  544MOL0     H73409   4.120   5.949   7.396 -1.0583 -1.8003  1.0861
  544MOL0     H73410   3.993   5.839   7.587  1.4644 -1.3296 -2.6495
  544MOL0     H73411   3.849   5.951   7.549 -0.8040 -0.9037 -0.7158
  544MOL0     H73412   4.133   6.021   7.644 -0.2651 -0.5397 -1.9412
  544MOL0     H73413   4.019   6.141   7.581  1.5454  0.9292  0.7659
  544MOL0     H73414   4.004   5.975   7.834  1.3821 -0.0095  0.6669
  544MOL0     H73415   3.856   6.053   7.770  0.6638 -1.2641  1.7863
  544MOL0     H73416   3.932   6.266   7.823  0.2123 -0.0980 -2.2607
  544MOL0     H73417   3.934   6.175   7.965  0.1988  3.1936 -0.6097
  544MOL0     H73418   4.181   6.252   7.771  4.2789 -1.9649  1.0586
  544MOL0     H73419   4.195   6.127   7.891 -2.7329 -1.6367 -0.1214
  544MOL0     H73420   4.275   6.334   7.979  0.1228  1.2527 -1.1028
  544MOL0     H73421   4.137   6.280   8.075  0.4767  0.9051  0.4648
  544MOL0     H73422   4.169   6.162   7.365 -0.3073  0.3449  1.4493
  544MOL0     H73423   4.341   6.318   7.284  0.7038 -1.0432  0.7416
  544MOL0     H73424   4.333   6.699   6.894  0.3777 -0.7717 -1.6307
  544MOL0     H73425   4.490   6.846   6.770 -1.3620 -2.1126 -1.3189
  544MOL0     H73426   6.036   6.666   6.175  0.2245 -0.8504  0.3001
  544MOL0     H73427   6.277   6.653   6.262 -0.0833 -0.6718  1.0975
  544MOL0     H73428   6.638   6.491   6.360 -1.0051  1.2021 -1.2261
  544MOL0     H73429   6.873   6.500   6.408 -0.5033  0.3917 -0.3598
  544MOL0     H73430   7.028   6.441   6.513 -2.0426  2.5318 -3.3603
  544MOL0     H73431   7.120   6.585   6.477 -0.8026  2.8403  0.2077
  544MOL0     H73432   7.130   6.414   6.724 -2.7863  1.4117 -0.3419
  544MOL0     H73433   7.222   6.573   6.721  1.6474 -1.4302  1.4297
  544MOL0     H73434   7.354   6.519   6.542 -3.0014  1.3365  0.5843
  544MOL0     H73435   7.284   6.359   6.518 -1.6069 -0.0113  0.1864
  544MOL0     H73436   7.458   6.288   6.635 -0.3049 -1.6085  0.0923
  544MOL0     H73437   7.342   6.303   6.765 -1.6844  0.8409 -0.4208
  544MOL0     H73438   7.628   6.625   6.820 -1.5749  2.0322 -3.3868
  544MOL0     H73439   6.812   6.733   6.756  1.2515  1.3255 -1.5324
  544MOL0     H73440   6.564   6.710   6.720  1.0983 -1.5188  1.6998
  545MOL0     O73441   4.526   6.016   9.523 -0.5635  0.5601 -0.3662
  545MOL0     C73442   4.457   5.919   9.532  0.1531  0.2146 -0.4856
  545MOL0     O73443   4.339   5.909   9.607  0.0135  1.0511 -0.1815
  545MOL0     C73444   4.288   6.013   9.684  0.0916  0.6030  0.3141
  545MOL0     C73445   4.155   6.052   9.660 -0.5527  0.0745 -0.3221
  545MOL0     C73446   4.087   6.146   9.743  0.1380  0.0611 -0.9997
  545MOL0     C73447   4.145   6.181   9.872  0.4497  0.3649  1.0854
  545MOL0     O73448   4.076   6.276   9.949  0.5519  0.1155  0.0038
  545MOL0     C73449   4.073   6.241  10.090  0.5322  0.8393  0.1552
  545MOL0     C73450   3.945   6.167  10.122 -0.4064 -0.4245  0.7993
  545MOL0     C73451   3.827   6.233  10.057 -0.7554 -0.6787  0.5738
  545MOL0     C73452   3.698   6.163  10.105  0.0699  0.2031 -0.4852
  545MOL0     C73453   3.567   6.205  10.040  0.3561  0.0785 -0.5490
  545MOL0     C73454   3.440   6.121  10.085 -0.1921 -0.8001 -0.0105
  545MOL0     C73455   3.314   6.175  10.011  0.7118  0.4680  1.0647
  545MOL0     C73456   3.194   6.080  10.044 -0.5176  0.6324 -0.5696
  545MOL0     N73457   3.066   6.157  10.057  0.0289  0.2655  0.4888
  545MOL0     C73458   2.977   6.172   9.961 -0.5618 -1.0622 -0.6528
  545MOL0     C73459   2.870   6.239  10.020  0.0770  0.5732 -0.9589
  545MOL0     C73460   2.745   6.278   9.943 -0.0327  0.7424  0.1134
  545MOL0     C73461   2.779   6.407   9.859 -0.2691  0.3329 -0.5162
  545MOL0     C73462   2.795   6.536   9.938 -0.2708 -1.2431 -0.5451
  545MOL0     C73463   2.924   6.554  10.014 -1.0265  0.3528  0.6176
  545MOL0     O73464   2.967   6.688  10.000 -0.0250  0.1183  0.1361
  545MOL0     C73465   3.099   6.727  10.036 -0.2663 -1.0180 -0.1065
  545MOL0     C73466   3.191   6.644  10.097  0.1036 -1.2118  0.1510
  545MOL0     C73467   3.325   6.685  10.139  0.9538 -0.6172 -0.1488
  545MOL0     C73468   3.396   6.579  10.199 -0.5753  0.2621 -0.0831
  545MOL0     C73469   3.364   6.815  10.111 -0.5798 -0.6496  0.8863
  545MOL0     C73470   3.500   6.879  10.144  0.8831  0.0314 -0.8346
  545MOL0     O73471   3.530   6.994  10.077 -0.3493  0.0190  0.3836
  545MOL0     C73472   3.670   7.014  10.059  0.8769  0.2168 -0.0850
  545MOL0     C73473   3.721   6.946   9.947  0.5187 -0.3464  0.7522
  545MOL0     C73474   3.858   6.957   9.920  0.1586  0.7406 -0.2795
  545MOL0     C73475   3.951   7.020  10.008  0.2379  0.6132 -0.4727
  545MOL0     O73476   4.088   7.018   9.976  0.4752  0.1487 -0.8637
  545MOL0     C73477   4.174   7.103  10.048 -0.1430  0.2986 -0.3970
  545MOL0     C73478   4.316   7.110   9.977  0.1410 -0.6626 -0.0367
  545MOL0     C73479   4.365   6.966   9.953 -0.1212  0.0959 -0.3914
  545MOL0     C73480   4.520   6.951   9.907 -0.3574 -0.1365 -0.7922
  545MOL0     C73481   4.624   7.018  10.009  0.5199 -0.1223 -0.0712
  545MOL0     C73482   4.593   6.973  10.156  0.1882  0.8674 -0.0204
  545MOL0     C73483   4.608   6.821  10.168 -0.5294 -0.2196  0.3928
  545MOL0     C73484   4.538   6.789  10.305 -0.7319  0.5563  0.1297
  545MOL0    Cl73485   4.359   6.798  10.327  0.2275 -0.4884 -0.0411
  545MOL0     C73486   3.893   7.102  10.115 -0.2553  0.1691 -0.0647
  545MOL0     C73487   3.749   7.098  10.134  0.1052  0.0043 -0.2983
  545MOL0     O73488   3.561   6.826  10.239 -0.8904  0.2877  0.2768
  545MOL0     C73489   3.271   6.898  10.038  0.5669 -0.6447  0.1744
  545MOL0     C73490   3.142   6.853  10.008 -0.3244  0.5770  0.5358
  545MOL0     N73491   2.895   6.247  10.155 -0.0060  0.3023 -0.0629
  545MOL0     N73492   3.013   6.204  10.167  1.0345 -0.2352  0.2233
  545MOL0     C73493   4.273   6.133   9.902  0.0602  0.3313  0.2002
  545MOL0     C73494   4.347   6.057   9.803  0.6959 -0.5144 -0.2140
  545MOL0     C73495   4.505   5.806   9.456  0.2555  0.2967  0.0936
  545MOL0     C73496   4.417   5.706   9.410  0.6994 -0.3536 -0.3193
  545MOL0     C73497   4.455   5.598   9.334  0.3391 -0.0820  0.7577
  545MOL0     C73498   4.590   5.575   9.309  0.0661 -0.2015 -0.2302
  545MOL0     O73499   4.624   5.454   9.257 -0.1443  0.5179  0.1489
  545MOL0     C73500   4.745   5.445   9.179  0.5380  0.8246  0.2498
  545MOL0     C73501   4.734   5.300   9.113  0.0932 -0.2592  0.5839
  545MOL0     C73502   4.835   5.271   8.999  0.4779 -0.9457  0.0085
  545MOL0     C73503   4.985   5.257   9.046 -0.1074  0.3427 -0.2531
  545MOL0     C73504   5.019   5.169   9.157 -0.0399 -1.2434  0.1539
  545MOL0     C73505   5.058   5.099   9.250  0.9736 -0.4236 -0.2797
  545MOL0     C73506   4.687   5.670   9.355  0.8287 -0.9666  1.0204
  545MOL0     C73507   4.641   5.783   9.435  0.1670  0.0294  0.0615
  545MOL0     H73508   4.115   6.028   9.562 -2.5741 -0.2993  0.5473
  545MOL0     H73509   3.988   6.188   9.727 -0.4354  0.6914  2.9647
  545MOL0     H73510   4.155   6.180  10.130 -1.2326 -0.5083  1.9426
  545MOL0     H73511   4.072   6.337  10.142  0.8661  0.1916  1.3947
  545MOL0     H73512   3.968   6.063  10.094  1.9061  0.8189 -2.6027
  545MOL0     H73513   3.936   6.155  10.230  0.6359  0.3931  0.9983
  545MOL0     H73514   3.836   6.340  10.078  0.0680 -0.6900  0.2827
  545MOL0     H73515   3.824   6.232   9.948 -0.6028  1.0865  0.5269
  545MOL0     H73516   3.707   6.057  10.078  2.4730  0.2609 -0.1329
  545MOL0     H73517   3.692   6.177  10.213  2.0824  0.7474 -0.4082
  545MOL0     H73518   3.554   6.312  10.057  0.4618 -0.3565  2.8406
  545MOL0     H73519   3.575   6.195   9.931 -3.4948 -0.3481 -0.9514
  545MOL0     H73520   3.445   6.015  10.062  1.0542 -0.6095 -0.6973
  545MOL0     H73521   3.424   6.130  10.193  0.9539  2.5364  0.0189
  545MOL0     H73522   3.285   6.278  10.035 -1.6788  0.1311 -0.1424
  545MOL0     H73523   3.337   6.176   9.904 -1.5834 -0.6209  0.5173
  545MOL0     H73524   3.214   6.035  10.141  2.1309  1.0358 -0.8732
  545MOL0     H73525   3.185   5.995   9.976 -1.5147  1.7883 -1.9584
  545MOL0     H73526   2.979   6.144   9.857  0.0463  1.7965 -1.5039
  545MOL0     H73527   2.715   6.197   9.875  1.7279  1.6762 -1.9063
  545MOL0     H73528   2.664   6.302  10.012  0.3321  0.5441  0.6137
  545MOL0     H73529   2.690   6.433   9.800 -4.1101  0.3604  4.5624
  545MOL0     H73530   2.869   6.376   9.807  0.0741 -3.2054  1.8486
  545MOL0     H73531   2.716   6.546  10.013  0.4066  2.5606 -0.1605
  545MOL0     H73532   2.787   6.611   9.859  3.5648  1.3832  1.2616
  545MOL0     H73533   3.001   6.482   9.982  0.2490  0.5041  3.0998
  545MOL0     H73534   2.909   6.513  10.114  0.3673 -1.4135  0.1722
  545MOL0     H73535   3.150   6.545  10.108 -1.9614 -0.2055  2.5716
  545MOL0     H73536   3.379   6.486  10.142 -1.7106  1.2171 -1.3667
  545MOL0     H73537   3.502   6.602  10.201 -0.8580  1.8162 -1.0464
  545MOL0     H73538   3.360   6.561  10.301  2.0307 -1.2671  0.6545
  545MOL0     H73539   3.666   6.882   9.879  2.7559 -1.3749 -0.2013
  545MOL0     H73540   3.913   6.908   9.841  1.4186  1.4908  0.1067
  545MOL0     H73541   4.142   7.207  10.055  0.3086  0.4272 -0.1904
  545MOL0     H73542   4.186   7.062  10.148  3.6168  0.7532 -0.4962
  545MOL0     H73543   4.301   7.164   9.883  0.3292  4.4737  2.5512
  545MOL0     H73544   4.391   7.164  10.035  0.5360 -0.6970 -0.5022
  545MOL0     H73545   4.311   6.920   9.869  0.7823 -0.8094 -0.4890
  545MOL0     H73546   4.339   6.907  10.041 -2.2343  0.5048 -0.6679
  545MOL0     H73547   4.545   6.844   9.899  1.2815  0.1599 -0.0039
  545MOL0     H73548   4.536   7.007   9.815 -0.5240 -0.0500 -0.7676
  545MOL0     H73549   4.621   7.127  10.000 -1.2282 -0.1735 -0.5970
  545MOL0     H73550   4.724   6.984   9.981  1.3095  1.5727  0.5760
  545MOL0     H73551   4.672   7.020  10.216  2.4652 -2.1791 -0.3809
  545MOL0     H73552   4.489   7.001  10.176 -0.1895  0.7446 -1.6989
  545MOL0     H73553   4.715   6.801  10.177  0.0567  2.2422 -0.2909
  545MOL0     H73554   4.565   6.762  10.087 -3.6215  3.7619 -1.2337
  545MOL0     H73555   4.592   6.837  10.387 -1.3399  0.7546  0.4188
  545MOL0     H73556   4.543   6.680  10.318 -2.1739 -0.2943 -4.5083
  545MOL0     H73557   3.954   7.167  10.176 -0.0939  1.0714 -1.1639
  545MOL0     H73558   3.703   7.153  10.215 -1.3912 -2.9905  1.0412
  545MOL0     H73559   3.290   7.001  10.010 -2.9327  0.1297  0.1672
  545MOL0     H73560   3.073   6.921   9.958 -0.9844 -0.5562 -0.1429
  545MOL0     H73561   4.330   6.158   9.991 -1.0770 -0.7738  1.2708
  545MOL0     H73562   4.446   6.018   9.821  0.8501  0.3830  1.0661
  545MOL0     H73563   4.320   5.722   9.456  1.2177  1.4488  0.2011
  545MOL0     H73564   4.382   5.519   9.315 -0.4810  1.2518 -2.1574
  545MOL0     H73565   4.734   5.518   9.098 -1.9161 -0.0887 -0.3509
  545MOL0     H73566   4.840   5.462   9.229  2.3027 -0.9962 -2.2314
  545MOL0     H73567   4.633   5.285   9.074  0.0848  1.4724 -0.1237
  545MOL0     H73568   4.753   5.221   9.187 -2.8021 -0.4054  1.2745
  545MOL0     H73569   4.840   5.356   8.930 -1.9507 -0.9588 -0.2486
  545MOL0     H73570   4.802   5.180   8.949 -0.1214 -0.8288  0.1841
  545MOL0     H73571   5.021   5.358   9.071 -2.3976  1.6690 -1.9341
  545MOL0     H73572   5.047   5.223   8.962 -0.9808 -0.1330 -0.7174
  545MOL0     H73573   5.104   5.047   9.332  2.1343  3.4314  1.7529
  545MOL0     H73574   4.792   5.647   9.343  0.4783 -2.7587  1.0872
  545MOL0     H73575   4.714   5.851   9.479  0.0152 -1.0182  2.0803
  546MOL0     O73576   3.485   7.328   5.620 -0.5282  0.3906 -0.2526
  546MOL0     C73577   3.574   7.378   5.678  0.1697  1.2378  0.0907
  546MOL0     O73578   3.557   7.471   5.781 -0.8266  0.2984 -0.7340
  546MOL0     C73579   3.431   7.492   5.827 -0.4062  0.0699  0.1212
  546MOL0     C73580   3.343   7.404   5.897  0.4310  0.3826  0.1113
  546MOL0     C73581   3.219   7.448   5.957  0.2263 -0.1490 -0.0150
  546MOL0     C73582   3.176   7.577   5.943 -0.4199  0.1099 -0.4111
  546MOL0     O73583   3.058   7.615   6.010 -0.2094 -0.6432  0.4663
  546MOL0     C73584   2.979   7.711   5.937 -0.4269  0.3398  1.1396
  546MOL0     C73585   2.834   7.702   5.975 -0.4371 -0.1529 -0.2824
  546MOL0     C73586   2.761   7.814   5.915 -0.3994  0.2903 -0.1908
  546MOL0     C73587   2.612   7.788   5.936  0.0337  0.2559 -0.1324
  546MOL0     C73588   2.520   7.915   5.931 -1.1046 -0.4882  0.7307
  546MOL0     C73589   2.377   7.883   5.973  0.6273  0.5668  0.2636
  546MOL0     C73590   2.283   8.006   5.999  1.0237  0.3658 -0.2890
  546MOL0     C73591   2.148   7.974   6.062 -0.0233  0.1269 -0.2586
  546MOL0     N73592   2.060   7.890   5.985 -0.4579  1.5395  0.6068
  546MOL0     C73593   2.043   7.752   5.998 -0.3389  0.4697 -0.0427
  546MOL0     C73594   1.931   7.718   5.924  0.5576  0.2344 -0.0830
  546MOL0     C73595   1.862   7.579   5.918  0.1485 -0.4990 -0.3439
  546MOL0     C73596   1.774   7.560   6.035  0.8021  0.4671  0.3483
  546MOL0     C73597   1.680   7.446   6.000 -0.0518 -0.7395  0.9555
  546MOL0     C73598   1.606   7.376   6.120 -0.3030 -0.0232 -0.5627
  546MOL0     O73599   1.537   7.270   6.071 -0.4204 -0.4622 -0.0021
  546MOL0     C73600   1.423   7.236   6.141  0.4743  0.6204  0.0090
  546MOL0     C73601   1.334   7.155   6.079  0.1101  0.0860  0.2256
  546MOL0     C73602   1.213   7.114   6.123  0.2792  0.1711  0.7988
  546MOL0     C73603   1.128   7.024   6.045 -0.2322  0.1680  0.1904
  546MOL0     C73604   1.172   7.152   6.245 -0.1662  0.0289 -0.0643
  546MOL0     C73605   1.047   7.113   6.306  0.3886 -0.1525 -0.3655
  546MOL0     O73606   0.995   7.204   6.395 -0.6960  0.3700  0.2521
  546MOL0     C73607   0.872   7.209   6.442  0.2592 -0.3045  0.1390
  546MOL0     C73608   0.854   7.310   6.538  0.7772  0.1786  0.5410
  546MOL0     C73609   0.722   7.327   6.589 -0.7665 -0.2601 -0.2569
  546MOL0     C73610   0.612   7.245   6.549 -0.2220  0.8335 -0.5807
  546MOL0     O73611   0.487   7.269   6.612 -0.6921  0.4882  0.0296
  546MOL0     C73612   0.392   7.162   6.625 -0.5027  1.0439  0.3457
  546MOL0     C73613   0.262   7.214   6.689 -0.2519  0.1189 -0.2164
  546MOL0     C73614   0.148   7.114   6.666  0.1473 -0.4143 -0.1114
  546MOL0     C73615   0.014   7.172   6.727  0.2627 -1.1122 -0.5934
  546MOL0     C73616  -0.102   7.073   6.713 -0.4338  0.0731  0.5978
  546MOL0     C73617  -0.158   7.081   6.573 -1.2855  0.9391  0.5751
  546MOL0     C73618  -0.236   6.952   6.527  0.2010  0.2214  0.5039
  546MOL0     C73619  -0.152   6.837   6.480 -0.2367  0.7693  0.0602
  546MOL0    Cl73620  -0.054   6.748   6.598  0.6445  0.0836 -0.5864
  546MOL0     C73621   0.633   7.149   6.448  0.0619 -0.1904 -0.4591
  546MOL0     C73622   0.761   7.134   6.398 -0.1396 -0.6254 -0.2325
  546MOL0     O73623   1.008   7.001   6.292  0.2043 -0.2103 -0.0137
  546MOL0     C73624   1.263   7.239   6.319  0.9732  0.0486  0.1312
  546MOL0     C73625   1.387   7.271   6.267 -0.9323 -0.0914 -0.1568
  546MOL0     N73626   1.889   7.834   5.860 -0.2732 -0.6491  0.4152
  546MOL0     N73627   1.962   7.931   5.901 -0.1662 -0.5351 -0.4359
  546MOL0     C73628   3.262   7.659   5.861  1.3338  0.0611 -0.3622
  546MOL0     C73629   3.385   7.620   5.813  0.1296 -0.3630  0.2169
  546MOL0     C73630   3.712   7.365   5.626 -0.6643 -0.2281 -0.1977
  546MOL0     C73631   3.741   7.307   5.502 -0.0055 -0.4075  0.1133
  546MOL0     C73632   3.867   7.308   5.452 -0.5190  0.6832  0.1766
  546MOL0     C73633   3.967   7.361   5.527 -0.3140 -0.4686 -0.2605
  546MOL0     O73634   4.103   7.363   5.485  0.4026 -0.0737  0.4253
  546MOL0     C73635   4.194   7.281   5.553  0.3440 -0.3200 -0.8524
  546MOL0     C73636   4.239   7.156   5.475 -0.0975  0.0359  0.0819
  546MOL0     C73637   4.268   7.195   5.326  0.2055  0.2239 -0.5389
  546MOL0     C73638   4.332   7.104   5.221 -0.1228  0.0793 -0.4680
  546MOL0     C73639   4.470   7.075   5.249 -0.2403  0.0079 -0.3141
  546MOL0     C73640   4.596   7.058   5.252  0.5274 -0.1426 -0.7409
  546MOL0     C73641   3.946   7.411   5.658  0.7876  0.8296 -0.4552
  546MOL0     C73642   3.820   7.407   5.711 -1.0479  0.3337 -0.5333
  546MOL0     H73643   3.376   7.304   5.923 -1.0914  0.3195  2.1051
  546MOL0     H73644   3.153   7.380   6.009 -3.6021  0.0988 -4.0097
  546MOL0     H73645   3.019   7.809   5.964 -0.9203  0.7479  0.4518
  546MOL0     H73646   2.994   7.694   5.830  0.8295  0.9646  1.2026
  546MOL0     H73647   2.788   7.616   5.925 -0.3490 -0.5643  0.3402
  546MOL0     H73648   2.819   7.695   6.083  0.7501 -1.2670 -0.1608
  546MOL0     H73649   2.791   7.904   5.969 -0.8570 -1.2786  2.9300
  546MOL0     H73650   2.771   7.830   5.807  0.9524  0.7448 -0.0173
  546MOL0     H73651   2.570   7.700   5.885  2.5644 -0.7525 -0.6355
  546MOL0     H73652   2.613   7.753   6.039 -2.0796  0.0193 -0.1589
  546MOL0     H73653   2.550   7.987   6.007 -0.3302 -1.5937  1.5116
  546MOL0     H73654   2.526   7.967   5.835 -1.8819  1.7752  1.8318
  546MOL0     H73655   2.322   7.815   5.908 -0.8745 -0.3901  2.3937
  546MOL0     H73656   2.381   7.837   6.073 -0.3490  0.1168  0.1044
  546MOL0     H73657   2.332   8.083   6.059 -1.1767  2.2740 -0.7964
  546MOL0     H73658   2.252   8.045   5.902 -1.3000 -1.7858 -0.5256
  546MOL0     H73659   2.092   8.065   6.085 -3.7359 -1.7018 -1.3255
  546MOL0     H73660   2.171   7.922   6.156  0.2680 -1.7578 -1.3219
  546MOL0     H73661   2.098   7.691   6.069 -1.2903  1.7181  1.8620
  546MOL0     H73662   1.805   7.574   5.825 -1.1315  4.4787 -0.1013
  546MOL0     H73663   1.940   7.502   5.924 -0.2629 -0.9784 -0.9731
  546MOL0     H73664   1.708   7.648   6.039 -2.0073 -1.4664 -0.4008
  546MOL0     H73665   1.836   7.538   6.122  0.2766  2.3845  1.2714
  546MOL0     H73666   1.726   7.362   5.948  0.4993 -0.1178  0.4220
  546MOL0     H73667   1.614   7.489   5.925  2.8481 -0.4971 -1.6899
  546MOL0     H73668   1.533   7.441   6.169 -0.2396 -0.6507  0.3902
  546MOL0     H73669   1.678   7.350   6.199  0.4828  1.2463 -0.8364
  546MOL0     H73670   1.356   7.127   5.976  0.1718  0.8070  0.0382
  546MOL0     H73671   1.118   6.931   6.102  1.2572  0.9156  1.7780
  546MOL0     H73672   1.026   7.057   6.026 -0.2401  0.5088  0.7996
  546MOL0     H73673   1.176   7.001   5.950 -2.9176 -0.6743 -1.0557
  546MOL0     H73674   0.926   7.385   6.568  3.1788 -1.0505 -1.8124
  546MOL0     H73675   0.713   7.411   6.656  0.8753 -0.4590  0.2613
  546MOL0     H73676   0.369   7.128   6.524 -2.1132  0.0870  1.0013
  546MOL0     H73677   0.433   7.079   6.683  0.5825  2.2104  1.3276
  546MOL0     H73678   0.270   7.238   6.796 -1.6926 -0.1276 -0.0208
  546MOL0     H73679   0.231   7.305   6.638 -0.1455  0.5899  0.5340
  546MOL0     H73680   0.175   7.019   6.713 -0.1115 -0.8426 -0.8178
  546MOL0     H73681   0.141   7.096   6.559  0.6486 -0.5141 -0.1258
  546MOL0     H73682   0.018   7.198   6.833 -1.5249 -0.1121 -0.7243
  546MOL0     H73683  -0.009   7.267   6.677  0.9373 -0.0996  0.9448
  546MOL0     H73684  -0.179   7.106   6.783 -2.1899 -1.0229 -0.7139
  546MOL0     H73685  -0.066   6.974   6.743  0.8641 -0.3487 -1.9959
  546MOL0     H73686  -0.226   7.166   6.571 -0.1945  1.8219 -0.5681
  546MOL0     H73687  -0.074   7.087   6.503  0.1683 -0.3799  2.1077
  546MOL0     H73688  -0.298   6.985   6.443  0.8827  2.3033  0.7593
  546MOL0     H73689  -0.296   6.910   6.607  1.9188 -3.0305  0.2454
  546MOL0     H73690  -0.092   6.873   6.396  1.4446 -2.9947 -0.5721
  546MOL0     H73691  -0.213   6.766   6.424  0.1020  1.5141 -1.3038
  546MOL0     H73692   0.553   7.087   6.410 -0.6256  0.0352  0.5727
  546MOL0     H73693   0.787   7.066   6.317  2.4211 -1.7060  1.3649
  546MOL0     H73694   1.239   7.280   6.417 -0.1558  4.4192 -1.7208
  546MOL0     H73695   1.456   7.327   6.330 -1.1125  1.3332 -1.1893
  546MOL0     H73696   3.238   7.763   5.842 -0.6836 -0.4709 -1.0221
  546MOL0     H73697   3.449   7.689   5.759  1.6178  0.4424  2.8270
  546MOL0     H73698   3.658   7.278   5.438  1.2548 -0.4893 -1.5378
  546MOL0     H73699   3.882   7.279   5.348 -4.0074  1.2718 -0.6227
  546MOL0     H73700   4.275   7.350   5.580 -1.7329  1.6640  0.6956
  546MOL0     H73701   4.150   7.248   5.647 -0.9026  2.0036 -0.5594
  546MOL0     H73702   4.168   7.074   5.485  3.3922 -3.2525  0.1946
  546MOL0     H73703   4.330   7.121   5.524 -0.5801 -0.2268  0.7973
  546MOL0     H73704   4.334   7.281   5.315 -0.3778  0.5269 -1.8206
  546MOL0     H73705   4.172   7.231   5.287 -0.3671  1.6759  1.9692
  546MOL0     H73706   4.330   7.160   5.128 -1.4692 -2.7439 -2.2603
  546MOL0     H73707   4.289   7.004   5.208  1.4513 -0.5328 -1.2488
  546MOL0     H73708   4.699   7.034   5.267  0.3593  0.0473  0.9097
  546MOL0     H73709   4.032   7.456   5.709 -0.3601  3.3247 -0.5655
  546MOL0     H73710   3.812   7.439   5.814  2.3075  0.7875 -0.2959
  547MOL0     O73711   2.502  11.308   1.064 -0.3792  0.0274  0.4915
  547MOL0     C73712   2.552  11.407   1.112 -0.8685 -0.5388  0.5930
  547MOL0     O73713   2.517  11.478   1.229  0.3862  0.6098 -0.1748
  547MOL0     C73714   2.408  11.427   1.304  0.3112  0.5062  0.6554
  547MOL0     C73715   2.278  11.399   1.245  0.0739 -0.1843  0.0284
  547MOL0     C73716   2.166  11.375   1.327  0.7620 -0.9284 -0.2887
  547MOL0     C73717   2.176  11.391   1.458  0.0878 -0.5066 -0.6790
  547MOL0     O73718   2.071  11.352   1.531 -0.0353  0.2084  0.1489
  547MOL0     C73719   1.969  11.453   1.550  0.6230 -0.2109  0.5008
  547MOL0     C73720   1.876  11.415   1.664  0.5891  0.2244  0.0704
  547MOL0     C73721   1.941  11.409   1.798 -0.3732 -0.3512 -0.5875
  547MOL0     C73722   2.041  11.528   1.829 -0.0017  0.5386 -0.1669
  547MOL0     C73723   1.985  11.665   1.839  1.4434  1.2782 -0.0375
  547MOL0     C73724   2.086  11.767   1.877 -0.3974 -0.0728 -0.5789
  547MOL0     C73725   2.199  11.781   1.777 -0.2033  1.0014 -0.8322
  547MOL0     C73726   2.274  11.909   1.796  0.8461 -0.2598  0.5646
  547MOL0     N73727   2.317  11.916   1.935  0.6884 -0.1966  0.4419
  547MOL0     C73728   2.420  11.827   1.979  0.0361 -0.7467 -0.5042
  547MOL0     C73729   2.447  11.885   2.100 -0.5934 -0.1517 -0.2124
  547MOL0     C73730   2.557  11.851   2.203 -0.1754 -1.1329 -0.2164
  547MOL0     C73731   2.698  11.899   2.160 -0.3778 -0.8046 -0.2305
  547MOL0     C73732   2.692  12.044   2.096  0.0905 -0.5105  0.1319
  547MOL0     C73733   2.636  12.150   2.199  0.6883 -0.8177 -0.0461
  547MOL0     O73734   2.608  12.284   2.143  0.6274  0.5173 -0.4877
  547MOL0     C73735   2.702  12.372   2.123 -0.4929 -0.8556 -0.2349
  547MOL0     C73736   2.677  12.498   2.068 -0.1136 -0.2279 -0.2851
  547MOL0     C73737   2.776  12.588   2.037  0.8466  0.1687 -0.5591
  547MOL0     C73738   2.716  12.707   1.955  1.0817  0.1703 -0.0233
  547MOL0     C73739   2.913  12.557   2.052  0.3118 -0.4800  0.5146
  547MOL0     C73740   3.027  12.633   1.993 -0.9751 -0.8573  0.2280
  547MOL0     O73741   3.000  12.741   1.908  0.8152 -0.3823 -0.3172
  547MOL0     C73742   3.097  12.805   1.844 -0.1089  0.3076 -0.1149
  547MOL0     C73743   3.156  12.923   1.880 -0.1231 -0.0317  1.6139
  547MOL0     C73744   3.262  12.981   1.809 -0.6675  0.7824 -0.4879
  547MOL0     C73745   3.309  12.921   1.692  0.8119  0.2829  0.0075
  547MOL0     O73746   3.407  12.994   1.628 -0.5358  0.2785  0.0791
  547MOL0     C73747   3.423  12.983   1.480 -0.3071  0.0984 -0.1138
  547MOL0     C73748   3.536  12.883   1.447  0.1338 -0.7140  0.3449
  547MOL0     C73749   3.672  12.930   1.509  0.7446  0.2115 -0.2113
  547MOL0     C73750   3.712  13.067   1.464  0.0696  0.5656  0.0875
  547MOL0     C73751   3.853  13.094   1.520  0.2583  0.6287  0.7964
  547MOL0     C73752   3.914  13.225   1.481 -0.2368 -0.0751  0.3974
  547MOL0     C73753   4.056  13.227   1.538  0.2829 -0.1868 -0.2658
  547MOL0     C73754   4.109  13.362   1.528 -0.1675 -0.4547  0.4583
  547MOL0    Cl73755   4.296  13.361   1.523  0.4646  0.1900 -0.2706
  547MOL0     C73756   3.246  12.799   1.647  0.0599 -0.6897  0.2044
  547MOL0     C73757   3.145  12.745   1.723  0.2421  0.3529 -0.4866
  547MOL0     O73758   3.145  12.587   2.005  0.6616 -0.6568  0.2151
  547MOL0     C73759   2.941  12.428   2.105  0.6309 -0.2532 -0.0571
  547MOL0     C73760   2.841  12.340   2.145  0.4413  0.4349 -0.3299
  547MOL0     N73761   2.358  11.997   2.123  0.2203  0.8899  0.3611
  547MOL0     N73762   2.280  12.010   2.023  0.4683  0.4538  0.6030
  547MOL0     C73763   2.304  11.408   1.517  0.1047 -0.2403  0.2627
  547MOL0     C73764   2.418  11.436   1.439 -0.3000 -0.2304 -0.0542
  547MOL0     C73765   2.685  11.443   1.053  0.2388  0.4884 -0.4407
  547MOL0     C73766   2.770  11.542   1.103  0.3380  0.8219  0.3482
  547MOL0     C73767   2.897  11.566   1.044  1.1154 -0.1521 -0.0934
  547MOL0     C73768   2.936  11.478   0.936 -0.2524  0.0863  0.0082
  547MOL0     O73769   3.056  11.520   0.883  0.2522  0.7017 -0.1041
  547MOL0     C73770   3.113  11.440   0.777 -0.3422  0.0559 -0.3935
  547MOL0     C73771   3.212  11.540   0.706  0.2439  1.2025  0.5109
  547MOL0     C73772   3.328  11.585   0.796 -0.3427 -0.0247  0.3888
  547MOL0     C73773   3.438  11.681   0.738 -0.8521  0.5299  0.0082
  547MOL0     C73774   3.490  11.642   0.611 -0.5569  0.2045  0.4799
  547MOL0     C73775   3.544  11.635   0.503  0.4157  0.2577 -0.2752
  547MOL0     C73776   2.862  11.366   0.895 -0.1164 -0.3631 -0.2450
  547MOL0     C73777   2.731  11.363   0.947 -1.0687 -0.1694  0.4789
  547MOL0     H73778   2.276  11.401   1.137  0.5774  1.9847  0.0037
  547MOL0     H73779   2.076  11.347   1.274  0.8969  1.8830 -2.2478
  547MOL0     H73780   1.996  11.558   1.562  0.8260  0.0746 -1.9488
  547MOL0     H73781   1.915  11.446   1.455  0.0859  1.0338  0.7084
  547MOL0     H73782   1.800  11.493   1.658 -0.1634 -0.4966  0.0748
  547MOL0     H73783   1.821  11.327   1.631  0.6408  1.6453 -4.5685
  547MOL0     H73784   1.861  11.401   1.872  0.9711  0.6759  1.0527
  547MOL0     H73785   1.994  11.314   1.807 -1.5573 -1.2225 -2.2979
  547MOL0     H73786   2.081  11.507   1.928 -1.2396 -0.8705  0.0699
  547MOL0     H73787   2.119  11.534   1.752 -2.2755  0.4168 -2.6619
  547MOL0     H73788   1.927  11.691   1.750  0.5482 -1.4559 -0.3528
  547MOL0     H73789   1.917  11.653   1.924 -0.5939 -0.3321 -1.7757
  547MOL0     H73790   2.035  11.862   1.892  0.6048  0.4028 -0.0767
  547MOL0     H73791   2.127  11.732   1.972  2.4741 -0.2696 -1.7795
  547MOL0     H73792   2.268  11.696   1.779 -4.7193 -3.1358 -2.2295
  547MOL0     H73793   2.158  11.779   1.676 -2.3170  1.8323 -0.0468
  547MOL0     H73794   2.198  11.986   1.777  0.2359 -0.1077  3.2588
  547MOL0     H73795   2.360  11.907   1.729 -0.7298 -0.6698 -1.5728
  547MOL0     H73796   2.449  11.730   1.940  0.3092 -0.2314 -1.5992
  547MOL0     H73797   2.537  11.903   2.297 -0.1709  0.1507 -0.9018
  547MOL0     H73798   2.563  11.744   2.224 -2.5937 -1.0714  1.0602
  547MOL0     H73799   2.743  11.836   2.083  0.1507 -0.5706 -0.1213
  547MOL0     H73800   2.764  11.904   2.247 -1.5006 -0.2465  0.6096
  547MOL0     H73801   2.641  12.060   2.001  0.3869 -0.1283  0.0370
  547MOL0     H73802   2.796  12.069   2.075  0.1156  0.9058  1.7041
  547MOL0     H73803   2.704  12.167   2.283  4.1612  0.9737 -2.9980
  547MOL0     H73804   2.544  12.124   2.253  2.9750 -0.8071  4.2897
  547MOL0     H73805   2.576  12.523   2.036 -0.4416  0.6768  1.3424
  547MOL0     H73806   2.711  12.673   1.851  0.4277 -3.5101  1.0455
  547MOL0     H73807   2.616  12.732   1.990 -0.5291 -3.2520 -1.7198
  547MOL0     H73808   2.776  12.798   1.964  0.2572  0.6967  0.2758
  547MOL0     H73809   3.117  12.971   1.969 -0.2701 -0.2980  1.6936
  547MOL0     H73810   3.311  13.074   1.833  0.3558  0.5159 -1.4718
  547MOL0     H73811   3.327  12.964   1.430  0.7957  1.1124 -2.7867
  547MOL0     H73812   3.440  13.081   1.434  0.1925 -0.1705 -0.5049
  547MOL0     H73813   3.506  12.782   1.477  0.3619 -1.1142 -0.7081
  547MOL0     H73814   3.547  12.878   1.338  3.5788 -0.3377  0.5781
  547MOL0     H73815   3.754  12.866   1.475  0.0700 -3.0706  3.6321
  547MOL0     H73816   3.680  12.923   1.618  1.8024  3.0954 -0.0059
  547MOL0     H73817   3.713  13.070   1.355  2.2810 -1.7162 -0.0597
  547MOL0     H73818   3.636  13.142   1.486 -0.0417  0.3345  0.5020
  547MOL0     H73819   3.915  13.012   1.482  1.3361  0.7607  2.2029
  547MOL0     H73820   3.849  13.076   1.627 -1.3558  2.8579  1.1736
  547MOL0     H73821   3.899  13.244   1.374  1.4253  2.7924  0.5698
  547MOL0     H73822   3.853  13.303   1.526 -2.7361 -1.6783  0.0085
  547MOL0     H73823   4.126  13.170   1.476  1.7072 -0.5031  1.5594
  547MOL0     H73824   4.061  13.190   1.640  3.3882  1.5464  0.3297
  547MOL0     H73825   4.080  13.421   1.616  1.9807 -1.3152  1.8356
  547MOL0     H73826   4.070  13.406   1.437  0.2372  0.2809  0.6344
  547MOL0     H73827   3.277  12.739   1.563  0.2990 -0.6876  0.2902
  547MOL0     H73828   3.101  12.656   1.679 -4.5809  2.3011 -0.2092
  547MOL0     H73829   3.039  12.389   2.129  0.8516  0.5474  0.3937
  547MOL0     H73830   2.875  12.254   2.202 -2.0234 -0.8678 -0.6849
  547MOL0     H73831   2.293  11.404   1.625 -0.3138 -1.8361  0.1902
  547MOL0     H73832   2.511  11.459   1.491 -0.3570 -0.8726  0.3483
  547MOL0     H73833   2.749  11.602   1.192  0.5952  1.5652 -0.0796
  547MOL0     H73834   2.967  11.643   1.073  0.7823  0.6650 -1.3394
  547MOL0     H73835   3.163  11.349   0.810 -0.3157  0.2292  0.0513
  547MOL0     H73836   3.038  11.425   0.699 -2.1635 -0.3248  1.3310
  547MOL0     H73837   3.152  11.626   0.674 -2.2403 -0.9944 -1.1415
  547MOL0     H73838   3.258  11.486   0.623  1.6107 -0.1638  2.0827
  547MOL0     H73839   3.386  11.499   0.829  2.1735  0.4770 -2.3258
  547MOL0     H73840   3.282  11.615   0.891 -1.2351 -1.3050  0.3910
  547MOL0     H73841   3.521  11.698   0.808 -0.7086  0.2438 -0.0923
  547MOL0     H73842   3.387  11.777   0.726 -1.8732 -0.2747 -2.9771
  547MOL0     H73843   3.595  11.637   0.409  0.5138  1.1812 -0.2103
  547MOL0     H73844   2.893  11.304   0.811  2.5879 -0.5710  0.7959
  547MOL0     H73845   2.671  11.284   0.903 -0.1303 -0.0966 -1.0141
  548MOL0     O73846   3.523   1.802   0.945 -0.2050  0.3365  0.1350
  548MOL0     C73847   3.553   1.705   1.016 -0.5495 -0.7585 -0.1759
  548MOL0     O73848   3.472   1.615   1.072 -0.0410  0.5999  0.1022
  548MOL0     C73849   3.340   1.612   1.047  0.2486  0.5275 -0.3358
  548MOL0     C73850   3.291   1.532   0.944 -0.4758 -0.3491 -0.2552
  548MOL0     C73851   3.151   1.538   0.916 -0.7414 -0.2542  0.3056
  548MOL0     C73852   3.064   1.596   1.005 -0.3915 -1.3064  0.4271
  548MOL0     O73853   2.923   1.594   0.981 -0.6104  0.4559 -0.2167
  548MOL0     C73854   2.863   1.461   0.951 -0.2161  0.1810  0.0037
  548MOL0     C73855   2.716   1.481   0.986  0.4563  0.1862  0.4023
  548MOL0     C73856   2.626   1.369   0.925 -1.0007  0.0639  0.8448
  548MOL0     C73857   2.489   1.384   0.979 -0.1128  0.0593 -0.0107
  548MOL0     C73858   2.401   1.264   0.941 -0.5834  0.7155  0.7810
  548MOL0     C73859   2.357   1.258   0.794  0.6776  0.2868  0.6342
  548MOL0     C73860   2.268   1.135   0.766  0.7166 -0.6617  0.0777
  548MOL0     C73861   2.227   1.134   0.617 -0.2155  0.2352  0.0601
  548MOL0     N73862   2.106   1.059   0.590 -0.1210 -0.1791 -0.2651
  548MOL0     C73863   1.977   1.093   0.638 -0.1980  0.2566 -0.0151
  548MOL0     C73864   1.903   0.989   0.597  0.0405  0.2853 -0.5502
  548MOL0     C73865   1.750   0.985   0.618  0.0707  0.5426  0.4500
  548MOL0     C73866   1.719   0.894   0.735  0.2409  0.4872  0.6166
  548MOL0     C73867   1.575   0.832   0.720 -0.5903  0.2447 -0.4392
  548MOL0     C73868   1.550   0.731   0.842 -0.6695  0.2838  0.6922
  548MOL0     O73869   1.512   0.785   0.969  0.2028 -0.5918  0.3762
  548MOL0     C73870   1.405   0.872   0.973 -0.5133  0.1209 -0.8168
  548MOL0     C73871   1.379   0.963   1.077  0.3577 -0.1368 -0.3509
  548MOL0     C73872   1.254   1.033   1.094 -0.2112 -0.3527 -0.6638
  548MOL0     C73873   1.243   1.123   1.218  0.0172  0.3936  0.3137
  548MOL0     C73874   1.155   1.026   0.997  0.0907  0.4771  0.0862
  548MOL0     C73875   1.022   1.099   0.989  0.3618  0.6614  0.6970
  548MOL0     O73876   0.954   1.073   0.876 -0.0513 -0.3943 -0.8636
  548MOL0     C73877   0.824   1.106   0.886 -0.2122  0.5477 -0.0731
  548MOL0     C73878   0.759   1.207   0.808  0.6513 -0.4882  0.0668
  548MOL0     C73879   0.624   1.238   0.836 -0.3495  0.1737 -0.0920
  548MOL0     C73880   0.551   1.167   0.935  0.1178 -0.5958  1.1424
  548MOL0     O73881   0.427   1.210   0.952  0.1723 -0.9786 -0.5966
  548MOL0     C73882   0.328   1.135   1.022 -0.9544 -1.2541  0.6522
  548MOL0     C73883   0.187   1.167   0.953 -0.1865 -0.3900 -0.0863
  548MOL0     C73884   0.138   1.305   0.994  1.0418 -0.2248  0.0252
  548MOL0     C73885   0.008   1.353   0.931 -0.6680  1.3478  0.5133
  548MOL0     C73886  -0.049   1.483   0.972  0.6967  0.3956  0.5396
  548MOL0     C73887  -0.180   1.518   0.898  0.5607  0.6356  0.1849
  548MOL0     C73888  -0.239   1.654   0.932  1.2835  0.7728 -0.4516
  548MOL0     C73889  -0.390   1.657   0.904  0.5212  0.5331 -0.5634
  548MOL0    Cl73890  -0.473   1.808   0.933 -0.0396 -0.0176 -0.1861
  548MOL0     C73891   0.611   1.068   1.007  0.0598  0.2033  0.5085
  548MOL0     C73892   0.747   1.035   0.975 -0.4203  0.1057 -0.1940
  548MOL0     O73893   0.991   1.179   1.077 -0.6148  0.1452 -0.1075
  548MOL0     C73894   1.177   0.929   0.891 -0.1689 -0.4731 -0.8752
  548MOL0     C73895   1.296   0.859   0.884  0.4760 -0.0161  0.5475
  548MOL0     N73896   1.984   0.885   0.550  0.1832  0.0037 -0.7775
  548MOL0     N73897   2.100   0.931   0.533 -0.0026 -0.3509 -0.3636
  548MOL0     C73898   3.107   1.667   1.113 -0.5757 -0.2097  0.0988
  548MOL0     C73899   3.245   1.670   1.146  0.1674  0.6940  0.5006
  548MOL0     C73900   3.695   1.693   1.065  0.1306  0.3393  0.7737
  548MOL0     C73901   3.780   1.805   1.063 -0.0167  0.4050 -1.3959
  548MOL0     C73902   3.913   1.795   1.110 -0.3282 -0.1172  1.2212
  548MOL0     C73903   3.964   1.671   1.147 -0.7848  0.2537  0.1021
  548MOL0     O73904   4.093   1.647   1.184 -0.6514  0.0060  0.1197
  548MOL0     C73905   4.185   1.759   1.176 -0.2013 -0.1987  0.3250
  548MOL0     C73906   4.329   1.707   1.198  0.1452  0.0121 -0.1468
  548MOL0     C73907   4.374   1.592   1.099 -0.2773 -0.9791 -0.7467
  548MOL0     C73908   4.454   1.478   1.161 -1.2106 -0.3402 -0.3237
  548MOL0     C73909   4.579   1.530   1.225 -0.3162 -0.7448 -0.4325
  548MOL0     C73910   4.685   1.571   1.268  0.4315 -0.1078 -0.4128
  548MOL0     C73911   3.875   1.562   1.146  0.0105 -0.1430  0.1381
  548MOL0     C73912   3.745   1.570   1.102  0.6101 -0.7073  0.4292
  548MOL0     H73913   3.349   1.470   0.876 -1.3402 -2.6759  1.0069
  548MOL0     H73914   3.112   1.495   0.824 -0.7028 -1.9315  1.0357
  548MOL0     H73915   2.882   1.435   0.847 -1.8346 -0.3898 -0.1639
  548MOL0     H73916   2.898   1.383   1.019 -1.1576  0.2887  0.6240
  548MOL0     H73917   2.702   1.504   1.092  0.3248  1.2780  0.1561
  548MOL0     H73918   2.678   1.577   0.951  0.0706  0.0968  0.5763
  548MOL0     H73919   2.617   1.363   0.816  1.5204  0.9343  0.5322
  548MOL0     H73920   2.675   1.275   0.954 -1.8264  0.2555  2.9995
  548MOL0     H73921   2.489   1.390   1.088 -0.6801 -0.4967  0.0331
  548MOL0     H73922   2.441   1.477   0.946  3.4338  1.5844 -1.3109
  548MOL0     H73923   2.465   1.177   0.961  0.3482  1.7472  2.5093
  548MOL0     H73924   2.306   1.266   0.995 -0.8887  1.5480  0.2242
  548MOL0     H73925   2.296   1.347   0.776  0.7461  0.1945 -0.1085
  548MOL0     H73926   2.449   1.264   0.734  1.4860 -1.8992  1.5813
  548MOL0     H73927   2.315   1.044   0.804  1.4859 -0.1705  0.3289
  548MOL0     H73928   2.181   1.136   0.833 -0.1194  0.2174 -0.9868
  548MOL0     H73929   2.309   1.093   0.558  0.2114  0.3554  0.5623
  548MOL0     H73930   2.200   1.236   0.588 -1.6385  0.0107  0.5369
  548MOL0     H73931   1.939   1.163   0.712 -2.8646 -3.1712  2.1539
  548MOL0     H73932   1.711   1.086   0.635  0.2007  0.2992  2.3967
  548MOL0     H73933   1.712   0.951   0.521 -1.8388  0.5269  1.1586
  548MOL0     H73934   1.728   0.945   0.831  1.9713 -0.6316  1.1040
  548MOL0     H73935   1.795   0.816   0.722  2.6290  2.8293 -0.5286
  548MOL0     H73936   1.574   0.771   0.629 -3.4353 -0.0299 -0.3294
  548MOL0     H73937   1.494   0.905   0.714 -1.9237 -0.9287  1.7835
  548MOL0     H73938   1.638   0.671   0.864 -1.5871 -0.5424  2.2881
  548MOL0     H73939   1.469   0.668   0.805  1.2676 -1.8646 -0.1581
  548MOL0     H73940   1.456   0.972   1.154  1.0259  0.5281 -1.0837
  548MOL0     H73941   1.339   1.140   1.268 -0.4639 -0.6808  1.6588
  548MOL0     H73942   1.201   1.222   1.196  0.2921  0.7106  1.1886
  548MOL0     H73943   1.174   1.084   1.293 -0.1659  2.9124  1.5617
  548MOL0     H73944   0.813   1.255   0.727 -0.6364 -1.3592 -1.3678
  548MOL0     H73945   0.583   1.316   0.773 -1.4633  0.6791  1.2049
  548MOL0     H73946   0.354   1.029   1.017 -2.0668 -1.5433  0.7463
  548MOL0     H73947   0.337   1.174   1.123 -0.2069  0.4561 -0.0395
  548MOL0     H73948   0.204   1.160   0.845  2.9617 -0.7435  0.3444
  548MOL0     H73949   0.116   1.087   0.979  0.5597 -1.2300 -0.5792
  548MOL0     H73950   0.223   1.372   0.982  1.4497 -0.5619  0.9791
  548MOL0     H73951   0.103   1.296   1.097 -1.7092  1.3237 -0.6599
  548MOL0     H73952   0.025   1.360   0.823 -2.2407  1.9714  0.2788
  548MOL0     H73953  -0.068   1.276   0.947  0.8942 -0.4117 -0.1675
  548MOL0     H73954   0.037   1.549   0.954  2.1786 -1.8724 -1.1937
  548MOL0     H73955  -0.048   1.504   1.079  2.5610  0.5558  0.5277
  548MOL0     H73956  -0.162   1.508   0.791  0.8926 -2.8580  0.4372
  548MOL0     H73957  -0.251   1.438   0.921 -0.5415  1.7491  0.7609
  548MOL0     H73958  -0.189   1.741   0.892 -0.7695  1.6287 -1.2998
  548MOL0     H73959  -0.241   1.650   1.042  1.3611  0.9240 -0.4453
  548MOL0     H73960  -0.425   1.580   0.973  0.7185 -0.5992 -1.6807
  548MOL0     H73961  -0.414   1.646   0.798 -1.6204 -0.3085 -0.0378
  548MOL0     H73962   0.568   0.997   1.077  1.3015  0.2294  1.3308
  548MOL0     H73963   0.788   0.946   1.023 -1.1166  0.6720  1.5286
  548MOL0     H73964   1.106   0.898   0.816 -0.3633 -2.2766 -0.0094
  548MOL0     H73965   1.308   0.802   0.792  0.5870  1.8223 -0.6327
  548MOL0     H73966   3.038   1.704   1.188  0.0868 -0.1975  0.7151
  548MOL0     H73967   3.288   1.722   1.231  2.7567 -0.2537 -0.1236
  548MOL0     H73968   3.747   1.903   1.031 -1.5153  0.0263 -1.0593
  548MOL0     H73969   3.976   1.879   1.085 -0.5124 -1.2362 -4.3100
  548MOL0     H73970   4.192   1.801   1.075  1.7996 -2.0536 -0.3923
  548MOL0     H73971   4.161   1.844   1.240  2.5247  1.4924 -0.7238
  548MOL0     H73972   4.338   1.680   1.304  0.5662  1.0030  0.0863
  548MOL0     H73973   4.394   1.792   1.175 -0.3832  0.0420 -1.6589
  548MOL0     H73974   4.432   1.652   1.028 -3.1779  1.2088 -1.4979
  548MOL0     H73975   4.285   1.549   1.050 -2.0769  0.4367  1.1078
  548MOL0     H73976   4.479   1.409   1.080  0.4499  0.9397 -0.9611
  548MOL0     H73977   4.399   1.434   1.244 -0.0716 -0.0185  0.6144
  548MOL0     H73978   4.780   1.584   1.314 -0.2473 -0.0413  1.0405
  548MOL0     H73979   3.903   1.466   1.187 -1.3566 -0.6519 -0.0517
  548MOL0     H73980   3.684   1.481   1.096 -0.7371  0.2314 -0.3676
  549MOL0     O73981   5.669   5.187  10.867 -0.0287  0.1952  0.3383
  549MOL0     C73982   5.757   5.146  10.792  0.5622  1.2362 -0.0250
  549MOL0     O73983   5.765   5.025  10.723  0.1215 -0.4342  0.2106
  549MOL0     C73984   5.642   4.959  10.712  0.1549 -1.2079 -0.4303
  549MOL0     C73985   5.569   4.962  10.595 -0.0418  0.0630 -0.0440
  549MOL0     C73986   5.444   4.901  10.582  0.2215 -0.1090  0.6822
  549MOL0     C73987   5.389   4.836  10.695 -0.2507 -0.0697 -0.3729
  549MOL0     O73988   5.268   4.774  10.682 -0.2156  0.0104  0.3338
  549MOL0     C73989   5.170   4.841  10.757 -0.6002  0.7904  0.6403
  549MOL0     C73990   5.038   4.787  10.737  0.9495 -0.4589  0.0238
  549MOL0     C73991   5.009   4.644  10.778  1.1725 -0.1667 -0.3545
  549MOL0     C73992   4.900   4.581  10.696 -0.4250  0.1003 -0.1163
  549MOL0     C73993   4.897   4.433  10.722  0.5138 -0.7354  0.3875
  549MOL0     C73994   4.826   4.340  10.629  1.0044  0.4221  0.1623
  549MOL0     C73995   4.664   4.361  10.642  0.8266  0.2819  0.2056
  549MOL0     C73996   4.619   4.477  10.558 -0.5633 -0.6655  0.6382
  549MOL0     N73997   4.479   4.468  10.548  0.2937  0.3129  0.2750
  549MOL0     C73998   4.385   4.518  10.629 -0.5331 -0.2700 -0.6451
  549MOL0     C73999   4.265   4.452  10.611  0.4028 -0.3097  0.1521
  549MOL0     C74000   4.146   4.488  10.685  0.0168 -0.0563 -0.6674
  549MOL0     C74001   4.038   4.375  10.666  0.2366 -0.7046  0.4501
  549MOL0     C74002   3.918   4.383  10.763 -0.5828 -0.4515 -0.0461
  549MOL0     C74003   3.799   4.462  10.703 -0.8698  0.5300 -0.4426
  549MOL0     O74004   3.719   4.503  10.810 -0.5061  0.0019 -0.1807
  549MOL0     C74005   3.607   4.573  10.786  0.0333  0.2899  0.4484
  549MOL0     C74006   3.521   4.580  10.895  0.4960 -0.0937  0.6178
  549MOL0     C74007   3.393   4.640  10.886  0.2029 -0.2852 -0.4629
  549MOL0     C74008   3.310   4.635  11.013  0.1665  0.6245 -0.2196
  549MOL0     C74009   3.349   4.688  10.759 -0.0760  0.5868  0.0477
  549MOL0     C74010   3.214   4.739  10.737 -0.1652  0.1730  0.1114
  549MOL0     O74011   3.145   4.808  10.832 -0.6069 -0.0356 -0.7081
  549MOL0     C74012   3.011   4.818  10.821 -0.2892 -0.4764 -0.4487
  549MOL0     C74013   2.968   4.945  10.787 -0.1827  0.5097 -0.1827
  549MOL0     C74014   2.836   4.966  10.792 -0.4602 -0.2565  1.1889
  549MOL0     C74015   2.744   4.868  10.831  0.3963  0.0160 -0.2210
  549MOL0     O74016   2.605   4.881  10.813  0.0296  0.1282 -0.1832
  549MOL0     C74017   2.561   5.022  10.807 -0.8052  0.3533 -0.3418
  549MOL0     C74018   2.405   5.020  10.808 -0.5876 -0.7902 -1.3009
  549MOL0     C74019   2.346   5.163  10.784  0.3425  1.0618  0.5681
  549MOL0     C74020   2.198   5.149  10.740 -0.5520  0.5980  0.4793
  549MOL0     C74021   2.129   5.277  10.723 -0.8007  0.3839  0.0127
  549MOL0     C74022   1.980   5.274  10.674 -0.2208 -0.0614 -0.0913
  549MOL0     C74023   1.962   5.207  10.533  0.5866 -0.2022  0.0200
  549MOL0     C74024   1.825   5.245  10.462 -0.1305 -0.2219 -0.4121
  549MOL0    Cl74025   1.685   5.192  10.550  0.2949  0.2070 -0.0376
  549MOL0     C74026   2.792   4.743  10.872  0.2776 -0.3520 -0.5309
  549MOL0     C74027   2.928   4.723  10.876 -0.3777  0.9377  0.4473
  549MOL0     O74028   3.169   4.702  10.629 -0.1184  0.1783  0.6298
  549MOL0     C74029   3.430   4.671  10.651  0.2241  0.8204 -0.2368
  549MOL0     C74030   3.557   4.615  10.663 -0.2664 -0.3535 -0.5751
  549MOL0     N74031   4.287   4.364  10.508 -0.7930  0.2162  0.4996
  549MOL0     N74032   4.420   4.360  10.482  0.6947  0.0946 -0.2568
  549MOL0     C74033   5.457   4.835  10.818 -0.2917  0.0277 -0.0562
  549MOL0     C74034   5.579   4.898  10.822  0.3390 -0.4605 -0.4198
  549MOL0     C74035   5.874   5.235  10.770  0.0485  0.8022 -0.1954
  549MOL0     C74036   5.950   5.222  10.656 -0.5163 -1.3116 -0.1736
  549MOL0     C74037   6.054   5.306  10.615 -0.2265 -0.5135 -0.0606
  549MOL0     C74038   6.091   5.408  10.702 -0.2242 -0.5043 -0.8947
  549MOL0     O74039   6.203   5.491  10.687 -0.5370  0.3048  0.3574
  549MOL0     C74040   6.269   5.489  10.558  0.6873 -0.2393  0.4245
  549MOL0     C74041   6.366   5.603  10.552 -0.5913  0.3828  0.4916
  549MOL0     C74042   6.485   5.581  10.654  0.5391 -0.6621  1.3802
  549MOL0     C74043   6.459   5.591  10.805 -0.9417 -0.4597  0.6355
  549MOL0     C74044   6.575   5.641  10.888 -1.4275 -0.0765  0.1009
  549MOL0     C74045   6.672   5.681  10.944 -0.4012 -0.8024 -0.0984
  549MOL0     C74046   6.018   5.417  10.826 -0.4019 -0.6837  0.6300
  549MOL0     C74047   5.907   5.340  10.851  0.3423  0.2387 -0.4242
  549MOL0     H74048   5.627   4.989  10.507 -1.5202 -0.3643 -1.1947
  549MOL0     H74049   5.400   4.915  10.484 -1.3911 -1.2217  1.2149
  549MOL0     H74050   5.186   4.828  10.865 -1.4724 -2.0614  0.5052
  549MOL0     H74051   5.174   4.946  10.726 -3.0854  0.2844 -1.7900
  549MOL0     H74052   4.991   4.861  10.802  1.4882 -0.2814  0.2200
  549MOL0     H74053   4.992   4.792  10.637 -2.3387 -0.1252  1.4274
  549MOL0     H74054   5.096   4.580  10.763 -0.1743 -1.7778 -1.5707
  549MOL0     H74055   4.973   4.634  10.881 -3.0304 -1.5505 -1.7644
  549MOL0     H74056   4.806   4.628  10.724 -0.5172  0.3596 -0.8408
  549MOL0     H74057   4.923   4.600  10.590  2.6697  2.2279  0.7752
  549MOL0     H74058   5.003   4.403  10.722  0.6861 -0.3400 -2.1476
  549MOL0     H74059   4.851   4.419  10.820 -0.5479  4.3227  0.8869
  549MOL0     H74060   4.851   4.375  10.528  0.0972  1.3029  0.2200
  549MOL0     H74061   4.851   4.237  10.654 -1.4427 -0.1296  0.6093
  549MOL0     H74062   4.616   4.268  10.608 -0.1369  0.0031  2.1711
  549MOL0     H74063   4.632   4.383  10.744  1.5207  2.4448 -0.0093
  549MOL0     H74064   4.665   4.470  10.459 -0.5099 -1.9620  0.7430
  549MOL0     H74065   4.653   4.575  10.594 -1.0837 -0.1474 -0.2191
  549MOL0     H74066   4.396   4.581  10.716  0.0944 -0.4730 -0.5692
  549MOL0     H74067   4.168   4.492  10.792  0.2886  2.2027 -0.7763
  549MOL0     H74068   4.112   4.583  10.643  2.0041  0.0949 -2.0556
  549MOL0     H74069   4.079   4.275  10.682  3.0292  0.7666  3.7794
  549MOL0     H74070   3.995   4.375  10.566  1.7822  0.8769 -0.2647
  549MOL0     H74071   3.955   4.421  10.859  0.0270 -0.5450 -0.2376
  549MOL0     H74072   3.875   4.282  10.768 -2.0279  0.0450 -1.7036
  549MOL0     H74073   3.731   4.419  10.629 -1.6621  4.2206 -2.1088
  549MOL0     H74074   3.840   4.547  10.647  0.3700  0.7089  0.6864
  549MOL0     H74075   3.555   4.538  10.989 -0.3867  1.4557  1.6777
  549MOL0     H74076   3.276   4.736  11.038  0.6272  0.6979  0.1365
  549MOL0     H74077   3.224   4.572  10.988  0.6044  0.0221 -0.2202
  549MOL0     H74078   3.360   4.606  11.106 -2.7122 -1.2760  0.8945
  549MOL0     H74079   3.042   5.018  10.756  0.1751  0.8726  1.4289
  549MOL0     H74080   2.818   5.069  10.764 -0.2586 -0.1584  1.4115
  549MOL0     H74081   2.609   5.076  10.889 -0.8678  3.4389 -2.1422
  549MOL0     H74082   2.586   5.067  10.710 -1.6399 -0.7693 -1.0986
  549MOL0     H74083   2.370   4.951  10.730  0.7343 -1.1494 -1.6023
  549MOL0     H74084   2.366   4.992  10.906  1.1715  0.5026 -0.1739
  549MOL0     H74085   2.401   5.213  10.703  0.9410  0.5691  0.6700
  549MOL0     H74086   2.349   5.221  10.876 -1.4097  1.5275  0.3806
  549MOL0     H74087   2.207   5.102  10.641  2.2301 -1.3234  1.4972
  549MOL0     H74088   2.134   5.085  10.801  0.4643 -2.2618 -1.2038
  549MOL0     H74089   2.184   5.335  10.649 -0.6342  2.5622  1.7080
  549MOL0     H74090   2.140   5.335  10.816  0.2774  0.2118  0.0009
  549MOL0     H74091   1.918   5.231  10.753 -0.0665 -1.5102 -0.7260
  549MOL0     H74092   1.947   5.379  10.670  4.4923  1.6463 -1.6036
  549MOL0     H74093   1.961   5.100  10.555 -1.0824  0.0681  1.4097
  549MOL0     H74094   2.050   5.219  10.468  0.2765  0.3804 -0.3039
  549MOL0     H74095   1.818   5.195  10.364 -3.0000 -0.9692  0.0956
  549MOL0     H74096   1.832   5.353  10.446  3.2468 -0.3349 -0.4466
  549MOL0     H74097   2.719   4.667  10.899  0.7972 -0.7065 -0.1026
  549MOL0     H74098   2.966   4.632  10.921 -1.7408 -0.0004 -0.2590
  549MOL0     H74099   3.384   4.708  10.560 -1.9247 -3.0983 -0.9998
  549MOL0     H74100   3.620   4.597  10.576 -2.6272 -1.9859 -2.0898
  549MOL0     H74101   5.416   4.775  10.899 -0.6560 -0.9944 -0.9709
  549MOL0     H74102   5.624   4.903  10.921 -1.7648  2.4152  0.5347
  549MOL0     H74103   5.918   5.144  10.587 -0.5133  0.0473 -1.7876
  549MOL0     H74104   6.098   5.283  10.518  0.2822 -0.1395  0.0756
  549MOL0     H74105   6.311   5.390  10.536 -1.9638 -1.4388  0.2685
  549MOL0     H74106   6.190   5.504  10.483 -0.5720 -0.4355  1.6645
  549MOL0     H74107   6.304   5.690  10.581  1.4721  2.6692 -1.5221
  549MOL0     H74108   6.401   5.615  10.450 -1.1928  3.2001  0.5142
  549MOL0     H74109   6.553   5.661  10.625 -0.6072  0.2783  1.2050
  549MOL0     H74110   6.528   5.487  10.619 -0.7286 -1.3270  1.5507
  549MOL0     H74111   6.443   5.490  10.845  1.4704 -1.7755 -1.4353
  549MOL0     H74112   6.372   5.653  10.826 -0.9665 -0.1158 -0.4205
  549MOL0     H74113   6.754   5.709  11.006  0.7228 -2.9311 -0.5382
  549MOL0     H74114   6.041   5.493  10.901  0.0294 -1.9982  1.8756
  549MOL0     H74115   5.863   5.350  10.950  0.5166 -2.1342 -0.0695
  550MOL0     O74116   3.979   4.333   8.962  0.1392  0.1888 -0.7079
  550MOL0     C74117   4.080   4.391   8.917 -0.2679  1.1982 -0.1217
  550MOL0     O74118   4.076   4.487   8.827  0.1854 -0.1064  0.0984
  550MOL0     C74119   3.962   4.522   8.759  0.0794 -0.6839 -0.4283
  550MOL0     C74120   3.909   4.436   8.660  0.2053 -0.1348 -0.3732
  550MOL0     C74121   3.786   4.471   8.606 -0.0005 -0.2369 -0.0323
  550MOL0     C74122   3.714   4.586   8.636 -0.2312  0.0969  0.1468
  550MOL0     O74123   3.587   4.620   8.597  0.3419  0.3487 -0.9489
  550MOL0     C74124   3.526   4.549   8.489  0.4495 -1.1317 -0.3389
  550MOL0     C74125   3.445   4.641   8.409  0.1478 -0.1950  1.3016
  550MOL0     C74126   3.327   4.696   8.485 -0.2643 -0.3128  0.3474
  550MOL0     C74127   3.356   4.803   8.586 -0.2517 -0.8350  0.6880
  550MOL0     C74128   3.243   4.901   8.614  0.3783  0.4836  0.2400
  550MOL0     C74129   3.130   4.823   8.679 -0.6867 -0.2046 -1.0023
  550MOL0     C74130   3.048   4.928   8.756 -0.1716  0.9492  0.6052
  550MOL0     C74131   2.914   4.881   8.804 -0.0910  0.0880  0.1749
  550MOL0     N74132   2.798   4.906   8.711 -0.5599  0.2214  0.0520
  550MOL0     C74133   2.676   4.973   8.739  0.3312 -0.2832  0.2331
  550MOL0     C74134   2.628   5.007   8.616  0.2094  1.0213  0.4173
  550MOL0     C74135   2.496   5.071   8.586 -0.6786 -0.6318 -0.6595
  550MOL0     C74136   2.392   4.955   8.588 -0.1885  0.4286 -0.2975
  550MOL0     C74137   2.255   5.003   8.561  0.9141 -0.1034 -0.5593
  550MOL0     C74138   2.228   5.012   8.411  0.0706 -0.5383  1.3612
  550MOL0     O74139   2.089   4.992   8.375 -0.1700  0.7024 -0.3717
  550MOL0     C74140   1.995   5.085   8.392 -0.3354 -0.4946  0.1328
  550MOL0     C74141   2.014   5.208   8.454  0.3596 -0.2171 -1.0078
  550MOL0     C74142   1.916   5.309   8.457  0.5151 -0.4805  0.9488
  550MOL0     C74143   1.952   5.453   8.507 -0.2300 -0.2946 -0.4052
  550MOL0     C74144   1.783   5.280   8.410 -0.3631 -0.6746 -0.3825
  550MOL0     C74145   1.661   5.374   8.398  0.0205  0.3769  0.2255
  550MOL0     O74146   1.664   5.504   8.442 -0.4747 -0.0643 -0.6336
  550MOL0     C74147   1.559   5.593   8.419  0.6418 -0.1321  0.2039
  550MOL0     C74148   1.424   5.557   8.388  0.4823 -0.4839  0.3669
  550MOL0     C74149   1.331   5.660   8.372  0.4744 -0.3163 -0.9768
  550MOL0     C74150   1.371   5.796   8.395  0.4793  0.3185 -0.3719
  550MOL0     O74151   1.282   5.906   8.385 -0.4746 -0.9484  0.0735
  550MOL0     C74152   1.170   5.917   8.300 -0.3016 -0.3369  0.6650
  550MOL0     C74153   1.136   6.071   8.294 -0.4920 -0.3497 -0.1093
  550MOL0     C74154   1.072   6.094   8.431 -0.4109  0.9480 -0.1459
  550MOL0     C74155   1.033   6.241   8.463 -1.4039 -0.0430  0.6347
  550MOL0     C74156   0.932   6.261   8.579  0.1303  1.1571 -0.1272
  550MOL0     C74157   0.785   6.253   8.562  0.7942  0.7158  1.1297
  550MOL0     C74158   0.700   6.279   8.697 -0.4439 -0.4730 -0.0176
  550MOL0     C74159   0.551   6.296   8.673  0.1082  0.5120 -0.1497
  550MOL0    Cl74160   0.494   6.124   8.631  0.5314 -0.2078 -0.1984
  550MOL0     C74161   1.502   5.826   8.418  1.0310 -0.5824 -0.5928
  550MOL0     C74162   1.601   5.728   8.423  0.3737 -0.2832 -0.0610
  550MOL0     O74163   1.555   5.307   8.370  0.4829 -0.4360  0.1199
  550MOL0     C74164   1.772   5.146   8.367  0.4142  0.2874 -0.0449
  550MOL0     C74165   1.874   5.047   8.354 -0.3060 -0.2740 -0.0299
  550MOL0     N74166   2.714   4.965   8.518  0.1979  0.4422  0.3332
  550MOL0     N74167   2.812   4.895   8.579  0.5089 -0.4155  0.6765
  550MOL0     C74168   3.771   4.676   8.735  0.0781 -0.3417 -0.1178
  550MOL0     C74169   3.899   4.644   8.787 -0.4872 -1.1405  0.1632
  550MOL0     C74170   4.215   4.340   8.954 -0.3267 -0.3124  0.2479
  550MOL0     C74171   4.332   4.396   8.906 -0.9523  0.4088  0.7553
  550MOL0     C74172   4.448   4.323   8.922  1.0856  0.7874  0.6635
  550MOL0     C74173   4.456   4.203   9.000  0.6625  0.3009  0.4345
  550MOL0     O74174   4.586   4.155   9.027 -0.3080 -0.3846  0.0258
  550MOL0     C74175   4.595   4.023   9.082  0.2740 -0.9583 -0.6848
  550MOL0     C74176   4.735   3.962   9.068 -0.0214 -0.9729 -0.1742
  550MOL0     C74177   4.730   3.812   9.080  0.5223  0.2725  0.6751
  550MOL0     C74178   4.858   3.747   9.113  0.2607  0.4120 -0.2887
  550MOL0     C74179   4.841   3.596   9.126 -0.1814 -0.3476  0.1655
  550MOL0     C74180   4.822   3.478   9.150  0.1474 -0.2181 -0.0315
  550MOL0     C74181   4.338   4.159   9.064 -0.8050 -0.5108  0.9634
  550MOL0     C74182   4.217   4.228   9.044 -0.0154  0.9031  0.4203
  550MOL0     H74183   3.955   4.343   8.628 -0.7274 -1.5087  2.0739
  550MOL0     H74184   3.743   4.392   8.545 -0.1208 -1.3332  1.4298
  550MOL0     H74185   3.601   4.512   8.419  1.7096 -1.0605  0.9209
  550MOL0     H74186   3.468   4.463   8.523 -2.6089  0.5979 -0.8064
  550MOL0     H74187   3.505   4.725   8.375 -0.3194 -0.7327 -0.9782
  550MOL0     H74188   3.413   4.585   8.321  2.3536 -0.3640  0.5384
  550MOL0     H74189   3.276   4.761   8.414  3.3205  2.9725  0.4670
  550MOL0     H74190   3.271   4.609   8.521  1.5235 -3.1220 -3.0217
  550MOL0     H74191   3.392   4.753   8.677  0.2151 -2.6846 -0.4620
  550MOL0     H74192   3.437   4.869   8.555 -0.5474 -1.0590 -0.6363
  550MOL0     H74193   3.276   4.979   8.682  0.5239  0.9173 -0.3216
  550MOL0     H74194   3.196   4.932   8.520 -1.2589 -1.0824  0.4706
  550MOL0     H74195   3.072   4.764   8.608  0.4000 -0.6693 -1.5221
  550MOL0     H74196   3.178   4.756   8.752  0.3299  0.0956 -1.3787
  550MOL0     H74197   3.102   4.942   8.850 -1.8835 -1.1110  1.9765
  550MOL0     H74198   3.048   5.016   8.690  2.1169 -1.1712 -2.5379
  550MOL0     H74199   2.885   4.937   8.893 -1.3048  0.0035 -0.1517
  550MOL0     H74200   2.916   4.775   8.828 -1.0296 -0.1514 -0.7348
  550MOL0     H74201   2.642   4.992   8.840  0.8014  0.2398  0.3036
  550MOL0     H74202   2.472   5.153   8.654  1.9476  0.4122 -0.8938
  550MOL0     H74203   2.510   5.113   8.485 -1.7884 -0.4384 -0.7453
  550MOL0     H74204   2.396   4.903   8.684  0.9385 -1.5735 -1.3703
  550MOL0     H74205   2.421   4.881   8.513 -0.6447  1.3402 -1.4127
  550MOL0     H74206   2.237   5.101   8.605 -0.2317 -0.6949  0.3568
  550MOL0     H74207   2.173   4.947   8.608 -0.2879  2.5922  0.7735
  550MOL0     H74208   2.296   4.949   8.353  0.0894  0.2292  0.5256
  550MOL0     H74209   2.255   5.113   8.379 -1.3712 -0.2322  1.0444
  550MOL0     H74210   2.114   5.244   8.476 -0.6555  1.5977  1.0299
  550MOL0     H74211   2.060   5.452   8.522  0.0334  0.7287 -2.0311
  550MOL0     H74212   1.927   5.535   8.439 -1.4095 -0.0857  0.2595
  550MOL0     H74213   1.904   5.467   8.604 -2.3918  0.8764 -1.5775
  550MOL0     H74214   1.385   5.455   8.385 -0.4001 -0.1438 -0.0670
  550MOL0     H74215   1.230   5.636   8.340  0.0127 -1.2983  1.0340
  550MOL0     H74216   1.186   5.869   8.204  1.2836  0.2912  0.5899
  550MOL0     H74217   1.089   5.854   8.338  1.4132 -3.2751 -0.2712
  550MOL0     H74218   1.230   6.121   8.268 -0.9395 -1.0851 -3.5670
  550MOL0     H74219   1.058   6.092   8.220  1.0706  2.0280 -1.1812
  550MOL0     H74220   1.153   6.070   8.500  0.1453  0.0793 -1.0610
  550MOL0     H74221   0.980   6.039   8.451 -0.1050  0.6666  0.5110
  550MOL0     H74222   1.118   6.298   8.502 -2.7635  0.7916  2.5634
  550MOL0     H74223   0.994   6.283   8.369  1.5315 -0.2379 -0.7921
  550MOL0     H74224   0.946   6.365   8.611  1.5189  1.4391 -1.5320
  550MOL0     H74225   0.966   6.187   8.652 -1.6061 -0.5029 -0.9113
  550MOL0     H74226   0.745   6.322   8.488 -0.0632 -0.9438 -0.0288
  550MOL0     H74227   0.749   6.152   8.538 -1.8614  1.7942  0.2206
  550MOL0     H74228   0.738   6.376   8.730 -1.3984 -0.5329  1.2978
  550MOL0     H74229   0.715   6.203   8.773  0.0462 -0.3942 -0.0346
  550MOL0     H74230   0.525   6.371   8.598  3.5055  2.3348  0.2426
  550MOL0     H74231   0.498   6.343   8.756 -1.3122  0.1415 -0.8270
  550MOL0     H74232   1.532   5.930   8.427  0.2423 -0.4026  0.0583
  550MOL0     H74233   1.707   5.750   8.432 -0.3478  3.8287  0.0610
  550MOL0     H74234   1.678   5.101   8.336 -0.1877  0.4517  1.4729
  550MOL0     H74235   1.852   4.946   8.321 -1.2076 -0.4998  1.1932
  550MOL0     H74236   3.716   4.768   8.755  0.2460 -0.5884  1.6176
  550MOL0     H74237   3.952   4.710   8.854 -0.0638  1.7092 -2.7322
  550MOL0     H74238   4.331   4.493   8.860 -3.4126 -0.4897 -1.3361
  550MOL0     H74239   4.538   4.346   8.866  1.3577  0.0417  0.7884
  550MOL0     H74240   4.577   4.061   9.184  1.3413  1.3558 -1.2940
  550MOL0     H74241   4.522   3.957   9.035 -2.0755  2.1015 -1.6922
  550MOL0     H74242   4.792   3.991   9.156 -1.1243 -0.1083  0.2709
  550MOL0     H74243   4.805   3.994   8.990  3.2305 -1.2285  2.4181
  550MOL0     H74244   4.705   3.775   8.980  2.5565 -0.3110  0.3220
  550MOL0     H74245   4.654   3.778   9.151 -0.3904  0.0644 -0.3823
  550MOL0     H74246   4.903   3.788   9.204  1.5456  0.0052 -0.7169
  550MOL0     H74247   4.934   3.771   9.038 -1.1257  0.9409 -1.5570
  550MOL0     H74248   4.810   3.374   9.172  2.2145 -0.6147 -0.4765
  550MOL0     H74249   4.340   4.082   9.141  0.9791 -1.4528  0.0430
  550MOL0     H74250   4.135   4.188   9.103  2.5768 -1.3261  2.8188
  551MOL0     O74251   9.567   2.250   4.510  0.1312 -0.5998  0.1742
  551MOL0     C74252   9.639   2.159   4.502  0.0391  0.0008  0.4167
  551MOL0     O74253   9.621   2.051   4.421 -0.1052  0.1944 -0.2486
  551MOL0     C74254   9.488   2.019   4.391 -0.4003  0.0612  0.6280
  551MOL0     C74255   9.398   2.114   4.342 -0.8916  0.0172  0.1071
  551MOL0     C74256   9.259   2.077   4.326 -0.7630  0.4766 -0.1352
  551MOL0     C74257   9.216   1.942   4.350 -0.3905  0.2630  0.8642
  551MOL0     O74258   9.090   1.899   4.332  0.1456  0.2336  0.8506
  551MOL0     C74259   8.976   1.980   4.318 -0.2876 -0.8347 -0.0122
  551MOL0     C74260   8.946   2.003   4.168 -0.2925 -0.0946  0.0730
  551MOL0     C74261   8.822   2.087   4.153  1.1088 -0.3325 -0.0431
  551MOL0     C74262   8.702   1.999   4.195 -0.6209 -0.5369  0.9195
  551MOL0     C74263   8.571   2.074   4.180 -0.4684  0.0216  0.1903
  551MOL0     C74264   8.456   1.978   4.161  0.0609  1.1493 -0.6736
  551MOL0     C74265   8.326   2.050   4.128 -0.3429  0.1476 -0.4370
  551MOL0     C74266   8.276   2.153   4.235 -1.1099 -0.3799  0.5201
  551MOL0     N74267   8.138   2.137   4.276 -0.0051  0.9359 -0.0456
  551MOL0     C74268   8.077   2.067   4.375 -0.0199  0.7531  0.1116
  551MOL0     C74269   7.942   2.090   4.368  0.1840 -0.4014 -0.6236
  551MOL0     C74270   7.847   2.018   4.460 -0.5759 -0.0688 -0.0773
  551MOL0     C74271   7.703   2.002   4.404  0.3252 -0.3539  0.6331
  551MOL0     C74272   7.621   1.915   4.505 -0.4163  0.3302 -1.0927
  551MOL0     C74273   7.474   1.942   4.500  0.1006  0.1192  0.0174
  551MOL0     O74274   7.396   1.863   4.603  0.7427  0.5601 -0.7176
  551MOL0     C74275   7.273   1.910   4.640  1.2752  0.4081 -0.1009
  551MOL0     C74276   7.228   1.901   4.777  1.0688 -0.4737 -0.1407
  551MOL0     C74277   7.096   1.943   4.795  0.6604  0.5596  0.0318
  551MOL0     C74278   7.033   1.919   4.931 -0.1877  0.0380  0.2487
  551MOL0     C74279   7.013   1.998   4.696 -0.0988 -0.0799  0.8745
  551MOL0     C74280   6.876   2.058   4.710 -0.8860  0.1497  0.2752
  551MOL0     O74281   6.801   2.067   4.600  0.5818  0.0512  0.8223
  551MOL0     C74282   6.666   2.089   4.595 -0.5228  0.5812 -0.4905
  551MOL0     C74283   6.627   2.133   4.469 -0.1268  0.4614 -0.1707
  551MOL0     C74284   6.498   2.182   4.447  0.6921  0.2008 -0.5147
  551MOL0     C74285   6.396   2.183   4.545  0.4764  0.9514 -0.8498
  551MOL0     O74286   6.254   2.203   4.530 -0.4071  0.0157 -0.3670
  551MOL0     C74287   6.221   2.289   4.420  1.1356  0.6561  0.0966
  551MOL0     C74288   6.076   2.333   4.412  0.1163  0.9260 -0.1218
  551MOL0     C74289   5.972   2.215   4.376 -0.1393  0.6076 -1.3487
  551MOL0     C74290   5.848   2.280   4.323  0.5157  0.4590 -0.5067
  551MOL0     C74291   5.727   2.191   4.298 -0.6992 -0.1651  0.2772
  551MOL0     C74292   5.603   2.268   4.244  0.3354  0.4680 -0.1921
  551MOL0     C74293   5.508   2.176   4.176 -0.5710 -0.9657  0.7197
  551MOL0     C74294   5.417   2.094   4.265  0.0655 -0.2790  0.0886
  551MOL0    Cl74295   5.294   2.018   4.168  0.5199  0.4671 -0.0521
  551MOL0     C74296   6.444   2.122   4.673  0.3914  0.2138 -0.3636
  551MOL0     C74297   6.570   2.077   4.700  0.0031 -0.0307 -0.0713
  551MOL0     O74298   6.850   2.113   4.813 -0.3609  0.4950 -0.4470
  551MOL0     C74299   7.067   2.008   4.563  1.2510 -0.0732 -0.0651
  551MOL0     C74300   7.184   1.952   4.535 -1.0454 -0.1805 -0.1828
  551MOL0     N74301   7.925   2.189   4.269  0.4728  0.2396  0.9166
  551MOL0     N74302   8.036   2.203   4.214  0.4709  0.5313  0.7961
  551MOL0     C74303   9.311   1.854   4.393 -1.1425  0.2939  0.1187
  551MOL0     C74304   9.441   1.896   4.418 -0.7007  0.7630  0.4868
  551MOL0     C74305   9.759   2.175   4.578 -0.1616 -0.1585  0.0675
  551MOL0     C74306   9.814   2.305   4.608 -0.0573 -0.0227  0.5810
  551MOL0     C74307   9.908   2.323   4.712  0.8117 -0.1569 -0.2030
  551MOL0     C74308   9.932   2.215   4.799 -0.3316  0.6577  0.4705
  551MOL0     O74309  10.027   2.218   4.901  0.2089 -0.0130 -0.1109
  551MOL0     C74310  10.055   2.348   4.959  0.7104 -0.2737  0.0798
  551MOL0     C74311   9.926   2.395   5.044  0.0591  0.3158 -0.0096
  551MOL0     C74312   9.892   2.276   5.133 -0.1773  0.1880  0.2384
  551MOL0     C74313   9.854   2.317   5.268  0.1899  0.4022  0.6073
  551MOL0     C74314   9.964   2.373   5.350  0.3731 -0.3755  0.5123
  551MOL0     C74315  10.064   2.406   5.409  0.1378 -0.0454  0.3265
  551MOL0     C74316   9.888   2.093   4.766 -0.1553 -0.4396 -0.1089
  551MOL0     C74317   9.809   2.069   4.657 -0.0154  0.8016  0.2177
  551MOL0     H74318   9.434   2.211   4.307  0.1165  0.0914  1.2671
  551MOL0     H74319   9.184   2.146   4.289 -0.5895 -0.5103 -2.4776
  551MOL0     H74320   8.893   1.933   4.373 -0.9659 -0.5630 -0.7871
  551MOL0     H74321   8.984   2.081   4.359 -1.7336 -0.9353  0.5919
  551MOL0     H74322   9.019   2.071   4.122 -0.9808  0.3244 -0.4174
  551MOL0     H74323   8.930   1.914   4.108  0.8328  0.1471 -0.6256
  551MOL0     H74324   8.812   2.180   4.209 -1.0848 -0.5420 -0.0077
  551MOL0     H74325   8.820   2.116   4.048  0.7861 -0.6366 -0.1229
  551MOL0     H74326   8.703   1.914   4.127  1.5103 -0.0999  0.3359
  551MOL0     H74327   8.714   1.939   4.286 -0.0600 -1.2168  0.4060
  551MOL0     H74328   8.549   2.129   4.272  1.8134  0.2402  0.6590
  551MOL0     H74329   8.570   2.147   4.099  0.3928 -1.2141 -0.9760
  551MOL0     H74330   8.475   1.900   4.086  0.8120  1.5609 -0.9220
  551MOL0     H74331   8.448   1.921   4.254 -0.0591  2.2631  0.0140
  551MOL0     H74332   8.346   2.103   4.034 -0.9147  0.0816 -0.6029
  551MOL0     H74333   8.248   1.977   4.106 -1.3517  0.6222  1.3780
  551MOL0     H74334   8.290   2.255   4.198  1.9829 -2.1562 -4.2508
  551MOL0     H74335   8.338   2.143   4.325 -0.2167 -1.4925 -0.1841
  551MOL0     H74336   8.140   2.013   4.446  2.9778  2.6714 -0.8591
  551MOL0     H74337   7.896   1.921   4.470  0.9296  0.4798 -1.6714
  551MOL0     H74338   7.844   2.061   4.560 -2.2923  0.6975 -0.4174
  551MOL0     H74339   7.721   1.949   4.310 -1.1376  1.4806 -0.7455
  551MOL0     H74340   7.664   2.104   4.401  0.5200 -0.2827  0.4484
  551MOL0     H74341   7.645   1.932   4.610 -3.1257 -1.0039 -0.1695
  551MOL0     H74342   7.649   1.811   4.486  2.6387  0.7644  0.3915
  551MOL0     H74343   7.446   1.912   4.399  2.1097 -1.5308 -0.1036
  551MOL0     H74344   7.455   2.048   4.522 -0.6401 -0.5344  2.9404
  551MOL0     H74345   7.283   1.856   4.859  1.5766  0.8618  0.2896
  551MOL0     H74346   7.096   1.860   4.998 -4.4936 -1.8297  3.1058
  551MOL0     H74347   7.005   2.009   4.986  0.9663 -0.2458  1.3455
  551MOL0     H74348   6.941   1.860   4.923  0.6439 -1.1315 -1.3401
  551MOL0     H74349   6.706   2.149   4.397  0.2605  0.5980  0.2837
  551MOL0     H74350   6.473   2.232   4.354 -1.5025 -1.3117 -0.8124
  551MOL0     H74351   6.283   2.378   4.435 -0.8171  1.9480  0.9015
  551MOL0     H74352   6.250   2.251   4.322  0.8984  0.1390  0.2217
  551MOL0     H74353   6.044   2.377   4.506  2.4207 -0.6040  1.4873
  551MOL0     H74354   6.064   2.406   4.331 -0.2531  1.8509  0.7522
  551MOL0     H74355   5.953   2.162   4.469  2.0604  1.9839 -0.0012
  551MOL0     H74356   6.004   2.143   4.300 -0.5446  0.9795 -1.8778
  551MOL0     H74357   5.810   2.349   4.398 -1.6162 -1.0219 -0.1376
  551MOL0     H74358   5.872   2.333   4.230 -1.9339  2.5364 -0.0634
  551MOL0     H74359   5.710   2.137   4.392  0.6948 -0.5218  0.3549
  551MOL0     H74360   5.754   2.112   4.227 -2.9030  1.0842 -2.0879
  551MOL0     H74361   5.548   2.314   4.327 -0.0072 -0.1386 -0.0769
  551MOL0     H74362   5.639   2.339   4.169  0.2073  0.4901 -0.2322
  551MOL0     H74363   5.571   2.121   4.106  1.6583 -1.2071  2.8007
  551MOL0     H74364   5.438   2.240   4.121 -1.0417  0.0558  2.4338
  551MOL0     H74365   5.353   2.158   4.325 -1.1653 -1.4001  0.0025
  551MOL0     H74366   5.476   2.027   4.328  1.1464  0.7677  0.2424
  551MOL0     H74367   6.362   2.113   4.743  0.8296 -2.0744 -0.0961
  551MOL0     H74368   6.607   2.032   4.792  1.5776  0.6454 -0.3346
  551MOL0     H74369   7.008   2.031   4.475 -0.4419  1.8888  1.4776
  551MOL0     H74370   7.231   1.957   4.437  0.7832  1.3384  0.7115
  551MOL0     H74371   9.284   1.751   4.414 -2.4763  0.6336  0.1793
  551MOL0     H74372   9.512   1.819   4.448  0.7652  1.9259  0.1465
  551MOL0     H74373   9.767   2.389   4.558  0.5259  1.9139  3.0872
  551MOL0     H74374   9.951   2.421   4.726  2.7733 -0.8956 -0.7004
  551MOL0     H74375  10.144   2.348   5.023  0.3737 -0.3269  0.5515
  551MOL0     H74376  10.080   2.419   4.881  0.4649  0.3610  0.5719
  551MOL0     H74377   9.842   2.426   4.982 -0.1316  1.5308  0.8370
  551MOL0     H74378   9.947   2.483   5.105  1.2011 -0.6705  1.0719
  551MOL0     H74379   9.971   2.201   5.140 -3.0216 -3.2993 -1.5284
  551MOL0     H74380   9.807   2.218   5.094 -1.0827  1.3868  0.3618
  551MOL0     H74381   9.827   2.225   5.321  3.3537 -2.3956 -2.1627
  551MOL0     H74382   9.765   2.381   5.267  0.5884  1.0426 -1.8563
  551MOL0     H74383  10.147   2.438   5.470  0.8737  1.4501 -1.3746
  551MOL0     H74384   9.926   2.003   4.815 -0.2008 -0.8378 -0.7840
  551MOL0     H74385   9.766   1.970   4.644  1.2479  0.3102 -0.3352
  552MOL0     O74386   2.880   2.733   4.780 -0.1044  0.3017 -0.5200
  552MOL0     C74387   2.980   2.776   4.715  1.3109  0.7614 -0.0325
  552MOL0     O74388   2.972   2.825   4.589  0.3130 -0.2097  0.0357
  552MOL0     C74389   2.838   2.845   4.550 -0.3254 -0.0455  0.0705
  552MOL0     C74390   2.780   2.966   4.567 -0.4014  0.1212  0.4770
  552MOL0     C74391   2.659   2.991   4.501 -0.2786 -0.1756  0.6052
  552MOL0     C74392   2.588   2.887   4.434  0.3743  0.2295 -0.4960
  552MOL0     O74393   2.461   2.895   4.372 -0.1570 -0.6329  0.1521
  552MOL0     C74394   2.391   3.014   4.399  0.3927 -0.1943  0.3719
  552MOL0     C74395   2.255   3.013   4.316 -0.1525  0.4189  0.0354
  552MOL0     C74396   2.187   3.148   4.294 -0.4536  0.8912 -0.1178
  552MOL0     C74397   2.065   3.119   4.196 -0.2164  0.2203 -0.1893
  552MOL0     C74398   1.968   3.243   4.181  0.8102  1.0648  0.1252
  552MOL0     C74399   1.843   3.203   4.102 -0.3096  0.9308  0.2128
  552MOL0     C74400   1.851   3.184   3.953 -0.7316  0.4907  0.1227
  552MOL0     C74401   1.718   3.130   3.888 -0.2788  0.5706 -0.5454
  552MOL0     N74402   1.603   3.224   3.890 -0.1751  0.3025  0.0840
  552MOL0     C74403   1.603   3.354   3.845 -0.4990 -0.1861  0.3225
  552MOL0     C74404   1.478   3.396   3.882  0.7357  0.5940 -0.1520
  552MOL0     C74405   1.438   3.543   3.877 -0.6918 -0.1247  0.0068
  552MOL0     C74406   1.334   3.559   3.764  0.8435  0.9328 -0.1597
  552MOL0     C74407   1.282   3.706   3.761 -0.4529  0.3703 -0.7250
  552MOL0     C74408   1.134   3.729   3.805 -0.8308  0.6724 -0.5276
  552MOL0     O74409   1.100   3.701   3.943 -0.7098  0.2621 -0.0428
  552MOL0     C74410   0.996   3.759   4.016  0.3524  0.0606  0.0014
  552MOL0     C74411   0.987   3.729   4.152  1.1719 -0.3312 -0.2472
  552MOL0     C74412   0.881   3.769   4.233  0.1440  0.2077  0.3843
  552MOL0     C74413   0.883   3.757   4.380 -0.1864 -0.1162 -0.1778
  552MOL0     C74414   0.766   3.822   4.167  0.4058 -0.5990 -0.5232
  552MOL0     C74415   0.643   3.864   4.234  0.0183  0.0943 -0.3127
  552MOL0     O74416   0.537   3.876   4.155 -0.1442  0.7897 -0.3493
  552MOL0     C74417   0.432   3.951   4.188  0.7835  0.5325  0.3703
  552MOL0     C74418   0.310   3.891   4.161  0.1251 -0.4692  1.1131
  552MOL0     C74419   0.191   3.972   4.168  0.1277  0.3934  0.9781
  552MOL0     C74420   0.193   4.095   4.220 -0.1020 -0.2382  0.5858
  552MOL0     O74421   0.068   4.151   4.240 -0.0622 -0.0759  0.0457
  552MOL0     C74422   0.048   4.288   4.259 -0.1963 -0.1609  0.1881
  552MOL0     C74423  -0.105   4.320   4.282  0.1144  0.5331 -1.1600
  552MOL0     C74424  -0.186   4.250   4.170 -0.1999  0.1156  0.0195
  552MOL0     C74425  -0.336   4.269   4.200  0.1796  0.1583 -0.0906
  552MOL0     C74426  -0.420   4.174   4.112  0.0535 -0.4056  0.4997
  552MOL0     C74427  -0.570   4.203   4.112 -0.4697  0.1538  0.2715
  552MOL0     C74428  -0.647   4.100   4.026  0.6896 -0.3274  0.4735
  552MOL0     C74429  -0.626   4.108   3.874  0.5057 -0.0244 -0.2360
  552MOL0    Cl74430  -0.727   3.968   3.796 -0.5201  0.0492  0.4495
  552MOL0     C74431   0.314   4.160   4.246  0.1899  0.4102  0.5380
  552MOL0     C74432   0.435   4.083   4.236 -0.0889  0.0356 -0.0119
  552MOL0     O74433   0.642   3.902   4.352 -0.6371  1.0628  0.5029
  552MOL0     C74434   0.765   3.844   4.026  0.2789 -1.0184 -0.9342
  552MOL0     C74435   0.885   3.816   3.955 -0.0686  0.6886 -0.1496
  552MOL0     N74436   1.418   3.295   3.953 -0.4756  0.4882 -0.4534
  552MOL0     N74437   1.489   3.186   3.958 -0.0363 -0.4788 -0.7818
  552MOL0     C74438   2.655   2.763   4.433 -0.0101 -0.1068  0.1739
  552MOL0     C74439   2.776   2.743   4.476  0.1303 -0.1424  0.1528
  552MOL0     C74440   3.113   2.755   4.785 -0.1259 -0.0110 -0.3328
  552MOL0     C74441   3.225   2.809   4.728 -0.6889 -0.3772 -0.8844
  552MOL0     C74442   3.352   2.786   4.783  0.3328 -0.1775  0.1526
  552MOL0     C74443   3.364   2.708   4.897 -0.2925  1.1330  0.5487
  552MOL0     O74444   3.490   2.690   4.938 -0.4822  0.3300 -1.2831
  552MOL0     C74445   3.521   2.591   5.036  0.8172 -0.2268  0.0538
  552MOL0     C74446   3.668   2.556   5.033 -0.0410 -0.1954  0.3079
  552MOL0     C74447   3.702   2.448   5.134 -0.1916 -1.0017  0.5121
  552MOL0     C74448   3.752   2.520   5.258 -0.0516 -0.8663 -0.0002
  552MOL0     C74449   3.750   2.437   5.379  0.6370  0.0178  0.7856
  552MOL0     C74450   3.724   2.373   5.479 -0.3172  1.0545 -0.0614
  552MOL0     C74451   3.244   2.651   4.962 -1.1258  0.6391  0.7005
  552MOL0     C74452   3.121   2.677   4.907  0.1386 -0.5903 -0.5339
  552MOL0     H74453   2.822   3.052   4.619 -1.6995  1.4654 -0.6405
  552MOL0     H74454   2.612   3.090   4.500  0.7913  0.3499 -1.0282
  552MOL0     H74455   2.370   3.040   4.503  0.8367 -1.9637  0.9344
  552MOL0     H74456   2.441   3.093   4.342 -1.3832  0.7614  0.0669
  552MOL0     H74457   2.288   2.963   4.224  0.7524 -0.1664  0.6574
  552MOL0     H74458   2.180   2.947   4.360  1.4869 -1.5247  0.0398
  552MOL0     H74459   2.147   3.190   4.386  2.8790  1.8787  1.0118
  552MOL0     H74460   2.259   3.217   4.249 -0.9518  0.6605 -1.3141
  552MOL0     H74461   2.097   3.090   4.096 -0.4280 -2.4928  0.4482
  552MOL0     H74462   1.999   3.039   4.231  1.5964 -1.7453 -1.1078
  552MOL0     H74463   1.926   3.276   4.276 -1.1845  0.1353 -0.4006
  552MOL0     H74464   2.023   3.324   4.131 -0.2083  2.0276  0.5316
  552MOL0     H74465   1.801   3.112   4.146  2.7831  1.1630  4.0935
  552MOL0     H74466   1.767   3.279   4.119 -0.0738  1.2998 -0.3524
  552MOL0     H74467   1.866   3.284   3.910 -3.1479  1.3851  1.2171
  552MOL0     H74468   1.920   3.102   3.929  0.8524  2.1515 -1.3508
  552MOL0     H74469   1.678   3.041   3.938 -0.9041  0.5500 -1.0798
  552MOL0     H74470   1.721   3.103   3.782  1.6792  1.8310 -0.8713
  552MOL0     H74471   1.683   3.413   3.802 -2.3110  2.3421  0.1801
  552MOL0     H74472   1.412   3.583   3.975 -0.3453  0.5185 -0.1581
  552MOL0     H74473   1.524   3.603   3.844  0.6746 -1.7628  0.4017
  552MOL0     H74474   1.248   3.491   3.772  0.1966  1.8821  1.1526
  552MOL0     H74475   1.374   3.529   3.667 -3.0676 -2.4249 -1.0608
  552MOL0     H74476   1.299   3.743   3.659 -1.2535 -2.4594 -1.9893
  552MOL0     H74477   1.354   3.766   3.817  2.3053 -0.3235 -3.2709
  552MOL0     H74478   1.067   3.678   3.734 -1.4885 -1.3935  1.4629
  552MOL0     H74479   1.135   3.838   3.801  1.7322  0.7106 -0.5825
  552MOL0     H74480   1.072   3.693   4.209  1.7768  0.3127 -0.7194
  552MOL0     H74481   0.793   3.705   4.414  0.4167 -1.2582 -0.2880
  552MOL0     H74482   0.970   3.707   4.422 -0.1647  1.8368  2.3552
  552MOL0     H74483   0.873   3.858   4.422 -0.8301 -1.4475  3.1783
  552MOL0     H74484   0.311   3.792   4.116 -2.6050  1.0214 -2.8760
  552MOL0     H74485   0.095   3.932   4.137  0.0854 -0.1576  1.7877
  552MOL0     H74486   0.097   4.320   4.351 -2.0118 -2.9196  2.3031
  552MOL0     H74487   0.098   4.345   4.181  0.1952  0.4525  0.8664
  552MOL0     H74488  -0.144   4.279   4.375  0.1176 -0.6999 -1.6768
  552MOL0     H74489  -0.122   4.428   4.282 -0.9112  0.5568  3.4428
  552MOL0     H74490  -0.160   4.144   4.180  2.5083  0.8351  1.5127
  552MOL0     H74491  -0.160   4.290   4.071  1.6436 -0.2658  0.3233
  552MOL0     H74492  -0.352   4.252   4.307  1.5215  4.8197  1.0887
  552MOL0     H74493  -0.361   4.375   4.184  0.6105  0.6552  2.2086
  552MOL0     H74494  -0.394   4.071   4.139  1.7245  0.0224  0.6742
  552MOL0     H74495  -0.379   4.188   4.012  0.9410  2.4501  1.1806
  552MOL0     H74496  -0.605   4.180   4.213 -0.1901  0.9547  0.5582
  552MOL0     H74497  -0.584   4.308   4.084 -1.9425 -0.6346 -2.2204
  552MOL0     H74498  -0.755   4.110   4.042  0.2515 -1.7699 -1.2500
  552MOL0     H74499  -0.618   4.000   4.059  3.1474  0.6807  1.6536
  552MOL0     H74500  -0.521   4.095   3.845  0.7921  2.5718 -0.6065
  552MOL0     H74501  -0.667   4.203   3.841 -1.8934 -0.7305  0.5115
  552MOL0     H74502   0.315   4.263   4.282  0.5785  0.0752  1.5355
  552MOL0     H74503   0.531   4.130   4.250  1.3554 -2.1511 -1.7826
  552MOL0     H74504   0.675   3.874   3.974 -1.0498 -2.2944  0.5300
  552MOL0     H74505   0.886   3.823   3.847 -0.2902  0.3321 -0.1756
  552MOL0     H74506   2.604   2.684   4.379 -1.2409 -0.4470  1.7472
  552MOL0     H74507   2.828   2.648   4.465  0.2966  0.1960 -2.5455
  552MOL0     H74508   3.214   2.873   4.641 -0.8199 -0.6681 -1.0829
  552MOL0     H74509   3.446   2.812   4.734 -0.3450  1.0811 -0.5195
  552MOL0     H74510   3.486   2.622   5.135  0.0901  0.3001 -0.3600
  552MOL0     H74511   3.462   2.500   5.022  0.1230  0.2794 -0.3730
  552MOL0     H74512   3.729   2.644   5.055 -0.0727  0.7456 -2.9469
  552MOL0     H74513   3.703   2.533   4.933  0.5236  1.7377  0.0172
  552MOL0     H74514   3.779   2.377   5.103 -1.4959 -1.6245 -1.4890
  552MOL0     H74515   3.612   2.389   5.149 -0.8834  0.1857  1.1689
  552MOL0     H74516   3.704   2.615   5.285 -0.0482 -1.3278  1.7782
  552MOL0     H74517   3.856   2.551   5.240 -0.3097 -1.3526 -2.7319
  552MOL0     H74518   3.716   2.331   5.577  0.1876  1.0057 -0.0382
  552MOL0     H74519   3.247   2.599   5.058  1.4713 -2.7262 -0.9754
  552MOL0     H74520   3.032   2.636   4.954 -1.2119  0.5563 -1.9742
  553MOL0     O74521   4.227   5.946   5.124  0.8744  0.0334  0.4795
  553MOL0     C74522   4.208   5.877   5.026 -0.5408 -0.4190 -0.2010
  553MOL0     O74523   4.089   5.838   4.983  0.2086  0.0030 -0.1794
  553MOL0     C74524   3.978   5.847   5.070 -0.3854 -0.2779  0.1275
  553MOL0     C74525   3.968   5.869   5.207  0.4205 -0.0537 -0.7215
  553MOL0     C74526   3.845   5.894   5.265 -0.0492  0.0945 -0.2350
  553MOL0     C74527   3.728   5.870   5.198  0.1776 -0.5547  0.1500
  553MOL0     O74528   3.599   5.885   5.248  0.0489  0.4838  0.0553
  553MOL0     C74529   3.586   5.968   5.365  0.2246  0.0526  0.2719
  553MOL0     C74530   3.435   6.016   5.383 -0.2799 -0.4648  0.5287
  553MOL0     C74531   3.421   6.064   5.524 -0.8887 -0.5498 -0.0048
  553MOL0     C74532   3.288   6.139   5.564  0.1246 -0.3321  1.2822
  553MOL0     C74533   3.175   6.041   5.576  0.2437  0.5675  0.8126
  553MOL0     C74534   3.052   6.110   5.647 -0.2293 -0.0293  0.9998
  553MOL0     C74535   2.939   5.997   5.670  0.4688  0.9465  0.2288
  553MOL0     C74536   2.798   6.059   5.687  0.6153  0.2935  0.0284
  553MOL0     N74537   2.711   5.957   5.749 -0.6150 -0.1880 -0.1743
  553MOL0     C74538   2.632   5.973   5.861  0.1997 -0.3331 -0.1529
  553MOL0     C74539   2.537   5.879   5.844  0.1590 -0.6640 -0.1256
  553MOL0     C74540   2.428   5.860   5.946  0.1733 -0.7627  0.0141
  553MOL0     C74541   2.336   5.979   5.965  0.0766 -0.1696 -1.0265
  553MOL0     C74542   2.285   6.054   5.847 -0.3396  0.4600  0.3624
  553MOL0     C74543   2.170   6.149   5.887 -0.4898  1.0615 -0.1021
  553MOL0     O74544   2.060   6.071   5.930 -0.5692  0.2574 -0.2601
  553MOL0     C74545   1.938   6.125   5.947 -0.3094  0.0975  0.3120
  553MOL0     C74546   1.912   6.255   5.975  0.2131 -0.2636  0.5155
  553MOL0     C74547   1.784   6.303   5.997  0.0557  0.5313 -0.2156
  553MOL0     C74548   1.771   6.440   6.036 -0.2408  0.3522 -0.3257
  553MOL0     C74549   1.668   6.216   5.990  0.6430  0.5320 -0.4301
  553MOL0     C74550   1.522   6.258   6.002  0.5201 -0.2867  0.8140
  553MOL0     O74551   1.435   6.160   6.037 -0.4706 -0.1036 -0.0915
  553MOL0     C74552   1.296   6.172   6.015  0.4568  0.4326  0.4407
  553MOL0     C74553   1.228   6.286   6.035 -0.3531  0.4310  0.2287
  553MOL0     C74554   1.089   6.296   6.008 -0.1584 -0.6784  0.3205
  553MOL0     C74555   1.027   6.190   5.942  0.2374 -0.0738  0.1872
  553MOL0     O74556   0.894   6.188   5.904 -0.3122  0.2899  0.1172
  553MOL0     C74557   0.808   6.300   5.898 -0.4516  0.4979  0.0787
  553MOL0     C74558   0.671   6.244   5.889  0.4055 -0.3445  0.0250
  553MOL0     C74559   0.559   6.350   5.912  0.3291  0.0610  0.9888
  553MOL0     C74560   0.429   6.307   5.844  0.0785 -0.0651  0.2418
  553MOL0     C74561   0.337   6.427   5.832 -0.3117 -0.2069 -0.3445
  553MOL0     C74562   0.274   6.455   5.971 -0.3610 -0.8949 -0.1480
  553MOL0     C74563   0.151   6.550   5.952 -0.4864  0.5004  0.7005
  553MOL0     C74564   0.123   6.651   6.062 -0.6813  0.4215  1.1159
  553MOL0    Cl74565   0.093   6.549   6.198  0.0419  0.1649 -0.3806
  553MOL0     C74566   1.097   6.074   5.917  0.1440 -0.1696  0.0381
  553MOL0     C74567   1.232   6.061   5.947 -0.2139 -0.0477  0.2533
  553MOL0     O74568   1.487   6.372   5.966 -0.0997 -0.2659  0.1434
  553MOL0     C74569   1.694   6.081   5.953 -0.3598  0.1255 -0.3779
  553MOL0     C74570   1.827   6.037   5.932 -0.2266  0.0193 -0.3539
  553MOL0     N74571   2.560   5.803   5.734  0.0026 -1.0970  0.5782
  553MOL0     N74572   2.665   5.847   5.678 -0.0276 -0.5724 -0.8464
  553MOL0     C74573   3.735   5.827   5.071  0.2309  0.5391  0.9682
  553MOL0     C74574   3.859   5.821   4.998  0.0551 -0.4004  0.4655
  553MOL0     C74575   4.331   5.823   4.959  0.4539  0.5227 -1.0979
  553MOL0     C74576   4.318   5.722   4.863  0.3141 -0.3924 -0.2011
  553MOL0     C74577   4.434   5.663   4.814  0.1415 -0.6184 -0.4488
  553MOL0     C74578   4.556   5.700   4.852 -0.1072 -0.5854 -0.2536
  553MOL0     O74579   4.657   5.622   4.805 -0.2190  0.4861 -0.2799
  553MOL0     C74580   4.795   5.665   4.846 -0.0971 -0.3973 -0.1158
  553MOL0     C74581   4.909   5.561   4.805 -0.4639  0.3045  0.2264
  553MOL0     C74582   4.886   5.423   4.869  0.0227  0.1103  0.3722
  553MOL0     C74583   4.985   5.326   4.814  0.6155  0.0890  0.5963
  553MOL0     C74584   4.997   5.209   4.901  1.1744 -0.5063  0.1625
  553MOL0     C74585   5.005   5.098   4.937  0.4078  0.9421 -0.0277
  553MOL0     C74586   4.573   5.814   4.936 -0.1169  0.6841 -0.4570
  553MOL0     C74587   4.461   5.874   4.984  0.6021 -0.1829 -0.5778
  553MOL0     H74588   4.056   5.883   5.270  0.6812  0.6060 -1.2246
  553MOL0     H74589   3.856   5.940   5.363  2.5281  0.7318 -0.7602
  553MOL0     H74590   3.634   5.940   5.459 -0.2386  0.5349  0.6579
  553MOL0     H74591   3.649   6.049   5.329  0.2202 -0.6441 -1.3986
  553MOL0     H74592   3.398   6.073   5.297 -1.0448 -1.7911 -0.0528
  553MOL0     H74593   3.383   5.920   5.386 -1.7270  0.2432 -0.4049
  553MOL0     H74594   3.450   5.990   5.599 -0.9497  0.7327  1.3329
  553MOL0     H74595   3.494   6.147   5.525 -4.0427  2.6406 -3.4173
  553MOL0     H74596   3.299   6.193   5.658 -1.3893  1.7281  0.3507
  553MOL0     H74597   3.266   6.207   5.481  1.0179 -3.2566 -1.5777
  553MOL0     H74598   3.137   6.007   5.479 -2.5631 -1.8395  2.5865
  553MOL0     H74599   3.210   5.955   5.633 -1.4923 -0.0155  1.0502
  553MOL0     H74600   3.097   6.144   5.740  3.9979 -1.2891 -0.3717
  553MOL0     H74601   3.021   6.199   5.591 -1.0475 -0.1336  1.2680
  553MOL0     H74602   2.950   5.926   5.588  2.5958 -0.2602  1.4518
  553MOL0     H74603   2.960   5.943   5.763  1.8819  0.6063 -0.2532
  553MOL0     H74604   2.751   6.098   5.596 -1.4555  2.2698  1.7898
  553MOL0     H74605   2.807   6.151   5.746 -3.2637 -0.1023  1.5273
  553MOL0     H74606   2.620   6.053   5.933  0.1227  2.1892 -2.7703
  553MOL0     H74607   2.358   5.790   5.901 -1.4789  1.1603 -0.5408
  553MOL0     H74608   2.461   5.818   6.041 -0.8337 -3.4743 -0.7629
  553MOL0     H74609   2.387   6.046   6.036 -1.1290 -0.3847  0.0730
  553MOL0     H74610   2.254   5.931   6.018  0.2561 -1.6482 -2.0208
  553MOL0     H74611   2.244   5.978   5.779  2.7560  0.4250 -1.6311
  553MOL0     H74612   2.365   6.114   5.803  0.9865 -0.4710  1.4166
  553MOL0     H74613   2.140   6.210   5.801  0.0046  1.2698 -0.1279
  553MOL0     H74614   2.209   6.214   5.966  0.6479  1.2527 -0.8018
  553MOL0     H74615   2.003   6.313   5.976 -1.1417  2.0035  0.3508
  553MOL0     H74616   1.868   6.490   6.039 -1.9764  3.9975  0.9325
  553MOL0     H74617   1.711   6.500   5.967 -0.8951  1.6402  1.2974
  553MOL0     H74618   1.705   6.443   6.123 -2.6767 -2.7643 -1.8418
  553MOL0     H74619   1.267   6.377   6.080 -2.2192  1.1554  0.4845
  553MOL0     H74620   1.028   6.377   6.046 -1.8567 -2.2737  1.1796
  553MOL0     H74621   0.816   6.362   5.987  1.2176  0.2209  0.1620
  553MOL0     H74622   0.834   6.365   5.814 -3.5376  0.3057 -1.1531
  553MOL0     H74623   0.657   6.200   5.790 -1.8094 -2.7709  1.2846
  553MOL0     H74624   0.670   6.154   5.952  2.2692 -1.7126 -1.7478
  553MOL0     H74625   0.587   6.446   5.867 -0.4521  0.8064  2.0658
  553MOL0     H74626   0.543   6.372   6.017  0.1317  3.6568  0.3308
  553MOL0     H74627   0.455   6.262   5.748 -0.7227 -2.4110  1.0544
  553MOL0     H74628   0.401   6.222   5.907 -0.2674  0.0917  0.3025
  553MOL0     H74629   0.271   6.411   5.746  2.7300 -0.6660 -2.7589
  553MOL0     H74630   0.399   6.513   5.804 -0.8263  0.8907  1.6998
  553MOL0     H74631   0.240   6.359   6.011 -0.9044 -2.9326 -4.8594
  553MOL0     H74632   0.347   6.507   6.034 -0.6027 -1.7478  0.8680
  553MOL0     H74633   0.060   6.497   5.920  0.7273 -0.9953 -0.4608
  553MOL0     H74634   0.176   6.613   5.866  0.6593  0.7819  1.2170
  553MOL0     H74635   0.044   6.722   6.040 -1.4425  0.4358  3.5928
  553MOL0     H74636   0.215   6.709   6.075 -1.4556  1.9342  0.0706
  553MOL0     H74637   1.046   5.990   5.870 -1.6323  1.1189 -0.4423
  553MOL0     H74638   1.290   5.971   5.925 -0.6573 -0.7426  1.8000
  553MOL0     H74639   1.608   6.016   5.946 -1.2505  0.7373  3.0091
  553MOL0     H74640   1.843   5.932   5.909 -1.4970  0.1615 -2.1645
  553MOL0     H74641   3.639   5.802   5.027 -0.1561 -0.3841  2.2808
  553MOL0     H74642   3.846   5.793   4.894 -2.6242 -0.5185  0.7533
  553MOL0     H74643   4.224   5.684   4.823  0.3171 -0.2106 -0.3868
  553MOL0     H74644   4.433   5.584   4.739 -0.4960  0.4289 -1.5681
  553MOL0     H74645   4.825   5.760   4.803  0.8124 -1.3262 -1.6114
  553MOL0     H74646   4.817   5.669   4.953  0.8142 -2.0394 -0.2080
  553MOL0     H74647   5.012   5.595   4.820 -0.2710  0.4795 -1.3155
  553MOL0     H74648   4.913   5.543   4.697 -0.4771 -1.5373  0.4968
  553MOL0     H74649   4.787   5.379   4.853 -0.6815  1.5623  0.5817
  553MOL0     H74650   4.891   5.426   4.978  0.1945 -1.1699  0.4140
  553MOL0     H74651   5.083   5.373   4.802  0.1316  0.6778 -1.5155
  553MOL0     H74652   4.946   5.284   4.721 -1.0794  0.0814  1.2747
  553MOL0     H74653   5.010   4.994   4.963  3.1811  0.6091 -1.4510
  553MOL0     H74654   4.670   5.854   4.964  0.4246 -0.7882 -0.1480
  553MOL0     H74655   4.473   5.958   5.052  0.0343  1.1753 -2.0827
  554MOL0     O74656   8.455   9.446   0.857 -0.4139 -0.3836  0.3958
  554MOL0     C74657   8.478   9.489   0.972  0.9715  0.5986 -0.7536
  554MOL0     O74658   8.422   9.450   1.097 -0.3289 -0.3885 -0.2790
  554MOL0     C74659   8.311   9.371   1.113 -0.2934  0.4636  1.1118
  554MOL0     C74660   8.259   9.378   1.240  0.5562  0.7665  0.0502
  554MOL0     C74661   8.155   9.290   1.279  0.0888 -0.0854  0.2078
  554MOL0     C74662   8.098   9.202   1.181 -1.1622 -0.9241 -0.3528
  554MOL0     O74663   7.993   9.122   1.207 -0.2706 -0.2755  0.7530
  554MOL0     C74664   7.954   9.099   1.345 -0.4786  0.3699 -0.6449
  554MOL0     C74665   7.861   8.987   1.359  0.3329  0.4641  0.8598
  554MOL0     C74666   7.752   8.992   1.254  0.4590 -0.4766  0.3563
  554MOL0     C74667   7.638   8.894   1.280 -0.1375  1.1316 -0.4405
  554MOL0     C74668   7.509   8.895   1.200 -1.3322 -0.6435  0.4579
  554MOL0     C74669   7.448   8.752   1.218  0.3647  0.7692  0.1512
  554MOL0     C74670   7.327   8.733   1.133  0.3856  0.1275  0.4031
  554MOL0     C74671   7.204   8.803   1.193  0.1728 -0.2683 -0.4591
  554MOL0     N74672   7.085   8.767   1.118  0.0695  0.8336 -0.1273
  554MOL0     C74673   7.043   8.638   1.104  0.5897 -0.6759  0.5884
  554MOL0     C74674   6.922   8.643   1.029  0.1144 -0.3313 -1.0529
  554MOL0     C74675   6.827   8.530   1.003 -0.4027 -0.9258  0.8009
  554MOL0     C74676   6.826   8.480   0.861  0.1965 -0.3161 -0.2766
  554MOL0     C74677   6.762   8.344   0.853  0.1439 -0.1393 -0.3133
  554MOL0     C74678   6.607   8.329   0.838 -0.3860 -0.0932 -0.4086
  554MOL0     O74679   6.584   8.202   0.774 -0.6622 -0.1644 -0.6699
  554MOL0     C74680   6.455   8.159   0.739 -0.1115 -0.8771  0.5228
  554MOL0     C74681   6.356   8.248   0.753  0.6513  0.7000 -0.4141
  554MOL0     C74682   6.218   8.204   0.746  0.0235 -0.1280 -0.2055
  554MOL0     C74683   6.114   8.300   0.781 -0.1820 -0.1845  0.6215
  554MOL0     C74684   6.188   8.072   0.699 -0.1013 -0.0210 -0.4022
  554MOL0     C74685   6.048   8.004   0.713 -0.0048  0.1548 -0.4524
  554MOL0     O74686   5.933   8.071   0.748 -0.0403 -0.0181  0.1191
  554MOL0     C74687   5.804   8.009   0.719  0.5683 -0.2052  0.5412
  554MOL0     C74688   5.730   7.955   0.822 -1.1891  0.4012 -0.1323
  554MOL0     C74689   5.610   7.886   0.793  0.2473 -0.8604  0.4679
  554MOL0     C74690   5.553   7.888   0.665 -0.7061 -0.0530 -0.5552
  554MOL0     O74691   5.437   7.839   0.625 -0.0463  0.4494 -0.3947
  554MOL0     C74692   5.336   7.810   0.723  0.1171  0.0736 -0.0417
  554MOL0     C74693   5.185   7.810   0.670  0.5075  0.6069 -0.4608
  554MOL0     C74694   5.091   7.865   0.774 -0.0788  0.2046 -0.8480
  554MOL0     C74695   4.951   7.844   0.718  0.2570 -0.1207  0.1605
  554MOL0     C74696   4.840   7.932   0.782  0.5189  0.9107 -0.6434
  554MOL0     C74697   4.820   7.902   0.930  0.1086 -0.2609  0.2227
  554MOL0     C74698   4.787   7.762   0.962  0.8286  0.5032 -0.3388
  554MOL0     C74699   4.697   7.751   1.091  0.4138 -0.9120  1.0826
  554MOL0    Cl74700   4.526   7.794   1.063 -0.0863 -0.0815  0.3218
  554MOL0     C74701   5.622   7.955   0.567  0.4653  0.1373 -0.3651
  554MOL0     C74702   5.743   8.013   0.593  0.3768  0.7098  0.5553
  554MOL0     O74703   6.041   7.887   0.673  0.1717 -0.2412  0.3972
  554MOL0     C74704   6.294   7.995   0.656 -0.5389 -0.4582  0.0582
  554MOL0     C74705   6.427   8.034   0.684 -0.1055  0.2044  0.0337
  554MOL0     N74706   6.902   8.775   0.998  0.9479  0.0248  0.8941
  554MOL0     N74707   6.998   8.851   1.056 -0.4582  0.4262 -0.2353
  554MOL0     C74708   8.153   9.202   1.050  0.4631  0.1072  0.3434
  554MOL0     C74709   8.255   9.286   1.013 -0.3105 -0.1809 -0.2375
  554MOL0     C74710   8.587   9.588   0.987  0.2043 -0.2509 -0.4425
  554MOL0     C74711   8.619   9.649   1.111 -1.1896 -0.9083  0.1834
  554MOL0     C74712   8.739   9.729   1.123  0.5843 -0.7832  0.2163
  554MOL0     C74713   8.804   9.770   1.010  0.1440  0.1308 -0.0662
  554MOL0     O74714   8.901   9.868   1.031 -0.6684 -0.1839  0.3708
  554MOL0     C74715   8.991   9.910   0.924 -0.4112 -0.3703  0.1058
  554MOL0     C74716   9.105   9.989   0.979 -0.2594  0.3658  0.0900
  554MOL0     C74717   9.218  10.017   0.877  0.5004  0.5872  0.9785
  554MOL0     C74718   9.357  10.037   0.939  0.0833 -0.2148  0.1302
  554MOL0     C74719   9.375  10.172   0.987  0.0817 -0.9141  0.2140
  554MOL0     C74720   9.374  10.283   1.038  0.3652 -0.1420  0.0380
  554MOL0     C74721   8.769   9.707   0.887 -0.2264 -0.3260 -0.7290
  554MOL0     C74722   8.663   9.617   0.881 -0.0259 -0.3515 -0.5271
  554MOL0     H74723   8.305   9.438   1.318  1.1299  0.2065  0.1523
  554MOL0     H74724   8.114   9.288   1.379  0.9711 -0.9544  0.5765
  554MOL0     H74725   8.037   9.066   1.409 -2.8907  0.6356  2.9188
  554MOL0     H74726   7.898   9.184   1.384 -2.7196 -0.2262 -2.3609
  554MOL0     H74727   7.898   8.884   1.358 -0.5123  0.1425  1.2056
  554MOL0     H74728   7.818   8.989   1.460  1.9969 -2.5516  1.7528
  554MOL0     H74729   7.709   9.092   1.244  1.3174 -0.2105 -1.0277
  554MOL0     H74730   7.796   8.966   1.157  1.1147 -1.0058  0.7821
  554MOL0     H74731   7.686   8.797   1.268 -1.7942  0.2847 -0.4137
  554MOL0     H74732   7.616   8.911   1.386 -0.6899  1.0123 -0.5324
  554MOL0     H74733   7.434   8.968   1.231 -1.5689 -0.6151 -0.1683
  554MOL0     H74734   7.514   8.910   1.092 -0.8465 -1.6773  0.3198
  554MOL0     H74735   7.516   8.674   1.182 -0.9565  0.1913 -1.1750
  554MOL0     H74736   7.419   8.729   1.321  0.3223 -2.9296 -0.5486
  554MOL0     H74737   7.339   8.771   1.031 -1.2868 -0.4312 -0.0343
  554MOL0     H74738   7.320   8.624   1.125  2.9246 -0.0612 -0.2181
  554MOL0     H74739   7.212   8.912   1.192  1.5747 -0.2148  2.8932
  554MOL0     H74740   7.191   8.769   1.296  1.6481 -3.6181 -1.2535
  554MOL0     H74741   7.089   8.550   1.147 -0.7252 -1.3745  0.5860
  554MOL0     H74742   6.864   8.453   1.072  2.9555 -1.0368 -0.9089
  554MOL0     H74743   6.726   8.563   1.029  0.2993  1.3285  0.9079
  554MOL0     H74744   6.926   8.477   0.818 -1.0183  2.5334 -3.7616
  554MOL0     H74745   6.771   8.557   0.806 -0.0922 -0.4732 -0.2146
  554MOL0     H74746   6.793   8.291   0.944 -3.1605  1.3771  1.8794
  554MOL0     H74747   6.805   8.281   0.774  1.0665 -1.4615  1.1822
  554MOL0     H74748   6.584   8.413   0.773  1.9552  1.4088  0.5642
  554MOL0     H74749   6.550   8.340   0.931  0.5997 -0.4887  0.2670
  554MOL0     H74750   6.371   8.348   0.792  2.7690 -0.2415  1.3851
  554MOL0     H74751   6.064   8.254   0.866 -0.4035 -0.2301  0.4670
  554MOL0     H74752   6.159   8.392   0.818  3.0639 -1.7708  0.9565
  554MOL0     H74753   6.053   8.315   0.691  0.6675 -1.7106 -0.2407
  554MOL0     H74754   5.765   7.949   0.925 -0.3054  1.6675 -0.3421
  554MOL0     H74755   5.566   7.823   0.870 -1.1769  0.4614  0.7674
  554MOL0     H74756   5.360   7.719   0.778 -1.2690 -1.1165 -1.2830
  554MOL0     H74757   5.339   7.896   0.790 -1.7965 -0.1443  0.3751
  554MOL0     H74758   5.179   7.878   0.585  2.4899  0.3302 -0.8845
  554MOL0     H74759   5.145   7.712   0.641  0.5464  0.4369  0.0436
  554MOL0     H74760   5.104   7.974   0.783 -2.7682  0.7958 -2.7524
  554MOL0     H74761   5.095   7.813   0.870  1.2835  0.8627 -0.5203
  554MOL0     H74762   4.965   7.857   0.610  1.8466 -1.8797  0.1079
  554MOL0     H74763   4.921   7.740   0.734  2.1191 -0.6209  0.5296
  554MOL0     H74764   4.742   7.913   0.737 -0.6808  0.8632  1.8495
  554MOL0     H74765   4.864   8.039   0.773  0.4589  1.0576  0.7781
  554MOL0     H74766   4.909   7.940   0.981 -0.0989  0.3333  0.1472
  554MOL0     H74767   4.740   7.970   0.961  0.4903  0.8872 -1.1585
  554MOL0     H74768   4.880   7.707   0.981 -0.3413 -0.7554  2.2400
  554MOL0     H74769   4.729   7.710   0.884  0.1863  1.2916 -0.4057
  554MOL0     H74770   4.733   7.810   1.175  1.4096 -1.4806  1.0599
  554MOL0     H74771   4.697   7.646   1.119  2.0216 -0.9311  1.0935
  554MOL0     H74772   5.600   7.969   0.462  3.3511  1.8545 -0.8628
  554MOL0     H74773   5.791   8.070   0.514  0.6326 -1.7480 -1.1783
  554MOL0     H74774   6.274   7.895   0.620 -3.3825  0.1955 -0.4296
  554MOL0     H74775   6.511   7.967   0.665 -1.4131 -1.4984  0.0396
  554MOL0     H74776   8.091   9.142   0.984 -1.7869 -0.3000  2.6666
  554MOL0     H74777   8.296   9.275   0.913 -3.4940  0.5223 -1.7653
  554MOL0     H74778   8.566   9.639   1.205 -0.2176  1.4752  1.0691
  554MOL0     H74779   8.762   9.767   1.222 -0.1640 -1.3604  0.6274
  554MOL0     H74780   9.038   9.819   0.888 -0.4543 -0.9650  1.4673
  554MOL0     H74781   8.934   9.960   0.845  1.8775  1.0754 -0.7129
  554MOL0     H74782   9.147   9.937   1.065  0.4827 -0.1753 -0.5885
  554MOL0     H74783   9.081  10.088   1.020 -1.5386 -0.4538  1.3971
  554MOL0     H74784   9.189  10.107   0.820  3.4329  0.8299 -0.3328
  554MOL0     H74785   9.215   9.931   0.809  0.2784 -1.4173  3.3975
  554MOL0     H74786   9.434  10.022   0.863  0.9903 -0.7759  1.1242
  554MOL0     H74787   9.378   9.969   1.022 -0.7779 -0.8316 -0.1328
  554MOL0     H74788   9.355  10.384   1.069  2.1271  0.0111  0.7876
  554MOL0     H74789   8.833   9.719   0.800  0.9874  2.5478  0.4398
  554MOL0     H74790   8.653   9.577   0.781 -0.3980  1.7006 -1.3610
  555MOL0     O74791   7.015   8.233   0.483 -0.2071  0.1188  0.3810
  555MOL0     C74792   7.011   8.352   0.454  0.2136 -0.4736 -0.5744
  555MOL0     O74793   6.903   8.426   0.408  0.3899 -0.0312 -0.4821
  555MOL0     C74794   6.778   8.367   0.403 -0.4449  0.0990 -1.2724
  555MOL0     C74795   6.732   8.241   0.450 -0.4745 -0.2125 -0.5630
  555MOL0     C74796   6.599   8.200   0.420 -0.3448  0.7542  1.9704
  555MOL0     C74797   6.506   8.285   0.354  0.2662 -0.3220 -0.6695
  555MOL0     O74798   6.369   8.266   0.327  0.1683  0.1024  0.5705
  555MOL0     C74799   6.328   8.132   0.311 -0.0714  0.9923 -0.1943
  555MOL0     C74800   6.175   8.130   0.329 -0.1258 -0.8505  0.0921
  555MOL0     C74801   6.116   8.218   0.208 -0.4611  0.2783 -0.6220
  555MOL0     C74802   5.963   8.228   0.213  0.3968 -0.6946  0.5905
  555MOL0     C74803   5.915   8.323   0.102  0.2921  0.7211  0.5838
  555MOL0     C74804   5.761   8.324   0.072 -0.7669 -0.5827  0.1442
  555MOL0     C74805   5.678   8.376   0.184  0.8603 -0.4224 -0.2010
  555MOL0     C74806   5.533   8.368   0.149  0.0193 -0.6908  0.0226
  555MOL0     N74807   5.474   8.239   0.136 -0.0662 -0.3711 -0.2152
  555MOL0     C74808   5.468   8.136   0.231 -0.1318  0.2868  0.2925
  555MOL0     C74809   5.405   8.033   0.171 -0.8665 -0.0788  0.4835
  555MOL0     C74810   5.371   7.914   0.237  0.6809  1.2948 -0.9518
  555MOL0     C74811   5.235   7.927   0.303  0.1012  0.2820 -0.3265
  555MOL0     C74812   5.121   7.947   0.196 -1.0653  1.4753 -0.2070
  555MOL0     C74813   4.979   7.978   0.251  0.6640 -0.0580  0.5299
  555MOL0     O74814   4.932   7.845   0.277  0.6447  0.2517 -0.7818
  555MOL0     C74815   4.812   7.831   0.340 -0.0570  0.1565 -0.1101
  555MOL0     C74816   4.741   7.933   0.410  0.7153 -0.3240  0.3818
  555MOL0     C74817   4.621   7.912   0.463 -0.6394  0.5832 -0.4656
  555MOL0     C74818   4.549   8.019   0.541 -0.1182  0.0741 -0.2619
  555MOL0     C74819   4.555   7.790   0.432  0.7072  0.8872 -0.0794
  555MOL0     C74820   4.411   7.756   0.485 -0.6686 -0.0704  0.1341
  555MOL0     O74821   4.331   7.672   0.400  0.3141 -0.9882  0.0240
  555MOL0     C74822   4.201   7.648   0.440 -0.5458 -0.0158  0.4118
  555MOL0     C74823   4.152   7.517   0.435 -0.3081 -0.4216 -0.1051
  555MOL0     C74824   4.016   7.488   0.476 -0.9210  1.4058  0.1017
  555MOL0     C74825   3.927   7.588   0.512 -0.4754 -1.0233 -0.4568
  555MOL0     O74826   3.799   7.575   0.551  0.2414  0.0352  0.2030
  555MOL0     C74827   3.738   7.454   0.508 -0.1675 -0.0505  0.5154
  555MOL0     C74828   3.617   7.499   0.424  0.0986 -0.3792 -0.1842
  555MOL0     C74829   3.525   7.380   0.383  0.0344 -0.3678 -0.1339
  555MOL0     C74830   3.392   7.435   0.325 -0.0744  0.0143  0.0203
  555MOL0     C74831   3.291   7.316   0.307  0.2763 -0.2125 -0.3286
  555MOL0     C74832   3.169   7.363   0.227  0.4454  1.1408  0.7307
  555MOL0     C74833   3.068   7.255   0.244  0.8128  0.5547 -0.1300
  555MOL0     C74834   2.945   7.278   0.147  0.5833 -0.1782 -1.2953
  555MOL0    Cl74835   2.984   7.246  -0.022  0.1976  0.1666 -0.1281
  555MOL0     C74836   3.977   7.722   0.507  0.2765  0.5421 -0.1919
  555MOL0     C74837   4.109   7.749   0.476 -0.5276  0.2834 -1.3923
  555MOL0     O74838   4.379   7.797   0.597 -0.6455 -0.1005  0.0753
  555MOL0     C74839   4.633   7.685   0.372 -0.5426  0.1129  0.3278
  555MOL0     C74840   4.757   7.712   0.327 -0.9572  0.1660  1.1465
  555MOL0     N74841   5.378   8.079   0.033 -0.2696 -0.3006 -0.4042
  555MOL0     N74842   5.414   8.204   0.020 -0.1188  0.2410 -0.4338
  555MOL0     C74843   6.557   8.412   0.330 -0.0987  0.0870  0.6587
  555MOL0     C74844   6.686   8.453   0.350  0.1695 -0.6638  0.9694
  555MOL0     C74845   7.142   8.428   0.465 -0.1537 -0.0469  0.4524
  555MOL0     C74846   7.260   8.363   0.483 -0.5610  0.1966  0.2851
  555MOL0     C74847   7.386   8.429   0.488  0.2523  0.8864 -0.0163
  555MOL0     C74848   7.389   8.569   0.459 -0.9423  0.2334  0.1606
  555MOL0     O74849   7.505   8.631   0.423  0.9852 -0.6285 -0.8285
  555MOL0     C74850   7.627   8.571   0.482  0.4273 -0.6222 -1.0644
  555MOL0     C74851   7.723   8.683   0.506 -0.0513 -0.3196 -0.6649
  555MOL0     C74852   7.684   8.766   0.622  0.8254  0.0691  0.5232
  555MOL0     C74853   7.785   8.849   0.685 -0.2363  0.5023 -0.9138
  555MOL0     C74854   7.727   8.960   0.762  0.2301 -0.1677  0.1010
  555MOL0     C74855   7.671   9.051   0.829 -0.7659 -0.2762 -0.0788
  555MOL0     C74856   7.274   8.639   0.465  1.4394  0.0129 -0.6584
  555MOL0     C74857   7.147   8.569   0.464  1.0681 -0.7518 -0.4064
  555MOL0     H74858   6.800   8.164   0.486  0.1250  0.9808  0.9756
  555MOL0     H74859   6.581   8.096   0.449  2.4679 -0.8206 -1.2455
  555MOL0     H74860   6.377   8.085   0.226  1.0496 -2.1895  2.0083
  555MOL0     H74861   6.365   8.083   0.402  1.2430  2.4188  0.0752
  555MOL0     H74862   6.138   8.028   0.319 -2.6450  0.1217 -1.4758
  555MOL0     H74863   6.139   8.172   0.424  2.2709  1.5422  0.0794
  555MOL0     H74864   6.160   8.318   0.206 -0.7635  0.4875  1.3407
  555MOL0     H74865   6.148   8.175   0.113  1.7651 -1.9608  1.0090
  555MOL0     H74866   5.904   8.138   0.197  0.7857 -1.4037  2.8235
  555MOL0     H74867   5.924   8.268   0.308  0.0853 -0.0010  0.1809
  555MOL0     H74868   5.948   8.424   0.128  1.3862  0.5592 -0.1022
  555MOL0     H74869   5.958   8.300   0.004  0.9650 -0.3437  1.1163
  555MOL0     H74870   5.745   8.379  -0.021 -1.9220  2.6743  2.0983
  555MOL0     H74871   5.728   8.224   0.044  0.6642 -1.9517  3.0144
  555MOL0     H74872   5.695   8.311   0.271  0.3960 -3.4747 -2.2073
  555MOL0     H74873   5.707   8.475   0.219 -0.0215 -0.5863  1.0768
  555MOL0     H74874   5.512   8.433   0.064 -0.5935 -0.9429 -0.0270
  555MOL0     H74875   5.487   8.423   0.232 -0.1611  2.0114 -1.7263
  555MOL0     H74876   5.498   8.135   0.336 -4.4720 -0.3056  1.7552
  555MOL0     H74877   5.359   7.835   0.162 -0.0553  0.4252  0.0438
  555MOL0     H74878   5.445   7.884   0.312 -2.5885 -1.9210  1.3551
  555MOL0     H74879   5.238   8.022   0.357 -0.8541  1.3854 -2.1235
  555MOL0     H74880   5.222   7.849   0.378  1.3237  0.5751  0.2109
  555MOL0     H74881   5.121   7.857   0.135 -0.1907  2.0006 -1.0075
  555MOL0     H74882   5.154   8.035   0.140  1.6781  1.2992  0.9554
  555MOL0     H74883   4.914   8.021   0.175 -2.0901 -3.0772  0.9653
  555MOL0     H74884   4.980   8.035   0.345  0.0005 -1.1221  1.2081
  555MOL0     H74885   4.778   8.034   0.421 -1.4102  0.4692  0.6598
  555MOL0     H74886   4.556   7.981   0.644  0.8541  2.7122  0.7235
  555MOL0     H74887   4.605   8.112   0.526 -1.5437  0.7775 -1.4290
  555MOL0     H74888   4.453   8.052   0.501  0.9899  3.1220 -0.6896
  555MOL0     H74889   4.211   7.431   0.406  0.5496 -0.0112  0.3969
  555MOL0     H74890   3.990   7.382   0.475  0.3658  1.0342 -2.4424
  555MOL0     H74891   3.799   7.386   0.447  2.9922  3.7418 -0.9855
  555MOL0     H74892   3.690   7.405   0.592 -2.8294  1.3194 -0.0848
  555MOL0     H74893   3.548   7.563   0.480 -1.9417 -1.9378 -0.7660
  555MOL0     H74894   3.651   7.537   0.328 -0.2705 -3.5245 -1.7143
  555MOL0     H74895   3.515   7.308   0.464  1.4038 -0.9993 -0.5041
  555MOL0     H74896   3.579   7.325   0.305  0.7537  0.3457 -0.1584
  555MOL0     H74897   3.353   7.502   0.402  3.6289  0.8391  1.4171
  555MOL0     H74898   3.402   7.489   0.230  2.9186 -0.7034 -0.1817
  555MOL0     H74899   3.255   7.281   0.405 -1.0598  0.9944 -0.3538
  555MOL0     H74900   3.330   7.223   0.265  4.0016 -1.0625  4.1213
  555MOL0     H74901   3.126   7.456   0.265 -1.3266  0.3295  0.7848
  555MOL0     H74902   3.200   7.368   0.122  0.3506 -3.3819  0.3045
  555MOL0     H74903   3.040   7.255   0.350  1.4410  0.7156  0.0404
  555MOL0     H74904   3.120   7.165   0.209 -1.3937 -0.2004 -1.7444
  555MOL0     H74905   2.909   7.382   0.151  1.3183  0.1042 -1.7016
  555MOL0     H74906   2.873   7.208   0.188 -0.0492  1.9484  1.5835
  555MOL0     H74907   3.908   7.800   0.538  2.3931  1.7610  1.7977
  555MOL0     H74908   4.136   7.854   0.470  1.4633 -0.1958 -1.4860
  555MOL0     H74909   4.596   7.583   0.369  1.6534 -0.7053 -1.6093
  555MOL0     H74910   4.819   7.633   0.285 -2.0171 -0.2732  0.3700
  555MOL0     H74911   6.492   8.493   0.297  2.3420  1.8786 -0.0138
  555MOL0     H74912   6.720   8.552   0.321 -0.2397 -0.6251  0.5990
  555MOL0     H74913   7.259   8.256   0.501  0.6063  0.4797  2.3276
  555MOL0     H74914   7.475   8.368   0.497 -0.8737 -0.5881  1.6441
  555MOL0     H74915   7.597   8.525   0.577 -1.8100  1.1478 -0.8179
  555MOL0     H74916   7.683   8.511   0.410  0.2907  1.1425 -2.6915
  555MOL0     H74917   7.731   8.745   0.416 -0.0588 -0.1538 -0.5515
  555MOL0     H74918   7.825   8.645   0.518  0.7848  1.9869  0.0822
  555MOL0     H74919   7.644   8.703   0.703 -0.0234  1.5355  1.2754
  555MOL0     H74920   7.596   8.815   0.579 -0.7660 -3.4547 -0.6137
  555MOL0     H74921   7.849   8.888   0.605  0.5419 -3.4220 -2.4351
  555MOL0     H74922   7.846   8.789   0.753 -2.4617 -0.7653  0.0811
  555MOL0     H74923   7.627   9.111   0.906 -0.2565  1.0974 -0.8226
  555MOL0     H74924   7.280   8.747   0.459  1.5437  0.1807  1.5526
  555MOL0     H74925   7.060   8.631   0.448  3.4512  2.5559 -1.5239
  556MOL0     O74926   3.760   0.163   3.915  0.3410  0.2797 -0.2983
  556MOL0     C74927   3.832   0.245   3.855 -0.2173 -0.1499 -0.4993
  556MOL0     O74928   3.793   0.332   3.770  0.2008 -0.4526 -0.6012
  556MOL0     C74929   3.659   0.369   3.764 -0.4261 -0.2442  0.5721
  556MOL0     C74930   3.555   0.292   3.709 -0.1046 -1.0383 -0.3953
  556MOL0     C74931   3.426   0.347   3.723  0.1330 -0.6179  0.7874
  556MOL0     C74932   3.406   0.478   3.766 -0.1738 -0.0923 -0.5668
  556MOL0     O74933   3.281   0.522   3.763  0.5546 -0.2304  0.2165
  556MOL0     C74934   3.246   0.649   3.823  0.6083  0.3959 -0.4875
  556MOL0     C74935   3.096   0.661   3.788  0.6595 -0.3518  0.4168
  556MOL0     C74936   2.997   0.574   3.864 -0.3030 -0.6605  0.6444
  556MOL0     C74937   2.851   0.615   3.828 -0.1200  0.3672 -0.4053
  556MOL0     C74938   2.746   0.539   3.916 -0.4917 -0.3290  0.5167
  556MOL0     C74939   2.612   0.605   3.901  0.2417 -0.2286  0.2414
  556MOL0     C74940   2.505   0.542   3.994 -0.8318  0.5722 -0.2482
  556MOL0     C74941   2.358   0.587   3.970  0.1563 -0.9352 -0.0199
  556MOL0     N74942   2.269   0.563   4.084 -0.5153  0.5162 -0.2837
  556MOL0     C74943   2.181   0.652   4.143 -0.3007 -0.5922  0.5395
  556MOL0     C74944   2.094   0.577   4.220 -0.1743  0.2741  0.4902
  556MOL0     C74945   1.995   0.624   4.321  0.5410 -0.9226  0.8261
  556MOL0     C74946   1.900   0.514   4.365  0.0869 -0.0085  1.2476
  556MOL0     C74947   1.781   0.582   4.428  0.3072  0.7313  0.3448
  556MOL0     C74948   1.676   0.482   4.486  1.4818 -0.2581 -0.7185
  556MOL0     O74949   1.594   0.541   4.582 -0.4783  0.1560  0.1573
  556MOL0     C74950   1.475   0.485   4.609 -0.2292 -0.3588 -0.2822
  556MOL0     C74951   1.387   0.569   4.668  0.6409 -0.1486 -0.2425
  556MOL0     C74952   1.260   0.523   4.715  0.0818 -0.0730  1.2739
  556MOL0     C74953   1.170   0.635   4.782  0.0651  0.4284  0.3471
  556MOL0     C74954   1.232   0.388   4.709  0.1750 -0.3017  0.4545
  556MOL0     C74955   1.097   0.344   4.747 -0.7272 -0.3015  0.0987
  556MOL0     O74956   0.983   0.394   4.681  0.2264 -0.5549  0.4894
  556MOL0     C74957   0.850   0.364   4.712  0.5868 -0.4848 -0.6908
  556MOL0     C74958   0.757   0.470   4.699  0.4173 -0.3596 -0.1486
  556MOL0     C74959   0.618   0.435   4.714 -0.1338 -0.1506  0.4647
  556MOL0     C74960   0.579   0.307   4.746  0.3666 -0.2468 -0.1468
  556MOL0     O74961   0.444   0.280   4.766  0.1852  0.4297 -0.2249
  556MOL0     C74962   0.410   0.161   4.837  0.1891  1.0241 -0.9005
  556MOL0     C74963   0.254   0.162   4.891 -0.7779  0.3540  0.6743
  556MOL0     C74964   0.220   0.271   5.001 -0.1872 -0.1359  1.2632
  556MOL0     C74965   0.326   0.266   5.100 -0.1582  0.2852 -0.5566
  556MOL0     C74966   0.295   0.363   5.212 -0.4847 -0.3300 -0.3975
  556MOL0     C74967   0.419   0.361   5.314 -0.2592  0.4995 -0.4787
  556MOL0     C74968   0.386   0.441   5.444 -0.7189 -0.2971 -0.5661
  556MOL0     C74969   0.486   0.428   5.563  0.0220  0.1102  0.0243
  556MOL0    Cl74970   0.383   0.467   5.701  0.3035 -0.4536  0.1878
  556MOL0     C74971   0.678   0.205   4.766  0.2486  0.2435  0.0732
  556MOL0     C74972   0.810   0.241   4.752 -0.2784  0.1621 -0.0728
  556MOL0     O74973   1.095   0.259   4.834 -0.2969  0.5006  0.7923
  556MOL0     C74974   1.325   0.304   4.646  0.2634 -0.2868 -0.3353
  556MOL0     C74975   1.444   0.354   4.601  0.2787 -0.5922  0.2847
  556MOL0     N74976   2.126   0.444   4.199  0.4255  0.4019 -0.0219
  556MOL0     N74977   2.226   0.434   4.109  0.8465  0.3188 -0.9568
  556MOL0     C74978   3.508   0.559   3.802 -0.0067  0.9692  0.4082
  556MOL0     C74979   3.637   0.505   3.807  0.4716  0.0002  0.2647
  556MOL0     C74980   3.967   0.256   3.900 -0.6768 -0.6085  0.2941
  556MOL0     C74981   4.016   0.179   4.014  0.3876  0.3159  1.0324
  556MOL0     C74982   4.153   0.177   4.042  1.1158 -0.1745  0.2028
  556MOL0     C74983   4.245   0.265   3.982 -0.1539  0.4191 -0.1077
  556MOL0     O74984   4.382   0.266   4.003 -0.3693  0.1822  0.2264
  556MOL0     C74985   4.441   0.189   4.109  0.4539 -0.9164 -0.2947
  556MOL0     C74986   4.573   0.266   4.120 -0.6177 -0.3966  0.0008
  556MOL0     C74987   4.667   0.190   4.213 -0.3297 -0.9281 -0.2408
  556MOL0     C74988   4.802   0.254   4.218  0.9360  0.9961 -0.4351
  556MOL0     C74989   4.898   0.183   4.300 -0.4457  1.0918 -0.3882
  556MOL0     C74990   4.977   0.109   4.360 -0.4160 -0.3598  0.2479
  556MOL0     C74991   4.189   0.357   3.891  0.3903  0.4359  0.3872
  556MOL0     C74992   4.051   0.350   3.844 -0.5507  0.2063  0.4511
  556MOL0     H74993   3.556   0.190   3.672 -2.2164 -0.2803 -2.7804
  556MOL0     H74994   3.345   0.280   3.696  1.8772 -1.5848 -2.6803
  556MOL0     H74995   3.261   0.645   3.932  0.2280 -1.1419 -0.4719
  556MOL0     H74996   3.298   0.734   3.778  2.3831 -0.8336 -0.8785
  556MOL0     H74997   3.065   0.764   3.804  1.4122 -0.0534 -0.0309
  556MOL0     H74998   3.084   0.644   3.681  1.0129  3.1658 -0.2744
  556MOL0     H74999   3.005   0.471   3.828  0.3688 -1.4440  2.8752
  556MOL0     H75000   3.026   0.572   3.969  2.9392 -0.4791 -0.1427
  556MOL0     H75001   2.840   0.720   3.857  0.1693  0.8682 -2.0015
  556MOL0     H75002   2.833   0.607   3.721  0.8023 -1.6353 -0.4517
  556MOL0     H75003   2.725   0.441   3.872 -1.5955  1.1314 -2.5040
  556MOL0     H75004   2.777   0.549   4.020 -2.8230 -1.8613  1.4512
  556MOL0     H75005   2.606   0.714   3.913 -1.3310 -0.3978  1.3627
  556MOL0     H75006   2.582   0.582   3.799  3.0439  0.8029 -0.9339
  556MOL0     H75007   2.510   0.432   3.990 -0.8274  0.3529  2.9993
  556MOL0     H75008   2.538   0.564   4.096 -0.3570  1.1828 -0.5293
  556MOL0     H75009   2.327   0.543   3.875  0.1868  0.2559 -0.5958
  556MOL0     H75010   2.359   0.696   3.964  0.0271 -0.9187  0.2617
  556MOL0     H75011   2.188   0.760   4.129  2.0934 -0.3306  2.9974
  556MOL0     H75012   2.051   0.654   4.411 -0.8459 -1.6858  1.9923
  556MOL0     H75013   1.940   0.711   4.285  2.2340 -0.3881 -0.6081
  556MOL0     H75014   1.936   0.440   4.437 -0.8182 -0.3691  1.3391
  556MOL0     H75015   1.870   0.479   4.266  3.5614  2.0953 -0.7362
  556MOL0     H75016   1.722   0.628   4.348 -0.9279 -1.0005  0.2095
  556MOL0     H75017   1.811   0.645   4.513 -0.0566  0.3111  0.7948
  556MOL0     H75018   1.722   0.394   4.533 -0.1877  0.0098  1.5789
  556MOL0     H75019   1.613   0.450   4.402 -0.6889 -2.1300  1.4797
  556MOL0     H75020   1.418   0.673   4.681  1.6308 -0.4745  0.1563
  556MOL0     H75021   1.204   0.627   4.885 -1.4787 -2.4599  0.7544
  556MOL0     H75022   1.196   0.733   4.740  0.6123  0.2786  0.3327
  556MOL0     H75023   1.061   0.624   4.773  0.1529  0.6566 -1.4802
  556MOL0     H75024   0.791   0.564   4.658 -0.7846  0.0740 -0.1954
  556MOL0     H75025   0.542   0.509   4.690 -2.3305 -2.8552 -1.5733
  556MOL0     H75026   0.416   0.077   4.767  0.5642 -0.1842  0.5276
  556MOL0     H75027   0.481   0.138   4.917  0.5023  2.0926 -0.8608
  556MOL0     H75028   0.195   0.190   4.803 -0.5179 -1.0314  0.0318
  556MOL0     H75029   0.228   0.059   4.914  0.1703 -0.5935 -2.1068
  556MOL0     H75030   0.126   0.232   5.042 -1.4950 -2.5330 -3.2442
  556MOL0     H75031   0.201   0.369   4.954 -0.7103 -0.6439  0.3844
  556MOL0     H75032   0.315   0.164   5.139  0.5209 -0.4158 -2.0929
  556MOL0     H75033   0.424   0.290   5.057  0.1207  0.9843  0.4405
  556MOL0     H75034   0.201   0.340   5.262 -0.5016  0.1727 -0.1897
  556MOL0     H75035   0.287   0.461   5.163  1.8959  0.6189  0.9427
  556MOL0     H75036   0.454   0.259   5.332  0.9504  0.8114 -0.9503
  556MOL0     H75037   0.507   0.407   5.268  1.8766 -1.2380  1.5942
  556MOL0     H75038   0.292   0.394   5.477  0.0013 -2.9472 -1.9925
  556MOL0     H75039   0.356   0.545   5.432 -2.3878 -0.7773 -0.8454
  556MOL0     H75040   0.563   0.504   5.544  0.5022 -0.7562 -1.6874
  556MOL0     H75041   0.525   0.327   5.579 -1.9903 -0.4445  1.9452
  556MOL0     H75042   0.655   0.103   4.794  1.5220  0.4799  2.2000
  556MOL0     H75043   0.885   0.162   4.750  1.0857  1.4135 -1.1993
  556MOL0     H75044   1.308   0.198   4.629 -1.9828 -0.0663  0.2846
  556MOL0     H75045   1.520   0.285   4.566 -0.3946 -1.6868  0.9198
  556MOL0     H75046   3.485   0.662   3.827  0.4307  1.1868 -0.0710
  556MOL0     H75047   3.722   0.568   3.831 -1.5555  2.4103  1.6888
  556MOL0     H75048   3.955   0.103   4.062 -3.4639  0.7537 -2.6017
  556MOL0     H75049   4.185   0.115   4.125 -0.6366  0.9030  1.7592
  556MOL0     H75050   4.389   0.195   4.205  1.1532  0.2129  0.0266
  556MOL0     H75051   4.458   0.084   4.082 -0.2117 -1.5832  1.7201
  556MOL0     H75052   4.543   0.364   4.158  2.0686  0.7990 -0.7825
  556MOL0     H75053   4.616   0.266   4.020  0.5939 -3.5549  0.3969
  556MOL0     H75054   4.683   0.088   4.176  1.8248 -1.1391  1.1050
  556MOL0     H75055   4.618   0.177   4.310  1.0854  2.8831  1.1865
  556MOL0     H75056   4.792   0.339   4.285  0.6136 -0.1416  1.0261
  556MOL0     H75057   4.835   0.269   4.115 -0.8320 -1.4659 -1.4480
  556MOL0     H75058   5.045   0.048   4.416  0.5672  1.3030  0.9409
  556MOL0     H75059   4.259   0.425   3.843 -0.0294  0.4695 -0.1926
  556MOL0     H75060   4.018   0.408   3.758 -0.4848 -2.1328 -1.2207
  557MOL0     O75061  10.389   8.047  10.335 -0.1171  0.4535  0.2875
  557MOL0     C75062  10.439   8.049  10.224 -0.2790 -0.4262 -0.0002
  557MOL0     O75063  10.515   7.950  10.168 -0.0851 -0.2034  0.1583
  557MOL0     C75064  10.494   7.824  10.213 -0.1636  0.1181 -0.2503
  557MOL0     C75065  10.448   7.724  10.122  0.3473 -0.6956 -0.3333
  557MOL0     C75066  10.452   7.592  10.165  0.2041  0.1503  0.3834
  557MOL0     C75067  10.505   7.551  10.289 -0.4644  0.1010 -0.2867
  557MOL0     O75068  10.535   7.418  10.301  0.4122 -0.3467 -0.0994
  557MOL0     C75069  10.575   7.362  10.426  0.4438  0.0076  0.5857
  557MOL0     C75070  10.532   7.214  10.443  0.0504  0.1566 -0.5443
  557MOL0     C75071  10.381   7.202  10.446 -0.2846  0.1019  0.0648
  557MOL0     C75072  10.341   7.064  10.504 -1.2432 -0.4570 -0.1739
  557MOL0     C75073  10.199   7.048  10.549 -0.3800  0.2783 -0.3882
  557MOL0     C75074  10.164   7.127  10.679 -0.8915  1.1943  0.6805
  557MOL0     C75075  10.014   7.133  10.709  0.3705 -0.1171 -0.3218
  557MOL0     C75076   9.946   7.259  10.656  0.2367 -0.2582  0.4333
  557MOL0     N75077   9.799   7.240  10.666  0.2442  0.2390  0.3209
  557MOL0     C75078   9.729   7.265  10.775  0.7186 -0.5052 -0.1215
  557MOL0     C75079   9.599   7.240  10.747  1.0074 -0.3466  0.7990
  557MOL0     C75080   9.485   7.269  10.837 -0.2693 -0.3594  0.6091
  557MOL0     C75081   9.434   7.414  10.843  0.8111 -0.1521  0.2366
  557MOL0     C75082   9.356   7.457  10.715 -0.1615 -0.3206 -0.2512
  557MOL0     C75083   9.319   7.603  10.728 -0.5191  0.1101 -0.1970
  557MOL0     O75084   9.223   7.644  10.634  0.1584 -0.1077  0.1699
  557MOL0     C75085   9.095   7.641  10.661  0.0389  0.0604 -0.1850
  557MOL0     C75086   9.033   7.592  10.770 -0.7030 -0.2501 -0.4972
  557MOL0     C75087   8.899   7.584  10.788  0.7761 -0.1952  0.5113
  557MOL0     C75088   8.838   7.519  10.912 -0.1338 -0.8988  0.1556
  557MOL0     C75089   8.811   7.643  10.691  0.2259  0.9933  0.1145
  557MOL0     C75090   8.660   7.662  10.698 -0.4127 -0.0065  0.4613
  557MOL0     O75091   8.602   7.721  10.582  0.0692 -0.6298 -0.4625
  557MOL0     C75092   8.463   7.736  10.591  0.3616  0.2261 -0.6372
  557MOL0     C75093   8.383   7.667  10.499  0.2367  0.5822  0.1650
  557MOL0     C75094   8.242   7.677  10.505  0.3139  0.2412  0.3180
  557MOL0     C75095   8.178   7.759  10.600  0.7905  0.0602  0.4630
  557MOL0     O75096   8.046   7.803  10.597 -0.3249 -0.2877  0.0379
  557MOL0     C75097   8.010   7.855  10.468 -0.1483 -0.5716  0.3503
  557MOL0     C75098   7.893   7.771  10.409  0.7705  0.4184 -0.0023
  557MOL0     C75099   7.789   7.750  10.517 -0.1616  0.3843  0.1278
  557MOL0     C75100   7.662   7.680  10.467  0.5907 -0.3868 -0.1626
  557MOL0     C75101   7.566   7.679  10.583 -0.7576 -0.1069  0.0537
  557MOL0     C75102   7.446   7.610  10.545 -0.1303  0.0087  0.7700
  557MOL0     C75103   7.355   7.627  10.662 -0.8626  0.8425 -0.0876
  557MOL0     C75104   7.237   7.534  10.646  0.7219 -0.5450  0.8056
  557MOL0    Cl75105   7.145   7.542  10.793  0.0947  0.0406  0.0259
  557MOL0     C75106   8.258   7.821  10.693  0.1039 -0.0028  0.9026
  557MOL0     C75107   8.397   7.814  10.691  0.5686  0.6763 -0.6238
  557MOL0     O75108   8.588   7.615  10.788 -0.0336 -0.0160 -0.2485
  557MOL0     C75109   8.867   7.699  10.579 -0.7714  0.0077 -0.4079
  557MOL0     C75110   9.012   7.696  10.566 -0.4179 -0.7170  0.0800
  557MOL0     N75111   9.595   7.203  10.607  0.5547  0.2831 -1.2358
  557MOL0     N75112   9.718   7.211  10.555  0.4869 -0.1915  0.2231
  557MOL0     C75113  10.538   7.651  10.383  0.6407 -0.5588 -0.1510
  557MOL0     C75114  10.528   7.790  10.340 -0.8980  0.7147  0.3130
  557MOL0     C75115  10.417   8.176  10.149 -0.4173  0.8976 -0.2653
  557MOL0     C75116  10.401   8.305  10.213 -0.2946  0.4443  0.4703
  557MOL0     C75117  10.375   8.419  10.135  0.0256 -0.1045 -0.7463
  557MOL0     C75118  10.361   8.417   9.996 -0.2368 -0.0797  0.0426
  557MOL0     O75119  10.331   8.526   9.930 -0.5021  0.4860 -0.7027
  557MOL0     C75120  10.311   8.521   9.785  0.8799 -1.2391  0.3888
  557MOL0     C75121  10.247   8.652   9.740  0.3291  0.9893 -0.2712
  557MOL0     C75122  10.098   8.649   9.782  0.5635 -0.2723 -0.4846
  557MOL0     C75123  10.034   8.781   9.748  0.3142 -0.3541  0.8856
  557MOL0     C75124   9.884   8.801   9.746 -1.0948  0.7415 -0.2456
  557MOL0     C75125   9.765   8.822   9.736 -0.0705  0.6356 -0.2936
  557MOL0     C75126  10.378   8.296   9.938 -0.3236 -0.3680  0.6750
  557MOL0     C75127  10.408   8.174  10.004  0.7061  0.4231  0.1807
  557MOL0     H75128  10.431   7.751  10.018 -2.2880  0.6533  0.3498
  557MOL0     H75129  10.426   7.514  10.095 -0.5060  1.6451 -1.0812
  557MOL0     H75130  10.683   7.374  10.442  0.3485  2.9998 -0.4450
  557MOL0     H75131  10.523   7.409  10.510  0.1317 -1.2538  1.1242
  557MOL0     H75132  10.574   7.145  10.368 -2.5082 -0.8544 -1.1487
  557MOL0     H75133  10.565   7.181  10.542  1.1987  1.5362 -0.4268
  557MOL0     H75134  10.343   7.271  10.521  2.3318 -0.7441  2.3348
  557MOL0     H75135  10.331   7.221  10.350  0.5606  0.4013 -0.3212
  557MOL0     H75136  10.362   6.976  10.442  1.6421 -1.4619  1.9923
  557MOL0     H75137  10.397   7.057  10.598 -0.6796  1.9839 -0.2558
  557MOL0     H75138  10.132   7.071  10.465 -2.4671  1.3324  1.4732
  557MOL0     H75139  10.187   6.943  10.578  1.7903  0.1416  0.2166
  557MOL0     H75140  10.216   7.079  10.763 -1.8897 -2.3524 -0.5608
  557MOL0     H75141  10.213   7.225  10.678 -0.0214  0.7645 -0.1727
  557MOL0     H75142   9.967   7.036  10.688  0.3108 -0.5152  1.4906
  557MOL0     H75143  10.000   7.139  10.817  0.1569  0.8638 -0.3936
  557MOL0     H75144   9.978   7.260  10.552  1.8333  1.2461  0.8964
  557MOL0     H75145   9.973   7.353  10.704  0.9857  1.7202 -3.4458
  557MOL0     H75146   9.775   7.293  10.869 -0.7099 -0.1863  0.5088
  557MOL0     H75147   9.405   7.200  10.809 -0.7467  0.7207 -0.7999
  557MOL0     H75148   9.512   7.256  10.942  1.0432  3.7109  0.9473
  557MOL0     H75149   9.516   7.481  10.870 -0.6290  0.9434  2.1615
  557MOL0     H75150   9.350   7.431  10.911 -1.2360  0.5946 -2.2957
  557MOL0     H75151   9.261   7.406  10.700 -1.0109  1.8522 -3.0387
  557MOL0     H75152   9.417   7.455  10.624 -3.2219 -1.0730 -2.4412
  557MOL0     H75153   9.419   7.648  10.721 -0.7222  0.4957 -0.7161
  557MOL0     H75154   9.284   7.619  10.830 -2.0837 -1.5348 -0.4391
  557MOL0     H75155   9.097   7.537  10.839  1.7821  2.7559 -0.1693
  557MOL0     H75156   8.769   7.438  10.887 -0.9141 -0.7653  1.7565
  557MOL0     H75157   8.919   7.483  10.976  0.0017 -2.8226 -0.9947
  557MOL0     H75158   8.776   7.593  10.964  2.3096  0.4778  1.2691
  557MOL0     H75159   8.424   7.620  10.410 -1.6322 -4.7067  1.7617
  557MOL0     H75160   8.183   7.640  10.422  0.0050  0.3291  0.4968
  557MOL0     H75161   7.971   7.957  10.477 -1.0325 -0.7618 -0.9416
  557MOL0     H75162   8.095   7.853  10.399  0.2435  1.1193  0.7397
  557MOL0     H75163   7.854   7.816  10.317  0.7647 -1.3988 -0.9229
  557MOL0     H75164   7.927   7.671  10.382  3.2091  1.5910 -1.7491
  557MOL0     H75165   7.754   7.842  10.565 -4.7231  1.4175 -4.3366
  557MOL0     H75166   7.834   7.685  10.592 -0.2812  1.4528  1.1678
  557MOL0     H75167   7.620   7.737  10.384  1.4972  0.7901  0.1643
  557MOL0     H75168   7.691   7.577  10.441 -0.2123  0.3392 -4.7547
  557MOL0     H75169   7.540   7.780  10.617  0.8940 -0.3351  2.2157
  557MOL0     H75170   7.622   7.624  10.660  1.2015  0.6622 -0.7527
  557MOL0     H75171   7.406   7.654  10.453  0.9420 -1.0386 -0.2247
  557MOL0     H75172   7.463   7.505  10.520  0.9942  0.5579 -1.0210
  557MOL0     H75173   7.319   7.729  10.677 -3.9260  0.1607 -1.9363
  557MOL0     H75174   7.415   7.609  10.751  0.8176  1.8445 -0.9561
  557MOL0     H75175   7.249   7.428  10.623 -0.7096 -1.0880  2.3022
  557MOL0     H75176   7.179   7.578  10.564  0.7383 -0.6398  0.7436
  557MOL0     H75177   8.203   7.880  10.766 -1.1693 -0.7173  0.5385
  557MOL0     H75178   8.451   7.886  10.753 -0.0431  1.0663 -0.5386
  557MOL0     H75179   8.808   7.751  10.504 -2.1313 -2.3006 -1.0278
  557MOL0     H75180   9.060   7.743  10.481  0.2382 -1.9015 -0.2315
  557MOL0     H75181  10.585   7.630  10.479  2.3236 -0.1294 -0.8534
  557MOL0     H75182  10.538   7.867  10.416  1.5432  2.6360 -1.7674
  557MOL0     H75183  10.405   8.309  10.322 -0.7399  0.8728  0.4744
  557MOL0     H75184  10.381   8.519  10.176  0.6664 -0.2665 -0.4294
  557MOL0     H75185  10.407   8.502   9.736  1.2084 -0.1222  0.5715
  557MOL0     H75186  10.236   8.447   9.754  0.7850 -0.6743 -0.7877
  557MOL0     H75187  10.259   8.652   9.631  0.4175  2.2387 -0.2835
  557MOL0     H75188  10.298   8.741   9.778  0.6733  0.2054  1.1724
  557MOL0     H75189  10.090   8.633   9.890 -1.9379  0.3187 -0.5183
  557MOL0     H75190  10.048   8.570   9.726  1.0116 -1.0295  0.1465
  557MOL0     H75191  10.053   8.792   9.641 -1.2557 -2.2873  0.3655
  557MOL0     H75192  10.081   8.859   9.810  2.0524  1.2286 -2.1741
  557MOL0     H75193   9.661   8.833   9.711 -0.7670 -3.4765  0.0372
  557MOL0     H75194  10.375   8.269   9.832 -1.4479 -4.0277  1.4671
  557MOL0     H75195  10.442   8.085   9.952  3.6209  0.3322  2.0602
  558MOL0     O75196   2.064   2.234   8.418  0.1903  0.8416  0.9044
  558MOL0     C75197   2.038   2.137   8.342  0.9196 -0.0241  0.5880
  558MOL0     O75198   1.917   2.064   8.349  0.9729 -0.6580  0.0513
  558MOL0     C75199   1.815   2.105   8.430 -0.4822  1.1522  0.0350
  558MOL0     C75200   1.687   2.129   8.377  0.3271  0.2915 -0.2303
  558MOL0     C75201   1.580   2.159   8.461  0.5171 -0.2707  0.2483
  558MOL0     C75202   1.603   2.163   8.603  0.6325  0.6938 -0.1303
  558MOL0     O75203   1.505   2.184   8.700  0.4469  0.5315 -0.0712
  558MOL0     C75204   1.369   2.234   8.676  0.0816  0.5340  0.3475
  558MOL0     C75205   1.289   2.237   8.804 -0.4046 -0.0752 -0.2674
  558MOL0     C75206   1.155   2.297   8.795 -0.3711  0.1629 -0.4478
  558MOL0     C75207   1.076   2.297   8.929  0.2407  0.4667  0.3089
  558MOL0     C75208   0.937   2.269   8.894 -0.0920  0.0852 -0.2068
  558MOL0     C75209   0.845   2.255   9.009  0.2902 -0.3342  0.0873
  558MOL0     C75210   0.698   2.217   8.970 -0.1303 -0.2069  0.6572
  558MOL0     C75211   0.606   2.207   9.096 -0.0330 -0.6324  0.9569
  558MOL0     N75212   0.599   2.335   9.179 -0.0628  0.4473 -0.2960
  558MOL0     C75213   0.535   2.456   9.157 -0.4466 -0.4513  0.5100
  558MOL0     C75214   0.592   2.531   9.248  0.5281  0.3763 -0.5505
  558MOL0     C75215   0.542   2.669   9.276 -0.2861  0.0657 -0.4366
  558MOL0     C75216   0.626   2.752   9.378 -0.0318 -0.5008  0.6373
  558MOL0     C75217   0.576   2.895   9.377 -0.4933  0.2339 -0.0797
  558MOL0     C75218   0.652   2.974   9.494 -0.0191 -0.1516 -0.1654
  558MOL0     O75219   0.613   2.927   9.623 -0.5637  0.3986  0.7779
  558MOL0     C75220   0.501   2.974   9.692 -0.1785 -0.0673  0.7851
  558MOL0     C75221   0.493   3.105   9.744 -0.1969  0.1331 -0.8749
  558MOL0     C75222   0.383   3.147   9.811  0.0821 -1.0143 -0.4833
  558MOL0     C75223   0.396   3.286   9.875  0.6737 -0.1798  0.0045
  558MOL0     C75224   0.267   3.067   9.823 -0.3359 -0.2551  0.2694
  558MOL0     C75225   0.150   3.115   9.890 -0.2658 -0.8031 -0.4267
  558MOL0     O75226   0.102   3.243   9.866  0.5174 -0.0841  0.1566
  558MOL0     C75227  -0.026   3.270   9.903 -0.1417  0.3394 -0.4103
  558MOL0     C75228  -0.139   3.205   9.846 -0.4153 -0.6787 -0.9593
  558MOL0     C75229  -0.265   3.239   9.898 -0.4714  2.2578 -0.2597
  558MOL0     C75230  -0.285   3.335   9.994 -0.1776 -0.2680  0.8527
  558MOL0     O75231  -0.410   3.370  10.042 -0.1415  0.6659 -0.5057
  558MOL0     C75232  -0.524   3.332   9.967  0.1436  0.3746  0.0207
  558MOL0     C75233  -0.660   3.369  10.023 -0.9171  0.3529  0.1744
  558MOL0     C75234  -0.679   3.337  10.168 -0.1639  0.1387  1.5563
  558MOL0     C75235  -0.624   3.446  10.269 -0.0631 -0.0374 -0.3175
  558MOL0     C75236  -0.708   3.458  10.392  0.4206  0.1105 -0.6102
  558MOL0     C75237  -0.851   3.523  10.376  0.3612 -0.2610 -0.1447
  558MOL0     C75238  -0.920   3.528  10.512  0.8289 -0.7457 -0.1255
  558MOL0     C75239  -1.069   3.540  10.502  0.3182 -0.2624 -0.9165
  558MOL0    Cl75240  -1.133   3.685  10.423 -0.0408 -0.1271  0.1998
  558MOL0     C75241  -0.173   3.388  10.050  0.0671 -0.0720 -0.4487
  558MOL0     C75242  -0.046   3.366  10.007 -0.5404  0.8551 -0.1437
  558MOL0     O75243   0.087   3.025   9.950  0.2779  0.1280  0.9373
  558MOL0     C75244   0.269   2.933   9.771 -0.4159 -0.3761  0.8902
  558MOL0     C75245   0.391   2.887   9.705  0.5778  0.6684 -1.3652
  558MOL0     N75246   0.675   2.458   9.331 -0.8674 -0.8944 -0.4694
  558MOL0     N75247   0.680   2.334   9.288 -0.6661 -0.1008  1.7305
  558MOL0     C75248   1.730   2.151   8.653  1.1689 -0.4667  0.2838
  558MOL0     C75249   1.833   2.120   8.571 -0.0145  1.0142 -0.6393
  558MOL0     C75250   2.141   2.088   8.250  0.8676  0.6627  0.1417
  558MOL0     C75251   2.253   2.164   8.222  0.5377  0.3262  0.1587
  558MOL0     C75252   2.347   2.121   8.130  0.0816 -1.4092  0.0701
  558MOL0     C75253   2.328   2.000   8.063 -0.4176 -0.1909 -0.7996
  558MOL0     O75254   2.409   1.941   7.975 -0.0698  1.0970  0.2719
  558MOL0     C75255   2.530   2.006   7.949 -0.3331  0.5809 -0.0514
  558MOL0     C75256   2.596   1.936   7.826  0.5026  0.3894 -0.3780
  558MOL0     C75257   2.749   1.949   7.847 -0.1395  0.6151 -0.9529
  558MOL0     C75258   2.846   1.901   7.730 -0.0478 -0.0039 -0.3920
  558MOL0     C75259   2.798   1.776   7.667  0.3389 -0.0499  0.7063
  558MOL0     C75260   2.753   1.672   7.618  1.0546 -0.2076 -1.0184
  558MOL0     C75261   2.218   1.925   8.091  0.0372 -0.8788  0.4181
  558MOL0     C75262   2.125   1.970   8.179 -0.3575  0.3298  0.3475
  558MOL0     H75263   1.653   2.098   8.278 -1.0895 -0.0257  0.3358
  558MOL0     H75264   1.480   2.176   8.423  0.3948 -3.4232 -1.2179
  558MOL0     H75265   1.370   2.337   8.638  0.4477  1.4548  2.6467
  558MOL0     H75266   1.322   2.168   8.603 -1.4001 -1.6870  3.0926
  558MOL0     H75267   1.284   2.133   8.837  0.3650  0.0515  0.2619
  558MOL0     H75268   1.346   2.287   8.883 -1.2963  1.3462 -0.4764
  558MOL0     H75269   1.180   2.401   8.771  2.2613 -0.5804 -1.2682
  558MOL0     H75270   1.098   2.245   8.718 -0.0592 -0.0956 -0.5056
  558MOL0     H75271   1.113   2.230   9.007  1.8961 -1.7668 -2.2111
  558MOL0     H75272   1.074   2.399   8.969  0.0452  1.6445 -2.4788
  558MOL0     H75273   0.909   2.352   8.829  1.5953 -1.2759 -2.8583
  558MOL0     H75274   0.942   2.173   8.841  1.5240  0.8552 -1.5230
  558MOL0     H75275   0.874   2.167   9.068 -1.1155 -0.4706  0.6101
  558MOL0     H75276   0.846   2.347   9.067 -0.0192  0.4226 -1.0662
  558MOL0     H75277   0.652   2.288   8.900  1.0403  0.2084  0.2917
  558MOL0     H75278   0.697   2.118   8.925 -1.8566  0.4231 -0.8193
  558MOL0     H75279   0.638   2.129   9.165  2.6763  1.2432  1.9721
  558MOL0     H75280   0.503   2.187   9.064 -0.7839  0.6790  2.3984
  558MOL0     H75281   0.474   2.484   9.072  1.1489 -3.0456 -1.6525
  558MOL0     H75282   0.541   2.727   9.183  0.0611  0.7779 -0.0045
  558MOL0     H75283   0.438   2.674   9.312 -0.6430  2.0741 -1.5863
  558MOL0     H75284   0.729   2.764   9.345 -0.4140  1.1853 -0.0931
  558MOL0     H75285   0.616   2.707   9.477  2.2452 -0.7837  0.7761
  558MOL0     H75286   0.469   2.892   9.397 -0.8869 -0.1398 -2.0552
  558MOL0     H75287   0.596   2.944   9.281 -0.5355 -0.7174 -0.5898
  558MOL0     H75288   0.633   3.081   9.483  4.3279  0.6295 -2.3222
  558MOL0     H75289   0.761   2.965   9.483  0.0092 -0.1720  0.1234
  558MOL0     H75290   0.578   3.171   9.733 -0.3601  0.2600 -1.3970
  558MOL0     H75291   0.502   3.301   9.898  1.0220  0.0912 -1.6472
  558MOL0     H75292   0.366   3.355   9.796  1.8404  1.1758  0.7144
  558MOL0     H75293   0.328   3.311   9.957  1.7397 -0.3311  0.9516
  558MOL0     H75294  -0.120   3.119   9.782  0.3494 -2.4827  1.5431
  558MOL0     H75295  -0.345   3.178   9.857 -0.0391  0.0202  1.9489
  558MOL0     H75296  -0.505   3.382   9.872  0.5516 -1.9189 -1.1565
  558MOL0     H75297  -0.530   3.224   9.957 -0.2854  0.4979 -1.1006
  558MOL0     H75298  -0.678   3.476  10.009 -1.1222  0.4985  1.4099
  558MOL0     H75299  -0.735   3.315   9.965 -0.3143  0.2549 -0.5252
  558MOL0     H75300  -0.640   3.236  10.186 -0.2996 -0.8618 -2.7694
  558MOL0     H75301  -0.787   3.328  10.183 -0.4988  3.2020  1.4918
  558MOL0     H75302  -0.522   3.425  10.302  1.9547  1.9679 -4.4953
  558MOL0     H75303  -0.621   3.543  10.218 -0.8342  1.2403  1.9209
  558MOL0     H75304  -0.655   3.516  10.470 -1.5065 -1.9158  2.4301
  558MOL0     H75305  -0.721   3.354  10.424  2.5737  0.2257  0.9195
  558MOL0     H75306  -0.850   3.618  10.322  0.3800  0.9281  1.8533
  558MOL0     H75307  -0.909   3.457  10.312  0.8043 -0.4347 -0.3766
  558MOL0     H75308  -0.883   3.610  10.573 -0.6063 -0.4061  0.3111
  558MOL0     H75309  -0.899   3.431  10.557 -0.8354 -0.0380  2.3369
  558MOL0     H75310  -1.114   3.555  10.600  0.5218  0.4194 -0.9200
  558MOL0     H75311  -1.113   3.453  10.452 -1.9414  1.1437 -1.5444
  558MOL0     H75312  -0.181   3.446  10.141  2.6922 -0.0745 -0.1613
  558MOL0     H75313   0.043   3.414  10.048 -0.7802  2.2042 -1.1231
  558MOL0     H75314   0.176   2.879   9.780 -0.8266  0.0179 -0.7094
  558MOL0     H75315   0.394   2.787   9.663 -1.8360  0.1459 -0.4632
  558MOL0     H75316   1.758   2.153   8.758  0.0239 -0.0209  0.5921
  558MOL0     H75317   1.935   2.102   8.605 -0.4577 -1.2210 -0.3063
  558MOL0     H75318   2.240   2.266   8.256  0.7402  0.7744 -1.0488
  558MOL0     H75319   2.429   2.187   8.104 -2.3063  2.0192  0.4853
  558MOL0     H75320   2.522   2.113   7.928 -2.5172  0.0373 -2.5212
  558MOL0     H75321   2.598   1.993   8.033 -0.5596  3.9036  0.7821
  558MOL0     H75322   2.576   1.997   7.737  5.2526  1.0906 -1.2385
  558MOL0     H75323   2.554   1.835   7.818  3.5032 -1.1005  0.9586
  558MOL0     H75324   2.770   1.893   7.938 -0.3616  1.5023 -0.3412
  558MOL0     H75325   2.763   2.055   7.871 -2.9842  0.6225  1.2220
  558MOL0     H75326   2.953   1.891   7.751 -0.0453  0.5688 -0.0995
  558MOL0     H75327   2.840   1.977   7.651 -2.3598  1.1268  0.7949
  558MOL0     H75328   2.707   1.580   7.587 -2.5737  1.1231 -0.1777
  558MOL0     H75329   2.212   1.832   8.036  2.0934 -0.0015 -1.4932
  558MOL0     H75330   2.043   1.902   8.202  0.8062 -1.6100 -0.9586
  559MOL0     O75331   3.354   7.031   2.136 -0.6230 -0.0455 -0.3482
  559MOL0     C75332   3.362   7.103   2.033  0.0559  0.2786 -0.3075
  559MOL0     O75333   3.261   7.154   1.959 -0.0205 -0.0027  0.3251
  559MOL0     C75334   3.132   7.148   2.010 -1.0047  0.2722 -0.6978
  559MOL0     C75335   3.109   7.181   2.147 -0.9251 -0.3766  0.6967
  559MOL0     C75336   2.977   7.172   2.207 -0.2900 -1.0069 -0.1412
  559MOL0     C75337   2.870   7.135   2.124 -0.3529  0.5473  0.3038
  559MOL0     O75338   2.737   7.129   2.165  0.8968 -0.0022  0.4140
  559MOL0     C75339   2.666   7.002   2.161  0.3232  0.5031 -0.1014
  559MOL0     C75340   2.553   6.991   2.061  0.4563  0.7807  0.5964
  559MOL0     C75341   2.457   7.115   2.093  0.4715  0.2575 -0.9238
  559MOL0     C75342   2.316   7.091   2.043  0.0655  0.9898 -0.1439
  559MOL0     C75343   2.230   7.215   2.050  0.4973  0.2268 -0.3375
  559MOL0     C75344   2.085   7.159   2.041 -0.4511  0.0692  0.4538
  559MOL0     C75345   1.978   7.277   2.031  0.4393  0.5543 -0.4498
  559MOL0     C75346   1.944   7.335   2.166  0.0295  0.1224  0.3571
  559MOL0     N75347   1.865   7.248   2.244 -0.2015 -0.2745  0.3835
  559MOL0     C75348   1.910   7.165   2.350 -0.1408 -0.5799  0.5961
  559MOL0     C75349   1.808   7.081   2.371  0.1214  0.0438  0.6464
  559MOL0     C75350   1.813   6.964   2.469  0.1354 -0.0449 -0.1132
  559MOL0     C75351   1.673   6.946   2.534  0.3763  0.7586 -0.2613
  559MOL0     C75352   1.666   6.810   2.608 -0.8183  0.6877  0.4317
  559MOL0     C75353   1.522   6.786   2.667 -0.1385 -0.3432  1.0938
  559MOL0     O75354   1.472   6.895   2.753  1.3385  0.0988  0.0845
  559MOL0     C75355   1.333   6.899   2.782  0.0161  0.2163 -0.2293
  559MOL0     C75356   1.286   6.996   2.878  0.3050  0.5835 -0.3292
  559MOL0     C75357   1.152   7.023   2.901 -0.3264 -0.5080 -0.8154
  559MOL0     C75358   1.112   7.135   3.011 -0.0257 -0.1579 -0.2528
  559MOL0     C75359   1.056   6.928   2.851 -0.4209  0.0375  0.8348
  559MOL0     C75360   0.909   6.941   2.877 -0.3907  0.5703  0.0002
  559MOL0     O75361   0.832   6.828   2.847  0.0488  0.4651 -0.4851
  559MOL0     C75362   0.685   6.829   2.844 -0.8885 -0.2618 -0.0371
  559MOL0     C75363   0.620   6.763   2.737 -0.1793  0.7130 -0.0959
  559MOL0     C75364   0.482   6.761   2.722  0.4351 -0.1677 -0.1565
  559MOL0     C75365   0.398   6.829   2.813 -1.2239  0.6429 -0.7253
  559MOL0     O75366   0.262   6.828   2.790 -1.3558 -0.4219  0.1025
  559MOL0     C75367   0.203   6.709   2.732 -0.6118  0.3201  0.0247
  559MOL0     C75368   0.049   6.724   2.721 -0.7708 -0.0528  0.5840
  559MOL0     C75369   0.011   6.797   2.593  0.3059 -0.2672  0.0909
  559MOL0     C75370  -0.135   6.831   2.584 -0.0193  0.0190  1.2670
  559MOL0     C75371  -0.182   6.936   2.481 -0.4446 -0.6485 -0.0672
  559MOL0     C75372  -0.336   6.958   2.488  0.0544  0.0127  0.2815
  559MOL0     C75373  -0.407   6.841   2.422  0.1768  0.5338  0.0083
  559MOL0     C75374  -0.555   6.814   2.453 -0.7237 -0.2150 -0.9827
  559MOL0    Cl75375  -0.605   6.696   2.338 -0.1992  0.1996  0.0054
  559MOL0     C75376   0.458   6.894   2.916  0.6234  1.4002 -0.7193
  559MOL0     C75377   0.597   6.894   2.936  0.7003 -0.1069  0.1765
  559MOL0     O75378   0.864   7.052   2.901  0.5102 -0.3957  0.5915
  559MOL0     C75379   1.101   6.835   2.755  0.1209 -0.3303 -0.9963
  559MOL0     C75380   1.230   6.813   2.724 -1.0371  0.8419  0.0610
  559MOL0     N75381   1.700   7.116   2.281 -0.3729  0.3493 -0.0710
  559MOL0     N75382   1.731   7.219   2.217  0.1556 -0.2712 -0.4027
  559MOL0     C75383   2.893   7.104   1.985 -0.5500 -0.0560 -0.5930
  559MOL0     C75384   3.022   7.110   1.930  0.5574 -0.8137  0.5644
  559MOL0     C75385   3.496   7.098   1.959 -0.5297  0.5785 -0.2240
  559MOL0     C75386   3.501   7.134   1.827  0.0788  0.5755 -0.4989
  559MOL0     C75387   3.626   7.113   1.762  0.3227  0.3290  0.3209
  559MOL0     C75388   3.739   7.061   1.827 -0.0678 -0.0981 -0.2121
  559MOL0     O75389   3.868   7.033   1.770 -0.3301  0.2086 -0.0691
  559MOL0     C75390   3.912   7.109   1.653 -0.8498  0.1723 -0.0643
  559MOL0     C75391   4.068   7.081   1.612  0.5554 -0.4602  0.8432
  559MOL0     C75392   4.146   7.010   1.724  0.1868 -0.4612 -0.1544
  559MOL0     C75393   4.293   7.022   1.683  0.2894 -0.2442  0.4243
  559MOL0     C75394   4.320   6.934   1.573 -0.5337  0.8342  0.5539
  559MOL0     C75395   4.323   6.864   1.476  0.6878  0.0350  0.9666
  559MOL0     C75396   3.726   7.032   1.957  0.1853 -0.5804 -0.9158
  559MOL0     C75397   3.606   7.045   2.028  0.2732 -0.3407 -0.5594
  559MOL0     H75398   3.184   7.213   2.218 -0.6964  1.3294 -0.2398
  559MOL0     H75399   2.962   7.186   2.313 -0.3186 -0.6323 -0.1944
  559MOL0     H75400   2.735   6.921   2.138 -1.4008 -0.2773 -3.0986
  559MOL0     H75401   2.624   7.001   2.262  0.5764 -2.6844  0.0566
  559MOL0     H75402   2.600   7.007   1.963  2.6158 -1.4244  1.1890
  559MOL0     H75403   2.502   6.895   2.069 -1.0288  1.4232 -0.4803
  559MOL0     H75404   2.453   7.128   2.201 -2.0533  0.3972 -0.9708
  559MOL0     H75405   2.502   7.208   2.056  1.2816  2.1806  4.0652
  559MOL0     H75406   2.326   7.061   1.938 -1.3461 -0.3098  0.0604
  559MOL0     H75407   2.269   7.011   2.100  0.3925 -0.8209 -2.2743
  559MOL0     H75408   2.239   7.278   2.139  2.9764 -0.8250  0.2538
  559MOL0     H75409   2.250   7.284   1.969 -1.2278  0.8945 -0.2212
  559MOL0     H75410   2.076   7.101   1.949 -4.8906 -1.0123  1.2962
  559MOL0     H75411   2.056   7.093   2.124  0.3231  1.4170  1.8444
  559MOL0     H75412   2.019   7.364   1.978  0.4487 -0.2882 -1.8767
  559MOL0     H75413   1.895   7.238   1.972 -0.0737  0.0608  0.5733
  559MOL0     H75414   1.899   7.434   2.152 -1.4339 -0.4597  0.7361
  559MOL0     H75415   2.042   7.350   2.212 -0.7964 -0.5851  2.4962
  559MOL0     H75416   2.012   7.160   2.386 -0.7066 -0.0006  2.3457
  559MOL0     H75417   1.831   6.872   2.414 -2.7871  0.6961 -2.6035
  559MOL0     H75418   1.894   6.969   2.542 -1.1357 -0.4377  1.4076
  559MOL0     H75419   1.587   6.958   2.467 -0.3662 -0.5316  0.4267
  559MOL0     H75420   1.667   7.024   2.610  0.5808 -0.6134  1.1987
  559MOL0     H75421   1.735   6.813   2.692 -1.2895 -0.9684  0.9186
  559MOL0     H75422   1.682   6.721   2.546  3.6734  1.5573 -0.0204
  559MOL0     H75423   1.516   6.690   2.718 -0.1357 -0.0593  1.6325
  559MOL0     H75424   1.452   6.777   2.584 -0.3314  1.7426  0.9608
  559MOL0     H75425   1.360   7.036   2.946  0.4559 -0.2104 -0.0136
  559MOL0     H75426   1.032   7.092   3.071 -1.7571  0.8378 -1.7171
  559MOL0     H75427   1.200   7.155   3.073  0.8551 -2.2159 -0.7459
  559MOL0     H75428   1.078   7.232   2.973 -0.8584  0.3104  1.5693
  559MOL0     H75429   0.683   6.732   2.655 -0.2095  1.8511 -0.5611
  559MOL0     H75430   0.449   6.711   2.631 -0.8172 -0.5176  0.4541
  559MOL0     H75431   0.238   6.717   2.629  0.1246  0.3139  0.2702
  559MOL0     H75432   0.226   6.619   2.789 -1.3846  1.7333  2.7741
  559MOL0     H75433   0.002   6.626   2.712  1.1041 -0.8029 -2.1615
  559MOL0     H75434   0.021   6.775   2.814  0.1855  1.9573 -0.1662
  559MOL0     H75435   0.038   6.740   2.503 -0.4319 -0.9517  0.2906
  559MOL0     H75436   0.074   6.887   2.588  1.5774 -1.1075  0.3157
  559MOL0     H75437  -0.176   6.735   2.553 -2.0855  1.5904 -1.2515
  559MOL0     H75438  -0.165   6.858   2.686  0.4976  3.4690  0.6195
  559MOL0     H75439  -0.154   6.913   2.378 -0.7803  0.3931 -0.4077
  559MOL0     H75440  -0.139   7.035   2.502 -0.2543 -0.9365  0.9490
  559MOL0     H75441  -0.365   6.979   2.591 -0.4167 -0.1140  0.1797
  559MOL0     H75442  -0.366   7.049   2.437  0.1360  1.7427  3.1158
  559MOL0     H75443  -0.355   6.750   2.452  0.6204  0.4678 -0.9065
  559MOL0     H75444  -0.386   6.844   2.314 -1.5945  0.2227 -0.3778
  559MOL0     H75445  -0.609   6.910   2.446 -1.0356 -0.1589  1.2164
  559MOL0     H75446  -0.570   6.772   2.553  1.8338  0.2727 -0.3242
  559MOL0     H75447   0.390   6.948   2.981  1.4083 -0.2125  1.5984
  559MOL0     H75448   0.644   6.941   3.022  1.6052 -1.4829  0.4787
  559MOL0     H75449   1.026   6.778   2.702  0.4470  1.6817 -3.8473
  559MOL0     H75450   1.246   6.736   2.650 -0.4301  0.6533  0.3789
  559MOL0     H75451   2.815   7.076   1.915  0.2729  2.6886 -2.8375
  559MOL0     H75452   3.035   7.074   1.829  1.0628  0.6902  0.0525
  559MOL0     H75453   3.409   7.161   1.777  0.6476  0.1468 -1.8163
  559MOL0     H75454   3.644   7.137   1.658  0.0067 -0.1654  0.1499
  559MOL0     H75455   3.848   7.088   1.567 -1.8392 -1.4995  1.0164
  559MOL0     H75456   3.912   7.214   1.683  1.7242  0.2167  0.0339
  559MOL0     H75457   4.125   7.159   1.559 -1.2260 -1.0015 -2.0778
  559MOL0     H75458   4.057   7.001   1.538  1.9186 -2.6078  2.8463
  559MOL0     H75459   4.125   6.902   1.731  2.4067 -1.2414 -3.3099
  559MOL0     H75460   4.135   7.059   1.821  1.2458  1.9063 -1.1484
  559MOL0     H75461   4.358   6.997   1.767 -0.0307 -2.6422  0.0439
  559MOL0     H75462   4.332   7.122   1.661  0.2075 -0.5290 -1.1458
  559MOL0     H75463   4.339   6.805   1.387  0.1324  0.3995  0.6181
  559MOL0     H75464   3.809   7.001   2.021 -0.9053 -1.0464  0.3324
  559MOL0     H75465   3.593   7.016   2.131  2.2321  1.0458  0.1237
  560MOL0     O75466  11.017   6.164   8.798  0.2067  0.4543  1.1442
  560MOL0     C75467  10.969   6.126   8.902 -0.1242  0.5287  0.2008
  560MOL0     O75468  11.032   6.061   8.997  0.4938 -0.1454  0.9916
  560MOL0     C75469  11.166   6.027   8.990 -0.1356  0.3552 -0.3389
  560MOL0     C75470  11.220   5.992   9.107 -0.2088  1.2174 -0.2330
  560MOL0     C75471  11.345   5.937   9.120 -0.7676 -0.0077  0.1466
  560MOL0     C75472  11.422   5.901   9.007 -0.3423  0.1889 -0.7501
  560MOL0     O75473  11.548   5.843   9.029  0.1027  0.4390 -0.8238
  560MOL0     C75474  11.651   5.886   8.941 -0.0340 -0.1185  0.2391
  560MOL0     C75475  11.789   5.858   8.992  0.2685 -0.3150  0.2119
  560MOL0     C75476  11.897   5.900   8.882  1.0369  0.1796 -0.1172
  560MOL0     C75477  12.032   5.923   8.941 -0.0005  0.1612  0.2019
  560MOL0     C75478  12.093   5.804   9.023  0.4003  0.8113 -0.5558
  560MOL0     C75479  12.230   5.830   9.073 -0.5353  0.1824  0.7688
  560MOL0     C75480  12.290   5.700   9.129  1.4649 -0.3367 -1.3733
  560MOL0     C75481  12.446   5.710   9.113 -0.0700 -1.3585  0.5188
  560MOL0     N75482  12.511   5.597   9.166 -0.3132 -0.4095  0.1402
  560MOL0     C75483  12.471   5.467   9.183 -0.3807 -0.7048 -0.4488
  560MOL0     C75484  12.584   5.394   9.190  0.4954 -1.1264 -0.4538
  560MOL0     C75485  12.592   5.247   9.215  0.5636  0.0172  0.8479
  560MOL0     C75486  12.541   5.228   9.357 -0.4752 -0.5576  0.5017
  560MOL0     C75487  12.524   5.075   9.378  0.4039  0.4857  0.3256
  560MOL0     C75488  12.454   5.042   9.510  0.7015 -0.0451 -0.1842
  560MOL0     O75489  12.359   5.143   9.546 -0.0087  0.0609 -0.3274
  560MOL0     C75490  12.231   5.127   9.509  0.4612  0.0373 -0.6379
  560MOL0     C75491  12.141   5.139   9.613  0.0424  0.1853  0.6353
  560MOL0     C75492  12.014   5.110   9.598  0.3197 -0.0230 -0.4131
  560MOL0     C75493  11.934   5.133   9.729  0.4946  0.3028 -0.4859
  560MOL0     C75494  11.957   5.068   9.471 -0.5601  0.3182 -0.1096
  560MOL0     C75495  11.811   5.032   9.454  0.4046 -0.8669 -0.9911
  560MOL0     O75496  11.739   5.022   9.568  0.0390 -0.3456  0.4530
  560MOL0     C75497  11.599   5.025   9.568  0.3019 -0.2141 -0.7472
  560MOL0     C75498  11.509   5.041   9.460 -0.8641 -0.5107 -0.4523
  560MOL0     C75499  11.371   5.011   9.471 -0.1263  0.2678 -0.0066
  560MOL0     C75500  11.311   4.974   9.597 -0.1606 -0.1114  0.0277
  560MOL0     O75501  11.180   4.936   9.605  0.0996 -0.0903  0.2133
  560MOL0     C75502  11.137   4.878   9.730 -0.1567  0.2285  0.9131
  560MOL0     C75503  10.997   4.823   9.713  0.4963 -0.2505  0.1516
  560MOL0     C75504  10.905   4.926   9.652  0.1905  1.1096  0.2182
  560MOL0     C75505  10.765   4.872   9.643 -0.5271  0.4796  0.3187
  560MOL0     C75506  10.669   4.981   9.589 -0.2799 -0.2720  0.4939
  560MOL0     C75507  10.523   4.938   9.625 -0.4964 -0.0541 -0.1526
  560MOL0     C75508  10.466   4.815   9.548  0.6883  0.5798  0.9604
  560MOL0     C75509  10.350   4.761   9.619  0.5734  0.2330 -0.1315
  560MOL0    Cl75510  10.224   4.885   9.611  0.5586  0.2582 -0.2419
  560MOL0     C75511  11.400   4.961   9.701 -0.7136 -0.5504 -0.0244
  560MOL0     C75512  11.546   4.979   9.686  0.8118  1.0945  0.0322
  560MOL0     O75513  11.764   5.013   9.338  0.2965 -0.4430  0.0536
  560MOL0     C75514  12.050   5.053   9.370 -0.3051  0.2648  1.1188
  560MOL0     C75515  12.186   5.099   9.382  1.0520  0.5100 -0.3977
  560MOL0     N75516  12.690   5.473   9.170 -0.4024 -0.1044  0.0567
  560MOL0     N75517  12.647   5.590   9.167  0.2399 -0.4615 -0.5158
  560MOL0     C75518  11.369   5.932   8.879 -0.0292 -0.4465 -0.0896
  560MOL0     C75519  11.243   5.992   8.873  0.1870  0.1071 -0.1960
  560MOL0     C75520  10.834   6.157   8.936  0.5627 -0.6740 -0.2220
  560MOL0     C75521  10.748   6.207   8.838  0.8146  0.6455 -0.0263
  560MOL0     C75522  10.616   6.260   8.861  0.6708 -0.3723 -0.2387
  560MOL0     C75523  10.559   6.238   8.990 -1.2005 -0.0023  0.3462
  560MOL0     O75524  10.433   6.270   9.021  0.0556  1.1649 -0.3470
  560MOL0     C75525  10.348   6.307   8.919  0.6350 -0.8409 -0.4888
  560MOL0     C75526  10.198   6.301   8.975 -0.2309 -0.7332 -0.2817
  560MOL0     C75527  10.172   6.399   9.092 -0.5464 -0.4103 -0.3212
  560MOL0     C75528  10.148   6.539   9.040  0.5331 -0.2443 -0.2707
  560MOL0     C75529  10.089   6.617   9.155  0.2560  0.1066  0.5967
  560MOL0     C75530  10.049   6.677   9.252 -0.1846  0.7468  0.3164
  560MOL0     C75531  10.644   6.172   9.084  1.1731 -0.2727 -0.7745
  560MOL0     C75532  10.783   6.141   9.063 -0.2356 -0.5649 -0.6576
  560MOL0     H75533  11.169   6.017   9.199 -2.5684 -0.3882 -1.0011
  560MOL0     H75534  11.398   5.899   9.207 -0.1089 -1.5000 -0.8570
  560MOL0     H75535  11.653   5.840   8.842 -0.2509  0.6943 -0.1476
  560MOL0     H75536  11.636   5.992   8.919 -3.0886 -0.5355 -0.1730
  560MOL0     H75537  11.819   5.921   9.076 -0.9636 -1.1565  1.3134
  560MOL0     H75538  11.802   5.751   9.011 -2.1874 -0.7499 -0.3113
  560MOL0     H75539  11.909   5.837   8.793 -2.3345 -0.6825 -0.1238
  560MOL0     H75540  11.864   5.995   8.839  1.3351  0.1200 -0.4854
  560MOL0     H75541  12.105   5.961   8.869 -0.5115 -0.0196 -0.4209
  560MOL0     H75542  12.011   6.004   9.012  0.4665  0.1755  0.3224
  560MOL0     H75543  12.028   5.776   9.106 -0.0367 -0.4018 -1.2866
  560MOL0     H75544  12.088   5.714   8.961  0.8997 -0.3713  1.0629
  560MOL0     H75545  12.289   5.859   8.986 -0.8136 -0.6977  0.2673
  560MOL0     H75546  12.228   5.912   9.145  1.5527  0.1188  0.9648
  560MOL0     H75547  12.258   5.681   9.232 -1.2021  0.5457 -1.9532
  560MOL0     H75548  12.258   5.620   9.062 -2.4549  0.2247 -0.4278
  560MOL0     H75549  12.486   5.808   9.140 -0.1663 -0.6274 -1.7777
  560MOL0     H75550  12.453   5.706   9.004 -2.1869 -2.6291  0.3670
  560MOL0     H75551  12.373   5.433   9.216 -0.2887 -0.5370 -0.0039
  560MOL0     H75552  12.533   5.189   9.144 -1.3465  0.0010  2.3590
  560MOL0     H75553  12.692   5.203   9.204 -0.2136 -1.4382 -0.8563
  560MOL0     H75554  12.450   5.288   9.362  0.7603  1.7459 -1.8310
  560MOL0     H75555  12.622   5.270   9.418  0.9552 -3.5561  0.8097
  560MOL0     H75556  12.620   5.023   9.368  1.0814  1.6076  0.7599
  560MOL0     H75557  12.470   5.031   9.294  2.1987  1.3553 -1.3454
  560MOL0     H75558  12.526   5.029   9.591 -0.7004  0.2172  1.1576
  560MOL0     H75559  12.399   4.947   9.519 -0.7617  0.8652  1.1069
  560MOL0     H75560  12.185   5.162   9.709  3.1008 -2.7731  0.0851
  560MOL0     H75561  11.849   5.199   9.711  0.4922 -0.0486 -1.8962
  560MOL0     H75562  11.889   5.036   9.753 -0.1224  0.1055 -2.3106
  560MOL0     H75563  11.995   5.170   9.812  1.1302  0.7058 -1.1195
  560MOL0     H75564  11.551   5.074   9.366  0.8733 -0.6289  0.2502
  560MOL0     H75565  11.305   5.010   9.386 -1.8997 -1.8482  1.2834
  560MOL0     H75566  11.202   4.793   9.756  0.1146 -0.6507 -2.3033
  560MOL0     H75567  11.125   4.955   9.807 -1.4107 -1.0201  2.0112
  560MOL0     H75568  10.999   4.741   9.641  2.4965  0.3378 -0.5317
  560MOL0     H75569  10.957   4.782   9.806  0.3498  2.2419  1.2739
  560MOL0     H75570  10.940   4.962   9.554 -0.9771  0.1826 -0.5683
  560MOL0     H75571  10.907   5.014   9.717  0.3563  0.7737  0.6661
  560MOL0     H75572  10.751   4.784   9.580 -1.6880  0.3412  0.7375
  560MOL0     H75573  10.730   4.839   9.741  0.1446  1.9107  1.0655
  560MOL0     H75574  10.676   4.998   9.482 -0.0128 -0.0876  0.5409
  560MOL0     H75575  10.691   5.075   9.641  0.1578 -1.0373  1.7561
  560MOL0     H75576  10.507   4.920   9.731 -0.3921  3.2796  0.5271
  560MOL0     H75577  10.460   5.024   9.601  0.0779  0.6149  0.7128
  560MOL0     H75578  10.546   4.743   9.530  0.2612 -0.3391  2.5651
  560MOL0     H75579  10.427   4.856   9.455 -0.8717 -0.1601  1.2624
  560MOL0     H75580  10.372   4.743   9.725  0.7145  1.4844  0.0626
  560MOL0     H75581  10.320   4.661   9.587  4.2768 -1.5582  1.4498
  560MOL0     H75582  11.359   4.924   9.794  0.1173 -1.6074 -0.0537
  560MOL0     H75583  11.606   4.955   9.772 -2.9076 -0.0683  2.5544
  560MOL0     H75584  12.018   5.030   9.269 -0.3037  2.7284  0.5094
  560MOL0     H75585  12.258   5.102   9.301  1.9755 -1.7564  0.2517
  560MOL0     H75586  11.435   5.917   8.794  1.7895 -2.9471  1.6108
  560MOL0     H75587  11.209   6.018   8.774 -2.5972  1.7066  1.0652
  560MOL0     H75588  10.772   6.213   8.732 -2.9932  1.2870 -1.0033
  560MOL0     H75589  10.563   6.306   8.778 -0.7670 -2.2152 -0.4037
  560MOL0     H75590  10.376   6.404   8.877  0.9796 -1.2676 -1.2506
  560MOL0     H75591  10.361   6.230   8.842 -1.9503 -3.0697  1.1159
  560MOL0     H75592  10.181   6.195   8.999  2.7912 -1.6947 -1.8712
  560MOL0     H75593  10.138   6.325   8.887 -1.9247  0.1451  1.0426
  560MOL0     H75594  10.257   6.410   9.160 -2.6609  1.0967  2.3154
  560MOL0     H75595  10.081   6.364   9.143 -0.8695  1.2807  0.3185
  560MOL0     H75596  10.073   6.538   8.961  2.2075  2.3364 -2.0776
  560MOL0     H75597  10.239   6.581   8.995  0.4406 -3.0642 -3.4970
  560MOL0     H75598  10.020   6.752   9.322 -0.5307  1.0845 -0.1825
  560MOL0     H75599  10.582   6.141   9.167 -0.2509  2.2544 -0.7991
  560MOL0     H75600  10.844   6.083   9.131 -0.2725 -0.0936 -0.2161
  561MOL0     O75601   1.429   3.667   6.457 -0.2264 -0.0466  0.0483
  561MOL0     C75602   1.503   3.651   6.357 -0.4708  0.0940 -0.6978
  561MOL0     O75603   1.460   3.605   6.232  0.1841 -0.3830  0.1939
  561MOL0     C75604   1.332   3.557   6.213  0.0377  0.5521 -0.5384
  561MOL0     C75605   1.264   3.596   6.099 -0.4141 -0.2574 -0.3352
  561MOL0     C75606   1.128   3.566   6.089 -0.0110 -0.0740  0.1234
  561MOL0     C75607   1.056   3.490   6.181  1.0296 -0.4467 -0.7590
  561MOL0     O75608   0.922   3.473   6.176 -0.1364 -0.0935 -1.0902
  561MOL0     C75609   0.846   3.387   6.268  0.6480 -0.7949  0.0301
  561MOL0     C75610   0.724   3.319   6.214 -0.3016  0.1337  0.1353
  561MOL0     C75611   0.603   3.407   6.186 -0.1205 -0.1858 -0.6928
  561MOL0     C75612   0.480   3.322   6.149 -0.5459  0.5595 -0.0261
  561MOL0     C75613   0.383   3.411   6.071  0.2796  0.1025  0.9656
  561MOL0     C75614   0.248   3.341   6.027 -0.3679 -0.3457 -0.1779
  561MOL0     C75615   0.166   3.446   5.947 -0.9127 -0.0305 -0.2062
  561MOL0     C75616   0.237   3.506   5.818  0.4685  0.5787  0.5433
  561MOL0     N75617   0.136   3.557   5.721  1.3903 -0.1651  0.9203
  561MOL0     C75618   0.051   3.673   5.723 -0.1395  0.4279  0.6279
  561MOL0     C75619  -0.004   3.676   5.597  0.1773 -0.4094  0.0048
  561MOL0     C75620  -0.097   3.793   5.567  0.8639 -0.5819  0.2368
  561MOL0     C75621  -0.233   3.757   5.622 -0.8843  0.6440  0.2615
  561MOL0     C75622  -0.337   3.865   5.597 -0.7680  0.0065 -0.8185
  561MOL0     C75623  -0.373   3.886   5.452  0.4647  0.4271  0.2570
  561MOL0     O75624  -0.437   4.009   5.440  0.0783 -0.2430 -0.0266
  561MOL0     C75625  -0.568   4.029   5.471 -1.0232 -0.0322 -0.3091
  561MOL0     C75626  -0.608   4.160   5.488  0.4596 -0.6352  0.0102
  561MOL0     C75627  -0.748   4.190   5.509  0.3471  0.5095  0.0965
  561MOL0     C75628  -0.795   4.341   5.500 -0.4729 -0.9954  0.1638
  561MOL0     C75629  -0.837   4.080   5.528  0.2807  0.1272  1.0125
  561MOL0     C75630  -0.983   4.096   5.525  0.1842  0.1247  0.0613
  561MOL0     O75631  -1.056   3.984   5.555 -0.1971 -0.1076 -0.5429
  561MOL0     C75632  -1.192   3.974   5.560  0.3002 -0.2367 -1.1270
  561MOL0     C75633  -1.260   4.073   5.631  0.5794  0.6878  0.7299
  561MOL0     C75634  -1.399   4.076   5.634 -0.3450  0.0060 -0.9609
  561MOL0     C75635  -1.468   3.975   5.564  0.3137 -0.4680  0.1666
  561MOL0     O75636  -1.608   3.970   5.569  0.0489  0.8469  0.1339
  561MOL0     C75637  -1.668   4.044   5.464 -0.0993 -0.0879  0.1376
  561MOL0     C75638  -1.809   4.093   5.492  0.3801 -0.1084 -0.7322
  561MOL0     C75639  -1.896   4.149   5.382 -0.3329 -0.1713  0.0414
  561MOL0     C75640  -2.004   4.243   5.438  0.7557 -0.0322 -0.5208
  561MOL0     C75641  -2.043   4.347   5.333 -0.0839  0.3445 -0.6466
  561MOL0     C75642  -2.161   4.430   5.384  0.1098 -0.5944 -0.1430
  561MOL0     C75643  -2.192   4.546   5.284  0.6813 -0.2214  0.2831
  561MOL0     C75644  -2.329   4.598   5.327  0.3490 -0.8259 -0.0327
  561MOL0    Cl75645  -2.322   4.638   5.502  0.1248  0.4954 -0.4446
  561MOL0     C75646  -1.400   3.873   5.501  0.1528  0.8444  0.1135
  561MOL0     C75647  -1.259   3.881   5.486  0.2561  0.0785  0.4406
  561MOL0     O75648  -1.032   4.194   5.474 -0.1690 -0.3734  0.2183
  561MOL0     C75649  -0.787   3.953   5.532  1.1330 -0.7691 -0.3446
  561MOL0     C75650  -0.650   3.929   5.500  1.2089 -0.1430  0.7191
  561MOL0     N75651   0.031   3.562   5.528  0.0039  0.1473 -0.2681
  561MOL0     N75652   0.111   3.496   5.601  0.1265  0.4255  0.1333
  561MOL0     C75653   1.129   3.449   6.295  0.0140  0.5047 -0.2579
  561MOL0     C75654   1.263   3.491   6.309  0.6122  1.0503 -0.6879
  561MOL0     C75655   1.649   3.679   6.368  1.0163 -0.0805  0.8071
  561MOL0     C75656   1.685   3.755   6.476  0.1446 -0.0069 -0.6008
  561MOL0     C75657   1.819   3.772   6.507  0.0155  0.0711 -0.2943
  561MOL0     C75658   1.924   3.727   6.415  0.2577  0.6115  0.1962
  561MOL0     O75659   2.062   3.755   6.434 -0.0467  0.2756  0.8603
  561MOL0     C75660   2.102   3.844   6.538 -0.5802 -0.4436 -0.4165
  561MOL0     C75661   2.112   3.783   6.672  0.0996 -0.4634 -0.3214
  561MOL0     C75662   2.172   3.887   6.778 -0.0405  0.3161 -0.3550
  561MOL0     C75663   2.176   3.843   6.925 -0.6067 -0.6125  1.0703
  561MOL0     C75664   2.268   3.922   7.005 -0.3586 -0.8279 -0.0446
  561MOL0     C75665   2.344   3.992   7.069  0.1965 -0.2674  0.2522
  561MOL0     C75666   1.878   3.659   6.301 -0.7126 -0.0010  0.6903
  561MOL0     C75667   1.745   3.628   6.280 -0.6814  0.0352 -0.2596
  561MOL0     H75668   1.307   3.668   6.030  0.0288  0.6522  0.8577
  561MOL0     H75669   1.068   3.610   6.010  1.7093  0.6926 -0.8128
  561MOL0     H75670   0.908   3.308   6.312 -0.4481 -2.3688 -1.1514
  561MOL0     H75671   0.813   3.450   6.352 -1.5004  2.2379 -2.8343
  561MOL0     H75672   0.745   3.261   6.124  0.7043  0.9656 -0.1765
  561MOL0     H75673   0.696   3.249   6.294 -0.5208  1.4624  1.2640
  561MOL0     H75674   0.584   3.463   6.278 -1.3542  1.8389 -2.1157
  561MOL0     H75675   0.626   3.472   6.102 -3.3302 -2.4315 -3.5843
  561MOL0     H75676   0.510   3.236   6.088 -0.4221 -0.1488  0.9887
  561MOL0     H75677   0.429   3.282   6.238  0.1102  0.9038  0.5116
  561MOL0     H75678   0.366   3.507   6.120 -1.5917  0.0781  0.4405
  561MOL0     H75679   0.435   3.433   5.977 -1.5474 -2.1162 -0.6664
  561MOL0     H75680   0.267   3.264   5.952  1.5465  1.4606 -1.6682
  561MOL0     H75681   0.190   3.301   6.111  0.6780  1.3096  1.4238
  561MOL0     H75682   0.077   3.394   5.910 -1.4103  1.3845 -1.0956
  561MOL0     H75683   0.140   3.527   6.016  2.8292  0.5394  0.7431
  561MOL0     H75684   0.293   3.425   5.770  0.6709  1.4917 -0.7988
  561MOL0     H75685   0.313   3.579   5.848  3.2520 -1.8689 -0.0622
  561MOL0     H75686   0.023   3.750   5.795  1.1219  0.7311  0.8262
  561MOL0     H75687  -0.062   3.887   5.610 -1.2793 -0.6552  2.3745
  561MOL0     H75688  -0.100   3.801   5.458  3.2544 -0.8872  0.1000
  561MOL0     H75689  -0.226   3.741   5.730 -0.3398 -0.9498  0.0160
  561MOL0     H75690  -0.264   3.657   5.590  1.6608 -0.5263  1.1657
  561MOL0     H75691  -0.296   3.961   5.632 -2.8345  1.1242 -1.2901
  561MOL0     H75692  -0.425   3.837   5.655 -0.6358 -0.3526 -0.7922
  561MOL0     H75693  -0.432   3.805   5.409  1.6399 -0.0351 -0.5235
  561MOL0     H75694  -0.285   3.892   5.387 -1.4232 -1.2203 -2.6387
  561MOL0     H75695  -0.548   4.249   5.470  1.0021 -0.3814  2.6854
  561MOL0     H75696  -0.830   4.363   5.399  1.0012  0.8119 -0.0157
  561MOL0     H75697  -0.876   4.359   5.570 -1.0231  1.4436 -0.9839
  561MOL0     H75698  -0.720   4.420   5.513 -0.0055 -1.4066  0.0203
  561MOL0     H75699  -1.205   4.160   5.669  2.5260  0.8458 -2.1402
  561MOL0     H75700  -1.447   4.152   5.694  2.3160  0.2266  1.0409
  561MOL0     H75701  -1.606   4.132   5.448 -0.5905  0.2465  0.0654
  561MOL0     H75702  -1.674   3.985   5.372 -0.7572 -0.7886  0.6129
  561MOL0     H75703  -1.861   4.021   5.557  1.9248  0.8823  1.7585
  561MOL0     H75704  -1.797   4.181   5.556  0.6824  1.8040 -3.2636
  561MOL0     H75705  -1.944   4.068   5.326  0.7823  0.8821 -2.6276
  561MOL0     H75706  -1.824   4.195   5.314 -0.2689  2.5620  1.8229
  561MOL0     H75707  -2.091   4.184   5.467  1.1550  0.4287  1.8918
  561MOL0     H75708  -1.973   4.292   5.531  0.5129  0.4140 -0.6731
  561MOL0     H75709  -2.079   4.291   5.246 -1.8074 -2.0063  1.3978
  561MOL0     H75710  -1.962   4.412   5.300 -0.2452  0.5537 -0.6363
  561MOL0     H75711  -2.241   4.356   5.392  0.1200 -0.5958 -0.0614
  561MOL0     H75712  -2.123   4.476   5.477  3.3394 -0.0170 -1.6154
  561MOL0     H75713  -2.208   4.503   5.185  0.4852 -2.8930  1.3858
  561MOL0     H75714  -2.112   4.620   5.291 -0.9552  1.7867 -1.0626
  561MOL0     H75715  -2.410   4.525   5.312 -2.2434  1.6814  0.8129
  561MOL0     H75716  -2.366   4.679   5.264  0.9924  1.4753  2.3682
  561MOL0     H75717  -1.459   3.793   5.457 -1.2327  0.6131  2.2799
  561MOL0     H75718  -1.201   3.814   5.424 -0.7510  0.3903 -0.8900
  561MOL0     H75719  -0.859   3.872   5.539  1.3847 -0.9678 -0.0622
  561MOL0     H75720  -0.620   3.825   5.498  0.4089 -0.3619 -0.4276
  561MOL0     H75721   1.074   3.415   6.382 -0.1354 -1.6370 -1.1145
  561MOL0     H75722   1.316   3.451   6.394 -0.0368  0.4195 -0.5751
  561MOL0     H75723   1.622   3.789   6.558  2.5971 -0.2676  1.5105
  561MOL0     H75724   1.838   3.837   6.592  2.5341 -1.0807  0.1114
  561MOL0     H75725   2.195   3.881   6.493 -1.6935  0.8938 -1.7418
  561MOL0     H75726   2.028   3.923   6.557 -3.5521 -3.1982  0.3593
  561MOL0     H75727   2.190   3.706   6.663 -1.4938 -1.9946 -1.6948
  561MOL0     H75728   2.011   3.755   6.702 -0.2828  0.8450 -0.3207
  561MOL0     H75729   2.118   3.981   6.767  1.8590  1.5980  0.6892
  561MOL0     H75730   2.275   3.905   6.743  0.1938 -2.4595 -1.3254
  561MOL0     H75731   2.188   3.734   6.925 -0.6101 -0.6257  2.4538
  561MOL0     H75732   2.076   3.864   6.964 -0.2715  1.7612  0.8102
  561MOL0     H75733   2.412   4.052   7.126  0.4654 -1.0620  0.8039
  561MOL0     H75734   1.945   3.639   6.218 -0.8945 -0.9898  0.7680
  561MOL0     H75735   1.717   3.582   6.185  0.8414 -1.5318 -0.0022
  562MOL0     O75736   2.643  10.720   4.472  0.2900 -0.7893  0.1749
  562MOL0     C75737   2.726  10.727   4.561  0.1586  0.3009 -0.5705
  562MOL0     O75738   2.700  10.780   4.683  0.7967 -0.0501 -0.0754
  562MOL0     C75739   2.574  10.769   4.734  0.9571  0.0584 -0.4469
  562MOL0     C75740   2.479  10.664   4.709 -0.0544  0.0486 -0.5079
  562MOL0     C75741   2.346  10.673   4.760 -0.4140  0.4214 -0.9376
  562MOL0     C75742   2.310  10.775   4.848  0.2031 -0.2557 -0.2035
  562MOL0     O75743   2.181  10.780   4.903  0.2124 -0.1813  0.0695
  562MOL0     C75744   2.107  10.657   4.915  0.3694  0.6129 -0.7817
  562MOL0     C75745   1.983  10.662   5.004  0.4059  0.0207  0.3114
  562MOL0     C75746   1.874  10.576   4.951 -0.2851  0.4573  0.3261
  562MOL0     C75747   1.732  10.615   5.002  0.0039 -0.6935 -0.7789
  562MOL0     C75748   1.631  10.500   4.987  0.5886 -0.3025  0.3854
  562MOL0     C75749   1.495  10.540   5.054  0.5274  0.2559 -0.9618
  562MOL0     C75750   1.368  10.485   4.995 -0.2980 -0.3806  0.8436
  562MOL0     C75751   1.343  10.344   5.023 -0.2348 -0.5852 -0.5359
  562MOL0     N75752   1.218  10.285   4.979 -0.3529 -0.5546  0.1182
  562MOL0     C75753   1.169  10.153   5.001  0.1488 -1.9818 -0.3921
  562MOL0     C75754   1.045  10.146   4.941  0.0800 -0.2802  0.1784
  562MOL0     C75755   0.939  10.054   4.956  0.1622  0.5599 -0.5311
  562MOL0     C75756   0.894  10.081   5.092 -0.4128 -1.1095 -0.7907
  562MOL0     C75757   0.761  10.018   5.111 -0.4392  0.1479 -1.2872
  562MOL0     C75758   0.701  10.075   5.245  0.0495 -0.2522 -0.2981
  562MOL0     O75759   0.594   9.980   5.288 -0.6851  0.0416  0.2644
  562MOL0     C75760   0.468  10.005   5.248  0.3549 -0.0741  0.5404
  562MOL0     C75761   0.389   9.892   5.209  0.0102 -0.7184  0.9124
  562MOL0     C75762   0.252   9.896   5.191 -0.1182  0.5379  0.7232
  562MOL0     C75763   0.186   9.760   5.140 -0.3729  0.0632  0.7105
  562MOL0     C75764   0.176  10.017   5.215  0.2890  0.6483  0.4912
  562MOL0     C75765   0.029  10.031   5.186  0.2887 -0.1234 -0.0783
  562MOL0     O75766  -0.050   9.922   5.173 -0.5574 -0.7007  0.0400
  562MOL0     C75767  -0.189   9.927   5.191  0.3014 -0.6192 -0.4022
  562MOL0     C75768  -0.269  10.014   5.110  0.0250 -0.1440 -0.6373
  562MOL0     C75769  -0.403  10.012   5.122  0.6290 -0.7466 -0.0704
  562MOL0     C75770  -0.469   9.934   5.212 -0.5144 -0.4171  0.3405
  562MOL0     O75771  -0.605   9.945   5.228  0.0142  0.5719 -1.0648
  562MOL0     C75772  -0.696   9.943   5.121  0.0466  0.8250  0.1087
  562MOL0     C75773  -0.839   9.939   5.169 -0.1798  0.3942  0.0024
  562MOL0     C75774  -0.876  10.065   5.247  0.3488 -0.5018  0.0236
  562MOL0     C75775  -1.016  10.092   5.292 -0.0118  0.0839 -0.0494
  562MOL0     C75776  -1.041  10.223   5.366 -0.4055 -0.3872 -0.7275
  562MOL0     C75777  -1.192  10.240   5.392 -0.5852  0.1870  0.2003
  562MOL0     C75778  -1.220  10.365   5.475 -0.0799 -0.3503 -0.5938
  562MOL0     C75779  -1.358  10.356   5.543  0.7057  0.4450 -0.4953
  562MOL0    Cl75780  -1.481  10.313   5.415 -0.3369  0.0485 -0.1158
  562MOL0     C75781  -0.395   9.852   5.299 -0.7447  0.5640  0.3070
  562MOL0     C75782  -0.251   9.856   5.292  0.9431 -0.1976 -0.3339
  562MOL0     O75783  -0.018  10.149   5.204 -0.1474  0.2092  0.0212
  562MOL0     C75784   0.252  10.128   5.257 -0.4118 -0.5221  1.2039
  562MOL0     C75785   0.392  10.127   5.272 -0.5666 -0.3608 -0.3994
  562MOL0     N75786   1.018  10.266   4.878  0.8107  0.0829  0.0846
  562MOL0     N75787   1.124  10.349   4.902 -0.4294 -0.4276 -0.1759
  562MOL0     C75788   2.402  10.882   4.883 -0.4751  0.9864 -0.2160
  562MOL0     C75789   2.530  10.870   4.826 -0.0030 -0.1275  0.1117
  562MOL0     C75790   2.862  10.685   4.533  0.0693 -0.1281  0.1815
  562MOL0     C75791   2.965  10.721   4.620 -0.1978 -0.1531  0.4434
  562MOL0     C75792   3.097  10.692   4.598  0.7807 -0.3378 -0.3352
  562MOL0     C75793   3.141  10.623   4.482 -0.5125 -1.2413  0.3098
  562MOL0     O75794   3.270  10.581   4.451  1.0609  0.1628 -0.7316
  562MOL0     C75795   3.381  10.603   4.534  0.3101 -0.6481  0.5197
  562MOL0     C75796   3.500  10.513   4.513 -0.3379  0.1986  0.4489
  562MOL0     C75797   3.548  10.511   4.368 -0.2460  0.1156  0.4983
  562MOL0     C75798   3.656  10.408   4.339  1.2140  0.4173 -0.6401
  562MOL0     C75799   3.795  10.441   4.383  0.7021 -0.1098 -0.5690
  562MOL0     C75800   3.903  10.482   4.407 -0.2138  0.0790 -0.2871
  562MOL0     C75801   3.037  10.585   4.389 -0.0345 -0.2860  0.1727
  562MOL0     C75802   2.900  10.616   4.416 -0.2115  0.9705 -0.0840
  562MOL0     H75803   2.498  10.583   4.639 -0.7071  0.9467 -1.7450
  562MOL0     H75804   2.270  10.603   4.730 -4.7538  3.1689  2.4156
  562MOL0     H75805   2.075  10.627   4.814  0.5407 -1.1399 -0.3529
  562MOL0     H75806   2.172  10.581   4.960 -2.5182 -1.8043 -0.3706
  562MOL0     H75807   2.002  10.651   5.111 -1.8277  0.3857  0.7830
  562MOL0     H75808   1.942  10.763   4.992  0.8718 -0.0850 -3.0665
  562MOL0     H75809   1.875  10.575   4.842  4.5265  1.5583  0.1494
  562MOL0     H75810   1.894  10.475   4.988 -0.1137  0.4854  0.3103
  562MOL0     H75811   1.732  10.655   5.104  0.5734 -0.6659 -0.7859
  562MOL0     H75812   1.696  10.700   4.944 -0.1185  0.0557  0.3722
  562MOL0     H75813   1.608  10.462   4.887  0.9783  0.4660  0.0007
  562MOL0     H75814   1.675  10.412   5.035 -0.4052  1.7137  5.6902
  562MOL0     H75815   1.492  10.506   5.158  2.3230  2.1090 -0.2258
  562MOL0     H75816   1.479  10.648   5.050 -0.4382  0.1267 -0.7789
  562MOL0     H75817   1.281  10.550   5.011  0.6903  0.8653  1.3430
  562MOL0     H75818   1.391  10.504   4.889  0.7353  0.2536  1.1714
  562MOL0     H75819   1.356  10.320   5.129  0.4424 -2.2488 -0.9578
  562MOL0     H75820   1.420  10.283   4.976 -1.6624 -1.5888 -1.6776
  562MOL0     H75821   1.204  10.088   5.080  1.2291  0.4641  1.2780
  562MOL0     H75822   0.866  10.061   4.875 -1.6357 -0.1346  0.9329
  562MOL0     H75823   0.976   9.951   4.960  1.2036  0.9568  1.9681
  562MOL0     H75824   0.896  10.189   5.111  0.3554 -1.2249 -0.1502
  562MOL0     H75825   0.964  10.039   5.165 -0.0456  0.9697  0.1426
  562MOL0     H75826   0.768   9.909   5.116 -0.9736  0.1551  0.2487
  562MOL0     H75827   0.699  10.037   5.023  1.7676  1.7852 -2.5719
  562MOL0     H75828   0.653  10.170   5.221 -0.4416 -1.3105 -4.3066
  562MOL0     H75829   0.775  10.081   5.326 -0.3944 -0.5801  0.1363
  562MOL0     H75830   0.442   9.799   5.189 -0.6746 -0.8332 -0.5125
  562MOL0     H75831   0.085   9.741   5.178 -1.2596  0.3254 -1.3683
  562MOL0     H75832   0.181   9.774   5.032 -0.4102 -1.9083  0.4164
  562MOL0     H75833   0.246   9.670   5.156 -1.5698 -1.5181 -2.6986
  562MOL0     H75834  -0.218  10.074   5.036 -0.3097  0.5213 -0.3376
  562MOL0     H75835  -0.465  10.077   5.060  0.3676 -0.5671  0.3767
  562MOL0     H75836  -0.692  10.027   5.051 -1.6653  1.7235  1.0277
  562MOL0     H75837  -0.685   9.855   5.057  0.5083  1.9814 -1.4694
  562MOL0     H75838  -0.901   9.928   5.079  1.4044 -1.9031 -0.8823
  562MOL0     H75839  -0.849   9.848   5.229 -2.6486  1.8973  2.0824
  562MOL0     H75840  -0.846  10.153   5.189 -0.5317 -1.1597 -1.4852
  562MOL0     H75841  -0.813  10.069   5.337 -0.1510 -0.4133  0.3712
  562MOL0     H75842  -1.083  10.072   5.208 -1.7410  0.7087  1.1241
  562MOL0     H75843  -1.030  10.007   5.359  2.5374 -0.6078 -0.3154
  562MOL0     H75844  -1.009  10.313   5.313 -2.6255  0.3588 -0.8783
  562MOL0     H75845  -0.982  10.217   5.458 -1.5564  0.1774  0.0595
  562MOL0     H75846  -1.242  10.249   5.295 -2.2684  0.3127  1.0575
  562MOL0     H75847  -1.222  10.145   5.436 -0.1511  1.6150  3.9422
  562MOL0     H75848  -1.217  10.454   5.413  0.6465 -0.8661 -1.3216
  562MOL0     H75849  -1.138  10.366   5.547 -1.1861  0.2114  0.6961
  562MOL0     H75850  -1.407  10.447   5.578 -2.6938 -1.1211 -0.7608
  562MOL0     H75851  -1.366  10.283   5.624 -2.2599  0.9287 -0.2491
  562MOL0     H75852  -0.446   9.791   5.372 -0.4247 -0.7881 -0.5732
  562MOL0     H75853  -0.184   9.795   5.353  1.5599 -1.5326 -2.2593
  562MOL0     H75854   0.205  10.224   5.273 -2.7637 -1.2052 -0.9591
  562MOL0     H75855   0.441  10.222   5.294  0.9384 -0.9237 -1.1389
  562MOL0     H75856   2.384  10.956   4.959 -2.6089 -3.0610  3.6903
  562MOL0     H75857   2.608  10.939   4.855  0.4856 -1.4523  2.1808
  562MOL0     H75858   2.943  10.776   4.711 -1.4524 -0.4624  0.3355
  562MOL0     H75859   3.172  10.734   4.664  0.0050  1.1057 -0.3219
  562MOL0     H75860   3.418  10.704   4.518  0.5072 -0.7993  0.0011
  562MOL0     H75861   3.340  10.576   4.632 -0.7065 -0.5458  0.1433
  562MOL0     H75862   3.483  10.411   4.549 -0.5459 -0.6703 -1.9156
  562MOL0     H75863   3.583  10.544   4.577 -1.1308  3.8378 -0.1086
  562MOL0     H75864   3.586  10.610   4.339  1.8634 -1.4139 -2.6001
  562MOL0     H75865   3.472  10.487   4.293 -0.8189  3.0339 -0.0029
  562MOL0     H75866   3.639  10.381   4.235 -3.4380  0.9194 -0.2443
  562MOL0     H75867   3.625  10.318   4.393 -0.4192  0.7036 -1.0398
  562MOL0     H75868   4.003  10.519   4.418  0.2719 -1.7665  2.4246
  562MOL0     H75869   3.067  10.542   4.294 -0.7987 -1.0966  0.2891
  562MOL0     H75870   2.828  10.598   4.337  0.3312  1.6592 -0.7554
  563MOL0     O75871   0.122   8.508   4.442 -0.1177 -0.3597  0.0069
  563MOL0     C75872   0.222   8.440   4.460 -0.5744 -0.2846  0.6670
  563MOL0     O75873   0.258   8.374   4.569  0.1751  0.0405  0.1539
  563MOL0     C75874   0.167   8.349   4.675 -0.8757 -0.1037 -0.9443
  563MOL0     C75875   0.229   8.317   4.804 -0.7662 -0.2329  0.1835
  563MOL0     C75876   0.152   8.300   4.920 -0.2207 -0.7075  0.8617
  563MOL0     C75877   0.011   8.326   4.913  0.4503  0.0799 -0.0483
  563MOL0     O75878  -0.077   8.312   5.016  0.3053 -0.6752  0.0587
  563MOL0     C75879  -0.025   8.296   5.152  0.3962 -0.1978  1.0966
  563MOL0     C75880  -0.123   8.221   5.244 -0.0837 -0.3072 -0.2141
  563MOL0     C75881  -0.262   8.284   5.272  0.3483 -0.6926  0.4051
  563MOL0     C75882  -0.364   8.230   5.182 -0.0652  0.2186 -0.0136
  563MOL0     C75883  -0.498   8.299   5.211 -0.3263 -0.5580 -0.1401
  563MOL0     C75884  -0.608   8.245   5.118  0.8594  0.0872  0.1191
  563MOL0     C75885  -0.725   8.348   5.119  0.6069  0.3455 -0.7704
  563MOL0     C75886  -0.858   8.304   5.052  0.2342 -0.4994 -0.5420
  563MOL0     N75887  -0.839   8.245   4.927 -0.6147 -0.9904 -0.5528
  563MOL0     C75888  -0.816   8.115   4.898 -0.2233 -0.5921  0.7367
  563MOL0     C75889  -0.821   8.107   4.762 -0.3656  0.2548  0.5253
  563MOL0     C75890  -0.788   7.981   4.680 -0.0732 -0.7969 -0.6831
  563MOL0     C75891  -0.902   7.970   4.579 -0.3782  0.3523  1.0122
  563MOL0     C75892  -0.867   7.861   4.472  0.1538 -0.4978 -0.0676
  563MOL0     C75893  -0.983   7.830   4.377  0.3681  0.7006 -0.7174
  563MOL0     O75894  -0.933   7.730   4.281  0.3727  0.1025 -0.1061
  563MOL0     C75895  -1.026   7.692   4.185  0.2748 -0.3273 -0.8835
  563MOL0     C75896  -0.974   7.616   4.081 -0.1379 -0.0823 -0.4733
  563MOL0     C75897  -1.048   7.571   3.968  0.7283 -0.2845 -0.6218
  563MOL0     C75898  -0.973   7.494   3.868 -0.4361 -0.3727 -0.4971
  563MOL0     C75899  -1.187   7.598   3.963 -0.4202  0.2701 -0.0083
  563MOL0     C75900  -1.276   7.554   3.861  0.2138  0.6164  0.3386
  563MOL0     O75901  -1.271   7.624   3.747  0.3343 -0.3434 -0.1201
  563MOL0     C75902  -1.372   7.597   3.661  0.6631 -0.5562  0.2931
  563MOL0     C75903  -1.356   7.540   3.536  0.5942  0.8198  0.1301
  563MOL0     C75904  -1.466   7.510   3.447  0.3467  0.7754  0.2292
  563MOL0     C75905  -1.599   7.533   3.479 -0.6030 -0.7118 -0.4941
  563MOL0     O75906  -1.702   7.490   3.391 -0.2225  0.2625  0.2053
  563MOL0     C75907  -1.838   7.510   3.434  0.1843 -0.1086 -0.1548
  563MOL0     C75908  -1.947   7.473   3.330 -0.4127  0.0717  0.0188
  563MOL0     C75909  -1.916   7.534   3.187  1.0827  0.0979  0.4510
  563MOL0     C75910  -2.045   7.544   3.098 -0.1126 -0.6560 -0.3287
  563MOL0     C75911  -2.072   7.418   3.019  0.7223  0.3236  0.5166
  563MOL0     C75912  -2.180   7.441   2.913 -0.2000 -0.3405 -0.2437
  563MOL0     C75913  -2.198   7.304   2.845  0.4229 -0.7093  0.1896
  563MOL0     C75914  -2.300   7.323   2.740 -0.2045 -0.3588  0.1113
  563MOL0    Cl75915  -2.459   7.377   2.814 -0.2184  0.1727 -0.1840
  563MOL0     C75916  -1.619   7.586   3.608  0.5260  0.0107 -0.9554
  563MOL0     C75917  -1.513   7.624   3.697 -1.8254 -0.3364  0.1164
  563MOL0     O75918  -1.348   7.453   3.880  0.6206 -0.1744 -0.0010
  563MOL0     C75919  -1.242   7.667   4.070 -0.5282  0.3981 -0.4272
  563MOL0     C75920  -1.163   7.725   4.175  0.7787  0.1190  0.7238
  563MOL0     N75921  -0.858   8.230   4.711 -0.3409 -0.4106 -0.0349
  563MOL0     N75922  -0.864   8.316   4.808 -0.3161  0.3759  0.3245
  563MOL0     C75923  -0.051   8.362   4.788  0.2294  0.8231 -0.3458
  563MOL0     C75924   0.027   8.371   4.676  0.2296 -0.8969  0.4460
  563MOL0     C75925   0.324   8.448   4.352 -1.3018 -0.5692 -0.7167
  563MOL0     C75926   0.437   8.360   4.354  0.2869 -0.0036  0.2726
  563MOL0     C75927   0.532   8.372   4.247  0.0406 -0.5757 -0.1035
  563MOL0     C75928   0.521   8.468   4.138  0.7256  0.2082  0.6104
  563MOL0     O75929   0.608   8.473   4.031 -0.1953  0.0825 -0.3424
  563MOL0     C75930   0.702   8.375   3.990 -0.7186  0.0756 -0.1405
  563MOL0     C75931   0.627   8.259   3.926  0.1543  0.3116 -0.7280
  563MOL0     C75932   0.551   8.309   3.797 -0.1688 -0.5064 -0.3973
  563MOL0     C75933   0.491   8.191   3.712  0.3927  0.6773 -0.7714
  563MOL0     C75934   0.588   8.089   3.671  0.7728  0.3503 -0.1429
  563MOL0     C75935   0.674   8.011   3.647 -0.9349  0.0967  0.3246
  563MOL0     C75936   0.426   8.554   4.149  0.9773  0.5054  0.5852
  563MOL0     C75937   0.329   8.547   4.247 -0.1392 -0.8690 -0.4965
  563MOL0     H75938   0.337   8.312   4.804 -0.8052 -1.3341 -0.4973
  563MOL0     H75939   0.202   8.275   5.013 -1.3983 -0.5631  1.5583
  563MOL0     H75940   0.066   8.235   5.149 -1.3055 -2.8737  0.2892
  563MOL0     H75941  -0.004   8.395   5.192 -1.7333  0.7812 -0.0740
  563MOL0     H75942  -0.144   8.119   5.211 -3.3705  0.7688 -1.8526
  563MOL0     H75943  -0.064   8.224   5.336  0.2938  4.0077 -0.3530
  563MOL0     H75944  -0.291   8.262   5.375 -0.4714  1.4632  0.6902
  563MOL0     H75945  -0.267   8.393   5.265  0.8999 -0.6308  0.9134
  563MOL0     H75946  -0.339   8.251   5.077 -0.8738  2.1707  0.1376
  563MOL0     H75947  -0.383   8.125   5.206 -1.7659 -0.1037 -2.4089
  563MOL0     H75948  -0.533   8.273   5.311  1.4622 -2.6486  0.0279
  563MOL0     H75949  -0.491   8.408   5.207 -1.9825 -0.3026  1.9007
  563MOL0     H75950  -0.579   8.232   5.014  1.4553 -2.5037  0.5371
  563MOL0     H75951  -0.635   8.147   5.158 -1.2172 -0.0863 -1.5667
  563MOL0     H75952  -0.729   8.382   5.223  1.5171  0.8684 -0.8964
  563MOL0     H75953  -0.697   8.436   5.059  2.5018  2.0180  2.3300
  563MOL0     H75954  -0.926   8.390   5.048  2.0315  1.3038  2.9032
  563MOL0     H75955  -0.900   8.230   5.121  2.2388 -0.5193  0.7473
  563MOL0     H75956  -0.781   8.031   4.957 -2.2988 -2.0272  0.0384
  563MOL0     H75957  -0.695   8.001   4.627  0.1751  0.8243  0.3203
  563MOL0     H75958  -0.775   7.897   4.748 -0.6626  0.8592  1.5924
  563MOL0     H75959  -0.905   8.065   4.524 -0.3369 -1.4043 -2.2856
  563MOL0     H75960  -0.997   7.939   4.622 -0.8265 -2.1781 -1.5212
  563MOL0     H75961  -0.832   7.766   4.514 -0.5975 -1.1780 -0.9478
  563MOL0     H75962  -0.782   7.897   4.413 -1.1367  0.5939 -1.3240
  563MOL0     H75963  -1.014   7.925   4.332 -1.9808  0.4724  0.2517
  563MOL0     H75964  -1.065   7.789   4.436  2.5836 -1.0972  1.3102
  563MOL0     H75965  -0.872   7.579   4.088 -0.0433 -0.0865 -1.6984
  563MOL0     H75966  -1.033   7.481   3.777 -0.5304  0.4116 -0.5490
  563MOL0     H75967  -0.876   7.537   3.842 -0.6451 -0.2401 -1.0699
  563MOL0     H75968  -0.969   7.390   3.904 -4.0847 -0.8652 -1.1509
  563MOL0     H75969  -1.261   7.512   3.492  0.4679  3.0926 -1.8323
  563MOL0     H75970  -1.453   7.459   3.352 -1.5711 -2.4043  1.4879
  563MOL0     H75971  -1.856   7.458   3.528 -1.7588  0.1372 -0.3409
  563MOL0     H75972  -1.856   7.617   3.442 -3.3037 -0.2270 -3.3487
  563MOL0     H75973  -1.957   7.365   3.318  1.9588 -0.1287 -0.6198
  563MOL0     H75974  -2.038   7.520   3.368  0.0727  0.9347  0.1305
  563MOL0     H75975  -1.842   7.470   3.137  0.6165  0.8781 -1.3370
  563MOL0     H75976  -1.873   7.633   3.204  1.1126  0.5508 -1.8310
  563MOL0     H75977  -2.126   7.561   3.169  0.3855  5.1105 -0.6672
  563MOL0     H75978  -2.048   7.638   3.042 -2.9119  0.6262  1.7472
  563MOL0     H75979  -2.097   7.338   3.089  0.0680  1.5550  1.7482
  563MOL0     H75980  -1.980   7.385   2.970  1.0192  1.4643  0.2658
  563MOL0     H75981  -2.271   7.482   2.959 -1.6987  1.8319 -4.5659
  563MOL0     H75982  -2.151   7.523   2.845 -0.1331 -2.0167 -2.3342
  563MOL0     H75983  -2.229   7.228   2.918 -1.0281  0.6240  1.0188
  563MOL0     H75984  -2.105   7.278   2.794  1.2397  1.7343  0.3163
  563MOL0     H75985  -2.316   7.227   2.689  0.8961 -1.0089  0.9441
  563MOL0     H75986  -2.267   7.395   2.665  0.0651  0.0769  0.6411
  563MOL0     H75987  -1.721   7.596   3.645 -0.6522 -0.2259 -3.8549
  563MOL0     H75988  -1.526   7.664   3.798  1.7699 -1.4419  1.1540
  563MOL0     H75989  -1.349   7.688   4.065 -0.8688 -1.0038  0.4433
  563MOL0     H75990  -1.222   7.783   4.244 -1.0349 -0.9015  0.0869
  563MOL0     H75991  -0.154   8.395   4.779 -0.5572 -1.6114 -1.0607
  563MOL0     H75992  -0.026   8.413   4.591  3.1316  2.2847  0.0149
  563MOL0     H75993   0.452   8.285   4.431 -2.5864 -2.5226 -1.4384
  563MOL0     H75994   0.614   8.302   4.261 -0.3959 -1.6848 -2.5246
  563MOL0     H75995   0.773   8.415   3.917  0.3436 -2.9440 -0.9248
  563MOL0     H75996   0.760   8.339   4.076 -0.4207 -3.5922 -1.6829
  563MOL0     H75997   0.547   8.229   3.994 -1.0049 -1.0045 -2.5524
  563MOL0     H75998   0.692   8.172   3.910 -0.9248 -1.7251  4.1679
  563MOL0     H75999   0.629   8.358   3.737  2.7383 -1.3522  2.3808
  563MOL0     H76000   0.477   8.387   3.818 -1.8705 -2.8339  3.2940
  563MOL0     H76001   0.441   8.229   3.622 -1.1817  1.7562  0.5016
  563MOL0     H76002   0.409   8.160   3.777 -0.9510  0.6544 -2.4174
  563MOL0     H76003   0.759   7.947   3.631 -0.2337  1.3687 -1.4273
  563MOL0     H76004   0.410   8.622   4.065  1.9467  1.0490  0.8265
  563MOL0     H76005   0.252   8.623   4.245  1.0461  0.3992  0.1373
  564MOL0     O76006   9.198   7.466   4.394  0.2673 -1.1172 -0.0949
  564MOL0     C76007   9.246   7.582   4.382 -0.5541  0.3342  0.9121
  564MOL0     O76008   9.175   7.691   4.336 -0.0880  0.5124  0.0053
  564MOL0     C76009   9.053   7.668   4.272  0.4275  0.2361  0.2438
  564MOL0     C76010   8.942   7.638   4.343  0.0032  0.0998  0.7046
  564MOL0     C76011   8.820   7.616   4.276  0.0016  0.1290 -0.9254
  564MOL0     C76012   8.817   7.630   4.141 -0.7170  0.2426  0.1412
  564MOL0     O76013   8.696   7.610   4.081  0.7861 -0.2929  0.3469
  564MOL0     C76014   8.698   7.609   3.936 -0.2941 -0.1841  0.1617
  564MOL0     C76015   8.549   7.562   3.901  0.5390  0.5327  0.1214
  564MOL0     C76016   8.513   7.565   3.748 -0.2250 -0.2911  0.2686
  564MOL0     C76017   8.579   7.679   3.665 -0.5245  0.4781  0.1015
  564MOL0     C76018   8.566   7.641   3.517  1.0059  1.4342  0.0409
  564MOL0     C76019   8.599   7.749   3.413 -0.2361  0.1870 -0.6326
  564MOL0     C76020   8.590   7.695   3.271 -0.7506 -0.1688 -0.2871
  564MOL0     C76021   8.582   7.818   3.175 -0.1043 -0.2381  1.1348
  564MOL0     N76022   8.528   7.773   3.046 -0.5897  0.8870 -0.1969
  564MOL0     C76023   8.581   7.678   2.958 -0.0864  0.2866 -0.3449
  564MOL0     C76024   8.492   7.658   2.863 -0.3543 -0.6975 -0.3443
  564MOL0     C76025   8.520   7.555   2.757 -0.3934  0.3732 -0.0505
  564MOL0     C76026   8.386   7.523   2.680 -0.2653 -0.3513  0.1671
  564MOL0     C76027   8.323   7.398   2.742  0.5128 -0.1052 -0.6642
  564MOL0     C76028   8.190   7.359   2.683  0.6757 -0.1622 -0.8050
  564MOL0     O76029   8.138   7.239   2.736  0.0705  0.5603  1.3801
  564MOL0     C76030   8.011   7.205   2.714  0.0906 -0.5975  0.4833
  564MOL0     C76031   7.963   7.080   2.752  0.1067 -0.4043 -0.5694
  564MOL0     C76032   7.838   7.024   2.733  0.1744  0.0979  0.3280
  564MOL0     C76033   7.809   6.888   2.803  0.1398  0.4728  0.0906
  564MOL0     C76034   7.740   7.111   2.670 -0.0784  0.2639  0.9025
  564MOL0     C76035   7.598   7.067   2.669 -0.0078  1.0562 -0.2407
  564MOL0     O76036   7.572   6.928   2.652  0.1145  0.5814  0.2637
  564MOL0     C76037   7.438   6.903   2.627  0.0882  0.6822  0.0394
  564MOL0     C76038   7.365   6.958   2.520  0.2182  1.0288 -0.4869
  564MOL0     C76039   7.229   6.922   2.498 -0.3979  0.8451 -0.4796
  564MOL0     C76040   7.161   6.832   2.588 -0.8342 -0.3259  0.4318
  564MOL0     O76041   7.031   6.807   2.579 -0.3857  0.5312 -0.9068
  564MOL0     C76042   6.966   6.741   2.466  0.1528 -0.5127 -0.1809
  564MOL0     C76043   6.994   6.594   2.481 -0.1734 -0.5263  0.5435
  564MOL0     C76044   6.908   6.511   2.574 -0.0363 -0.9499  0.4410
  564MOL0     C76045   6.764   6.496   2.526 -0.0742 -0.2172  0.3747
  564MOL0     C76046   6.679   6.407   2.605 -0.0436 -0.0953 -0.0973
  564MOL0     C76047   6.630   6.466   2.733  0.0910  0.0470 -0.2593
  564MOL0     C76048   6.556   6.368   2.829 -0.2761 -0.1858 -0.1711
  564MOL0     C76049   6.428   6.313   2.758 -0.0007 -1.2990 -0.4095
  564MOL0    Cl76050   6.490   6.170   2.676  0.0160 -0.0868  0.0398
  564MOL0     C76051   7.249   6.775   2.687  1.0843  0.5420 -0.3747
  564MOL0     C76052   7.376   6.812   2.712 -0.3402 -0.4850 -1.2055
  564MOL0     O76053   7.518   7.164   2.668 -0.3803  0.4438 -0.9840
  564MOL0     C76054   7.780   7.239   2.623 -0.2674  0.4870  0.6782
  564MOL0     C76055   7.910   7.281   2.637 -0.3670  0.1192  0.4601
  564MOL0     N76056   8.383   7.743   2.891 -0.9885 -0.2341 -0.1028
  564MOL0     N76057   8.416   7.822   2.992  0.0696 -0.2498 -0.6657
  564MOL0     C76058   8.938   7.656   4.064 -0.7524  0.0145 -0.1691
  564MOL0     C76059   9.057   7.679   4.133  0.7459 -0.7571  0.4820
  564MOL0     C76060   9.388   7.603   4.429 -0.2343  0.9516  0.6528
  564MOL0     C76061   9.457   7.721   4.425  0.2318 -0.0402 -0.4187
  564MOL0     C76062   9.574   7.751   4.485 -0.3173  0.8696  0.0313
  564MOL0     C76063   9.638   7.643   4.555  0.9882 -0.4667  0.4426
  564MOL0     O76064   9.750   7.658   4.630  0.0970  0.0905  0.3829
  564MOL0     C76065   9.843   7.762   4.627  0.1249 -0.2161  0.0633
  564MOL0     C76066   9.946   7.737   4.735 -0.5179  0.7843 -0.5282
  564MOL0     C76067  10.063   7.838   4.721  0.4207 -0.6972  0.0496
  564MOL0     C76068  10.183   7.802   4.821  0.4266  0.4143  0.4749
  564MOL0     C76069  10.260   7.684   4.785  0.6266  0.6122 -0.0999
  564MOL0     C76070  10.325   7.588   4.744  0.0809  0.0829 -0.4655
  564MOL0     C76071   9.577   7.519   4.563  1.6551  0.6500  0.5809
  564MOL0     C76072   9.451   7.493   4.492 -0.2027 -0.0818  0.4553
  564MOL0     H76073   8.945   7.632   4.451  0.5948  1.0247  0.7463
  564MOL0     H76074   8.732   7.584   4.332  0.8698 -0.4540  0.1388
  564MOL0     H76075   8.709   7.714   3.906  3.2782 -0.1051  1.2141
  564MOL0     H76076   8.772   7.539   3.897  1.7974  1.1549  1.4582
  564MOL0     H76077   8.514   7.468   3.944  1.2600 -0.1380 -0.7319
  564MOL0     H76078   8.488   7.640   3.949 -1.5616 -1.3775  0.6971
  564MOL0     H76079   8.545   7.470   3.706 -0.0082 -1.9984  3.9647
  564MOL0     H76080   8.406   7.562   3.725  0.6431  0.0300 -5.3376
  564MOL0     H76081   8.537   7.779   3.677  2.5230  1.7557  0.8722
  564MOL0     H76082   8.684   7.688   3.692 -0.4320  3.5654 -0.9627
  564MOL0     H76083   8.618   7.549   3.491 -3.3170 -1.0479 -0.7979
  564MOL0     H76084   8.463   7.603   3.515  1.4347 -0.2180  3.0440
  564MOL0     H76085   8.527   7.831   3.416  0.6878  1.5404 -5.6583
  564MOL0     H76086   8.704   7.779   3.426 -0.4351  1.1152 -1.0267
  564MOL0     H76087   8.683   7.642   3.249 -0.1357  0.3920  0.8674
  564MOL0     H76088   8.497   7.638   3.268 -1.6603  1.0713  1.8546
  564MOL0     H76089   8.679   7.869   3.173  1.2587 -2.7346 -0.5865
  564MOL0     H76090   8.503   7.885   3.212  0.4301  0.0723  1.7422
  564MOL0     H76091   8.679   7.633   2.967  0.0105  0.4606 -0.5126
  564MOL0     H76092   8.605   7.574   2.692  1.8972 -1.5751  2.1644
  564MOL0     H76093   8.546   7.456   2.797 -2.1379 -0.5302 -1.0483
  564MOL0     H76094   8.413   7.499   2.577 -0.9720  1.7169 -0.5561
  564MOL0     H76095   8.306   7.597   2.681 -0.4724 -0.5797  0.8877
  564MOL0     H76096   8.299   7.433   2.842  0.6905  2.3776 -1.4192
  564MOL0     H76097   8.380   7.305   2.750 -0.9101 -0.8625  1.5929
  564MOL0     H76098   8.191   7.340   2.575 -0.0827 -2.3921 -0.4739
  564MOL0     H76099   8.114   7.435   2.706 -0.5789 -1.4070 -0.6772
  564MOL0     H76100   8.031   7.014   2.806  0.2033  0.0875 -0.0833
  564MOL0     H76101   7.710   6.864   2.844  1.5200  0.0749  3.5092
  564MOL0     H76102   7.841   6.801   2.746  1.4118  0.2748  1.0478
  564MOL0     H76103   7.860   6.887   2.900  2.0562  0.5672 -0.8651
  564MOL0     H76104   7.421   7.023   2.454 -0.5434 -0.9092 -3.2564
  564MOL0     H76105   7.169   6.970   2.421 -1.5128  2.0127  1.0552
  564MOL0     H76106   6.858   6.760   2.458  0.1501  0.0958  1.1118
  564MOL0     H76107   7.008   6.783   2.374  2.3773  1.6033  1.6838
  564MOL0     H76108   6.984   6.557   2.378  1.7989  1.6095 -0.5044
  564MOL0     H76109   7.100   6.591   2.506  0.2262 -2.9594 -1.0507
  564MOL0     H76110   6.913   6.549   2.677  0.9173 -0.1308  0.1039
  564MOL0     H76111   6.963   6.416   2.578  1.5239 -0.2161 -2.0581
  564MOL0     H76112   6.722   6.597   2.530  2.2683  0.8024  0.8326
  564MOL0     H76113   6.764   6.452   2.426 -1.0456  1.4060 -0.4004
  564MOL0     H76114   6.735   6.316   2.632 -1.6077 -1.4140 -1.1334
  564MOL0     H76115   6.599   6.373   2.539  0.2139 -0.4478 -0.2362
  564MOL0     H76116   6.705   6.525   2.787  1.7167 -0.9480 -1.3465
  564MOL0     H76117   6.547   6.528   2.699  0.0507  0.0965 -0.0708
  564MOL0     H76118   6.528   6.422   2.919  0.0082  0.9971 -0.7755
  564MOL0     H76119   6.617   6.282   2.857 -1.0787 -1.3188 -1.7111
  564MOL0     H76120   6.387   6.375   2.677  0.1671 -0.9785 -0.2540
  564MOL0     H76121   6.350   6.286   2.828 -0.7801  0.5767 -0.4817
  564MOL0     H76122   7.205   6.695   2.746 -0.2743  1.7230  0.2756
  564MOL0     H76123   7.444   6.780   2.790  0.2466  3.8702  0.3851
  564MOL0     H76124   7.701   7.294   2.573 -1.0630  1.6451  3.0552
  564MOL0     H76125   7.929   7.381   2.598  1.2029  0.5564  2.1976
  564MOL0     H76126   8.954   7.645   3.957  0.1118  0.4314 -0.0924
  564MOL0     H76127   9.150   7.699   4.080 -0.7027  0.7645 -1.6196
  564MOL0     H76128   9.417   7.809   4.376  2.6326  0.9617 -0.6992
  564MOL0     H76129   9.610   7.853   4.479  0.9897  0.5382  1.7480
  564MOL0     H76130   9.888   7.775   4.528 -0.1084  0.5232  0.0495
  564MOL0     H76131   9.799   7.859   4.650  0.2344  0.1872 -1.3263
  564MOL0     H76132   9.982   7.635   4.718 -4.0554 -0.8669  0.9158
  564MOL0     H76133   9.904   7.743   4.836 -1.6995  2.4601 -1.0894
  564MOL0     H76134  10.015   7.934   4.741 -0.2217 -1.0263  0.0954
  564MOL0     H76135  10.106   7.843   4.621  1.2602  0.8109  0.4429
  564MOL0     H76136  10.169   7.808   4.929  2.7532  1.2316  0.7791
  564MOL0     H76137  10.257   7.882   4.828  3.6581 -2.4465  2.1273
  564MOL0     H76138  10.388   7.502   4.737  1.2884  0.7045  1.8446
  564MOL0     H76139   9.615   7.435   4.620 -0.5196 -2.5184 -2.2068
  564MOL0     H76140   9.408   7.394   4.504  2.7242 -1.4192  0.8781
  565MOL0     O76141   0.110   2.844   7.026 -1.0355 -0.0470 -0.6646
  565MOL0     C76142   0.208   2.889   6.974 -0.7174 -0.0823  0.2923
  565MOL0     O76143   0.213   2.940   6.853 -0.2818 -0.0941  0.0908
  565MOL0     C76144   0.111   2.935   6.760  0.1148  1.3610 -1.1670
  565MOL0     C76145   0.146   2.892   6.631  0.2968 -0.0838 -0.2327
  565MOL0     C76146   0.053   2.868   6.535  0.3699  0.3487  0.7222
  565MOL0     C76147  -0.087   2.885   6.557  0.9948 -0.1946 -0.4548
  565MOL0     O76148  -0.178   2.856   6.454 -0.0950 -0.5062 -1.3191
  565MOL0     C76149  -0.318   2.845   6.489 -0.9075  0.0552 -0.1432
  565MOL0     C76150  -0.399   2.843   6.357  0.0920  0.2549 -0.8329
  565MOL0     C76151  -0.542   2.870   6.384 -0.5314 -0.3675 -0.6204
  565MOL0     C76152  -0.624   2.748   6.425  0.6965  0.8191 -0.3452
  565MOL0     C76153  -0.674   2.683   6.294  0.4052  0.7743  0.1036
  565MOL0     C76154  -0.785   2.571   6.320 -0.1029  0.5830  0.4831
  565MOL0     C76155  -0.809   2.480   6.198 -0.5588  0.9595  1.2414
  565MOL0     C76156  -0.887   2.351   6.234 -0.5896 -0.2077 -0.9818
  565MOL0     N76157  -1.023   2.391   6.252  0.3446  0.1884  0.6324
  565MOL0     C76158  -1.129   2.399   6.161 -1.1674 -0.3007 -0.2117
  565MOL0     C76159  -1.241   2.410   6.235 -0.4416 -0.4192  0.0540
  565MOL0     C76160  -1.376   2.400   6.174 -0.5323 -0.6914 -0.0984
  565MOL0     C76161  -1.387   2.284   6.078 -0.4148  0.4245 -0.2283
  565MOL0     C76162  -1.508   2.286   5.999  0.1600 -0.2454  0.0821
  565MOL0     C76163  -1.641   2.267   6.079  0.3100 -0.6626 -0.6249
  565MOL0     O76164  -1.743   2.195   6.005  0.1069 -0.9300 -0.0070
  565MOL0     C76165  -1.860   2.171   6.070  0.5405  0.1975  1.2516
  565MOL0     C76166  -1.874   2.102   6.191 -0.5337 -0.3505  0.6090
  565MOL0     C76167  -1.999   2.093   6.248 -0.1405  0.0199 -0.4092
  565MOL0     C76168  -2.015   2.012   6.376 -0.3461  0.6168  0.6377
  565MOL0     C76169  -2.116   2.145   6.184 -0.0162  0.2668 -0.6497
  565MOL0     C76170  -2.259   2.133   6.228  0.5091 -0.4826 -0.2831
  565MOL0     O76171  -2.354   2.143   6.134 -0.2179 -0.4823 -0.9407
  565MOL0     C76172  -2.484   2.102   6.135  0.0374  0.8464  0.4482
  565MOL0     C76173  -2.537   2.017   6.235 -1.3542  0.0696  0.2025
  565MOL0     C76174  -2.671   1.974   6.231  0.3710  0.1878 -0.0667
  565MOL0     C76175  -2.759   2.024   6.133 -0.0879  0.0833  0.6337
  565MOL0     O76176  -2.895   1.988   6.156 -0.5253 -0.4750  0.2667
  565MOL0     C76177  -3.003   2.045   6.074  0.4943  1.0789 -0.2734
  565MOL0     C76178  -3.131   1.976   6.144 -0.3395 -0.4241 -0.5590
  565MOL0     C76179  -3.119   1.839   6.194  0.7992  1.0549 -0.4575
  565MOL0     C76180  -3.259   1.787   6.224  0.3400 -0.4171 -0.0091
  565MOL0     C76181  -3.328   1.846   6.344 -0.4050  0.2525  0.1178
  565MOL0     C76182  -3.467   1.781   6.335 -0.8597  0.1967  0.2244
  565MOL0     C76183  -3.554   1.839   6.451 -0.5156  0.3331  0.3849
  565MOL0     C76184  -3.652   1.741   6.529 -0.8635 -0.4115  0.4546
  565MOL0    Cl76185  -3.575   1.586   6.561  0.3911  0.3328  0.2626
  565MOL0     C76186  -2.705   2.091   6.024 -0.3242 -0.1278 -0.3209
  565MOL0     C76187  -2.573   2.133   6.036  0.2026 -0.3998  0.4354
  565MOL0     O76188  -2.282   2.134   6.352 -0.7500 -0.1126 -0.1049
  565MOL0     C76189  -2.098   2.222   6.067  0.7307  0.0217 -0.0715
  565MOL0     C76190  -1.972   2.234   6.013 -0.5139  0.2311 -0.6309
  565MOL0     N76191  -1.210   2.412   6.368 -0.1248  0.0673  0.4513
  565MOL0     N76192  -1.077   2.401   6.368  0.5683 -0.8362 -1.2338
  565MOL0     C76193  -0.126   2.927   6.692 -0.7053 -0.5734  0.1802
  565MOL0     C76194  -0.026   2.962   6.785  0.3503  0.8521  0.1113
  565MOL0     C76195   0.336   2.888   7.057  0.4832 -0.1455 -0.6297
  565MOL0     C76196   0.331   2.827   7.183 -0.6729  1.0618 -0.1244
  565MOL0     C76197   0.447   2.824   7.263 -0.2028  0.2456 -0.7051
  565MOL0     C76198   0.566   2.895   7.215 -0.1374 -1.0110  0.5237
  565MOL0     O76199   0.676   2.898   7.299 -0.2083  0.1001  0.7659
  565MOL0     C76200   0.748   3.021   7.317  0.2381  0.0054 -0.1395
  565MOL0     C76201   0.840   2.996   7.447 -0.4263 -0.1388  0.3606
  565MOL0     C76202   0.968   2.923   7.390  0.5049  0.0921  0.1282
  565MOL0     C76203   1.049   2.860   7.509  0.6113 -0.5098 -0.5369
  565MOL0     C76204   1.132   2.958   7.582  0.7491  1.1961  0.9809
  565MOL0     C76205   1.208   3.034   7.629  1.0863 -0.1170  0.1943
  565MOL0     C76206   0.570   2.956   7.091 -0.6455  0.5891  0.0723
  565MOL0     C76207   0.457   2.951   7.009 -0.4222 -0.2266 -0.4028
  565MOL0     H76208   0.248   2.863   6.609  0.8289  0.8657  0.8774
  565MOL0     H76209   0.082   2.833   6.437  0.2412  1.8742  0.1114
  565MOL0     H76210  -0.337   2.768   6.564 -0.7021  0.8702  0.7823
  565MOL0     H76211  -0.334   2.938   6.544  1.6981 -0.7378  2.2091
  565MOL0     H76212  -0.366   2.921   6.288 -1.7699  1.4845 -0.4048
  565MOL0     H76213  -0.391   2.744   6.310  1.1441 -0.2660  0.3429
  565MOL0     H76214  -0.556   2.944   6.464 -2.2072 -1.5144  0.1948
  565MOL0     H76215  -0.582   2.912   6.291  1.3669 -1.5774 -2.0311
  565MOL0     H76216  -0.573   2.680   6.494 -0.2916 -0.8666 -1.2081
  565MOL0     H76217  -0.709   2.780   6.485  0.4270  0.2151 -0.3957
  565MOL0     H76218  -0.719   2.756   6.226 -0.1050 -0.0286 -0.4408
  565MOL0     H76219  -0.595   2.628   6.241  1.7597  0.3748  2.4081
  565MOL0     H76220  -0.757   2.511   6.406 -0.1510  0.3322  0.3228
  565MOL0     H76221  -0.877   2.628   6.337  1.3168  2.7334  1.4750
  565MOL0     H76222  -0.845   2.553   6.125  1.4838  1.2177  0.4030
  565MOL0     H76223  -0.712   2.446   6.160 -1.4398 -0.5105  0.2170
  565MOL0     H76224  -0.854   2.310   6.330 -0.0425 -0.7082 -1.3739
  565MOL0     H76225  -0.878   2.270   6.162  2.0495 -1.3307  0.4605
  565MOL0     H76226  -1.126   2.387   6.053 -1.9029  0.8506 -0.3694
  565MOL0     H76227  -1.449   2.396   6.255 -0.6867 -1.2083 -0.2590
  565MOL0     H76228  -1.384   2.493   6.117 -0.9846  2.8445  5.0422
  565MOL0     H76229  -1.372   2.191   6.134 -1.6098 -0.0365 -0.6420
  565MOL0     H76230  -1.296   2.276   6.017 -0.1999 -3.1720  0.3194
  565MOL0     H76231  -1.506   2.206   5.924  0.9017 -1.2256  1.1043
  565MOL0     H76232  -1.508   2.383   5.948  0.3782  0.8491  2.0525
  565MOL0     H76233  -1.682   2.364   6.109  1.5872 -0.2102 -0.2604
  565MOL0     H76234  -1.623   2.216   6.174  0.5341 -1.0969 -0.8952
  565MOL0     H76235  -1.791   2.049   6.237 -0.4797  0.1001  1.0465
  565MOL0     H76236  -2.044   2.067   6.465 -0.3415 -1.6774  2.1557
  565MOL0     H76237  -2.085   1.930   6.354 -0.0351  0.5264 -0.0584
  565MOL0     H76238  -1.920   1.965   6.404 -0.5734 -0.5200 -0.3733
  565MOL0     H76239  -2.481   1.981   6.320 -1.7102 -1.2752 -0.1190
  565MOL0     H76240  -2.711   1.909   6.308 -0.0106 -2.1073 -2.1032
  565MOL0     H76241  -3.007   2.154   6.082  0.1926  0.9373  1.9440
  565MOL0     H76242  -3.010   2.004   5.973  2.3274  0.5312 -0.2263
  565MOL0     H76243  -3.156   2.039   6.229 -0.3778 -4.5039  2.7651
  565MOL0     H76244  -3.215   1.974   6.074 -1.0329 -4.0313  0.1859
  565MOL0     H76245  -3.059   1.821   6.283 -1.8522 -0.6790  1.1188
  565MOL0     H76246  -3.072   1.777   6.117  2.4496  1.4597  0.1694
  565MOL0     H76247  -3.324   1.804   6.138  0.0012  0.3682  0.3897
  565MOL0     H76248  -3.253   1.682   6.256 -1.4585 -0.1986  1.2232
  565MOL0     H76249  -3.323   1.955   6.346  0.9958  0.1920  1.4026
  565MOL0     H76250  -3.277   1.813   6.435 -1.0345 -0.1131  0.3443
  565MOL0     H76251  -3.511   1.800   6.237  2.3259  1.0930 -1.1538
  565MOL0     H76252  -3.441   1.677   6.355 -1.0388 -0.0082 -0.5834
  565MOL0     H76253  -3.619   1.912   6.402 -1.9005 -0.7985  0.4596
  565MOL0     H76254  -3.492   1.888   6.527  1.5151 -0.5061 -0.6625
  565MOL0     H76255  -3.738   1.724   6.462 -2.2428  2.4709  1.3263
  565MOL0     H76256  -3.688   1.786   6.622 -2.6684  0.9995 -0.8307
  565MOL0     H76257  -2.773   2.127   5.947 -0.1336 -0.1773 -0.5121
  565MOL0     H76258  -2.542   2.199   5.955 -0.9836 -0.1653  0.1518
  565MOL0     H76259  -2.183   2.264   6.013  0.5129 -1.3191 -0.8256
  565MOL0     H76260  -1.949   2.292   5.925 -0.8558  2.7128  0.8085
  565MOL0     H76261  -0.228   2.932   6.730 -0.6299 -1.8728  0.5983
  565MOL0     H76262  -0.050   2.994   6.886  1.2845 -0.3897  0.7562
  565MOL0     H76263   0.242   2.783   7.226 -0.7450  0.0913 -1.2131
  565MOL0     H76264   0.448   2.784   7.364  0.5537 -1.9548 -1.5265
  565MOL0     H76265   0.797   3.045   7.222 -2.1697  1.1553 -1.1851
  565MOL0     H76266   0.680   3.099   7.353  1.8253  1.1974  0.3899
  565MOL0     H76267   0.778   2.941   7.518  0.3185  2.2541  3.0545
  565MOL0     H76268   0.874   3.090   7.492 -3.1502  1.5560 -0.8373
  565MOL0     H76269   1.024   2.996   7.331  0.0709  2.6546  2.6468
  565MOL0     H76270   0.945   2.844   7.318  1.9910  0.1075 -0.3994
  565MOL0     H76271   1.108   2.775   7.473 -1.5532 -1.9892 -0.7941
  565MOL0     H76272   0.971   2.832   7.580  0.6542  1.4368  0.3576
  565MOL0     H76273   1.274   3.101   7.681  0.5613 -0.9286  1.9891
  565MOL0     H76274   0.664   3.002   7.063  2.8871 -5.5541  0.0105
  565MOL0     H76275   0.450   2.996   6.911 -0.6886  0.6700  0.0173
  566MOL0     O76276   8.976   1.319   1.220 -0.6355 -0.0023 -0.2528
  566MOL0     C76277   9.002   1.393   1.127  0.6937  1.6641  0.5035
  566MOL0     O76278   8.912   1.433   1.027 -0.6876 -0.1654 -0.1840
  566MOL0     C76279   8.780   1.394   1.056  0.0796  0.7736 -0.0829
  566MOL0     C76280   8.741   1.259   1.013  0.1956  0.3968 -0.0230
  566MOL0     C76281   8.610   1.228   0.999 -0.1602 -0.0808  0.8160
  566MOL0     C76282   8.508   1.309   1.055  0.1983 -0.6829  0.0633
  566MOL0     O76283   8.381   1.246   1.064  0.1138 -0.1735 -0.1727
  566MOL0     C76284   8.280   1.316   1.145 -0.4020 -1.0873 -0.0121
  566MOL0     C76285   8.163   1.221   1.174 -0.1033 -0.3973 -0.2755
  566MOL0     C76286   8.043   1.316   1.216 -0.3302  0.3918  0.0225
  566MOL0     C76287   7.931   1.236   1.273 -1.2582  0.2666  0.3989
  566MOL0     C76288   7.838   1.329   1.345 -0.6223 -0.4906 -0.4748
  566MOL0     C76289   7.739   1.403   1.240  0.0367 -0.2525  0.3322
  566MOL0     C76290   7.677   1.315   1.127  0.3853  1.0093 -0.0846
  566MOL0     C76291   7.583   1.394   1.039 -0.5826  0.3491 -0.2021
  566MOL0     N76292   7.496   1.304   0.967  0.0715  0.2345 -0.0194
  566MOL0     C76293   7.518   1.239   0.851  0.2161  0.1925 -0.6613
  566MOL0     C76294   7.398   1.176   0.821  0.2285 -0.6093  0.3682
  566MOL0     C76295   7.364   1.092   0.695 -0.4168 -0.0969 -0.4526
  566MOL0     C76296   7.219   1.126   0.646  0.2148 -0.4356  0.4377
  566MOL0     C76297   7.169   1.011   0.554  0.1294  0.2060  0.0510
  566MOL0     C76298   7.016   1.005   0.548  1.1135  0.6172  0.5825
  566MOL0     O76299   6.970   1.132   0.489  0.4464 -0.4607  0.4371
  566MOL0     C76300   6.854   1.132   0.402 -1.1244 -0.2944 -0.1438
  566MOL0     C76301   6.816   1.252   0.345 -0.7261 -0.5247  0.0457
  566MOL0     C76302   6.693   1.280   0.283  0.2317 -0.9024  0.9838
  566MOL0     C76303   6.678   1.421   0.231 -0.1132 -0.0090  0.9709
  566MOL0     C76304   6.601   1.173   0.274  0.1305  0.2098 -0.3480
  566MOL0     C76305   6.463   1.174   0.209  0.1898 -0.4872 -0.0207
  566MOL0     O76306   6.390   1.293   0.186  0.6949 -0.2260  0.1130
  566MOL0     C76307   6.263   1.289   0.130  0.2511 -0.7404  0.6162
  566MOL0     C76308   6.151   1.250   0.205 -0.8101  1.1989 -0.2297
  566MOL0     C76309   6.021   1.256   0.147  0.4485 -0.1146 -0.2940
  566MOL0     C76310   5.998   1.313   0.022 -0.6460  0.1763 -0.3754
  566MOL0     O76311   5.867   1.340  -0.013 -0.4074  0.1337  0.3401
  566MOL0     C76312   5.831   1.339  -0.154  0.0809 -0.6158 -0.0065
  566MOL0     C76313   5.690   1.379  -0.186 -0.1510  0.3207  0.4614
  566MOL0     C76314   5.666   1.398  -0.339 -0.1959  0.5248 -0.6997
  566MOL0     C76315   5.520   1.448  -0.364 -0.7515 -0.5986 -0.6115
  566MOL0     C76316   5.414   1.344  -0.355 -0.2146  0.4057 -0.5657
  566MOL0     C76317   5.273   1.394  -0.327  0.1356  0.2663  0.2910
  566MOL0     C76318   5.201   1.431  -0.460 -0.7746  0.4504  0.4511
  566MOL0     C76319   5.054   1.470  -0.427  0.1762  0.7540 -0.2255
  566MOL0    Cl76320   4.984   1.565  -0.559  0.0186  0.5630  0.0192
  566MOL0     C76321   6.115   1.351  -0.050  0.3014  0.3172  1.2465
  566MOL0     C76322   6.240   1.338   0.004 -0.8663  0.1493 -0.5819
  566MOL0     O76323   6.426   1.063   0.181  0.0958  0.3796 -0.4722
  566MOL0     C76324   6.645   1.047   0.319 -0.0536  0.1678 -0.7027
  566MOL0     C76325   6.772   1.025   0.376  0.5466 -0.5171  0.1477
  566MOL0     N76326   7.315   1.196   0.927 -0.7208 -0.2294  0.0859
  566MOL0     N76327   7.366   1.277   1.011  0.3483  0.1364 -0.0810
  566MOL0     C76328   8.544   1.438   1.101  0.0511 -0.6754 -0.0579
  566MOL0     C76329   8.683   1.478   1.095  0.3674  0.1086 -0.1419
  566MOL0     C76330   9.136   1.443   1.114 -0.0755  0.7333 -0.3113
  566MOL0     C76331   9.192   1.451   0.988  0.3778  0.4886  0.6244
  566MOL0     C76332   9.328   1.468   0.974  0.6536  0.1505 -0.6539
  566MOL0     C76333   9.404   1.514   1.079  0.8717  0.2860  0.0004
  566MOL0     O76334   9.531   1.553   1.045 -0.2869 -0.9929 -0.1213
  566MOL0     C76335   9.637   1.566   1.146  0.4483 -0.7414 -0.0146
  566MOL0     C76336   9.766   1.572   1.070 -0.1429  0.8274  0.9724
  566MOL0     C76337   9.879   1.593   1.179  1.0124  0.0254  0.3066
  566MOL0     C76338  10.010   1.525   1.141  0.3020  1.1250  0.5264
  566MOL0     C76339  10.074   1.594   1.034  1.1301 -0.2540 -0.0316
  566MOL0     C76340  10.100   1.670   0.941 -0.4032  0.6134 -0.1657
  566MOL0     C76341   9.349   1.506   1.211  0.3833  0.0882  0.4985
  566MOL0     C76342   9.218   1.468   1.223 -0.2760  0.7166 -0.3437
  566MOL0     H76343   8.815   1.187   0.978 -1.3261 -1.6643  0.7318
  566MOL0     H76344   8.578   1.127   0.976  0.6043 -0.4303  1.2217
  566MOL0     H76345   8.326   1.345   1.240 -1.5753  0.2017  0.1915
  566MOL0     H76346   8.236   1.403   1.095 -2.4503 -1.7880  0.4518
  566MOL0     H76347   8.137   1.164   1.084  0.8396  0.3773 -1.0575
  566MOL0     H76348   8.191   1.157   1.258  0.0037  0.1441  0.0981
  566MOL0     H76349   8.078   1.390   1.289 -1.8959  1.9361 -0.7239
  566MOL0     H76350   8.005   1.361   1.124 -2.3826  2.1971  1.6587
  566MOL0     H76351   7.881   1.177   1.196 -2.2539 -0.8363  1.8165
  566MOL0     H76352   7.973   1.153   1.332 -4.1615 -3.1663 -1.9127
  566MOL0     H76353   7.791   1.273   1.427  2.0338 -0.3872  1.2624
  566MOL0     H76354   7.894   1.406   1.400  1.2154 -0.8576 -1.7388
  566MOL0     H76355   7.659   1.458   1.292 -0.3457  0.0916 -0.5930
  566MOL0     H76356   7.799   1.480   1.191  0.0783 -1.2481 -1.2332
  566MOL0     H76357   7.758   1.268   1.071 -0.4293 -2.0295  1.0999
  566MOL0     H76358   7.623   1.234   1.176  0.0914  0.5116 -1.1953
  566MOL0     H76359   7.649   1.429   0.960  0.1054 -2.0531 -0.7811
  566MOL0     H76360   7.533   1.471   1.100  0.2263  0.5866  0.1695
  566MOL0     H76361   7.607   1.246   0.789  0.3998 -0.6813 -0.5037
  566MOL0     H76362   7.433   1.115   0.613  0.4331 -1.5303 -0.1787
  566MOL0     H76363   7.389   0.987   0.708  0.4619  0.0659 -0.7169
  566MOL0     H76364   7.228   1.223   0.596 -2.2608  0.3125  1.3163
  566MOL0     H76365   7.144   1.146   0.723  1.1910 -1.3056  1.6392
  566MOL0     H76366   7.209   0.915   0.589  3.0978  1.5678  0.7203
  566MOL0     H76367   7.211   1.015   0.453 -1.5954 -3.0751 -0.9651
  566MOL0     H76368   6.963   0.996   0.643 -0.9700  3.0764 -0.2207
  566MOL0     H76369   6.977   0.923   0.486 -1.5288  2.0250  0.2246
  566MOL0     H76370   6.876   1.341   0.363  0.2053 -1.5962  2.6941
  566MOL0     H76371   6.590   1.449   0.173 -0.4939 -3.2764 -0.2038
  566MOL0     H76372   6.685   1.499   0.308  0.3171  0.8756  0.0581
  566MOL0     H76373   6.766   1.426   0.167  0.5515  2.7280  1.9606
  566MOL0     H76374   6.162   1.226   0.310 -2.2532 -3.0116 -0.8458
  566MOL0     H76375   5.928   1.237   0.200 -0.8154 -0.0974 -2.3866
  566MOL0     H76376   5.902   1.391  -0.219 -0.2248 -1.1722 -0.7964
  566MOL0     H76377   5.837   1.231  -0.170 -1.3803 -0.7609  0.3409
  566MOL0     H76378   5.617   1.302  -0.164  0.3821  0.1949  1.9203
  566MOL0     H76379   5.665   1.467  -0.125  0.4888  1.6927 -1.1480
  566MOL0     H76380   5.680   1.295  -0.373  3.4473  0.3834  0.8400
  566MOL0     H76381   5.738   1.463  -0.390  0.7673  0.9162  1.0930
  566MOL0     H76382   5.505   1.535  -0.300 -0.5608  0.7790 -2.3599
  566MOL0     H76383   5.513   1.481  -0.468 -1.0545  1.3038 -0.0160
  566MOL0     H76384   5.435   1.282  -0.268  0.1263 -1.5470 -1.9617
  566MOL0     H76385   5.418   1.274  -0.439 -0.9207  0.0602 -0.3140
  566MOL0     H76386   5.219   1.306  -0.290 -0.0049 -0.2128 -1.0108
  566MOL0     H76387   5.275   1.479  -0.259 -1.1336  0.0321  0.6556
  566MOL0     H76388   5.199   1.347  -0.530  1.0500 -0.1829  1.0781
  566MOL0     H76389   5.253   1.513  -0.512  1.3832 -1.0397  0.1013
  566MOL0     H76390   5.058   1.531  -0.336 -2.1331 -1.9723  1.8990
  566MOL0     H76391   4.991   1.383  -0.406  0.9959  0.3725  0.7331
  566MOL0     H76392   6.106   1.381  -0.154 -0.1154  1.2241  1.5346
  566MOL0     H76393   6.333   1.370  -0.043 -0.4939 -0.7301 -0.4547
  566MOL0     H76394   6.585   0.957   0.320  1.2454 -0.7764  2.3532
  566MOL0     H76395   6.793   0.926   0.415  1.1513 -0.2215  0.5792
  566MOL0     H76396   8.467   1.509   1.129 -0.4816 -0.1778 -2.5039
  566MOL0     H76397   8.710   1.580   1.120  0.1489  0.2009 -0.2853
  566MOL0     H76398   9.128   1.439   0.901 -0.1446 -0.6277  1.1339
  566MOL0     H76399   9.370   1.464   0.874  0.9572  0.2036 -0.5277
  566MOL0     H76400   9.625   1.652   1.213 -0.8040  0.2714 -1.4560
  566MOL0     H76401   9.655   1.474   1.202  2.0913 -2.2116 -2.6956
  566MOL0     H76402   9.756   1.649   0.993  0.2696  0.7639  0.8518
  566MOL0     H76403   9.769   1.474   1.021 -0.7296  2.1290 -1.8744
  566MOL0     H76404   9.843   1.559   1.276 -2.9816  0.3341 -0.8585
  566MOL0     H76405   9.900   1.700   1.189 -0.9746  0.3739  1.0846
  566MOL0     H76406   9.995   1.422   1.108  1.8067  0.7816  0.8483
  566MOL0     H76407  10.073   1.533   1.231  0.1918 -0.4536  0.7732
  566MOL0     H76408  10.116   1.722   0.848 -1.1522 -0.9481 -1.2067
  566MOL0     H76409   9.402   1.538   1.300  2.4908  1.1883 -1.0782
  566MOL0     H76410   9.171   1.461   1.321  2.2266 -3.1330  0.8084
  567MOL0     O76411   9.772   4.881   0.197 -0.0278  0.5004  0.1395
  567MOL0     C76412   9.842   4.884   0.096  0.4981  0.3155  1.3713
  567MOL0     O76413   9.795   4.894  -0.035  0.0434 -0.5982 -0.2447
  567MOL0     C76414   9.660   4.890  -0.055 -0.0840  0.5739  0.0088
  567MOL0     C76415   9.601   4.769  -0.097  0.7863 -0.0420  0.3915
  567MOL0     C76416   9.463   4.757  -0.122 -0.3782 -0.3898 -0.4786
  567MOL0     C76417   9.376   4.875  -0.107  0.1500 -0.1791 -0.2827
  567MOL0     O76418   9.238   4.860  -0.132 -0.0570  0.0584  0.1972
  567MOL0     C76419   9.167   4.979  -0.172  0.0844 -0.1114  0.8340
  567MOL0     C76420   9.017   4.959  -0.176 -0.7725 -0.9389 -0.3347
  567MOL0     C76421   8.934   5.091  -0.191 -0.3616  0.4930  0.1093
  567MOL0     C76422   8.793   5.083  -0.146 -0.0253  0.0997 -0.2466
  567MOL0     C76423   8.704   4.995  -0.234 -0.2150  0.0468 -0.2428
  567MOL0     C76424   8.551   4.991  -0.207  0.7036  0.2936 -0.0549
  567MOL0     C76425   8.472   4.917  -0.318  0.2160  0.6946 -0.6441
  567MOL0     C76426   8.463   4.764  -0.320  0.4537  0.7049 -0.7273
  567MOL0     N76427   8.331   4.702  -0.309  0.2017 -0.4847  0.8525
  567MOL0     C76428   8.228   4.751  -0.236 -0.5122  0.4302 -0.4422
  567MOL0     C76429   8.134   4.657  -0.255  0.7806 -0.2109 -0.7687
  567MOL0     C76430   7.995   4.655  -0.186  0.3593  0.1541  0.5330
  567MOL0     C76431   7.884   4.752  -0.240  0.8880  0.0555  0.2139
  567MOL0     C76432   7.865   4.732  -0.390 -1.1102 -0.3017 -0.2276
  567MOL0     C76433   7.732   4.785  -0.435  0.4983 -0.8137  0.3409
  567MOL0     O76434   7.629   4.694  -0.402  0.3988 -0.3114  0.5700
  567MOL0     C76435   7.493   4.714  -0.391  0.2472  0.5450  0.5018
  567MOL0     C76436   7.403   4.612  -0.364 -0.4482 -0.0305  0.3724
  567MOL0     C76437   7.262   4.639  -0.341  0.6237  0.1626  0.1705
  567MOL0     C76438   7.177   4.518  -0.295 -0.1178 -0.4429  0.7992
  567MOL0     C76439   7.207   4.770  -0.359 -0.6895 -0.7071 -0.0029
  567MOL0     C76440   7.066   4.804  -0.344  0.0078 -1.2980  0.6401
  567MOL0     O76441   6.981   4.725  -0.275 -0.0803  0.1168 -0.2472
  567MOL0     C76442   6.852   4.765  -0.257  0.2292 -0.0078  0.8104
  567MOL0     C76443   6.747   4.693  -0.325 -0.0843  1.3058 -0.9012
  567MOL0     C76444   6.611   4.726  -0.307  0.2592  0.2059  0.0320
  567MOL0     C76445   6.567   4.840  -0.236 -0.0671 -0.0576  0.0805
  567MOL0     O76446   6.426   4.864  -0.230 -0.1167  0.2610  0.3160
  567MOL0     C76447   6.388   4.990  -0.176  0.0732  0.4976 -0.3604
  567MOL0     C76448   6.234   4.980  -0.146  0.0481 -0.8125 -0.5888
  567MOL0     C76449   6.165   5.094  -0.063  0.0928 -0.3611  0.0379
  567MOL0     C76450   6.027   5.045  -0.030  0.1681 -0.4860 -0.3769
  567MOL0     C76451   5.919   5.160  -0.041 -0.3032  0.0976 -0.0073
  567MOL0     C76452   5.785   5.090  -0.050  0.7889  0.1587 -0.2132
  567MOL0     C76453   5.668   5.194  -0.060  0.0070  0.7525  0.6958
  567MOL0     C76454   5.535   5.133  -0.105  0.0447 -0.2623  0.2873
  567MOL0    Cl76455   5.454   5.027   0.016  0.3348  0.0657  0.3573
  567MOL0     C76456   6.668   4.916  -0.184 -1.2265 -0.7266 -0.4474
  567MOL0     C76457   6.807   4.888  -0.207  0.5524  0.2442  0.0880
  567MOL0     O76458   7.029   4.906  -0.402 -0.5303 -0.7020  0.5865
  567MOL0     C76459   7.305   4.872  -0.394 -0.3214 -0.9270  1.2129
  567MOL0     C76460   7.439   4.843  -0.414  0.0694  0.2489  0.1065
  567MOL0     N76461   8.173   4.561  -0.351  0.4858 -0.4669 -0.4526
  567MOL0     N76462   8.294   4.590  -0.373 -0.8651 -0.0362  0.6655
  567MOL0     C76463   9.438   4.995  -0.062 -0.1656  0.0133 -0.1040
  567MOL0     C76464   9.582   5.001  -0.032  0.3391 -0.4159 -0.7020
  567MOL0     C76465   9.984   4.923   0.114  0.3716 -0.2060  0.1330
  567MOL0     C76466  10.092   4.902   0.028  0.4546  0.2559  0.2578
  567MOL0     C76467  10.224   4.942   0.059 -0.7329 -0.3817 -0.9077
  567MOL0     C76468  10.246   5.000   0.182 -0.6423  0.0215 -0.3187
  567MOL0     O76469  10.373   5.029   0.233 -0.3852  0.1468 -0.2582
  567MOL0     C76470  10.488   4.967   0.173 -0.5945 -0.7653 -0.4736
  567MOL0     C76471  10.608   4.971   0.261  1.2520  0.1991  0.3504
  567MOL0     C76472  10.670   5.106   0.255 -0.2459  0.6459  0.0785
  567MOL0     C76473  10.777   5.118   0.364 -0.0474  0.1130  0.1810
  567MOL0     C76474  10.886   5.017   0.354  0.2515 -0.0192 -0.3097
  567MOL0     C76475  10.976   4.939   0.340 -0.5499 -0.2357 -0.7527
  567MOL0     C76476  10.141   5.037   0.265 -0.1696  0.4426  0.0657
  567MOL0     C76477  10.012   5.001   0.228 -0.1478 -0.0162 -1.0473
  567MOL0     H76478   9.651   4.673  -0.110 -0.6125 -0.6518 -0.9081
  567MOL0     H76479   9.424   4.662  -0.157  0.3716 -0.4666 -1.1227
  567MOL0     H76480   9.187   5.064  -0.107 -1.1150  1.2656 -0.5142
  567MOL0     H76481   9.203   5.000  -0.274  0.4389 -1.9397  0.5532
  567MOL0     H76482   8.993   4.890  -0.257  1.0105  0.3949 -2.0728
  567MOL0     H76483   8.986   4.913  -0.081  3.4581 -0.7766  1.3539
  567MOL0     H76484   8.981   5.159  -0.119  1.1562 -1.2198  0.8030
  567MOL0     H76485   8.939   5.120  -0.296  3.9276 -0.7183 -0.1904
  567MOL0     H76486   8.785   5.056  -0.040  2.4492  1.7823  0.4581
  567MOL0     H76487   8.747   5.182  -0.152  0.2662  0.3080  0.7005
  567MOL0     H76488   8.726   5.024  -0.338  1.2185 -2.4079 -0.7013
  567MOL0     H76489   8.745   4.895  -0.222  0.7042  0.3913 -0.4468
  567MOL0     H76490   8.536   4.947  -0.108  1.5814  0.8902  0.3632
  567MOL0     H76491   8.515   5.093  -0.194  0.5561  0.6125 -2.5341
  567MOL0     H76492   8.369   4.952  -0.310  0.3359  1.2071 -1.2920
  567MOL0     H76493   8.512   4.951  -0.414  1.6604 -1.2626 -0.8094
  567MOL0     H76494   8.522   4.721  -0.239 -1.2955  0.3087  0.3838
  567MOL0     H76495   8.511   4.727  -0.412 -1.0964 -1.9396 -0.5689
  567MOL0     H76496   8.223   4.840  -0.175 -0.0164  0.6818 -0.7607
  567MOL0     H76497   7.953   4.554  -0.179 -2.4677  1.2205 -0.1323
  567MOL0     H76498   8.009   4.693  -0.084  0.6832 -1.0315  0.9517
  567MOL0     H76499   7.909   4.857  -0.225  0.5651  0.8201 -3.5547
  567MOL0     H76500   7.786   4.739  -0.193 -0.5243 -0.3455 -2.6233
  567MOL0     H76501   7.872   4.626  -0.415 -0.7677 -0.1673 -0.7002
  567MOL0     H76502   7.948   4.780  -0.442 -0.1637 -0.2221  1.3101
  567MOL0     H76503   7.741   4.794  -0.544  3.3761 -0.0250  0.5634
  567MOL0     H76504   7.717   4.890  -0.407  3.5215 -0.0467 -0.6048
  567MOL0     H76505   7.447   4.513  -0.375  1.7879  0.9737 -0.1414
  567MOL0     H76506   7.117   4.543  -0.208  0.6319  0.4816  1.0611
  567MOL0     H76507   7.110   4.491  -0.378  0.8362 -1.5113  0.3470
  567MOL0     H76508   7.241   4.430  -0.277 -0.8856 -1.4215 -0.9747
  567MOL0     H76509   6.770   4.602  -0.378  2.0951 -0.1841  2.3098
  567MOL0     H76510   6.542   4.674  -0.373  0.6749  0.9682 -1.0461
  567MOL0     H76511   6.436   5.015  -0.081  1.1322 -0.8735 -0.5004
  567MOL0     H76512   6.413   5.073  -0.244  0.0560  1.0537  0.2963
  567MOL0     H76513   6.179   4.966  -0.239  2.8433 -3.2762 -2.0432
  567MOL0     H76514   6.218   4.889  -0.087 -1.0785 -1.8857 -2.4452
  567MOL0     H76515   6.163   5.187  -0.121  2.6338 -0.6732 -0.6672
  567MOL0     H76516   6.230   5.124   0.020  1.8641 -2.3940 -0.5310
  567MOL0     H76517   5.987   4.969  -0.099 -0.3149 -0.2328 -0.3803
  567MOL0     H76518   6.030   4.993   0.066 -0.4663 -0.0787 -0.1282
  567MOL0     H76519   5.936   5.215  -0.134 -1.7127 -0.2872 -0.5149
  567MOL0     H76520   5.929   5.220   0.050 -2.4550 -0.5150  0.6794
  567MOL0     H76521   5.777   5.031  -0.142  0.7711 -0.0327 -0.0890
  567MOL0     H76522   5.774   5.010   0.023 -0.7475 -1.3694 -1.9910
  567MOL0     H76523   5.708   5.265  -0.133  2.8609 -1.3165  0.0562
  567MOL0     H76524   5.660   5.242   0.038  2.7910  0.0628  1.3575
  567MOL0     H76525   5.546   5.080  -0.200  0.7868 -0.9493  0.7499
  567MOL0     H76526   5.465   5.217  -0.114  0.0346 -0.2613  0.3725
  567MOL0     H76527   6.642   5.007  -0.131 -0.7637  0.2739 -1.8904
  567MOL0     H76528   6.883   4.965  -0.198  1.7555 -1.0251  1.1369
  567MOL0     H76529   7.277   4.975  -0.414 -0.4598 -0.8707  1.6983
  567MOL0     H76530   7.499   4.920  -0.461 -0.7122 -0.3589 -1.9942
  567MOL0     H76531   9.387   5.086  -0.032  0.7798 -0.2167  2.5474
  567MOL0     H76532   9.628   5.088   0.012 -0.4608 -0.2361 -0.2219
  567MOL0     H76533  10.068   4.841  -0.058 -1.0207 -0.1177  0.8970
  567MOL0     H76534  10.300   4.904  -0.009 -1.0366 -1.6896 -0.5360
  567MOL0     H76535  10.462   4.862   0.156 -1.5643 -0.6639  0.3037
  567MOL0     H76536  10.512   5.020   0.080 -2.9927  2.6685  0.6581
  567MOL0     H76537  10.687   4.903   0.228  1.0226  0.5814 -1.0816
  567MOL0     H76538  10.592   4.947   0.366 -1.0785  0.9755  0.2421
  567MOL0     H76539  10.605   5.193   0.274  0.4671  0.9588  1.2337
  567MOL0     H76540  10.717   5.133   0.160  0.9961 -0.6963  0.2764
  567MOL0     H76541  10.730   5.120   0.463 -2.3941  3.3586 -0.8362
  567MOL0     H76542  10.824   5.212   0.334 -1.3719  0.4121 -1.0618
  567MOL0     H76543  11.045   4.862   0.314 -0.7409 -0.8337  0.4587
  567MOL0     H76544  10.157   5.082   0.362 -0.0854 -0.8242  0.6566
  567MOL0     H76545   9.939   5.029   0.303  3.5428  2.5546  1.9783
  568MOL0     O76546   3.868   8.548   3.955 -0.1270 -0.2709 -0.6388
  568MOL0     C76547   3.921   8.448   4.016 -0.6766 -0.8265  0.2817
  568MOL0     O76548   3.852   8.338   4.065  0.0960 -0.9755  0.3506
  568MOL0     C76549   3.710   8.339   4.065 -0.8356 -0.1762  0.3941
  568MOL0     C76550   3.621   8.446   4.077  0.6308  0.2571 -0.7107
  568MOL0     C76551   3.484   8.441   4.081 -0.0532  0.5080 -1.0681
  568MOL0     C76552   3.426   8.314   4.096  0.1667  0.4060  0.2964
  568MOL0     O76553   3.294   8.292   4.131  0.1251 -0.2248 -0.6195
  568MOL0     C76554   3.224   8.405   4.189  0.6976  0.1669  0.3691
  568MOL0     C76555   3.102   8.337   4.267  0.5950 -0.3212  0.4452
  568MOL0     C76556   3.015   8.447   4.327 -0.0983  0.0611 -0.4476
  568MOL0     C76557   3.030   8.459   4.481  0.6615 -0.3173  0.3960
  568MOL0     C76558   2.918   8.549   4.540  0.1799  0.8223 -0.0022
  568MOL0     C76559   2.795   8.471   4.588 -0.7603 -0.3228  0.4757
  568MOL0     C76560   2.703   8.557   4.681 -0.1323  1.0363  0.3980
  568MOL0     C76561   2.577   8.474   4.729 -0.0107  1.0682  0.0690
  568MOL0     N76562   2.464   8.553   4.769  0.0673 -1.1388 -0.0051
  568MOL0     C76563   2.378   8.606   4.678  0.1445 -0.2346  0.6115
  568MOL0     C76564   2.274   8.642   4.750 -0.8109  0.0423 -0.1324
  568MOL0     C76565   2.138   8.695   4.699 -1.8197 -0.1737 -0.5213
  568MOL0     C76566   2.048   8.572   4.676 -0.1929 -0.5074  0.4215
  568MOL0     C76567   1.931   8.627   4.586 -0.0798  0.6366 -0.4362
  568MOL0     C76568   1.844   8.724   4.664 -0.3770  0.3425 -0.0032
  568MOL0     O76569   1.719   8.743   4.588 -0.4091  0.2874  0.2312
  568MOL0     C76570   1.590   8.770   4.643 -1.3796  0.6306  0.2210
  568MOL0     C76571   1.490   8.789   4.550 -0.2510 -0.0408 -0.2568
  568MOL0     C76572   1.356   8.815   4.592 -0.7789 -0.5749 -0.3137
  568MOL0     C76573   1.259   8.834   4.477 -0.4059  0.4979 -0.2590
  568MOL0     C76574   1.325   8.816   4.734 -0.8218  0.0492  0.5647
  568MOL0     C76575   1.191   8.834   4.799  0.3970 -0.1069 -0.4500
  568MOL0     O76576   1.172   8.790   4.931 -0.1676  0.6139  0.4806
  568MOL0     C76577   1.048   8.824   4.996  0.0453 -0.1796  0.5417
  568MOL0     C76578   1.034   8.924   5.091  0.3475  0.0439  0.4038
  568MOL0     C76579   0.905   8.956   5.155  0.8808  0.5162  0.1136
  568MOL0     C76580   0.789   8.892   5.118 -0.7307 -0.5239  0.1601
  568MOL0     O76581   0.667   8.926   5.173  0.0497  0.0224 -0.2807
  568MOL0     C76582   0.586   8.812   5.206  0.5755  0.2150  0.6844
  568MOL0     C76583   0.511   8.849   5.334  0.2800 -0.0826 -0.2263
  568MOL0     C76584   0.597   8.845   5.460 -0.2184  0.8484  0.0589
  568MOL0     C76585   0.522   8.863   5.586 -0.7367 -0.3257 -0.2310
  568MOL0     C76586   0.473   8.725   5.633 -0.2298  0.1516  0.0730
  568MOL0     C76587   0.412   8.736   5.771 -0.3663 -0.1046 -0.4492
  568MOL0     C76588   0.366   8.603   5.834 -0.0199 -0.2740  0.4289
  568MOL0     C76589   0.297   8.625   5.966  0.4008 -0.6765  0.0468
  568MOL0    Cl76590   0.333   8.505   6.095  0.2085 -0.0708 -0.3158
  568MOL0     C76591   0.803   8.786   5.021 -0.1816  0.0847 -0.6636
  568MOL0     C76592   0.935   8.745   4.972  0.7117  0.4081  0.0149
  568MOL0     O76593   1.102   8.887   4.738  0.1274  0.3072  0.0188
  568MOL0     C76594   1.441   8.792   4.824  1.1134  0.1081 -0.7217
  568MOL0     C76595   1.568   8.778   4.784 -0.1635 -1.0240  0.7039
  568MOL0     N76596   2.296   8.612   4.882  0.4312  0.1779 -0.3972
  568MOL0     N76597   2.405   8.550   4.892  0.1462 -1.2310  0.1397
  568MOL0     C76598   3.513   8.202   4.083  0.6025  0.5707  0.0783
  568MOL0     C76599   3.650   8.215   4.065  0.1221  0.3879  1.0479
  568MOL0     C76600   4.071   8.449   4.038 -0.2182 -0.0528 -0.3444
  568MOL0     C76601   4.142   8.567   4.017 -0.5565  0.4822  0.5755
  568MOL0     C76602   4.277   8.566   4.048 -0.0061 -0.1130 -0.4080
  568MOL0     C76603   4.335   8.458   4.119  0.3016  0.7266 -0.6373
  568MOL0     O76604   4.468   8.471   4.162 -0.3508 -0.1862  0.0516
  568MOL0     C76605   4.560   8.365   4.124 -0.0698  0.3037  0.1725
  568MOL0     C76606   4.703   8.415   4.140  0.0734  0.2018 -0.0394
  568MOL0     C76607   4.744   8.435   4.291 -0.0651 -0.1266 -0.0699
  568MOL0     C76608   4.895   8.479   4.309  0.3703  0.2586  1.0645
  568MOL0     C76609   4.923   8.605   4.239  0.5781  0.3035  0.1941
  568MOL0     C76610   4.949   8.718   4.203  0.1801 -0.2452 -0.0663
  568MOL0     C76611   4.262   8.344   4.150  0.0069  0.0744  0.5240
  568MOL0     C76612   4.132   8.337   4.105  0.4063 -1.1310 -0.7456
  568MOL0     H76613   3.656   8.548   4.092  1.4106  0.5943 -4.1121
  568MOL0     H76614   3.435   8.538   4.083  1.1594  1.2002  2.2264
  568MOL0     H76615   3.285   8.461   4.260 -0.2432  0.2180  1.1594
  568MOL0     H76616   3.199   8.473   4.108  0.3795  0.3784  0.6396
  568MOL0     H76617   3.045   8.269   4.203  1.1225 -1.3994  1.0899
  568MOL0     H76618   3.147   8.275   4.344  0.5703 -1.6905 -0.6114
  568MOL0     H76619   3.048   8.543   4.286 -0.3493  0.6535  0.7019
  568MOL0     H76620   2.908   8.446   4.305 -0.6385  2.4891  1.6352
  568MOL0     H76621   3.014   8.363   4.530 -0.5016  0.6606  2.0119
  568MOL0     H76622   3.133   8.496   4.491  0.6852  0.2420 -1.4253
  568MOL0     H76623   2.945   8.606   4.629 -3.4317 -0.1641  1.9519
  568MOL0     H76624   2.888   8.620   4.462 -1.5970  0.8634  0.6689
  568MOL0     H76625   2.745   8.460   4.492  0.9572  2.9280 -0.9548
  568MOL0     H76626   2.818   8.383   4.648  1.1846  0.3367  0.7561
  568MOL0     H76627   2.764   8.595   4.763 -0.1918  1.5334  0.2165
  568MOL0     H76628   2.655   8.638   4.625 -1.7538  1.3564  2.1297
  568MOL0     H76629   2.606   8.413   4.815 -1.9644 -0.3037 -0.1917
  568MOL0     H76630   2.542   8.411   4.646  0.0978  1.9257 -0.6490
  568MOL0     H76631   2.379   8.596   4.570  2.8162 -5.5341  0.7917
  568MOL0     H76632   2.103   8.753   4.784  0.1450  0.0578  0.1778
  568MOL0     H76633   2.155   8.748   4.605  0.4388 -1.8316 -1.1295
  568MOL0     H76634   2.001   8.546   4.771 -0.8193  1.2225  0.6172
  568MOL0     H76635   2.106   8.492   4.628  1.1186  0.5967  0.0961
  568MOL0     H76636   1.864   8.543   4.563 -0.0920 -0.0410  1.8035
  568MOL0     H76637   1.972   8.661   4.490  1.4825 -1.4439 -0.5855
  568MOL0     H76638   1.889   8.820   4.692 -1.1196  0.6252  0.2450
  568MOL0     H76639   1.815   8.676   4.758 -2.9084 -1.2175 -1.4743
  568MOL0     H76640   1.522   8.800   4.447  0.7924 -1.4131 -0.1145
  568MOL0     H76641   1.241   8.940   4.457 -0.0663  0.7762  0.8495
  568MOL0     H76642   1.296   8.779   4.390  3.0713  0.5590  1.0413
  568MOL0     H76643   1.164   8.792   4.511  1.0998 -3.0806 -0.0030
  568MOL0     H76644   1.132   8.960   5.119  0.4569  2.2688 -2.4978
  568MOL0     H76645   0.902   9.031   5.234 -1.3437  1.0271 -0.3747
  568MOL0     H76646   0.515   8.787   5.127  0.2080 -0.2002  1.1329
  568MOL0     H76647   0.643   8.719   5.221  0.1326 -0.1609  0.0975
  568MOL0     H76648   0.466   8.948   5.327  1.6129  0.7737  2.1863
  568MOL0     H76649   0.436   8.772   5.353  0.8038 -0.3165  1.0215
  568MOL0     H76650   0.676   8.921   5.456  0.5499  0.1877  1.8917
  568MOL0     H76651   0.649   8.749   5.466  1.1115  1.6135  1.3918
  568MOL0     H76652   0.601   8.894   5.655 -0.7796  0.5311 -0.5581
  568MOL0     H76653   0.450   8.946   5.575  1.0619  1.0273 -2.6995
  568MOL0     H76654   0.560   8.659   5.635  2.3220  3.1739 -1.6273
  568MOL0     H76655   0.396   8.686   5.566 -1.2283 -0.2269  1.3818
  568MOL0     H76656   0.490   8.774   5.837  0.7134 -2.1211 -0.4860
  568MOL0     H76657   0.325   8.801   5.757 -1.0897 -1.0990 -0.7232
  568MOL0     H76658   0.457   8.544   5.848  0.3043  0.4744  1.6854
  568MOL0     H76659   0.298   8.545   5.772 -1.2224  1.6102 -0.1031
  568MOL0     H76660   0.191   8.631   5.943  0.4630 -0.3040 -0.1608
  568MOL0     H76661   0.327   8.719   6.014 -2.6615  0.3578  0.0961
  568MOL0     H76662   0.717   8.734   4.980  0.1836  0.6467 -2.2196
  568MOL0     H76663   0.944   8.666   4.898 -3.2387 -0.4896  0.2962
  568MOL0     H76664   1.425   8.801   4.932  0.0641  0.8178 -0.9140
  568MOL0     H76665   1.649   8.771   4.857  1.1599  0.7870 -0.4799
  568MOL0     H76666   3.479   8.100   4.089  0.0508  0.8144  1.2886
  568MOL0     H76667   3.715   8.130   4.049  2.7279  2.7470 -3.1649
  568MOL0     H76668   4.103   8.665   3.989 -2.0074 -0.2171  0.0423
  568MOL0     H76669   4.330   8.655   4.016 -1.0437  0.5870 -0.2229
  568MOL0     H76670   4.543   8.288   4.200  0.1103 -0.1670 -0.2632
  568MOL0     H76671   4.547   8.325   4.023  2.1494  0.9846 -0.4366
  568MOL0     H76672   4.723   8.506   4.083 -0.9806  0.0556 -0.6651
  568MOL0     H76673   4.769   8.337   4.102  0.3773 -0.0577  0.9891
  568MOL0     H76674   4.723   8.347   4.352  1.5169 -0.5775 -0.1173
  568MOL0     H76675   4.688   8.512   4.346  2.5643 -0.9306  4.2596
  568MOL0     H76676   4.954   8.394   4.273 -1.4164 -0.8236  0.5353
  568MOL0     H76677   4.922   8.494   4.414 -0.5998 -1.1941  1.5590
  568MOL0     H76678   4.973   8.818   4.171  1.4586 -0.4696  0.1450
  568MOL0     H76679   4.314   8.261   4.197  0.0533 -0.0490  0.2620
  568MOL0     H76680   4.067   8.251   4.121  0.5450 -1.1408 -0.2055
  569MOL0     O76681   0.128   0.587   6.022 -0.5639  0.0655  0.3047
  569MOL0     C76682   0.181   0.645   5.926 -0.0150  0.5143  0.0021
  569MOL0     O76683   0.141   0.630   5.795  0.0802 -0.4818 -0.0863
  569MOL0     C76684   0.028   0.549   5.786 -0.5671 -0.6870  0.5388
  569MOL0     C76685   0.040   0.415   5.752 -0.1384  0.1222  0.6498
  569MOL0     C76686  -0.077   0.333   5.721  0.0606 -0.2847 -0.3229
  569MOL0     C76687  -0.204   0.376   5.730  0.0072  0.1538 -0.8110
  569MOL0     O76688  -0.301   0.290   5.701 -0.4272 -0.6259 -0.3991
  569MOL0     C76689  -0.431   0.341   5.722 -0.3331  0.3500  0.3039
  569MOL0     C76690  -0.547   0.244   5.706 -0.0165  0.7627 -0.4464
  569MOL0     C76691  -0.679   0.317   5.712 -0.3278 -0.5130 -0.3029
  569MOL0     C76692  -0.795   0.218   5.709  0.3779 -0.0334  0.3364
  569MOL0     C76693  -0.933   0.280   5.732 -0.3313 -0.0449 -0.3612
  569MOL0     C76694  -0.972   0.389   5.632  0.5840 -0.1809 -0.5676
  569MOL0     C76695  -1.125   0.433   5.651  0.1758 -0.1876 -0.2633
  569MOL0     C76696  -1.165   0.530   5.763 -0.1982  0.0393 -0.6912
  569MOL0     N76697  -1.303   0.518   5.802 -0.0738  0.2421  0.3934
  569MOL0     C76698  -1.412   0.457   5.742  0.4490 -0.4724 -0.3746
  569MOL0     C76699  -1.512   0.489   5.839  0.3665  0.1228 -0.4483
  569MOL0     C76700  -1.652   0.446   5.826  0.2959  0.2898 -0.4540
  569MOL0     C76701  -1.746   0.558   5.787 -0.0155 -0.3179  0.6715
  569MOL0     C76702  -1.779   0.658   5.911  0.1189  0.6283  0.4218
  569MOL0     C76703  -1.829   0.584   6.042  0.3771 -0.2709 -1.4557
  569MOL0     O76704  -1.916   0.476   6.011 -0.0135  0.6929  0.4305
  569MOL0     C76705  -2.038   0.508   5.957  1.0070  0.2569  0.4453
  569MOL0     C76706  -2.116   0.397   5.895 -0.8709 -0.4017  0.3812
  569MOL0     C76707  -2.237   0.420   5.831  0.2907  0.1236  0.3976
  569MOL0     C76708  -2.300   0.302   5.762  0.0057  0.1506  0.9408
  569MOL0     C76709  -2.289   0.552   5.827 -0.0103  0.2206  0.2722
  569MOL0     C76710  -2.411   0.577   5.750 -0.4036 -0.1470  0.3703
  569MOL0     O76711  -2.404   0.640   5.634 -0.6367  0.7467 -0.1108
  569MOL0     C76712  -2.520   0.672   5.562 -0.0000  0.1879 -1.0105
  569MOL0     C76713  -2.550   0.612   5.443 -0.6820 -0.0458 -0.4687
  569MOL0     C76714  -2.671   0.635   5.387  0.3601 -0.6091  0.2666
  569MOL0     C76715  -2.766   0.726   5.441 -0.2153 -0.2658 -1.0944
  569MOL0     O76716  -2.889   0.751   5.381 -0.6840  0.0900 -0.5625
  569MOL0     C76717  -2.928   0.668   5.264  0.3818 -0.1600 -0.1712
  569MOL0     C76718  -3.076   0.695   5.215  0.5763  0.4841  0.2733
  569MOL0     C76719  -3.108   0.574   5.119 -0.3616  0.7231 -0.6676
  569MOL0     C76720  -3.255   0.577   5.082 -0.2849 -0.2124 -0.6451
  569MOL0     C76721  -3.298   0.449   5.016  0.2073  0.4773  0.0395
  569MOL0     C76722  -3.442   0.453   4.979  0.7372 -0.3106  0.4055
  569MOL0     C76723  -3.490   0.342   4.889 -0.1333  0.0406 -0.0960
  569MOL0     C76724  -3.621   0.374   4.822  1.0916 -0.1065 -0.2401
  569MOL0    Cl76725  -3.666   0.232   4.715 -0.4872 -0.1392  0.0478
  569MOL0     C76726  -2.725   0.789   5.557  0.6696 -0.7970 -0.4108
  569MOL0     C76727  -2.601   0.773   5.615  0.0544  0.8649 -0.6288
  569MOL0     O76728  -2.520   0.532   5.795  0.3433 -0.5874  0.3088
  569MOL0     C76729  -2.220   0.660   5.881 -0.1976  0.1307 -0.4137
  569MOL0     C76730  -2.098   0.636   5.945  0.2018  0.3120 -1.2380
  569MOL0     N76731  -1.464   0.564   5.940 -0.7091  0.9025 -0.3338
  569MOL0     N76732  -1.336   0.580   5.919  0.4620  0.4110  0.9454
  569MOL0     C76733  -0.214   0.515   5.773 -0.1897  0.2634 -0.6340
  569MOL0     C76734  -0.101   0.602   5.797  0.8297  0.7144 -0.6869
  569MOL0     C76735   0.308   0.718   5.956  0.8150 -1.2722  1.1244
  569MOL0     C76736   0.404   0.753   5.853 -0.8404  0.0416  0.2699
  569MOL0     C76737   0.523   0.816   5.886  0.4138  0.3290  0.2543
  569MOL0     C76738   0.550   0.839   6.028  1.0060 -1.4203  0.8823
  569MOL0     O76739   0.668   0.884   6.075  0.2593  0.2217 -0.1767
  569MOL0     C76740   0.785   0.891   5.995  0.0256  0.3343  0.5860
  569MOL0     C76741   0.831   0.741   5.984 -0.0890  0.2083  0.3748
  569MOL0     C76742   0.821   0.662   6.116  0.0981  1.0771  0.1299
  569MOL0     C76743   0.888   0.732   6.242 -0.3175  0.7094  1.0405
  569MOL0     C76744   1.022   0.773   6.225 -0.4805  0.8084 -0.7215
  569MOL0     C76745   1.131   0.822   6.226  0.5621  0.2026 -0.2701
  569MOL0     C76746   0.447   0.820   6.121  0.6040 -0.2824 -0.5004
  569MOL0     C76747   0.328   0.758   6.088  0.8638 -0.2074  0.1803
  569MOL0     H76748   0.136   0.366   5.737 -0.3096 -0.5041  1.5496
  569MOL0     H76749  -0.056   0.236   5.676 -1.8106 -0.3258 -1.1962
  569MOL0     H76750  -0.435   0.378   5.825  1.0134  0.7555  0.2360
  569MOL0     H76751  -0.451   0.423   5.653  0.9287 -1.2853 -2.1574
  569MOL0     H76752  -0.533   0.190   5.612  3.0909 -0.7229  0.7259
  569MOL0     H76753  -0.545   0.166   5.783 -0.0930  0.2818 -0.9295
  569MOL0     H76754  -0.688   0.386   5.796  1.7602  0.7471 -1.0336
  569MOL0     H76755  -0.684   0.384   5.625  2.0509 -0.7390 -0.6795
  569MOL0     H76756  -0.797   0.180   5.607 -0.5173  0.2655  0.2299
  569MOL0     H76757  -0.777   0.134   5.776  1.0742 -0.5816 -0.5159
  569MOL0     H76758  -1.013   0.206   5.724 -2.3750  2.2156 -2.5861
  569MOL0     H76759  -0.930   0.326   5.831  0.8417  1.7927 -1.1874
  569MOL0     H76760  -0.910   0.478   5.645 -1.1037  0.9392  0.0944
  569MOL0     H76761  -0.959   0.339   5.535 -0.5695 -1.0713 -0.2901
  569MOL0     H76762  -1.156   0.494   5.566 -1.2233  3.7529  2.7769
  569MOL0     H76763  -1.181   0.340   5.661  1.7351 -1.3302 -1.5129
  569MOL0     H76764  -1.138   0.632   5.735 -3.4944  1.2954  0.3009
  569MOL0     H76765  -1.107   0.514   5.854  1.4041  1.6337 -1.3851
  569MOL0     H76766  -1.433   0.391   5.658  2.8154 -2.3873  0.4098
  569MOL0     H76767  -1.668   0.377   5.744  0.9302  0.7955 -1.0137
  569MOL0     H76768  -1.675   0.399   5.922  0.4264  0.5411 -0.2990
  569MOL0     H76769  -1.835   0.512   5.744 -0.4464  2.0638 -1.2016
  569MOL0     H76770  -1.703   0.617   5.706  1.9040  0.6744  2.3317
  569MOL0     H76771  -1.852   0.733   5.880 -0.6639 -0.5287 -0.6392
  569MOL0     H76772  -1.694   0.726   5.927  0.8360 -0.2454  0.4472
  569MOL0     H76773  -1.892   0.648   6.104 -1.2125 -2.3867 -0.7610
  569MOL0     H76774  -1.748   0.542   6.103 -0.6835 -0.6645 -0.2649
  569MOL0     H76775  -2.070   0.299   5.900 -3.1972 -1.5520  0.4591
  569MOL0     H76776  -2.360   0.341   5.680  0.4136 -0.7912  0.1845
  569MOL0     H76777  -2.222   0.246   5.710 -0.4498  0.4373 -0.0773
  569MOL0     H76778  -2.352   0.231   5.827  0.1982 -0.8658  0.0042
  569MOL0     H76779  -2.481   0.539   5.401  0.9172  0.7541  0.6637
  569MOL0     H76780  -2.683   0.574   5.298  1.8569 -2.3536  1.1724
  569MOL0     H76781  -2.863   0.686   5.178  1.7105 -0.2458  0.7848
  569MOL0     H76782  -2.914   0.562   5.287 -1.2298 -0.4820 -0.5455
  569MOL0     H76783  -3.149   0.714   5.294  0.6059  0.2232  0.3632
  569MOL0     H76784  -3.077   0.784   5.152 -1.9791 -1.1890 -2.2589
  569MOL0     H76785  -3.099   0.487   5.185 -0.0947  0.6076 -0.8538
  569MOL0     H76786  -3.038   0.568   5.035 -0.9015  1.0225 -1.1419
  569MOL0     H76787  -3.312   0.597   5.174 -0.8280 -0.0242 -1.0161
  569MOL0     H76788  -3.270   0.666   5.021 -0.3139  1.3762  1.5584
  569MOL0     H76789  -3.281   0.367   5.086  0.0698 -0.7578 -1.3104
  569MOL0     H76790  -3.224   0.435   4.937  1.7397 -2.3610  1.8213
  569MOL0     H76791  -3.504   0.463   5.068  1.2291  0.6411  0.6547
  569MOL0     H76792  -3.461   0.543   4.919  0.3059 -1.3687 -1.1163
  569MOL0     H76793  -3.492   0.254   4.954 -0.5092 -0.5980 -0.9486
  569MOL0     H76794  -3.422   0.331   4.804 -0.8132  1.7015 -0.8985
  569MOL0     H76795  -3.614   0.470   4.769  2.2162  0.4813  0.8828
  569MOL0     H76796  -3.697   0.383   4.900  1.3248  1.0216 -0.1112
  569MOL0     H76797  -2.797   0.855   5.605  1.5846  0.7158 -1.0472
  569MOL0     H76798  -2.578   0.837   5.700 -0.7530  0.3225  0.0197
  569MOL0     H76799  -2.261   0.760   5.892 -0.6288 -0.0424 -0.4354
  569MOL0     H76800  -2.055   0.729   5.981 -1.0338  0.2102  0.6175
  569MOL0     H76801  -0.307   0.568   5.791 -0.2408 -0.0211 -0.0607
  569MOL0     H76802  -0.107   0.709   5.814 -1.1579  0.3606  1.1543
  569MOL0     H76803   0.381   0.729   5.749  1.0830  0.0945 -0.2039
  569MOL0     H76804   0.597   0.843   5.812  0.1856  1.3487  0.3790
  569MOL0     H76805   0.766   0.930   5.894  1.4474  2.0658  0.9392
  569MOL0     H76806   0.853   0.962   6.042  1.3466 -1.4174  1.4391
  569MOL0     H76807   0.934   0.744   5.949 -0.4081  0.7253 -0.5453
  569MOL0     H76808   0.783   0.683   5.905 -0.1288  1.6243 -0.6712
  569MOL0     H76809   0.880   0.572   6.097  0.1521  0.5757  2.3830
  569MOL0     H76810   0.716   0.636   6.132  0.0263  1.5599  0.4753
  569MOL0     H76811   0.888   0.665   6.328  1.3882  0.2883  0.7472
  569MOL0     H76812   0.833   0.824   6.265 -0.1881  0.7956  1.0059
  569MOL0     H76813   1.230   0.863   6.221  0.0077  1.8058  1.3338
  569MOL0     H76814   0.472   0.839   6.225 -0.1286 -1.1234 -0.1517
  569MOL0     H76815   0.258   0.740   6.169  1.7529 -1.0560  0.7907
  570MOL0     O76816   2.495   0.476   6.052 -0.2836 -0.1157  0.9136
  570MOL0     C76817   2.541   0.584   6.096 -0.2690  0.7921  0.4709
  570MOL0     O76818   2.526   0.633   6.219 -0.0867  0.7464 -0.2607
  570MOL0     C76819   2.427   0.591   6.292  0.2789 -0.4630 -0.4526
  570MOL0     C76820   2.294   0.620   6.246 -0.2413 -0.6046  0.1604
  570MOL0     C76821   2.186   0.566   6.322  0.3539  0.0607  0.6111
  570MOL0     C76822   2.207   0.493   6.442  0.5731 -0.6374  0.5900
  570MOL0     O76823   2.102   0.434   6.511 -0.3845 -0.4677 -0.2383
  570MOL0     C76824   1.981   0.481   6.480  1.2896  0.2751 -1.1498
  570MOL0     C76825   1.880   0.395   6.557  0.2509  0.1415 -0.7843
  570MOL0     C76826   1.828   0.265   6.482  1.6249  0.1326  0.3431
  570MOL0     C76827   1.759   0.170   6.583 -0.7862 -0.0667 -0.4841
  570MOL0     C76828   1.613   0.212   6.590 -0.6212  0.4461 -0.7216
  570MOL0     C76829   1.525   0.108   6.643  0.2435  0.9458  0.8311
  570MOL0     C76830   1.556   0.050   6.791  0.5237 -0.3585  0.9855
  570MOL0     C76831   1.644  -0.073   6.781 -0.5310  0.0551 -0.5961
  570MOL0     N76832   1.689  -0.116   6.916 -0.9568 -0.2897 -0.0919
  570MOL0     C76833   1.781  -0.055   6.993  0.6674 -0.1187  0.7408
  570MOL0     C76834   1.820  -0.137   7.089 -0.1407 -0.3286 -0.3035
  570MOL0     C76835   1.926  -0.109   7.195  0.8770 -0.2211  0.4916
  570MOL0     C76836   1.855  -0.037   7.312  0.1656 -0.1245  0.0392
  570MOL0     C76837   1.741  -0.109   7.379  1.1586  0.8368  0.6373
  570MOL0     C76838   1.666  -0.028   7.482  0.2990  0.3571  0.8146
  570MOL0     O76839   1.641   0.108   7.432 -1.4671  0.2161  0.5508
  570MOL0     C76840   1.534   0.120   7.346  0.2135 -0.2103 -0.3183
  570MOL0     C76841   1.399   0.081   7.380 -0.7122  0.0387  0.8234
  570MOL0     C76842   1.289   0.099   7.296 -0.4022 -0.6219 -0.1864
  570MOL0     C76843   1.160   0.032   7.328 -0.1218  0.8991 -0.0091
  570MOL0     C76844   1.315   0.149   7.163  0.6774  0.1604  0.3951
  570MOL0     C76845   1.209   0.163   7.059 -0.7340 -0.6389 -0.2773
  570MOL0     O76846   1.259   0.132   6.935 -0.1108 -0.5690  0.9316
  570MOL0     C76847   1.177   0.098   6.834 -0.0012 -0.5314 -0.0635
  570MOL0     C76848   1.180  -0.039   6.792  0.0504  0.4688  0.3563
  570MOL0     C76849   1.073  -0.076   6.706  0.0929 -0.4876  0.1113
  570MOL0     C76850   0.992   0.021   6.639  0.9289  0.5817  0.4564
  570MOL0     O76851   0.890  -0.002   6.553 -0.1907  0.8950  0.2636
  570MOL0     C76852   0.874  -0.145   6.529  0.4114 -0.0645  0.5748
  570MOL0     C76853   0.749  -0.170   6.454  0.2350 -0.0102  0.2119
  570MOL0     C76854   0.631  -0.112   6.539  0.5288 -0.1164 -0.2292
  570MOL0     C76855   0.497  -0.150   6.489  0.3643  0.5817 -0.1123
  570MOL0     C76856   0.447  -0.074   6.364 -0.1060  0.5849  0.0748
  570MOL0     C76857   0.303  -0.108   6.315 -0.2280 -0.1722 -0.2620
  570MOL0     C76858   0.272  -0.252   6.287  0.6769  0.1870 -0.0261
  570MOL0     C76859   0.135  -0.286   6.244  1.0105  0.1885  0.6994
  570MOL0    Cl76860   0.107  -0.458   6.221  0.5607 -0.1073  0.3310
  570MOL0     C76861   1.002   0.150   6.678  0.1319 -0.2457 -0.0488
  570MOL0     C76862   1.090   0.195   6.775 -0.2510  0.7662  0.6309
  570MOL0     O76863   1.094   0.193   7.077  0.4788 -0.2068  1.1719
  570MOL0     C76864   1.449   0.184   7.127 -0.2013  1.1028 -0.0642
  570MOL0     C76865   1.555   0.173   7.218 -0.0618 -0.5910  0.0763
  570MOL0     N76866   1.748  -0.251   7.069  0.1729  0.4328 -0.5951
  570MOL0     N76867   1.664  -0.229   6.972  0.6247  0.5864 -0.5483
  570MOL0     C76868   2.340   0.480   6.489  0.0882  0.7713 -0.6485
  570MOL0     C76869   2.451   0.528   6.415  0.1764  0.4266 -0.1493
  570MOL0     C76870   2.612   0.662   5.990  0.3242  0.8920 -0.2127
  570MOL0     C76871   2.697   0.760   6.022 -0.1908 -0.2218 -0.7274
  570MOL0     C76872   2.773   0.825   5.925  0.4216  1.1312  0.3101
  570MOL0     C76873   2.767   0.788   5.788  0.4479  0.0546  0.9606
  570MOL0     O76874   2.832   0.857   5.690 -0.8973 -0.4914 -0.4165
  570MOL0     C76875   2.797   0.999   5.680  0.7720  0.5213 -0.5554
  570MOL0     C76876   2.919   1.079   5.720  1.0479  1.0587 -1.4271
  570MOL0     C76877   3.039   1.085   5.628 -0.7415 -0.2759 -0.1035
  570MOL0     C76878   2.996   1.147   5.495 -0.1402  0.4437  0.0411
  570MOL0     C76879   3.108   1.188   5.413 -1.1858 -0.7043 -1.2714
  570MOL0     C76880   3.201   1.227   5.346  1.4281  1.0307  0.6280
  570MOL0     C76881   2.686   0.687   5.758 -0.2974  1.3288  0.3445
  570MOL0     C76882   2.614   0.623   5.855  0.3193  0.6011  0.3573
  570MOL0     H76883   2.282   0.675   6.153  3.2213  0.3011  0.1098
  570MOL0     H76884   2.091   0.581   6.273  0.4333  1.1045  0.7442
  570MOL0     H76885   1.975   0.588   6.502  2.1291  0.3989 -1.4800
  570MOL0     H76886   1.960   0.462   6.374 -1.8697  3.0908 -1.1928
  570MOL0     H76887   1.929   0.379   6.653 -0.0604 -2.2460 -0.9725
  570MOL0     H76888   1.790   0.456   6.573 -0.9770 -1.3609 -1.7113
  570MOL0     H76889   1.756   0.295   6.405  0.8566  1.1952  1.4438
  570MOL0     H76890   1.908   0.211   6.431  0.4801 -0.4787 -0.8723
  570MOL0     H76891   1.771   0.064   6.559  4.1748  0.4179 -1.1885
  570MOL0     H76892   1.799   0.175   6.684  0.2808  1.4668 -0.9359
  570MOL0     H76893   1.604   0.301   6.654 -0.7373  1.5339 -2.2083
  570MOL0     H76894   1.575   0.231   6.490  0.8809 -1.2975 -1.6986
  570MOL0     H76895   1.424   0.150   6.639 -2.3937 -4.2976  3.2118
  570MOL0     H76896   1.514   0.025   6.572 -3.2001 -1.7878  4.1277
  570MOL0     H76897   1.600   0.129   6.853  1.3024 -1.1802  1.5163
  570MOL0     H76898   1.467   0.010   6.840  0.5782  1.5113  2.7376
  570MOL0     H76899   1.737  -0.050   6.727  0.0489 -2.1508 -0.6158
  570MOL0     H76900   1.578  -0.145   6.734  0.0027  0.8044 -2.5888
  570MOL0     H76901   1.838   0.033   6.963 -0.1826 -0.9918 -4.3204
  570MOL0     H76902   1.972  -0.202   7.229  2.6694  0.6215  0.4771
  570MOL0     H76903   2.001  -0.039   7.157 -1.6906  2.6130  0.1751
  570MOL0     H76904   1.831   0.067   7.290 -0.2982 -0.0847  0.6867
  570MOL0     H76905   1.938  -0.033   7.383 -0.1637 -2.2975  0.6213
  570MOL0     H76906   1.781  -0.198   7.429  1.7004  0.2116 -0.8576
  570MOL0     H76907   1.665  -0.149   7.311  0.2170 -0.6047  2.4389
  570MOL0     H76908   1.724  -0.014   7.574  0.7637  1.4691  0.3702
  570MOL0     H76909   1.575  -0.087   7.495  2.8259 -3.9145  1.0439
  570MOL0     H76910   1.394   0.038   7.480  2.5162  0.2324  1.1796
  570MOL0     H76911   1.138  -0.051   7.260  0.7667 -1.1399  2.0395
  570MOL0     H76912   1.157  -0.008   7.430  1.4667 -0.5773 -0.4912
  570MOL0     H76913   1.085   0.111   7.320 -1.2929 -0.3230 -1.7220
  570MOL0     H76914   1.254  -0.109   6.830  1.3779  1.3116 -0.5966
  570MOL0     H76915   1.065  -0.182   6.687 -1.7228 -0.3434 -0.1085
  570MOL0     H76916   0.965  -0.171   6.473  0.6533  1.1899  0.3506
  570MOL0     H76917   0.871  -0.206   6.620  2.8320 -0.2752  0.5821
  570MOL0     H76918   0.756  -0.113   6.360  1.7640  2.0116  1.4505
  570MOL0     H76919   0.737  -0.278   6.444 -1.2376  0.1089  0.5080
  570MOL0     H76920   0.632  -0.004   6.550 -0.3144  0.0012 -1.2003
  570MOL0     H76921   0.647  -0.163   6.635  0.8601  0.9819  0.3204
  570MOL0     H76922   0.489  -0.256   6.465 -4.2178  0.7571 -0.1863
  570MOL0     H76923   0.432  -0.126   6.573  1.7413  3.4953  0.2372
  570MOL0     H76924   0.516  -0.117   6.290  1.5303 -1.7347  2.7218
  570MOL0     H76925   0.458   0.035   6.370 -0.3747  0.8696 -3.0870
  570MOL0     H76926   0.247  -0.074   6.403  0.5762 -1.7481  0.9169
  570MOL0     H76927   0.276  -0.050   6.227 -0.0778  0.0902 -0.1394
  570MOL0     H76928   0.283  -0.306   6.382 -3.7860 -0.3817  0.3870
  570MOL0     H76929   0.339  -0.282   6.206 -1.9386  1.5419 -2.9153
  570MOL0     H76930   0.121  -0.246   6.144  3.0358 -1.0141 -0.1178
  570MOL0     H76931   0.061  -0.240   6.311  1.1381  3.7480 -1.3651
  570MOL0     H76932   0.955   0.231   6.624  1.0587  0.8242  0.7005
  570MOL0     H76933   1.095   0.300   6.800  0.5187  0.7093  0.7576
  570MOL0     H76934   1.477   0.220   7.028  2.3509  1.0066  0.5519
  570MOL0     H76935   1.656   0.191   7.182  0.6161 -0.3449  1.9704
  570MOL0     H76936   2.363   0.426   6.580 -1.6138  1.6263  0.3492
  570MOL0     H76937   2.547   0.508   6.460 -0.7063  0.0172  1.6050
  570MOL0     H76938   2.694   0.796   6.124 -1.0724 -1.4888 -0.2720
  570MOL0     H76939   2.835   0.903   5.967  2.9984 -1.0684  0.8631
  570MOL0     H76940   2.778   1.033   5.578  1.2921 -0.2931 -0.9316
  570MOL0     H76941   2.708   1.019   5.739 -1.6479 -0.5322 -3.6100
  570MOL0     H76942   2.957   1.032   5.811 -1.3518 -2.6989 -2.1442
  570MOL0     H76943   2.891   1.183   5.741 -0.6278  0.5545 -0.9660
  570MOL0     H76944   3.075   0.983   5.613  2.4896  0.4904  1.5095
  570MOL0     H76945   3.120   1.136   5.682 -1.7770  1.7036 -0.3200
  570MOL0     H76946   2.939   1.238   5.516 -0.0741 -0.2475  3.8393
  570MOL0     H76947   2.934   1.079   5.436 -0.9531  0.7367  0.5506
  570MOL0     H76948   3.282   1.259   5.282  1.7362  1.5452  1.2639
  570MOL0     H76949   2.683   0.657   5.654 -1.2530 -1.0285  0.9922
  570MOL0     H76950   2.555   0.541   5.815 -0.4042  2.1493 -1.9173
  571MOL0     O76951   4.497  10.568   4.905 -0.1907 -0.0121 -0.3521
  571MOL0     C76952   4.525  10.545   4.788  0.0110 -0.0117 -0.0051
  571MOL0     O76953   4.444  10.576   4.687  0.6690  0.3678  0.3061
  571MOL0     C76954   4.314  10.619   4.700 -0.6142  0.1398  0.4770
  571MOL0     C76955   4.256  10.701   4.603 -0.5956  0.8589 -0.1558
  571MOL0     C76956   4.130  10.757   4.618  0.4330 -0.1244 -0.3939
  571MOL0     C76957   4.046  10.724   4.723 -0.6218  0.0555  0.3050
  571MOL0     O76958   3.920  10.765   4.717  0.3961  1.2915 -0.1608
  571MOL0     C76959   3.853  10.809   4.838  1.2321 -0.6313  0.2742
  571MOL0     C76960   3.710  10.836   4.787  0.8036  0.3224  0.3872
  571MOL0     C76961   3.601  10.864   4.883  0.0767  0.5521 -0.0638
  571MOL0     C76962   3.541  10.743   4.963 -0.1045  0.8994 -0.1355
  571MOL0     C76963   3.411  10.787   5.032  0.4288  0.5109 -0.0322
  571MOL0     C76964   3.418  10.908   5.131  0.2284 -0.1070  0.4885
  571MOL0     C76965   3.289  10.949   5.203  0.2649 -0.3687 -0.7512
  571MOL0     C76966   3.206  11.052   5.140 -0.4111  0.6329  0.1738
  571MOL0     N76967   3.189  11.019   4.994  1.0764 -0.3536 -0.0714
  571MOL0     C76968   3.236  11.092   4.891 -0.1686 -0.7762  0.3695
  571MOL0     C76969   3.157  11.070   4.786  0.6053  0.4826  1.1211
  571MOL0     C76970   3.188  11.136   4.652 -0.6252 -1.0782  0.7074
  571MOL0     C76971   3.232  11.026   4.560 -0.9238 -0.2479 -0.5636
  571MOL0     C76972   3.314  11.061   4.438 -0.4142  0.1312  0.4032
  571MOL0     C76973   3.357  10.937   4.356  0.2000  0.5498  0.7364
  571MOL0     O76974   3.484  10.877   4.386  0.1130 -0.4077  0.7557
  571MOL0     C76975   3.596  10.956   4.363  0.3785  1.1610 -0.5200
  571MOL0     C76976   3.611  11.066   4.281  0.4843 -0.4676 -0.4947
  571MOL0     C76977   3.726  11.142   4.280  0.1457 -0.0644 -0.1630
  571MOL0     C76978   3.705  11.281   4.223 -0.5745  0.5336 -0.2584
  571MOL0     C76979   3.842  11.085   4.332 -0.0511 -0.7378  0.2414
  571MOL0     C76980   3.984  11.131   4.334 -0.1026 -0.0181  0.4011
  571MOL0     O76981   4.083  11.068   4.396  0.0644 -0.7930  0.7661
  571MOL0     C76982   4.212  11.097   4.363 -0.0271 -0.5562  0.5641
  571MOL0     C76983   4.298  11.002   4.310  0.0319  0.5810 -0.4502
  571MOL0     C76984   4.434  11.024   4.309  0.0206 -0.3221 -0.2286
  571MOL0     C76985   4.485  11.148   4.343  0.4815 -1.1547 -0.7393
  571MOL0     O76986   4.628  11.175   4.340  0.7226  0.1303  0.1057
  571MOL0     C76987   4.696  11.071   4.412  0.2992  0.5278  0.5989
  571MOL0     C76988   4.839  11.114   4.407 -0.8370 -0.8655 -0.2421
  571MOL0     C76989   4.934  11.007   4.447 -0.7206 -0.7108 -0.9016
  571MOL0     C76990   5.051  11.011   4.342  0.6752  0.3946 -0.0663
  571MOL0     C76991   5.160  10.915   4.386  1.0288 -0.9767  0.1294
  571MOL0     C76992   5.283  10.935   4.307  0.1519  0.0709  0.0530
  571MOL0     C76993   5.399  10.837   4.347 -0.3483  0.2916 -0.7894
  571MOL0     C76994   5.508  10.830   4.231  0.4476  0.2040  0.5670
  571MOL0    Cl76995   5.614  10.692   4.275  0.0985 -0.6243 -0.4232
  571MOL0     C76996   4.404  11.250   4.386 -0.0064  0.0463  0.4781
  571MOL0     C76997   4.266  11.226   4.390  0.3317 -0.7096  0.1223
  571MOL0     O76998   4.001  11.242   4.284 -0.1544 -0.2717  0.1839
  571MOL0     C76999   3.824  10.964   4.413  0.2744 -0.2010  0.0625
  571MOL0     C77000   3.702  10.903   4.430  0.0051  0.6778  0.0444
  571MOL0     N77001   3.053  10.988   4.825 -0.0803  0.6414  0.3345
  571MOL0     N77002   3.079  10.959   4.950  0.3840 -0.1523  0.6400
  571MOL0     C77003   4.090  10.630   4.823 -0.6572  0.3074  0.6617
  571MOL0     C77004   4.225  10.576   4.804  0.3356 -0.7335 -0.0048
  571MOL0     C77005   4.648  10.484   4.758  0.2075 -0.0587 -0.2564
  571MOL0     C77006   4.680  10.454   4.630 -0.3934  0.6370  0.0181
  571MOL0     C77007   4.806  10.400   4.593  0.1537 -0.0604  0.7144
  571MOL0     C77008   4.906  10.380   4.688  0.4016 -0.5507 -0.1063
  571MOL0     O77009   5.029  10.346   4.649  0.0507  0.3944  0.5776
  571MOL0     C77010   5.105  10.271   4.743 -0.2452  1.5600  0.2529
  571MOL0     C77011   5.219  10.200   4.667  0.3962  0.0661 -0.0405
  571MOL0     C77012   5.304  10.118   4.753 -0.3648  0.3327  0.3588
  571MOL0     C77013   5.424  10.076   4.669 -0.9641 -0.1467 -0.3477
  571MOL0     C77014   5.527  10.013   4.761  0.0742 -0.6417 -0.0828
  571MOL0     C77015   5.622   9.976   4.828  0.9338  0.1067  0.1992
  571MOL0     C77016   4.869  10.409   4.826 -0.8983 -0.2775 -0.2582
  571MOL0     C77017   4.747  10.468   4.864  0.1808  0.3168  0.0762
  571MOL0     H77018   4.333  10.730   4.532  0.3405  1.1006  0.9069
  571MOL0     H77019   4.109  10.832   4.542  0.5912  0.8017  0.4639
  571MOL0     H77020   3.850  10.730   4.913  0.4635 -0.8149  0.0615
  571MOL0     H77021   3.901  10.892   4.891  0.5213 -0.0929  0.0989
  571MOL0     H77022   3.703  10.912   4.709 -1.8369  0.3697  0.5953
  571MOL0     H77023   3.674  10.740   4.749  0.9609  0.8776 -1.2413
  571MOL0     H77024   3.642  10.937   4.953  1.2218 -0.7210  0.6300
  571MOL0     H77025   3.520  10.917   4.832  0.6932  0.0738 -1.5897
  571MOL0     H77026   3.505  10.671   4.888 -1.0199  1.1182  0.0832
  571MOL0     H77027   3.611  10.696   5.033 -2.5468  0.0674  1.8938
  571MOL0     H77028   3.340  10.825   4.958 -0.2303  2.8232  1.6728
  571MOL0     H77029   3.374  10.697   5.082  0.7884  1.2852  1.7120
  571MOL0     H77030   3.493  10.873   5.203  0.3100 -1.5892 -0.2660
  571MOL0     H77031   3.463  10.997   5.085 -2.4912  1.3036  0.3673
  571MOL0     H77032   3.226  10.861   5.214 -1.7314  0.9297 -1.3249
  571MOL0     H77033   3.318  10.985   5.302 -1.1533 -1.1371 -0.0328
  571MOL0     H77034   3.251  11.152   5.146  2.7523 -0.5834 -1.2771
  571MOL0     H77035   3.107  11.047   5.186  0.2822  0.2329  1.6861
  571MOL0     H77036   3.322  11.157   4.889  0.0246 -0.9145  2.2331
  571MOL0     H77037   3.095  11.179   4.615  0.7897  0.2317 -1.5114
  571MOL0     H77038   3.255  11.222   4.657 -2.8955  0.7468  1.0317
  571MOL0     H77039   3.135  10.996   4.519  0.6488 -2.9785 -2.5914
  571MOL0     H77040   3.271  10.943   4.620 -3.8306 -1.2144  0.1522
  571MOL0     H77041   3.401  11.122   4.462 -0.8538 -0.3227  3.7604
  571MOL0     H77042   3.259  11.125   4.368 -0.3084 -0.0334  0.1681
  571MOL0     H77043   3.349  10.952   4.248  1.3822 -2.0151  0.2111
  571MOL0     H77044   3.287  10.856   4.379 -0.0291  0.8156  0.9967
  571MOL0     H77045   3.521  11.105   4.235  0.5781 -0.6819 -0.8586
  571MOL0     H77046   3.663  11.338   4.306 -0.3794 -0.1545  0.3248
  571MOL0     H77047   3.796  11.332   4.190  0.6791 -2.2886 -1.5226
  571MOL0     H77048   3.635  11.275   4.139 -1.3728 -0.2585  0.4341
  571MOL0     H77049   4.251  10.909   4.278  1.5276 -0.1670 -0.5643
  571MOL0     H77050   4.510  10.960   4.265 -0.0177  0.4609 -1.4810
  571MOL0     H77051   4.655  11.051   4.511 -0.3093  0.8445  0.4171
  571MOL0     H77052   4.678  10.975   4.362 -3.3909  0.7503  1.2102
  571MOL0     H77053   4.855  11.140   4.302  1.6172  1.0464  0.5332
  571MOL0     H77054   4.860  11.201   4.469  3.1058  0.1965 -2.6927
  571MOL0     H77055   4.887  10.909   4.441  2.6111 -2.7693  2.0307
  571MOL0     H77056   4.963  11.020   4.552 -1.5427 -1.1788 -0.6140
  571MOL0     H77057   5.028  10.988   4.237  1.1769 -1.1878  0.1343
  571MOL0     H77058   5.090  11.113   4.347 -0.7204  0.9316  0.4176
  571MOL0     H77059   5.134  10.809   4.382  2.0021 -1.1918 -1.3988
  571MOL0     H77060   5.180  10.939   4.491 -1.6643  1.2933  0.2564
  571MOL0     H77061   5.256  10.925   4.202 -1.0790  3.1509 -0.0163
  571MOL0     H77062   5.314  11.040   4.309 -0.8636  0.4038 -0.8858
  571MOL0     H77063   5.358  10.736   4.359 -1.8218  0.9892  0.4608
  571MOL0     H77064   5.440  10.864   4.445 -1.7440 -2.4834  0.6805
  571MOL0     H77065   5.574  10.917   4.222  2.5621 -1.4410 -0.4579
  571MOL0     H77066   5.470  10.806   4.131  0.0872 -1.0728  0.9974
  571MOL0     H77067   4.438  11.350   4.410 -2.3874  1.4489 -1.4559
  571MOL0     H77068   4.208  11.310   4.425  2.5752  0.9219  0.1520
  571MOL0     H77069   3.901  10.911   4.467  0.7359 -0.3910 -0.7590
  571MOL0     H77070   3.692  10.818   4.496  1.5228 -1.9469 -2.8871
  571MOL0     H77071   4.037  10.589   4.909 -1.8837 -0.2133 -0.3099
  571MOL0     H77072   4.260  10.510   4.883 -0.3690  1.5169  2.3215
  571MOL0     H77073   4.606  10.463   4.551 -1.3746 -1.2611  0.6345
  571MOL0     H77074   4.817  10.372   4.489 -0.8209 -0.4757  0.7071
  571MOL0     H77075   5.146  10.337   4.821 -0.0838  0.5232  1.0743
  571MOL0     H77076   5.048  10.193   4.795  0.8821  0.2391 -0.4188
  571MOL0     H77077   5.285  10.270   4.616  1.7532  0.6746  2.4206
  571MOL0     H77078   5.175  10.139   4.587  0.2795  1.5057 -1.0987
  571MOL0     H77079   5.249  10.029   4.783  0.0418  0.1558  0.5918
  571MOL0     H77080   5.329  10.177   4.842 -0.9173  1.5003 -0.2407
  571MOL0     H77081   5.472  10.161   4.619  1.8415 -0.6046  1.2975
  571MOL0     H77082   5.400  10.000   4.594  2.0968 -2.1444  0.4932
  571MOL0     H77083   5.692   9.924   4.890 -0.7371 -0.3993  1.7318
  571MOL0     H77084   4.943  10.401   4.905  0.0053 -0.8868 -1.1484
  571MOL0     H77085   4.730  10.502   4.966 -0.7821 -1.0671  0.4155
  572MOL0     O77086   5.211   5.814   3.018 -0.0941  1.1572 -0.3739
  572MOL0     C77087   5.204   5.936   2.987 -0.2325 -0.1996 -0.2551
  572MOL0     O77088   5.104   5.995   2.930  0.3041  0.2934 -0.5285
  572MOL0     C77089   4.989   5.932   2.907 -0.3314  1.0585  0.4119
  572MOL0     C77090   4.866   5.993   2.934  0.5395 -0.2133 -0.1560
  572MOL0     C77091   4.736   5.938   2.898 -0.6953 -0.9125 -0.0597
  572MOL0     C77092   4.742   5.813   2.831 -0.0064  0.3221  0.9828
  572MOL0     O77093   4.625   5.746   2.802  0.1348 -0.7464  0.1119
  572MOL0     C77094   4.528   5.831   2.740 -0.6686  0.6085  0.0313
  572MOL0     C77095   4.432   5.736   2.670  0.4943 -0.3746 -0.4421
  572MOL0     C77096   4.363   5.630   2.753  0.1833  0.8843 -0.1777
  572MOL0     C77097   4.282   5.545   2.651 -0.4629 -0.1229 -1.1043
  572MOL0     C77098   4.239   5.406   2.712 -0.6825  0.2800  0.3594
  572MOL0     C77099   4.183   5.324   2.599  0.4561  0.3970 -0.0965
  572MOL0     C77100   4.042   5.379   2.562 -0.2935  0.2617  1.1349
  572MOL0     C77101   3.977   5.299   2.456 -0.2649  1.0449  0.1397
  572MOL0     N77102   3.843   5.356   2.430  0.5706  0.1894 -0.0083
  572MOL0     C77103   3.819   5.477   2.371  0.0104  0.3054 -0.0012
  572MOL0     C77104   3.689   5.499   2.396  1.2835  0.0748  0.7408
  572MOL0     C77105   3.619   5.628   2.368  1.0738  0.0298  0.0589
  572MOL0     C77106   3.464   5.618   2.383  0.2699 -0.3696 -0.0398
  572MOL0     C77107   3.385   5.555   2.262 -0.4201 -0.0033 -0.3307
  572MOL0     C77108   3.229   5.571   2.272  0.4342 -0.6575  0.5438
  572MOL0     O77109   3.173   5.455   2.347 -0.4061  0.0228  0.4929
  572MOL0     C77110   3.033   5.434   2.330  0.2748 -0.6312  0.7085
  572MOL0     C77111   2.933   5.509   2.265 -0.3524 -1.1270  0.5887
  572MOL0     C77112   2.807   5.470   2.248  0.1790 -0.2808 -0.2980
  572MOL0     C77113   2.715   5.558   2.171 -0.2890 -0.3525  0.5829
  572MOL0     C77114   2.769   5.336   2.290  0.9780 -0.0543  0.3522
  572MOL0     C77115   2.629   5.283   2.275 -0.4122 -1.3035  0.1936
  572MOL0     O77116   2.610   5.150   2.311  0.6325 -0.4170  0.2248
  572MOL0     C77117   2.480   5.107   2.333  0.2071  0.5156  1.1604
  572MOL0     C77118   2.468   5.011   2.439  0.6426  0.3205 -0.4144
  572MOL0     C77119   2.341   4.967   2.484  0.4016  0.1716  0.2700
  572MOL0     C77120   2.229   5.006   2.412  0.4188  1.5298 -0.4181
  572MOL0     O77121   2.121   4.938   2.469  0.5990  0.2146  0.0736
  572MOL0     C77122   1.993   5.000   2.468  0.3426  0.4295 -0.4708
  572MOL0     C77123   1.898   4.930   2.372 -0.3184  0.1095 -0.1835
  572MOL0     C77124   1.753   4.979   2.389  0.2364 -0.5909 -0.6099
  572MOL0     C77125   1.654   4.903   2.290  0.6112 -0.6819 -0.2630
  572MOL0     C77126   1.519   4.980   2.280  0.1992  0.0427  0.5617
  572MOL0     C77127   1.446   5.003   2.419  0.3685  0.8053  0.8783
  572MOL0     C77128   1.300   5.036   2.421  1.1999 -0.6656  0.1653
  572MOL0     C77129   1.260   5.098   2.556  0.1244  0.6590  0.1468
  572MOL0    Cl77130   1.355   5.247   2.606  0.1369 -0.0502 -0.2341
  572MOL0     C77131   2.240   5.085   2.298 -0.0835  0.2972 -0.4040
  572MOL0     C77132   2.362   5.143   2.259 -0.0377 -0.1162 -1.1154
  572MOL0     O77133   2.542   5.366   2.255 -0.5106  0.7266 -0.2119
  572MOL0     C77134   2.867   5.256   2.355 -0.7947 -0.0308  0.3291
  572MOL0     C77135   2.992   5.315   2.383  1.0241  0.2916  0.1948
  572MOL0     N77136   3.627   5.384   2.457  0.3609  0.0410  0.2035
  572MOL0     N77137   3.723   5.303   2.477  0.6712 -0.7104 -0.0165
  572MOL0     C77138   4.865   5.751   2.794  0.2756 -0.6301  0.0722
  572MOL0     C77139   4.995   5.814   2.838 -0.5476 -0.2600 -0.3984
  572MOL0     C77140   5.327   6.021   3.011  0.5937 -1.1060 -0.7060
  572MOL0     C77141   5.440   5.959   3.076  0.3648 -0.6315 -0.0421
  572MOL0     C77142   5.554   6.038   3.076  0.1020 -0.2201  1.1547
  572MOL0     C77143   5.560   6.164   3.028 -1.3539 -0.4827  0.1272
  572MOL0     O77144   5.678   6.236   3.019 -0.3841  0.6119  0.4057
  572MOL0     C77145   5.787   6.199   3.101  0.2447  0.1402 -0.1643
  572MOL0     C77146   5.910   6.295   3.092  0.5432 -0.2688 -0.5451
  572MOL0     C77147   6.024   6.234   3.179  0.2110  0.1586 -0.6344
  572MOL0     C77148   5.995   6.238   3.328  0.0862 -0.1930  0.4191
  572MOL0     C77149   6.100   6.168   3.403  0.7550  0.4517  0.3766
  572MOL0     C77150   6.195   6.116   3.450  0.7396  0.2663  0.8795
  572MOL0     C77151   5.450   6.220   2.972  0.1136 -0.7967 -0.2639
  572MOL0     C77152   5.334   6.148   2.964  0.8826  0.2082 -0.0987
  572MOL0     H77153   4.873   6.085   2.991 -2.3551  0.2125 -0.3408
  572MOL0     H77154   4.645   5.991   2.925 -0.9490 -1.0826 -0.5685
  572MOL0     H77155   4.472   5.869   2.826  0.1600 -1.2383  1.4389
  572MOL0     H77156   4.562   5.914   2.676  2.6039 -0.5127  0.1643
  572MOL0     H77157   4.356   5.795   2.618  0.2688  0.3510  0.6865
  572MOL0     H77158   4.490   5.691   2.588  1.5995 -0.1911  0.2151
  572MOL0     H77159   4.434   5.567   2.808 -1.8094 -1.1937  0.1968
  572MOL0     H77160   4.292   5.671   2.826  0.7710 -0.1646  1.0435
  572MOL0     H77161   4.198   5.602   2.612  0.6075  0.3861 -2.7968
  572MOL0     H77162   4.342   5.526   2.561 -2.5748  0.6077 -2.7681
  572MOL0     H77163   4.329   5.357   2.750  1.7457  1.6018 -3.1746
  572MOL0     H77164   4.163   5.418   2.790  1.2369  1.0519  2.2036
  572MOL0     H77165   4.242   5.315   2.508  1.5326  0.0272  0.6256
  572MOL0     H77166   4.168   5.224   2.639 -0.0305 -0.0183 -1.2848
  572MOL0     H77167   3.982   5.376   2.653  0.9638 -0.7239  1.9559
  572MOL0     H77168   4.052   5.482   2.526 -2.7402  0.2482  0.2468
  572MOL0     H77169   3.972   5.193   2.485 -0.6816  1.2591  0.8604
  572MOL0     H77170   4.034   5.300   2.363 -0.5997 -0.3204 -0.1051
  572MOL0     H77171   3.893   5.542   2.325 -0.7944  0.4389 -1.1467
  572MOL0     H77172   3.657   5.714   2.424 -4.1357  0.8468  2.9598
  572MOL0     H77173   3.634   5.657   2.264 -1.9279  3.3365  0.3783
  572MOL0     H77174   3.441   5.723   2.402  0.7803 -0.4808  1.2847
  572MOL0     H77175   3.435   5.559   2.470 -1.3551 -2.4031 -1.8393
  572MOL0     H77176   3.416   5.451   2.250  0.3287  0.1678  0.0316
  572MOL0     H77177   3.427   5.609   2.177 -0.5006  1.2497  0.4017
  572MOL0     H77178   3.191   5.580   2.170 -0.6012  1.3338  1.0440
  572MOL0     H77179   3.202   5.667   2.319  1.3434 -0.1829  0.1201
  572MOL0     H77180   2.964   5.604   2.223 -1.1537 -0.8449  0.6273
  572MOL0     H77181   2.647   5.611   2.237 -2.1728 -0.4213 -1.2095
  572MOL0     H77182   2.774   5.632   2.117  1.0875 -0.6881  1.5538
  572MOL0     H77183   2.664   5.525   2.080  0.9406  1.2403 -0.7630
  572MOL0     H77184   2.556   4.973   2.490  1.0925  0.0691 -1.3604
  572MOL0     H77185   2.325   4.901   2.569 -2.8071 -0.8962 -1.0035
  572MOL0     H77186   1.954   5.010   2.569  1.2328 -0.2713 -0.0469
  572MOL0     H77187   2.009   5.100   2.426 -0.6959  0.4694 -0.7976
  572MOL0     H77188   1.938   4.949   2.272 -1.0869 -0.5641 -0.6310
  572MOL0     H77189   1.887   4.824   2.396 -4.7161  0.3034 -0.5489
  572MOL0     H77190   1.762   5.086   2.365  3.5027 -0.8270 -0.8100
  572MOL0     H77191   1.722   4.979   2.494 -0.2352 -1.0937 -0.7459
  572MOL0     H77192   1.710   4.893   2.197  3.4472  4.3441  0.5844
  572MOL0     H77193   1.623   4.805   2.327 -2.1487  0.3802  0.4826
  572MOL0     H77194   1.456   4.913   2.221  0.0381 -0.0083  0.7958
  572MOL0     H77195   1.543   5.073   2.227 -1.1771 -0.6137 -1.3184
  572MOL0     H77196   1.456   4.911   2.478 -0.6865  0.0011 -0.1339
  572MOL0     H77197   1.509   5.077   2.469  0.2303  1.2406  0.4154
  572MOL0     H77198   1.229   4.959   2.389  1.4663 -0.2358 -1.5344
  572MOL0     H77199   1.283   5.113   2.346  1.4642 -2.0030 -1.3073
  572MOL0     H77200   1.283   5.020   2.630 -0.8404 -0.4852 -0.7151
  572MOL0     H77201   1.151   5.111   2.563 -0.2623 -1.7938 -0.4302
  572MOL0     H77202   2.151   5.096   2.237  1.0837 -2.5049 -2.8800
  572MOL0     H77203   2.373   5.204   2.171 -2.4781  3.4119  0.7700
  572MOL0     H77204   2.846   5.159   2.400  0.5346 -0.5929 -0.2245
  572MOL0     H77205   3.068   5.262   2.440  1.0877  0.4622  0.2687
  572MOL0     H77206   4.867   5.654   2.745 -3.2759  0.0394 -1.7602
  572MOL0     H77207   5.084   5.773   2.792  0.7879  0.9446  1.0077
  572MOL0     H77208   5.424   5.863   3.125  1.1137 -0.4263  0.6249
  572MOL0     H77209   5.638   5.998   3.132  0.7649 -0.4233  0.0476
  572MOL0     H77210   5.747   6.198   3.203 -1.4267 -0.6904 -0.7981
  572MOL0     H77211   5.828   6.099   3.081 -3.8930 -2.1010  1.2990
  572MOL0     H77212   5.885   6.397   3.125 -0.5894 -0.2827 -1.2927
  572MOL0     H77213   5.953   6.296   2.991  1.4894  1.3133 -0.1665
  572MOL0     H77214   6.112   6.290   3.148 -0.2531  0.3585 -1.6419
  572MOL0     H77215   6.032   6.131   3.142  1.7386 -0.0993  0.3391
  572MOL0     H77216   5.898   6.193   3.353  0.5117 -0.9827  0.6796
  572MOL0     H77217   6.005   6.343   3.357 -0.1148  0.5641 -2.0623
  572MOL0     H77218   6.277   6.060   3.491  1.6396  1.7231  1.1493
  572MOL0     H77219   5.450   6.312   2.914 -0.7048 -0.8119 -0.2997
  572MOL0     H77220   5.252   6.204   2.919  0.8235 -1.7847 -2.6880
  573MOL0     O77221   0.622   2.652   6.321 -0.1282  0.1028  0.1816
  573MOL0     C77222   0.681   2.761   6.351  0.7464  0.2706  0.7112
  573MOL0     O77223   0.646   2.883   6.299 -1.0580  0.4020 -0.2343
  573MOL0     C77224   0.523   2.892   6.235  0.5073 -0.7071 -0.1927
  573MOL0     C77225   0.508   2.834   6.108  0.0377 -0.2321  0.4558
  573MOL0     C77226   0.387   2.856   6.041  1.0067  0.0161  0.2169
  573MOL0     C77227   0.289   2.935   6.100  0.2542 -0.5053  0.0752
  573MOL0     O77228   0.169   2.943   6.042  0.2229  0.4843 -0.1174
  573MOL0     C77229   0.161   2.985   5.907 -0.7285  1.1516 -0.7212
  573MOL0     C77230   0.029   3.047   5.872  0.7066  0.1273 -0.4269
  573MOL0     C77231   0.016   3.101   5.729 -0.2661  0.0644 -0.0778
  573MOL0     C77232  -0.125   3.128   5.689 -0.6292 -0.6593 -0.3001
  573MOL0     C77233  -0.138   3.221   5.572 -0.5206 -0.1682  0.6618
  573MOL0     C77234  -0.280   3.202   5.510 -0.4745 -0.1136  0.3709
  573MOL0     C77235  -0.284   3.274   5.365 -0.7058 -0.0564  1.0625
  573MOL0     C77236  -0.319   3.418   5.389 -0.1982  0.1402 -0.0366
  573MOL0     N77237  -0.458   3.445   5.413 -0.3370  0.1283  0.1142
  573MOL0     C77238  -0.562   3.427   5.331  0.0036 -0.8409  0.6132
  573MOL0     C77239  -0.661   3.502   5.392  0.2085  0.6506  0.4842
  573MOL0     C77240  -0.810   3.516   5.347  0.3763  0.2374  0.2805
  573MOL0     C77241  -0.875   3.387   5.385 -0.6408  0.4215  0.4481
  573MOL0     C77242  -1.028   3.382   5.354 -0.2902  0.0865  0.7085
  573MOL0     C77243  -1.067   3.300   5.228 -1.7078  0.0601 -0.6334
  573MOL0     O77244  -1.061   3.161   5.261 -0.0946 -0.4826 -0.6530
  573MOL0     C77245  -1.104   3.069   5.164 -0.0465  0.0086 -0.1035
  573MOL0     C77246  -1.120   2.937   5.201  0.0172  0.7574 -0.5506
  573MOL0     C77247  -1.158   2.834   5.120 -0.5455 -0.0545  0.6726
  573MOL0     C77248  -1.168   2.694   5.177 -0.3075  0.0297 -0.9035
  573MOL0     C77249  -1.179   2.869   4.983  0.3250  0.5249 -0.8183
  573MOL0     C77250  -1.209   2.773   4.884 -0.8449  0.1541 -0.1564
  573MOL0     O77251  -1.204   2.818   4.751  0.3363  0.1458  0.2154
  573MOL0     C77252  -1.285   2.775   4.647  0.0457 -0.1877  0.2266
  573MOL0     C77253  -1.238   2.784   4.513  0.3396 -0.4965 -0.1225
  573MOL0     C77254  -1.306   2.719   4.405 -0.8369 -1.1419 -0.0339
  573MOL0     C77255  -1.434   2.679   4.421 -0.2214 -0.0995  0.1756
  573MOL0     O77256  -1.510   2.640   4.315  0.1685 -0.2053  0.7780
  573MOL0     C77257  -1.455   2.530   4.238 -0.3325  1.0891  0.5301
  573MOL0     C77258  -1.566   2.457   4.169 -0.3007 -0.8126  0.2280
  573MOL0     C77259  -1.520   2.338   4.101 -0.4006  0.8944 -0.0621
  573MOL0     C77260  -1.638   2.244   4.065  0.2726  0.5568 -0.7241
  573MOL0     C77261  -1.744   2.302   3.965 -0.1512 -0.9164 -0.1721
  573MOL0     C77262  -1.858   2.384   4.023  0.1686  0.2106  0.1639
  573MOL0     C77263  -1.958   2.427   3.907  0.1992 -0.1451 -0.5254
  573MOL0     C77264  -2.056   2.311   3.863  0.1494 -0.1312  0.1863
  573MOL0    Cl77265  -2.214   2.307   3.949 -0.1131  0.8818  0.0364
  573MOL0     C77266  -1.489   2.675   4.550 -0.6752 -0.2110 -0.5574
  573MOL0     C77267  -1.413   2.723   4.660  0.5198 -0.1638  0.1424
  573MOL0     O77268  -1.263   2.668   4.915 -0.4701  0.0583  0.1421
  573MOL0     C77269  -1.169   3.001   4.940  0.2565 -0.2934 -0.3029
  573MOL0     C77270  -1.122   3.101   5.030  0.7399  0.0572 -0.0125
  573MOL0     N77271  -0.616   3.561   5.510  0.6516  0.5367  0.8674
  573MOL0     N77272  -0.501   3.512   5.530 -0.9182  0.2229 -0.0868
  573MOL0     C77273   0.302   2.985   6.228  0.1165 -0.0014 -0.4222
  573MOL0     C77274   0.421   2.964   6.297  1.0681 -0.6292  0.1076
  573MOL0     C77275   0.809   2.752   6.425  0.7432  0.4491  1.7162
  573MOL0     C77276   0.857   2.634   6.469  0.2037  0.1411  0.6486
  573MOL0     C77277   0.985   2.626   6.527 -0.2298 -0.7409 -1.3820
  573MOL0     C77278   1.063   2.738   6.552  0.2094 -0.2417 -0.0372
  573MOL0     O77279   1.186   2.728   6.608  0.6386  0.1577  0.6858
  573MOL0     C77280   1.266   2.841   6.632  1.2245 -0.7908  0.2621
  573MOL0     C77281   1.377   2.782   6.715  0.2207 -0.5294  0.5965
  573MOL0     C77282   1.491   2.885   6.747 -0.0493 -0.4037  1.1553
  573MOL0     C77283   1.597   2.827   6.840 -0.5436  0.1468  0.2126
  573MOL0     C77284   1.702   2.926   6.844 -0.3033 -0.4847  0.8790
  573MOL0     C77285   1.804   3.000   6.845  0.0207 -0.6921  1.0904
  573MOL0     C77286   1.010   2.865   6.512  0.2649  0.6586  0.4860
  573MOL0     C77287   0.889   2.870   6.449 -0.0659  0.3730 -0.1790
  573MOL0     H77288   0.585   2.768   6.069  1.6211  0.1301  2.7717
  573MOL0     H77289   0.367   2.825   5.938 -0.0794  1.5348 -0.0562
  573MOL0     H77290   0.246   3.045   5.871  1.3075 -2.1572 -1.8403
  573MOL0     H77291   0.169   2.891   5.852  0.7247 -0.9448  2.7399
  573MOL0     H77292  -0.048   2.973   5.896  1.4005 -0.8711 -1.2106
  573MOL0     H77293   0.015   3.128   5.944  0.0805  1.2009 -1.7402
  573MOL0     H77294   0.081   3.188   5.713  0.1946 -0.3511 -0.5082
  573MOL0     H77295   0.051   3.025   5.658 -1.6570  0.5287 -1.2971
  573MOL0     H77296  -0.166   3.027   5.677 -0.5254 -0.9472  1.5391
  573MOL0     H77297  -0.184   3.179   5.765 -1.0525 -1.4676 -0.0703
  573MOL0     H77298  -0.120   3.323   5.607  1.6599 -0.7586  1.4245
  573MOL0     H77299  -0.063   3.204   5.494 -1.7444  0.9642 -0.8174
  573MOL0     H77300  -0.300   3.096   5.494 -2.7141  0.5055 -1.4899
  573MOL0     H77301  -0.355   3.247   5.576 -1.3926  1.0724 -1.3964
  573MOL0     H77302  -0.193   3.260   5.306 -1.1938  1.0982 -0.0090
  573MOL0     H77303  -0.366   3.228   5.309  1.1775 -0.4223 -1.5602
  573MOL0     H77304  -0.291   3.476   5.300 -1.3348  0.9849  0.1318
  573MOL0     H77305  -0.255   3.451   5.472  0.4260 -0.1761 -0.3851
  573MOL0     H77306  -0.569   3.365   5.242 -1.2966 -1.4759  1.1264
  573MOL0     H77307  -0.858   3.597   5.403 -0.8666 -1.5929  2.0207
  573MOL0     H77308  -0.809   3.535   5.240 -0.5452 -5.0534 -0.9111
  573MOL0     H77309  -0.856   3.369   5.491  0.8720 -2.9596 -0.2526
  573MOL0     H77310  -0.824   3.311   5.325  1.6503  2.0653  0.2033
  573MOL0     H77311  -1.065   3.485   5.363 -0.8380  0.0506 -0.8774
  573MOL0     H77312  -1.062   3.332   5.445 -2.0152 -2.1567 -1.0478
  573MOL0     H77313  -0.994   3.309   5.148 -0.0430 -2.6988  0.4376
  573MOL0     H77314  -1.168   3.331   5.197 -1.2463  0.5886 -1.6684
  573MOL0     H77315  -1.087   2.903   5.299  1.9869 -2.3120 -2.0993
  573MOL0     H77316  -1.271   2.657   5.182  0.2002 -1.5252 -1.5059
  573MOL0     H77317  -1.125   2.615   5.115 -1.8202 -0.4254 -1.3975
  573MOL0     H77318  -1.122   2.688   5.276  1.0152  1.9012 -1.3380
  573MOL0     H77319  -1.143   2.833   4.497 -1.6047  4.0599  0.8217
  573MOL0     H77320  -1.262   2.719   4.306 -1.9972 -0.1124 -0.5742
  573MOL0     H77321  -1.385   2.568   4.163 -0.5725  1.7427  0.6375
  573MOL0     H77322  -1.411   2.459   4.309 -3.5923 -1.9866 -0.2179
  573MOL0     H77323  -1.637   2.428   4.248  0.5377 -0.4398  1.1422
  573MOL0     H77324  -1.609   2.523   4.093 -0.8298 -0.4204  0.8612
  573MOL0     H77325  -1.446   2.286   4.163 -2.1532 -0.9519  0.5928
  573MOL0     H77326  -1.466   2.364   4.010  1.2449 -3.0734 -0.4356
  573MOL0     H77327  -1.596   2.152   4.023  1.3050 -1.1935  3.5977
  573MOL0     H77328  -1.687   2.216   4.158 -0.0228 -0.0112 -1.0469
  573MOL0     H77329  -1.788   2.218   3.911 -0.1522 -0.1803 -1.3530
  573MOL0     H77330  -1.686   2.363   3.895  0.5884 -0.3686  0.8759
  573MOL0     H77331  -1.911   2.305   4.077  1.5976 -2.9454 -2.7028
  573MOL0     H77332  -1.827   2.461   4.094  1.0295  0.7065 -0.7362
  573MOL0     H77333  -1.903   2.457   3.817  0.9309 -0.4500 -0.1810
  573MOL0     H77334  -2.022   2.507   3.946  2.1253  1.4358 -0.4670
  573MOL0     H77335  -2.021   2.208   3.878  0.8428 -0.0685 -0.8818
  573MOL0     H77336  -2.076   2.328   3.757  1.7961  0.1937 -0.1068
  573MOL0     H77337  -1.589   2.636   4.562 -0.3064 -0.7236  1.0988
  573MOL0     H77338  -1.449   2.691   4.758  1.5065  0.4997  0.7377
  573MOL0     H77339  -1.174   3.036   4.837  0.1264  0.6512  0.0105
  573MOL0     H77340  -1.096   3.200   4.994  2.3465  0.3782  1.8844
  573MOL0     H77341   0.213   3.028   6.273 -1.0670 -1.6672 -1.0536
  573MOL0     H77342   0.428   3.007   6.396  0.0946  0.3267 -0.2125
  573MOL0     H77343   0.802   2.541   6.464  2.5285 -1.2381 -2.2090
  573MOL0     H77344   1.021   2.531   6.567 -0.1283  0.3953  1.5219
  573MOL0     H77345   1.300   2.888   6.539  1.7765 -0.7006  0.5076
  573MOL0     H77346   1.208   2.923   6.676 -0.7966 -0.4615 -2.6762
  573MOL0     H77347   1.411   2.701   6.649  0.6629 -1.7761  2.2717
  573MOL0     H77348   1.341   2.737   6.808  1.3056  1.6585  2.1652
  573MOL0     H77349   1.443   2.967   6.801  2.0268  2.2971 -0.8215
  573MOL0     H77350   1.542   2.918   6.656 -0.6127 -2.5097  0.0008
  573MOL0     H77351   1.645   2.737   6.801 -0.6713 -0.1421  0.7137
  573MOL0     H77352   1.559   2.798   6.938  2.8272 -0.7972  1.3871
  573MOL0     H77353   1.892   3.060   6.839 -0.5800  0.0539 -1.5622
  573MOL0     H77354   1.069   2.956   6.508 -0.5879  1.1875 -1.3526
  573MOL0     H77355   0.857   2.967   6.415 -1.3147  0.1029  0.1857
  574MOL0     O77356   6.482   7.561   1.986 -0.0001 -0.5434 -0.5883
  574MOL0     C77357   6.556   7.501   1.906  0.5401  0.1604 -0.0370
  574MOL0     O77358   6.517   7.462   1.779 -0.0541  0.3989  0.1445
  574MOL0     C77359   6.381   7.467   1.758 -0.3476  0.3879 -0.9034
  574MOL0     C77360   6.300   7.363   1.792 -0.3354  0.0836  0.4212
  574MOL0     C77361   6.160   7.368   1.782  0.3676  0.5430  0.5776
  574MOL0     C77362   6.090   7.486   1.742  0.5889  0.2832  0.6869
  574MOL0     O77363   5.957   7.505   1.742 -0.1865 -0.2235  0.3781
  574MOL0     C77364   5.895   7.403   1.650  0.8367 -0.4430 -1.4187
  574MOL0     C77365   5.839   7.487   1.533 -0.2206 -0.0102 -0.2567
  574MOL0     C77366   5.721   7.588   1.569 -0.3531  0.5148  0.9975
  574MOL0     C77367   5.607   7.535   1.667 -0.4929 -0.1905 -0.6290
  574MOL0     C77368   5.504   7.656   1.678 -1.0825 -0.8370 -0.3644
  574MOL0     C77369   5.412   7.678   1.561  0.5153 -0.6069 -0.2227
  574MOL0     C77370   5.319   7.797   1.593  0.3955 -0.0068 -0.3824
  574MOL0     C77371   5.387   7.915   1.661 -0.5437 -0.3371 -0.3571
  574MOL0     N77372   5.304   8.027   1.626 -0.9335 -0.5050  0.8653
  574MOL0     C77373   5.187   8.065   1.694 -0.6700  0.1901  0.0520
  574MOL0     C77374   5.149   8.187   1.635  0.5070  0.4527 -1.0104
  574MOL0     C77375   5.049   8.282   1.675  0.0272  0.0714  0.1432
  574MOL0     C77376   4.899   8.234   1.663 -0.0215  0.3322  0.2818
  574MOL0     C77377   4.816   8.344   1.737 -0.4647  0.9623 -0.0498
  574MOL0     C77378   4.665   8.302   1.739  0.2122  0.3650 -0.2207
  574MOL0     O77379   4.625   8.192   1.824  0.2946  0.3035 -0.6455
  574MOL0     C77380   4.492   8.154   1.823  0.0664 -0.4314 -0.0582
  574MOL0     C77381   4.442   8.070   1.920  0.0624  0.4415 -0.4000
  574MOL0     C77382   4.313   8.028   1.927 -0.4855 -0.0774  0.2524
  574MOL0     C77383   4.271   7.943   2.044 -0.0475 -0.5392 -0.7614
  574MOL0     C77384   4.223   8.051   1.816  0.0672 -0.4752  0.2007
  574MOL0     C77385   4.076   8.003   1.810 -0.3989 -0.7464 -0.2368
  574MOL0     O77386   3.995   8.072   1.723 -0.1627  0.7438 -0.2127
  574MOL0     C77387   3.855   8.053   1.723  0.6454  0.1477  0.6157
  574MOL0     C77388   3.771   8.147   1.787 -0.3280 -1.1174  0.5344
  574MOL0     C77389   3.636   8.119   1.800  0.3584  0.1233 -0.6906
  574MOL0     C77390   3.574   8.011   1.731  0.4308 -0.0094 -1.0690
  574MOL0     O77391   3.439   7.988   1.741  0.3927  0.7207  0.2492
  574MOL0     C77392   3.354   8.070   1.816 -0.4451  0.2817  0.4207
  574MOL0     C77393   3.212   7.996   1.837 -0.4273 -0.3157 -0.3357
  574MOL0     C77394   3.140   7.932   1.712 -0.6963  0.5290  0.4409
  574MOL0     C77395   2.999   7.880   1.753  0.2852  0.8417  0.4817
  574MOL0     C77396   2.894   7.985   1.743  0.5213  0.2886 -0.2150
  574MOL0     C77397   2.758   7.950   1.809  0.9869 -0.2898  0.2340
  574MOL0     C77398   2.659   8.077   1.798 -0.4023  0.0468 -1.1031
  574MOL0     C77399   2.554   8.097   1.905 -0.2995  0.6878  0.2682
  574MOL0    Cl77400   2.456   7.940   1.936  0.3441 -0.5791 -0.1264
  574MOL0     C77401   3.662   7.924   1.666  0.0507  0.3281  0.6976
  574MOL0     C77402   3.801   7.943   1.665  0.5049 -0.4642  1.2951
  574MOL0     O77403   4.044   7.903   1.870 -0.3526  0.6384 -0.9309
  574MOL0     C77404   4.272   8.131   1.711 -0.6214 -0.1542  0.1022
  574MOL0     C77405   4.401   8.183   1.717 -0.6185  0.5731  0.2196
  574MOL0     N77406   5.251   8.222   1.538  0.3368  0.3165 -0.2395
  574MOL0     N77407   5.341   8.124   1.542  0.2772  0.4586 -0.0617
  574MOL0     C77408   6.175   7.587   1.697  0.0630  0.2517  0.1876
  574MOL0     C77409   6.316   7.576   1.702  0.2717  0.0594 -0.2704
  574MOL0     C77410   6.703   7.492   1.940  0.0067  0.1460 -0.4676
  574MOL0     C77411   6.743   7.505   2.076  0.1096 -0.5109 -0.3440
  574MOL0     C77412   6.880   7.502   2.102 -0.2134 -1.0184  0.2713
  574MOL0     C77413   6.972   7.510   1.997 -0.4363  0.9365 -0.6010
  574MOL0     O77414   7.103   7.509   2.037 -0.0394 -0.4515  0.0585
  574MOL0     C77415   7.202   7.453   1.947  0.0179  0.7778  0.0002
  574MOL0     C77416   7.325   7.415   2.032 -0.4882 -0.0996  0.3883
  574MOL0     C77417   7.392   7.534   2.107  0.1791 -0.7465  0.5004
  574MOL0     C77418   7.524   7.482   2.180 -0.2917  0.0784 -0.5440
  574MOL0     C77419   7.587   7.587   2.253 -0.4223 -0.4392 -0.4269
  574MOL0     C77420   7.636   7.684   2.311  0.6266 -0.2646  0.1844
  574MOL0     C77421   6.934   7.495   1.860  0.7674 -0.0418 -0.0363
  574MOL0     C77422   6.794   7.487   1.834 -0.0441 -0.2974 -0.3363
  574MOL0     H77423   6.360   7.287   1.841  0.8709  1.6906  1.5714
  574MOL0     H77424   6.103   7.280   1.810 -0.6391  0.8213 -0.4898
  574MOL0     H77425   5.971   7.327   1.629 -0.1021 -2.4260  1.5240
  574MOL0     H77426   5.805   7.356   1.693  1.2489 -0.0194 -0.0544
  574MOL0     H77427   5.923   7.538   1.484 -1.8583  1.9825 -1.1395
  574MOL0     H77428   5.795   7.415   1.464 -0.5333  0.3988 -0.4937
  574MOL0     H77429   5.766   7.682   1.602 -1.0217  0.8874  0.8685
  574MOL0     H77430   5.666   7.608   1.476  1.2271  2.0298  0.3500
  574MOL0     H77431   5.560   7.441   1.637 -1.6983  0.6447 -1.4542
  574MOL0     H77432   5.656   7.522   1.764 -3.8670  0.7944  1.3565
  574MOL0     H77433   5.443   7.644   1.768  0.4364  0.6176  0.9402
  574MOL0     H77434   5.566   7.745   1.688  0.5461 -1.2433 -4.7708
  574MOL0     H77435   5.462   7.712   1.470 -1.6108  1.8376 -0.6046
  574MOL0     H77436   5.351   7.588   1.543 -0.4936  0.2929 -1.4972
  574MOL0     H77437   5.266   7.833   1.504  0.0411  2.9636  0.9388
  574MOL0     H77438   5.248   7.769   1.671  2.1170  2.1351  2.1190
  574MOL0     H77439   5.488   7.936   1.625 -1.1221 -0.4433 -2.1154
  574MOL0     H77440   5.388   7.894   1.768 -2.4671 -0.3944 -0.3196
  574MOL0     H77441   5.149   8.011   1.780  1.7323 -1.0187  0.4230
  574MOL0     H77442   5.068   8.296   1.782 -2.7806 -1.3955  0.9266
  574MOL0     H77443   5.064   8.376   1.621 -0.2946  0.2914  0.4298
  574MOL0     H77444   4.887   8.133   1.704 -3.4443  0.9135  1.0521
  574MOL0     H77445   4.878   8.237   1.555 -0.0510  3.0005  0.2833
  574MOL0     H77446   4.835   8.444   1.696  0.8105  1.6561  2.1018
  574MOL0     H77447   4.851   8.349   1.840  2.1726 -0.5545 -0.7838
  574MOL0     H77448   4.637   8.284   1.635 -2.3319  0.6275  0.3595
  574MOL0     H77449   4.624   8.401   1.761  4.3979  1.9215  1.5901
  574MOL0     H77450   4.505   8.043   2.003 -0.9417 -0.5005  0.0858
  574MOL0     H77451   4.331   7.960   2.135  1.8846 -1.1350 -1.8719
  574MOL0     H77452   4.167   7.962   2.073  0.4437 -1.9818  2.3312
  574MOL0     H77453   4.268   7.840   2.008 -3.3159 -1.3427  1.3501
  574MOL0     H77454   3.829   8.229   1.828 -1.4416  0.2666 -0.6085
  574MOL0     H77455   3.574   8.187   1.858 -1.9475 -2.0735 -0.4074
  574MOL0     H77456   3.386   8.085   1.919 -0.1367 -1.1126  0.5512
  574MOL0     H77457   3.327   8.161   1.762 -3.4028 -0.3357  0.6809
  574MOL0     H77458   3.226   7.917   1.912 -2.8189 -0.7437 -0.2820
  574MOL0     H77459   3.143   8.065   1.885 -0.8003 -0.7020 -0.3144
  574MOL0     H77460   3.193   7.840   1.686 -1.0923  0.3427  0.2842
  574MOL0     H77461   3.137   8.007   1.632  0.2575  1.9506  1.6869
  574MOL0     H77462   2.977   7.793   1.690  0.1646  0.4387  1.0750
  574MOL0     H77463   3.007   7.839   1.854  1.8161  1.0247  0.4664
  574MOL0     H77464   2.864   7.984   1.638 -3.1961 -4.3653  0.5595
  574MOL0     H77465   2.932   8.079   1.784  5.0508 -0.0118 -3.1072
  574MOL0     H77466   2.708   7.858   1.776 -0.0017 -0.1743  1.3407
  574MOL0     H77467   2.769   7.934   1.916  2.5040 -2.0449 -0.1350
  574MOL0     H77468   2.611   8.079   1.700 -1.1273  0.2286 -0.7590
  574MOL0     H77469   2.720   8.168   1.806 -2.6027  1.6046 -1.1275
  574MOL0     H77470   2.491   8.177   1.866  1.5796  2.1632  0.1673
  574MOL0     H77471   2.599   8.125   2.001 -1.4647  1.1086  0.7091
  574MOL0     H77472   3.628   7.837   1.610  2.1931 -0.7481  0.9452
  574MOL0     H77473   3.871   7.871   1.624  0.2307  0.0450 -0.1241
  574MOL0     H77474   4.205   8.158   1.630 -1.5919  1.0733  1.2611
  574MOL0     H77475   4.434   8.243   1.633  0.0327  0.4795  0.3977
  574MOL0     H77476   6.147   7.688   1.671  2.4477  0.9497  0.0376
  574MOL0     H77477   6.380   7.653   1.661 -1.0201  0.9196 -0.7004
  574MOL0     H77478   6.674   7.533   2.155  2.3358 -2.6635  2.5941
  574MOL0     H77479   6.912   7.504   2.205 -0.0937 -0.5625  0.2248
  574MOL0     H77480   7.176   7.360   1.895  0.2249 -0.1065  1.4367
  574MOL0     H77481   7.218   7.537   1.879 -0.6453  1.8245  1.1002
  574MOL0     H77482   7.391   7.352   1.972  2.2686  3.3146 -0.5225
  574MOL0     H77483   7.271   7.352   2.103 -0.2071  0.0440  0.7328
  574MOL0     H77484   7.319   7.573   2.179  0.1619 -0.3733  0.2766
  574MOL0     H77485   7.420   7.621   2.048  2.5615 -2.5487 -1.2258
  574MOL0     H77486   7.592   7.449   2.101 -0.4880 -2.6204  0.3235
  574MOL0     H77487   7.506   7.395   2.243  2.5703 -0.9397 -1.0327
  574MOL0     H77488   7.663   7.775   2.360  2.4219 -0.9695  0.5677
  574MOL0     H77489   7.001   7.485   1.776 -1.2708  2.3011 -2.1042
  574MOL0     H77490   6.760   7.479   1.731  0.1554  0.2165 -0.4435
  575MOL0     O77491   5.352   6.121   4.831 -0.4908 -0.1709  0.4958
  575MOL0     C77492   5.389   6.009   4.816 -0.3148 -0.3886 -0.7369
  575MOL0     O77493   5.333   5.895   4.863 -0.1421 -0.7859 -0.0144
  575MOL0     C77494   5.213   5.894   4.924 -1.1311 -0.6739  0.1427
  575MOL0     C77495   5.099   5.954   4.873  0.5965  0.1421 -0.3128
  575MOL0     C77496   4.980   5.955   4.953 -0.5925  0.3393  0.7261
  575MOL0     C77497   4.988   5.900   5.081 -0.4094 -0.6820 -0.1122
  575MOL0     O77498   4.878   5.929   5.153 -0.1594 -0.0757  0.3984
  575MOL0     C77499   4.848   5.837   5.258  1.3372 -0.3051  0.2885
  575MOL0     C77500   4.694   5.835   5.282 -0.0944 -0.3032 -0.1998
  575MOL0     C77501   4.649   5.958   5.365 -0.1210 -0.6293 -0.1023
  575MOL0     C77502   4.515   5.941   5.420 -0.4557 -0.6657  0.3510
  575MOL0     C77503   4.480   6.073   5.490  0.1157 -0.2596  0.1858
  575MOL0     C77504   4.349   6.079   5.566  0.1383 -0.4782  0.1988
  575MOL0     C77505   4.336   6.202   5.661  0.0850 -0.6464 -0.0292
  575MOL0     C77506   4.212   6.174   5.740 -0.8514  0.2357 -0.2492
  575MOL0     N77507   4.097   6.195   5.653  0.0639 -0.4903 -0.3153
  575MOL0     C77508   4.049   6.317   5.611  0.7975  0.1420 -0.5255
  575MOL0     C77509   3.920   6.296   5.582  0.7255 -0.1286 -0.0601
  575MOL0     C77510   3.841   6.404   5.516 -0.2452  0.4500 -0.6254
  575MOL0     C77511   3.785   6.508   5.613  0.1170  0.4709  0.0962
  575MOL0     C77512   3.690   6.449   5.713 -0.5198  0.4735  0.7642
  575MOL0     C77513   3.658   6.552   5.820 -1.3035 -0.3379 -0.2792
  575MOL0     O77514   3.555   6.489   5.903  0.3036  0.7295 -0.0457
  575MOL0     C77515   3.420   6.500   5.884  0.7029 -0.6371  0.2387
  575MOL0     C77516   3.355   6.616   5.837 -0.3523  0.5360 -1.6175
  575MOL0     C77517   3.216   6.636   5.834 -0.3562  0.0801 -0.1853
  575MOL0     C77518   3.160   6.769   5.785 -0.6069  0.3993 -0.7176
  575MOL0     C77519   3.140   6.521   5.868  0.3388 -0.5208  0.0106
  575MOL0     C77520   2.989   6.513   5.847 -0.3536  0.3542 -0.1915
  575MOL0     O77521   2.921   6.391   5.875 -0.1134  0.8318 -0.2863
  575MOL0     C77522   2.784   6.383   5.844 -0.0759 -0.4449  1.2695
  575MOL0     C77523   2.698   6.344   5.937 -0.0955  0.4471 -0.2685
  575MOL0     C77524   2.559   6.332   5.926  0.5786  0.1390  0.7007
  575MOL0     C77525   2.499   6.365   5.799 -0.1850  0.1734  0.3601
  575MOL0     O77526   2.358   6.380   5.792  0.6230  0.3656 -0.1520
  575MOL0     C77527   2.292   6.439   5.682 -0.3174  0.6996 -0.3684
  575MOL0     C77528   2.146   6.489   5.708 -1.1451 -0.2388  0.4234
  575MOL0     C77529   2.130   6.646   5.721  0.2128  0.1062 -0.4651
  575MOL0     C77530   2.229   6.708   5.815 -0.1635  0.2147  0.5908
  575MOL0     C77531   2.261   6.857   5.776  0.0615 -0.1159  0.1804
  575MOL0     C77532   2.142   6.955   5.764  0.4147 -0.1297 -0.1883
  575MOL0     C77533   2.085   6.980   5.897  0.3303  0.4860 -0.5070
  575MOL0     C77534   1.958   7.069   5.890 -0.2593 -0.1189 -0.0024
  575MOL0    Cl77535   1.974   7.225   5.791 -0.3282 -0.8289  0.1919
  575MOL0     C77536   2.589   6.408   5.694  1.5685  0.5419 -0.4073
  575MOL0     C77537   2.731   6.415   5.715 -0.5997 -0.8160 -0.4536
  575MOL0     O77538   2.933   6.616   5.832  0.7277  0.4208 -0.0325
  575MOL0     C77539   3.199   6.409   5.920 -0.2280  0.5103  0.0725
  575MOL0     C77540   3.333   6.405   5.930 -0.4835  0.2663  0.3165
  575MOL0     N77541   3.901   6.160   5.585  0.8214  0.1304  0.8807
  575MOL0     N77542   4.003   6.101   5.633 -0.1730 -0.2181 -0.5463
  575MOL0     C77543   5.099   5.837   5.126 -0.3664  0.0434 -0.0224
  575MOL0     C77544   5.211   5.825   5.047 -0.6263 -0.7753 -0.9454
  575MOL0     C77545   5.526   6.006   4.762  0.1006  0.2248  0.1469
  575MOL0     C77546   5.594   5.891   4.723 -0.1168  0.3747 -0.0482
  575MOL0     C77547   5.719   5.890   4.660  0.2930 -0.2809 -0.1805
  575MOL0     C77548   5.783   6.005   4.629  0.0432 -1.1355  0.3377
  575MOL0     O77549   5.900   5.993   4.556  1.2416  0.0457  0.3330
  575MOL0     C77550   5.998   6.090   4.589  0.5471  0.6276  0.7788
  575MOL0     C77551   6.130   6.080   4.511 -0.5456  0.4889  0.4183
  575MOL0     C77552   6.093   6.112   4.367  0.6163  0.5058  0.0064
  575MOL0     C77553   6.212   6.128   4.268 -0.0022  0.0406  0.8115
  575MOL0     C77554   6.171   6.223   4.158  0.9953  0.2480 -0.4149
  575MOL0     C77555   6.126   6.304   4.081  0.4616  0.3399  0.1299
  575MOL0     C77556   5.730   6.122   4.679  0.0771 -0.8368 -0.8186
  575MOL0     C77557   5.609   6.126   4.752 -0.6290 -0.2909 -0.4317
  575MOL0     H77558   5.107   5.992   4.772 -0.3023 -1.5534 -1.0513
  575MOL0     H77559   4.891   6.008   4.921  0.2398  0.6814 -1.1859
  575MOL0     H77560   4.880   5.738   5.226  0.4187 -0.3157 -0.6400
  575MOL0     H77561   4.890   5.871   5.353  0.3410 -2.6044  1.6288
  575MOL0     H77562   4.638   5.831   5.189  1.3922 -0.3828 -1.1272
  575MOL0     H77563   4.676   5.737   5.328 -0.7996 -0.1085 -0.0410
  575MOL0     H77564   4.722   5.971   5.446 -0.0151 -0.4002 -0.2343
  575MOL0     H77565   4.653   6.041   5.294  5.7121 -0.0145  0.4548
  575MOL0     H77566   4.442   5.917   5.342  0.1809  0.0331 -0.4806
  575MOL0     H77567   4.512   5.863   5.496 -0.1957 -1.2225 -0.2078
  575MOL0     H77568   4.558   6.094   5.564  0.6297 -0.1997 -0.3679
  575MOL0     H77569   4.495   6.166   5.433 -1.2261 -0.0068  0.1960
  575MOL0     H77570   4.260   6.086   5.502 -1.1051 -0.9983  1.8152
  575MOL0     H77571   4.343   5.988   5.625  1.5685  0.5830  2.1127
  575MOL0     H77572   4.426   6.208   5.723  0.9837  3.1276 -1.3885
  575MOL0     H77573   4.336   6.302   5.616  0.1481 -0.3628  0.5849
  575MOL0     H77574   4.208   6.244   5.824  0.2477 -2.7656  2.5506
  575MOL0     H77575   4.212   6.075   5.788 -2.1092  0.7780  0.9280
  575MOL0     H77576   4.096   6.415   5.611  0.2154  0.4912  1.8470
  575MOL0     H77577   3.905   6.453   5.442 -0.1443  1.1980 -0.0496
  575MOL0     H77578   3.764   6.349   5.462 -1.1452 -2.4896  3.2054
  575MOL0     H77579   3.726   6.581   5.556  0.1029 -0.6046 -1.3299
  575MOL0     H77580   3.869   6.561   5.659 -0.7884  2.2840 -0.2625
  575MOL0     H77581   3.731   6.364   5.768 -1.1698 -0.2102  0.2119
  575MOL0     H77582   3.597   6.417   5.665 -1.3278  1.3974  1.6748
  575MOL0     H77583   3.621   6.647   5.779 -2.0044  0.6801  2.4715
  575MOL0     H77584   3.740   6.571   5.890 -1.6420 -1.2063  0.3774
  575MOL0     H77585   3.424   6.696   5.809  0.3928  1.3101  1.9726
  575MOL0     H77586   3.241   6.841   5.772 -1.6033  2.0123  1.2214
  575MOL0     H77587   3.113   6.753   5.688 -0.8830 -2.4470 -0.2098
  575MOL0     H77588   3.089   6.805   5.861  1.3480  0.0249  1.3795
  575MOL0     H77589   2.732   6.323   6.038 -0.4058  0.2093 -0.2109
  575MOL0     H77590   2.507   6.298   6.014 -2.0662 -1.5127 -1.3489
  575MOL0     H77591   2.345   6.519   5.630  1.6799 -0.4492 -0.1875
  575MOL0     H77592   2.282   6.361   5.607  3.1984  0.6197 -0.9065
  575MOL0     H77593   2.082   6.462   5.623 -0.6253 -0.5030  0.1111
  575MOL0     H77594   2.100   6.441   5.795 -1.0904 -2.7212 -0.8347
  575MOL0     H77595   2.026   6.663   5.752 -0.3734 -2.3925 -0.8179
  575MOL0     H77596   2.138   6.687   5.620 -0.6077 -1.2598 -1.1217
  575MOL0     H77597   2.185   6.693   5.914 -1.3606 -0.9413 -0.0883
  575MOL0     H77598   2.327   6.658   5.813  1.0412  2.1731  3.3305
  575MOL0     H77599   2.314   6.866   5.681 -1.4264  0.2104 -0.6479
  575MOL0     H77600   2.334   6.900   5.845  3.9541 -1.0366 -2.9995
  575MOL0     H77601   2.168   7.053   5.724  0.0840  1.2412  2.6994
  575MOL0     H77602   2.058   6.921   5.704 -0.2206  2.0575 -0.6329
  575MOL0     H77603   2.162   7.034   5.952  1.1815 -1.5723  0.4396
  575MOL0     H77604   2.061   6.887   5.949  0.2439 -0.3151 -1.9232
  575MOL0     H77605   1.927   7.094   5.992 -1.2517 -1.9754  0.2054
  575MOL0     H77606   1.876   7.014   5.842 -0.4030 -0.3815  0.5325
  575MOL0     H77607   2.542   6.434   5.599 -1.5369 -0.9472  0.5640
  575MOL0     H77608   2.795   6.439   5.630  1.7871  1.9149  1.9015
  575MOL0     H77609   3.139   6.324   5.952 -0.9825  1.1876  0.4765
  575MOL0     H77610   3.367   6.311   5.973  1.2115  1.1320  0.9593
  575MOL0     H77611   5.104   5.797   5.227 -0.9026 -1.9669 -0.7411
  575MOL0     H77612   5.297   5.782   5.097 -0.6909 -1.4907 -1.4444
  575MOL0     H77613   5.553   5.792   4.744  0.7949  0.1461  0.6745
  575MOL0     H77614   5.760   5.797   4.624  0.7569  0.3950 -1.4499
  575MOL0     H77615   5.951   6.183   4.557 -0.9299 -0.4045 -0.1891
  575MOL0     H77616   6.019   6.089   4.696  1.9692  0.5157  0.5184
  575MOL0     H77617   6.176   5.981   4.518 -1.1737  0.2597  1.7637
  575MOL0     H77618   6.203   6.150   4.554  2.0228 -0.7943 -1.5957
  575MOL0     H77619   6.033   6.203   4.355 -0.3577 -0.4576 -3.8033
  575MOL0     H77620   6.031   6.028   4.334  1.7843 -0.9804  1.4785
  575MOL0     H77621   6.223   6.025   4.232 -2.2108 -0.2253  0.7452
  575MOL0     H77622   6.301   6.164   4.320 -1.6238  1.6383  2.6477
  575MOL0     H77623   6.065   6.369   4.021  0.3293 -2.1083 -2.5916
  575MOL0     H77624   5.777   6.217   4.654 -2.8721  0.1325 -3.2002
  575MOL0     H77625   5.570   6.220   4.790  1.1345  0.0472  0.6606
  576MOL0     O77626   2.719   2.836   5.106  0.6942  0.1199  0.3234
  576MOL0     C77627   2.707   2.715   5.083  0.3161  0.2435  0.0484
  576MOL0     O77628   2.612   2.656   5.012  0.5446  0.2688  0.1483
  576MOL0     C77629   2.518   2.742   4.952  0.2612  0.3606  0.6163
  576MOL0     C77630   2.514   2.736   4.811  0.2599 -0.1877 -0.1594
  576MOL0     C77631   2.418   2.825   4.750 -0.5980  0.1065 -0.0031
  576MOL0     C77632   2.319   2.883   4.817  0.8960 -0.0146 -0.7557
  576MOL0     O77633   2.200   2.928   4.751 -0.1796  0.0031 -0.1592
  576MOL0     C77634   2.154   3.053   4.806 -0.1263  0.0390  0.4252
  576MOL0     C77635   2.045   3.101   4.706 -0.7536  0.4267 -0.1436
  576MOL0     C77636   1.927   3.003   4.686  0.0681  0.4882  0.0519
  576MOL0     C77637   1.833   3.030   4.567 -0.1678 -0.8448 -0.3438
  576MOL0     C77638   1.737   2.915   4.550 -0.1848  0.3777  0.1029
  576MOL0     C77639   1.651   2.942   4.435 -0.1482  0.2572  0.4178
  576MOL0     C77640   1.518   2.859   4.438 -0.0154 -0.6176 -0.0369
  576MOL0     C77641   1.425   2.921   4.331  0.4888  0.3430  0.0888
  576MOL0     N77642   1.356   3.053   4.369 -0.5859 -0.0455  0.6360
  576MOL0     C77643   1.310   3.141   4.276 -0.1135  0.1939 -0.4432
  576MOL0     C77644   1.282   3.256   4.344 -0.3827 -0.3297 -0.8135
  576MOL0     C77645   1.223   3.376   4.291  0.1485 -0.5436 -0.5692
  576MOL0     C77646   1.067   3.376   4.289  0.6530  0.3486  0.3527
  576MOL0     C77647   0.996   3.394   4.428 -0.4144  0.2617 -0.6586
  576MOL0     C77648   0.864   3.316   4.440  1.1144  0.5275 -0.3139
  576MOL0     O77649   0.774   3.390   4.354  0.4523  0.4581 -0.5562
  576MOL0     C77650   0.639   3.372   4.372 -0.4671 -0.2068 -0.5344
  576MOL0     C77651   0.587   3.250   4.413  0.4044  1.0493  0.9184
  576MOL0     C77652   0.448   3.229   4.430 -0.0066 -0.1963 -0.0205
  576MOL0     C77653   0.400   3.101   4.493 -0.7232  0.8464  0.4694
  576MOL0     C77654   0.361   3.334   4.395 -0.0992 -0.4042 -0.2749
  576MOL0     C77655   0.215   3.323   4.399 -0.0391 -0.9065  0.3985
  576MOL0     O77656   0.150   3.444   4.364  0.1964 -0.1175 -0.8551
  576MOL0     C77657   0.024   3.461   4.395  0.6967 -0.5782 -0.4153
  576MOL0     C77658  -0.014   3.507   4.518 -0.3064  0.8478 -0.3116
  576MOL0     C77659  -0.147   3.525   4.552 -0.0431 -0.3162  0.4267
  576MOL0     C77660  -0.252   3.494   4.462 -0.6372 -0.2239 -0.7373
  576MOL0     O77661  -0.378   3.529   4.484  0.0827  0.0015 -0.4344
  576MOL0     C77662  -0.423   3.555   4.613  0.6019 -0.3574 -0.4441
  576MOL0     C77663  -0.570   3.609   4.600 -0.9951  0.0850  0.3289
  576MOL0     C77664  -0.653   3.523   4.496 -0.1131 -0.0734 -0.3764
  576MOL0     C77665  -0.798   3.568   4.507  0.1462 -0.2391 -0.3012
  576MOL0     C77666  -0.905   3.469   4.449  0.6024  0.4332  0.1477
  576MOL0     C77667  -1.007   3.545   4.369 -0.1686  0.4363 -0.2938
  576MOL0     C77668  -1.096   3.456   4.285 -0.4052  0.1373 -0.7846
  576MOL0     C77669  -1.208   3.527   4.219  0.7015  0.4693 -0.0574
  576MOL0    Cl77670  -1.309   3.411   4.136 -0.0541 -0.2744 -0.1464
  576MOL0     C77671  -0.218   3.444   4.336 -0.3297  0.4714  1.1710
  576MOL0     C77672  -0.081   3.419   4.306  0.1173  0.0148  0.1931
  576MOL0     O77673   0.152   3.224   4.429 -0.7797 -0.4117 -0.3899
  576MOL0     C77674   0.421   3.463   4.357 -0.0034  0.5124 -0.6077
  576MOL0     C77675   0.561   3.482   4.344  0.0255 -0.2664 -0.4806
  576MOL0     N77676   1.297   3.220   4.478 -0.2521 -0.4448  0.0194
  576MOL0     N77677   1.357   3.102   4.493 -0.1812 -1.2606 -0.0374
  576MOL0     C77678   2.314   2.877   4.960  0.9493  0.4669 -0.3713
  576MOL0     C77679   2.416   2.808   5.021  0.7528  0.6278 -0.3283
  576MOL0     C77680   2.804   2.623   5.152 -0.4331  0.6342 -0.0742
  576MOL0     C77681   2.896   2.667   5.256 -0.5505  0.4240  0.6408
  576MOL0     C77682   2.983   2.573   5.312 -0.6561 -0.2042  0.7027
  576MOL0     C77683   2.983   2.436   5.272  0.7863  0.9734  0.1640
  576MOL0     O77684   3.066   2.350   5.343  0.2182  0.5587  0.5296
  576MOL0     C77685   3.164   2.303   5.258 -0.0327  0.0887  0.0582
  576MOL0     C77686   3.288   2.292   5.338  0.1054  0.5552 -0.4336
  576MOL0     C77687   3.292   2.152   5.414  0.5276 -1.1297  0.5621
  576MOL0     C77688   3.418   2.147   5.489 -0.6704  0.3912 -1.0212
  576MOL0     C77689   3.425   2.032   5.585  0.7202  0.5304 -0.2436
  576MOL0     C77690   3.399   1.931   5.652 -0.5156  0.4021 -0.2908
  576MOL0     C77691   2.902   2.396   5.174  0.7451  0.3059  0.4147
  576MOL0     C77692   2.827   2.491   5.111  0.1395  0.0969 -0.6070
  576MOL0     H77693   2.586   2.681   4.751 -2.7740 -1.4713 -2.9762
  576MOL0     H77694   2.414   2.832   4.642 -2.5020  2.8835  0.1365
  576MOL0     H77695   2.113   3.033   4.905 -2.4765 -2.5246 -0.9278
  576MOL0     H77696   2.237   3.125   4.809 -0.5246  0.4831  3.7540
  576MOL0     H77697   2.010   3.196   4.749 -0.2287  0.1347  0.9556
  576MOL0     H77698   2.091   3.131   4.611  0.6413 -0.4902  0.2303
  576MOL0     H77699   1.968   2.903   4.673  2.5142  1.3885  0.3470
  576MOL0     H77700   1.867   3.002   4.778  1.6380  2.3351  1.1857
  576MOL0     H77701   1.780   3.124   4.585 -0.8091 -1.1598 -0.5526
  576MOL0     H77702   1.896   3.047   4.479  0.1033  0.1076  0.0281
  576MOL0     H77703   1.778   2.816   4.532 -1.0176  0.0114  0.1598
  576MOL0     H77704   1.676   2.909   4.641  0.8606 -0.8699  0.7529
  576MOL0     H77705   1.624   3.048   4.441  0.9357  0.4721  2.4136
  576MOL0     H77706   1.702   2.918   4.341 -0.9731  0.3110 -0.0605
  576MOL0     H77707   1.538   2.752   4.424  0.8722 -0.1973 -2.3137
  576MOL0     H77708   1.476   2.870   4.538 -2.7142  0.8945 -1.2327
  576MOL0     H77709   1.345   2.849   4.311 -0.6096  2.4415 -4.3029
  576MOL0     H77710   1.474   2.919   4.233 -1.5678 -1.6774 -0.9833
  576MOL0     H77711   1.309   3.124   4.168  1.9983 -0.1988 -0.4547
  576MOL0     H77712   1.243   3.453   4.367 -1.6382 -1.9832  1.5146
  576MOL0     H77713   1.263   3.397   4.192  1.4488 -0.2090  0.0037
  576MOL0     H77714   1.025   3.288   4.239 -2.4673  2.1437 -0.4420
  576MOL0     H77715   1.032   3.462   4.230 -4.1194 -0.5178  1.5894
  576MOL0     H77716   0.974   3.499   4.449  0.8715  0.9372 -2.4236
  576MOL0     H77717   1.065   3.373   4.510 -1.4854  2.0979  0.7881
  576MOL0     H77718   0.815   3.322   4.537 -0.2434 -1.1989 -0.8259
  576MOL0     H77719   0.875   3.210   4.413 -2.9854 -0.3154  0.6418
  576MOL0     H77720   0.656   3.166   4.412 -0.4255  0.2913 -1.1929
  576MOL0     H77721   0.364   3.042   4.408  3.3103 -2.1146  0.5257
  576MOL0     H77722   0.489   3.052   4.533 -0.0952  0.0193 -1.8047
  576MOL0     H77723   0.328   3.110   4.575 -3.2516  0.1743 -1.5535
  576MOL0     H77724   0.064   3.527   4.591 -1.3894  0.6340  0.9368
  576MOL0     H77725  -0.176   3.529   4.657  2.2933 -1.3911  1.1753
  576MOL0     H77726  -0.416   3.468   4.680  1.8925  0.8510  1.0775
  576MOL0     H77727  -0.358   3.633   4.653  2.5997 -1.8996 -0.4832
  576MOL0     H77728  -0.613   3.599   4.700 -1.3281  0.4434  0.2220
  576MOL0     H77729  -0.581   3.714   4.573 -2.0401 -0.2999 -0.8161
  576MOL0     H77730  -0.653   3.419   4.531 -0.5327 -0.7388 -2.2525
  576MOL0     H77731  -0.617   3.536   4.394 -0.0524  1.3504 -0.1940
  576MOL0     H77732  -0.818   3.588   4.612  1.2853  1.9327 -0.4271
  576MOL0     H77733  -0.798   3.664   4.454 -0.1850 -1.3252 -2.4108
  576MOL0     H77734  -0.956   3.414   4.528  1.2671 -1.3368 -0.5934
  576MOL0     H77735  -0.859   3.394   4.384  1.8847  1.8705 -0.6862
  576MOL0     H77736  -1.050   3.615   4.442  2.0461 -1.4379  3.0981
  576MOL0     H77737  -0.957   3.605   4.293  0.5264 -0.3256 -0.4597
  576MOL0     H77738  -1.138   3.371   4.338  0.6474 -1.4531 -2.3637
  576MOL0     H77739  -1.036   3.411   4.205  0.5436 -0.6293  0.3268
  576MOL0     H77740  -1.170   3.609   4.156  1.2682  2.0491  2.2242
  576MOL0     H77741  -1.271   3.576   4.294  0.3188 -0.8928  0.5309
  576MOL0     H77742  -0.294   3.422   4.261 -1.1588 -0.0759  2.1425
  576MOL0     H77743  -0.051   3.368   4.215 -0.1079 -0.9336  0.6297
  576MOL0     H77744   0.352   3.545   4.348  1.2135  1.5448 -0.8199
  576MOL0     H77745   0.601   3.576   4.308  1.3711 -1.1749 -1.4998
  576MOL0     H77746   2.228   2.910   5.017 -0.8769 -1.5573 -1.7841
  576MOL0     H77747   2.411   2.793   5.128  1.5285  1.8438 -0.0982
  576MOL0     H77748   2.902   2.769   5.292 -0.8315  1.3534 -1.7490
  576MOL0     H77749   3.056   2.595   5.389  0.6471  1.0791 -0.8163
  576MOL0     H77750   3.130   2.205   5.222 -0.7180  1.5914 -3.7682
  576MOL0     H77751   3.190   2.364   5.171  0.3151  0.9366  0.7370
  576MOL0     H77752   3.288   2.375   5.410  1.1145 -0.4760  0.8178
  576MOL0     H77753   3.371   2.303   5.268 -0.7306  3.6378 -1.1222
  576MOL0     H77754   3.286   2.078   5.334  0.3424  0.6486 -1.1222
  576MOL0     H77755   3.206   2.156   5.482  0.4802  0.4673  0.4466
  576MOL0     H77756   3.433   2.236   5.549 -1.0939 -0.8943  1.0924
  576MOL0     H77757   3.502   2.136   5.419 -0.6074  0.4472 -0.9542
  576MOL0     H77758   3.416   1.840   5.707  0.8005  0.4600 -0.5768
  576MOL0     H77759   2.886   2.293   5.143 -1.5593  0.5889  0.5549
  576MOL0     H77760   2.753   2.451   5.043 -1.2404 -0.7982  1.3353
  577MOL0     O77761   1.994   6.480   5.304 -0.3936 -0.0430 -1.0395
  577MOL0     C77762   1.979   6.520   5.186  0.0670 -0.7617  0.2028
  577MOL0     O77763   1.894   6.613   5.156  0.5201  0.4463  0.3346
  577MOL0     C77764   1.773   6.626   5.214 -0.0038  0.0581 -0.4513
  577MOL0     C77765   1.706   6.756   5.198 -0.3437 -0.2973  0.3057
  577MOL0     C77766   1.573   6.780   5.232  0.0903 -0.2162  0.4116
  577MOL0     C77767   1.502   6.668   5.274 -0.9013  0.0699  0.0211
  577MOL0     O77768   1.371   6.697   5.295 -0.0378 -0.1285 -0.4947
  577MOL0     C77769   1.277   6.607   5.237  0.0125  0.5503 -0.4534
  577MOL0     C77770   1.140   6.680   5.227  0.5322  0.0310  0.6584
  577MOL0     C77771   1.044   6.578   5.151 -1.0273 -0.0647  0.1413
  577MOL0     C77772   0.898   6.635   5.153  0.9103  0.6655 -0.0842
  577MOL0     C77773   0.820   6.554   5.051  0.2294  0.4991 -0.1061
  577MOL0     C77774   0.679   6.607   5.005 -0.9162 -0.5930 -0.3882
  577MOL0     C77775   0.642   6.524   4.882  1.1917  0.0429 -0.1866
  577MOL0     C77776   0.495   6.538   4.835 -0.4468  0.7612 -0.4424
  577MOL0     N77777   0.402   6.542   4.949  0.3403  0.2345  0.1364
  577MOL0     C77778   0.322   6.439   5.000  0.0171  0.6369  0.2211
  577MOL0     C77779   0.231   6.502   5.077 -0.7545 -0.2100 -0.0260
  577MOL0     C77780   0.115   6.433   5.136 -1.0563  0.4260 -0.3966
  577MOL0     C77781   0.001   6.417   5.031  0.1046  0.2887  0.5518
  577MOL0     C77782  -0.129   6.487   5.082  0.6769  0.2248 -0.0416
  577MOL0     C77783  -0.232   6.491   4.967  0.2990 -0.8215  0.3452
  577MOL0     O77784  -0.271   6.359   4.914 -0.2395 -0.6818 -0.5519
  577MOL0     C77785  -0.404   6.347   4.887 -0.2091  1.3571  0.1416
  577MOL0     C77786  -0.450   6.215   4.898  0.7297 -0.0807 -0.1889
  577MOL0     C77787  -0.584   6.172   4.875 -0.2850  0.3002 -0.1962
  577MOL0     C77788  -0.619   6.025   4.870  1.6125  0.4086 -0.8057
  577MOL0     C77789  -0.669   6.284   4.831  0.1988 -0.2226  0.0599
  577MOL0     C77790  -0.805   6.254   4.771 -0.1166 -0.0755 -0.3912
  577MOL0     O77791  -0.886   6.360   4.767  0.3405 -0.1145 -0.0300
  577MOL0     C77792  -1.023   6.350   4.757  0.1455  0.6255  0.0146
  577MOL0     C77793  -1.090   6.301   4.649  1.4510 -1.3500  0.4943
  577MOL0     C77794  -1.230   6.308   4.647 -0.0154 -1.0906 -0.1710
  577MOL0     C77795  -1.303   6.368   4.749  0.6935 -0.8007 -0.4859
  577MOL0     O77796  -1.433   6.410   4.751 -0.2638 -0.2394  0.6870
  577MOL0     C77797  -1.509   6.424   4.629  0.1100 -0.5563 -0.2642
  577MOL0     C77798  -1.555   6.292   4.575 -0.0876 -0.4131 -0.0675
  577MOL0     C77799  -1.690   6.254   4.635  0.0524 -0.4737  0.2263
  577MOL0     C77800  -1.811   6.316   4.570  0.2111 -0.7551 -0.2230
  577MOL0     C77801  -1.941   6.276   4.634 -0.1213  1.0701  0.2752
  577MOL0     C77802  -2.053   6.313   4.546  0.7308 -0.5755 -0.0188
  577MOL0     C77803  -2.177   6.226   4.580 -0.6281 -0.6903 -0.2178
  577MOL0     C77804  -2.249   6.275   4.706  0.8858 -0.1061 -0.8472
  577MOL0    Cl77805  -2.386   6.189   4.742 -0.3548  0.0920  0.1996
  577MOL0     C77806  -1.230   6.410   4.862  0.1499 -0.0431  0.1113
  577MOL0     C77807  -1.093   6.397   4.864  0.4732  0.1835 -0.0600
  577MOL0     O77808  -0.833   6.138   4.735 -0.4669 -0.3608  0.7524
  577MOL0     C77809  -0.623   6.412   4.835  0.1966 -0.6422  0.0713
  577MOL0     C77810  -0.497   6.441   4.859 -0.5299 -0.1515  0.5183
  577MOL0     N77811   0.263   6.636   5.089 -0.1823 -0.2134  0.6042
  577MOL0     N77812   0.363   6.658   5.015 -0.0201 -0.1762 -0.4403
  577MOL0     C77813   1.563   6.541   5.284  0.1999 -0.3689 -0.1541
  577MOL0     C77814   1.697   6.519   5.256  0.1774 -0.6945 -0.6654
  577MOL0     C77815   2.079   6.469   5.087  0.1068  0.1289 -0.0603
  577MOL0     C77816   2.060   6.476   4.949  1.1293  0.0904  1.0440
  577MOL0     C77817   2.154   6.438   4.854  0.1497 -0.7649  0.0542
  577MOL0     C77818   2.275   6.378   4.897 -0.6042  0.2305  0.3091
  577MOL0     O77819   2.359   6.341   4.799  0.0161 -0.1545 -0.4756
  577MOL0     C77820   2.488   6.295   4.843 -0.4860  0.4197 -0.3011
  577MOL0     C77821   2.588   6.313   4.730 -0.0811  0.5612  0.2934
  577MOL0     C77822   2.612   6.452   4.673  0.1723  0.0139  0.6110
  577MOL0     C77823   2.712   6.450   4.563  0.5100  0.7738 -0.8882
  577MOL0     C77824   2.728   6.589   4.513 -0.3973 -0.1715  1.5530
  577MOL0     C77825   2.752   6.692   4.458 -0.1252  0.9056  0.8066
  577MOL0     C77826   2.295   6.365   5.041  0.0891 -0.3658  0.7879
  577MOL0     C77827   2.194   6.407   5.128 -1.2744 -0.0300  0.2111
  577MOL0     H77828   1.767   6.831   5.148  0.6461 -1.5866 -0.5141
  577MOL0     H77829   1.542   6.881   5.210 -0.4305 -0.6893 -1.1421
  577MOL0     H77830   1.316   6.574   5.140 -1.4272  0.4443 -1.0249
  577MOL0     H77831   1.252   6.516   5.292  2.2770 -0.5743 -1.1731
  577MOL0     H77832   1.095   6.708   5.323 -4.6588  0.0900 -1.4461
  577MOL0     H77833   1.156   6.768   5.165  2.3963 -0.3433  0.5763
  577MOL0     H77834   1.077   6.567   5.047  1.2864 -2.6095  1.0423
  577MOL0     H77835   1.059   6.476   5.186  0.9260 -0.2150 -0.9657
  577MOL0     H77836   0.861   6.616   5.254  1.1525  1.0484  0.0761
  577MOL0     H77837   0.901   6.743   5.137  0.2674  0.9727  1.6661
  577MOL0     H77838   0.881   6.541   4.961  0.1779  1.5120 -0.2957
  577MOL0     H77839   0.796   6.454   5.089  0.3554  0.5469  0.1038
  577MOL0     H77840   0.611   6.612   5.091  0.0536  1.8963  0.3327
  577MOL0     H77841   0.693   6.708   4.965  2.1312 -0.6656  0.2667
  577MOL0     H77842   0.705   6.563   4.802 -0.7300 -1.4050 -2.5484
  577MOL0     H77843   0.656   6.419   4.906  3.3578  0.4735  0.6221
  577MOL0     H77844   0.470   6.455   4.767 -0.4398 -0.4529  0.9842
  577MOL0     H77845   0.474   6.633   4.787  1.3429 -0.2388 -3.5314
  577MOL0     H77846   0.305   6.334   4.978 -0.5269  1.2650 -2.7292
  577MOL0     H77847   0.153   6.331   5.147 -0.0107  0.9590  1.1498
  577MOL0     H77848   0.085   6.472   5.234  0.9740 -3.0740  1.8433
  577MOL0     H77849  -0.012   6.314   4.998 -0.1314  0.8833 -1.3403
  577MOL0     H77850   0.029   6.467   4.937 -1.2751  0.0621 -0.0082
  577MOL0     H77851  -0.109   6.586   5.123  1.2676  0.3249 -0.5559
  577MOL0     H77852  -0.176   6.422   5.157 -0.8191 -2.8805 -3.3693
  577MOL0     H77853  -0.193   6.547   4.882  0.3407 -1.2114  0.1079
  577MOL0     H77854  -0.315   6.542   5.018 -0.4670 -1.3956 -0.2953
  577MOL0     H77855  -0.381   6.138   4.931  0.0400 -0.2634  0.8624
  577MOL0     H77856  -0.722   6.004   4.903  0.5865  1.0915 -3.3201
  577MOL0     H77857  -0.610   5.991   4.767 -2.1805 -3.6346 -0.0982
  577MOL0     H77858  -0.549   5.970   4.933  1.1815 -0.4988 -1.1107
  577MOL0     H77859  -1.046   6.238   4.573  0.0783 -2.2331  0.3914
  577MOL0     H77860  -1.286   6.274   4.561 -1.4499 -0.8222  0.6319
  577MOL0     H77861  -1.591   6.494   4.647  1.7635  0.9417  1.9665
  577MOL0     H77862  -1.444   6.463   4.551 -1.3409  0.0067 -1.2112
  577MOL0     H77863  -1.548   6.300   4.467 -0.9718 -1.0793 -0.1844
  577MOL0     H77864  -1.487   6.214   4.610 -1.9151 -1.4881  1.3076
  577MOL0     H77865  -1.695   6.298   4.735  2.8416  2.5375 -0.7548
  577MOL0     H77866  -1.693   6.145   4.639  2.4614 -0.5622  1.5695
  577MOL0     H77867  -1.808   6.424   4.588  2.0301 -0.5315 -1.5621
  577MOL0     H77868  -1.812   6.303   4.461 -0.3439  1.2068 -0.4951
  577MOL0     H77869  -1.970   6.320   4.730 -4.3279  2.2091 -1.2602
  577MOL0     H77870  -1.951   6.167   4.643  2.4856  0.6576 -1.1127
  577MOL0     H77871  -2.072   6.420   4.553  0.5696 -0.6770  1.2540
  577MOL0     H77872  -2.037   6.307   4.438  2.8572  2.1228  0.0367
  577MOL0     H77873  -2.147   6.121   4.590  0.5179 -0.2862  0.9264
  577MOL0     H77874  -2.246   6.220   4.495  1.9683 -1.4370 -2.4025
  577MOL0     H77875  -2.281   6.380   4.694 -1.1633  0.0295  3.7174
  577MOL0     H77876  -2.171   6.264   4.782  0.6802 -0.3887 -0.6786
  577MOL0     H77877  -1.280   6.452   4.949  0.2127 -0.3278  0.2843
  577MOL0     H77878  -1.040   6.434   4.952  0.4876 -1.1740  0.5254
  577MOL0     H77879  -0.695   6.491   4.816  0.3910 -0.9038 -2.0212
  577MOL0     H77880  -0.476   6.548   4.858 -0.9378 -0.0244  2.0708
  577MOL0     H77881   1.509   6.453   5.318  0.8614 -1.2321 -1.2666
  577MOL0     H77882   1.730   6.418   5.278 -1.4553 -1.0077  0.5489
  577MOL0     H77883   1.971   6.530   4.917  1.4183 -1.3069 -2.5757
  577MOL0     H77884   2.127   6.459   4.751  3.2980  1.9480 -0.3822
  577MOL0     H77885   2.542   6.350   4.920  2.5906 -1.7744 -0.7066
  577MOL0     H77886   2.470   6.190   4.871 -0.8239 -0.7828 -4.3422
  577MOL0     H77887   2.581   6.235   4.653  3.1663  0.8969 -0.5018
  577MOL0     H77888   2.687   6.287   4.769  0.4762  0.2823 -1.2633
  577MOL0     H77889   2.655   6.515   4.751 -0.2138  1.4752 -0.3062
  577MOL0     H77890   2.523   6.503   4.635 -0.2435  0.9316  2.6861
  577MOL0     H77891   2.677   6.388   4.480  0.4583  0.6053 -0.7420
  577MOL0     H77892   2.807   6.417   4.607  0.1072 -2.3766 -2.1366
  577MOL0     H77893   2.787   6.790   4.430 -0.2096  0.2934 -1.6356
  577MOL0     H77894   2.389   6.331   5.084  0.0290 -1.0239  0.4092
  577MOL0     H77895   2.223   6.409   5.233  0.2954  1.7236 -0.2048
  578MOL0     O77896   0.601   0.327   7.694 -0.1545 -0.1032 -0.2765
  578MOL0     C77897   0.692   0.245   7.675  0.1013  0.1895  1.4297
  578MOL0     O77898   0.674   0.115   7.650  0.6770  0.2958  0.2032
  578MOL0     C77899   0.559   0.054   7.684  0.5462  0.3385  0.3110
  578MOL0     C77900   0.480   0.088   7.798 -0.0808  0.1916  0.2378
  578MOL0     C77901   0.368   0.013   7.821  0.6242 -0.8135 -0.4017
  578MOL0     C77902   0.324  -0.084   7.731  0.0616  0.7095  0.3090
  578MOL0     O77903   0.209  -0.152   7.749 -0.5926  0.3956 -0.5749
  578MOL0     C77904   0.097  -0.084   7.799  0.5033  0.3321 -0.3269
  578MOL0     C77905  -0.024  -0.168   7.765  0.0955 -0.0790 -0.4279
  578MOL0     C77906  -0.161  -0.099   7.805 -0.1658  1.1688 -0.1179
  578MOL0     C77907  -0.199  -0.129   7.952 -0.6954 -1.0234 -0.1189
  578MOL0     C77908  -0.344  -0.114   7.982  0.0898  0.1387  0.0542
  578MOL0     C77909  -0.391   0.034   7.988  0.1453  0.2377 -0.2296
  578MOL0     C77910  -0.539   0.053   8.015 -0.0756 -0.1659  0.1422
  578MOL0     C77911  -0.579   0.188   7.981  0.6418  0.5789  0.0122
  578MOL0     N77912  -0.718   0.199   8.019  0.4725 -0.1866  0.2250
  578MOL0     C77913  -0.828   0.135   7.964  0.1310 -1.1504 -0.3179
  578MOL0     C77914  -0.939   0.177   8.035 -0.5017 -0.3811 -0.5256
  578MOL0     C77915  -1.074   0.123   8.016 -0.0052 -0.4185  0.7051
  578MOL0     C77916  -1.171   0.231   7.993 -0.0525  0.2160 -0.1271
  578MOL0     C77917  -1.318   0.176   7.978 -0.1174  0.4229  0.8545
  578MOL0     C77918  -1.437   0.279   8.004 -0.6920  0.1532 -0.1043
  578MOL0     O77919  -1.551   0.241   7.923  0.1490  0.7672  0.1933
  578MOL0     C77920  -1.672   0.287   7.970  0.5442  0.3762 -0.0765
  578MOL0     C77921  -1.696   0.396   8.057  0.6410 -0.0684  0.7033
  578MOL0     C77922  -1.817   0.437   8.107 -0.9205  0.4758  0.1061
  578MOL0     C77923  -1.826   0.558   8.193  0.3330  0.8279 -0.1205
  578MOL0     C77924  -1.929   0.358   8.075  0.4132 -0.5670 -0.1604
  578MOL0     C77925  -2.071   0.387   8.122  0.0126 -0.9107  0.6047
  578MOL0     O77926  -2.110   0.522   8.154  0.1757  0.0130 -0.0774
  578MOL0     C77927  -2.228   0.536   8.223 -1.6106  0.0851 -0.5934
  578MOL0     C77928  -2.227   0.517   8.359  0.1432 -0.2428  0.6082
  578MOL0     C77929  -2.336   0.554   8.434 -0.2919 -0.4467  0.2084
  578MOL0     C77930  -2.456   0.593   8.373 -0.1195  0.5128  0.4803
  578MOL0     O77931  -2.563   0.614   8.452  0.1272 -0.1578 -0.3422
  578MOL0     C77932  -2.669   0.704   8.417  0.6706 -0.0580  0.3531
  578MOL0     C77933  -2.788   0.637   8.376  0.3589 -0.4405  0.5633
  578MOL0     C77934  -2.847   0.565   8.499 -0.4920  0.4782 -0.3774
  578MOL0     C77935  -2.970   0.488   8.464  0.3985  0.6425  0.6440
  578MOL0     C77936  -3.100   0.569   8.458 -0.2022 -0.7907  0.5197
  578MOL0     C77937  -3.216   0.474   8.469  0.1158  0.1303 -0.1637
  578MOL0     C77938  -3.345   0.530   8.411 -0.1654 -0.1087 -0.8887
  578MOL0     C77939  -3.462   0.433   8.434 -0.3800  0.1559 -0.0229
  578MOL0    Cl77940  -3.491   0.421   8.609  0.2390  0.1419  0.1748
  578MOL0     C77941  -2.459   0.601   8.233 -0.1636  0.3373  0.0095
  578MOL0     C77942  -2.333   0.595   8.163 -0.7465 -0.0757  0.0796
  578MOL0     O77943  -2.154   0.295   8.119  0.2739  0.0118 -0.7999
  578MOL0     C77944  -1.907   0.243   7.990  0.1796 -0.3242 -0.7235
  578MOL0     C77945  -1.785   0.207   7.936 -0.2434  1.4136  0.4359
  578MOL0     N77946  -0.890   0.275   8.128 -0.2750  0.2276 -0.4345
  578MOL0     N77947  -0.765   0.281   8.121 -0.1811  0.0741 -0.1177
  578MOL0     C77948   0.407  -0.113   7.618  0.2664 -0.8514 -0.3292
  578MOL0     C77949   0.524  -0.047   7.596  0.0996 -0.3312 -0.2381
  578MOL0     C77950   0.833   0.294   7.684  0.4864  0.4756  0.0828
  578MOL0     C77951   0.866   0.414   7.740  0.4441 -0.8867  0.1994
  578MOL0     C77952   0.995   0.464   7.755 -0.1156 -0.2784  0.4341
  578MOL0     C77953   1.100   0.379   7.711  0.4337 -1.0919  0.1833
  578MOL0     O77954   1.232   0.413   7.725  0.2070 -0.1948  0.4808
  578MOL0     C77955   1.277   0.513   7.632 -0.1295 -0.2580  0.1060
  578MOL0     C77956   1.270   0.457   7.484 -0.1387 -0.5281 -0.8543
  578MOL0     C77957   1.154   0.540   7.413 -1.2489 -0.6290 -0.2363
  578MOL0     C77958   1.122   0.475   7.274 -0.3366  0.3450 -0.6894
  578MOL0     C77959   1.040   0.564   7.191  0.8855 -0.1687  0.2673
  578MOL0     C77960   0.958   0.647   7.147 -0.2328 -0.9799 -0.5478
  578MOL0     C77961   1.064   0.263   7.645  0.0218 -0.3757 -0.0739
  578MOL0     C77962   0.937   0.215   7.645  0.0388  0.8131 -0.0145
  578MOL0     H77963   0.516   0.157   7.874 -3.8972  0.7326  1.7621
  578MOL0     H77964   0.303   0.043   7.902  1.4655 -1.4177  0.5206
  578MOL0     H77965   0.109  -0.071   7.907 -2.6601  1.2291  0.0304
  578MOL0     H77966   0.083   0.009   7.743 -0.3327 -0.9519 -2.3499
  578MOL0     H77967  -0.032  -0.177   7.656 -4.9250  0.4649 -0.3226
  578MOL0     H77968  -0.013  -0.270   7.802 -0.6773 -0.4590 -1.2026
  578MOL0     H77969  -0.159   0.010   7.802 -1.7593  1.2675  1.0846
  578MOL0     H77970  -0.243  -0.136   7.743 -0.2475  0.8403  0.1844
  578MOL0     H77971  -0.180  -0.233   7.982 -0.6934 -1.0235 -0.1213
  578MOL0     H77972  -0.136  -0.069   8.016 -2.9840 -0.5042  1.7854
  578MOL0     H77973  -0.404  -0.160   7.902 -0.1826  1.6396 -0.6382
  578MOL0     H77974  -0.360  -0.165   8.077 -3.1951 -0.3496 -0.6342
  578MOL0     H77975  -0.345   0.091   8.069 -1.6987 -0.0904  1.1180
  578MOL0     H77976  -0.363   0.075   7.890  1.5169 -1.1383 -0.4576
  578MOL0     H77977  -0.593  -0.024   7.959  1.1235 -2.1491  1.5575
  578MOL0     H77978  -0.559   0.033   8.121 -0.4244 -1.0922 -0.0806
  578MOL0     H77979  -0.578   0.214   7.874  2.3899  3.9274  0.7056
  578MOL0     H77980  -0.520   0.258   8.041  0.7129  2.3780 -2.0241
  578MOL0     H77981  -0.834   0.065   7.881 -0.4252 -0.5617 -0.7845
  578MOL0     H77982  -1.074   0.061   7.926 -0.6988 -0.4515  0.7236
  578MOL0     H77983  -1.094   0.052   8.097 -1.0602 -0.1075  0.7226
  578MOL0     H77984  -1.151   0.293   7.906 -0.8224  1.0167  0.2570
  578MOL0     H77985  -1.154   0.294   8.081 -0.3838  1.3851 -0.8875
  578MOL0     H77986  -1.339   0.080   8.027 -0.6696  1.0883  1.9473
  578MOL0     H77987  -1.317   0.155   7.870 -1.1672  1.1306  0.6924
  578MOL0     H77988  -1.406   0.378   7.968  2.3566 -0.3844  0.7635
  578MOL0     H77989  -1.465   0.295   8.109 -1.8552  1.9832 -0.6418
  578MOL0     H77990  -1.605   0.450   8.082 -0.1352  2.1262 -0.8942
  578MOL0     H77991  -1.726   0.584   8.227  0.3572  1.1152 -0.4156
  578MOL0     H77992  -1.873   0.643   8.142 -2.0824 -1.8005 -2.6780
  578MOL0     H77993  -1.875   0.528   8.286 -0.2324 -1.9110 -1.1965
  578MOL0     H77994  -2.140   0.481   8.413  0.2626 -4.1848 -1.8014
  578MOL0     H77995  -2.336   0.535   8.541  2.3618 -1.6390  0.0764
  578MOL0     H77996  -2.686   0.769   8.503  0.7677  0.9551 -0.3731
  578MOL0     H77997  -2.646   0.770   8.333 -0.5900  1.1953  0.9394
  578MOL0     H77998  -2.861   0.706   8.333  0.9166 -0.2746 -0.1140
  578MOL0     H77999  -2.777   0.555   8.305  0.5676 -0.2466  0.3742
  578MOL0     H78000  -2.864   0.637   8.579  0.9224  1.0003 -0.5199
  578MOL0     H78001  -2.772   0.492   8.530 -1.0061  0.3959  0.7019
  578MOL0     H78002  -2.971   0.441   8.365 -4.4039  0.8488  0.3692
  578MOL0     H78003  -2.984   0.413   8.543 -2.2955 -0.1710 -0.4954
  578MOL0     H78004  -3.110   0.628   8.367  2.5323 -1.2018 -0.1283
  578MOL0     H78005  -3.098   0.633   8.548  0.0693 -2.0364  1.4239
  578MOL0     H78006  -3.178   0.389   8.411  4.5719  1.2975  0.6838
  578MOL0     H78007  -3.232   0.444   8.573 -1.0722  0.9216 -0.0997
  578MOL0     H78008  -3.336   0.546   8.303 -2.0938 -1.5749 -1.3227
  578MOL0     H78009  -3.353   0.628   8.460  2.0257 -0.7373  0.9100
  578MOL0     H78010  -3.439   0.334   8.394  0.5947  1.3416 -2.6391
  578MOL0     H78011  -3.546   0.470   8.375 -0.6544 -1.1618 -0.4844
  578MOL0     H78012  -2.558   0.615   8.190 -1.4021 -1.0785  2.2025
  578MOL0     H78013  -2.340   0.600   8.055 -3.0496 -0.6576  0.1515
  578MOL0     H78014  -1.992   0.179   7.969  0.6087 -1.9895  2.1482
  578MOL0     H78015  -1.764   0.118   7.877 -0.2383  1.5207  0.2768
  578MOL0     H78016   0.376  -0.186   7.545  3.3974 -2.0451 -0.6258
  578MOL0     H78017   0.588  -0.053   7.509  1.3647 -0.7003  0.6935
  578MOL0     H78018   0.786   0.478   7.776  0.3962 -1.0046  0.2998
  578MOL0     H78019   1.010   0.567   7.788  0.3539  0.4756 -1.9247
  578MOL0     H78020   1.223   0.608   7.633  0.9278  0.4428 -2.3074
  578MOL0     H78021   1.379   0.531   7.666 -0.6742 -0.0712  1.7555
  578MOL0     H78022   1.251   0.350   7.494 -2.2625  0.0012  2.3445
  578MOL0     H78023   1.365   0.471   7.431  1.2296 -1.1867  1.3085
  578MOL0     H78024   1.193   0.640   7.392 -2.5712 -0.3108 -1.2820
  578MOL0     H78025   1.067   0.551   7.479  1.1617  0.2167  3.0530
  578MOL0     H78026   1.062   0.384   7.285  2.3685 -1.7838 -2.1798
  578MOL0     H78027   1.215   0.445   7.225 -0.3323 -0.8514 -0.0028
  578MOL0     H78028   0.911   0.720   7.084  1.9654  0.6022 -0.4743
  578MOL0     H78029   1.141   0.202   7.598 -1.1090 -0.5852 -1.7581
  578MOL0     H78030   0.911   0.112   7.621  2.8087 -0.3047  1.2786
  579MOL0     O78031   5.062   9.054   6.119  0.4239 -0.3363  0.1793
  579MOL0     C78032   5.154   9.133   6.135 -0.0529 -0.3816 -0.5988
  579MOL0     O78033   5.172   9.256   6.076 -0.2923 -0.9870  0.6083
  579MOL0     C78034   5.113   9.282   5.957  0.3917  0.5893  0.6582
  579MOL0     C78035   5.195   9.325   5.850 -0.4493  0.1890 -0.2801
  579MOL0     C78036   5.133   9.354   5.720 -0.4415 -0.1056 -1.1045
  579MOL0     C78037   4.995   9.348   5.703  0.3328  0.0767  0.2431
  579MOL0     O78038   4.919   9.388   5.592 -0.0509  0.5290 -0.2694
  579MOL0     C78039   4.939   9.308   5.473  0.0555 -0.8716  0.3112
  579MOL0     C78040   4.844   9.349   5.353 -0.0370 -0.1431 -0.8255
  579MOL0     C78041   4.698   9.345   5.396 -0.3484 -0.1047 -0.5537
  579MOL0     C78042   4.609   9.449   5.316  0.6443 -0.1835  0.8113
  579MOL0     C78043   4.471   9.380   5.302  0.2600  0.6429 -0.2825
  579MOL0     C78044   4.364   9.462   5.230 -0.5737 -0.3169  0.3977
  579MOL0     C78045   4.220   9.409   5.248  0.2159  0.1554  0.6449
  579MOL0     C78046   4.119   9.504   5.192 -0.6323 -0.9633  1.2570
  579MOL0     N78047   3.992   9.429   5.192 -0.1815  0.1192 -0.0907
  579MOL0     C78048   3.957   9.337   5.093  0.5278 -0.6652 -0.1743
  579MOL0     C78049   3.831   9.294   5.131  0.4878  0.1757 -0.0572
  579MOL0     C78050   3.750   9.199   5.053 -0.2263 -0.4135  0.4915
  579MOL0     C78051   3.601   9.198   5.097 -1.0167  0.2592 -0.3717
  579MOL0     C78052   3.527   9.333   5.087 -0.6906 -0.4586  0.3504
  579MOL0     C78053   3.377   9.307   5.106 -0.6821 -0.3192  0.8794
  579MOL0     O78054   3.319   9.424   5.056 -0.6724  0.1458  0.2337
  579MOL0     C78055   3.185   9.441   5.065  0.1369  0.2641  0.8683
  579MOL0     C78056   3.097   9.340   5.091  0.6962  0.4370  0.6368
  579MOL0     C78057   2.961   9.367   5.091 -0.1312 -0.1674 -0.4219
  579MOL0     C78058   2.861   9.260   5.129 -0.2285  0.0367  0.2940
  579MOL0     C78059   2.912   9.497   5.055 -0.4017  0.1232  1.4047
  579MOL0     C78060   2.767   9.534   5.051  0.4082  0.5410 -0.5515
  579MOL0     O78061   2.670   9.438   5.073  0.0658  0.3029 -0.1348
  579MOL0     C78062   2.535   9.456   5.041 -0.1876 -0.5712 -0.3653
  579MOL0     C78063   2.462   9.571   5.055 -0.0533 -0.5245 -0.6331
  579MOL0     C78064   2.323   9.570   5.013 -0.5576 -0.4470  0.4720
  579MOL0     C78065   2.270   9.456   4.956 -0.1634  0.2040 -0.3295
  579MOL0     O78066   2.140   9.449   4.919  1.1996  0.2427 -0.2532
  579MOL0     C78067   2.043   9.552   4.937 -0.6889 -0.4290 -0.1690
  579MOL0     C78068   1.901   9.484   4.918 -0.3264  0.1345 -0.0106
  579MOL0     C78069   1.794   9.600   4.905 -0.5842 -0.1102 -0.0769
  579MOL0     C78070   1.655   9.546   4.869 -1.1997 -0.8137  0.1208
  579MOL0     C78071   1.553   9.651   4.910  0.7073  0.2348  0.0513
  579MOL0     C78072   1.411   9.628   4.870 -0.2734  0.2995 -0.6544
  579MOL0     C78073   1.329   9.746   4.906  0.2001 -0.0607  0.4609
  579MOL0     C78074   1.187   9.729   4.845 -0.2886  0.2511 -0.5016
  579MOL0    Cl78075   1.092   9.645   4.986 -0.0903 -0.0358  0.1912
  579MOL0     C78076   2.344   9.336   4.966  0.1036 -0.0150 -0.2251
  579MOL0     C78077   2.477   9.335   4.997 -0.7898 -0.2532  0.3775
  579MOL0     O78078   2.748   9.646   5.037  0.7445  0.1449 -0.4815
  579MOL0     C78079   3.003   9.592   5.014 -0.6486 -0.8065 -0.0913
  579MOL0     C78080   3.136   9.562   5.024  0.0654  0.2747 -0.0355
  579MOL0     N78081   3.802   9.350   5.254 -0.0743  0.2692  0.2775
  579MOL0     N78082   3.892   9.432   5.283 -0.0523  0.7020 -0.6569
  579MOL0     C78083   4.913   9.316   5.813  0.1575  0.4333  0.4516
  579MOL0     C78084   4.968   9.286   5.935  0.2514 -0.7156 -0.8360
  579MOL0     C78085   5.250   9.091   6.239  0.2517 -0.5639  0.5557
  579MOL0     C78086   5.311   8.965   6.241  0.2212  0.1005 -0.0929
  579MOL0     C78087   5.406   8.929   6.335 -0.7187 -0.0682 -0.1702
  579MOL0     C78088   5.442   9.024   6.430 -0.6691 -0.4420 -0.2362
  579MOL0     O78089   5.547   9.011   6.519  0.1673  0.6747  0.4587
  579MOL0     C78090   5.606   8.884   6.550 -0.8548  0.1232  0.2179
  579MOL0     C78091   5.724   8.891   6.637 -0.8365  0.7897 -0.1631
  579MOL0     C78092   5.807   9.021   6.616 -0.6394 -0.3201 -0.3987
  579MOL0     C78093   5.921   9.034   6.725 -1.1107  0.4147  0.2262
  579MOL0     C78094   6.030   8.929   6.716 -0.5476 -0.2735  0.6761
  579MOL0     C78095   6.112   8.842   6.709 -0.2452 -0.1963 -0.4309
  579MOL0     C78096   5.385   9.149   6.435 -0.1864 -0.7367 -0.0521
  579MOL0     C78097   5.292   9.191   6.333 -0.1424 -0.3791 -0.0911
  579MOL0     H78098   5.302   9.345   5.852 -0.3894  0.3421 -2.3798
  579MOL0     H78099   5.184   9.390   5.632  1.1493  1.1022  0.2604
  579MOL0     H78100   5.039   9.329   5.434 -0.5462  0.7336 -0.4299
  579MOL0     H78101   4.930   9.206   5.511 -0.2084 -0.3254  1.7927
  579MOL0     H78102   4.870   9.453   5.335 -2.3921  0.8343  0.9632
  579MOL0     H78103   4.868   9.281   5.271  0.7088 -0.6510 -0.2006
  579MOL0     H78104   4.660   9.244   5.375  1.8942 -1.3251  0.8611
  579MOL0     H78105   4.690   9.363   5.504  0.2263  1.0145 -0.6878
  579MOL0     H78106   4.613   9.546   5.367 -2.4113  0.7639 -0.5526
  579MOL0     H78107   4.655   9.459   5.218  3.9020  2.6417  2.3975
  579MOL0     H78108   4.497   9.291   5.244  0.2761  0.3929  0.1041
  579MOL0     H78109   4.455   9.350   5.406  2.3631  1.8261  0.4492
  579MOL0     H78110   4.372   9.564   5.268  0.0958 -0.4314  0.5885
  579MOL0     H78111   4.384   9.467   5.123 -2.9902 -0.3816 -0.1120
  579MOL0     H78112   4.218   9.316   5.191 -2.7539  1.5677 -1.7775
  579MOL0     H78113   4.204   9.402   5.356 -1.1219 -0.2382  0.4388
  579MOL0     H78114   4.155   9.527   5.091 -1.2613 -0.7834  1.0696
  579MOL0     H78115   4.106   9.595   5.250 -1.3783  0.2620 -0.7131
  579MOL0     H78116   4.008   9.310   5.001  1.4498 -0.0555  0.1506
  579MOL0     H78117   3.741   9.227   4.948  0.4452 -1.6474  0.0788
  579MOL0     H78118   3.790   9.097   5.054 -0.6981 -0.6088  0.1016
  579MOL0     H78119   3.598   9.165   5.201  1.0116  3.6123  0.9072
  579MOL0     H78120   3.550   9.131   5.027 -0.5571  0.9720 -1.4099
  579MOL0     H78121   3.553   9.390   4.997 -1.1273 -2.3577 -1.0504
  579MOL0     H78122   3.552   9.394   5.174 -2.1029 -0.2280  0.6083
  579MOL0     H78123   3.360   9.284   5.211  1.4250 -0.2517  1.2757
  579MOL0     H78124   3.345   9.220   5.048 -1.3558  0.4481  0.0736
  579MOL0     H78125   3.134   9.239   5.103  2.3934  0.7634 -1.3180
  579MOL0     H78126   2.797   9.297   5.209  1.0090  0.3204  1.1864
  579MOL0     H78127   2.805   9.236   5.038  1.2675 -0.2320 -0.6010
  579MOL0     H78128   2.902   9.169   5.175  0.9445  0.2334 -0.3036
  579MOL0     H78129   2.507   9.660   5.099  0.5575 -0.5488 -1.1878
  579MOL0     H78130   2.258   9.655   5.029 -0.2508 -0.7831  4.7461
  579MOL0     H78131   2.036   9.588   5.040  1.0287 -0.2255 -0.0960
  579MOL0     H78132   2.067   9.643   4.881  1.7875  1.0143  2.9212
  579MOL0     H78133   1.902   9.415   4.834  0.9989 -3.5336  2.7327
  579MOL0     H78134   1.885   9.409   4.997  1.1309 -1.8695 -1.5253
  579MOL0     H78135   1.818   9.681   4.835 -1.9165  0.2698 -0.1105
  579MOL0     H78136   1.791   9.640   5.006  1.1440  1.2516 -0.5145
  579MOL0     H78137   1.658   9.514   4.765 -1.3140 -1.6567  0.3679
  579MOL0     H78138   1.633   9.453   4.921 -0.2929 -0.8617  0.4267
  579MOL0     H78139   1.584   9.748   4.870  0.7856  0.6689  1.1365
  579MOL0     H78140   1.563   9.662   5.018  0.5318  1.3901 -0.0355
  579MOL0     H78141   1.411   9.612   4.762  1.8140  2.2529 -0.9999
  579MOL0     H78142   1.379   9.542   4.930 -1.8415 -0.4382 -2.4223
  579MOL0     H78143   1.373   9.839   4.868  0.8053  0.4509  2.3419
  579MOL0     H78144   1.343   9.743   5.014  0.2649  0.0819  0.4578
  579MOL0     H78145   1.195   9.664   4.758  0.5684 -2.2158  1.2922
  579MOL0     H78146   1.140   9.819   4.804 -0.1392  0.9961  0.8819
  579MOL0     H78147   2.303   9.238   4.940 -1.4213  0.1346  1.3813
  579MOL0     H78148   2.517   9.235   4.991 -2.6543 -1.0028 -0.3669
  579MOL0     H78149   2.975   9.693   4.984 -0.2858 -0.8710 -0.6608
  579MOL0     H78150   3.204   9.644   5.003 -0.4698  0.8666  0.4462
  579MOL0     H78151   4.807   9.341   5.807 -0.3018 -1.6200 -1.6305
  579MOL0     H78152   4.908   9.252   6.019  0.1133  2.0289  0.2775
  579MOL0     H78153   5.270   8.887   6.178 -0.9728 -0.1820  0.9920
  579MOL0     H78154   5.458   8.834   6.337 -0.0620  0.2951  1.2509
  579MOL0     H78155   5.529   8.817   6.590 -0.5113  0.6126  1.7628
  579MOL0     H78156   5.638   8.832   6.459  0.3400 -0.0732  0.7413
  579MOL0     H78157   5.786   8.801   6.629 -0.7133  0.7087  1.3295
  579MOL0     H78158   5.687   8.878   6.739  2.9961  1.4071  1.5014
  579MOL0     H78159   5.742   9.108   6.632  2.4944  1.9432  1.0827
  579MOL0     H78160   5.832   9.037   6.511  0.2231 -1.9889 -0.4745
  579MOL0     H78161   5.884   9.029   6.828  0.7864 -0.7920  0.8982
  579MOL0     H78162   5.965   9.132   6.707 -2.1526  1.0587  1.0745
  579MOL0     H78163   6.199   8.781   6.724 -0.3690  0.2098  2.4802
  579MOL0     H78164   5.418   9.219   6.511  0.2754 -1.6775  0.6402
  579MOL0     H78165   5.247   9.290   6.334  0.3894 -0.0755 -2.2289
  580MOL0     O78166   6.150   1.091   2.605 -0.2582  0.3309 -0.1510
  580MOL0     C78167   6.231   1.078   2.512  0.3876 -0.1290 -0.2939
  580MOL0     O78168   6.217   1.139   2.391 -0.0407  0.0910  0.0508
  580MOL0     C78169   6.091   1.192   2.370 -1.1549 -0.1274  0.0790
  580MOL0     C78170   6.055   1.318   2.418 -0.3855 -0.1601  0.2999
  580MOL0     C78171   5.930   1.366   2.401 -0.0974 -0.3972  0.2607
  580MOL0     C78172   5.829   1.284   2.347  0.4586 -0.4996 -0.5436
  580MOL0     O78173   5.695   1.310   2.348  1.1095  0.4868 -0.5384
  580MOL0     C78174   5.643   1.444   2.368  0.6587 -0.2294  0.5061
  580MOL0     C78175   5.491   1.444   2.352  0.2111 -0.5098 -0.2530
  580MOL0     C78176   5.409   1.540   2.453  0.7129  0.3107 -0.9051
  580MOL0     C78177   5.260   1.537   2.402  0.3307 -0.3620 -0.2863
  580MOL0     C78178   5.157   1.599   2.497  0.2854 -0.7200 -0.0277
  580MOL0     C78179   5.010   1.594   2.449 -0.9818 -0.0045 -0.5568
  580MOL0     C78180   4.911   1.649   2.555  0.3714  0.3746 -0.0174
  580MOL0     C78181   4.764   1.598   2.536 -0.5614 -0.9322  0.6698
  580MOL0     N78182   4.683   1.677   2.620  0.3994 -0.2758  0.3686
  580MOL0     C78183   4.630   1.800   2.590  0.0091  0.5094  0.2143
  580MOL0     C78184   4.576   1.849   2.709  0.2749  0.5975 -0.1226
  580MOL0     C78185   4.521   1.984   2.734  0.1244 -0.4007 -0.0641
  580MOL0     C78186   4.377   2.005   2.717  0.0659  0.2185 -0.5397
  580MOL0     C78187   4.327   2.138   2.780  0.3228 -0.2994 -0.3704
  580MOL0     C78188   4.175   2.163   2.779  0.2180 -0.6709  0.1379
  580MOL0     O78189   4.110   2.060   2.860 -0.0395  0.4675 -0.5705
  580MOL0     C78190   3.972   2.064   2.884 -0.8942 -0.4046 -0.1731
  580MOL0     C78191   3.881   2.155   2.832  0.5389 -0.2448  0.5471
  580MOL0     C78192   3.751   2.157   2.865  0.0809  0.6747  0.8310
  580MOL0     C78193   3.655   2.261   2.812 -0.3560  1.0973  0.9815
  580MOL0     C78194   3.704   2.064   2.963  0.2961 -0.1368 -0.0802
  580MOL0     C78195   3.563   2.056   3.005  0.0328 -1.0317  0.0587
  580MOL0     O78196   3.546   1.952   3.086 -0.5068 -0.1109 -0.5085
  580MOL0     C78197   3.427   1.940   3.142  0.5687 -0.2687  0.4631
  580MOL0     C78198   3.387   2.024   3.248  0.1471 -0.0844 -0.2837
  580MOL0     C78199   3.255   2.008   3.295  0.0837  0.1973  0.1248
  580MOL0     C78200   3.163   1.911   3.234  0.4995  0.1049 -0.3254
  580MOL0     O78201   3.029   1.901   3.278 -0.6896 -0.1739  0.0450
  580MOL0     C78202   3.011   1.917   3.415 -0.5445  0.0575 -1.3504
  580MOL0     C78203   3.038   1.777   3.477 -0.3329 -0.1031  0.6360
  580MOL0     C78204   2.985   1.789   3.624 -0.6468 -0.3704  0.8042
  580MOL0     C78205   3.021   1.673   3.714 -0.5727  0.2933 -0.9940
  580MOL0     C78206   2.892   1.621   3.798 -0.3613  0.7247 -1.0392
  580MOL0     C78207   2.840   1.731   3.898  0.0734  0.6630  0.1443
  580MOL0     C78208   2.946   1.776   3.999 -0.6409  0.0546  0.3659
  580MOL0     C78209   2.881   1.871   4.108 -0.4971 -0.1923 -0.0320
  580MOL0    Cl78210   2.818   2.020   4.042  0.0311 -0.0712 -0.2700
  580MOL0     C78211   3.205   1.836   3.130 -0.4062 -0.1793  0.0307
  580MOL0     C78212   3.337   1.854   3.086  0.2189  0.4163 -0.5358
  580MOL0     O78213   3.488   2.153   2.985 -0.2000  0.5667  0.8207
  580MOL0     C78214   3.796   1.963   3.011 -1.4002  0.2045 -0.9574
  580MOL0     C78215   3.931   1.969   2.968  0.0399  0.3908  0.6599
  580MOL0     N78216   4.599   1.751   2.811 -0.6290 -0.3406 -0.7956
  580MOL0     N78217   4.661   1.652   2.756 -0.0114 -0.3031  0.6221
  580MOL0     C78218   5.862   1.152   2.305  0.7047 -0.5248  0.2811
  580MOL0     C78219   5.998   1.112   2.299  0.4156 -0.6376 -0.5864
  580MOL0     C78220   6.345   0.986   2.537 -0.3004  0.2043  0.4230
  580MOL0     C78221   6.359   0.933   2.661 -0.6890 -0.7481 -0.0764
  580MOL0     C78222   6.462   0.836   2.686  0.4949  0.6208  0.2851
  580MOL0     C78223   6.550   0.803   2.577  0.0246 -0.3630 -0.1589
  580MOL0     O78224   6.667   0.725   2.588 -0.1994  0.2723  0.0139
  580MOL0     C78225   6.713   0.680   2.719  0.2133  0.4068  0.3444
  580MOL0     C78226   6.827   0.593   2.710 -0.3826 -0.0919 -0.5514
  580MOL0     C78227   6.892   0.565   2.848  0.6307  0.2059  0.2838
  580MOL0     C78228   7.041   0.523   2.839 -0.0039  0.8153 -0.1834
  580MOL0     C78229   7.133   0.622   2.789  0.3438  0.4893  0.1448
  580MOL0     C78230   7.206   0.715   2.767 -0.7735 -0.3480  0.3670
  580MOL0     C78231   6.539   0.871   2.455 -0.1011 -0.4099  0.5831
  580MOL0     C78232   6.434   0.957   2.432  0.4935 -0.3683 -0.0999
  580MOL0     H78233   6.109   1.390   2.478 -0.5476  2.0102 -1.9702
  580MOL0     H78234   5.909   1.463   2.444  2.2074  0.0371  0.5002
  580MOL0     H78235   5.669   1.468   2.471  1.7406 -0.5141  0.3082
  580MOL0     H78236   5.695   1.521   2.311 -0.3469 -0.5238 -0.8669
  580MOL0     H78237   5.477   1.473   2.248 -0.3950 -2.4741 -0.7644
  580MOL0     H78238   5.458   1.341   2.369 -0.6048 -0.2461 -0.1863
  580MOL0     H78239   5.414   1.497   2.553 -2.1932 -0.4002 -0.9909
  580MOL0     H78240   5.460   1.637   2.452  1.9926 -0.3439 -0.9387
  580MOL0     H78241   5.247   1.602   2.315  0.3013 -0.3717 -0.2889
  580MOL0     H78242   5.224   1.436   2.380 -0.6961 -0.4466  1.5608
  580MOL0     H78243   5.163   1.547   2.593  2.2432 -1.4778 -0.5096
  580MOL0     H78244   5.195   1.699   2.519 -0.4505 -0.5676  0.5688
  580MOL0     H78245   5.008   1.662   2.363  0.3396  2.7577  1.4710
  580MOL0     H78246   4.977   1.496   2.412 -0.8582 -1.1094  2.0658
  580MOL0     H78247   4.951   1.628   2.654  2.0249 -0.2944 -0.7999
  580MOL0     H78248   4.897   1.756   2.536 -1.8961 -0.1526 -1.8117
  580MOL0     H78249   4.759   1.490   2.555  2.2570 -1.6970 -2.0567
  580MOL0     H78250   4.742   1.611   2.430 -0.9664 -1.4888  0.6811
  580MOL0     H78251   4.647   1.861   2.501  2.4908 -0.9210 -0.3990
  580MOL0     H78252   4.542   1.997   2.840  3.0650 -0.6792 -0.5245
  580MOL0     H78253   4.583   2.058   2.683  1.7653 -2.3083 -0.9827
  580MOL0     H78254   4.329   1.921   2.769  0.9630 -0.2224 -0.4081
  580MOL0     H78255   4.347   1.994   2.612 -1.1951 -2.3398  0.0028
  580MOL0     H78256   4.379   2.209   2.715 -2.2176  1.4998 -0.5443
  580MOL0     H78257   4.365   2.126   2.882  0.2293 -4.3079 -0.6301
  580MOL0     H78258   4.128   2.145   2.682 -3.2289 -1.6672  1.8391
  580MOL0     H78259   4.144   2.260   2.818 -0.3285 -0.3487 -1.0725
  580MOL0     H78260   3.926   2.228   2.765  1.0035 -2.2969 -1.5197
  580MOL0     H78261   3.573   2.212   2.760  1.2898 -0.7634  0.0120
  580MOL0     H78262   3.617   2.325   2.892 -0.0307  1.2288  1.0320
  580MOL0     H78263   3.702   2.321   2.734  0.9407  0.8211  1.5203
  580MOL0     H78264   3.448   2.109   3.278 -0.0456 -0.3026  0.7788
  580MOL0     H78265   3.215   2.077   3.369 -3.3460 -1.0378 -0.3804
  580MOL0     H78266   3.069   1.993   3.468 -2.1086  0.0417  0.4668
  580MOL0     H78267   2.909   1.953   3.431 -1.5773 -1.6719 -3.5060
  580MOL0     H78268   2.993   1.700   3.415 -1.2053  1.0954 -0.2612
  580MOL0     H78269   3.146   1.762   3.488 -0.0528  1.9137  1.0091
  580MOL0     H78270   2.880   1.817   3.614 -0.6284  0.1445  1.9428
  580MOL0     H78271   3.022   1.881   3.670  0.0931  0.6853 -1.7021
  580MOL0     H78272   3.056   1.592   3.649  0.2018 -0.5361  0.4236
  580MOL0     H78273   3.092   1.712   3.787 -2.1225  0.5079  0.4578
  580MOL0     H78274   2.923   1.532   3.854  0.0120  1.8199  0.5474
  580MOL0     H78275   2.812   1.597   3.727 -0.2863  0.2974 -0.9855
  580MOL0     H78276   2.789   1.814   3.847 -1.3435 -0.1273  0.2111
  580MOL0     H78277   2.761   1.688   3.961  0.5735  1.8169  1.5929
  580MOL0     H78278   3.029   1.829   3.951 -1.2579 -0.0459 -0.8481
  580MOL0     H78279   2.999   1.697   4.054  1.7230 -0.1472 -1.9839
  580MOL0     H78280   2.967   1.903   4.168  0.7896 -1.6551 -0.9977
  580MOL0     H78281   2.803   1.812   4.157 -2.7977  3.0650  0.5448
  580MOL0     H78282   3.131   1.775   3.081 -0.8093  0.8569 -0.7072
  580MOL0     H78283   3.364   1.809   2.991 -1.3560  0.8954 -1.2403
  580MOL0     H78284   3.764   1.878   3.070  3.7406 -1.6371 -0.2553
  580MOL0     H78285   4.004   1.892   2.991  3.5131  3.4674  0.8674
  580MOL0     H78286   5.790   1.087   2.257  0.1802  0.5278 -0.4091
  580MOL0     H78287   6.040   1.016   2.268 -0.6507 -0.7363 -1.8475
  580MOL0     H78288   6.293   0.954   2.744  1.1595 -1.6816  1.6983
  580MOL0     H78289   6.473   0.790   2.783  1.6767 -2.4790 -1.2096
  580MOL0     H78290   6.732   0.766   2.784 -1.1011 -1.0973  2.8816
  580MOL0     H78291   6.638   0.620   2.771 -0.0468  0.6598  0.2616
  580MOL0     H78292   6.891   0.637   2.633 -0.5289 -1.4291 -1.4591
  580MOL0     H78293   6.794   0.500   2.664 -1.6535  0.9055 -1.7801
  580MOL0     H78294   6.826   0.486   2.884 -2.2395  2.4273  0.3709
  580MOL0     H78295   6.876   0.655   2.909  1.4504  1.4039 -1.1963
  580MOL0     H78296   7.052   0.432   2.780 -1.1602  1.7334 -1.8915
  580MOL0     H78297   7.074   0.491   2.938 -2.5929  0.2665  0.5699
  580MOL0     H78298   7.280   0.787   2.736  0.7184 -0.7794  2.7033
  580MOL0     H78299   6.609   0.846   2.376 -1.8680  0.3563 -1.3010
  580MOL0     H78300   6.425   1.009   2.337 -0.4902  0.4337  0.4194
  581MOL0     O78301   1.120   6.854  10.569  0.0459  0.2784  0.4246
  581MOL0     C78302   1.176   6.876  10.682  0.8086  0.4132  0.4132
  581MOL0     O78303   1.110   6.916  10.792 -0.4776  0.2471 -0.4138
  581MOL0     C78304   0.973   6.943  10.784 -0.2163  0.2147  0.2468
  581MOL0     C78305   0.908   7.022  10.687  0.8088  0.7400  0.5975
  581MOL0     C78306   0.772   7.029  10.692  0.3813 -0.4256 -0.3244
  581MOL0     C78307   0.693   6.973  10.803  0.1035 -0.7647 -0.9575
  581MOL0     O78308   0.557   6.994  10.817  0.0245  0.3716  0.2056
  581MOL0     C78309   0.483   7.053  10.719 -0.1493 -0.1094  0.1345
  581MOL0     C78310   0.337   7.070  10.756 -0.4103 -0.2637 -1.2060
  581MOL0     C78311   0.333   7.106  10.898 -0.0638 -0.1113 -0.3832
  581MOL0     C78312   0.193   7.150  10.947 -0.6622  0.6470  0.1121
  581MOL0     C78313   0.201   7.175  11.098  0.2586 -1.0612 -0.4796
  581MOL0     C78314   0.069   7.187  11.179 -0.1534  0.3581 -0.3212
  581MOL0     C78315  -0.004   7.326  11.155 -0.2063  0.2456  0.3475
  581MOL0     C78316  -0.144   7.320  11.207 -0.8736  0.2364  0.0478
  581MOL0     N78317  -0.209   7.452  11.197  0.7938  0.9220 -0.1205
  581MOL0     C78318  -0.329   7.472  11.139  0.8013  0.1967  0.3773
  581MOL0     C78319  -0.347   7.604  11.117 -0.2683  0.3332 -0.4901
  581MOL0     C78320  -0.471   7.679  11.076 -0.8789  0.2824  0.3943
  581MOL0     C78321  -0.529   7.619  10.949 -0.1995 -0.7751 -1.0583
  581MOL0     C78322  -0.626   7.722  10.904 -0.4403 -0.5389 -0.3582
  581MOL0     C78323  -0.682   7.694  10.770  0.0659 -0.8945  0.2933
  581MOL0     O78324  -0.753   7.576  10.768  0.4050 -0.1670 -0.6164
  581MOL0     C78325  -0.866   7.563  10.856  0.6592 -0.2093  0.9719
  581MOL0     C78326  -0.897   7.427  10.888  0.5376 -0.4066 -0.1848
  581MOL0     C78327  -1.005   7.395  10.975 -0.2371  0.3623 -0.6330
  581MOL0     C78328  -1.034   7.249  11.017  0.1946 -0.6120  0.0615
  581MOL0     C78329  -1.079   7.503  11.017  0.3302 -0.0536 -0.3305
  581MOL0     C78330  -1.206   7.477  11.096  0.5271  0.1825  0.1494
  581MOL0     O78331  -1.205   7.450  11.228 -0.4438 -0.6521 -0.0775
  581MOL0     C78332  -1.318   7.450  11.301 -0.6084 -0.4050 -0.0913
  581MOL0     C78333  -1.325   7.368  11.406 -0.1884 -0.5425  0.3689
  581MOL0     C78334  -1.434   7.378  11.494  0.2384  0.5129 -0.1131
  581MOL0     C78335  -1.541   7.462  11.470  0.8640  0.9509  0.6289
  581MOL0     O78336  -1.665   7.460  11.532 -0.4272  0.3325  0.7172
  581MOL0     C78337  -1.665   7.435  11.677 -0.2090  0.2401 -0.5158
  581MOL0     C78338  -1.735   7.303  11.710  0.9077  0.1844  0.1923
  581MOL0     C78339  -1.862   7.291  11.629 -0.1842 -0.7863  0.0758
  581MOL0     C78340  -1.957   7.182  11.686 -0.3100 -0.7939 -0.4924
  581MOL0     C78341  -2.105   7.199  11.630  0.0646  0.3651 -0.4818
  581MOL0     C78342  -2.210   7.100  11.706 -0.1234 -0.2698  0.2110
  581MOL0     C78343  -2.349   7.120  11.627 -0.5980 -0.4042 -0.0849
  581MOL0     C78344  -2.465   7.026  11.664 -0.4793 -0.4183 -0.6749
  581MOL0    Cl78345  -2.428   6.848  11.658  0.0156  0.2975  0.1939
  581MOL0     C78346  -1.533   7.545  11.354 -0.4015  1.2369  0.4043
  581MOL0     C78347  -1.421   7.545  11.277  0.4272  0.6705 -1.7104
  581MOL0     O78348  -1.305   7.491  11.025  0.0668 -0.0845  0.6151
  581MOL0     C78349  -1.056   7.630  10.971  0.2432 -0.3978  0.0308
  581MOL0     C78350  -0.952   7.666  10.891 -0.4701 -0.3303  0.0799
  581MOL0     N78351  -0.249   7.669  11.188 -0.5743  0.1117  0.1067
  581MOL0     N78352  -0.161   7.577  11.234  1.0416 -0.8421 -0.0786
  581MOL0     C78353   0.763   6.909  10.907  0.1932  0.3278  0.2605
  581MOL0     C78354   0.902   6.892  10.892 -0.2818  0.6129 -0.0013
  581MOL0     C78355   1.315   6.835  10.694 -0.3675  0.2671  0.0635
  581MOL0     C78356   1.395   6.820  10.580  0.4128 -0.6640 -0.7888
  581MOL0     C78357   1.525   6.762  10.583 -0.1584 -0.3122 -0.0047
  581MOL0     C78358   1.588   6.741  10.706  0.1039 -0.7943  0.1059
  581MOL0     O78359   1.715   6.692  10.716 -0.0235 -0.0762  0.1346
  581MOL0     C78360   1.785   6.712  10.836 -0.2930  0.0016 -0.4952
  581MOL0     C78361   1.927   6.665  10.832  0.1193 -0.4835  0.6081
  581MOL0     C78362   2.004   6.649  10.966 -0.3856  0.1133 -0.8484
  581MOL0     C78363   1.982   6.775  11.048 -0.4421 -0.4625  0.3846
  581MOL0     C78364   2.076   6.782  11.166 -0.0739  0.7470  0.7813
  581MOL0     C78365   2.159   6.801  11.250 -0.0478 -0.7216  0.4543
  581MOL0     C78366   1.510   6.758  10.822  0.6756  0.0496  0.4625
  581MOL0     C78367   1.372   6.808  10.814  0.0474 -0.0802  0.4160
  581MOL0     H78368   0.975   7.055  10.608  2.6184  1.3698  2.3172
  581MOL0     H78369   0.712   7.071  10.612 -0.0109 -1.0479 -0.3624
  581MOL0     H78370   0.530   7.147  10.688  2.2513 -1.5474 -0.8272
  581MOL0     H78371   0.490   6.989  10.630 -0.9761  1.5105 -1.1630
  581MOL0     H78372   0.286   7.144  10.693 -2.2505 -1.3911 -1.1196
  581MOL0     H78373   0.270   6.984  10.752 -2.2881  1.0433  0.3439
  581MOL0     H78374   0.362   7.019  10.956 -1.4768 -1.2839 -1.3674
  581MOL0     H78375   0.394   7.196  10.912 -0.7619  0.5722 -1.5607
  581MOL0     H78376   0.163   7.238  10.889  0.6127  0.9405 -0.1344
  581MOL0     H78377   0.132   7.060  10.930  2.3770 -1.7026  0.7844
  581MOL0     H78378   0.259   7.091  11.138  2.4689  0.6326  0.1065
  581MOL0     H78379   0.265   7.264  11.108 -2.7692  1.0979  1.3586
  581MOL0     H78380   0.008   7.103  11.144  1.7717  0.4056 -4.3978
  581MOL0     H78381   0.083   7.167  11.285  0.3146 -0.2492 -0.4878
  581MOL0     H78382   0.044   7.409  11.207  0.1826 -0.2634  0.8058
  581MOL0     H78383  -0.001   7.341  11.047 -0.1445 -2.2130 -0.0421
  581MOL0     H78384  -0.142   7.286  11.311 -0.5597  1.5788  0.4947
  581MOL0     H78385  -0.204   7.249  11.148  1.7597 -2.0464 -0.0812
  581MOL0     H78386  -0.405   7.398  11.117  0.2017  1.0661 -0.5965
  581MOL0     H78387  -0.541   7.680  11.160 -0.8804 -1.6563  0.4748
  581MOL0     H78388  -0.437   7.781  11.059 -2.8077  0.8729 -0.2063
  581MOL0     H78389  -0.587   7.533  10.984 -1.2115 -0.0319 -0.8730
  581MOL0     H78390  -0.450   7.599  10.876 -0.0221 -3.0644 -0.3222
  581MOL0     H78391  -0.573   7.817  10.895 -1.8858  0.3573  0.2858
  581MOL0     H78392  -0.707   7.725  10.978  0.2596  0.7647  0.3791
  581MOL0     H78393  -0.609   7.693  10.689 -0.0553  1.4976  0.0605
  581MOL0     H78394  -0.737   7.787  10.749  0.4950 -0.8925 -0.8965
  581MOL0     H78395  -0.827   7.350  10.858  1.1651  0.8666 -2.1292
  581MOL0     H78396  -1.007   7.235  11.122 -3.0714  0.7754  1.2421
  581MOL0     H78397  -1.140   7.236  10.994  0.2517 -0.8786 -0.0514
  581MOL0     H78398  -0.969   7.184  10.958  1.9317 -1.6386  2.9259
  581MOL0     H78399  -1.242   7.302  11.430 -0.9784 -1.6717  0.0887
  581MOL0     H78400  -1.425   7.318  11.585  0.9669  1.2092  0.2806
  581MOL0     H78401  -1.565   7.435  11.720 -1.0039  0.0679  1.4797
  581MOL0     H78402  -1.719   7.518  11.724 -0.4334 -1.1738  1.9018
  581MOL0     H78403  -1.670   7.216  11.695  1.1390 -0.2808  3.2839
  581MOL0     H78404  -1.759   7.297  11.816 -0.5530 -0.3996 -0.1442
  581MOL0     H78405  -1.839   7.252  11.530 -1.3039 -2.2850  0.3611
  581MOL0     H78406  -1.908   7.390  11.627  0.7706 -0.3418 -2.2949
  581MOL0     H78407  -1.924   7.079  11.667  2.2092 -0.2664  0.5654
  581MOL0     H78408  -1.954   7.198  11.794  0.0301 -0.5860 -0.5301
  581MOL0     H78409  -2.100   7.175  11.523  2.9340  3.2739 -1.1548
  581MOL0     H78410  -2.138   7.302  11.643 -1.0986  0.4217 -3.1993
  581MOL0     H78411  -2.175   6.996  11.708 -0.6356 -0.4344  1.2726
  581MOL0     H78412  -2.218   7.130  11.811  0.9767 -1.7725  0.7687
  581MOL0     H78413  -2.330   7.108  11.520 -0.2006 -1.1778  0.0596
  581MOL0     H78414  -2.375   7.226  11.627  2.7567  0.5366 -1.6485
  581MOL0     H78415  -2.544   7.049  11.592  0.3510 -1.4790 -1.9708
  581MOL0     H78416  -2.495   7.051  11.766 -0.2401 -1.2200 -0.3991
  581MOL0     H78417  -1.619   7.603  11.320 -1.7130  0.3880  2.1382
  581MOL0     H78418  -1.425   7.608  11.188 -1.8444  0.5805 -1.7307
  581MOL0     H78419  -1.121   7.707  11.012  1.2446  1.7786 -2.2002
  581MOL0     H78420  -0.932   7.765  10.851  1.2593 -0.3731  0.7625
  581MOL0     H78421   0.707   6.889  10.998  1.1126  0.6105  0.9036
  581MOL0     H78422   0.964   6.851  10.971  0.7783 -0.3919 -1.2962
  581MOL0     H78423   1.354   6.857  10.486  0.9034 -0.7418 -1.0371
  581MOL0     H78424   1.588   6.739  10.498 -0.6532 -3.2398  0.3251
  581MOL0     H78425   1.779   6.821  10.850  1.8467  0.2586 -1.1785
  581MOL0     H78426   1.740   6.656  10.918  0.4755 -0.8865 -0.6745
  581MOL0     H78427   1.983   6.732  10.766  0.8260  0.1682  1.8424
  581MOL0     H78428   1.934   6.566  10.786  1.4563  0.4204 -1.2539
  581MOL0     H78429   2.110   6.650  10.938  0.3744  3.7177  1.5339
  581MOL0     H78430   1.977   6.563  11.028  0.1859  0.8273  0.4264
  581MOL0     H78431   1.875   6.776  11.073 -1.0408 -0.6367 -1.9232
  581MOL0     H78432   1.990   6.863  10.984 -3.3037 -1.7804 -2.1217
  581MOL0     H78433   2.205   6.824  11.344 -2.5541  2.0702  1.1643
  581MOL0     H78434   1.549   6.746  10.923  1.8629  0.4079  0.0664
  581MOL0     H78435   1.313   6.801  10.905 -0.4529  0.5334  0.1486
  582MOL0     O78436   9.560  11.127   9.292  1.1129  0.9375  0.4517
  582MOL0     C78437   9.633  11.038   9.259  0.3403  0.3145 -0.2107
  582MOL0     O78438   9.596  10.905   9.239 -0.1857  0.4835 -0.5068
  582MOL0     C78439   9.470  10.850   9.266  0.0473 -0.1817  0.5837
  582MOL0     C78440   9.472  10.712   9.263 -0.7784 -0.5888  0.2152
  582MOL0     C78441   9.366  10.628   9.284 -0.1771  0.3627  0.2632
  582MOL0     C78442   9.239  10.690   9.304 -0.2004 -0.0034  0.8771
  582MOL0     O78443   9.119  10.618   9.308  0.1541 -0.0737  0.3309
  582MOL0     C78444   9.101  10.530   9.420 -0.0847 -1.0519  0.7991
  582MOL0     C78445   9.000  10.578   9.520  0.8065 -0.0561  0.0782
  582MOL0     C78446   8.996  10.729   9.560 -0.1782  1.4050  0.8788
  582MOL0     C78447   8.891  10.754   9.666 -0.0393  0.1207 -0.3991
  582MOL0     C78448   8.885  10.912   9.693 -0.5801  0.2618  0.8590
  582MOL0     C78449   8.811  10.952   9.816 -0.1155  0.1002  0.5108
  582MOL0     C78450   8.658  10.949   9.808 -0.0792 -0.3244 -0.4798
  582MOL0     C78451   8.587  11.057   9.727  0.1768 -0.3109  0.2189
  582MOL0     N78452   8.494  11.131   9.819  0.5875  1.3142  0.3250
  582MOL0     C78453   8.518  11.248   9.891  0.6404  0.5993  0.1733
  582MOL0     C78454   8.402  11.283   9.942 -0.0749  0.8422  0.8554
  582MOL0     C78455   8.388  11.374  10.058  0.1113 -0.2144  0.1050
  582MOL0     C78456   8.403  11.516  10.013 -0.5933  0.2006 -0.2168
  582MOL0     C78457   8.307  11.573   9.902  0.7056  0.0905 -0.3915
  582MOL0     C78458   8.323  11.724   9.885 -0.4066 -1.2896  0.0094
  582MOL0     O78459   8.268  11.767   9.754 -0.2032  0.1562 -0.8697
  582MOL0     C78460   8.128  11.774   9.740 -0.3268 -0.5273  0.5133
  582MOL0     C78461   8.082  11.796   9.609 -0.2222  0.0027  0.4035
  582MOL0     C78462   7.944  11.791   9.570  1.0806  0.4206  0.2957
  582MOL0     C78463   7.909  11.813   9.420 -0.7183  0.0817  0.2950
  582MOL0     C78464   7.847  11.763   9.673 -0.6624  0.1529  0.5076
  582MOL0     C78465   7.703  11.758   9.650 -1.0368 -0.3698 -0.2191
  582MOL0     O78466   7.616  11.767   9.750 -0.0905  0.6759  0.0954
  582MOL0     C78467   7.489  11.713   9.738  0.5888 -0.1042 -0.0383
  582MOL0     C78468   7.402  11.795   9.680  0.8483  0.0924 -0.2629
  582MOL0     C78469   7.266  11.749   9.657 -0.9911  0.4865 -0.1275
  582MOL0     C78470   7.224  11.626   9.709 -0.7109 -0.0428 -0.5138
  582MOL0     O78471   7.093  11.577   9.686 -0.4179 -0.5358 -0.2124
  582MOL0     C78472   7.042  11.478   9.775 -0.3856  0.2555 -0.9796
  582MOL0     C78473   6.889  11.472   9.779  0.4545  0.3336 -0.5476
  582MOL0     C78474   6.816  11.594   9.828  0.1653 -0.0019 -0.4985
  582MOL0     C78475   6.679  11.609   9.763 -0.1402 -0.5101  0.9678
  582MOL0     C78476   6.579  11.497   9.796  0.0341 -0.2075 -0.3545
  582MOL0     C78477   6.449  11.505   9.713  1.3523  0.1426 -0.0452
  582MOL0     C78478   6.329  11.432   9.779  0.0236  0.3403  0.1636
  582MOL0     C78479   6.199  11.438   9.704 -0.3374 -0.1021 -0.4925
  582MOL0    Cl78480   6.110  11.580   9.741  0.4512  0.4270 -0.5338
  582MOL0     C78481   7.325  11.549   9.774 -0.2808  0.3616 -0.3866
  582MOL0     C78482   7.453  11.588   9.781  0.2827 -0.3832  0.5413
  582MOL0     O78483   7.670  11.725   9.532 -0.5461  0.0429 -0.1221
  582MOL0     C78484   7.893  11.757   9.799  0.8519 -0.0784 -0.1497
  582MOL0     C78485   8.027  11.754   9.831 -0.0967 -0.2405  0.5229
  582MOL0     N78486   8.308  11.193   9.894  0.3890  0.1658  0.2013
  582MOL0     N78487   8.361  11.094   9.827 -0.8050 -0.1074  0.4783
  582MOL0     C78488   9.237  10.836   9.310  0.9861  0.3250  0.3838
  582MOL0     C78489   9.349  10.910   9.296 -0.6502  0.5838 -0.2834
  582MOL0     C78490   9.770  11.075   9.209 -0.3493 -0.0705 -0.8425
  582MOL0     C78491   9.807  11.213   9.190  0.7416 -0.2040  0.8968
  582MOL0     C78492   9.940  11.240   9.141  0.6063  0.1982  0.3458
  582MOL0     C78493  10.032  11.133   9.120  0.1335 -0.0698 -0.4286
  582MOL0     O78494  10.159  11.147   9.077 -0.0377 -0.4048 -0.1152
  582MOL0     C78495  10.234  11.246   9.143 -0.0259  0.0081  0.8309
  582MOL0     C78496  10.378  11.234   9.094  0.0367 -0.3657 -0.3329
  582MOL0     C78497  10.403  11.222   8.944  0.6128  0.1367  0.1398
  582MOL0     C78498  10.431  11.356   8.874 -0.0555 -0.8741 -0.3559
  582MOL0     C78499  10.312  11.429   8.829 -0.2793  0.1223  0.4627
  582MOL0     C78500  10.207  11.478   8.791 -0.3264 -0.1615  0.3628
  582MOL0     C78501  10.000  11.003   9.156 -0.3115  0.0985 -0.1839
  582MOL0     C78502   9.869  10.975   9.197 -0.0689  0.5225  0.6153
  582MOL0     H78503   9.568  10.666   9.240  0.4919  2.5636 -1.3945
  582MOL0     H78504   9.374  10.520   9.275 -2.4019  0.2896 -1.7809
  582MOL0     H78505   9.073  10.430   9.384  0.1075 -0.3124 -1.5257
  582MOL0     H78506   9.201  10.509   9.461  1.0140 -1.0160 -1.7189
  582MOL0     H78507   8.905  10.559   9.468  1.1676 -1.3588 -0.1508
  582MOL0     H78508   9.004  10.509   9.605  1.4045 -0.6091 -0.3926
  582MOL0     H78509   9.098  10.757   9.587  1.1918 -0.0668 -2.1899
  582MOL0     H78510   8.982  10.790   9.470 -1.7517 -1.7821 -1.2089
  582MOL0     H78511   8.792  10.720   9.636 -1.4972  2.3822  1.4916
  582MOL0     H78512   8.918  10.698   9.756 -0.9060  1.8093  0.9937
  582MOL0     H78513   8.988  10.947   9.700 -0.2731 -0.5425  0.5402
  582MOL0     H78514   8.844  10.957   9.602 -1.2211 -1.5761  0.1762
  582MOL0     H78515   8.838  10.878   9.892  1.9074 -0.3783 -0.5963
  582MOL0     H78516   8.839  11.052   9.850  1.8484  0.5937 -2.2236
  582MOL0     H78517   8.627  10.852   9.767 -0.6630 -0.2440 -0.2350
  582MOL0     H78518   8.617  10.943   9.909 -1.2557 -0.6484 -0.9558
  582MOL0     H78519   8.546  11.013   9.635 -0.3382  2.5293 -1.0349
  582MOL0     H78520   8.666  11.125   9.695  1.4618 -1.5090  0.7514
  582MOL0     H78521   8.610  11.301   9.916 -0.3419  2.0062  0.9105
  582MOL0     H78522   8.288  11.366  10.101  1.6527  1.3300  4.5370
  582MOL0     H78523   8.464  11.355  10.134  2.0507 -0.8175 -1.8835
  582MOL0     H78524   8.498  11.525   9.958 -1.1004  0.3726 -1.0966
  582MOL0     H78525   8.411  11.578  10.102  0.5518 -0.0440 -0.1329
  582MOL0     H78526   8.202  11.551   9.926  0.5476  3.3829  2.9679
  582MOL0     H78527   8.342  11.528   9.809  3.4869  0.7005  0.2597
  582MOL0     H78528   8.430  11.746   9.880 -0.8739  1.0077 -2.3266
  582MOL0     H78529   8.289  11.782   9.970  0.8029  1.2517 -1.1390
  582MOL0     H78530   8.152  11.821   9.530 -0.5994  2.4930  0.7616
  582MOL0     H78531   8.007  11.828   9.373  0.1397  0.5967  2.1619
  582MOL0     H78532   7.872  11.717   9.383  0.9050 -0.9480  1.2468
  582MOL0     H78533   7.835  11.894   9.414 -1.4567 -0.6826 -1.4653
  582MOL0     H78534   7.432  11.887   9.630 -0.4325  0.7804  0.2012
  582MOL0     H78535   7.197  11.803   9.595 -1.8226 -0.2444  0.1440
  582MOL0     H78536   7.078  11.381   9.742 -0.9468  0.6579 -2.8675
  582MOL0     H78537   7.081  11.489   9.877 -0.8037 -0.8846 -0.6825
  582MOL0     H78538   6.867  11.457   9.673 -0.6794 -0.9557 -0.1574
  582MOL0     H78539   6.869  11.388   9.846 -0.2165  1.4417  0.6901
  582MOL0     H78540   6.876  11.681   9.800 -1.1589  0.7506 -1.0934
  582MOL0     H78541   6.821  11.589   9.937 -2.1227 -0.3772 -0.3772
  582MOL0     H78542   6.639  11.707   9.788 -1.0876 -0.3602 -0.9593
  582MOL0     H78543   6.690  11.610   9.654 -1.5167  1.6694  0.7907
  582MOL0     H78544   6.547  11.502   9.900 -0.5718 -0.1315 -0.5422
  582MOL0     H78545   6.623  11.400   9.771 -0.4665 -0.9855  1.5755
  582MOL0     H78546   6.428  11.611   9.694  0.9128 -0.2072 -1.6532
  582MOL0     H78547   6.465  11.451   9.619 -1.1953 -2.0742  0.6889
  582MOL0     H78548   6.329  11.472   9.881 -0.1107 -2.4460  1.3353
  582MOL0     H78549   6.363  11.329   9.779  3.1979  1.2787  0.0088
  582MOL0     H78550   6.143  11.345   9.719  0.5276 -0.6854 -0.7655
  582MOL0     H78551   6.209  11.432   9.595  0.6216 -0.0879 -0.4137
  582MOL0     H78552   7.295  11.453   9.815 -0.3337  0.9042  0.9096
  582MOL0     H78553   7.531  11.523   9.820 -1.0623 -2.2342  0.3296
  582MOL0     H78554   7.828  11.737   9.884 -0.4319 -2.4413 -1.5829
  582MOL0     H78555   8.060  11.748   9.934  0.7840  2.3394  0.4575
  582MOL0     H78556   9.148  10.888   9.343  3.1662  3.2283  2.1785
  582MOL0     H78557   9.334  11.017   9.288 -1.6807  0.3215 -3.3417
  582MOL0     H78558   9.740  11.286   9.236  0.5901  1.2115 -1.4203
  582MOL0     H78559   9.969  11.343   9.130 -0.6648  0.7684  1.9863
  582MOL0     H78560  10.190  11.340   9.109 -0.6919 -0.0637  1.4809
  582MOL0     H78561  10.218  11.240   9.251 -0.9731 -0.8604  0.6667
  582MOL0     H78562  10.433  11.152   9.142  0.5096  0.6840  0.9839
  582MOL0     H78563  10.417  11.330   9.130 -2.5537  0.4490  0.5061
  582MOL0     H78564  10.323  11.167   8.894 -0.4587  2.1001 -0.4053
  582MOL0     H78565  10.500  11.173   8.929  2.1354  1.8082  3.3972
  582MOL0     H78566  10.501  11.330   8.793  0.6746 -0.5055  0.1461
  582MOL0     H78567  10.490  11.412   8.947 -1.3740 -3.6847  3.1336
  582MOL0     H78568  10.114  11.518   8.756 -0.1119  1.5660  1.5871
  582MOL0     H78569  10.072  10.923   9.162  1.0118  1.3518  1.7076
  582MOL0     H78570   9.850  10.868   9.207  0.2596  0.5136  1.1904
  583MOL0     O78571  10.635   0.580   4.366  0.1745 -0.0321  0.0411
  583MOL0     C78572  10.693   0.567   4.261 -0.4758  0.4996 -0.0805
  583MOL0     O78573  10.627   0.555   4.142  0.4198  0.6827  0.4607
  583MOL0     C78574  10.484   0.552   4.141  0.4560 -0.3919 -0.1658
  583MOL0     C78575  10.429   0.435   4.192 -0.5902 -0.7812  0.5480
  583MOL0     C78576  10.290   0.428   4.199 -0.4286  0.7913 -0.2784
  583MOL0     C78577  10.214   0.517   4.125  0.4128  0.3067  0.1045
  583MOL0     O78578  10.075   0.508   4.121  0.7963  0.3188 -0.3969
  583MOL0     C78579  10.000   0.382   4.154  0.1988 -0.1519  0.5335
  583MOL0     C78580   9.862   0.437   4.189 -0.0554  0.1446  0.8414
  583MOL0     C78581   9.810   0.533   4.074 -0.7830 -0.3953  0.3148
  583MOL0     C78582   9.655   0.537   4.053 -0.6985  0.7729 -0.1167
  583MOL0     C78583   9.627   0.641   3.952 -0.0978  0.2405  0.9143
  583MOL0     C78584   9.518   0.618   3.850  0.3135 -0.3182  0.2923
  583MOL0     C78585   9.385   0.605   3.927  0.1479 -0.7338 -0.0239
  583MOL0     C78586   9.269   0.561   3.838 -0.5337 -0.5382 -0.7805
  583MOL0     N78587   9.192   0.673   3.792 -0.4529 -0.0006 -0.2104
  583MOL0     C78588   9.159   0.710   3.660 -0.5311  0.3251 -0.8632
  583MOL0     C78589   9.069   0.811   3.660  0.4408  1.0320 -0.8568
  583MOL0     C78590   8.984   0.863   3.548  0.7752 -0.1601  0.0942
  583MOL0     C78591   9.062   0.967   3.465  0.4544 -0.3856  0.0395
  583MOL0     C78592   9.001   0.975   3.320 -0.7347 -0.9033  0.0550
  583MOL0     C78593   8.849   0.994   3.309 -1.3964  1.0694 -1.1409
  583MOL0     O78594   8.773   0.883   3.341 -0.2856  0.1341 -0.6647
  583MOL0     C78595   8.644   0.883   3.290  0.4282 -0.6084  0.2127
  583MOL0     C78596   8.567   0.770   3.333 -0.4161 -0.8186 -0.1833
  583MOL0     C78597   8.425   0.752   3.292 -0.9219  0.8549 -0.7285
  583MOL0     C78598   8.350   0.647   3.364  0.2585  0.0434 -0.2339
  583MOL0     C78599   8.365   0.839   3.199 -0.6189 -0.9522 -0.8306
  583MOL0     C78600   8.223   0.833   3.154  0.1507 -0.1978  0.3198
  583MOL0     O78601   8.178   0.959   3.101 -0.0823  0.6942 -0.2981
  583MOL0     C78602   8.049   0.951   3.069  0.1206 -0.6628  0.6910
  583MOL0     C78603   7.955   1.011   3.158 -0.5069 -0.3505 -0.6532
  583MOL0     C78604   7.822   1.019   3.126 -0.3537  0.7102 -0.6977
  583MOL0     C78605   7.780   0.953   3.006 -0.2975 -0.5871  0.4097
  583MOL0     O78606   7.655   0.978   2.960  0.5316  0.5271 -0.4149
  583MOL0     C78607   7.597   1.112   2.990 -0.1837  0.9856  0.3684
  583MOL0     C78608   7.450   1.123   2.930 -0.0029  0.0314 -0.7543
  583MOL0     C78609   7.391   1.260   2.943  0.8557  0.4412 -0.3766
  583MOL0     C78610   7.258   1.280   2.870  0.1979  0.8194  0.0727
  583MOL0     C78611   7.233   1.422   2.871  0.8384  0.4285 -0.4150
  583MOL0     C78612   7.130   1.457   2.759  0.6649 -0.2183  0.1837
  583MOL0     C78613   6.985   1.406   2.783 -0.4988 -0.7047  0.1270
  583MOL0     C78614   6.930   1.455   2.922 -0.2707  0.0070  0.5612
  583MOL0    Cl78615   6.968   1.366   3.072  0.2028  0.1196  0.0994
  583MOL0     C78616   7.864   0.895   2.920 -0.3328  0.1691 -0.4340
  583MOL0     C78617   8.000   0.884   2.951  0.5383 -0.4822  0.4976
  583MOL0     O78618   8.153   0.732   3.168  0.4035 -0.6167 -0.5882
  583MOL0     C78619   8.445   0.954   3.165 -0.3431 -1.0367 -0.6258
  583MOL0     C78620   8.578   0.974   3.202 -0.0959 -0.2771  0.1474
  583MOL0     N78621   9.051   0.832   3.802  0.1460 -0.1197  0.0248
  583MOL0     N78622   9.121   0.751   3.873 -0.2027 -0.6877 -0.3449
  583MOL0     C78623  10.260   0.622   4.062 -0.5186 -0.5658 -0.3472
  583MOL0     C78624  10.403   0.646   4.074  0.6103 -0.2421 -0.6431
  583MOL0     C78625  10.845   0.588   4.266  0.5356  0.7668  0.6590
  583MOL0     C78626  10.911   0.632   4.149  0.0103 -0.0926  0.0799
  583MOL0     C78627  11.055   0.642   4.141 -0.3273  0.3783 -0.2096
  583MOL0     C78628  11.129   0.612   4.255  0.2958  0.9578 -0.5573
  583MOL0     O78629  11.271   0.622   4.248  0.1941  0.0470  0.2762
  583MOL0     C78630  11.354   0.649   4.366  0.0288 -0.1818 -1.0335
  583MOL0     C78631  11.373   0.796   4.385 -0.5364 -0.4024  0.3907
  583MOL0     C78632  11.442   0.858   4.263 -0.8896 -0.6900  0.4769
  583MOL0     C78633  11.477   1.007   4.290  0.2951  0.1596  0.2929
  583MOL0     C78634  11.591   1.055   4.217 -0.0164 -0.5447 -0.4099
  583MOL0     C78635  11.698   1.085   4.168  0.1233 -0.2139  0.6923
  583MOL0     C78636  11.059   0.571   4.375  0.4312  0.1325  0.4640
  583MOL0     C78637  10.918   0.570   4.382 -0.1760 -0.1003  0.1098
  583MOL0     H78638  10.494   0.364   4.243  2.0296  0.8279 -0.3279
  583MOL0     H78639  10.249   0.335   4.237  1.5025 -2.1954 -4.5709
  583MOL0     H78640  10.001   0.308   4.074  0.0905  0.7565 -0.3366
  583MOL0     H78641  10.034   0.336   4.248 -0.2456 -1.3469  0.1189
  583MOL0     H78642   9.808   0.342   4.195  1.9860 -1.0104  2.7075
  583MOL0     H78643   9.853   0.493   4.283 -0.4771  0.0689  0.8481
  583MOL0     H78644   9.849   0.633   4.096  0.3924 -0.5210 -1.0612
  583MOL0     H78645   9.843   0.510   3.973 -4.5572 -1.4768 -0.8369
  583MOL0     H78646   9.616   0.436   4.042 -1.5389  0.5018  3.8824
  583MOL0     H78647   9.614   0.563   4.152  0.9699 -1.3067  1.2069
  583MOL0     H78648   9.608   0.741   3.991 -1.0160  1.0454 -1.3886
  583MOL0     H78649   9.721   0.651   3.895  0.7563  0.1240  2.2684
  583MOL0     H78650   9.516   0.704   3.782 -0.7901  0.9370  1.8052
  583MOL0     H78651   9.549   0.528   3.797 -3.7715 -2.3312  0.8866
  583MOL0     H78652   9.394   0.523   3.999 -2.0471 -3.7046 -2.8538
  583MOL0     H78653   9.348   0.694   3.978 -2.3864  0.5306 -3.6841
  583MOL0     H78654   9.194   0.504   3.893 -0.0044  1.3226  2.0974
  583MOL0     H78655   9.304   0.507   3.749  0.8388 -0.5452 -0.2634
  583MOL0     H78656   9.198   0.644   3.582  0.6414 -1.6754  1.2648
  583MOL0     H78657   8.955   0.779   3.485 -1.4421  0.5020  0.1515
  583MOL0     H78658   8.889   0.904   3.584  0.6572 -1.6347  1.6466
  583MOL0     H78659   9.170   0.949   3.468  0.5114 -0.1368 -0.3590
  583MOL0     H78660   9.044   1.070   3.497  2.0923  0.4063 -1.3759
  583MOL0     H78661   9.011   0.877   3.273 -0.8522 -1.9855  2.1725
  583MOL0     H78662   9.042   1.057   3.260  0.2470 -0.2164  1.5880
  583MOL0     H78663   8.841   1.016   3.202  3.2026 -1.8199 -2.3442
  583MOL0     H78664   8.814   1.075   3.373  0.5267  0.9306  0.1782
  583MOL0     H78665   8.614   0.702   3.403  0.5399 -1.5014 -1.4477
  583MOL0     H78666   8.251   0.688   3.387  0.0344 -1.1052  1.0134
  583MOL0     H78667   8.338   0.557   3.304  0.5225  0.2279 -0.5718
  583MOL0     H78668   8.406   0.631   3.457  2.1867  0.3699 -1.2994
  583MOL0     H78669   7.992   1.053   3.251  1.5740  2.3234 -2.5025
  583MOL0     H78670   7.751   1.067   3.192  1.1513 -1.6891  2.9772
  583MOL0     H78671   7.593   1.136   3.096  0.5582 -0.5416  0.7715
  583MOL0     H78672   7.665   1.184   2.944  0.9879  0.5026  1.3065
  583MOL0     H78673   7.465   1.092   2.826  0.3224 -0.1877 -0.6439
  583MOL0     H78674   7.383   1.054   2.982 -2.2130  2.8303  0.3613
  583MOL0     H78675   7.467   1.324   2.899  1.2697  0.8454  0.8771
  583MOL0     H78676   7.397   1.285   3.050  2.1653 -0.4643 -0.2067
  583MOL0     H78677   7.259   1.241   2.768 -0.0099 -2.3734  1.1919
  583MOL0     H78678   7.173   1.230   2.917  0.7880  0.4556  0.7706
  583MOL0     H78679   7.322   1.477   2.842  2.2797 -1.3150  0.5117
  583MOL0     H78680   7.192   1.465   2.963 -1.1159 -0.0944 -0.9849
  583MOL0     H78681   7.134   1.565   2.742  2.8076 -0.3749 -0.6602
  583MOL0     H78682   7.151   1.412   2.662  0.3872 -2.5902  1.1751
  583MOL0     H78683   6.981   1.297   2.773  1.7145 -0.8082 -0.2127
  583MOL0     H78684   6.923   1.446   2.702 -1.5933 -2.9760 -0.2211
  583MOL0     H78685   6.821   1.464   2.920 -0.1219  2.3367 -1.6095
  583MOL0     H78686   6.974   1.555   2.924  0.4932 -0.3206  0.6800
  583MOL0     H78687   7.833   0.850   2.826  2.9178 -1.4472 -0.9089
  583MOL0     H78688   8.069   0.833   2.884  0.5289 -3.1780  2.3477
  583MOL0     H78689   8.406   1.032   3.099 -1.2657 -0.5188  0.4873
  583MOL0     H78690   8.637   1.054   3.157 -1.7681  0.6182 -0.5183
  583MOL0     H78691  10.187   0.688   4.017 -1.4574 -0.5751  1.0678
  583MOL0     H78692  10.454   0.731   4.031  2.0174 -1.2679 -1.0721
  583MOL0     H78693  10.859   0.655   4.057 -0.8652 -2.1678  0.0057
  583MOL0     H78694  11.101   0.668   4.046  2.0350  1.9357  1.2463
  583MOL0     H78695  11.305   0.614   4.458 -2.0547  1.7315 -1.3283
  583MOL0     H78696  11.443   0.586   4.357 -0.1846 -0.6892  0.2230
  583MOL0     H78697  11.435   0.803   4.475 -1.7367 -1.6320  1.3516
  583MOL0     H78698  11.281   0.848   4.413  1.5228  2.2523  2.9541
  583MOL0     H78699  11.389   0.855   4.167  0.1422  1.0759 -0.1900
  583MOL0     H78700  11.534   0.803   4.241  0.3360  1.3701  0.1512
  583MOL0     H78701  11.493   1.028   4.396 -0.7841 -0.7111  0.6498
  583MOL0     H78702  11.389   1.070   4.279 -0.7412 -0.7606  2.6300
  583MOL0     H78703  11.779   1.133   4.115 -2.1821  0.3334 -2.6985
  583MOL0     H78704  11.123   0.570   4.463  1.7209  0.9467 -0.4366
  583MOL0     H78705  10.883   0.542   4.480  0.9250  0.5090  0.6944
  584MOL0     O78706  10.493   1.380   6.542  0.3297 -0.4727  0.4664
  584MOL0     C78707  10.589   1.460   6.522 -0.0394 -0.8596 -0.3761
  584MOL0     O78708  10.582   1.590   6.528 -0.5080 -0.4183 -0.1558
  584MOL0     C78709  10.465   1.654   6.569 -0.3181  0.5772  0.0980
  584MOL0     C78710  10.418   1.766   6.494  0.6686 -0.9233  0.0292
  584MOL0     C78711  10.304   1.837   6.536  0.5945 -0.9840  0.5474
  584MOL0     C78712  10.226   1.804   6.645 -0.2189 -0.1773 -1.0564
  584MOL0     O78713  10.113   1.864   6.687  0.5594 -0.3512 -0.5107
  584MOL0     C78714  10.071   1.977   6.611 -0.0768 -0.2965 -0.5849
  584MOL0     C78715   9.980   2.061   6.700  0.3383 -0.5436  0.2309
  584MOL0     C78716   9.895   2.162   6.623 -0.0551  0.7855 -0.2711
  584MOL0     C78717   9.762   2.197   6.705  0.3121  0.1489  0.3367
  584MOL0     C78718   9.665   2.301   6.651  1.0624  0.6116 -0.3143
  584MOL0     C78719   9.610   2.263   6.511  0.3307 -1.0042 -0.0570
  584MOL0     C78720   9.519   2.382   6.454 -0.3987  0.0013  0.1288
  584MOL0     C78721   9.400   2.416   6.546  0.8831  0.1797 -0.4505
  584MOL0     N78722   9.298   2.472   6.459  0.2781 -0.2939 -0.6586
  584MOL0     C78723   9.179   2.409   6.438  0.4579 -0.5337 -0.0489
  584MOL0     C78724   9.108   2.495   6.359 -0.0828 -0.2219  0.1577
  584MOL0     C78725   8.978   2.470   6.303  0.1273  0.6638 -0.6695
  584MOL0     C78726   8.882   2.420   6.408 -0.2501  1.0052 -0.5207
  584MOL0     C78727   8.742   2.400   6.331 -0.2428 -0.5161  0.2860
  584MOL0     C78728   8.661   2.294   6.400 -0.3843  0.1321 -0.3410
  584MOL0     O78729   8.593   2.353   6.519 -0.7048  0.3159 -0.3983
  584MOL0     C78730   8.500   2.270   6.577  0.2612 -0.5372 -0.2970
  584MOL0     C78731   8.527   2.205   6.694 -0.5733  0.7218 -0.5556
  584MOL0     C78732   8.440   2.120   6.756  0.0908  0.2859  0.6928
  584MOL0     C78733   8.498   2.050   6.879 -0.3933 -0.5419  0.0719
  584MOL0     C78734   8.312   2.097   6.695 -0.7171 -0.6558 -0.8621
  584MOL0     C78735   8.200   2.017   6.750 -1.7265  0.6636  0.9692
  584MOL0     O78736   8.084   2.041   6.688 -0.8983  0.2038 -0.1726
  584MOL0     C78737   7.965   1.994   6.734  0.4951  0.4402  0.0197
  584MOL0     C78738   7.869   2.092   6.719 -1.0993  0.1857 -0.2685
  584MOL0     C78739   7.747   2.080   6.772  1.2398 -0.2252 -0.5643
  584MOL0     C78740   7.714   1.960   6.849 -0.8900  0.3702  0.2469
  584MOL0     O78741   7.583   1.962   6.893 -0.5056 -0.1698  0.3605
  584MOL0     C78742   7.523   1.838   6.939  0.2264  0.0688 -0.1208
  584MOL0     C78743   7.372   1.883   6.945  0.2124 -0.6893  0.2225
  584MOL0     C78744   7.280   1.760   6.991 -0.0350 -0.4979  0.1852
  584MOL0     C78745   7.266   1.658   6.880  0.2523 -0.3018 -0.0994
  584MOL0     C78746   7.168   1.688   6.766  0.0084  0.3483 -0.4696
  584MOL0     C78747   7.035   1.738   6.820 -0.0584  0.4273 -0.3754
  584MOL0     C78748   6.938   1.738   6.705  0.4007  0.0339  0.0487
  584MOL0     C78749   6.797   1.767   6.748 -0.0974 -0.4535 -0.8058
  584MOL0    Cl78750   6.698   1.825   6.600 -0.3815  0.0566 -0.0963
  584MOL0     C78751   7.811   1.861   6.851 -0.0458  0.1714 -0.4410
  584MOL0     C78752   7.933   1.874   6.794  0.2334  0.3754 -0.5795
  584MOL0     O78753   8.223   1.947   6.846 -0.8276 -0.1424  0.7418
  584MOL0     C78754   8.286   2.172   6.572 -0.2029  0.1988  0.1942
  584MOL0     C78755   8.375   2.263   6.521 -0.3885 -0.2358  0.8935
  584MOL0     N78756   9.180   2.610   6.339 -0.6018  0.7457  1.0071
  584MOL0     N78757   9.303   2.580   6.380 -0.2072  0.0932  0.0377
  584MOL0     C78758  10.279   1.699   6.720 -0.1444 -0.6265  0.4739
  584MOL0     C78759  10.398   1.628   6.692 -1.0493 -0.0732 -0.1562
  584MOL0     C78760  10.730   1.400   6.508  0.1671  0.1493  0.4663
  584MOL0     C78761  10.835   1.483   6.548  0.8419  0.6073  0.1546
  584MOL0     C78762  10.965   1.436   6.531 -0.7949  0.3822  0.0031
  584MOL0     C78763  10.992   1.307   6.493 -0.6490 -0.3164 -0.3176
  584MOL0     O78764  11.119   1.258   6.454 -0.5900 -0.3765  0.1574
  584MOL0     C78765  11.221   1.298   6.539 -0.2102  0.5323  0.3450
  584MOL0     C78766  11.351   1.225   6.495  0.2632 -0.1519 -0.7152
  584MOL0     C78767  11.479   1.270   6.564  1.0326  0.2088  0.2112
  584MOL0     C78768  11.605   1.183   6.541  0.2378  0.1851  0.9194
  584MOL0     C78769  11.625   1.163   6.395  0.0404  0.3074 -0.3850
  584MOL0     C78770  11.643   1.140   6.277 -0.0487  0.2848  0.2609
  584MOL0     C78771  10.888   1.214   6.472  0.2147 -0.4681 -0.2982
  584MOL0     C78772  10.756   1.266   6.473 -0.5071  1.0970 -0.0781
  584MOL0     H78773  10.458   1.799   6.399 -0.6531  0.9146  0.0592
  584MOL0     H78774  10.260   1.910   6.468 -0.1167 -1.2153  0.7487
  584MOL0     H78775  10.147   2.053   6.588 -1.9729  1.4425 -1.4654
  584MOL0     H78776  10.018   1.949   6.520  0.0399  2.8006 -1.7242
  584MOL0     H78777   9.923   1.983   6.751 -1.0154  0.9845  1.1633
  584MOL0     H78778  10.036   2.116   6.777  1.2337 -0.5674 -0.3941
  584MOL0     H78779   9.949   2.255   6.603  0.8079  0.5441  0.8212
  584MOL0     H78780   9.866   2.123   6.526  0.6753  1.7351 -0.8917
  584MOL0     H78781   9.702   2.105   6.704  0.7689 -0.1486 -0.1088
  584MOL0     H78782   9.775   2.226   6.810 -5.0483  1.7118  0.8882
  584MOL0     H78783   9.575   2.287   6.712  1.3243 -0.3028 -0.1272
  584MOL0     H78784   9.701   2.404   6.652 -1.0585  1.4431 -1.7101
  584MOL0     H78785   9.688   2.242   6.438 -0.0299 -2.4932 -0.0557
  584MOL0     H78786   9.558   2.166   6.512  0.4370 -1.0688  0.9630
  584MOL0     H78787   9.580   2.470   6.428 -3.0545  1.6529 -0.9375
  584MOL0     H78788   9.485   2.345   6.357 -0.3693  1.9638 -0.6783
  584MOL0     H78789   9.435   2.481   6.627 -1.1590  0.0717  0.5754
  584MOL0     H78790   9.359   2.326   6.593  2.0684  0.3173  0.9407
  584MOL0     H78791   9.146   2.310   6.470  1.5774 -1.5714 -1.9008
  584MOL0     H78792   8.954   2.561   6.248 -0.9714 -0.9841 -3.1165
  584MOL0     H78793   8.988   2.390   6.229 -1.6502  0.0793 -0.3306
  584MOL0     H78794   8.869   2.497   6.484 -1.8537  0.8284 -0.5790
  584MOL0     H78795   8.915   2.322   6.444 -1.2444  0.3017 -1.4670
  584MOL0     H78796   8.765   2.373   6.228 -0.0581  1.4081 -0.2150
  584MOL0     H78797   8.682   2.492   6.338 -1.4743 -1.2723 -0.0979
  584MOL0     H78798   8.732   2.218   6.435  0.6805  1.0777 -0.3934
  584MOL0     H78799   8.605   2.239   6.323 -3.0392  0.6431  1.1113
  584MOL0     H78800   8.624   2.208   6.744 -1.1834  4.5990  0.7039
  584MOL0     H78801   8.498   2.124   6.960  0.6867  0.4774 -0.8156
  584MOL0     H78802   8.438   1.965   6.912 -1.5419  1.1471  2.6435
  584MOL0     H78803   8.603   2.020   6.867 -0.1740  0.0469  0.4347
  584MOL0     H78804   7.898   2.180   6.663  3.6757 -1.5470 -0.9771
  584MOL0     H78805   7.685   2.169   6.773  1.6663  0.0787  1.2962
  584MOL0     H78806   7.532   1.756   6.866 -0.5851 -1.9708  1.9634
  584MOL0     H78807   7.560   1.797   7.033  0.3742 -1.2228 -0.7242
  584MOL0     H78808   7.366   1.962   7.020 -1.9568 -0.6831  0.1149
  584MOL0     H78809   7.341   1.919   6.847 -2.8881 -3.2959  0.0703
  584MOL0     H78810   7.185   1.803   7.027  0.4009  0.2265  0.5010
  584MOL0     H78811   7.323   1.715   7.081  0.0933 -0.5415  0.1020
  584MOL0     H78812   7.363   1.648   6.831  0.3233  1.0375 -0.2544
  584MOL0     H78813   7.243   1.564   6.932 -0.1415  0.8313  1.8561
  584MOL0     H78814   7.159   1.603   6.698  1.7718 -0.0057 -0.2956
  584MOL0     H78815   7.209   1.771   6.709 -2.6194  1.5224 -0.8355
  584MOL0     H78816   6.998   1.674   6.901 -2.4692  1.0200 -0.9426
  584MOL0     H78817   7.049   1.840   6.854  3.1158 -0.1296  0.3023
  584MOL0     H78818   6.942   1.648   6.643  0.9344  0.0731  0.0194
  584MOL0     H78819   6.957   1.820   6.635  1.6096  1.0343  1.4802
  584MOL0     H78820   6.783   1.840   6.829  1.7025 -0.7451 -0.1965
  584MOL0     H78821   6.772   1.665   6.776  0.7651 -0.9405 -1.7741
  584MOL0     H78822   7.789   1.765   6.898  0.5849  0.6541  0.9197
  584MOL0     H78823   8.007   1.795   6.804  1.0178  1.3370  2.2026
  584MOL0     H78824   8.189   2.159   6.525  0.5139  1.3427 -1.6992
  584MOL0     H78825   8.335   2.327   6.443  1.4759  1.5591  1.3151
  584MOL0     H78826  10.222   1.696   6.813 -0.0427 -1.6899  0.5196
  584MOL0     H78827  10.441   1.544   6.747 -1.2110 -1.9465 -2.6813
  584MOL0     H78828  10.818   1.586   6.578  3.6971  1.0381  0.5540
  584MOL0     H78829  11.047   1.500   6.562 -0.4620 -0.1213  0.1738
  584MOL0     H78830  11.235   1.406   6.529  1.4688  0.2422 -0.9146
  584MOL0     H78831  11.182   1.276   6.639 -1.4488 -1.7491 -0.5807
  584MOL0     H78832  11.357   1.234   6.386 -2.2106 -2.6902 -1.1909
  584MOL0     H78833  11.336   1.118   6.508  2.2038 -0.6442 -2.0514
  584MOL0     H78834  11.463   1.267   6.673  0.4735  1.3847  0.1861
  584MOL0     H78835  11.503   1.373   6.533  2.2350 -0.0688  0.1514
  584MOL0     H78836  11.600   1.085   6.590 -0.1231 -0.6508 -0.6776
  584MOL0     H78837  11.695   1.230   6.580  3.2155 -3.5465 -0.7624
  584MOL0     H78838  11.678   1.105   6.182 -0.2768  2.1838 -0.5566
  584MOL0     H78839  10.906   1.109   6.451 -2.0442 -0.8400 -0.6670
  584MOL0     H78840  10.674   1.197   6.458  1.2565 -1.6915  2.0690
  585MOL0     O78841   8.401   9.496   7.339 -0.3662 -0.1559 -0.4240
  585MOL0     C78842   8.345   9.561   7.252 -0.0083 -0.1273 -0.1767
  585MOL0     O78843   8.208   9.564   7.229 -0.7875  0.0173  0.1981
  585MOL0     C78844   8.129   9.469   7.266 -0.2363 -0.3017 -0.7394
  585MOL0     C78845   8.155   9.333   7.240 -0.1139  0.7562 -0.5860
  585MOL0     C78846   8.063   9.237   7.268  0.7911  0.4633  0.7668
  585MOL0     C78847   7.940   9.268   7.331  0.5555  0.3412  0.0151
  585MOL0     O78848   7.841   9.174   7.359 -0.3146 -0.3595 -0.6520
  585MOL0     C78849   7.794   9.089   7.262 -0.3256  0.3582  0.1733
  585MOL0     C78850   7.705   9.147   7.148  0.2135  0.6948  0.0343
  585MOL0     C78851   7.581   9.221   7.194  0.8535 -0.1398  0.9798
  585MOL0     C78852   7.493   9.136   7.282  0.1915 -0.4859  0.1211
  585MOL0     C78853   7.353   9.195   7.304 -0.4578  0.7758 -1.2507
  585MOL0     C78854   7.275   9.105   7.410  0.0729 -0.2865  1.2707
  585MOL0     C78855   7.142   9.171   7.443 -0.0982 -0.1645  0.2904
  585MOL0     C78856   7.052   9.070   7.506 -0.3534 -0.0475  0.7971
  585MOL0     N78857   6.935   9.145   7.546 -0.2124 -0.5027 -0.1121
  585MOL0     C78858   6.817   9.147   7.483 -0.4721 -0.0927  0.1310
  585MOL0     C78859   6.736   9.204   7.573 -0.2838  0.7538  0.5117
  585MOL0     C78860   6.583   9.199   7.555 -1.1680  0.0260 -0.2577
  585MOL0     C78861   6.542   9.261   7.421  0.7708  0.2343 -0.7320
  585MOL0     C78862   6.394   9.257   7.405  0.4828  0.0139  0.5862
  585MOL0     C78863   6.349   9.329   7.279 -0.5081  0.3413  0.3573
  585MOL0     O78864   6.208   9.354   7.282  0.2604  0.1834 -0.2304
  585MOL0     C78865   6.117   9.253   7.268  0.2533 -0.0600  0.1375
  585MOL0     C78866   6.150   9.121   7.226  0.1300  0.3486  0.6131
  585MOL0     C78867   6.051   9.020   7.191  0.4181 -0.9808 -0.6635
  585MOL0     C78868   6.095   8.886   7.142  0.8685  0.0401  0.6522
  585MOL0     C78869   5.913   9.057   7.215  0.2439 -0.7912 -0.1760
  585MOL0     C78870   5.800   8.961   7.194 -1.2686 -0.7988  0.4366
  585MOL0     O78871   5.679   9.026   7.168  1.1126 -0.4412 -0.4037
  585MOL0     C78872   5.562   8.957   7.148 -0.1495  0.2338 -0.1937
  585MOL0     C78873   5.497   8.895   7.254 -0.6524 -0.5723  0.6845
  585MOL0     C78874   5.396   8.815   7.219  0.7645 -0.5690  0.1035
  585MOL0     C78875   5.344   8.802   7.084 -1.0107  0.0424 -0.3952
  585MOL0     O78876   5.244   8.718   7.047 -0.6251 -0.1413  0.1603
  585MOL0     C78877   5.147   8.674   7.142  0.0641  0.2757 -0.0744
  585MOL0     C78878   5.032   8.620   7.054 -0.3116  0.7015  0.0226
  585MOL0     C78879   4.940   8.523   7.132  0.2629 -0.1487  0.3662
  585MOL0     C78880   4.826   8.452   7.050 -0.6849  0.9553 -0.1984
  585MOL0     C78881   4.721   8.374   7.130 -0.3079 -0.6550 -0.6182
  585MOL0     C78882   4.775   8.272   7.226  0.3093 -0.2173 -1.0902
  585MOL0     C78883   4.667   8.195   7.305 -0.0435  0.2226 -0.4733
  585MOL0     C78884   4.706   8.050   7.323 -0.1899  0.1245 -0.4236
  585MOL0    Cl78885   4.846   8.029   7.431  0.3675  0.3432 -0.0623
  585MOL0     C78886   5.403   8.858   6.979 -0.1339 -0.6194 -0.4459
  585MOL0     C78887   5.518   8.944   7.013  0.0969  0.7371  1.3892
  585MOL0     O78888   5.819   8.838   7.204  0.5030 -0.2022 -0.3035
  585MOL0     C78889   5.884   9.190   7.260 -0.3973  0.5709 -0.2439
  585MOL0     C78890   5.983   9.283   7.291  0.2284 -0.5380  0.0224
  585MOL0     N78891   6.803   9.237   7.685 -0.0009  0.7737 -0.2699
  585MOL0     N78892   6.925   9.213   7.669  0.1352  0.3716 -0.0217
  585MOL0     C78893   7.921   9.403   7.356  0.0755 -0.0463 -0.1125
  585MOL0     C78894   8.014   9.508   7.334  0.4460  0.1675 -0.2722
  585MOL0     C78895   8.420   9.641   7.155  0.2879  0.4101  0.4038
  585MOL0     C78896   8.353   9.707   7.046 -0.1172  0.2561  0.9311
  585MOL0     C78897   8.432   9.783   6.954  1.0212  0.6807  0.4844
  585MOL0     C78898   8.571   9.785   6.964  0.8741 -0.3376 -0.9773
  585MOL0     O78899   8.655   9.855   6.879  1.4529  0.3424  0.6466
  585MOL0     C78900   8.596   9.938   6.783  0.2005 -0.9054  0.5124
  585MOL0     C78901   8.718   9.999   6.708 -0.3941 -0.2868  0.3517
  585MOL0     C78902   8.805  10.080   6.794  0.3126  0.5807  0.0030
  585MOL0     C78903   8.776  10.230   6.789  0.2526  0.1760 -0.1708
  585MOL0     C78904   8.883  10.303   6.864  0.0042  0.4962  0.8812
  585MOL0     C78905   8.966  10.370   6.923 -0.1814  0.1496  0.0240
  585MOL0     C78906   8.633   9.727   7.073 -0.0208 -0.1674  0.8737
  585MOL0     C78907   8.564   9.663   7.167  0.2116 -0.1912  0.4830
  585MOL0     H78908   8.251   9.309   7.194  1.2054 -0.2566  2.4706
  585MOL0     H78909   8.103   9.137   7.248  1.1957  0.4613  1.5575
  585MOL0     H78910   7.871   9.021   7.226  0.6499 -0.5838  3.6861
  585MOL0     H78911   7.733   9.013   7.313  2.1806  0.7089  4.0693
  585MOL0     H78912   7.768   9.210   7.083  1.3235 -0.3640  0.0440
  585MOL0     H78913   7.671   9.061   7.090 -2.8876  2.1268 -0.4264
  585MOL0     H78914   7.607   9.315   7.243  2.0460 -0.1295  0.3733
  585MOL0     H78915   7.512   9.251   7.114 -0.2527 -1.6351  1.3112
  585MOL0     H78916   7.480   9.037   7.237  3.5970 -0.5401 -1.0892
  585MOL0     H78917   7.536   9.118   7.381  0.4018  2.4277  0.6436
  585MOL0     H78918   7.375   9.291   7.352 -0.6745  0.7156 -1.0297
  585MOL0     H78919   7.301   9.216   7.210 -0.2728  0.1648 -1.4903
  585MOL0     H78920   7.265   9.009   7.359  1.0560  1.0084 -1.5772
  585MOL0     H78921   7.342   9.092   7.496  0.1608  2.2763  1.6750
  585MOL0     H78922   7.150   9.255   7.512  0.0410 -1.0052  1.3238
  585MOL0     H78923   7.097   9.217   7.355  0.3247  1.6620  0.9716
  585MOL0     H78924   7.098   9.014   7.588  2.0194  1.9582  0.9520
  585MOL0     H78925   7.035   8.990   7.432 -1.0099  0.5947  0.2396
  585MOL0     H78926   6.781   9.090   7.397 -0.2398 -3.4526  2.0961
  585MOL0     H78927   6.546   9.096   7.560 -0.2169 -0.2805  2.9306
  585MOL0     H78928   6.544   9.259   7.638 -0.4792 -0.4852  0.4435
  585MOL0     H78929   6.588   9.202   7.341 -1.0791 -2.3587 -0.0110
  585MOL0     H78930   6.574   9.365   7.416  4.0499 -0.4071  2.5618
  585MOL0     H78931   6.343   9.307   7.488  0.1025  0.3851  0.1330
  585MOL0     H78932   6.371   9.151   7.393 -1.0350  0.3308  0.4393
  585MOL0     H78933   6.380   9.276   7.188  1.3008  1.9340  0.0001
  585MOL0     H78934   6.397   9.427   7.285 -0.4465  0.2906  0.6991
  585MOL0     H78935   6.251   9.087   7.208 -0.1600  0.5023 -1.6915
  585MOL0     H78936   6.202   8.876   7.127  1.0986 -0.7394  2.5582
  585MOL0     H78937   6.077   8.799   7.206 -1.8385 -0.1833 -0.2604
  585MOL0     H78938   6.042   8.856   7.051  1.5303  0.5838  0.0758
  585MOL0     H78939   5.532   8.919   7.354 -0.6118  1.9086  0.1459
  585MOL0     H78940   5.341   8.768   7.300  0.6260 -0.8077 -0.1307
  585MOL0     H78941   5.193   8.596   7.204 -0.7039  0.8204  1.1925
  585MOL0     H78942   5.115   8.761   7.200 -0.5667  0.2066 -0.3132
  585MOL0     H78943   4.980   8.715   7.036  1.0514  1.7909  1.4995
  585MOL0     H78944   5.059   8.570   6.960 -1.5870  0.8088 -0.4171
  585MOL0     H78945   4.892   8.566   7.219  3.3449  1.5785  1.3579
  585MOL0     H78946   5.002   8.447   7.180  0.0450 -0.8887 -0.4848
  585MOL0     H78947   4.767   8.510   6.979 -2.8318 -2.8039 -1.8483
  585MOL0     H78948   4.874   8.377   6.986  0.0594  0.0867  1.3130
  585MOL0     H78949   4.647   8.334   7.060 -0.3564  0.1194 -1.0230
  585MOL0     H78950   4.658   8.445   7.183 -1.1774 -2.1075  0.3704
  585MOL0     H78951   4.838   8.209   7.163  0.1918  0.6267 -2.0788
  585MOL0     H78952   4.836   8.322   7.303  0.8130  0.3832 -1.8687
  585MOL0     H78953   4.577   8.193   7.243  0.0628 -2.9317 -0.7287
  585MOL0     H78954   4.645   8.236   7.404  1.9052  0.0032  0.1036
  585MOL0     H78955   4.729   8.011   7.223 -1.4229 -0.6438 -0.4304
  585MOL0     H78956   4.631   7.987   7.371  1.9214 -0.3795  2.4276
  585MOL0     H78957   5.363   8.837   6.880 -2.7018  0.8158  0.2074
  585MOL0     H78958   5.570   8.989   6.929 -2.8110  1.2718 -0.2850
  585MOL0     H78959   5.779   9.212   7.277 -0.2107  1.6999 -0.4722
  585MOL0     H78960   5.963   9.382   7.333  0.3337 -1.0447  1.3171
  585MOL0     H78961   7.818   9.418   7.387  0.0985 -2.6835  1.4966
  585MOL0     H78962   7.983   9.609   7.361 -1.8934 -0.6564  0.3211
  585MOL0     H78963   8.245   9.699   7.043  0.0118 -2.8509 -0.5234
  585MOL0     H78964   8.380   9.831   6.872  1.2630 -0.8217 -0.5840
  585MOL0     H78965   8.534   9.876   6.717  0.0881 -0.2731  0.0217
  585MOL0     H78966   8.541  10.013   6.840 -1.2083 -2.1704  0.9099
  585MOL0     H78967   8.676  10.059   6.626  1.2585 -0.3762 -0.6012
  585MOL0     H78968   8.773   9.922   6.652 -3.3417 -2.5882  0.3498
  585MOL0     H78969   8.901  10.074   6.742 -1.2055  2.4527 -3.3850
  585MOL0     H78970   8.816  10.033   6.892  2.5900  0.8190 -0.0776
  585MOL0     H78971   8.681  10.252   6.839  1.9116 -0.4751  3.6191
  585MOL0     H78972   8.771  10.258   6.684  0.6299 -0.7090 -0.4306
  585MOL0     H78973   9.058  10.421   6.944 -1.2844  1.3666  2.1943
  585MOL0     H78974   8.741   9.725   7.084 -0.3127 -0.8389  4.8860
  585MOL0     H78975   8.629   9.609   7.235  1.8180  0.7660 -0.2331
  586MOL0     O78976   6.562  10.133   6.447 -0.0854  0.5818 -0.8768
  586MOL0     C78977   6.547  10.256   6.436 -0.5080  0.2413 -0.0889
  586MOL0     O78978   6.432  10.325   6.401  0.3636  0.1459 -0.4581
  586MOL0     C78979   6.312  10.258   6.375  0.2063 -0.3974 -0.7345
  586MOL0     C78980   6.282  10.133   6.436  0.4020 -0.3768  0.0134
  586MOL0     C78981   6.156  10.076   6.413  0.1254  0.1455  0.2143
  586MOL0     C78982   6.054  10.135   6.338  0.3662 -0.1844 -0.3159
  586MOL0     O78983   5.932  10.073   6.334 -0.2167  0.1691 -0.3158
  586MOL0     C78984   5.845  10.103   6.225 -0.9191 -0.1475 -0.0816
  586MOL0     C78985   5.760   9.972   6.206  0.4262 -0.6177 -0.3021
  586MOL0     C78986   5.674   9.929   6.323 -0.0209  0.1136  0.5664
  586MOL0     C78987   5.568   9.832   6.278  0.5722  0.0103 -0.9441
  586MOL0     C78988   5.453   9.803   6.395 -0.9638 -0.3676 -0.7191
  586MOL0     C78989   5.391   9.934   6.441  0.8055 -0.1063  0.1478
  586MOL0     C78990   5.265   9.923   6.528  0.1283  0.4366  0.0336
  586MOL0     C78991   5.134   9.895   6.448  1.1350  0.5378 -0.6812
  586MOL0     N78992   5.007   9.903   6.530  0.7305 -0.1788  0.3741
  586MOL0     C78993   4.955  10.014   6.587  0.1006 -0.9596  0.1050
  586MOL0     C78994   4.828   9.970   6.616  0.8174 -0.2387  0.4604
  586MOL0     C78995   4.718  10.066   6.665 -0.0572  0.5991  0.0199
  586MOL0     C78996   4.673  10.132   6.545 -0.5489  0.2793 -0.3968
  586MOL0     C78997   4.549  10.214   6.573  0.4936  0.4589  0.4324
  586MOL0     C78998   4.426  10.143   6.612 -0.2034  0.6446 -0.4547
  586MOL0     O78999   4.319  10.238   6.590 -0.0521 -0.6700  0.3028
  586MOL0     C79000   4.190  10.196   6.624 -0.2785 -0.2027  0.7280
  586MOL0     C79001   4.157  10.077   6.683  0.6112 -0.2906  0.1097
  586MOL0     C79002   4.020  10.048   6.719 -0.1665  1.2763  0.3181
  586MOL0     C79003   3.982   9.911   6.773 -0.2120  0.7585  0.5365
  586MOL0     C79004   3.919  10.147   6.693  0.3239 -0.3428 -0.6484
  586MOL0     C79005   3.770  10.141   6.739 -0.2360 -0.2413  0.4186
  586MOL0     O79006   3.704  10.253   6.718  0.4674  0.1544 -0.2702
  586MOL0     C79007   3.568  10.239   6.712 -0.6138 -1.4661 -0.2263
  586MOL0     C79008   3.514  10.154   6.622  0.3330  0.4377 -0.0766
  586MOL0     C79009   3.376  10.150   6.614 -0.2290  0.3384  0.1211
  586MOL0     C79010   3.295  10.244   6.683 -0.6100  0.7860  0.3419
  586MOL0     O79011   3.163  10.247   6.692  0.5384  0.9291 -0.1734
  586MOL0     C79012   3.088  10.140   6.634  0.3116  0.7366 -0.1591
  586MOL0     C79013   2.939  10.171   6.670 -1.2996  0.6386  0.6566
  586MOL0     C79014   2.837  10.092   6.594 -0.4577 -0.1509  0.6517
  586MOL0     C79015   2.699  10.119   6.656 -0.6471  0.1326  0.3955
  586MOL0     C79016   2.588  10.039   6.580 -0.4130 -0.3712  0.9351
  586MOL0     C79017   2.460  10.066   6.644 -0.8448  0.3757 -0.1801
  586MOL0     C79018   2.353  10.057   6.536  0.3788 -0.5950  0.8549
  586MOL0     C79019   2.235   9.973   6.584  0.2076 -0.7602  0.2305
  586MOL0    Cl79020   2.098   9.997   6.470 -0.3238  0.0114 -0.0503
  586MOL0     C79021   3.358  10.337   6.758  1.3086 -0.2242  0.0710
  586MOL0     C79022   3.494  10.342   6.768 -0.8724 -0.2256 -0.2601
  586MOL0     O79023   3.715  10.042   6.784 -0.8527  0.5898  0.5911
  586MOL0     C79024   3.956  10.268   6.629  0.0640  0.4770 -0.1838
  586MOL0     C79025   4.085  10.287   6.585  1.0000 -0.2748  0.6353
  586MOL0     N79026   4.817   9.838   6.578  0.1951  0.0339  0.6362
  586MOL0     N79027   4.929   9.795   6.535  0.6924  0.1147 -0.5437
  586MOL0     C79028   6.083  10.259   6.278  0.1476 -0.2088  0.0620
  586MOL0     C79029   6.208  10.317   6.293 -0.1207  0.7762 -0.7831
  586MOL0     C79030   6.676  10.328   6.440  0.5659 -0.2544  0.2453
  586MOL0     C79031   6.796  10.262   6.450  0.5188  0.6022  0.1382
  586MOL0     C79032   6.916  10.328   6.419 -0.7198 -0.0669 -0.1682
  586MOL0     C79033   6.919  10.463   6.393  0.2244 -0.5176 -0.2284
  586MOL0     O79034   7.048  10.519   6.373 -0.2258  0.0408  0.2550
  586MOL0     C79035   7.068  10.655   6.399  0.3324 -1.1759  0.5194
  586MOL0     C79036   7.224  10.690   6.402  0.3261 -0.4884  0.0916
  586MOL0     C79037   7.316  10.581   6.456  0.0530  0.4962  0.6666
  586MOL0     C79038   7.274  10.523   6.596 -0.4598  0.0582 -0.6131
  586MOL0     C79039   7.389  10.466   6.676 -0.4147 -0.7255  0.5983
  586MOL0     C79040   7.485  10.416   6.733 -0.2728 -0.4410  0.3098
  586MOL0     C79041   6.793  10.540   6.391  0.4969  0.2184  0.2609
  586MOL0     C79042   6.674  10.472   6.413  0.2683 -0.0903 -0.3736
  586MOL0     H79043   6.346  10.084   6.507  0.0799  1.0941  1.3854
  586MOL0     H79044   6.133   9.977   6.451  2.2566  0.3351  2.2223
  586MOL0     H79045   5.791  10.198   6.234  1.1662  1.1487 -0.5113
  586MOL0     H79046   5.905  10.117   6.134  1.3276 -1.6751  1.0538
  586MOL0     H79047   5.691   9.994   6.124  0.0313 -0.8362 -0.0346
  586MOL0     H79048   5.823   9.886   6.182 -0.3256 -1.1919 -0.2647
  586MOL0     H79049   5.738   9.875   6.394 -0.8190 -2.9694 -0.8710
  586MOL0     H79050   5.629  10.014   6.375  1.7824 -0.1663  2.7542
  586MOL0     H79051   5.525   9.874   6.187  0.1806 -3.4399 -2.5200
  586MOL0     H79052   5.614   9.738   6.246  2.9632  0.3902  1.0405
  586MOL0     H79053   5.378   9.734   6.356 -0.2047 -2.9542  1.9879
  586MOL0     H79054   5.493   9.756   6.486 -1.5482 -0.5168 -0.5369
  586MOL0     H79055   5.469   9.983   6.500  0.0176 -0.8271  1.8227
  586MOL0     H79056   5.364   9.993   6.352 -0.5677  1.0804  1.3125
  586MOL0     H79057   5.286   9.844   6.600  0.3193 -2.1921 -2.6888
  586MOL0     H79058   5.249  10.017   6.581 -2.5161  0.6645 -0.9814
  586MOL0     H79059   5.135   9.801   6.392 -1.8178  0.7447 -1.2324
  586MOL0     H79060   5.117   9.976   6.376 -1.4938 -0.3536 -1.1569
  586MOL0     H79061   5.001  10.111   6.602 -0.8188 -0.0647 -2.3961
  586MOL0     H79062   4.646  10.004   6.719  1.5421 -1.2961  0.1168
  586MOL0     H79063   4.759  10.142   6.733 -1.4920  1.1731  0.2851
  586MOL0     H79064   4.660  10.057   6.467 -3.9325 -2.0639  2.1322
  586MOL0     H79065   4.757  10.196   6.515  0.9268 -0.8368  1.1885
  586MOL0     H79066   4.532  10.273   6.483  2.7507 -2.2480 -1.9502
  586MOL0     H79067   4.559  10.284   6.656 -1.6184  0.5866  0.6422
  586MOL0     H79068   4.439  10.096   6.710 -1.7239  0.4834 -0.2964
  586MOL0     H79069   4.416  10.062   6.538  1.1812  1.8511 -2.0176
  586MOL0     H79070   4.226   9.997   6.709 -2.2141 -1.8171  3.8520
  586MOL0     H79071   3.924   9.915   6.865 -0.1579  0.1248  0.5989
  586MOL0     H79072   3.921   9.862   6.696 -0.4824  1.1875  0.4693
  586MOL0     H79073   4.072   9.849   6.780 -1.5507 -1.2784  0.4196
  586MOL0     H79074   3.569  10.079   6.566 -0.5490 -1.1666  1.0859
  586MOL0     H79075   3.325  10.070   6.561 -3.3022  0.8315  2.0508
  586MOL0     H79076   3.115  10.127   6.529  1.5373 -0.2209  0.2474
  586MOL0     H79077   3.107  10.042   6.679  1.9482  0.5985 -1.0870
  586MOL0     H79078   2.916  10.153   6.776  0.1574  0.0679  0.8996
  586MOL0     H79079   2.927  10.277   6.644 -1.5253  0.2134 -1.0778
  586MOL0     H79080   2.863   9.986   6.606  0.8261 -0.1975 -1.8979
  586MOL0     H79081   2.854  10.132   6.494  0.4580  0.4219  1.0178
  586MOL0     H79082   2.698  10.087   6.761 -2.2718  0.0168  0.3727
  586MOL0     H79083   2.672  10.225   6.654 -1.1679  0.0502  1.9269
  586MOL0     H79084   2.604   9.931   6.572  2.5026  0.0353 -0.0790
  586MOL0     H79085   2.576  10.068   6.475 -0.6406 -3.9780 -0.1432
  586MOL0     H79086   2.441   9.984   6.713 -1.5121  1.4483  0.9696
  586MOL0     H79087   2.453  10.163   6.695 -0.0768 -0.2496  1.1816
  586MOL0     H79088   2.385  10.022   6.437 -0.4297 -0.7500  0.6409
  586MOL0     H79089   2.306  10.155   6.526 -0.8516 -1.2637 -0.3236
  586MOL0     H79090   2.189   9.999   6.680  0.0087 -2.2428  0.5718
  586MOL0     H79091   2.272   9.870   6.590  0.8958 -0.4553  1.4788
  586MOL0     H79092   3.297  10.407   6.815 -0.8183 -2.6537  0.9664
  586MOL0     H79093   3.542  10.420   6.825  1.1331 -0.7564 -1.1557
  586MOL0     H79094   3.884  10.348   6.613 -0.1260  0.2293 -0.5880
  586MOL0     H79095   4.104  10.378   6.530  1.0846 -0.6021  0.1121
  586MOL0     H79096   6.000  10.312   6.233 -1.1512  0.9609  3.5443
  586MOL0     H79097   6.219  10.419   6.257  0.7317  1.3047  0.8630
  586MOL0     H79098   6.789  10.156   6.471 -3.0440  0.9735  1.4758
  586MOL0     H79099   7.006  10.272   6.396  0.3599  1.7013 -0.4155
  586MOL0     H79100   7.014  10.715   6.324  1.2737  1.2683  1.7038
  586MOL0     H79101   7.021  10.682   6.494  0.7380 -1.0454  0.6846
  586MOL0     H79102   7.231  10.787   6.452  0.4438 -1.6324  2.4005
  586MOL0     H79103   7.255  10.706   6.298  0.4935 -0.7926  0.0948
  586MOL0     H79104   7.420  10.615   6.450 -0.5165  2.0655 -1.1977
  586MOL0     H79105   7.310  10.495   6.389  1.1076  1.5472 -0.8451
  586MOL0     H79106   7.199  10.444   6.587 -1.6045  0.8169  1.4577
  586MOL0     H79107   7.230  10.606   6.654 -0.6924 -0.1410 -0.5018
  586MOL0     H79108   7.575  10.383   6.781 -0.6777  0.4713  1.7726
  586MOL0     H79109   6.774  10.644   6.367 -1.5072 -0.2713 -0.4683
  586MOL0     H79110   6.584  10.531   6.406 -0.6482 -1.1367  1.6936
  587MOL0     O79111   2.546   5.950   9.244  0.2162 -0.1432  0.1859
  587MOL0     C79112   2.498   5.848   9.204  0.0292  0.7826 -0.3408
  587MOL0     O79113   2.554   5.757   9.113  0.2843 -0.3058 -0.3004
  587MOL0     C79114   2.693   5.754   9.093 -0.2421  0.1347 -0.7627
  587MOL0     C79115   2.777   5.859   9.095 -0.2992 -0.3439  1.0385
  587MOL0     C79116   2.918   5.842   9.099 -0.6461  0.6389  0.3768
  587MOL0     C79117   2.973   5.712   9.074  0.1481 -0.4232 -0.6742
  587MOL0     O79118   3.108   5.694   9.055 -0.5720  0.0242  0.7754
  587MOL0     C79119   3.193   5.805   9.039  0.3709 -0.2523 -0.3332
  587MOL0     C79120   3.324   5.754   8.978  0.4621 -1.2902 -0.6642
  587MOL0     C79121   3.402   5.646   9.066 -0.7313 -0.8047 -0.0389
  587MOL0     C79122   3.525   5.580   9.000 -0.6077 -0.4627  0.6621
  587MOL0     C79123   3.627   5.503   9.087  0.2689 -0.2227  0.8316
  587MOL0     C79124   3.556   5.390   9.162 -0.1579 -0.3046  0.0404
  587MOL0     C79125   3.626   5.344   9.282 -0.5619 -0.9512  0.4029
  587MOL0     C79126   3.776   5.309   9.265  1.2178  0.1283  0.2718
  587MOL0     N79127   3.795   5.179   9.192  0.2159  0.2608 -0.0775
  587MOL0     C79128   3.756   5.052   9.239  0.1813 -0.8205  0.4384
  587MOL0     C79129   3.784   4.974   9.143  0.8621  0.4735  0.4182
  587MOL0     C79130   3.755   4.822   9.134  0.5430  0.1230 -0.1215
  587MOL0     C79131   3.613   4.818   9.091  0.2219  0.5797  0.3462
  587MOL0     C79132   3.564   4.682   9.072  0.0982 -0.3200  0.3000
  587MOL0     C79133   3.415   4.671   9.042 -0.1072  0.2627 -0.0143
  587MOL0     O79134   3.347   4.717   9.156  0.2957 -0.6004  0.0617
  587MOL0     C79135   3.210   4.725   9.157 -0.6149  0.5921 -0.4493
  587MOL0     C79136   3.152   4.793   9.260 -0.9638 -0.3198  0.1042
  587MOL0     C79137   3.013   4.796   9.286 -0.5332  0.9191 -0.0601
  587MOL0     C79138   2.971   4.894   9.396 -0.2132 -0.3634  0.7574
  587MOL0     C79139   2.926   4.735   9.193 -0.2562 -0.3448  0.3324
  587MOL0     C79140   2.778   4.749   9.197 -0.2867  0.1071  0.5169
  587MOL0     O79141   2.707   4.719   9.094 -0.5086  0.6617 -0.1604
  587MOL0     C79142   2.580   4.679   9.106 -1.1136 -0.6246 -0.3322
  587MOL0     C79143   2.486   4.765   9.048  0.3247 -0.4241 -0.4201
  587MOL0     C79144   2.347   4.726   9.061 -0.3732 -1.1718 -0.6685
  587MOL0     C79145   2.308   4.610   9.124 -0.0084  0.0305 -0.2279
  587MOL0     O79146   2.185   4.554   9.113 -0.3975 -0.5035 -0.8883
  587MOL0     C79147   2.084   4.609   9.208 -0.5208  0.1556 -0.6402
  587MOL0     C79148   1.996   4.710   9.138  0.5956  0.4130  0.4324
  587MOL0     C79149   1.860   4.716   9.198 -0.2949 -0.2481  0.7087
  587MOL0     C79150   1.770   4.829   9.132  0.1672 -0.5035 -0.5779
  587MOL0     C79151   1.635   4.828   9.199  0.4489 -0.5438 -0.1932
  587MOL0     C79152   1.547   4.728   9.129 -0.2557 -0.7080 -0.5299
  587MOL0     C79153   1.405   4.757   9.157  0.6590  0.1725  0.4704
  587MOL0     C79154   1.316   4.642   9.105  0.8916 -0.3294  0.1136
  587MOL0    Cl79155   1.145   4.667   9.160 -0.2462  0.4636 -0.1631
  587MOL0     C79156   2.414   4.535   9.185  1.3006  0.3734 -1.2495
  587MOL0     C79157   2.545   4.574   9.177 -0.3400  0.4931  0.4710
  587MOL0     O79158   2.735   4.761   9.308 -0.6404 -0.8394  0.0180
  587MOL0     C79159   2.989   4.664   9.092  0.6092  1.1599  0.6136
  587MOL0     C79160   3.126   4.660   9.073  0.3335 -0.4285 -0.0214
  587MOL0     N79161   3.841   5.039   9.037 -0.2258 -0.0950 -0.4612
  587MOL0     N79162   3.842   5.169   9.067 -0.0084  0.2199 -0.3777
  587MOL0     C79163   2.884   5.604   9.074 -0.1762  0.0018  0.2448
  587MOL0     C79164   2.747   5.624   9.091 -0.1841 -0.3193 -0.9320
  587MOL0     C79165   2.360   5.818   9.245 -0.6247 -0.6419 -0.6630
  587MOL0     C79166   2.282   5.906   9.323  0.2708  0.3718  1.2319
  587MOL0     C79167   2.155   5.856   9.371 -0.1252 -0.1635  0.2049
  587MOL0     C79168   2.102   5.729   9.356 -0.9255 -0.1509  0.0045
  587MOL0     O79169   1.977   5.686   9.398 -0.3402 -0.2593  0.5873
  587MOL0     C79170   1.870   5.777   9.359  0.7905  0.3781 -0.7732
  587MOL0     C79171   1.753   5.733   9.441 -0.2788 -0.3569  1.1742
  587MOL0     C79172   1.640   5.827   9.409  0.0007 -0.1123  0.3464
  587MOL0     C79173   1.510   5.793   9.463  0.3357 -0.7414 -1.1419
  587MOL0     C79174   1.490   5.826   9.602 -0.0882 -1.7654  0.2602
  587MOL0     C79175   1.461   5.867   9.715  0.6633  0.0881  0.6761
  587MOL0     C79176   2.182   5.648   9.275  0.6115  0.4647  0.3031
  587MOL0     C79177   2.303   5.694   9.215 -0.0409 -0.2286  0.1304
  587MOL0     H79178   2.752   5.965   9.104  0.2696 -0.3794  5.6309
  587MOL0     H79179   2.972   5.934   9.118  1.1771 -0.5351  1.1844
  587MOL0     H79180   3.146   5.883   8.979  1.3118  0.1250 -0.5988
  587MOL0     H79181   3.221   5.861   9.129  0.3392  1.7760 -1.5239
  587MOL0     H79182   3.301   5.702   8.885  2.1634  0.1320 -1.9235
  587MOL0     H79183   3.392   5.834   8.951 -1.0345 -0.4812 -2.2349
  587MOL0     H79184   3.441   5.707   9.147 -1.3281  1.7568 -1.5492
  587MOL0     H79185   3.325   5.586   9.115 -1.6869 -0.1275 -0.6547
  587MOL0     H79186   3.499   5.518   8.914 -0.3752  2.5263 -1.7487
  587MOL0     H79187   3.581   5.660   8.950  0.5543 -2.6493 -1.7806
  587MOL0     H79188   3.711   5.461   9.031  0.6661  0.7339  0.6897
  587MOL0     H79189   3.673   5.567   9.164  1.5261  0.2830 -0.3074
  587MOL0     H79190   3.451   5.415   9.177 -0.0928  0.2268 -0.3372
  587MOL0     H79191   3.539   5.302   9.100 -2.1582 -0.2056  0.4094
  587MOL0     H79192   3.612   5.409   9.369 -2.9728  0.3190 -0.8282
  587MOL0     H79193   3.573   5.259   9.325 -2.0140  0.5086  1.6351
  587MOL0     H79194   3.799   5.295   9.371 -1.2080  0.4715  0.8916
  587MOL0     H79195   3.832   5.395   9.227  0.9484  0.9595  1.6848
  587MOL0     H79196   3.711   5.023   9.333  1.1358 -0.7322  0.9413
  587MOL0     H79197   3.826   4.775   9.066 -0.6013  1.8841 -2.7247
  587MOL0     H79198   3.773   4.774   9.231  2.9363 -0.0071 -0.5738
  587MOL0     H79199   3.611   4.858   8.989 -0.4281 -2.0749 -0.7646
  587MOL0     H79200   3.546   4.876   9.155 -0.2972 -0.5188  0.8071
  587MOL0     H79201   3.585   4.627   9.165  0.7127 -0.6496 -0.0243
  587MOL0     H79202   3.615   4.623   8.996 -0.5716 -1.3779  0.6516
  587MOL0     H79203   3.394   4.566   9.019  5.4223 -2.1511  3.8822
  587MOL0     H79204   3.396   4.736   8.956  2.7174  0.9965 -0.1734
  587MOL0     H79205   3.219   4.852   9.321 -0.2310 -0.3627 -0.6476
  587MOL0     H79206   3.055   4.945   9.444  1.4985 -2.0121 -0.3372
  587MOL0     H79207   2.904   4.968   9.351  0.3802  0.5582  1.3779
  587MOL0     H79208   2.904   4.849   9.470 -0.2670 -0.2262  0.7924
  587MOL0     H79209   2.511   4.862   9.005 -1.5757 -0.4129 -1.6378
  587MOL0     H79210   2.272   4.803   9.043  0.4703  0.3440  1.7003
  587MOL0     H79211   2.021   4.528   9.246  0.1932 -0.2561 -0.3327
  587MOL0     H79212   2.135   4.653   9.294  1.3155 -0.5264 -1.3399
  587MOL0     H79213   2.047   4.806   9.147  2.4453 -0.6047  1.3057
  587MOL0     H79214   1.985   4.689   9.031  0.4785 -2.9586  0.9980
  587MOL0     H79215   1.869   4.747   9.303 -0.3882  2.8814 -0.1015
  587MOL0     H79216   1.815   4.617   9.188  1.4868 -0.9363 -1.2952
  587MOL0     H79217   1.807   4.930   9.149 -2.0406  0.2539  0.0885
  587MOL0     H79218   1.763   4.816   9.024 -1.8042 -2.0546 -0.3260
  587MOL0     H79219   1.585   4.925   9.189 -1.2446 -0.8696  3.5018
  587MOL0     H79220   1.641   4.800   9.305 -3.5066 -3.0795 -0.4330
  587MOL0     H79221   1.557   4.735   9.020  2.5505 -0.8200 -0.3388
  587MOL0     H79222   1.570   4.623   9.149 -2.5377 -2.0993 -4.1088
  587MOL0     H79223   1.383   4.850   9.104 -1.3043  0.6071  1.9140
  587MOL0     H79224   1.397   4.765   9.266 -0.1163  0.3447  0.4013
  587MOL0     H79225   1.349   4.547   9.148 -1.0141 -0.9876  0.2135
  587MOL0     H79226   1.325   4.635   8.996 -0.5536 -0.7321 -0.0089
  587MOL0     H79227   2.390   4.445   9.240  1.9018  0.7204 -0.3983
  587MOL0     H79228   2.612   4.516   9.240 -1.1910  1.4459  2.3157
  587MOL0     H79229   2.930   4.613   9.016  1.4467  1.9948 -0.6242
  587MOL0     H79230   3.166   4.595   8.996  1.2764 -0.8255  0.7841
  587MOL0     H79231   2.930   5.506   9.062  1.5425  0.7777  0.2657
  587MOL0     H79232   2.678   5.541   9.095 -0.1707 -0.2916  1.3703
  587MOL0     H79233   2.306   6.009   9.344  1.9195  0.0419  1.0672
  587MOL0     H79234   2.091   5.931   9.416  0.5393  2.1011 -2.4027
  587MOL0     H79235   1.896   5.880   9.386 -2.1924  1.7090 -2.5358
  587MOL0     H79236   1.836   5.773   9.255 -1.9849 -3.2188  0.0878
  587MOL0     H79237   1.777   5.748   9.547  0.1988  0.6244  0.9408
  587MOL0     H79238   1.740   5.626   9.423 -0.2789  0.2872 -4.1071
  587MOL0     H79239   1.630   5.839   9.301  2.0564 -0.9651  0.0040
  587MOL0     H79240   1.661   5.928   9.447 -2.7691  1.2327 -1.3949
  587MOL0     H79241   1.489   5.686   9.465 -0.2309 -0.6186  0.5129
  587MOL0     H79242   1.429   5.823   9.395  0.2946  1.0602 -0.3411
  587MOL0     H79243   1.425   5.917   9.803 -2.0435  2.1331 -1.4128
  587MOL0     H79244   2.147   5.549   9.246  0.5862  0.3551  0.6921
  587MOL0     H79245   2.358   5.627   9.150 -0.2906 -1.1641  0.8668
  588MOL0     O79246   5.687   3.646  10.086  0.1763  0.3943  0.0969
  588MOL0     C79247   5.715   3.659  10.204  0.8465 -0.2040  0.5428
  588MOL0     O79248   5.633   3.703  10.305 -1.1503  0.0867 -0.0848
  588MOL0     C79249   5.508   3.751  10.293  0.4010 -0.3076  1.1284
  588MOL0     C79250   5.425   3.745  10.407 -0.5016 -0.9512 -0.0212
  588MOL0     C79251   5.301   3.787  10.410  0.0272 -0.0459 -0.6560
  588MOL0     C79252   5.238   3.832  10.292 -0.0763 -0.4966  0.1772
  588MOL0     O79253   5.106   3.878  10.314  0.5180  0.7081  0.7444
  588MOL0     C79254   5.069   3.989  10.227  0.7974  0.4814  0.8839
  588MOL0     C79255   4.932   4.035  10.276 -0.3318 -0.0971 -0.3326
  588MOL0     C79256   4.867   4.145  10.183  0.0143  0.0761  0.0602
  588MOL0     C79257   4.717   4.154  10.217 -0.2545  1.2805  0.0923
  588MOL0     C79258   4.642   4.266  10.147  0.4290  0.3258 -0.2425
  588MOL0     C79259   4.491   4.244  10.142 -0.4726 -1.4499 -0.0881
  588MOL0     C79260   4.411   4.356  10.072 -0.7039  0.1907  0.7449
  588MOL0     C79261   4.446   4.367   9.924 -0.0886 -0.8507  0.7125
  588MOL0     N79262   4.369   4.479   9.863 -0.0614  0.2925  0.2242
  588MOL0     C79263   4.407   4.613   9.863 -0.1871  0.0305 -0.9077
  588MOL0     C79264   4.300   4.682   9.812 -0.5548  0.6614 -0.2938
  588MOL0     C79265   4.281   4.819   9.823  0.2495  0.1480  0.5341
  588MOL0     C79266   4.142   4.869   9.865 -0.1661  0.1110 -0.4434
  588MOL0     C79267   4.024   4.838   9.770  0.6445 -0.9270  0.3448
  588MOL0     C79268   4.044   4.885   9.619  0.0697 -0.4241 -0.7873
  588MOL0     O79269   3.917   4.884   9.547 -0.6463 -0.0731  0.7571
  588MOL0     C79270   3.817   4.969   9.578 -0.0058  0.1943 -0.2076
  588MOL0     C79271   3.831   5.105   9.614 -0.8003 -0.6044  0.6602
  588MOL0     C79272   3.726   5.198   9.635 -0.8839  1.3430  0.1716
  588MOL0     C79273   3.760   5.345   9.671 -0.2105 -0.1727  0.2342
  588MOL0     C79274   3.598   5.138   9.622  0.9115  0.2137 -0.4588
  588MOL0     C79275   3.471   5.217   9.628  0.7760 -0.6322 -0.4248
  588MOL0     O79276   3.371   5.173   9.554 -0.3550 -0.0571 -0.9742
  588MOL0     C79277   3.255   5.240   9.550  0.3222  0.3638 -0.5566
  588MOL0     C79278   3.208   5.276   9.424  0.5219  0.2118  0.2414
  588MOL0     C79279   3.085   5.335   9.416  0.0556  0.0700  0.6877
  588MOL0     C79280   3.009   5.350   9.536  0.3836 -0.0197 -0.9002
  588MOL0     O79281   2.884   5.402   9.549  0.0131 -0.0599  0.3604
  588MOL0     C79282   2.836   5.442   9.420  0.6984  0.0264 -0.2125
  588MOL0     C79283   2.719   5.533   9.451  0.5371 -0.7950 -0.0282
  588MOL0     C79284   2.621   5.476   9.557  0.3896 -0.4709  0.6386
  588MOL0     C79285   2.497   5.573   9.552  0.0303  0.4049  1.0545
  588MOL0     C79286   2.380   5.526   9.627  0.1638  0.2240 -0.4285
  588MOL0     C79287   2.418   5.513   9.781  0.0528  0.3125  0.2077
  588MOL0     C79288   2.300   5.465   9.856 -0.5058  0.7921  1.1574
  588MOL0     C79289   2.328   5.415   9.993  0.6434 -0.0096 -0.2946
  588MOL0    Cl79290   2.175   5.342  10.062  0.4363 -0.3989 -0.0933
  588MOL0     C79291   3.058   5.305   9.663 -0.1380  0.1932  0.9700
  588MOL0     C79292   3.187   5.252   9.666  0.3632 -0.4779 -0.4286
  588MOL0     O79293   3.470   5.318   9.703  0.2961  0.2622  0.4506
  588MOL0     C79294   3.581   5.000   9.598  0.3756 -0.1049  0.3404
  588MOL0     C79295   3.691   4.923   9.581 -0.2243  0.2477  0.6087
  588MOL0     N79296   4.212   4.581   9.778 -0.5502 -0.1702  0.0358
  588MOL0     N79297   4.252   4.462   9.813  0.4845 -0.0759  0.8787
  588MOL0     C79298   5.311   3.832  10.171 -0.3869  0.2284 -0.4250
  588MOL0     C79299   5.448   3.787  10.173 -0.4297 -0.1519 -0.5370
  588MOL0     C79300   5.858   3.638  10.243  0.2621  0.7629 -0.5715
  588MOL0     C79301   5.944   3.563  10.161 -0.1058  0.2016 -0.1751
  588MOL0     C79302   6.082   3.557  10.189  0.8918  0.0740 -0.4627
  588MOL0     C79303   6.132   3.609  10.306  0.0716 -0.5864  0.0052
  588MOL0     O79304   6.261   3.581  10.352 -0.0069 -0.0814 -0.3303
  588MOL0     C79305   6.361   3.544  10.259 -0.4878  0.8249  0.8908
  588MOL0     C79306   6.489   3.515  10.336 -0.2117  0.0339 -0.4500
  588MOL0     C79307   6.614   3.477  10.251 -0.1428  0.5767 -0.5526
  588MOL0     C79308   6.620   3.335  10.195 -0.3396  0.5676  0.4936
  588MOL0     C79309   6.624   3.247  10.314 -0.5528 -0.6894 -0.9092
  588MOL0     C79310   6.629   3.182  10.420  0.3349  0.2357 -0.9145
  588MOL0     C79311   6.044   3.673  10.395  0.2766 -0.1090  0.7449
  588MOL0     C79312   5.914   3.682  10.364  0.3966 -0.6581 -0.3382
  588MOL0     H79313   5.466   3.718  10.503 -3.0505 -0.1307  1.4055
  588MOL0     H79314   5.238   3.772  10.497  0.3910 -1.6749 -0.6352
  588MOL0     H79315   5.140   4.072  10.232  0.9496  0.4203 -0.1598
  588MOL0     H79316   5.053   3.960  10.123  0.8402 -1.4035  1.3706
  588MOL0     H79317   4.863   3.950  10.281  0.3251 -0.6102  0.2448
  588MOL0     H79318   4.942   4.071  10.378 -0.1466  0.6031 -0.5952
  588MOL0     H79319   4.931   4.230  10.208  1.1446 -0.7716  0.1717
  588MOL0     H79320   4.888   4.115  10.079 -0.5200 -0.4298  0.0910
  588MOL0     H79321   4.665   4.061  10.191 -0.2210  1.3566 -0.2521
  588MOL0     H79322   4.697   4.159  10.324 -0.6330 -2.0697  0.2941
  588MOL0     H79323   4.664   4.359  10.201  2.3422  0.6370 -1.5014
  588MOL0     H79324   4.677   4.291  10.047 -1.3694  0.0782 -0.9663
  588MOL0     H79325   4.466   4.151  10.090  1.3992 -0.2789 -3.3801
  588MOL0     H79326   4.467   4.241  10.248  2.7803 -0.4836  0.8009
  588MOL0     H79327   4.303   4.342  10.084 -0.7842 -0.2562 -0.3594
  588MOL0     H79328   4.434   4.446  10.130  3.2065  1.2115 -1.9535
  588MOL0     H79329   4.409   4.277   9.873 -2.2916  1.3251 -1.8707
  588MOL0     H79330   4.552   4.384   9.904 -0.3038 -0.3638 -0.0418
  588MOL0     H79331   4.498   4.652   9.906  1.1113 -1.1219 -2.4858
  588MOL0     H79332   4.356   4.862   9.890  0.2794  1.5935 -0.3965
  588MOL0     H79333   4.298   4.854   9.721  0.1889  1.0891  0.8359
  588MOL0     H79334   4.155   4.977   9.874 -0.5618  0.0265  1.4289
  588MOL0     H79335   4.119   4.825   9.962  2.2377 -2.2937 -0.8344
  588MOL0     H79336   3.939   4.895   9.807  0.7303 -0.1481 -0.6122
  588MOL0     H79337   4.002   4.731   9.773 -0.0907 -0.7906  0.1009
  588MOL0     H79338   4.120   4.821   9.573  0.0131 -1.9321  1.1038
  588MOL0     H79339   4.075   4.989   9.619  0.2526 -0.4739 -0.0231
  588MOL0     H79340   3.932   5.143   9.600  0.0224 -2.8863 -0.0193
  588MOL0     H79341   3.860   5.354   9.715 -0.5279 -1.0939  1.1913
  588MOL0     H79342   3.743   5.398   9.577  0.1848  2.5988  1.6292
  588MOL0     H79343   3.701   5.384   9.754 -0.6717  0.5038 -0.3974
  588MOL0     H79344   3.277   5.264   9.341  1.5043  2.9648  0.5743
  588MOL0     H79345   3.046   5.359   9.318  3.3887  0.0550 -0.7724
  588MOL0     H79346   2.910   5.501   9.363  3.1492 -1.5061  1.2182
  588MOL0     H79347   2.806   5.355   9.361 -0.7472 -1.2258  2.2388
  588MOL0     H79348   2.754   5.626   9.496  0.1064 -1.3907  1.6181
  588MOL0     H79349   2.668   5.558   9.358 -1.0857 -0.2044  0.9814
  588MOL0     H79350   2.667   5.467   9.655  2.9707  0.2124 -0.4287
  588MOL0     H79351   2.591   5.374   9.532 -1.1467 -0.1349  1.0078
  588MOL0     H79352   2.529   5.670   9.589  0.0312  1.3932 -1.3548
  588MOL0     H79353   2.464   5.584   9.448 -1.3866 -0.8816  1.3281
  588MOL0     H79354   2.343   5.431   9.586  0.4859  0.0510 -0.3213
  588MOL0     H79355   2.297   5.595   9.609  0.4357  0.5478 -0.4602
  588MOL0     H79356   2.496   5.440   9.804  1.4540  1.1855 -1.5120
  588MOL0     H79357   2.456   5.611   9.810  1.7550 -0.1499 -0.3537
  588MOL0     H79358   2.261   5.387   9.789 -0.9477  2.2176 -0.3142
  588MOL0     H79359   2.218   5.536   9.851 -2.0005 -0.8531 -4.0169
  588MOL0     H79360   2.365   5.499  10.052  1.1487  0.8071 -1.7317
  588MOL0     H79361   2.406   5.340  10.007 -1.7821 -2.6637 -0.0620
  588MOL0     H79362   2.998   5.306   9.753 -1.1067 -0.0013  0.3401
  588MOL0     H79363   3.238   5.222   9.757  2.9002 -0.0290 -1.6224
  588MOL0     H79364   3.486   4.948   9.601  0.2510  0.0999 -0.0382
  588MOL0     H79365   3.672   4.817   9.564  0.9113  0.2228 -0.6488
  588MOL0     H79366   5.270   3.856  10.074 -2.5347 -2.1714 -0.2118
  588MOL0     H79367   5.496   3.778  10.077  1.4185 -1.4197  0.4300
  588MOL0     H79368   5.903   3.515  10.073  0.4553  0.1546 -0.4118
  588MOL0     H79369   6.149   3.507  10.120 -0.2804 -2.3691  0.0309
  588MOL0     H79370   6.330   3.461  10.196  1.0665  0.3312  0.7233
  588MOL0     H79371   6.371   3.628  10.190  0.2381 -0.1653 -0.2292
  588MOL0     H79372   6.479   3.443  10.417 -0.7646  0.9773  0.3554
  588MOL0     H79373   6.509   3.612  10.382  1.6834 -1.3469  1.8378
  588MOL0     H79374   6.698   3.482  10.320 -1.2598  0.7901  0.8470
  588MOL0     H79375   6.625   3.550  10.171 -0.7206  2.4079  0.9742
  588MOL0     H79376   6.716   3.325  10.143 -0.3678  3.0666 -0.1963
  588MOL0     H79377   6.538   3.311  10.127 -0.3347 -0.7257  0.9230
  588MOL0     H79378   6.625   3.125  10.510 -0.1302  0.5415 -0.7380
  588MOL0     H79379   6.075   3.712  10.491  1.4705 -0.7840  0.6615
  588MOL0     H79380   5.837   3.739  10.416 -2.1189 -2.0297 -2.3031
  589MOL0     O79381   6.067   6.834   5.333  0.5438  0.7975  0.3987
  589MOL0     C79382   6.105   6.929   5.401 -0.4059  0.4368  0.4844
  589MOL0     O79383   6.034   7.047   5.413 -0.5789 -0.0505  0.2127
  589MOL0     C79384   5.904   7.067   5.365 -0.3809 -0.2558 -0.3166
  589MOL0     C79385   5.868   7.193   5.316 -1.0089  0.5342 -1.0243
  589MOL0     C79386   5.739   7.222   5.262  0.2653 -0.2791 -0.2043
  589MOL0     C79387   5.643   7.126   5.273 -0.0078  0.7670 -0.0780
  589MOL0     O79388   5.531   7.130   5.197 -0.0955 -0.5195 -0.6821
  589MOL0     C79389   5.526   7.210   5.071  0.7409 -0.4801  0.1849
  589MOL0     C79390   5.430   7.158   4.968  0.3534  0.4542  0.0701
  589MOL0     C79391   5.460   7.025   4.905  0.7918  0.6248 -0.2633
  589MOL0     C79392   5.330   6.995   4.821  0.0800 -0.2913 -1.1454
  589MOL0     C79393   5.333   6.861   4.769 -0.0899 -0.7606  0.7544
  589MOL0     C79394   5.238   6.840   4.656  0.0098 -0.6193 -0.3567
  589MOL0     C79395   5.087   6.852   4.698 -0.0675 -0.0145  0.1650
  589MOL0     C79396   5.000   6.845   4.573  0.0969  0.6967 -0.1989
  589MOL0     N79397   4.865   6.845   4.629  0.0231 -0.4531 -0.2509
  589MOL0     C79398   4.777   6.742   4.645  0.3841  0.1136 -0.7065
  589MOL0     C79399   4.664   6.802   4.681 -0.1738 -0.7985  1.8187
  589MOL0     C79400   4.542   6.730   4.722  0.4380 -0.1756  0.0065
  589MOL0     C79401   4.557   6.684   4.865  0.1697  0.4841 -0.7728
  589MOL0     C79402   4.428   6.627   4.916  1.6460  0.4036 -0.7377
  589MOL0     C79403   4.321   6.746   4.951 -0.3208  0.3417 -0.5768
  589MOL0     O79404   4.229   6.696   5.050  0.2811 -0.0685 -0.1725
  589MOL0     C79405   4.128   6.768   5.100 -0.5692 -0.3683  0.1317
  589MOL0     C79406   4.107   6.897   5.060  0.4292  0.1511 -0.1238
  589MOL0     C79407   3.989   6.968   5.092  0.3386  0.6948 -0.1838
  589MOL0     C79408   3.976   7.108   5.026 -0.3948 -0.2381  0.0058
  589MOL0     C79409   3.894   6.905   5.179  0.2773 -0.5053  0.4436
  589MOL0     C79410   3.775   6.968   5.228 -0.7549  0.0607  0.0901
  589MOL0     O79411   3.665   6.890   5.268 -0.4314  0.6778  0.4903
  589MOL0     C79412   3.546   6.933   5.325 -0.4503 -0.1765 -0.2442
  589MOL0     C79413   3.478   7.054   5.301  0.0089  0.2073 -0.0186
  589MOL0     C79414   3.373   7.098   5.382 -0.5241 -0.5609  0.4464
  589MOL0     C79415   3.334   7.016   5.485 -0.0896 -0.1609 -0.3039
  589MOL0     O79416   3.241   7.055   5.579 -0.2385 -0.2377 -0.0523
  589MOL0     C79417   3.151   7.161   5.547 -0.7289  0.2395 -0.3927
  589MOL0     C79418   3.047   7.169   5.654  0.6476  0.0571 -0.8535
  589MOL0     C79419   2.917   7.220   5.603  0.4361 -0.1984  0.7552
  589MOL0     C79420   2.820   7.256   5.710 -0.1008  0.1750  0.1344
  589MOL0     C79421   2.673   7.287   5.649  0.1343  0.1190 -0.3846
  589MOL0     C79422   2.564   7.314   5.766  0.2463 -0.1030 -0.2101
  589MOL0     C79423   2.413   7.298   5.747  1.0405 -0.2872 -0.5239
  589MOL0     C79424   2.335   7.347   5.872  0.8164 -0.1799 -0.2604
  589MOL0    Cl79425   2.319   7.529   5.881  0.2928  0.4936  0.0190
  589MOL0     C79426   3.405   6.896   5.512  0.4557 -0.3568  0.0964
  589MOL0     C79427   3.510   6.854   5.433 -0.0144  0.4787  0.7897
  589MOL0     O79428   3.771   7.090   5.238 -0.2945  0.0980 -0.6498
  589MOL0     C79429   3.914   6.773   5.222 -0.5356 -0.2448  0.5234
  589MOL0     C79430   4.036   6.710   5.186  0.1265 -0.1779 -0.5296
  589MOL0     N79431   4.686   6.935   4.683  0.1175 -1.3377 -0.1427
  589MOL0     N79432   4.800   6.961   4.640 -0.7449 -0.9010  0.1721
  589MOL0     C79433   5.672   7.003   5.326 -0.3975  0.0080 -0.3731
  589MOL0     C79434   5.809   6.966   5.372 -0.4507 -0.1536 -0.3286
  589MOL0     C79435   6.224   6.915   5.480 -1.1597 -0.3698 -0.4700
  589MOL0     C79436   6.304   6.795   5.473  0.1206  0.2916 -0.3614
  589MOL0     C79437   6.417   6.779   5.549  0.8222  0.1850 -0.0436
  589MOL0     C79438   6.458   6.875   5.641  0.4706  0.0206  0.3978
  589MOL0     O79439   6.573   6.864   5.712  0.5357  0.4755  0.0928
  589MOL0     C79440   6.699   6.842   5.647 -0.0088 -0.0962  0.1265
  589MOL0     C79441   6.740   6.978   5.583 -0.7056  0.1101  0.6865
  589MOL0     C79442   6.816   7.060   5.687  0.3384 -0.0145  0.3313
  589MOL0     C79443   6.836   7.201   5.628 -0.8229 -0.2586 -0.0043
  589MOL0     C79444   6.716   7.283   5.594  0.6157 -0.2800  1.0224
  589MOL0     C79445   6.629   7.354   5.557 -0.2508 -0.3107 -0.3093
  589MOL0     C79446   6.388   6.993   5.651 -0.4770  0.9244 -0.0175
  589MOL0     C79447   6.286   7.020   5.570  1.0179  0.1538  0.5555
  589MOL0     H79448   5.948   7.266   5.321 -1.3236  0.8378  3.0071
  589MOL0     H79449   5.719   7.319   5.218 -0.5812  0.2416  1.2629
  589MOL0     H79450   5.504   7.312   5.104  1.3218 -0.4103  0.3612
  589MOL0     H79451   5.626   7.212   5.028  0.1860 -2.3487 -1.3370
  589MOL0     H79452   5.332   7.146   5.015  0.0899 -0.7002 -0.7182
  589MOL0     H79453   5.421   7.228   4.885 -0.1077  0.5144  0.1694
  589MOL0     H79454   5.550   7.028   4.843 -1.6903 -1.0739 -4.3696
  589MOL0     H79455   5.479   6.944   4.976  0.2891  2.9919  2.8268
  589MOL0     H79456   5.254   7.001   4.899  2.8295 -1.9074  1.8611
  589MOL0     H79457   5.322   7.073   4.745 -3.5525  0.9489  0.2834
  589MOL0     H79458   5.433   6.852   4.726  0.7082  1.9216  1.8834
  589MOL0     H79459   5.323   6.791   4.852  0.9661 -1.9277 -0.0701
  589MOL0     H79460   5.273   6.918   4.587  1.9171  0.5930  1.8535
  589MOL0     H79461   5.264   6.748   4.602 -2.0112 -1.5636  0.1726
  589MOL0     H79462   5.063   6.768   4.765  2.7398 -0.4261  0.7630
  589MOL0     H79463   5.069   6.951   4.742 -2.0534 -0.2415 -0.0263
  589MOL0     H79464   5.023   6.757   4.513  1.8207  0.3862  0.8535
  589MOL0     H79465   5.017   6.932   4.509 -0.2622  1.6584  0.9729
  589MOL0     H79466   4.795   6.635   4.636  0.5081  0.1821 -1.3206
  589MOL0     H79467   4.461   6.804   4.728  1.0953  0.4705  1.8984
  589MOL0     H79468   4.522   6.650   4.650 -0.2496  1.6767 -1.9636
  589MOL0     H79469   4.583   6.755   4.944  1.2124 -0.4509 -0.2524
  589MOL0     H79470   4.633   6.605   4.873 -0.0020  0.4321  0.5898
  589MOL0     H79471   4.441   6.571   5.009 -0.6505 -0.6726 -0.9808
  589MOL0     H79472   4.374   6.549   4.860 -2.1636  1.1023  1.5594
  589MOL0     H79473   4.266   6.781   4.864  0.2090  2.6645 -0.0582
  589MOL0     H79474   4.378   6.830   4.993  0.1505 -0.0015 -0.5213
  589MOL0     H79475   4.181   6.943   4.995  3.0218  0.9963  3.1578
  589MOL0     H79476   3.884   7.112   4.965  0.2978 -0.1823 -1.0614
  589MOL0     H79477   3.969   7.194   5.092  2.3142  0.0165  0.0431
  589MOL0     H79478   4.060   7.126   4.959  0.8683  0.2352  1.6593
  589MOL0     H79479   3.500   7.132   5.229 -2.1183 -1.2277 -2.3648
  589MOL0     H79480   3.329   7.193   5.355  0.2259 -0.3228  0.0325
  589MOL0     H79481   3.208   7.255   5.551 -1.2796  0.5837 -0.5516
  589MOL0     H79482   3.101   7.138   5.453 -1.0371 -0.9278  0.0421
  589MOL0     H79483   3.034   7.075   5.709  1.8177  1.0312  1.2182
  589MOL0     H79484   3.079   7.246   5.725 -1.1331  0.4188 -0.3819
  589MOL0     H79485   2.872   7.144   5.537 -0.4711  0.6629  0.3549
  589MOL0     H79486   2.935   7.312   5.548 -0.6453 -0.9408 -0.9328
  589MOL0     H79487   2.794   7.170   5.772  0.8020 -0.5364 -0.4577
  589MOL0     H79488   2.851   7.336   5.778 -1.1318  2.5871 -2.0686
  589MOL0     H79489   2.643   7.192   5.604  1.4009 -1.6727  2.2957
  589MOL0     H79490   2.670   7.368   5.576  1.4445 -0.9512 -1.6928
  589MOL0     H79491   2.588   7.249   5.851 -1.8587 -0.3874  0.2119
  589MOL0     H79492   2.585   7.413   5.806  1.8195  0.0382 -1.2664
  589MOL0     H79493   2.389   7.191   5.747 -2.0949  0.2691  1.3987
  589MOL0     H79494   2.372   7.351   5.661 -0.5414  2.2226  1.5946
  589MOL0     H79495   2.368   7.296   5.963 -2.1539 -0.5333  0.7298
  589MOL0     H79496   2.232   7.312   5.857  1.4228 -2.5982  0.7453
  589MOL0     H79497   3.388   6.826   5.594  1.6868  0.2975  0.9390
  589MOL0     H79498   3.570   6.765   5.452  0.1652  0.2546 -0.6709
  589MOL0     H79499   3.844   6.729   5.292  1.1351 -0.0829  2.3836
  589MOL0     H79500   4.070   6.617   5.231 -0.4401  0.2355  0.7765
  589MOL0     H79501   5.595   6.927   5.332  0.0280 -0.4775 -0.9427
  589MOL0     H79502   5.814   6.866   5.414  1.3447  0.2031  0.4134
  589MOL0     H79503   6.288   6.703   5.417 -1.0498 -0.6126  1.4018
  589MOL0     H79504   6.483   6.694   5.540 -1.3487 -1.6046  0.0173
  589MOL0     H79505   6.768   6.803   5.722 -1.0657 -1.8366  0.2659
  589MOL0     H79506   6.690   6.759   5.576 -1.7133  1.2877 -1.3927
  589MOL0     H79507   6.658   7.038   5.542  0.6608  2.4723  1.2172
  589MOL0     H79508   6.814   6.953   5.506  2.1224 -0.8372  3.5050
  589MOL0     H79509   6.914   7.022   5.716 -1.0798 -3.5928  0.9777
  589MOL0     H79510   6.753   7.069   5.776 -0.1574 -0.3139  0.0185
  589MOL0     H79511   6.901   7.198   5.539 -2.0753  0.4019 -0.9746
  589MOL0     H79512   6.895   7.257   5.700 -0.4548  1.1197 -1.3255
  589MOL0     H79513   6.551   7.426   5.540  1.5792  1.6633 -0.8823
  589MOL0     H79514   6.418   7.068   5.724  0.0104  2.1568 -1.4430
  589MOL0     H79515   6.240   7.117   5.587  1.5008  0.3263  0.8811
  590MOL0     O79516  10.055  10.876  10.629  0.5077 -0.3144  0.0225
  590MOL0     C79517  10.067  10.923  10.743  0.0042 -0.0560  0.1065
  590MOL0     O79518   9.968  10.963  10.824 -0.7538 -1.0739  0.4330
  590MOL0     C79519   9.841  10.937  10.780  0.3770  0.0993 -0.4871
  590MOL0     C79520   9.787  10.809  10.773 -0.5061  0.1703  0.4141
  590MOL0     C79521   9.654  10.792  10.741 -0.3974 -0.5055  0.0385
  590MOL0     C79522   9.573  10.901  10.721  0.8408  0.0477 -0.9549
  590MOL0     O79523   9.438  10.901  10.689  0.7997 -0.2117 -0.1813
  590MOL0     C79524   9.364  10.783  10.671  0.0752 -0.5288 -0.3458
  590MOL0     C79525   9.219  10.831  10.674 -1.3469  0.3301  0.4629
  590MOL0     C79526   9.173  10.833  10.824 -0.2796  1.2417  0.3300
  590MOL0     C79527   9.051  10.738  10.843  0.4093  0.1904  0.3137
  590MOL0     C79528   8.930  10.806  10.775 -0.3361 -0.8087  0.2242
  590MOL0     C79529   8.800  10.729  10.766  0.2024  0.1353  0.1818
  590MOL0     C79530   8.685  10.818  10.744  0.5910  0.1138 -0.1897
  590MOL0     C79531   8.548  10.744  10.724 -0.0118  0.5349 -0.3131
  590MOL0     N79532   8.439  10.841  10.741  0.0414 -0.6176  0.0247
  590MOL0     C79533   8.364  10.895  10.643 -0.2005  0.5124 -0.1672
  590MOL0     C79534   8.256  10.950  10.710  0.3775 -0.5618  0.4826
  590MOL0     C79535   8.130  11.018  10.639 -0.4577 -0.3568 -0.3491
  590MOL0     C79536   7.998  10.959  10.685 -0.6186  0.3250  0.2908
  590MOL0     C79537   7.882  11.043  10.633  0.3350 -0.6489 -0.0554
  590MOL0     C79538   7.894  11.091  10.484  0.1224 -0.4322  0.3970
  590MOL0     O79539   7.769  11.138  10.431  0.1151  0.4759 -0.0122
  590MOL0     C79540   7.674  11.044  10.398 -0.7598 -0.0658  0.9920
  590MOL0     C79541   7.552  11.090  10.354  0.8589  0.2749  0.5754
  590MOL0     C79542   7.439  11.001  10.333  0.0545 -0.1237 -0.7984
  590MOL0     C79543   7.301  11.061  10.310 -0.8883 -0.2153 -0.3886
  590MOL0     C79544   7.459  10.860  10.341 -0.1892  0.2010  0.0690
  590MOL0     C79545   7.352  10.759  10.316  0.7785  0.7798  0.3174
  590MOL0     O79546   7.403  10.635  10.279  0.4053 -0.4225  0.1635
  590MOL0     C79547   7.325  10.529  10.231  1.2117  0.7197 -0.3285
  590MOL0     C79548   7.341  10.411  10.295  0.4616 -0.2236 -0.4702
  590MOL0     C79549   7.260  10.298  10.265 -0.3323 -0.0842  0.5414
  590MOL0     C79550   7.161  10.308  10.169  0.5130  0.3796 -0.6142
  590MOL0     O79551   7.082  10.204  10.133  0.3427  0.0518 -0.4649
  590MOL0     C79552   7.133  10.116  10.034  0.0200  0.1103  0.1358
  590MOL0     C79553   7.083   9.970  10.060  0.4707  0.2144 -0.4453
  590MOL0     C79554   7.181   9.880  10.151  0.4394 -0.4248  0.0689
  590MOL0     C79555   7.141   9.739  10.138 -0.0290  0.6965  0.0140
  590MOL0     C79556   7.243   9.647  10.220  0.1171 -0.1088  0.6779
  590MOL0     C79557   7.194   9.505  10.200  0.7245 -0.5557 -1.1361
  590MOL0     C79558   7.278   9.396  10.267 -0.9317  0.1994  0.1438
  590MOL0     C79559   7.195   9.265  10.269  1.2268  0.7366  0.2507
  590MOL0    Cl79560   7.157   9.227  10.099 -0.1556 -0.0894 -0.4933
  590MOL0     C79561   7.138  10.431  10.106  0.5898  0.0358 -0.0950
  590MOL0     C79562   7.218  10.543  10.134  0.5644  1.2825  0.1905
  590MOL0     O79563   7.233  10.781  10.340 -0.4485  0.5753 -0.4078
  590MOL0     C79564   7.587  10.818  10.370 -0.7068  0.3362  0.0900
  590MOL0     C79565   7.691  10.906  10.406 -0.2670 -0.1045  1.0280
  590MOL0     N79566   8.267  10.929  10.841  0.3878 -0.4311 -0.2224
  590MOL0     N79567   8.373  10.866  10.860 -0.2943 -0.2948 -0.4473
  590MOL0     C79568   9.616  11.028  10.734 -1.4646  0.2051 -0.2450
  590MOL0     C79569   9.760  11.042  10.747  0.1017 -0.0844 -0.2608
  590MOL0     C79570  10.203  10.939  10.798 -0.0877 -0.0382 -0.0569
  590MOL0     C79571  10.229  10.969  10.928 -0.3979  0.9004 -0.1260
  590MOL0     C79572  10.361  10.997  10.961  0.8224 -0.5888  0.1839
  590MOL0     C79573  10.466  11.003  10.872 -0.5829  0.5450  0.5264
  590MOL0     O79574  10.595  11.018  10.915 -0.1810  0.2836  0.6274
  590MOL0     C79575  10.637  11.077  11.037 -0.7231 -0.0442 -0.5343
  590MOL0     C79576  10.730  11.202  11.014  0.3451 -0.1307  0.7978
  590MOL0     C79577  10.655  11.315  10.946 -0.1100  0.2799 -0.1837
  590MOL0     C79578  10.747  11.439  10.908  0.6254  0.9532 -0.3308
  590MOL0     C79579  10.685  11.493  10.788 -0.3852 -0.5973 -0.8150
  590MOL0     C79580  10.631  11.537  10.687  0.1146  0.2441  0.0746
  590MOL0     C79581  10.444  10.962  10.744 -0.2779 -0.2337 -0.5814
  590MOL0     C79582  10.312  10.940  10.703 -0.6823  0.4056 -0.2159
  590MOL0     H79583   9.854  10.727  10.798 -1.3432 -1.8303 -3.2602
  590MOL0     H79584   9.624  10.688  10.734 -0.3029 -0.7132  1.9556
  590MOL0     H79585   9.384  10.751  10.568  0.1122  4.4858 -2.1745
  590MOL0     H79586   9.375  10.701  10.743 -0.6892  0.3648  0.8329
  590MOL0     H79587   9.221  10.931  10.629 -0.0598 -0.5277 -1.5476
  590MOL0     H79588   9.164  10.768  10.603 -0.8412  0.6740 -0.2483
  590MOL0     H79589   9.243  10.791  10.896 -2.6268  0.1954  2.1386
  590MOL0     H79590   9.146  10.933  10.857 -0.7397  0.5804  2.0554
  590MOL0     H79591   9.071  10.644  10.792  0.0803  1.0905 -1.5607
  590MOL0     H79592   9.040  10.718  10.950 -2.7145  0.3588  0.1146
  590MOL0     H79593   8.906  10.887  10.845 -0.5698 -1.8813  1.4251
  590MOL0     H79594   8.957  10.844  10.676  0.5356 -3.1044 -0.4886
  590MOL0     H79595   8.804  10.664  10.679  0.9959 -0.1573  0.4250
  590MOL0     H79596   8.780  10.667  10.855 -0.5775  0.1696  0.0347
  590MOL0     H79597   8.676  10.880  10.834  0.9480 -0.2413  0.0965
  590MOL0     H79598   8.694  10.891  10.664 -0.2898 -0.2929 -0.6821
  590MOL0     H79599   8.540  10.662  10.796  0.4014  0.5543 -0.2409
  590MOL0     H79600   8.543  10.690  10.630  2.7328 -2.8798  1.2722
  590MOL0     H79601   8.388  10.890  10.537 -2.0564 -2.5917 -0.5735
  590MOL0     H79602   8.143  11.125  10.656 -0.8399 -0.5305  1.1990
  590MOL0     H79603   8.136  11.001  10.531 -2.2023 -0.7192 -0.4227
  590MOL0     H79604   7.998  10.968  10.794 -2.3029  2.5860  0.1883
  590MOL0     H79605   7.975  10.855  10.659  0.5104 -0.2243  1.3853
  590MOL0     H79606   7.876  11.132  10.697 -2.4723 -0.4747 -0.4159
  590MOL0     H79607   7.789  10.986  10.638 -2.0391  2.8871  0.0107
  590MOL0     H79608   7.932  11.017  10.413  1.7654  1.5289 -0.8741
  590MOL0     H79609   7.961  11.176  10.470  1.7187 -1.7993 -0.7175
  590MOL0     H79610   7.532  11.196  10.345  0.0394  0.0390 -0.8350
  590MOL0     H79611   7.308  11.170  10.307 -0.5268 -0.2604 -1.3790
  590MOL0     H79612   7.259  11.035  10.212 -0.6276  0.1860 -0.6058
  590MOL0     H79613   7.229  11.016  10.380 -0.0841 -2.2336 -0.7812
  590MOL0     H79614   7.407  10.408  10.382 -0.5526  2.4531  0.4839
  590MOL0     H79615   7.271  10.205  10.319  0.9364 -0.3549 -0.1375
  590MOL0     H79616   7.096  10.142   9.934 -2.4776  1.3425  1.2808
  590MOL0     H79617   7.242  10.118  10.039 -0.0008  1.7364  0.5888
  590MOL0     H79618   6.991   9.984  10.118  1.3986  0.8613  0.9326
  590MOL0     H79619   7.064   9.927   9.961 -1.4080  1.4125 -0.6514
  590MOL0     H79620   7.176   9.909  10.256 -2.1748 -0.3281 -0.0259
  590MOL0     H79621   7.285   9.890  10.118  0.9152 -3.4884  0.3332
  590MOL0     H79622   7.039   9.712  10.169  1.1348 -0.9607  2.7663
  590MOL0     H79623   7.150   9.705  10.035 -0.2053  2.2731 -0.5583
  590MOL0     H79624   7.247   9.685  10.322  1.3172 -0.7294  0.8768
  590MOL0     H79625   7.341   9.652  10.170 -0.5506 -1.8506 -0.9287
  590MOL0     H79626   7.094   9.502  10.245  0.3986 -0.0214 -1.8064
  590MOL0     H79627   7.185   9.489  10.092 -0.7036  0.0699 -1.1395
  590MOL0     H79628   7.316   9.428  10.364  0.4793  0.7778 -0.5705
  590MOL0     H79629   7.361   9.387  10.196  0.9998  1.5601  2.1034
  590MOL0     H79630   7.105   9.263  10.332  0.2626  0.5653 -1.0945
  590MOL0     H79631   7.256   9.181  10.303  0.1704 -0.5911 -1.0321
  590MOL0     H79632   7.059  10.442  10.032  2.4627 -0.9984 -2.3852
  590MOL0     H79633   7.206  10.641  10.088 -1.9053 -0.2067 -2.6700
  590MOL0     H79634   7.618  10.714  10.371  4.6671  1.5158 -3.1758
  590MOL0     H79635   7.784  10.863  10.442  0.8355  1.5765  0.2905
  590MOL0     H79636   9.555  11.117  10.722  0.3058  1.2730 -2.1764
  590MOL0     H79637   9.798  11.143  10.733 -0.2432  0.0166 -0.4691
  590MOL0     H79638  10.151  10.974  11.004 -0.6305  0.6609 -0.3506
  590MOL0     H79639  10.375  11.021  11.066 -0.3070  0.2475  0.1681
  590MOL0     H79640  10.557  11.102  11.108  1.7087  0.5899  2.1495
  590MOL0     H79641  10.693  11.001  11.093 -4.1145  0.0806  3.5322
  590MOL0     H79642  10.801  11.162  10.941  0.1603 -0.8152  0.9791
  590MOL0     H79643  10.775  11.238  11.107 -0.0970  2.4032  0.1031
  590MOL0     H79644  10.571  11.354  11.006  1.0493  2.3665  0.1895
  590MOL0     H79645  10.628  11.260  10.856  0.5701  1.7075 -1.3145
  590MOL0     H79646  10.852  11.407  10.898  0.3554  0.0594 -0.4511
  590MOL0     H79647  10.753  11.522  10.979  0.8989  0.9482 -0.3458
  590MOL0     H79648  10.588  11.577  10.598  1.6461  0.4123 -0.6231
  590MOL0     H79649  10.526  10.967  10.673 -0.5534  0.1008 -0.8804
  590MOL0     H79650  10.301  10.936  10.595  0.8672  0.2572 -0.3873
  591MOL0     O79651   8.223   3.249   6.595 -0.0612 -0.0245  0.5836
  591MOL0     C79652   8.254   3.200   6.703  0.7727  0.1559 -0.3159
  591MOL0     O79653   8.166   3.169   6.804 -0.0773 -0.1485  0.0351
  591MOL0     C79654   8.030   3.171   6.777  0.4435  0.3153  0.2312
  591MOL0     C79655   7.943   3.240   6.863 -0.1501 -0.2402 -0.0253
  591MOL0     C79656   7.803   3.232   6.856 -0.8079  0.2094 -0.5271
  591MOL0     C79657   7.740   3.152   6.752 -0.0071 -0.3563 -0.0480
  591MOL0     O79658   7.609   3.114   6.739 -0.2945 -0.3895  0.0845
  591MOL0     C79659   7.518   3.171   6.835 -0.7793 -0.0846 -0.4131
  591MOL0     C79660   7.371   3.160   6.783 -0.3261 -0.7916  0.0882
  591MOL0     C79661   7.271   3.154   6.906 -0.0251 -0.1109 -0.4081
  591MOL0     C79662   7.121   3.134   6.866  0.1358  0.6154  0.6270
  591MOL0     C79663   7.099   3.001   6.794 -0.0180  0.3872  0.3787
  591MOL0     C79664   6.978   2.994   6.707  0.3116  0.2099 -0.1644
  591MOL0     C79665   6.847   3.026   6.778 -0.4550 -0.7963  0.1668
  591MOL0     C79666   6.739   2.987   6.679  0.2350 -0.3218  0.5015
  591MOL0     N79667   6.612   3.006   6.735  0.5809 -0.2230  0.0538
  591MOL0     C79668   6.571   3.121   6.795  0.4989 -0.2615 -0.7142
  591MOL0     C79669   6.440   3.104   6.830 -0.5458 -0.0741  0.2440
  591MOL0     C79670   6.359   3.213   6.891  0.5834  0.8898  0.4471
  591MOL0     C79671   6.228   3.178   6.968  0.7173  0.0111 -0.5868
  591MOL0     C79672   6.112   3.263   6.923 -0.0624  0.0463 -0.3230
  591MOL0     C79673   5.981   3.235   6.996  0.2371 -0.5105 -0.8575
  591MOL0     O79674   5.881   3.345   6.986 -0.6248 -0.0409 -0.7540
  591MOL0     C79675   5.752   3.307   6.993  0.2967  0.0236  0.0587
  591MOL0     C79676   5.707   3.177   7.044 -0.1749 -0.2298 -0.7896
  591MOL0     C79677   5.567   3.148   7.066  0.0036  0.0026  0.2743
  591MOL0     C79678   5.523   3.014   7.113  0.6200 -0.4265  1.3678
  591MOL0     C79679   5.465   3.246   7.023  0.3405  0.2848 -0.1877
  591MOL0     C79680   5.314   3.236   7.035  0.6492  0.0899  0.5223
  591MOL0     O79681   5.251   3.117   7.033  0.8035  0.1924  0.0158
  591MOL0     C79682   5.113   3.117   7.035  0.6581  1.2588  0.2540
  591MOL0     C79683   5.037   3.064   7.137 -1.4862 -1.1551  0.0540
  591MOL0     C79684   4.907   3.059   7.137 -0.4945 -0.5479 -0.4019
  591MOL0     C79685   4.839   3.096   7.020  0.1214 -0.6553 -0.3686
  591MOL0     O79686   4.709   3.116   7.035 -0.3033 -0.6094 -0.2390
  591MOL0     C79687   4.628   3.063   6.925  0.1179 -0.0952 -0.2448
  591MOL0     C79688   4.490   3.012   6.966  0.3623  0.4048  0.3705
  591MOL0     C79689   4.395   3.011   6.843 -0.5035 -0.9982 -0.7378
  591MOL0     C79690   4.279   2.919   6.882 -0.2424 -0.5298  0.0456
  591MOL0     C79691   4.163   2.924   6.780  0.1750 -0.3167  0.1315
  591MOL0     C79692   4.034   2.854   6.833 -0.5273  0.7405 -0.0548
  591MOL0     C79693   3.923   2.824   6.728  0.0884 -0.2612  0.3778
  591MOL0     C79694   3.816   2.734   6.786  0.1752  0.0173 -0.7835
  591MOL0    Cl79695   3.723   2.799   6.929 -0.0413  0.1928 -0.2740
  591MOL0     C79696   4.909   3.141   6.913 -0.3049  0.6755  0.7261
  591MOL0     C79697   5.045   3.154   6.920 -0.3177 -0.0958 -0.1361
  591MOL0     O79698   5.256   3.339   7.064 -0.0878 -0.4213  0.3520
  591MOL0     C79699   5.524   3.371   6.973  0.1859  0.3978 -0.7039
  591MOL0     C79700   5.653   3.400   6.948 -0.1159  0.6823 -0.3164
  591MOL0     N79701   6.405   2.982   6.784  0.2447  0.3901  0.2420
  591MOL0     N79702   6.511   2.928   6.724  0.0009 -0.4099 -0.0762
  591MOL0     C79703   7.833   3.088   6.673 -0.6182  0.3327  0.2440
  591MOL0     C79704   7.972   3.095   6.683 -0.3647  1.3678 -0.0185
  591MOL0     C79705   8.387   3.182   6.740  0.0681  0.2701  0.3243
  591MOL0     C79706   8.421   3.129   6.861 -0.7175  0.1923 -0.2672
  591MOL0     C79707   8.556   3.080   6.887 -0.0326  0.1798  0.4823
  591MOL0     C79708   8.659   3.082   6.786 -1.0653 -0.4406 -0.7584
  591MOL0     O79709   8.792   3.046   6.809  0.6630 -0.2744  0.3818
  591MOL0     C79710   8.856   2.982   6.697  0.3741  0.2248 -0.6297
  591MOL0     C79711   8.972   2.893   6.749  1.0694  0.4356  0.6470
  591MOL0     C79712   9.042   2.821   6.627  0.4965 -0.3202  0.3824
  591MOL0     C79713   9.124   2.699   6.683  0.4253 -0.6541  0.5382
  591MOL0     C79714   9.269   2.735   6.698 -0.0376 -0.2705 -0.9520
  591MOL0     C79715   9.382   2.782   6.712  0.3097  0.5872 -0.5980
  591MOL0     C79716   8.624   3.159   6.673 -0.2672  0.2493 -0.5757
  591MOL0     C79717   8.493   3.203   6.643 -0.1066  0.1716  0.4918
  591MOL0     H79718   7.991   3.293   6.944 -3.0374 -1.8114  2.9711
  591MOL0     H79719   7.734   3.269   6.932 -1.5098  3.1943 -2.4833
  591MOL0     H79720   7.541   3.126   6.933  2.3447  2.6479  0.3017
  591MOL0     H79721   7.547   3.275   6.849  1.6445 -0.6852 -0.5322
  591MOL0     H79722   7.353   3.230   6.701 -1.0883 -2.0273 -0.8389
  591MOL0     H79723   7.375   3.062   6.736  0.4479 -0.5671 -0.3268
  591MOL0     H79724   7.303   3.075   6.976  0.3428  0.7237  0.3918
  591MOL0     H79725   7.267   3.250   6.958 -1.9273 -0.5460  0.3177
  591MOL0     H79726   7.057   3.128   6.955  0.8304 -0.5633  1.0822
  591MOL0     H79727   7.103   3.218   6.799  2.0443 -1.1320 -2.3220
  591MOL0     H79728   7.184   2.974   6.729 -0.1327  0.8135  0.0463
  591MOL0     H79729   7.099   2.927   6.874  0.6332 -1.8124 -1.5431
  591MOL0     H79730   6.983   3.066   6.625 -3.0848  2.0022  1.0222
  591MOL0     H79731   6.965   2.890   6.674 -0.5692  0.4463 -0.5880
  591MOL0     H79732   6.824   2.974   6.872 -1.9540 -0.7285 -0.1369
  591MOL0     H79733   6.844   3.132   6.804  0.6897 -0.6428 -0.2809
  591MOL0     H79734   6.749   2.882   6.649 -1.0984 -0.2257 -0.3526
  591MOL0     H79735   6.767   3.037   6.586  2.3312 -2.3107 -0.0405
  591MOL0     H79736   6.621   3.217   6.803 -3.1759  1.8322 -0.5301
  591MOL0     H79737   6.425   3.270   6.957 -1.2835  2.8708  0.7377
  591MOL0     H79738   6.335   3.286   6.813  2.1311 -0.4686 -1.3941
  591MOL0     H79739   6.243   3.189   7.076 -1.7689  0.5711 -0.2338
  591MOL0     H79740   6.201   3.074   6.951 -1.2403  0.4834 -0.5736
  591MOL0     H79741   6.096   3.236   6.818 -0.3330 -1.5425  0.1012
  591MOL0     H79742   6.137   3.369   6.933  2.8069 -0.3016 -2.4320
  591MOL0     H79743   5.995   3.196   7.097  2.8909 -2.1026 -1.7514
  591MOL0     H79744   5.932   3.157   6.937 -2.1177  1.3578 -1.5532
  591MOL0     H79745   5.769   3.093   7.073 -1.1462 -0.5176  0.5200
  591MOL0     H79746   5.447   3.022   7.191 -3.2183  0.0354 -2.0751
  591MOL0     H79747   5.483   2.968   7.022  0.4372  1.9407  0.1596
  591MOL0     H79748   5.597   2.942   7.148 -1.7550 -2.9279  1.5394
  591MOL0     H79749   5.103   3.033   7.217  2.4250 -1.2358 -2.8571
  591MOL0     H79750   4.852   3.042   7.228 -2.1962 -0.0244 -1.2805
  591MOL0     H79751   4.620   3.139   6.847 -1.9484 -0.9857 -0.9614
  591MOL0     H79752   4.676   2.981   6.872  0.8706 -0.3357  0.7763
  591MOL0     H79753   4.501   2.909   7.001 -1.4464 -0.0913 -0.4133
  591MOL0     H79754   4.447   3.073   7.046 -3.6021 -1.6981  0.1015
  591MOL0     H79755   4.443   2.963   6.757  1.4977 -1.3275  0.4846
  591MOL0     H79756   4.353   3.110   6.824 -2.9228 -1.9821 -0.8596
  591MOL0     H79757   4.321   2.818   6.874 -0.2486 -0.4428 -1.4243
  591MOL0     H79758   4.247   2.929   6.986  1.0764  0.9648  0.3419
  591MOL0     H79759   4.195   2.874   6.688 -0.9488  0.4198 -0.6976
  591MOL0     H79760   4.133   3.027   6.755 -0.1655 -0.0196  1.6668
  591MOL0     H79761   4.060   2.767   6.893 -0.2979  1.3482  0.7413
  591MOL0     H79762   3.992   2.919   6.910 -2.3853 -1.9766  1.3848
  591MOL0     H79763   3.964   2.762   6.648  0.2453  1.5646 -1.0440
  591MOL0     H79764   3.886   2.920   6.690  2.2033  0.1594 -0.7777
  591MOL0     H79765   3.874   2.651   6.828  1.5195  0.4075 -1.8028
  591MOL0     H79766   3.742   2.708   6.709 -2.6955  1.3317  1.3445
  591MOL0     H79767   4.855   3.172   6.824 -0.3239 -0.0616  0.4689
  591MOL0     H79768   5.102   3.197   6.838  3.1074 -0.7539  1.7300
  591MOL0     H79769   5.452   3.450   6.952  0.2290  0.3532 -1.0270
  591MOL0     H79770   5.685   3.483   6.885 -0.6307  3.0133  2.3194
  591MOL0     H79771   7.798   3.012   6.604  1.4070  0.7416 -1.2957
  591MOL0     H79772   8.038   3.031   6.625  0.2808 -0.7271  2.8267
  591MOL0     H79773   8.346   3.110   6.937  1.2685 -0.1202  1.7129
  591MOL0     H79774   8.570   3.031   6.983 -2.2360  2.5957  2.1532
  591MOL0     H79775   8.780   2.924   6.644 -0.3649 -1.5380  2.1472
  591MOL0     H79776   8.895   3.050   6.621  0.6335 -0.3743 -1.0370
  591MOL0     H79777   8.926   2.818   6.814 -1.0801  0.8956 -0.2850
  591MOL0     H79778   9.045   2.957   6.799  2.0019  1.1652 -1.5263
  591MOL0     H79779   9.108   2.884   6.567  1.6388 -0.8176  1.0890
  591MOL0     H79780   8.967   2.783   6.557  1.1573  0.4079 -0.7387
  591MOL0     H79781   9.107   2.615   6.615 -1.6747  1.3048 -1.5726
  591MOL0     H79782   9.074   2.664   6.774 -2.4489 -1.7848 -1.3323
  591MOL0     H79783   9.475   2.828   6.739 -0.6932  1.6680  1.2803
  591MOL0     H79784   8.704   3.187   6.605 -0.1833  0.2018 -0.4975
  591MOL0     H79785   8.461   3.234   6.544  0.5835 -1.0573 -0.1393
  592MOL0     O79786   4.202   5.146   1.365  0.0188 -0.2069  0.1321
  592MOL0     C79787   4.202   5.089   1.475  0.4840 -0.4465  0.4274
  592MOL0     O79788   4.302   5.002   1.515 -0.1405  0.0640 -0.3450
  592MOL0     C79789   4.424   4.990   1.439 -0.1460  0.7617 -0.8794
  592MOL0     C79790   4.436   4.952   1.308  0.6860  0.4152  0.9153
  592MOL0     C79791   4.549   4.942   1.244  0.0001 -0.3153 -0.3780
  592MOL0     C79792   4.671   4.969   1.315  0.0743 -0.3931  0.1285
  592MOL0     O79793   4.797   4.969   1.258  0.2259 -0.2033 -0.4577
  592MOL0     C79794   4.825   4.877   1.149 -0.0887 -0.4620  0.5573
  592MOL0     C79795   4.948   4.917   1.066 -0.2667 -0.0196 -0.4125
  592MOL0     C79796   5.080   4.910   1.151 -0.6680 -0.2645  0.0817
  592MOL0     C79797   5.196   4.918   1.052 -0.1375 -0.1249 -0.6273
  592MOL0     C79798   5.342   4.929   1.117 -0.0548  0.4780 -0.0388
  592MOL0     C79799   5.458   4.866   1.038  0.4445  0.9487  0.1950
  592MOL0     C79800   5.587   4.866   1.128 -0.0752 -0.1574 -0.6338
  592MOL0     C79801   5.661   5.005   1.133 -0.1761  0.6718 -0.5732
  592MOL0     N79802   5.727   5.022   1.003 -0.3039 -0.2667  0.5016
  592MOL0     C79803   5.830   4.946   0.960  0.3415 -0.5948  0.1181
  592MOL0     C79804   5.859   4.998   0.839  0.5540  0.2658  0.2281
  592MOL0     C79805   5.946   4.933   0.735 -0.2898 -0.3442  0.1012
  592MOL0     C79806   5.884   4.812   0.666 -0.5641  0.1192 -0.0671
  592MOL0     C79807   5.842   4.708   0.760 -1.1149  0.4262  0.0462
  592MOL0     C79808   5.820   4.579   0.670 -0.2525  0.5325  0.3801
  592MOL0     O79809   5.726   4.596   0.559 -0.1311  0.8730  0.0712
  592MOL0     C79810   5.589   4.600   0.580  0.5259 -0.4572 -0.1389
  592MOL0     C79811   5.524   4.693   0.500  0.7282 -0.0288  0.4018
  592MOL0     C79812   5.385   4.702   0.501 -0.1272  0.6900  0.4089
  592MOL0     C79813   5.320   4.805   0.415  0.4500 -0.3065  0.1298
  592MOL0     C79814   5.308   4.614   0.586 -0.8317 -0.6498  0.0533
  592MOL0     C79815   5.160   4.628   0.596 -0.4274 -0.1855 -0.7072
  592MOL0     O79816   5.085   4.727   0.533 -0.1772  0.7047  0.3402
  592MOL0     C79817   4.957   4.742   0.592  0.4759 -0.2930 -0.6436
  592MOL0     C79818   4.936   4.831   0.708  0.5518  1.2704  0.8667
  592MOL0     C79819   4.809   4.845   0.762  0.5949  0.1532 -0.7832
  592MOL0     C79820   4.690   4.790   0.697  0.0727  0.4255 -0.1478
  592MOL0     O79821   4.570   4.802   0.753  0.4200 -0.0526  0.0849
  592MOL0     C79822   4.457   4.770   0.673 -0.2292 -0.0471  0.6899
  592MOL0     C79823   4.323   4.802   0.740 -0.3723  0.7388 -0.1476
  592MOL0     C79824   4.308   4.751   0.882 -0.0866  0.1444  0.2159
  592MOL0     C79825   4.177   4.783   0.944 -0.0883 -0.4058  0.1250
  592MOL0     C79826   4.062   4.703   0.873  0.3228 -0.2606 -0.1492
  592MOL0     C79827   3.928   4.735   0.936 -0.2480  0.1804  0.3965
  592MOL0     C79828   3.802   4.712   0.847  0.5664 -0.5800 -1.0356
  592MOL0     C79829   3.790   4.563   0.839 -0.0615 -0.3562 -0.4966
  592MOL0    Cl79830   3.624   4.529   0.783  0.3799 -0.1944  0.0079
  592MOL0     C79831   4.714   4.728   0.575 -0.4321  0.6850  0.8196
  592MOL0     C79832   4.840   4.694   0.529  0.5174 -0.5469  0.2651
  592MOL0     O79833   5.110   4.534   0.662  0.0999  0.2522 -0.3690
  592MOL0     C79834   5.379   4.529   0.664  0.2983 -0.1757 -0.1496
  592MOL0     C79835   5.517   4.519   0.665  0.3658  0.1262 -0.2206
  592MOL0     N79836   5.775   5.104   0.817 -0.2448  0.4366  0.2277
  592MOL0     N79837   5.696   5.122   0.915  0.3772  0.0556 -0.6202
  592MOL0     C79838   4.661   5.002   1.449 -0.0793  0.8161  0.1871
  592MOL0     C79839   4.538   5.012   1.512 -0.6940 -0.7696  0.0384
  592MOL0     C79840   4.099   5.120   1.570  0.0566  0.2774  0.7801
  592MOL0     C79841   4.010   5.225   1.550 -0.2237 -0.2324 -0.0059
  592MOL0     C79842   3.914   5.243   1.649 -0.4425 -0.1651  0.1983
  592MOL0     C79843   3.899   5.154   1.763 -0.6823  0.1639 -0.4451
  592MOL0     O79844   3.800   5.172   1.857 -0.2725  0.5181  0.0888
  592MOL0     C79845   3.827   5.143   2.001  0.0341  0.2356  0.3920
  592MOL0     C79846   3.773   5.252   2.094 -0.6482  0.2518 -0.1234
  592MOL0     C79847   3.645   5.325   2.053  0.1492  0.0605  0.7736
  592MOL0     C79848   3.665   5.444   1.962  1.1503  0.4006 -0.2247
  592MOL0     C79849   3.725   5.569   2.013  0.5682  0.4502  0.6097
  592MOL0     C79850   3.773   5.678   2.038  0.5426 -0.2620 -0.1028
  592MOL0     C79851   3.981   5.041   1.769  0.3148  0.3813  0.0818
  592MOL0     C79852   4.078   5.022   1.673 -1.0576  0.4136  0.2764
  592MOL0     H79853   4.350   4.925   1.248  1.7197 -1.2213  0.0949
  592MOL0     H79854   4.558   4.929   1.137 -0.8002 -0.3266 -0.4482
  592MOL0     H79855   4.832   4.777   1.191  0.8386 -0.6196  0.0578
  592MOL0     H79856   4.746   4.879   1.074 -0.7991  0.5850  1.3007
  592MOL0     H79857   4.966   4.841   0.990  2.1824 -2.8832  2.6782
  592MOL0     H79858   4.932   5.014   1.018 -0.5854  0.3204  0.3652
  592MOL0     H79859   5.086   5.000   1.214  0.4048 -0.0947 -0.2419
  592MOL0     H79860   5.084   4.814   1.202  0.2289 -0.2670  0.0079
  592MOL0     H79861   5.197   4.826   0.992  2.9180 -2.1096  2.1027
  592MOL0     H79862   5.188   5.009   0.992  2.0192  0.8120  0.3911
  592MOL0     H79863   5.349   5.036   1.141 -3.6010  1.4669 -2.5757
  592MOL0     H79864   5.329   4.862   1.202  2.1104 -0.4619 -0.4114
  592MOL0     H79865   5.435   4.763   1.009 -1.6560  1.9325 -1.9368
  592MOL0     H79866   5.478   4.920   0.946  0.8433  0.8085  0.1966
  592MOL0     H79867   5.556   4.844   1.231  0.2555  1.3097 -0.1955
  592MOL0     H79868   5.664   4.796   1.094  0.5189  0.1776 -0.0190
  592MOL0     H79869   5.739   4.986   1.207  0.5976 -3.4308 -2.1581
  592MOL0     H79870   5.613   5.097   1.167 -1.7745  0.1033 -1.1993
  592MOL0     H79871   5.871   4.853   0.999 -2.2774 -2.3445 -1.0579
  592MOL0     H79872   5.970   5.006   0.656 -0.3712 -1.8025 -1.3388
  592MOL0     H79873   6.034   4.899   0.791 -0.9155 -0.5150  0.9974
  592MOL0     H79874   5.956   4.790   0.587 -0.8096  2.9369 -1.1911
  592MOL0     H79875   5.802   4.841   0.598  0.8346 -1.3223 -2.5303
  592MOL0     H79876   5.749   4.738   0.809 -1.3213  0.3081 -0.2702
  592MOL0     H79877   5.923   4.693   0.832 -0.5331  1.2170 -0.4321
  592MOL0     H79878   5.777   4.496   0.727 -0.9875  0.3251 -0.4634
  592MOL0     H79879   5.919   4.546   0.640 -0.7645  0.9435 -1.9002
  592MOL0     H79880   5.582   4.749   0.427  2.0338 -2.6562 -0.6933
  592MOL0     H79881   5.395   4.857   0.356 -0.1427 -0.0566 -0.4187
  592MOL0     H79882   5.246   4.757   0.350  0.9816  0.4198 -1.0403
  592MOL0     H79883   5.277   4.884   0.479  3.6657  1.0205  0.8439
  592MOL0     H79884   5.020   4.883   0.753  1.5319  2.0277 -1.6663
  592MOL0     H79885   4.791   4.911   0.846  0.2617 -0.5662 -0.2792
  592MOL0     H79886   4.464   4.804   0.570  2.9219 -1.3553  0.3456
  592MOL0     H79887   4.453   4.662   0.654 -0.7135  0.6200 -4.0295
  592MOL0     H79888   4.303   4.909   0.726  0.8538  0.6889 -2.8498
  592MOL0     H79889   4.260   4.747   0.670  1.6292 -3.3288  0.9100
  592MOL0     H79890   4.384   4.810   0.934 -0.1230  2.1569 -1.8533
  592MOL0     H79891   4.339   4.646   0.883  1.0628  0.4359 -1.2518
  592MOL0     H79892   4.181   4.752   1.049  0.3164 -0.9849 -0.0537
  592MOL0     H79893   4.158   4.890   0.939 -1.7367 -0.5751  1.6996
  592MOL0     H79894   4.075   4.595   0.886  2.6085  0.0683  0.8504
  592MOL0     H79895   4.059   4.720   0.765  0.1045  0.4855 -0.0340
  592MOL0     H79896   3.913   4.668   1.021  0.1155  0.4786  0.6981
  592MOL0     H79897   3.932   4.840   0.968  3.6608  1.2472 -2.6731
  592MOL0     H79898   3.811   4.768   0.753  2.3222 -2.6121 -2.1873
  592MOL0     H79899   3.717   4.745   0.907  1.0587 -0.8686 -0.1667
  592MOL0     H79900   3.807   4.513   0.934  0.6359 -1.6833 -1.2826
  592MOL0     H79901   3.872   4.529   0.775  1.1416 -0.0815  0.8543
  592MOL0     H79902   4.627   4.686   0.526 -1.5047 -0.4273  3.4869
  592MOL0     H79903   4.849   4.623   0.448  1.7897 -1.6963  1.3695
  592MOL0     H79904   5.325   4.471   0.738  0.2753 -0.9903 -0.7899
  592MOL0     H79905   5.570   4.453   0.734  0.1529  0.2291  0.0451
  592MOL0     H79906   4.759   5.028   1.489 -0.4067  1.6189  0.4865
  592MOL0     H79907   4.529   5.033   1.618  0.1955 -1.6845  0.3222
  592MOL0     H79908   4.018   5.301   1.473  0.2294  0.8007  1.0361
  592MOL0     H79909   3.851   5.329   1.631  0.4084  0.5777  0.7131
  592MOL0     H79910   3.784   5.050   2.037 -1.8094  2.6733  5.5355
  592MOL0     H79911   3.932   5.130   2.029 -0.0864  3.1001  2.6308
  592MOL0     H79912   3.841   5.337   2.082 -3.4342  2.3051 -2.8511
  592MOL0     H79913   3.773   5.226   2.200 -0.3366  1.2271  0.1262
  592MOL0     H79914   3.604   5.350   2.152  0.3969  0.1837  0.8464
  592MOL0     H79915   3.583   5.258   1.992  1.7032  0.7551 -1.7000
  592MOL0     H79916   3.565   5.469   1.927  0.6466 -0.5707  0.4753
  592MOL0     H79917   3.727   5.420   1.875  1.5435 -0.7150  0.3417
  592MOL0     H79918   3.810   5.778   2.053 -0.9879  0.5469 -1.3944
  592MOL0     H79919   3.981   4.967   1.848 -1.5350 -1.7089 -1.7284
  592MOL0     H79920   4.147   4.938   1.671  0.6987  1.8026 -1.4413
  593MOL0     O79921   8.901   5.494   8.120  1.0149 -0.7612 -0.0895
  593MOL0     C79922   8.981   5.543   8.044  0.4097 -0.0137 -0.0748
  593MOL0     O79923   8.949   5.603   7.926  0.0938  0.7461  0.6753
  593MOL0     C79924   8.817   5.603   7.875 -0.3704  0.0630 -0.3741
  593MOL0     C79925   8.737   5.491   7.878 -0.2574  0.3597 -0.1184
  593MOL0     C79926   8.614   5.485   7.816  0.9644  0.1332 -0.4198
  593MOL0     C79927   8.566   5.597   7.738 -0.2913  0.0673 -0.2608
  593MOL0     O79928   8.448   5.614   7.670  0.4503 -0.0218 -0.0106
  593MOL0     C79929   8.353   5.519   7.713 -0.2902  0.3015  0.3647
  593MOL0     C79930   8.225   5.532   7.630  0.0879 -0.8009  0.3938
  593MOL0     C79931   8.231   5.447   7.501  0.8861 -0.1716 -0.8924
  593MOL0     C79932   8.164   5.308   7.502  0.2272 -0.5411  0.0624
  593MOL0     C79933   8.121   5.253   7.357  0.4410 -0.5228  0.4360
  593MOL0     C79934   8.010   5.331   7.282 -0.2913  0.5982 -0.3350
  593MOL0     C79935   7.936   5.237   7.185 -0.3133 -0.1739  0.7656
  593MOL0     C79936   7.842   5.319   7.101  0.3333  0.5211  0.5386
  593MOL0     N79937   7.716   5.244   7.080 -1.2034  0.1812 -0.2063
  593MOL0     C79938   7.618   5.245   7.174  0.0723  0.4083  0.5393
  593MOL0     C79939   7.514   5.171   7.121 -0.4946  0.4432  0.5677
  593MOL0     C79940   7.385   5.111   7.172  0.3663 -0.2896  0.0215
  593MOL0     C79941   7.392   5.058   7.312  0.6193 -0.7670  0.5261
  593MOL0     C79942   7.276   4.961   7.342  0.3130  0.5682 -0.4483
  593MOL0     C79943   7.281   4.910   7.483 -0.0190 -0.3591 -0.1285
  593MOL0     O79944   7.290   5.007   7.587 -0.2423 -0.1504  0.2614
  593MOL0     C79945   7.164   5.052   7.620  0.5165  0.0323  0.4469
  593MOL0     C79946   7.091   4.993   7.718  0.0004 -0.4863 -0.7852
  593MOL0     C79947   6.955   5.033   7.758 -0.8877 -0.4390  0.2737
  593MOL0     C79948   6.888   4.942   7.853  0.5066  0.6162 -0.2566
  593MOL0     C79949   6.899   5.141   7.679  0.1520  0.4847 -0.9701
  593MOL0     C79950   6.758   5.182   7.677 -0.1949 -0.5489 -0.2657
  593MOL0     O79951   6.708   5.239   7.792  0.2077  0.0751 -0.0207
  593MOL0     C79952   6.578   5.279   7.803 -0.4168 -0.0948  1.0110
  593MOL0     C79953   6.549   5.369   7.901 -1.1974  0.5454  0.1312
  593MOL0     C79954   6.427   5.405   7.939 -0.0665 -0.6898  0.1138
  593MOL0     C79955   6.320   5.335   7.887  0.6721 -0.7619  0.0678
  593MOL0     O79956   6.186   5.369   7.907  0.6295  0.5575 -0.2011
  593MOL0     C79957   6.149   5.495   7.956  0.3178  0.0884  1.1594
  593MOL0     C79958   5.994   5.508   7.933  0.1772  0.7875  0.1536
  593MOL0     C79959   5.925   5.397   8.020  0.5390  0.0496 -0.6195
  593MOL0     C79960   5.828   5.453   8.124 -1.1622  0.0942  0.6177
  593MOL0     C79961   5.745   5.342   8.186  0.5200 -0.1880 -0.0942
  593MOL0     C79962   5.641   5.421   8.274  0.2359 -0.6969 -0.1813
  593MOL0     C79963   5.547   5.331   8.355 -0.3389  1.0543 -0.2284
  593MOL0     C79964   5.466   5.414   8.454 -0.0337 -0.5518 -0.8436
  593MOL0    Cl79965   5.571   5.482   8.584 -0.3071 -0.0456  0.4776
  593MOL0     C79966   6.341   5.239   7.788 -0.9483 -0.7619  0.4029
  593MOL0     C79967   6.470   5.212   7.742  0.6058  0.7306  0.1223
  593MOL0     O79968   6.704   5.177   7.569  0.7200  0.2548 -0.9394
  593MOL0     C79969   6.981   5.213   7.586  0.0662  0.0821 -0.0599
  593MOL0     C79970   7.115   5.169   7.565  0.2252  0.3079  0.6753
  593MOL0     N79971   7.549   5.135   6.990 -0.7417  0.1441  0.2887
  593MOL0     N79972   7.671   5.178   6.970  0.0853  0.9835 -0.3109
  593MOL0     C79973   8.651   5.712   7.727 -0.6330  0.0968 -1.0895
  593MOL0     C79974   8.780   5.710   7.791  1.4215 -0.3225 -0.4955
  593MOL0     C79975   9.121   5.548   8.085  0.0908  0.1395  1.1425
  593MOL0     C79976   9.154   5.457   8.185 -0.4105 -0.4090 -0.4497
  593MOL0     C79977   9.288   5.433   8.214 -1.3483 -0.1882  0.1824
  593MOL0     C79978   9.386   5.512   8.141  0.5645 -0.2741  0.6615
  593MOL0     O79979   9.525   5.507   8.152 -0.3704 -0.0458  0.0692
  593MOL0     C79980   9.578   5.407   8.233  0.7504  0.3873 -0.7615
  593MOL0     C79981   9.728   5.407   8.203 -0.5224 -1.1553 -0.1894
  593MOL0     C79982   9.813   5.300   8.268 -0.8031  0.3580 -0.1420
  593MOL0     C79983   9.959   5.320   8.223  0.2526  0.3645  0.2102
  593MOL0     C79984  10.042   5.215   8.281  0.5974 -0.0983  0.3134
  593MOL0     C79985  10.098   5.124   8.327 -0.3564  0.9649  0.1198
  593MOL0     C79986   9.348   5.596   8.037 -1.0132 -0.3235  0.1245
  593MOL0     C79987   9.221   5.620   8.005  1.7878 -0.3244  0.3076
  593MOL0     H79988   8.776   5.401   7.924 -3.3087  0.0744  2.1953
  593MOL0     H79989   8.563   5.390   7.825  2.1257 -0.2888  4.3782
  593MOL0     H79990   8.390   5.419   7.686 -0.2278  1.1486 -3.1826
  593MOL0     H79991   8.336   5.523   7.821  2.1230 -0.1202  0.8124
  593MOL0     H79992   8.136   5.505   7.687 -3.1208  0.9219 -3.3040
  593MOL0     H79993   8.217   5.640   7.613  3.4644 -0.1929  1.8864
  593MOL0     H79994   8.187   5.508   7.421 -1.3090  1.0159  1.0746
  593MOL0     H79995   8.335   5.430   7.473  1.4385  1.8443 -0.2448
  593MOL0     H79996   8.221   5.229   7.552  0.9081  0.1356  0.3622
  593MOL0     H79997   8.075   5.322   7.565 -1.3506 -3.8612 -1.2051
  593MOL0     H79998   8.208   5.254   7.292  0.2001 -0.3785  0.1117
  593MOL0     H79999   8.088   5.150   7.369  1.8877 -1.5506 -3.1360
  593MOL0     H80000   7.948   5.370   7.364  0.8287 -0.3593  1.0197
  593MOL0     H80001   8.063   5.414   7.236  1.1806 -0.3612 -0.4417
  593MOL0     H80002   8.016   5.179   7.137 -0.1412 -1.6774  2.7300
  593MOL0     H80003   7.873   5.164   7.236 -3.3810  0.3351 -1.9751
  593MOL0     H80004   7.891   5.336   7.005 -1.9563  5.1471 -0.0658
  593MOL0     H80005   7.820   5.418   7.142  1.9368  1.5159 -0.8965
  593MOL0     H80006   7.621   5.286   7.275 -2.7893  2.8803 -0.2432
  593MOL0     H80007   7.306   5.187   7.163  0.3623 -0.3000 -0.0334
  593MOL0     H80008   7.356   5.032   7.102 -1.7643  0.0632  0.4318
  593MOL0     H80009   7.391   5.143   7.381  0.0285  0.3674 -0.8418
  593MOL0     H80010   7.484   4.999   7.318 -0.3188 -2.3469  0.1952
  593MOL0     H80011   7.276   4.879   7.270  0.6181  0.7504 -0.6612
  593MOL0     H80012   7.178   5.008   7.329 -0.5788 -0.9972  0.3993
  593MOL0     H80013   7.365   4.840   7.481 -0.9308 -1.4938 -2.7481
  593MOL0     H80014   7.195   4.844   7.500  0.6076 -1.5973 -1.5669
  593MOL0     H80015   7.129   4.901   7.762 -0.5680 -1.0279 -1.4149
  593MOL0     H80016   6.848   5.005   7.933 -3.3621  1.3985 -2.5304
  593MOL0     H80017   6.808   4.893   7.796 -0.4209  1.1343  0.5710
  593MOL0     H80018   6.950   4.859   7.889 -0.7980 -0.9768 -1.5388
  593MOL0     H80019   6.633   5.420   7.947 -2.2459  1.0080  1.6406
  593MOL0     H80020   6.415   5.475   8.021  2.6535 -1.6251  1.4611
  593MOL0     H80021   6.165   5.503   8.064 -1.7134 -3.2879  1.8369
  593MOL0     H80022   6.202   5.573   7.899  1.8610 -2.3111 -0.9094
  593MOL0     H80023   5.966   5.612   7.952  2.1360  1.4078 -0.2346
  593MOL0     H80024   5.964   5.495   7.829 -1.7959  0.3020  0.7260
  593MOL0     H80025   5.982   5.324   8.078 -1.6766  0.0815  1.7551
  593MOL0     H80026   5.869   5.334   7.950 -1.7055  1.9128 -0.5892
  593MOL0     H80027   5.874   5.510   8.206  0.3616  1.0626 -0.8481
  593MOL0     H80028   5.762   5.526   8.077 -1.3172  0.4741  1.3952
  593MOL0     H80029   5.785   5.284   8.269  1.7403  2.7121  1.4825
  593MOL0     H80030   5.701   5.282   8.105  0.2699  1.5985 -1.3324
  593MOL0     H80031   5.695   5.489   8.341  2.6875  0.1375 -2.7691
  593MOL0     H80032   5.588   5.486   8.205 -2.6012 -1.5282  1.0896
  593MOL0     H80033   5.611   5.255   8.402 -2.4851 -1.9822 -1.8342
  593MOL0     H80034   5.481   5.293   8.277  0.3261  0.8927 -0.7185
  593MOL0     H80035   5.393   5.354   8.509 -0.7291 -1.3122 -2.5178
  593MOL0     H80036   5.412   5.490   8.396  2.2910  1.1746 -0.8952
  593MOL0     H80037   6.253   5.201   7.738 -0.0609 -0.5921 -1.3569
  593MOL0     H80038   6.491   5.136   7.667 -0.8586  2.7805 -2.5371
  593MOL0     H80039   6.944   5.302   7.537 -2.3263 -0.5114  0.5685
  593MOL0     H80040   7.177   5.218   7.491 -1.7552  0.8846 -0.6729
  593MOL0     H80041   8.618   5.801   7.674 -2.0794 -0.1323 -0.6161
  593MOL0     H80042   8.844   5.798   7.786 -0.6183  1.1581 -2.2531
  593MOL0     H80043   9.085   5.400   8.246  1.5512  0.8862  3.3146
  593MOL0     H80044   9.314   5.351   8.281 -1.2698 -0.3500 -0.0457
  593MOL0     H80045   9.567   5.434   8.339  2.3016  0.8366 -0.6826
  593MOL0     H80046   9.533   5.309   8.220  0.2877  0.1939  1.7234
  593MOL0     H80047   9.761   5.509   8.223 -0.4339 -1.0977 -0.6182
  593MOL0     H80048   9.741   5.381   8.097  0.0511 -2.6643  0.2239
  593MOL0     H80049   9.776   5.200   8.242  0.2309  0.1901 -1.0517
  593MOL0     H80050   9.821   5.308   8.376  1.1897 -0.2652 -0.2037
  593MOL0     H80051   9.983   5.423   8.248 -1.4221  0.4562  1.6579
  593MOL0     H80052   9.961   5.317   8.114 -2.2418 -0.3700  0.1208
  593MOL0     H80053  10.142   5.059   8.400 -1.4324 -2.9536 -2.4178
  593MOL0     H80054   9.426   5.646   7.980 -0.2348  0.6614  1.9619
  593MOL0     H80055   9.208   5.682   7.916  1.3937 -2.3497 -1.1160
  594MOL0     O80056  10.466   4.822  11.175  0.1945 -0.7014  0.2916
  594MOL0     C80057  10.500   4.892  11.082 -0.0420  0.1267 -0.5126
  594MOL0     O80058  10.419   4.945  10.986 -1.0249 -0.2899  0.0394
  594MOL0     C80059  10.285   4.910  10.974 -0.7491  0.1366  0.5467
  594MOL0     C80060  10.217   4.789  10.998  0.3077  1.1862  0.6538
  594MOL0     C80061  10.084   4.765  10.967 -0.3967 -0.9759  0.2102
  594MOL0     C80062  10.007   4.864  10.903  0.3575 -0.4774  0.3726
  594MOL0     O80063   9.878   4.861  10.877 -0.3671  0.1476  0.2577
  594MOL0     C80064   9.788   4.765  10.932 -0.2292  0.7873  0.2681
  594MOL0     C80065   9.772   4.630  10.858  0.2302 -0.2814 -0.3709
  594MOL0     C80066   9.694   4.632  10.727 -0.4118 -0.6608  0.7302
  594MOL0     C80067   9.553   4.694  10.722 -0.4326 -0.5123 -0.5819
  594MOL0     C80068   9.457   4.609  10.808 -0.3968  0.0113 -0.3762
  594MOL0     C80069   9.319   4.677  10.825  0.0528  0.6532 -0.0703
  594MOL0     C80070   9.251   4.676  10.686  0.2211  0.0380 -0.4428
  594MOL0     C80071   9.124   4.768  10.680 -0.7754  0.0492 -0.4044
  594MOL0     N80072   9.003   4.700  10.715  0.3058 -0.1675 -0.1600
  594MOL0     C80073   8.939   4.608  10.625  0.0879 -0.7506 -0.7920
  594MOL0     C80074   8.817   4.575  10.684  0.1953 -0.2854  0.9841
  594MOL0     C80075   8.721   4.475  10.630 -0.3147  0.4970  1.0996
  594MOL0     C80076   8.573   4.516  10.663 -0.6484  0.1255  1.2866
  594MOL0     C80077   8.482   4.439  10.571 -0.1299  0.4602  0.3072
  594MOL0     C80078   8.336   4.466  10.616 -0.5505 -0.0297 -0.9551
  594MOL0     O80079   8.268   4.412  10.503  0.2344  0.5798 -0.1989
  594MOL0     C80080   8.129   4.418  10.511  0.3693 -0.8931 -0.8505
  594MOL0     C80081   8.059   4.398  10.393  0.3014  0.8429 -0.5589
  594MOL0     C80082   7.920   4.419  10.385  0.0965  0.2191  0.0195
  594MOL0     C80083   7.877   4.411  10.242 -0.4707 -0.1445 -0.0227
  594MOL0     C80084   7.849   4.441  10.503  0.6694  0.1238  0.3185
  594MOL0     C80085   7.702   4.464  10.499  0.0359 -0.4177 -0.6655
  594MOL0     O80086   7.640   4.534  10.600  0.2056  0.3913 -0.7340
  594MOL0     C80087   7.499   4.521  10.609  0.1854 -0.4157  0.3379
  594MOL0     C80088   7.453   4.407  10.666  0.0759  0.3070  0.1787
  594MOL0     C80089   7.317   4.386  10.690 -0.3387 -0.2060 -0.0420
  594MOL0     C80090   7.222   4.469  10.630 -0.5275 -0.0320 -0.5017
  594MOL0     O80091   7.092   4.445  10.638 -0.8861  0.5417  0.2522
  594MOL0     C80092   6.994   4.548  10.642  0.0311 -0.1702  0.0849
  594MOL0     C80093   6.854   4.495  10.660 -0.8744  0.2358 -0.3924
  594MOL0     C80094   6.738   4.591  10.634 -0.3133  0.3219  0.7830
  594MOL0     C80095   6.603   4.553  10.692  0.1169 -0.7618  0.0868
  594MOL0     C80096   6.538   4.439  10.633  0.0462  0.3385 -0.4134
  594MOL0     C80097   6.448   4.366  10.735  0.5300  0.6712  0.4890
  594MOL0     C80098   6.346   4.275  10.666  1.0770  1.2794  0.2185
  594MOL0     C80099   6.262   4.186  10.766 -0.1344  0.1240  0.1059
  594MOL0    Cl80100   6.134   4.103  10.671 -0.2385 -0.0975  0.4065
  594MOL0     C80101   7.269   4.582  10.557  0.1232  0.6273 -0.6566
  594MOL0     C80102   7.404   4.607  10.564 -0.5217  0.6264  0.5616
  594MOL0     O80103   7.640   4.418  10.407  0.8492 -0.3428  0.2562
  594MOL0     C80104   7.920   4.450  10.630  0.7223  0.2964 -0.0640
  594MOL0     C80105   8.054   4.444  10.636 -0.1153 -0.2193 -0.4260
  594MOL0     N80106   8.814   4.640  10.807  0.2520  0.5573  0.5293
  594MOL0     N80107   8.916   4.709  10.821 -0.1092  0.0927  0.0891
  594MOL0     C80108  10.074   4.980  10.871  0.2779  0.5481 -0.2674
  594MOL0     C80109  10.213   5.007  10.897  0.0784  0.5952  1.1289
  594MOL0     C80110  10.643   4.926  11.079 -0.2364  0.6407  0.2542
  594MOL0     C80111  10.694   5.010  10.984 -0.3783 -0.6294  0.4433
  594MOL0     C80112  10.830   5.044  10.977 -0.0597  0.0557  0.5820
  594MOL0     C80113  10.920   4.995  11.078  0.4279  1.2667 -0.3354
  594MOL0     O80114  11.053   5.037  11.096  0.5687 -0.2317  0.0794
  594MOL0     C80115  11.096   5.149  11.020 -0.2575 -0.2296  0.0620
  594MOL0     C80116  11.233   5.199  11.067 -1.1491  0.5275  0.2891
  594MOL0     C80117  11.347   5.090  11.058 -0.1040 -0.6107 -1.0272
  594MOL0     C80118  11.418   5.086  10.926  0.0563  0.0076  0.4236
  594MOL0     C80119  11.500   5.203  10.914  0.8134 -0.6889 -0.0965
  594MOL0     C80120  11.564   5.304  10.914  0.2906  0.0791  0.9110
  594MOL0     C80121  10.873   4.885  11.160 -0.9839  0.1443  0.8151
  594MOL0     C80122  10.733   4.855  11.158 -0.5860  0.3265  0.4479
  594MOL0     H80123  10.268   4.711  11.053  1.7110  0.7517 -1.1996
  594MOL0     H80124  10.045   4.668  10.997  2.0155 -1.8511  0.8048
  594MOL0     H80125   9.819   4.742  11.034 -0.6961 -1.2890 -0.0171
  594MOL0     H80126   9.686   4.802  10.929 -1.6092 -2.6694 -1.0353
  594MOL0     H80127   9.864   4.572  10.846 -0.4395 -3.1873  5.3025
  594MOL0     H80128   9.721   4.572  10.935 -0.0920 -1.3068 -1.3227
  594MOL0     H80129   9.754   4.682  10.650 -2.1919  3.4146  1.7260
  594MOL0     H80130   9.674   4.527  10.704 -1.5622 -0.4959  0.9213
  594MOL0     H80131   9.542   4.799  10.749  1.6096 -0.8698  1.9993
  594MOL0     H80132   9.513   4.677  10.621  0.1421  1.8362 -1.2453
  594MOL0     H80133   9.443   4.512  10.761  1.2363 -1.3437  1.7321
  594MOL0     H80134   9.495   4.585  10.908 -4.2968 -2.3206  0.7614
  594MOL0     H80135   9.260   4.614  10.892  1.2268  1.5733  1.9630
  594MOL0     H80136   9.332   4.779  10.865 -0.2593  1.8234 -2.7727
  594MOL0     H80137   9.321   4.720  10.614 -0.1699  3.0945  0.8665
  594MOL0     H80138   9.228   4.572  10.661 -2.0460 -0.0990  1.8925
  594MOL0     H80139   9.114   4.816  10.582 -0.8220  1.1211  0.1201
  594MOL0     H80140   9.143   4.848  10.751  0.5560 -1.2716  0.7968
  594MOL0     H80141   8.966   4.560  10.532  0.2286  0.3408 -1.3262
  594MOL0     H80142   8.745   4.465  10.523 -0.3202 -1.4477  1.2326
  594MOL0     H80143   8.747   4.377  10.672 -1.1086 -1.3795 -2.3260
  594MOL0     H80144   8.557   4.624  10.652 -0.0076  0.1005 -0.1398
  594MOL0     H80145   8.545   4.488  10.765 -3.0539 -3.0620 -0.0639
  594MOL0     H80146   8.504   4.335  10.597  3.2312  1.0440  0.3243
  594MOL0     H80147   8.495   4.459  10.464  2.5876 -0.9958  0.2697
  594MOL0     H80148   8.318   4.573  10.630  0.4435 -0.0432  0.7319
  594MOL0     H80149   8.309   4.415  10.710 -0.6917  1.9219  0.1278
  594MOL0     H80150   8.118   4.386  10.303 -0.7161  4.5895 -1.9343
  594MOL0     H80151   7.801   4.336  10.222 -0.3169 -0.7701  1.6549
  594MOL0     H80152   7.822   4.502  10.214  1.1217 -0.2152 -4.0690
  594MOL0     H80153   7.959   4.412  10.169  0.4871 -1.2759  1.0067
  594MOL0     H80154   7.537   4.346  10.700  0.1136  1.2410  1.8608
  594MOL0     H80155   7.287   4.306  10.757  3.6160 -1.3398  0.6590
  594MOL0     H80156   7.020   4.610  10.728 -1.3580 -1.3078  1.3909
  594MOL0     H80157   6.995   4.591  10.542 -1.7059 -0.8843 -0.2866
  594MOL0     H80158   6.855   4.410  10.591  1.0645 -1.2301  1.3135
  594MOL0     H80159   6.838   4.439  10.752  0.9171 -1.6854 -1.1763
  594MOL0     H80160   6.723   4.597  10.526  0.2176 -1.2749  0.6000
  594MOL0     H80161   6.771   4.693  10.657 -0.9378  0.5757  0.5780
  594MOL0     H80162   6.618   4.527  10.797  0.4732 -0.4456  0.1151
  594MOL0     H80163   6.532   4.636  10.696  2.2313  1.1563 -0.2368
  594MOL0     H80164   6.620   4.377  10.597  0.3907  1.3821 -1.4817
  594MOL0     H80165   6.484   4.468  10.543  0.6754 -0.0179 -0.9100
  594MOL0     H80166   6.516   4.307  10.796 -0.0452 -0.2178  0.3003
  594MOL0     H80167   6.387   4.430  10.799 -4.2970 -0.9610 -1.9298
  594MOL0     H80168   6.393   4.210  10.592  1.7105  1.9955 -0.0314
  594MOL0     H80169   6.265   4.333  10.620  0.0573  1.0223  1.6218
  594MOL0     H80170   6.220   4.249  10.845 -0.0095  0.3572 -0.0131
  594MOL0     H80171   6.324   4.105  10.805 -0.3310 -2.2537 -3.9222
  594MOL0     H80172   7.209   4.660  10.510  0.5906  0.4923 -1.4892
  594MOL0     H80173   7.425   4.701  10.514  0.0081 -0.2096 -0.8686
  594MOL0     H80174   7.862   4.467  10.721 -1.3941  1.2778 -1.5050
  594MOL0     H80175   8.111   4.457  10.727  2.0127 -2.6138 -1.2968
  594MOL0     H80176  10.021   5.066  10.832  2.5307  2.6725  1.1111
  594MOL0     H80177  10.263   5.101  10.878  1.5474  0.3399  3.3884
  594MOL0     H80178  10.640   5.055  10.901  0.1179 -0.7806  0.0322
  594MOL0     H80179  10.864   5.116  10.904 -0.7575 -0.9525 -0.7704
  594MOL0     H80180  11.088   5.121  10.915 -0.4044  0.5022 -0.1241
  594MOL0     H80181  11.021   5.227  11.037 -0.9517 -1.2872  2.2664
  594MOL0     H80182  11.211   5.238  11.167 -2.3213  2.7487 -0.7708
  594MOL0     H80183  11.270   5.284  11.009  4.2951 -1.2875  0.5359
  594MOL0     H80184  11.306   4.991  11.083 -1.9069  0.4615  0.4561
  594MOL0     H80185  11.420   5.117  11.134 -2.3006  0.1316  0.9240
  594MOL0     H80186  11.355   5.087  10.837  2.0877  0.7058 -1.0708
  594MOL0     H80187  11.484   5.000  10.916  0.5240  0.4941 -0.8593
  594MOL0     H80188  11.621   5.394  10.910 -0.1552  0.3910  1.5788
  594MOL0     H80189  10.947   4.828  11.215 -3.9863 -3.3200  1.7015
  594MOL0     H80190  10.711   4.769  11.220 -1.5798  0.3518  0.1520
  595MOL0     O80191   0.994   1.822   6.691 -0.2419  0.7924 -0.4407
  595MOL0     C80192   1.038   1.781   6.794  0.1812 -0.8928  0.4477
  595MOL0     O80193   0.963   1.710   6.882  0.4821  0.3158  0.3477
  595MOL0     C80194   0.839   1.664   6.847  0.2410 -0.9022  0.3808
  595MOL0     C80195   0.811   1.550   6.772 -0.9510  0.9967  0.1555
  595MOL0     C80196   0.690   1.504   6.740 -0.4324  1.2944  0.0050
  595MOL0     C80197   0.586   1.587   6.780 -0.1190  0.3950 -0.2040
  595MOL0     O80198   0.459   1.550   6.773 -0.7749 -0.0555  0.1362
  595MOL0     C80199   0.431   1.466   6.896 -0.6134 -0.4861 -0.7605
  595MOL0     C80200   0.309   1.369   6.874 -0.0739 -0.0834  0.0986
  595MOL0     C80201   0.271   1.291   7.003 -0.6837 -0.0960  0.4494
  595MOL0     C80202   0.136   1.218   6.968  0.7769  0.4531 -0.4845
  595MOL0     C80203   0.012   1.318   6.964 -0.2790  0.2332 -0.7340
  595MOL0     C80204  -0.117   1.238   6.919 -0.3906  0.3294 -0.7203
  595MOL0     C80205  -0.217   1.336   6.861 -1.0259 -0.4033 -0.2887
  595MOL0     C80206  -0.282   1.408   6.973  0.2604 -0.1387 -0.0674
  595MOL0     N80207  -0.400   1.484   6.924  0.5284  1.0596 -0.6665
  595MOL0     C80208  -0.417   1.618   6.925 -0.7604 -0.0940  0.2251
  595MOL0     C80209  -0.545   1.633   6.904  0.1838 -0.5701  0.1174
  595MOL0     C80210  -0.615   1.770   6.893 -0.4090  0.1057 -0.1672
  595MOL0     C80211  -0.713   1.798   7.007 -0.4406  0.4703  0.2171
  595MOL0     C80212  -0.820   1.913   6.971  0.5487 -0.2936  0.0034
  595MOL0     C80213  -0.907   1.944   7.097 -0.1301 -0.8962 -0.6554
  595MOL0     O80214  -1.020   2.023   7.061 -0.5769 -0.1520  0.3656
  595MOL0     C80215  -1.116   2.036   7.155  0.2072  0.2152 -0.7149
  595MOL0     C80216  -1.101   2.037   7.293 -0.8149 -0.5489 -0.0133
  595MOL0     C80217  -1.214   2.073   7.382 -1.3588  0.6761 -0.5894
  595MOL0     C80218  -1.187   2.054   7.531 -1.0582 -0.9315  0.3211
  595MOL0     C80219  -1.333   2.103   7.327 -0.1896 -0.3024 -0.5731
  595MOL0     C80220  -1.460   2.138   7.410 -0.3673 -0.1042 -0.1259
  595MOL0     O80221  -1.551   2.216   7.340  0.8892 -0.3804 -0.4955
  595MOL0     C80222  -1.668   2.262   7.402  0.1648 -0.1930 -0.1364
  595MOL0     C80223  -1.738   2.219   7.516 -0.6850 -0.5444 -0.0195
  595MOL0     C80224  -1.860   2.269   7.557  0.1502  0.4831  0.1394
  595MOL0     C80225  -1.925   2.368   7.476 -0.4179  0.6121 -0.5413
  595MOL0     O80226  -2.046   2.417   7.519 -0.2560 -0.1568 -0.1512
  595MOL0     C80227  -2.139   2.338   7.596 -0.1432  0.0140 -0.4787
  595MOL0     C80228  -2.266   2.411   7.576 -0.7903  0.2565  0.5719
  595MOL0     C80229  -2.387   2.327   7.633 -0.0371 -0.5474 -1.0092
  595MOL0     C80230  -2.492   2.416   7.694  0.3175  0.1442 -1.1861
  595MOL0     C80231  -2.633   2.351   7.703  0.0956 -0.2166  0.4793
  595MOL0     C80232  -2.719   2.445   7.785 -0.8906 -0.0947 -0.3074
  595MOL0     C80233  -2.854   2.381   7.826 -0.5267 -0.6925  0.1860
  595MOL0     C80234  -2.923   2.460   7.942 -0.1236 -0.3498 -0.1188
  595MOL0    Cl80235  -3.040   2.338   8.003 -0.2687  0.1704  0.0061
  595MOL0     C80236  -1.865   2.409   7.357 -0.3181 -0.0689 -0.9461
  595MOL0     C80237  -1.734   2.359   7.326 -0.0321 -0.3410  0.7670
  595MOL0     O80238  -1.477   2.077   7.516  0.4133  0.0565  0.2265
  595MOL0     C80239  -1.351   2.103   7.181 -0.1369  0.2989  0.0137
  595MOL0     C80240  -1.243   2.071   7.100 -0.3266  0.1447 -0.3681
  595MOL0     N80241  -0.614   1.510   6.895 -0.0201  0.0058 -0.6705
  595MOL0     N80242  -0.519   1.422   6.912  0.3354 -0.1894  0.1145
  595MOL0     C80243   0.612   1.717   6.835 -0.0121 -0.1849  0.0849
  595MOL0     C80244   0.737   1.748   6.875  0.1358  0.1349 -0.5538
  595MOL0     C80245   1.165   1.837   6.839 -0.9522  0.6214 -1.0398
  595MOL0     C80246   1.239   1.925   6.762 -0.3052  0.1361  0.4167
  595MOL0     C80247   1.348   1.995   6.822 -0.5560  0.0850  0.5910
  595MOL0     C80248   1.394   1.970   6.948  0.1325  0.4749 -0.4031
  595MOL0     O80249   1.509   2.025   6.995 -0.2406  0.2529  0.0626
  595MOL0     C80250   1.551   1.995   7.132  0.3089 -0.2470  0.6238
  595MOL0     C80251   1.655   2.107   7.173  0.1269 -0.0794  0.0514
  595MOL0     C80252   1.809   2.074   7.133  0.3882  0.6016 -0.1467
  595MOL0     C80253   1.858   1.954   7.205 -0.3666  0.5088 -0.6168
  595MOL0     C80254   1.991   1.922   7.155 -1.0743 -0.3224 -0.7687
  595MOL0     C80255   2.097   1.883   7.106  1.1812 -0.8299 -0.7939
  595MOL0     C80256   1.315   1.882   7.033 -1.0702 -0.1917  0.3844
  595MOL0     C80257   1.209   1.815   6.977 -0.8814 -0.1903 -0.0184
  595MOL0     H80258   0.903   1.505   6.734 -0.9873  1.3227 -0.3287
  595MOL0     H80259   0.659   1.414   6.690 -2.7046 -0.4662  4.1032
  595MOL0     H80260   0.517   1.403   6.920 -0.7895 -0.2866  0.4522
  595MOL0     H80261   0.406   1.528   6.983 -0.5166  1.5629 -2.1319
  595MOL0     H80262   0.228   1.434   6.838  1.0083 -0.2413 -2.9009
  595MOL0     H80263   0.340   1.300   6.795 -2.5132 -0.1053 -0.9331
  595MOL0     H80264   0.351   1.229   7.044  0.4351 -1.3355 -3.1943
  595MOL0     H80265   0.253   1.368   7.078  0.1298  1.5117 -0.9273
  595MOL0     H80266   0.140   1.170   6.869  0.5076  1.5185 -1.0326
  595MOL0     H80267   0.124   1.138   7.041  0.1009  0.0081 -1.0660
  595MOL0     H80268   0.000   1.363   7.063  1.1682 -0.0263 -0.4251
  595MOL0     H80269   0.033   1.395   6.889  0.3840 -0.1644 -0.9584
  595MOL0     H80270  -0.094   1.155   6.851  1.6894 -1.2183  1.6441
  595MOL0     H80271  -0.153   1.199   7.015 -3.2336  0.3839 -1.6805
  595MOL0     H80272  -0.165   1.408   6.797  1.7851 -2.3732 -0.3979
  595MOL0     H80273  -0.285   1.280   6.796 -1.4043 -0.4781  0.1657
  595MOL0     H80274  -0.209   1.480   7.012  1.8981 -1.2775 -0.9370
  595MOL0     H80275  -0.301   1.342   7.059  3.0481  1.7189  2.1624
  595MOL0     H80276  -0.346   1.700   6.919  0.6967 -1.3725 -0.9887
  595MOL0     H80277  -0.545   1.853   6.888 -0.3378 -0.0171 -1.5495
  595MOL0     H80278  -0.672   1.778   6.800  0.2108  1.2626 -0.4705
  595MOL0     H80279  -0.662   1.815   7.103  1.1990 -0.2442 -0.4917
  595MOL0     H80280  -0.779   1.712   7.017  0.3509  0.0677  2.6705
  595MOL0     H80281  -0.882   1.873   6.891  0.2361 -1.6609  0.8980
  595MOL0     H80282  -0.776   2.009   6.940 -0.2792  0.7028  1.7425
  595MOL0     H80283  -0.844   2.000   7.166  1.0420 -0.4609 -2.0390
  595MOL0     H80284  -0.928   1.843   7.133  4.2593 -2.0500 -0.8456
  595MOL0     H80285  -1.014   2.004   7.349 -1.7366 -0.0588  1.7906
  595MOL0     H80286  -1.084   2.084   7.553 -1.3166  1.0390 -0.8983
  595MOL0     H80287  -1.251   2.104   7.604 -0.5572 -2.0992  1.5813
  595MOL0     H80288  -1.199   1.948   7.551  1.9818 -0.8246  3.7522
  595MOL0     H80289  -1.706   2.145   7.590 -1.0572  0.7740  1.5267
  595MOL0     H80290  -1.900   2.233   7.651 -0.7646 -2.1787 -1.1625
  595MOL0     H80291  -2.141   2.236   7.556 -0.8824 -0.4738  0.7271
  595MOL0     H80292  -2.113   2.345   7.702 -0.2013 -2.6761 -0.2164
  595MOL0     H80293  -2.258   2.512   7.617  1.9031 -0.0387  0.9953
  595MOL0     H80294  -2.274   2.422   7.468  1.8313  0.6619  0.3501
  595MOL0     H80295  -2.355   2.259   7.712 -1.4845  0.4291  0.4705
  595MOL0     H80296  -2.440   2.265   7.559 -1.8180  0.3326 -0.5195
  595MOL0     H80297  -2.461   2.449   7.794 -0.0262  0.9403 -1.3370
  595MOL0     H80298  -2.495   2.495   7.620 -0.1563 -0.3635 -1.7222
  595MOL0     H80299  -2.623   2.250   7.745  0.8358 -0.1226  0.5452
  595MOL0     H80300  -2.671   2.340   7.601 -0.3608 -0.4313  0.6711
  595MOL0     H80301  -2.672   2.473   7.880 -1.9780  2.9942 -0.5701
  595MOL0     H80302  -2.720   2.537   7.726  2.7489  0.3915  0.1016
  595MOL0     H80303  -2.828   2.284   7.868  1.7801 -0.4932 -0.6115
  595MOL0     H80304  -2.927   2.371   7.745  0.2415  1.5917 -0.8854
  595MOL0     H80305  -2.973   2.550   7.906 -0.1921 -0.1143  0.5498
  595MOL0     H80306  -2.860   2.490   8.027 -1.2072  1.0951  0.2031
  595MOL0     H80307  -1.913   2.481   7.292  0.1808  0.6544 -0.5321
  595MOL0     H80308  -1.684   2.394   7.237 -0.5522  0.1340  0.6558
  595MOL0     H80309  -1.445   2.128   7.133 -0.1504 -1.5749 -1.0131
  595MOL0     H80310  -1.256   2.076   6.993 -1.9557  1.6175 -0.1430
  595MOL0     H80311   0.532   1.790   6.850  2.8334  3.7442 -1.8400
  595MOL0     H80312   0.767   1.842   6.920 -0.2053  1.4618 -2.9717
  595MOL0     H80313   1.208   1.938   6.658 -1.3633 -3.5713  0.1504
  595MOL0     H80314   1.383   2.068   6.750 -0.0872 -1.7699 -1.1647
  595MOL0     H80315   1.466   2.003   7.200 -0.5993 -0.0988 -0.4945
  595MOL0     H80316   1.602   1.898   7.138  1.5329  0.4157  1.4895
  595MOL0     H80317   1.637   2.130   7.278 -3.3975  0.4027 -0.5231
  595MOL0     H80318   1.641   2.201   7.119  1.9066  0.4004  0.3628
  595MOL0     H80319   1.883   2.153   7.150  0.9144 -0.2151  1.7274
  595MOL0     H80320   1.800   2.037   7.030 -1.5499 -0.1358  0.2563
  595MOL0     H80321   1.802   1.862   7.183  0.2113 -0.7160  2.5380
  595MOL0     H80322   1.847   1.962   7.313  1.9709 -0.1794 -0.2829
  595MOL0     H80323   2.190   1.838   7.079  1.8886  0.4669 -0.5702
  595MOL0     H80324   1.350   1.843   7.128  0.5945 -0.0566 -0.1345
  595MOL0     H80325   1.168   1.733   7.034  1.9874 -0.1279  2.3417
  596MOL0     O80326   3.112   0.400   8.442  0.0631  0.0525 -0.3117
  596MOL0     C80327   3.132   0.353   8.553 -0.2879 -0.0884 -0.7552
  596MOL0     O80328   3.064   0.247   8.610 -0.2717  1.2525 -0.7075
  596MOL0     C80329   2.978   0.156   8.548 -0.2867 -1.0022 -0.3589
  596MOL0     C80330   2.879   0.089   8.619 -0.0219 -0.7306  0.4874
  596MOL0     C80331   2.780   0.013   8.556  0.1880  0.3530  0.3505
  596MOL0     C80332   2.803  -0.024   8.422  0.1617  0.3068 -0.1066
  596MOL0     O80333   2.722  -0.111   8.353  0.3908  0.0886  0.5759
  596MOL0     C80334   2.581  -0.108   8.380 -0.1704 -0.6600 -0.5364
  596MOL0     C80335   2.530   0.027   8.334 -1.5276  0.1189 -0.3312
  596MOL0     C80336   2.381   0.053   8.344 -0.0049 -0.3397  0.8072
  596MOL0     C80337   2.348   0.199   8.379 -0.0816 -0.0495  0.2990
  596MOL0     C80338   2.195   0.207   8.414 -0.5320  0.3031 -0.0624
  596MOL0     C80339   2.152   0.360   8.428 -1.2703  0.3449  0.0060
  596MOL0     C80340   2.007   0.378   8.393 -0.1884  0.3588  0.5658
  596MOL0     C80341   1.905   0.318   8.490 -0.0710  0.9299  0.0445
  596MOL0     N80342   1.771   0.338   8.437 -0.4595  0.8260 -0.0191
  596MOL0     C80343   1.708   0.269   8.337 -0.5288 -0.3140  0.2384
  596MOL0     C80344   1.587   0.320   8.331  0.2250 -0.1975 -0.1554
  596MOL0     C80345   1.489   0.262   8.228  0.2166 -0.4154  0.1421
  596MOL0     C80346   1.407   0.147   8.279  0.6616  0.6859 -0.4039
  596MOL0     C80347   1.322   0.164   8.405  0.7669  0.7113 -0.4062
  596MOL0     C80348   1.251   0.299   8.413 -0.2133  0.7776  0.1775
  596MOL0     O80349   1.172   0.320   8.300  0.3361  0.2153 -0.0221
  596MOL0     C80350   1.042   0.270   8.295 -0.5241 -0.3660  0.2600
  596MOL0     C80351   0.971   0.314   8.188 -0.2376 -0.4252 -0.6164
  596MOL0     C80352   0.834   0.273   8.187 -0.4680 -0.3513 -0.2624
  596MOL0     C80353   0.754   0.349   8.079  0.1763 -0.6211  0.3326
  596MOL0     C80354   0.769   0.183   8.281 -0.5874 -0.1605 -0.5452
  596MOL0     C80355   0.631   0.129   8.274 -1.7470 -0.1462 -0.4015
  596MOL0     O80356   0.567   0.145   8.156 -0.2303 -0.2076 -0.4084
  596MOL0     C80357   0.436   0.109   8.166 -0.4592  0.0710 -0.2066
  596MOL0     C80358   0.338   0.209   8.186 -0.0450 -0.8017  0.2849
  596MOL0     C80359   0.206   0.174   8.218  0.2511 -0.1386 -0.0761
  596MOL0     C80360   0.168   0.044   8.234  0.0818 -0.6507  0.1713
  596MOL0     O80361   0.037   0.029   8.277  0.4089  0.8384 -0.0920
  596MOL0     C80362   0.007  -0.098   8.339 -0.1409 -0.8587  0.0466
  596MOL0     C80363  -0.147  -0.105   8.339 -0.6580  0.0536  0.9629
  596MOL0     C80364  -0.205   0.027   8.394 -0.5543  1.0642  0.2984
  596MOL0     C80365  -0.351   0.009   8.443 -0.9932  0.4229 -0.3009
  596MOL0     C80366  -0.433   0.137   8.435 -0.2408 -0.0693  0.0150
  596MOL0     C80367  -0.570   0.123   8.494  1.1851 -0.0688  0.3035
  596MOL0     C80368  -0.656   0.247   8.469  1.2664 -0.7773  0.5441
  596MOL0     C80369  -0.807   0.226   8.510 -0.0009  0.1573 -0.5167
  596MOL0    Cl80370  -0.880   0.391   8.519  0.4748 -0.1129 -0.0831
  596MOL0     C80371   0.261  -0.060   8.195 -0.1962  0.9978  0.7155
  596MOL0     C80372   0.397  -0.026   8.167 -0.2977 -0.1750  0.3909
  596MOL0     O80373   0.582   0.099   8.382  0.0377 -0.6918  0.0417
  596MOL0     C80374   0.862   0.131   8.380 -0.1723  0.6545  0.2554
  596MOL0     C80375   0.997   0.178   8.385 -0.3717 -0.3342  0.7389
  596MOL0     N80376   1.563   0.416   8.423 -0.3001  0.6515 -0.8383
  596MOL0     N80377   1.686   0.432   8.479 -0.2818  0.1710 -0.0252
  596MOL0     C80378   2.911   0.031   8.353  0.3904 -0.5060 -0.1680
  596MOL0     C80379   2.996   0.122   8.418 -0.4172 -0.3118  0.5343
  596MOL0     C80380   3.232   0.426   8.648 -0.4329 -0.0177  0.4232
  596MOL0     C80381   3.219   0.414   8.783 -0.9739 -0.3208  0.0071
  596MOL0     C80382   3.308   0.479   8.872  0.1555 -0.7054 -0.7405
  596MOL0     C80383   3.403   0.575   8.811  0.6412 -0.0891 -0.2610
  596MOL0     O80384   3.475   0.643   8.908 -0.7130 -0.2897  0.9985
  596MOL0     C80385   3.558   0.759   8.877 -0.2148  0.4723 -0.5576
  596MOL0     C80386   3.669   0.766   8.986  0.2425 -0.2139  0.9018
  596MOL0     C80387   3.654   0.889   9.079  0.4346 -0.0513 -0.5235
  596MOL0     C80388   3.775   0.896   9.170 -0.1365  0.0634  0.0833
  596MOL0     C80389   3.878   0.966   9.095 -0.2575 -0.1284  1.3837
  596MOL0     C80390   3.966   1.040   9.043  0.6448  0.7992  0.4653
  596MOL0     C80391   3.410   0.599   8.675 -0.0646  0.0318 -0.4252
  596MOL0     C80392   3.331   0.516   8.596 -0.4581  1.1891  0.0444
  596MOL0     H80393   2.866   0.116   8.723 -1.5714  0.1025  0.1168
  596MOL0     H80394   2.697  -0.021   8.617  0.4702 -2.4740 -0.7419
  596MOL0     H80395   2.529  -0.186   8.324  1.1128 -0.1603 -2.5631
  596MOL0     H80396   2.564  -0.118   8.487 -2.6800  1.7278 -0.6074
  596MOL0     H80397   2.588   0.101   8.390  2.1829 -0.7842 -2.6753
  596MOL0     H80398   2.556   0.034   8.228 -1.5317  1.3389 -0.2701
  596MOL0     H80399   2.332   0.019   8.253 -0.2436 -0.5874  1.0255
  596MOL0     H80400   2.344  -0.007   8.428  0.3196 -0.6670  0.7224
  596MOL0     H80401   2.403   0.234   8.467 -1.8709 -1.1610  1.9461
  596MOL0     H80402   2.370   0.267   8.296 -1.2869 -1.5216 -1.2839
  596MOL0     H80403   2.137   0.157   8.335 -0.0191  1.9240 -1.5233
  596MOL0     H80404   2.175   0.161   8.511 -1.3868  2.8256  1.0246
  596MOL0     H80405   2.173   0.381   8.533  1.3158  0.3778 -0.4430
  596MOL0     H80406   2.219   0.421   8.367  0.3872 -1.1481  0.2293
  596MOL0     H80407   1.992   0.486   8.408  0.5674  0.4341  0.8225
  596MOL0     H80408   1.987   0.342   8.292 -0.2783  1.9878 -0.0241
  596MOL0     H80409   1.913   0.360   8.591  0.6732  1.0146 -0.0429
  596MOL0     H80410   1.938   0.215   8.505  1.4347  1.1357 -1.5034
  596MOL0     H80411   1.743   0.188   8.275  0.3552 -0.8504  1.3826
  596MOL0     H80412   1.421   0.344   8.206 -0.0746 -1.0411 -1.4057
  596MOL0     H80413   1.546   0.218   8.145  2.5372 -0.4585  1.6511
  596MOL0     H80414   1.473   0.064   8.305 -0.1307  0.5768  1.3905
  596MOL0     H80415   1.340   0.102   8.205 -1.1529  1.4801  0.6740
  596MOL0     H80416   1.390   0.161   8.490  0.4200 -0.5563 -0.1560
  596MOL0     H80417   1.251   0.082   8.418  2.0068 -0.4413 -0.7497
  596MOL0     H80418   1.317   0.386   8.411 -0.0541  0.6932 -2.3507
  596MOL0     H80419   1.197   0.313   8.507 -1.3478  2.5566 -0.6778
  596MOL0     H80420   1.019   0.384   8.121 -0.3540  1.4213  1.1538
  596MOL0     H80421   0.662   0.388   8.123  0.2521 -0.0114 -0.0391
  596MOL0     H80422   0.812   0.426   8.027 -0.4803  0.3423  0.9841
  596MOL0     H80423   0.728   0.277   8.001  1.2765 -1.3212  0.5903
  596MOL0     H80424   0.377   0.308   8.165  0.7677 -1.1339  0.1990
  596MOL0     H80425   0.141   0.260   8.227  0.6967  0.2509 -0.5090
  596MOL0     H80426   0.031  -0.189   8.282  2.6952 -0.7104  0.8677
  596MOL0     H80427   0.054  -0.116   8.436 -2.1202 -0.3657  1.1474
  596MOL0     H80428  -0.174  -0.120   8.234  2.5647 -0.0966  0.0508
  596MOL0     H80429  -0.187  -0.192   8.392  2.0209 -2.0679 -0.3010
  596MOL0     H80430  -0.204   0.112   8.326  1.0270  0.8540  0.0379
  596MOL0     H80431  -0.138   0.049   8.477 -1.5695 -1.4020  1.8810
  596MOL0     H80432  -0.402  -0.072   8.390  0.0432 -1.1880  1.0523
  596MOL0     H80433  -0.338  -0.015   8.549  0.4115  2.9462  0.1623
  596MOL0     H80434  -0.435   0.179   8.334  0.4352  1.1502  0.4901
  596MOL0     H80435  -0.384   0.215   8.493 -1.2151  1.1009 -0.6891
  596MOL0     H80436  -0.613   0.033   8.450  0.8738  0.7679 -1.1811
  596MOL0     H80437  -0.562   0.103   8.602 -0.8274 -0.4486  0.4134
  596MOL0     H80438  -0.657   0.282   8.365 -2.2127 -0.7683  0.4568
  596MOL0     H80439  -0.628   0.331   8.533 -2.8798 -0.0047  1.6464
  596MOL0     H80440  -0.812   0.167   8.602 -0.4918  2.2638  0.8856
  596MOL0     H80441  -0.869   0.177   8.434  2.4127  0.6301 -2.9640
  596MOL0     H80442   0.227  -0.164   8.195  0.7849  0.6564  1.4731
  596MOL0     H80443   0.475  -0.099   8.149  1.2377  1.8602 -1.6767
  596MOL0     H80444   0.829   0.062   8.457  0.3752  0.9971  0.8011
  596MOL0     H80445   1.052   0.142   8.471 -0.3819 -2.7991 -0.2276
  596MOL0     H80446   2.938   0.006   8.251 -0.6488  0.5884 -0.7384
  596MOL0     H80447   3.082   0.161   8.365  0.2658 -2.3192  0.0451
  596MOL0     H80448   3.145   0.340   8.812 -2.1495 -0.6410 -3.3426
  596MOL0     H80449   3.299   0.473   8.980  0.5739  2.0017 -0.4761
  596MOL0     H80450   3.604   0.761   8.778 -1.7510  1.8252 -1.3088
  596MOL0     H80451   3.502   0.854   8.877  4.0161  3.2974 -3.1806
  596MOL0     H80452   3.760   0.778   8.926 -0.8307 -0.1616 -0.7945
  596MOL0     H80453   3.675   0.669   9.036 -2.2952 -1.1486 -0.4353
  596MOL0     H80454   3.556   0.883   9.127 -0.1528 -2.8711 -1.8211
  596MOL0     H80455   3.657   0.983   9.024 -1.7933 -0.5242 -1.5759
  596MOL0     H80456   3.807   0.802   9.216 -3.6204 -1.4891 -0.3771
  596MOL0     H80457   3.745   0.963   9.252  1.4936 -0.8690  1.5250
  596MOL0     H80458   4.050   1.096   9.006 -0.5035  2.5732  0.4426
  596MOL0     H80459   3.478   0.669   8.628 -0.0204 -1.3861 -2.6277
  596MOL0     H80460   3.331   0.525   8.487  0.0419  0.5572 -0.0117
  597MOL0     O80461   4.148   1.468   7.373 -0.4236  0.5079  0.4623
  597MOL0     C80462   4.184   1.482   7.494  0.8182 -0.2082 -0.5238
  597MOL0     O80463   4.097   1.493   7.600  0.3078 -0.3113 -0.3024
  597MOL0     C80464   3.962   1.519   7.570 -0.3462 -0.2737 -0.1337
  597MOL0     C80465   3.871   1.470   7.655 -0.2295 -0.9991 -0.2077
  597MOL0     C80466   3.743   1.509   7.649 -0.3206 -0.8810  0.2074
  597MOL0     C80467   3.696   1.607   7.558  0.0408  1.0532  0.4906
  597MOL0     O80468   3.567   1.656   7.569  0.7420 -0.5134  0.3880
  597MOL0     C80469   3.534   1.785   7.504  0.6127  1.0489 -0.7517
  597MOL0     C80470   3.417   1.846   7.579 -0.7077  0.9771  0.3243
  597MOL0     C80471   3.276   1.788   7.544  0.2357  0.5533 -0.2467
  597MOL0     C80472   3.207   1.825   7.413 -0.0400  1.0568  0.3371
  597MOL0     C80473   3.049   1.786   7.410  0.6292 -0.0392 -0.0666
  597MOL0     C80474   3.004   1.773   7.262 -0.0415 -0.4436 -0.3609
  597MOL0     C80475   2.851   1.751   7.269 -0.4158 -0.2508 -0.3194
  597MOL0     C80476   2.793   1.721   7.126 -0.1180  0.6490 -0.7219
  597MOL0     N80477   2.644   1.701   7.129  0.1967  0.2785  0.2431
  597MOL0     C80478   2.586   1.586   7.189 -0.3219 -0.3275 -0.7669
  597MOL0     C80479   2.457   1.590   7.156 -0.5313  0.4449  0.0710
  597MOL0     C80480   2.357   1.477   7.193  0.1331  0.5082  0.0345
  597MOL0     C80481   2.230   1.540   7.248 -0.0452 -0.9226  0.2172
  597MOL0     C80482   2.235   1.597   7.384 -1.5603 -0.3909 -0.6339
  597MOL0     C80483   2.105   1.658   7.430 -0.0090 -0.0630 -0.7576
  597MOL0     O80484   1.989   1.579   7.459 -0.3906 -0.1764  0.9562
  597MOL0     C80485   1.866   1.635   7.475 -0.1105 -0.4847  0.0302
  597MOL0     C80486   1.840   1.768   7.513  0.1955 -0.3480 -0.4152
  597MOL0     C80487   1.720   1.833   7.525  0.5669 -0.0800  1.3322
  597MOL0     C80488   1.715   1.978   7.576  0.4745 -0.4007 -0.2682
  597MOL0     C80489   1.601   1.764   7.487 -0.1834  0.2600  0.0024
  597MOL0     C80490   1.461   1.814   7.471 -0.3543  0.4081  0.2394
  597MOL0     O80491   1.365   1.718   7.456  0.8947  0.0983  0.7415
  597MOL0     C80492   1.233   1.759   7.431 -0.0418 -1.2967 -1.1311
  597MOL0     C80493   1.173   1.708   7.325  0.0573  0.5896  0.3534
  597MOL0     C80494   1.039   1.727   7.293 -0.4254 -0.2625  0.0646
  597MOL0     C80495   0.966   1.818   7.364 -0.1725  0.9048 -0.3155
  597MOL0     O80496   0.837   1.845   7.313  0.0137 -0.3643 -0.0279
  597MOL0     C80497   0.774   1.971   7.347  0.6999 -0.0055 -0.2049
  597MOL0     C80498   0.666   2.005   7.249 -0.2264  0.3481  0.1918
  597MOL0     C80499   0.611   2.146   7.250  0.3614  0.1295 -1.0796
  597MOL0     C80500   0.520   2.164   7.126  0.8160  0.1594 -0.2513
  597MOL0     C80501   0.449   2.292   7.133  0.4084  0.1091  0.2215
  597MOL0     C80502   0.341   2.292   7.023  0.3210 -0.4492  0.4711
  597MOL0     C80503   0.267   2.434   7.035  0.7927 -0.3734 -0.4534
  597MOL0     C80504   0.150   2.421   7.138  0.1763  0.0150 -0.5150
  597MOL0    Cl80505   0.027   2.327   7.049  0.1431  0.0309  0.4734
  597MOL0     C80506   1.020   1.871   7.481 -0.3752 -0.2552  0.2715
  597MOL0     C80507   1.151   1.837   7.520 -1.1288  0.3909  0.6674
  597MOL0     O80508   1.445   1.934   7.458  0.5611 -0.4321 -0.1913
  597MOL0     C80509   1.619   1.625   7.450 -0.7031 -0.2040  0.1524
  597MOL0     C80510   1.744   1.562   7.446 -0.5268  0.1806  0.1341
  597MOL0     N80511   2.436   1.700   7.071 -0.1165 -0.0318 -0.1520
  597MOL0     N80512   2.549   1.763   7.054 -0.2337  0.0280  0.4620
  597MOL0     C80513   3.788   1.652   7.458  0.5521 -0.5171  0.3571
  597MOL0     C80514   3.915   1.602   7.460 -0.0516 -1.2472  0.4473
  597MOL0     C80515   4.322   1.481   7.541 -0.2803 -0.8943 -0.1434
  597MOL0     C80516   4.421   1.497   7.447  0.3712  0.2243 -0.7474
  597MOL0     C80517   4.553   1.502   7.489 -0.0207  0.3715  0.0866
  597MOL0     C80518   4.601   1.496   7.619  0.3504  0.7507 -0.5782
  597MOL0     O80519   4.734   1.488   7.638 -0.8312  0.4696 -0.6803
  597MOL0     C80520   4.774   1.443   7.771  0.3667 -0.0768 -0.0977
  597MOL0     C80521   4.923   1.448   7.809  0.0205  0.3072 -0.3361
  597MOL0     C80522   5.005   1.556   7.740 -0.2179 -0.5271 -0.2605
  597MOL0     C80523   5.159   1.556   7.763  0.3899  0.1701 -0.3376
  597MOL0     C80524   5.231   1.435   7.707 -0.9049  0.0578 -0.1748
  597MOL0     C80525   5.277   1.326   7.680  0.2373  1.0911 -1.0332
  597MOL0     C80526   4.495   1.471   7.711  0.1005 -0.4791 -0.3741
  597MOL0     C80527   4.361   1.460   7.674  0.0175  0.7106 -0.2986
  597MOL0     H80528   3.896   1.392   7.726  0.4881 -1.1392 -0.6078
  597MOL0     H80529   3.688   1.471   7.734  2.8127 -1.1216  2.2970
  597MOL0     H80530   3.617   1.853   7.525  3.7439 -2.8062  0.6320
  597MOL0     H80531   3.503   1.777   7.400  0.3937 -2.6350 -0.5139
  597MOL0     H80532   3.436   1.821   7.684 -3.6028 -2.6267  0.1960
  597MOL0     H80533   3.404   1.952   7.556 -1.5095  0.7486 -0.3477
  597MOL0     H80534   3.284   1.679   7.547  0.1159  0.4814 -1.8381
  597MOL0     H80535   3.207   1.829   7.619 -0.7766 -1.2715 -0.1056
  597MOL0     H80536   3.217   1.934   7.408  2.2356  1.0450  2.6641
  597MOL0     H80537   3.260   1.781   7.328 -0.4061  0.3741  0.4522
  597MOL0     H80538   3.042   1.694   7.469  2.3091 -0.2810 -0.1966
  597MOL0     H80539   2.991   1.865   7.457  0.3374 -0.0808 -0.3521
  597MOL0     H80540   3.035   1.867   7.214  2.2599 -0.9851 -0.0221
  597MOL0     H80541   3.054   1.691   7.211  1.1777 -1.5976  2.5045
  597MOL0     H80542   2.839   1.667   7.338  1.2434 -0.2882 -0.0398
  597MOL0     H80543   2.806   1.845   7.303  1.1857  0.6356 -0.5395
  597MOL0     H80544   2.850   1.634   7.094 -0.9565  0.5980 -2.1486
  597MOL0     H80545   2.810   1.794   7.046  0.9839 -0.2280 -1.3108
  597MOL0     H80546   2.638   1.513   7.250 -0.7237  0.1540  0.1807
  597MOL0     H80547   2.334   1.419   7.103 -0.6753  2.3831 -1.0245
  597MOL0     H80548   2.397   1.421   7.279 -2.3553 -0.1822  0.8243
  597MOL0     H80549   2.154   1.461   7.258  0.7064 -1.8934 -1.3339
  597MOL0     H80550   2.197   1.618   7.180 -3.8738 -1.2994  1.3542
  597MOL0     H80551   2.308   1.678   7.384 -1.1583 -0.7474 -1.5606
  597MOL0     H80552   2.274   1.518   7.448  0.2747 -1.3826 -2.8450
  597MOL0     H80553   2.069   1.734   7.360 -0.2738 -0.0880 -0.6508
  597MOL0     H80554   2.122   1.708   7.526  0.1692 -0.1501 -0.7429
  597MOL0     H80555   1.929   1.828   7.527  0.3998 -0.7004 -0.1972
  597MOL0     H80556   1.628   1.991   7.641  1.4569  0.3105  0.9474
  597MOL0     H80557   1.801   2.002   7.638  0.9320  2.1749 -1.7429
  597MOL0     H80558   1.708   2.051   7.495 -1.1607 -0.9029 -0.6279
  597MOL0     H80559   1.248   1.659   7.263  1.4295 -0.6757  2.8643
  597MOL0     H80560   0.988   1.692   7.203 -1.4657  1.8546 -0.2369
  597MOL0     H80561   0.725   1.965   7.445  1.5849 -1.7346  0.1813
  597MOL0     H80562   0.858   2.041   7.345  0.9279 -0.1072  2.1839
  597MOL0     H80563   0.711   1.985   7.152 -0.0880 -0.7831  0.4743
  597MOL0     H80564   0.581   1.939   7.267 -1.0245  1.5961  1.2723
  597MOL0     H80565   0.690   2.221   7.260  0.6262 -0.2957  0.1623
  597MOL0     H80566   0.557   2.148   7.345  1.9157  0.6937 -0.1786
  597MOL0     H80567   0.586   2.167   7.039 -2.6335 -0.2054 -3.0676
  597MOL0     H80568   0.464   2.071   7.117  4.5910 -2.1978 -2.0942
  597MOL0     H80569   0.519   2.372   7.109 -0.7571  0.7026 -1.3810
  597MOL0     H80570   0.414   2.303   7.237  0.5070  0.3849  0.2251
  597MOL0     H80571   0.377   2.288   6.920 -3.4826 -0.9587 -1.0003
  597MOL0     H80572   0.278   2.204   7.035 -0.6834  0.2304  0.3284
  597MOL0     H80573   0.207   2.453   6.945 -0.0054  0.3077  0.2112
  597MOL0     H80574   0.329   2.522   7.056  0.8336 -0.5929  0.3793
  597MOL0     H80575   0.108   2.520   7.157  0.9370  0.0653  0.9948
  597MOL0     H80576   0.184   2.377   7.232 -0.5160  3.2348  1.3896
  597MOL0     H80577   0.972   1.952   7.536  2.1950  2.1765 -0.8678
  597MOL0     H80578   1.181   1.879   7.615 -0.3211  1.8057 -0.1771
  597MOL0     H80579   1.536   1.559   7.427 -0.2999 -0.0454 -1.9197
  597MOL0     H80580   1.750   1.458   7.415 -0.8508  0.5824 -1.3908
  597MOL0     H80581   3.759   1.711   7.372 -1.1372 -2.7116 -0.6857
  597MOL0     H80582   3.982   1.641   7.384  1.8260 -1.5702  1.8493
  597MOL0     H80583   4.391   1.495   7.343  0.3903 -5.4130 -0.9598
  597MOL0     H80584   4.634   1.504   7.416  0.3442  2.9824  0.4801
  597MOL0     H80585   4.731   1.517   7.839  0.3756  0.0945 -0.2777
  597MOL0     H80586   4.728   1.345   7.786  0.5934 -0.4897 -1.8897
  597MOL0     H80587   4.972   1.355   7.781 -0.1104  0.4315 -0.9853
  597MOL0     H80588   4.939   1.469   7.915 -0.6661  0.2941 -0.2306
  597MOL0     H80589   4.968   1.655   7.769 -1.5311 -1.2225  0.5387
  597MOL0     H80590   4.989   1.549   7.632 -2.4892 -1.2563  0.0796
  597MOL0     H80591   5.182   1.553   7.870  1.2441  1.4690 -0.4492
  597MOL0     H80592   5.199   1.650   7.723 -0.5632  0.0220 -1.7229
  597MOL0     H80593   5.314   1.227   7.660 -2.3149 -0.2263  0.2421
  597MOL0     H80594   4.509   1.449   7.816 -1.3729 -2.5942 -0.5547
  597MOL0     H80595   4.284   1.442   7.749  2.4764  0.8609  2.4007
  598MOL0     O80596   5.158   9.304   7.464  0.0705  0.2382  0.3418
  598MOL0     C80597   5.240   9.211   7.473 -0.3352 -0.2535 -0.5142
  598MOL0     O80598   5.232   9.086   7.412 -0.5285  0.1541 -0.0607
  598MOL0     C80599   5.124   9.069   7.332  0.8173  0.6942  0.1826
  598MOL0     C80600   5.125   9.068   7.196 -0.3597 -0.2691 -0.2135
  598MOL0     C80601   5.008   9.058   7.130 -0.4052 -0.2418  0.5772
  598MOL0     C80602   4.893   9.020   7.200  0.5474  0.7438  0.5938
  598MOL0     O80603   4.779   8.987   7.131  0.4669 -0.9660 -0.5772
  598MOL0     C80604   4.702   9.094   7.065  0.4341  0.4915 -0.4248
  598MOL0     C80605   4.582   9.104   7.153  0.4799  0.3110  0.7920
  598MOL0     C80606   4.491   8.978   7.141 -0.1544  0.3190 -0.9594
  598MOL0     C80607   4.383   9.003   7.040  0.3019  0.2060  0.5241
  598MOL0     C80608   4.295   8.884   7.023 -0.0380 -0.3463  0.4481
  598MOL0     C80609   4.171   8.918   6.933 -0.9578 -0.4771  0.7941
  598MOL0     C80610   4.089   8.800   6.908 -0.9340  0.9670 -0.6984
  598MOL0     C80611   3.969   8.831   6.813  0.9505 -0.1175 -0.2515
  598MOL0     N80612   3.896   8.703   6.789 -0.1228 -0.5175  0.1005
  598MOL0     C80613   3.955   8.586   6.745 -0.2910  0.4765 -0.3410
  598MOL0     C80614   3.844   8.504   6.716  0.5617 -0.6872  1.1122
  598MOL0     C80615   3.851   8.369   6.654  0.1387  0.0594  0.2442
  598MOL0     C80616   3.843   8.378   6.498 -0.5315  0.2169  0.6251
  598MOL0     C80617   3.715   8.436   6.436 -0.0428  0.2693 -0.3155
  598MOL0     C80618   3.582   8.362   6.486 -0.0958 -0.5677 -0.0651
  598MOL0     O80619   3.550   8.400   6.622 -0.3817  0.1793  0.2057
  598MOL0     C80620   3.435   8.350   6.672  0.7406  0.6858  0.0635
  598MOL0     C80621   3.386   8.405   6.788  0.5393  0.4811  0.3727
  598MOL0     C80622   3.268   8.358   6.853  0.8148  0.5025  0.2735
  598MOL0     C80623   3.234   8.422   6.982  0.3329  0.8977 -0.5652
  598MOL0     C80624   3.193   8.248   6.802 -0.4240 -0.0030 -0.2653
  598MOL0     C80625   3.080   8.187   6.868  0.6289  0.6925 -0.3870
  598MOL0     O80626   3.045   8.072   6.817 -0.5282  0.7366 -0.2082
  598MOL0     C80627   2.929   8.014   6.834  0.0323  0.0621  1.1056
  598MOL0     C80628   2.807   8.075   6.847 -0.3081 -0.0608 -0.0361
  598MOL0     C80629   2.693   7.995   6.833 -0.1016 -0.1715 -0.8947
  598MOL0     C80630   2.697   7.855   6.805  0.9524 -0.1375 -0.4851
  598MOL0     O80631   2.582   7.787   6.797 -0.0848  0.1472  0.5821
  598MOL0     C80632   2.571   7.648   6.820 -0.8272  0.4914  0.1163
  598MOL0     C80633   2.557   7.625   6.968 -0.5449 -0.3470 -0.9707
  598MOL0     C80634   2.463   7.504   6.977  0.3272  0.0424 -0.0914
  598MOL0     C80635   2.433   7.469   7.118 -0.0873  0.2781  0.6982
  598MOL0     C80636   2.326   7.354   7.112  0.9055  0.6217  0.2785
  598MOL0     C80637   2.295   7.297   7.249 -0.5318 -1.1452  0.0589
  598MOL0     C80638   2.181   7.203   7.249 -0.1568 -0.1612  1.1371
  598MOL0     C80639   2.138   7.168   7.389 -0.6346  0.2229 -0.0990
  598MOL0    Cl80640   2.031   7.297   7.468 -0.3737 -0.1431 -0.2269
  598MOL0     C80641   2.821   7.795   6.791 -0.9540  0.4214  0.2648
  598MOL0     C80642   2.938   7.875   6.808 -0.1773 -0.9364 -0.3200
  598MOL0     O80643   3.023   8.234   6.966 -0.4901  0.4972  0.5485
  598MOL0     C80644   3.245   8.188   6.681  0.2839  0.0686 -0.1503
  598MOL0     C80645   3.363   8.237   6.615  0.4719  0.6125  0.2082
  598MOL0     N80646   3.724   8.578   6.731 -1.0598 -0.7435 -0.1199
  598MOL0     N80647   3.757   8.692   6.771 -0.4779  0.2683 -0.7584
  598MOL0     C80648   4.887   9.020   7.337 -0.2059 -0.0475 -0.3608
  598MOL0     C80649   5.004   9.050   7.404  1.0533 -0.1016 -0.1361
  598MOL0     C80650   5.350   9.225   7.570 -0.1700 -0.8193 -0.4939
  598MOL0     C80651   5.451   9.128   7.584  0.0344  0.6118 -0.3448
  598MOL0     C80652   5.566   9.160   7.661  0.2589  0.4164 -0.2987
  598MOL0     C80653   5.600   9.284   7.712  0.0173 -0.5562  0.1830
  598MOL0     O80654   5.715   9.291   7.788 -0.1576 -0.5897  0.0270
  598MOL0     C80655   5.794   9.405   7.767 -0.6844 -0.3573  0.8198
  598MOL0     C80656   5.941   9.378   7.778 -0.6451  0.6323 -0.1463
  598MOL0     C80657   5.990   9.298   7.653 -0.4144 -0.2337 -0.0079
  598MOL0     C80658   6.138   9.255   7.670  0.2157 -0.5219 -1.0782
  598MOL0     C80659   6.165   9.186   7.796 -0.6170 -0.7019 -0.2740
  598MOL0     C80660   6.205   9.134   7.895 -0.2978  0.2418 -0.1573
  598MOL0     C80661   5.500   9.376   7.705  0.2959 -0.1076  0.0650
  598MOL0     C80662   5.377   9.352   7.630 -0.5786  0.1189  0.2034
  598MOL0     H80663   5.213   9.081   7.134  0.0046 -0.2542  0.3013
  598MOL0     H80664   5.010   9.065   7.022 -0.5351  4.4814  0.6505
  598MOL0     H80665   4.752   9.192   7.059 -1.4284  1.4559 -0.8938
  598MOL0     H80666   4.677   9.072   6.961  0.2390  1.5868 -0.6218
  598MOL0     H80667   4.611   9.120   7.257 -0.4852  1.0828  0.9589
  598MOL0     H80668   4.528   9.190   7.111 -2.0333 -1.8657 -0.7387
  598MOL0     H80669   4.543   8.883   7.128 -1.0526 -0.0862 -1.7143
  598MOL0     H80670   4.424   8.980   7.227 -0.5441 -0.2460 -1.2477
  598MOL0     H80671   4.319   9.084   7.075  0.8570  0.6137  0.6152
  598MOL0     H80672   4.432   9.032   6.946  0.4616  0.3835  0.6592
  598MOL0     H80673   4.350   8.806   6.970  0.1765  0.2679 -0.2476
  598MOL0     H80674   4.259   8.842   7.118  0.4011 -0.6955  0.4650
  598MOL0     H80675   4.104   8.987   6.985 -1.5560  0.1399 -0.7513
  598MOL0     H80676   4.210   8.962   6.841 -0.9617  0.0193  1.0311
  598MOL0     H80677   4.154   8.725   6.862 -2.3094 -0.6796 -0.0927
  598MOL0     H80678   4.049   8.761   7.002 -0.3078  3.0924  0.5217
  598MOL0     H80679   3.994   8.877   6.717 -0.2262 -1.3910 -1.2153
  598MOL0     H80680   3.898   8.900   6.861 -1.8311 -3.6150  1.1339
  598MOL0     H80681   4.057   8.552   6.752 -0.3290  0.1124 -1.4072
  598MOL0     H80682   3.948   8.325   6.680 -0.2646  0.5522  2.8570
  598MOL0     H80683   3.776   8.302   6.698 -1.3576  1.7659  0.3909
  598MOL0     H80684   3.861   8.284   6.446  1.3331  2.2018 -2.6991
  598MOL0     H80685   3.929   8.436   6.461 -1.6911  1.7694  0.2473
  598MOL0     H80686   3.713   8.415   6.329 -1.3265 -1.2856 -0.0292
  598MOL0     H80687   3.697   8.543   6.440 -2.2922 -0.0187 -1.5836
  598MOL0     H80688   3.589   8.255   6.465  0.4428  0.0904 -4.0258
  598MOL0     H80689   3.495   8.403   6.433  0.6867  0.2103 -0.7754
  598MOL0     H80690   3.441   8.485   6.836 -0.1840  0.1272  1.8295
  598MOL0     H80691   3.135   8.466   6.968 -0.2283  0.3557  1.4041
  598MOL0     H80692   3.230   8.337   7.051 -0.4864  1.0371 -0.4371
  598MOL0     H80693   3.311   8.490   7.020  0.3359  0.6235 -0.0674
  598MOL0     H80694   2.795   8.180   6.872  1.4025 -0.3317  2.1639
  598MOL0     H80695   2.596   8.035   6.860  0.2487 -1.5374  3.0472
  598MOL0     H80696   2.492   7.613   6.753  2.0086  1.1022 -3.8827
  598MOL0     H80697   2.650   7.582   6.782 -2.0579 -1.2710  0.4763
  598MOL0     H80698   2.657   7.604   7.007 -1.4301 -2.1682  0.4509
  598MOL0     H80699   2.507   7.708   7.020  2.2549  1.4193 -0.8853
  598MOL0     H80700   2.507   7.416   6.929  0.5884 -1.0985  2.1152
  598MOL0     H80701   2.365   7.532   6.939  0.6187  1.9377  0.4514
  598MOL0     H80702   2.527   7.449   7.170  1.0311 -0.2942 -1.4217
  598MOL0     H80703   2.391   7.547   7.182  0.5625  0.4219  0.9621
  598MOL0     H80704   2.361   7.284   7.035 -1.0079  0.3629 -0.4306
  598MOL0     H80705   2.232   7.400   7.080 -1.1688 -1.1778  3.2576
  598MOL0     H80706   2.388   7.243   7.269  0.3423 -0.1601 -1.1756
  598MOL0     H80707   2.274   7.376   7.322  0.0782 -0.2491 -0.6982
  598MOL0     H80708   2.222   7.109   7.210 -0.8446  0.2837 -0.7540
  598MOL0     H80709   2.097   7.244   7.193  0.9993  1.6508  0.6248
  598MOL0     H80710   2.217   7.142   7.460 -1.1073 -1.1828 -0.0486
  598MOL0     H80711   2.076   7.078   7.392 -2.1363  1.1829 -0.6285
  598MOL0     H80712   2.823   7.692   6.759 -0.3602  0.3260  0.5922
  598MOL0     H80713   3.033   7.824   6.791 -0.5712 -1.8716  0.1925
  598MOL0     H80714   3.206   8.099   6.632 -1.1844  0.0810  0.9446
  598MOL0     H80715   3.387   8.179   6.527  3.8457 -0.2238  1.5062
  598MOL0     H80716   4.790   9.010   7.385  2.6064 -0.7875  6.0682
  598MOL0     H80717   4.999   9.049   7.512 -0.9288  0.8986 -0.1688
  598MOL0     H80718   5.458   9.038   7.523  2.5522  0.5283 -0.0365
  598MOL0     H80719   5.639   9.080   7.669 -0.9046 -0.6035  0.4753
  598MOL0     H80720   5.774   9.443   7.666 -1.0365 -0.0907  0.9876
  598MOL0     H80721   5.768   9.491   7.830  0.0026  0.2689  0.2751
  598MOL0     H80722   5.962   9.308   7.860  1.1068  1.9228  0.5710
  598MOL0     H80723   5.999   9.471   7.784  2.4187 -1.2258  4.3071
  598MOL0     H80724   5.975   9.359   7.563 -0.7873  0.3309  0.4328
  598MOL0     H80725   5.943   9.200   7.638  3.1031 -1.7267 -3.2392
  598MOL0     H80726   6.202   9.344   7.676  0.8317 -0.9532 -1.1319
  598MOL0     H80727   6.175   9.202   7.582 -0.6469 -0.1626 -1.6668
  598MOL0     H80728   6.255   9.101   7.984  0.9425 -2.2127 -1.6544
  598MOL0     H80729   5.508   9.472   7.755  0.3814 -0.3733  0.5778
  598MOL0     H80730   5.306   9.434   7.631 -1.0343 -0.2659  1.2954
  599MOL0     O80731   9.547   9.726  10.011 -0.6801 -0.7035  0.2295
  599MOL0     C80732   9.629   9.665  10.080  0.3121 -0.0651  0.1000
  599MOL0     O80733   9.606   9.544  10.136  0.9809 -0.1612  0.5476
  599MOL0     C80734   9.475   9.494  10.153 -0.4185 -0.5905  0.3265
  599MOL0     C80735   9.451   9.362  10.121  1.0482  0.5503 -0.2617
  599MOL0     C80736   9.328   9.302  10.151  0.3301  0.7939 -0.3544
  599MOL0     C80737   9.223   9.386  10.209 -0.6709  1.2556 -0.0002
  599MOL0     O80738   9.108   9.322  10.239  0.6232  0.6376  0.6766
  599MOL0     C80739   9.006   9.389  10.317  0.3536 -0.8468  0.4818
  599MOL0     C80740   8.931   9.283  10.385  0.2904  0.6956  0.3047
  599MOL0     C80741   8.803   9.319  10.442  0.4412  0.3393  0.3373
  599MOL0     C80742   8.819   9.404  10.582 -0.4418  0.6359  0.1749
  599MOL0     C80743   8.696   9.449  10.648 -0.2728  0.1881 -0.7256
  599MOL0     C80744   8.601   9.332  10.688 -0.3916  0.0603 -0.0504
  599MOL0     C80745   8.470   9.390  10.747 -0.5298  0.0990 -0.0987
  599MOL0     C80746   8.379   9.287  10.816  0.7003  0.6534 -0.0071
  599MOL0     N80747   8.252   9.352  10.853  0.1505 -0.5284 -0.5281
  599MOL0     C80748   8.242   9.479  10.913  0.5747  0.7372  0.5069
  599MOL0     C80749   8.108   9.506  10.904 -0.9551 -0.4455 -0.1550
  599MOL0     C80750   8.045   9.627  10.968  0.7766 -0.2939 -0.9024
  599MOL0     C80751   7.926   9.590  11.059  0.0806 -0.6835  0.9700
  599MOL0     C80752   7.878   9.706  11.149  0.2099  0.6804 -0.1477
  599MOL0     C80753   7.746   9.667  11.205 -0.0707 -0.0112 -0.3879
  599MOL0     O80754   7.714   9.758  11.304 -0.4296  0.0497 -0.3234
  599MOL0     C80755   7.592   9.824  11.293 -0.4049 -0.0172  0.6805
  599MOL0     C80756   7.467   9.759  11.264  0.2855 -0.6407  0.3860
  599MOL0     C80757   7.344   9.836  11.258  0.3720 -0.3867  0.5144
  599MOL0     C80758   7.214   9.763  11.222  0.4365  1.1658 -0.9610
  599MOL0     C80759   7.356   9.979  11.285  0.0187 -0.2603  0.9519
  599MOL0     C80760   7.245  10.072  11.283  0.1357 -1.2865 -0.6457
  599MOL0     O80761   7.266  10.197  11.337 -0.5343 -0.3679  0.1933
  599MOL0     C80762   7.164  10.285  11.370 -0.4298  0.8809 -0.6996
  599MOL0     C80763   7.031  10.255  11.376  0.6923  0.0873 -0.4768
  599MOL0     C80764   6.939  10.345  11.419 -0.6771  0.4423 -0.0200
  599MOL0     C80765   6.980  10.466  11.464 -0.2448 -0.3627 -0.4315
  599MOL0     O80766   6.898  10.550  11.532  0.1222  0.0736  0.0886
  599MOL0     C80767   6.766  10.560  11.490 -0.4128 -0.4148  0.2624
  599MOL0     C80768   6.708  10.696  11.529  0.7469  0.4020 -0.2144
  599MOL0     C80769   6.588  10.738  11.437  0.3010  0.1960 -0.6615
  599MOL0     C80770   6.546  10.875  11.451 -0.0686  0.4656 -0.3808
  599MOL0     C80771   6.390  10.888  11.457  0.3731  0.1236 -1.1391
  599MOL0     C80772   6.312  10.830  11.340  0.2045 -0.0696 -0.6659
  599MOL0     C80773   6.168  10.892  11.339  1.0113  0.2470 -0.0576
  599MOL0     C80774   6.063  10.861  11.238  0.1537  0.6686  1.3304
  599MOL0    Cl80775   6.030  10.684  11.243 -0.0221 -0.0532 -0.2874
  599MOL0     C80776   7.117  10.502  11.457  0.4221  0.5534 -0.0204
  599MOL0     C80777   7.206  10.411  11.404  0.1133 -0.0906 -0.4714
  599MOL0     O80778   7.159  10.045  11.207  1.1176 -0.3825  0.1654
  599MOL0     C80779   7.483  10.035  11.309 -0.7645 -0.5859  0.5364
  599MOL0     C80780   7.594   9.958  11.327 -0.3596  0.6755  0.3471
  599MOL0     N80781   8.047   9.400  10.846 -0.0317 -0.0439  0.9726
  599MOL0     N80782   8.133   9.310  10.811 -0.4060  0.6252 -0.0363
  599MOL0     C80783   9.249   9.518  10.235 -0.7526  0.2872  0.3436
  599MOL0     C80784   9.377   9.566  10.207  0.2694 -0.5442 -0.7301
  599MOL0     C80785   9.768   9.722  10.091  0.3354  0.3905  0.7241
  599MOL0     C80786   9.808   9.851  10.047  0.1225 -0.3092  0.7189
  599MOL0     C80787   9.931   9.910  10.069 -0.0300 -1.0499 -0.6180
  599MOL0     C80788  10.033   9.824  10.118  1.3326 -0.5572  0.1247
  599MOL0     O80789  10.164   9.851  10.138 -0.5137 -0.7247 -0.3027
  599MOL0     C80790  10.213   9.977  10.106 -0.3159 -0.2955 -0.2998
  599MOL0     C80791  10.366   9.968  10.083  0.0605  0.2420 -0.1131
  599MOL0     C80792  10.449  10.094  10.102  0.7183 -0.8368  0.1470
  599MOL0     C80793  10.599  10.071  10.099  0.0866  0.0368 -0.0494
  599MOL0     C80794  10.671  10.199  10.127  0.1272 -0.1247  0.0088
  599MOL0     C80795  10.729  10.298  10.143 -0.0710  0.0355 -0.0866
  599MOL0     C80796   9.999   9.690  10.150  0.0385  0.1989 -0.4971
  599MOL0     C80797   9.872   9.641  10.133  0.4027  0.2159 -0.1377
  599MOL0     H80798   9.528   9.305  10.070 -1.7118 -0.6926 -3.4263
  599MOL0     H80799   9.309   9.201  10.117  0.9475  1.0557 -1.5124
  599MOL0     H80800   9.055   9.451  10.393 -1.2694  0.7930  0.2691
  599MOL0     H80801   8.953   9.460  10.253  0.8130 -1.6133 -0.7821
  599MOL0     H80802   8.911   9.205  10.311 -1.5358  2.5103 -1.2565
  599MOL0     H80803   8.983   9.236  10.468 -0.9750  2.1981  2.0177
  599MOL0     H80804   8.742   9.374  10.370 -1.9468 -1.4289  0.8816
  599MOL0     H80805   8.745   9.228  10.459  1.8890 -0.5651  0.5857
  599MOL0     H80806   8.869   9.334  10.649 -0.3683  0.4513 -0.0720
  599MOL0     H80807   8.877   9.494  10.562 -2.1155  1.4303 -1.4200
  599MOL0     H80808   8.724   9.498  10.742 -0.8698  0.0968 -0.4917
  599MOL0     H80809   8.653   9.526  10.583 -1.7072 -0.5731 -0.7084
  599MOL0     H80810   8.580   9.267  10.602 -1.4714 -4.7331  3.3824
  599MOL0     H80811   8.650   9.268  10.762 -2.4236  0.0513  1.3824
  599MOL0     H80812   8.499   9.463  10.822  0.1287 -0.7333  0.4813
  599MOL0     H80813   8.407   9.434  10.669  1.1429  1.8313 -0.5501
  599MOL0     H80814   8.427   9.246  10.906  0.0208  0.3564  0.2270
  599MOL0     H80815   8.360   9.204  10.747 -0.6670  2.6593 -2.1593
  599MOL0     H80816   8.312   9.539  10.970 -0.5324  0.9555  1.6985
  599MOL0     H80817   8.119   9.661  11.042 -0.5153  0.9787 -0.1499
  599MOL0     H80818   8.017   9.696  10.889  1.5903 -0.3818 -1.2781
  599MOL0     H80819   7.940   9.496  11.114 -2.2402 -1.2146  0.7569
  599MOL0     H80820   7.854   9.578  10.977  0.5697 -0.0658  0.4388
  599MOL0     H80821   7.882   9.795  11.086 -1.6962  0.8614 -0.0469
  599MOL0     H80822   7.949   9.732  11.229 -2.6965  2.3539  2.0630
  599MOL0     H80823   7.764   9.570  11.254 -0.0813  0.8133  1.3346
  599MOL0     H80824   7.662   9.647  11.138 -0.8790  2.2027 -0.0914
  599MOL0     H80825   7.454   9.658  11.227 -2.4950 -0.6329  1.0700
  599MOL0     H80826   7.128   9.792  11.284  0.7192 -0.7595  0.4193
  599MOL0     H80827   7.177   9.794  11.124 -1.4061  0.6364 -0.4755
  599MOL0     H80828   7.213   9.654  11.218 -1.5017  1.0925  0.3131
  599MOL0     H80829   6.994  10.156  11.352  0.8211 -0.2963  0.8273
  599MOL0     H80830   6.838  10.305  11.428 -0.8944  0.6620 -1.2699
  599MOL0     H80831   6.749  10.540  11.384 -3.3341  0.5471  0.4637
  599MOL0     H80832   6.703  10.485  11.539  0.5596 -2.8614 -1.9898
  599MOL0     H80833   6.686  10.693  11.636  1.6085 -2.6820 -0.0325
  599MOL0     H80834   6.784  10.773  11.518  0.9436  0.3392  0.6463
  599MOL0     H80835   6.509  10.667  11.461  0.9394 -0.4056 -0.2839
  599MOL0     H80836   6.596  10.728  11.328 -2.2240 -1.1038 -0.8024
  599MOL0     H80837   6.593  10.917  11.541 -0.9814  0.3315  0.1733
  599MOL0     H80838   6.582  10.924  11.360 -0.0949 -2.3526 -2.0273
  599MOL0     H80839   6.367  10.994  11.468 -0.7471 -0.2489  0.6029
  599MOL0     H80840   6.359  10.842  11.552  0.6240 -1.0560 -1.6088
  599MOL0     H80841   6.357  10.864  11.246 -0.3850 -0.4730 -1.0967
  599MOL0     H80842   6.311  10.721  11.344 -0.9024 -0.0505 -0.0638
  599MOL0     H80843   6.182  10.999  11.318  0.5146 -0.1533 -2.7650
  599MOL0     H80844   6.126  10.870  11.438  3.7301 -1.1674  0.8841
  599MOL0     H80845   6.093  10.882  11.135  1.3917 -0.2042  1.4958
  599MOL0     H80846   5.972  10.917  11.261  1.5773  2.5935  2.5572
  599MOL0     H80847   7.149  10.596  11.500 -1.7479  1.2189  0.2470
  599MOL0     H80848   7.311  10.436  11.394  0.6975 -0.6162  2.9992
  599MOL0     H80849   7.503  10.140  11.328  2.0641 -0.4609 -2.3542
  599MOL0     H80850   7.680  10.007  11.372 -1.0927  1.7294  0.6200
  599MOL0     H80851   9.172   9.591  10.255 -1.9325  0.1740 -3.0820
  599MOL0     H80852   9.393   9.671  10.227 -0.6181  0.1004 -3.1126
  599MOL0     H80853   9.729   9.921  10.020 -1.1481 -1.6331  0.8842
  599MOL0     H80854   9.968  10.002  10.026  2.6183 -1.1114  1.3019
  599MOL0     H80855  10.171  10.023  10.016  2.0881  0.8537 -0.9180
  599MOL0     H80856  10.203  10.043  10.193  0.3223 -2.3079  1.3640
  599MOL0     H80857  10.380   9.926   9.983 -2.8628  0.4719 -0.6976
  599MOL0     H80858  10.395   9.892  10.156  0.2069 -1.3821 -1.7894
  599MOL0     H80859  10.432  10.140  10.200 -1.3629 -1.3875  0.1000
  599MOL0     H80860  10.420  10.169  10.028  0.8723  0.7630  1.6380
  599MOL0     H80861  10.615  10.045   9.994 -1.5266 -2.5925  0.2477
  599MOL0     H80862  10.634   9.982  10.153 -1.8624 -1.1720 -0.6609
  599MOL0     H80863  10.785  10.389  10.139  2.0940 -1.2260  0.0133
  599MOL0     H80864  10.071   9.620  10.192 -1.1396 -1.9756 -1.9196
  599MOL0     H80865   9.855   9.539  10.164  2.3643 -0.4081 -0.9294
  600MOL0     O80866   9.938  11.139   4.300 -0.1966  0.7303  0.3820
  600MOL0     C80867  10.004  11.219   4.235 -0.0136  0.0179 -0.2937
  600MOL0     O80868   9.956  11.324   4.165 -0.3377 -0.0220  0.0095
  600MOL0     C80869   9.825  11.353   4.138 -0.3966  0.2369 -0.6040
  600MOL0     C80870   9.792  11.439   4.035 -0.0958 -0.5136  0.7964
  600MOL0     C80871   9.660  11.486   4.012  0.3124 -0.5399  0.8033
  600MOL0     C80872   9.551  11.440   4.090  0.2300 -0.4097 -0.2207
  600MOL0     O80873   9.429  11.495   4.052 -0.4429 -0.4171  0.0225
  600MOL0     C80874   9.310  11.432   4.096  0.0763 -0.0417  1.4012
  600MOL0     C80875   9.188  11.522   4.063 -0.4585 -0.0834 -0.2127
  600MOL0     C80876   9.057  11.452   4.103  0.4162 -0.1203  0.2006
  600MOL0     C80877   8.947  11.467   4.003 -0.2581 -0.0935  0.2039
  600MOL0     C80878   8.812  11.424   4.062 -0.4012  0.0534  0.2786
  600MOL0     C80879   8.710  11.405   3.950  0.4399 -0.8231  0.4029
  600MOL0     C80880   8.570  11.385   4.002  0.1623 -0.0598  0.1773
  600MOL0     C80881   8.476  11.358   3.887  0.2498 -0.9585 -0.2041
  600MOL0     N80882   8.449  11.481   3.814 -0.5436 -0.0594  0.0023
  600MOL0     C80883   8.397  11.600   3.865 -0.5730  0.3112 -0.2189
  600MOL0     C80884   8.408  11.685   3.755 -0.7852  0.0307 -0.3108
  600MOL0     C80885   8.380  11.836   3.764  0.3822 -0.3279  0.7395
  600MOL0     C80886   8.243  11.870   3.698  0.0129 -0.3051  0.6945
  600MOL0     C80887   8.205  12.021   3.725 -0.1958  0.4340  0.3368
  600MOL0     C80888   8.108  12.042   3.838  0.3490 -0.1675  0.0924
  600MOL0     O80889   7.986  11.960   3.819  0.1561 -0.5304  0.2061
  600MOL0     C80890   7.882  11.974   3.907 -0.1105  0.3889 -0.1278
  600MOL0     C80891   7.884  12.037   4.038  0.3254 -0.6177 -0.1550
  600MOL0     C80892   7.775  12.063   4.125  0.2961  0.5597  0.2558
  600MOL0     C80893   7.798  12.109   4.271  1.5079  0.6032  0.1288
  600MOL0     C80894   7.647  12.013   4.080 -0.6774 -0.9422 -0.3690
  600MOL0     C80895   7.520  12.030   4.153  1.0953 -0.3383  0.7145
  600MOL0     O80896   7.410  11.970   4.101 -0.5785  0.9488  0.9023
  600MOL0     C80897   7.281  11.994   4.142  0.6659  0.5940  0.5231
  600MOL0     C80898   7.237  11.978   4.276 -0.8007  0.6039 -0.5269
  600MOL0     C80899   7.103  11.963   4.313 -0.5370  0.5356  0.0224
  600MOL0     C80900   7.001  11.955   4.210 -0.3410 -0.7561 -0.1049
  600MOL0     O80901   6.871  11.942   4.249  0.0617  0.2366  0.2206
  600MOL0     C80902   6.764  11.956   4.154  0.2481 -0.8145  0.1878
  600MOL0     C80903   6.647  11.914   4.234  0.0180  0.2558  0.7703
  600MOL0     C80904   6.520  11.969   4.163  0.0796 -0.3791 -0.4129
  600MOL0     C80905   6.396  11.907   4.229 -0.0511 -0.1732  0.6852
  600MOL0     C80906   6.276  11.956   4.154  0.4991  1.0433  0.1944
  600MOL0     C80907   6.249  11.883   4.023  0.4216 -0.0458 -0.6248
  600MOL0     C80908   6.128  11.941   3.950  0.4876  0.3012 -0.1609
  600MOL0     C80909   6.086  11.834   3.853  0.7513  0.0692 -0.2996
  600MOL0    Cl80910   5.945  11.900   3.758 -0.3750  0.4422 -0.0151
  600MOL0     C80911   7.052  11.973   4.075  0.9617  0.6133 -0.4671
  600MOL0     C80912   7.188  11.991   4.043  0.5668 -0.4562  0.0256
  600MOL0     O80913   7.516  12.118   4.236  0.2207 -0.9281  0.9313
  600MOL0     C80914   7.644  11.939   3.953 -0.1276 -0.0800  0.5809
  600MOL0     C80915   7.757  11.919   3.869 -0.5426 -0.0365 -0.4480
  600MOL0     N80916   8.466  11.621   3.651 -0.0772  0.6905 -0.0166
  600MOL0     N80917   8.497  11.501   3.687 -0.1976 -0.2914  0.3284
  600MOL0     C80918   9.582  11.339   4.182 -0.6313  0.1888 -0.0594
  600MOL0     C80919   9.715  11.297   4.204 -0.7484  0.2105  0.5049
  600MOL0     C80920  10.139  11.184   4.209  0.1748 -0.1198 -0.6326
  600MOL0     C80921  10.226  11.274   4.156  0.0217 -0.1299  0.4373
  600MOL0     C80922  10.355  11.237   4.124  0.2740  0.7636 -0.2395
  600MOL0     C80923  10.406  11.106   4.145  0.0873  0.8777  0.6833
  600MOL0     O80924  10.534  11.066   4.117  0.6633  0.3706 -0.2663
  600MOL0     C80925  10.638  11.157   4.104 -0.7261  0.5628  0.5383
  600MOL0     C80926  10.766  11.065   4.085 -0.2953  0.2517  0.2024
  600MOL0     C80927  10.889  11.153   4.111 -0.7295 -0.6320 -1.0980
  600MOL0     C80928  11.028  11.076   4.100 -1.0496  0.5649 -0.6458
  600MOL0     C80929  11.052  10.996   4.223  0.6416 -0.3651 -0.2389
  600MOL0     C80930  11.088  10.932   4.321  0.2080 -0.6411  0.0415
  600MOL0     C80931  10.314  11.021   4.202 -0.3925 -0.0202 -1.1460
  600MOL0     C80932  10.182  11.053   4.235 -0.0826  0.2488 -0.2222
  600MOL0     H80933   9.870  11.480   3.972 -1.7262  0.3840 -0.7354
  600MOL0     H80934   9.625  11.565   3.946  2.9005  1.5814  1.7957
  600MOL0     H80935   9.300  11.330   4.058  1.1530 -0.2355  1.6103
  600MOL0     H80936   9.331  11.410   4.201  0.2806  0.0092  1.3730
  600MOL0     H80937   9.200  11.627   4.091  0.2347 -0.2578  0.1841
  600MOL0     H80938   9.189  11.523   3.954 -1.3478  2.2198 -0.2573
  600MOL0     H80939   9.074  11.346   4.123 -1.6586 -0.8487 -1.5697
  600MOL0     H80940   9.019  11.498   4.195  0.5391  1.0739 -0.3281
  600MOL0     H80941   8.948  11.572   3.974 -0.5056  0.1022  0.8992
  600MOL0     H80942   8.976  11.409   3.914 -0.2966  0.0628  0.0895
  600MOL0     H80943   8.821  11.330   4.116 -1.4165 -1.1928 -1.6011
  600MOL0     H80944   8.789  11.504   4.132 -2.2349 -0.4930  0.3462
  600MOL0     H80945   8.704  11.498   3.893  3.0066  1.4774  3.4988
  600MOL0     H80946   8.736  11.327   3.879 -1.6871 -3.1989  2.0680
  600MOL0     H80947   8.564  11.305   4.076  1.4911 -0.7696 -0.4407
  600MOL0     H80948   8.549  11.477   4.057 -0.8108 -0.5387  0.6197
  600MOL0     H80949   8.377  11.343   3.932  0.8288  1.1977  2.0074
  600MOL0     H80950   8.505  11.275   3.822  1.8874  0.2148 -1.0257
  600MOL0     H80951   8.362  11.619   3.966  0.0311 -1.8352  0.4495
  600MOL0     H80952   8.369  11.878   3.864 -2.8364  2.9890 -0.7836
  600MOL0     H80953   8.464  11.893   3.723 -1.6499  2.0796 -0.3749
  600MOL0     H80954   8.163  11.802   3.728 -2.5690  1.8418 -0.7802
  600MOL0     H80955   8.267  11.850   3.593  0.5411  0.5233  0.6429
  600MOL0     H80956   8.155  12.057   3.634  1.0013  1.5910  0.1092
  600MOL0     H80957   8.287  12.093   3.731 -1.2496  1.5884  1.7123
  600MOL0     H80958   8.079  12.147   3.842 -4.5476 -1.2463  0.4435
  600MOL0     H80959   8.157  12.016   3.933  2.4981 -4.3275 -1.8826
  600MOL0     H80960   7.983  12.069   4.068  0.9926 -1.3996 -1.4660
  600MOL0     H80961   7.905  12.132   4.279  2.7098 -2.8661 -3.0692
  600MOL0     H80962   7.748  12.202   4.299  0.1696 -0.0249 -0.0788
  600MOL0     H80963   7.769  12.037   4.347 -1.8816  2.6871  1.0481
  600MOL0     H80964   7.309  11.980   4.357  1.1034  1.8986 -2.1527
  600MOL0     H80965   7.060  11.964   4.412 -0.4705  0.8847  0.0503
  600MOL0     H80966   6.763  12.058   4.114  1.3142 -0.3636  1.2613
  600MOL0     H80967   6.763  11.887   4.069 -0.6488 -0.5031 -0.0621
  600MOL0     H80968   6.646  11.804   4.238  0.6716  0.1794 -0.5904
  600MOL0     H80969   6.649  11.956   4.335 -1.6171 -0.6275  1.2115
  600MOL0     H80970   6.520  11.947   4.056  0.1778  2.8451 -1.1643
  600MOL0     H80971   6.527  12.077   4.175 -0.5808 -0.5423  2.0139
  600MOL0     H80972   6.389  11.798   4.215  0.0669 -0.2008  0.8412
  600MOL0     H80973   6.393  11.934   4.335  0.4041 -0.6973  0.8354
  600MOL0     H80974   6.280  12.064   4.139 -2.1172  1.1768  0.0575
  600MOL0     H80975   6.188  11.928   4.212  0.0521 -2.0810 -1.7191
  600MOL0     H80976   6.341  11.879   3.964  0.5289 -2.4969 -0.4067
  600MOL0     H80977   6.220  11.780   4.048 -1.4045  0.6924  0.4854
  600MOL0     H80978   6.150  12.034   3.895 -1.0067  0.4729 -0.5097
  600MOL0     H80979   6.049  11.963   4.023 -0.3331  2.0445 -1.4763
  600MOL0     H80980   6.061  11.744   3.910 -2.3333 -0.7822 -2.7514
  600MOL0     H80981   6.167  11.822   3.780  0.0404  4.1793 -2.0650
  600MOL0     H80982   6.978  11.973   3.995  1.6727 -0.6755 -1.1573
  600MOL0     H80983   7.210  12.004   3.937  2.0821  0.8432  0.4629
  600MOL0     H80984   7.555  11.898   3.907 -0.9347  1.1386  1.0013
  600MOL0     H80985   7.742  11.870   3.773 -2.5389 -0.3326 -0.0248
  600MOL0     H80986   9.508  11.287   4.241 -0.3018 -0.4581 -0.2064
  600MOL0     H80987   9.716  11.222   4.283 -2.7005  0.3652  0.7223
  600MOL0     H80988  10.182  11.372   4.138 -0.4527 -0.7150 -1.8743
  600MOL0     H80989  10.419  11.319   4.091  1.7144  0.0138  0.5707
  600MOL0     H80990  10.630  11.220   4.014 -2.0945  0.8715  0.8498
  600MOL0     H80991  10.640  11.219   4.194  1.3796  0.7937  0.3712
  600MOL0     H80992  10.769  11.023   3.984  2.6589 -2.5156  1.2710
  600MOL0     H80993  10.776  10.982   4.156  2.8040  0.0870 -0.2743
  600MOL0     H80994  10.882  11.204   4.208 -1.5241  1.0986 -2.0315
  600MOL0     H80995  10.901  11.237   4.042  2.1816 -1.0153 -1.2001
  600MOL0     H80996  11.109  11.148   4.084 -1.1112  0.4247 -1.6625
  600MOL0     H80997  11.020  11.000   4.022  2.5477 -1.9000  1.0982
  600MOL0     H80998  11.126  10.871   4.401 -0.5883  0.0714  0.9927
  600MOL0     H80999  10.343  10.918   4.220 -1.9011 -0.2522  0.0839
  600MOL0     H81000  10.109  10.976   4.259 -0.3096  0.5511  0.0727
  601MOL0     O81001   7.223   2.910   0.144  0.1971  0.1021  0.3635
  601MOL0     C81002   7.309   2.862   0.069 -1.0484  0.5082 -0.1538
  601MOL0     O81003   7.290   2.786  -0.050  0.4596 -1.2860 -0.7488
  601MOL0     C81004   7.163   2.763  -0.086  0.7293  1.4085  0.9420
  601MOL0     C81005   7.121   2.802  -0.213 -0.1249  1.0882 -0.4854
  601MOL0     C81006   6.991   2.770  -0.257 -0.1952 -0.7842 -0.1716
  601MOL0     C81007   6.900   2.704  -0.176  0.8244 -0.8405  0.2297
  601MOL0     O81008   6.769   2.683  -0.229 -0.1163  0.4947  0.0627
  601MOL0     C81009   6.654   2.702  -0.147  0.1298  0.2098  0.4233
  601MOL0     C81010   6.541   2.665  -0.245  0.2810  0.6045 -0.3439
  601MOL0     C81011   6.409   2.743  -0.209 -0.0537  0.2155  0.8503
  601MOL0     C81012   6.361   2.713  -0.071 -0.0449 -0.2428 -0.6608
  601MOL0     C81013   6.219   2.735  -0.035  0.3008 -0.1636  0.0782
  601MOL0     C81014   6.183   2.729   0.114 -0.5273 -0.4693  0.0260
  601MOL0     C81015   6.043   2.779   0.146 -0.2488  0.7631  0.3250
  601MOL0     C81016   5.934   2.698   0.084  0.6810  1.0021  0.3907
  601MOL0     N81017   5.799   2.707   0.155  0.2947  0.3408  0.4197
  601MOL0     C81018   5.784   2.686   0.294  0.2460 -0.6876  0.4070
  601MOL0     C81019   5.650   2.674   0.313 -0.7442  0.4748  0.7858
  601MOL0     C81020   5.607   2.666   0.455  0.2070 -0.1704 -0.1143
  601MOL0     C81021   5.452   2.686   0.460 -0.4758 -0.0498 -0.3434
  601MOL0     C81022   5.405   2.649   0.601 -0.8821  0.3549  0.0517
  601MOL0     C81023   5.253   2.652   0.622 -0.1637  0.7143  0.8203
  601MOL0     O81024   5.203   2.539   0.542  0.3603  0.6493  0.2180
  601MOL0     C81025   5.072   2.508   0.532 -1.0083  0.3966  0.7251
  601MOL0     C81026   5.038   2.387   0.452 -0.0074 -0.7267  0.3848
  601MOL0     C81027   4.902   2.350   0.438 -0.0451 -0.0689 -0.0746
  601MOL0     C81028   4.874   2.233   0.350  0.3921 -0.3660 -0.3647
  601MOL0     C81029   4.800   2.425   0.505  0.1729 -0.5700 -0.8259
  601MOL0     C81030   4.653   2.390   0.497  0.4661  0.2949  0.4430
  601MOL0     O81031   4.612   2.304   0.399  0.5563 -0.0474  0.0924
  601MOL0     C81032   4.486   2.271   0.385  0.4084  0.8681  0.0554
  601MOL0     C81033   4.432   2.265   0.255 -0.2136  0.1430  1.5108
  601MOL0     C81034   4.301   2.220   0.238 -0.2260 -0.5730 -0.6223
  601MOL0     C81035   4.213   2.194   0.347 -1.1827 -1.1527  1.3050
  601MOL0     O81036   4.081   2.173   0.331 -0.3132 -0.4699 -0.0954
  601MOL0     C81037   4.015   2.221   0.212 -0.3383 -0.1969 -0.0623
  601MOL0     C81038   3.864   2.228   0.222 -0.7868 -0.4009 -0.5627
  601MOL0     C81039   3.822   2.349   0.311 -0.0959  0.9749  0.5597
  601MOL0     C81040   3.839   2.319   0.463  0.2022  0.1352  0.1753
  601MOL0     C81041   3.929   2.421   0.519  0.5056  0.0614 -0.1794
  601MOL0     C81042   3.947   2.399   0.672 -0.4026 -0.3165  0.4806
  601MOL0     C81043   3.839   2.469   0.747 -0.1001  0.2064  0.5336
  601MOL0     C81044   3.837   2.442   0.900  0.8130 -0.2210 -0.2912
  601MOL0    Cl81045   3.873   2.283   0.958  0.1554  0.1982  0.0687
  601MOL0     C81046   4.260   2.208   0.474 -0.0669 -0.2189 -0.3025
  601MOL0     C81047   4.393   2.248   0.487 -0.3061 -0.3250  0.2355
  601MOL0     O81048   4.579   2.463   0.560 -0.2466  0.4696  0.4901
  601MOL0     C81049   4.841   2.532   0.598 -0.2909 -0.3127 -0.1278
  601MOL0     C81050   4.975   2.567   0.608 -0.0473 -0.3004  0.4419
  601MOL0     N81051   5.587   2.691   0.189  0.4500 -1.3306  0.7810
  601MOL0     N81052   5.679   2.718   0.099  0.1302 -0.0268  0.2008
  601MOL0     C81053   6.942   2.653  -0.055  0.4078  0.3335 -0.1405
  601MOL0     C81054   7.074   2.675  -0.006 -0.7589  0.4887  1.1022
  601MOL0     C81055   7.448   2.876   0.125 -0.6960 -0.0187 -0.3239
  601MOL0     C81056   7.483   2.979   0.217 -0.5033  0.2037 -0.5698
  601MOL0     C81057   7.620   2.996   0.258 -0.3708 -0.1628 -0.9143
  601MOL0     C81058   7.720   2.917   0.196  0.2495  0.0071  0.3163
  601MOL0     O81059   7.851   2.939   0.202 -0.8135  0.2584  0.1709
  601MOL0     C81060   7.904   3.016   0.302  0.2165 -0.2812 -0.5629
  601MOL0     C81061   8.058   2.978   0.330  1.1965  0.0637 -0.2148
  601MOL0     C81062   8.111   3.006   0.469 -0.3783  0.1647 -0.6487
  601MOL0     C81063   8.269   2.981   0.477  0.4118  0.7978  0.0867
  601MOL0     C81064   8.357   3.056   0.390  0.7450 -0.1700 -0.0003
  601MOL0     C81065   8.441   3.111   0.314 -0.3887 -0.0013  0.5884
  601MOL0     C81066   7.682   2.817   0.105  0.0885  0.0168  0.1722
  601MOL0     C81067   7.548   2.789   0.076  0.1525 -0.9397  0.0895
  601MOL0     H81068   7.187   2.862  -0.275  1.0714 -1.5374 -1.9500
  601MOL0     H81069   6.965   2.802  -0.357  0.7746 -2.0214 -0.8374
  601MOL0     H81070   6.655   2.642  -0.056 -0.6781 -0.2367  0.1476
  601MOL0     H81071   6.640   2.802  -0.107 -1.6425 -0.6825  2.1860
  601MOL0     H81072   6.569   2.697  -0.346 -0.8478  0.3463 -0.7576
  601MOL0     H81073   6.535   2.556  -0.259  3.7303  0.3632 -0.7938
  601MOL0     H81074   6.429   2.847  -0.233 -3.8392  0.9055  0.1624
  601MOL0     H81075   6.340   2.711  -0.287  0.7795  0.5785 -0.0558
  601MOL0     H81076   6.379   2.608  -0.046 -3.2312 -0.8923 -0.6450
  601MOL0     H81077   6.425   2.765   0.001 -0.4308  0.5420 -0.8723
  601MOL0     H81078   6.201   2.836  -0.075 -3.5006 -0.7820 -0.1390
  601MOL0     H81079   6.147   2.674  -0.090 -1.3611  1.1250  0.7116
  601MOL0     H81080   6.195   2.627   0.154 -0.5640 -1.0925 -1.4895
  601MOL0     H81081   6.258   2.796   0.158 -0.5103 -0.4365 -0.0546
  601MOL0     H81082   6.033   2.768   0.254  0.0325  1.3647  0.4179
  601MOL0     H81083   6.027   2.887   0.136  0.1218  1.1680  3.2533
  601MOL0     H81084   5.965   2.593   0.093 -3.2628 -0.6729 -2.2572
  601MOL0     H81085   5.921   2.721  -0.022  1.3483  2.0699  0.5328
  601MOL0     H81086   5.861   2.678   0.370 -0.4543  0.1627  1.2299
  601MOL0     H81087   5.622   2.560   0.481 -0.3741 -0.7265 -1.8838
  601MOL0     H81088   5.656   2.745   0.512 -1.6700  0.6507  0.4211
  601MOL0     H81089   5.408   2.635   0.374  1.2266  1.0493 -1.9467
  601MOL0     H81090   5.436   2.792   0.436 -0.4867 -0.0676 -0.4151
  601MOL0     H81091   5.458   2.705   0.678  0.6758  0.6938 -1.2159
  601MOL0     H81092   5.438   2.544   0.607  0.9169  0.7371 -1.9897
  601MOL0     H81093   5.221   2.749   0.580  0.7694 -0.2773 -2.5504
  601MOL0     H81094   5.219   2.631   0.723 -2.5618  2.2615  0.4177
  601MOL0     H81095   5.116   2.341   0.393  0.9335  2.1587 -0.8071
  601MOL0     H81096   4.815   2.262   0.262 -1.3137 -1.5794  0.3124
  601MOL0     H81097   4.959   2.181   0.305  0.4755 -0.2366 -0.3551
  601MOL0     H81098   4.809   2.165   0.406 -1.4295  1.7718  0.2523
  601MOL0     H81099   4.494   2.287   0.169  0.7964 -0.2772  2.1107
  601MOL0     H81100   4.271   2.220   0.134 -1.6110  1.7045 -0.2967
  601MOL0     H81101   4.043   2.324   0.188 -2.5023  0.4076 -0.2049
  601MOL0     H81102   4.042   2.154   0.130 -1.6113 -2.4028  1.2304
  601MOL0     H81103   3.827   2.237   0.120 -1.5756  0.7988 -0.1971
  601MOL0     H81104   3.832   2.130   0.259 -0.7899 -0.2447 -0.1508
  601MOL0     H81105   3.715   2.363   0.294 -0.1344  2.5171  1.7700
  601MOL0     H81106   3.879   2.440   0.286 -1.6697  2.3745  1.8311
  601MOL0     H81107   3.747   2.319   0.522  0.8357 -0.8631  1.1971
  601MOL0     H81108   3.886   2.222   0.483  0.8082  0.2203 -0.7490
  601MOL0     H81109   3.890   2.522   0.502  0.3405  0.3446  1.6200
  601MOL0     H81110   4.025   2.419   0.468  0.8985  0.2962  0.5387
  601MOL0     H81111   3.946   2.292   0.695 -1.3942 -0.7380 -1.2767
  601MOL0     H81112   4.048   2.428   0.704  0.1438 -1.0749 -0.4947
  601MOL0     H81113   3.739   2.440   0.715 -1.0385  0.6221  2.9145
  601MOL0     H81114   3.855   2.575   0.725 -1.1403  0.5305  1.2757
  601MOL0     H81115   3.736   2.467   0.933  0.8579 -1.2457  0.6399
  601MOL0     H81116   3.911   2.513   0.938  1.5809 -0.8182 -0.6404
  601MOL0     H81117   4.199   2.195   0.563  0.8744 -2.1808  0.1205
  601MOL0     H81118   4.416   2.259   0.593 -2.8857 -0.9847  0.9450
  601MOL0     H81119   4.770   2.588   0.659 -0.1051 -0.6455  0.4085
  601MOL0     H81120   4.992   2.661   0.659 -2.7363  0.0831  0.7744
  601MOL0     H81121   6.862   2.606  -0.000 -0.6899  2.6039  0.2982
  601MOL0     H81122   7.102   2.618   0.082  0.4296 -4.2778 -1.9586
  601MOL0     H81123   7.414   3.044   0.270  2.0201  0.3695  2.8187
  601MOL0     H81124   7.648   3.061   0.340 -4.3392  2.1836 -1.1569
  601MOL0     H81125   7.885   3.122   0.285 -2.4102 -0.1135  2.6397
  601MOL0     H81126   7.854   3.003   0.398  4.0946  3.3775  2.3308
  601MOL0     H81127   8.114   3.040   0.260  2.8150  1.8155  2.4697
  601MOL0     H81128   8.079   2.871   0.317  2.2249  0.5275 -3.0239
  601MOL0     H81129   8.072   2.934   0.542 -0.1975 -1.0412 -1.6902
  601MOL0     H81130   8.090   3.108   0.501  0.3417  0.0904  0.0866
  601MOL0     H81131   8.293   2.875   0.470 -1.1234  0.2608  1.9756
  601MOL0     H81132   8.290   3.014   0.580  2.6129  3.5861 -1.1315
  601MOL0     H81133   8.522   3.142   0.252 -0.1351  0.9537  1.3697
  601MOL0     H81134   7.756   2.762   0.048 -1.2365 -0.5875 -1.0182
  601MOL0     H81135   7.519   2.725  -0.006 -1.6023  1.6495 -1.4609
  602MOL0     O81136  10.867   4.993   8.879 -0.2524  0.0526  0.3561
  602MOL0     C81137  10.905   4.973   8.993  0.6782  0.2332 -0.3065
  602MOL0     O81138  10.824   4.959   9.104 -0.1572  0.3953  0.3216
  602MOL0     C81139  10.692   5.013   9.089 -0.3070 -0.1277 -0.9864
  602MOL0     C81140  10.601   4.980   8.983 -0.3873  0.5062 -0.7453
  602MOL0     C81141  10.482   5.043   8.993  0.7253  0.5005 -0.0043
  602MOL0     C81142  10.441   5.131   9.089 -0.3538  0.1383 -0.0481
  602MOL0     O81143  10.323   5.196   9.072 -0.2103  0.0709 -0.2266
  602MOL0     C81144  10.262   5.259   9.191  0.4147 -0.0202  0.3771
  602MOL0     C81145  10.118   5.286   9.160  0.1987  0.5346  0.0778
  602MOL0     C81146  10.033   5.315   9.282 -0.3997  0.0721 -0.4772
  602MOL0     C81147   9.933   5.424   9.257 -0.0942  0.1013  0.2318
  602MOL0     C81148   9.825   5.438   9.366  0.2906 -0.9592 -1.2473
  602MOL0     C81149   9.735   5.555   9.346  0.6403  0.1727 -0.4576
  602MOL0     C81150   9.666   5.605   9.468  0.9788 -0.5366  0.1242
  602MOL0     C81151   9.551   5.701   9.428  0.3099  0.2927 -0.0547
  602MOL0     N81152   9.422   5.642   9.380 -0.8747  0.1788 -0.2574
  602MOL0     C81153   9.338   5.592   9.476 -0.0900 -0.7870  1.1314
  602MOL0     C81154   9.239   5.527   9.406  0.6015 -0.2990  0.4183
  602MOL0     C81155   9.128   5.441   9.461  1.0391 -0.7030 -0.2931
  602MOL0     C81156   8.994   5.515   9.449 -0.3583 -0.0701 -0.4025
  602MOL0     C81157   8.883   5.426   9.503 -0.1067 -0.6634 -0.5911
  602MOL0     C81158   8.739   5.467   9.468 -0.0933 -0.0409 -1.0732
  602MOL0     O81159   8.696   5.454   9.327 -0.3985 -0.1469 -0.9784
  602MOL0     C81160   8.562   5.472   9.293  0.1672  0.6816  0.2568
  602MOL0     C81161   8.518   5.442   9.165  0.2015 -0.3039  1.2157
  602MOL0     C81162   8.386   5.457   9.126  0.2431 -0.2676 -0.1531
  602MOL0     C81163   8.355   5.432   8.980 -0.4044  0.1078  0.4237
  602MOL0     C81164   8.282   5.498   9.215 -0.5733  1.0355 -0.1013
  602MOL0     C81165   8.138   5.496   9.187  0.2569  0.1151  0.6429
  602MOL0     O81166   8.095   5.426   9.071  0.3995 -0.0221  0.2751
  602MOL0     C81167   7.962   5.435   9.033 -0.1529  1.0256  0.6421
  602MOL0     C81168   7.883   5.551   9.045  0.8446 -0.0126  0.4662
  602MOL0     C81169   7.749   5.543   8.998  0.7163  0.7265 -0.1469
  602MOL0     C81170   7.698   5.426   8.938  0.8336  0.7445  0.1663
  602MOL0     O81171   7.571   5.412   8.891  0.3221 -0.4943  0.7403
  602MOL0     C81172   7.457   5.447   8.973  0.1916 -0.2370  0.4929
  602MOL0     C81173   7.394   5.580   8.919 -0.4525 -0.1701 -0.1112
  602MOL0     C81174   7.246   5.598   8.953  1.0459  0.1004  0.8012
  602MOL0     C81175   7.186   5.721   8.873  0.8838  0.1897 -0.7289
  602MOL0     C81176   7.034   5.728   8.887 -0.3913  0.8273 -0.7337
  602MOL0     C81177   6.972   5.837   8.798  0.0802 -1.0568  0.2694
  602MOL0     C81178   6.824   5.858   8.819  0.0431 -0.4941  0.3214
  602MOL0     C81179   6.735   5.734   8.797  0.2497 -0.8422  0.1627
  602MOL0    Cl81180   6.756   5.604   8.925 -0.1804 -0.0103  0.1535
  602MOL0     C81181   7.781   5.318   8.925 -0.4323  0.2146 -0.1673
  602MOL0     C81182   7.911   5.320   8.977 -0.0765 -0.2070 -0.5572
  602MOL0     O81183   8.063   5.554   9.267  0.3211  0.0125  1.2734
  602MOL0     C81184   8.336   5.540   9.338 -0.7840  0.0924 -0.4579
  602MOL0     C81185   8.469   5.520   9.380 -0.5026  0.5452  0.0295
  602MOL0     N81186   9.255   5.543   9.271  0.9092  0.7512 -0.1678
  602MOL0     N81187   9.373   5.609   9.253  1.3708  0.5991 -0.5206
  602MOL0     C81188  10.527   5.151   9.197  0.5534 -0.1497  0.1155
  602MOL0     C81189  10.649   5.087   9.199  0.0959 -0.3873  0.6991
  602MOL0     C81190  11.048   4.961   9.004  0.8117 -0.2430 -0.8569
  602MOL0     C81191  11.113   4.891   9.111 -0.2009  0.1281  0.4145
  602MOL0     C81192  11.251   4.877   9.111  0.9146 -0.7453 -0.4404
  602MOL0     C81193  11.330   4.924   9.008 -0.2260 -0.4424 -0.9234
  602MOL0     O81194  11.462   4.900   8.992 -0.1542 -0.5687  0.1684
  602MOL0     C81195  11.531   4.803   9.071  0.0387  0.8778 -0.5019
  602MOL0     C81196  11.677   4.813   9.031 -0.2850  0.0898 -0.0669
  602MOL0     C81197  11.776   4.721   9.104  0.3595 -0.3865  0.2399
  602MOL0     C81198  11.914   4.768   9.117  0.7041 -0.4424  0.1467
  602MOL0     C81199  11.969   4.781   8.982 -0.0958 -0.1124  0.5903
  602MOL0     C81200  12.005   4.791   8.865  0.7503  1.3173 -0.6706
  602MOL0     C81201  11.265   5.012   8.925 -0.4671 -0.1162 -0.6742
  602MOL0     C81202  11.129   5.032   8.921  0.5726 -0.6750 -0.3344
  602MOL0     H81203  10.626   4.914   8.900 -0.5829  0.3981 -0.7177
  602MOL0     H81204  10.411   5.003   8.922  0.3405 -2.1300  1.7105
  602MOL0     H81205  10.279   5.204   9.284  1.1993  0.5348  0.5673
  602MOL0     H81206  10.290   5.363   9.208 -0.1434  0.1460  0.3170
  602MOL0     H81207  10.110   5.362   9.082 -1.5437 -1.0302 -1.3846
  602MOL0     H81208  10.076   5.199   9.107 -2.6930  0.9939  1.4245
  602MOL0     H81209   9.970   5.232   9.316 -1.6991  1.8538  1.7875
  602MOL0     H81210  10.102   5.342   9.362 -0.7997  0.9527 -0.4110
  602MOL0     H81211   9.991   5.514   9.235  0.0139  0.3881  1.6077
  602MOL0     H81212   9.883   5.404   9.162 -0.0937 -0.7372  0.4004
  602MOL0     H81213   9.762   5.349   9.375  3.9488 -3.6271  0.5303
  602MOL0     H81214   9.870   5.440   9.465 -1.2232  0.2358 -0.5418
  602MOL0     H81215   9.790   5.643   9.313 -1.7345  2.0998  0.4060
  602MOL0     H81216   9.661   5.523   9.273 -0.2676 -1.6719  1.1539
  602MOL0     H81217   9.635   5.528   9.539 -1.3285  1.9608  2.0246
  602MOL0     H81218   9.747   5.653   9.523  0.5469 -0.1427  0.4204
  602MOL0     H81219   9.581   5.774   9.353 -1.6195 -0.9995 -2.2116
  602MOL0     H81220   9.530   5.755   9.521 -2.2836 -2.5620  1.2364
  602MOL0     H81221   9.339   5.616   9.582  1.4108  1.3317  0.7086
  602MOL0     H81222   9.130   5.343   9.411  4.4944 -1.3856  0.8550
  602MOL0     H81223   9.144   5.417   9.566 -3.1701  2.0689  1.2230
  602MOL0     H81224   8.968   5.556   9.350 -1.3685  2.8475  0.9455
  602MOL0     H81225   8.995   5.603   9.514  0.3845  0.4050 -1.0386
  602MOL0     H81226   8.890   5.435   9.612  1.0469 -0.4249 -0.6697
  602MOL0     H81227   8.893   5.320   9.481  1.1526 -0.8295  0.6375
  602MOL0     H81228   8.728   5.566   9.512  0.6540 -1.0572  1.6418
  602MOL0     H81229   8.671   5.400   9.522 -1.1180  1.1967 -0.7739
  602MOL0     H81230   8.597   5.435   9.091  1.0723  3.0992  1.6411
  602MOL0     H81231   8.290   5.513   8.947 -1.1134 -0.7749 -0.4041
  602MOL0     H81232   8.446   5.421   8.920 -0.1930  4.5080 -0.3411
  602MOL0     H81233   8.299   5.338   8.971 -2.1214  1.1479 -0.0767
  602MOL0     H81234   7.918   5.641   9.093 -0.6580 -0.5451  2.7367
  602MOL0     H81235   7.684   5.630   9.007 -2.9350 -1.8289  0.6259
  602MOL0     H81236   7.381   5.368   8.974  0.6658 -0.7649  3.4241
  602MOL0     H81237   7.488   5.471   9.075 -0.5484 -1.2783  0.9825
  602MOL0     H81238   7.451   5.671   8.942 -1.8080  1.4664 -2.8217
  602MOL0     H81239   7.392   5.565   8.811  3.4171 -1.1414 -0.2179
  602MOL0     H81240   7.241   5.619   9.060  1.4909 -1.5722  1.1732
  602MOL0     H81241   7.193   5.506   8.925 -0.8004  0.7393  1.9816
  602MOL0     H81242   7.225   5.818   8.904 -0.2224  0.2755  0.4939
  602MOL0     H81243   7.218   5.702   8.770  0.3834 -0.3946 -0.7784
  602MOL0     H81244   7.007   5.739   8.993  3.0377 -0.3725  0.4051
  602MOL0     H81245   6.994   5.634   8.847  1.3398 -0.5860  0.6357
  602MOL0     H81246   7.032   5.925   8.823  2.1920 -2.3982  0.1208
  602MOL0     H81247   7.002   5.822   8.694 -1.2515  0.5885 -0.4052
  602MOL0     H81248   6.797   5.944   8.757 -0.5340 -1.5031 -0.8710
  602MOL0     H81249   6.801   5.889   8.922  0.4592 -2.5666  1.0910
  602MOL0     H81250   6.762   5.697   8.697  1.1133 -0.5866  0.2920
  602MOL0     H81251   6.629   5.759   8.803  0.2487 -1.1827  1.9503
  602MOL0     H81252   7.752   5.233   8.865  2.1364  0.4971 -1.9783
  602MOL0     H81253   7.976   5.234   8.966  1.0219  0.6832 -1.1582
  602MOL0     H81254   8.264   5.584   9.407 -0.8468 -0.9225  0.1466
  602MOL0     H81255   8.496   5.543   9.482 -3.7728 -0.1404  1.1705
  602MOL0     H81256  10.499   5.206   9.286 -0.9796 -0.9424  0.1498
  602MOL0     H81257  10.719   5.107   9.279  1.6788  0.6563 -0.8737
  602MOL0     H81258  11.051   4.844   9.187 -0.2736 -1.0184 -0.3224
  602MOL0     H81259  11.288   4.825   9.199 -2.1117 -0.7319  0.9649
  602MOL0     H81260  11.520   4.823   9.178 -2.9411  3.2935 -1.1170
  602MOL0     H81261  11.478   4.708   9.065 -1.0933  1.3821  0.9762
  602MOL0     H81262  11.717   4.911   9.058  1.1461 -0.4271 -0.2377
  602MOL0     H81263  11.681   4.788   8.925  0.8436  2.5219 -0.6483
  602MOL0     H81264  11.777   4.622   9.056 -4.0583  0.3396 -1.8695
  602MOL0     H81265  11.725   4.708   9.200  1.3247 -0.6665  0.7324
  602MOL0     H81266  11.969   4.694   9.176 -0.1033 -2.4756 -1.5066
  602MOL0     H81267  11.920   4.863   9.171  0.7555 -0.6315  0.4772
  602MOL0     H81268  12.041   4.786   8.764  0.5086 -0.3101 -0.7027
  602MOL0     H81269  11.315   5.049   8.836 -0.6301  1.1837 -0.2473
  602MOL0     H81270  11.094   5.099   8.843 -2.7205 -0.5876  1.0362
  603MOL0     O81271   3.644  10.267   3.997 -0.0798 -0.3393 -0.2106
  603MOL0     C81272   3.712  10.193   3.935 -0.0534 -0.0305 -0.3243
  603MOL0     O81273   3.676  10.092   3.853  0.4899  0.0541  0.5699
  603MOL0     C81274   3.555  10.077   3.795 -0.1577  0.2034 -0.1274
  603MOL0     C81275   3.536   9.946   3.738 -0.1306 -0.8946  0.0759
  603MOL0     C81276   3.415   9.918   3.672  0.2517  1.1044 -0.8979
  603MOL0     C81277   3.312  10.002   3.686  0.3772  0.5057  0.4460
  603MOL0     O81278   3.190   9.963   3.631  0.0702 -0.0862 -0.1945
  603MOL0     C81279   3.128  10.063   3.553 -0.1869  0.4210  0.1038
  603MOL0     C81280   3.050   9.976   3.447  0.7616 -0.3715  0.1367
  603MOL0     C81281   3.014  10.066   3.325  0.7122  0.0092 -0.3783
  603MOL0     C81282   2.929   9.996   3.220  0.5103  0.5876 -0.4550
  603MOL0     C81283   2.897  10.086   3.095  0.4712 -0.1867 -0.0512
  603MOL0     C81284   2.862   9.999   2.977  0.3763 -0.3136  0.6552
  603MOL0     C81285   2.782  10.082   2.870  0.2256 -0.2466 -0.7844
  603MOL0     C81286   2.691   9.992   2.783 -0.2937  0.1222  0.1783
  603MOL0     N81287   2.617  10.062   2.680  0.4586 -0.6384  0.3440
  603MOL0     C81288   2.657  10.164   2.597 -0.7345  0.3251  0.3448
  603MOL0     C81289   2.554  10.195   2.519  0.9015 -0.5309  0.4671
  603MOL0     C81290   2.550  10.312   2.415 -0.5602  0.4764  0.2828
  603MOL0     C81291   2.454  10.308   2.289  0.2654 -0.2459 -1.0401
  603MOL0     C81292   2.415  10.174   2.236  1.0038  0.0377 -0.2396
  603MOL0     C81293   2.401  10.177   2.081 -0.6392 -0.0313 -0.4932
  603MOL0     O81294   2.305  10.282   2.052  0.1751  0.2545 -1.0416
  603MOL0     C81295   2.176  10.247   2.022 -0.1997 -0.1444 -1.0237
  603MOL0     C81296   2.114  10.122   2.013  0.2770  0.4322  0.0962
  603MOL0     C81297   1.974  10.115   1.996 -0.1100  0.9139  0.8447
  603MOL0     C81298   1.919   9.966   2.004  0.1657  0.1139  0.4050
  603MOL0     C81299   1.904  10.232   1.961 -0.4937 -0.2237  0.3163
  603MOL0     C81300   1.760  10.235   1.921  0.4817 -0.3808  0.3296
  603MOL0     O81301   1.709  10.357   1.874 -0.2781 -0.6121 -0.2268
  603MOL0     C81302   1.576  10.363   1.865  0.3958 -0.2118 -0.6828
  603MOL0     C81303   1.508  10.356   1.742 -0.3335  0.5795  0.3654
  603MOL0     C81304   1.366  10.364   1.734 -0.4429  0.3153 -0.0291
  603MOL0     C81305   1.293  10.375   1.852  0.4785  0.1120 -0.0615
  603MOL0     O81306   1.158  10.387   1.836  0.3871  0.3542 -0.0508
  603MOL0     C81307   1.075  10.431   1.941 -0.0845 -0.6890 -0.0598
  603MOL0     C81308   0.933  10.464   1.889  0.0142 -0.2524  0.1930
  603MOL0     C81309   0.910  10.597   1.823  0.0733  0.3712  0.6758
  603MOL0     C81310   0.771  10.604   1.761  0.7973 -0.3489 -0.4752
  603MOL0     C81311   0.734  10.726   1.678  0.5772 -0.2990 -0.1649
  603MOL0     C81312   0.582  10.716   1.638 -0.8279 -0.5539  0.2095
  603MOL0     C81313   0.543  10.857   1.591  0.2260 -0.1006  0.1975
  603MOL0     C81314   0.387  10.887   1.569  0.1244  0.1301 -0.0844
  603MOL0    Cl81315   0.297  10.875   1.723  0.0393  0.3311  0.2625
  603MOL0     C81316   1.362  10.385   1.972  0.3198 -0.1424  0.2965
  603MOL0     C81317   1.503  10.377   1.981  0.3886  0.2314  0.6895
  603MOL0     O81318   1.692  10.138   1.949  0.0491 -0.1495  0.2046
  603MOL0     C81319   1.965  10.364   1.978 -0.5163 -1.0345  0.2411
  603MOL0     C81320   2.099  10.365   2.007 -0.4610  0.7810 -0.0776
  603MOL0     N81321   2.440  10.125   2.574  0.5217  0.5267 -0.6996
  603MOL0     N81322   2.486  10.045   2.661  0.2373  0.7595 -0.0840
  603MOL0     C81323   3.324  10.124   3.756  0.2599 -0.1862  0.8746
  603MOL0     C81324   3.444  10.167   3.810  0.0502  0.0964 -0.0105
  603MOL0     C81325   3.856  10.204   3.973  0.4987  0.4281 -0.6915
  603MOL0     C81326   3.920  10.301   4.051 -0.3384 -0.0760  0.5170
  603MOL0     C81327   4.058  10.319   4.061 -0.7698 -0.2574 -0.0630
  603MOL0     C81328   4.142  10.228   4.004 -0.4023 -0.0232 -0.3158
  603MOL0     O81329   4.278  10.250   4.017 -0.7536 -0.1505 -0.5948
  603MOL0     C81330   4.357  10.185   3.914  0.2021  0.6376 -0.5378
  603MOL0     C81331   4.474  10.266   3.866 -0.2966  0.1240 -0.3162
  603MOL0     C81332   4.422  10.392   3.802  0.8816  0.2122  1.0172
  603MOL0     C81333   4.539  10.486   3.778  0.0630 -0.7644 -0.2941
  603MOL0     C81334   4.644  10.430   3.689 -0.1273  0.0988 -0.8517
  603MOL0     C81335   4.739  10.404   3.620 -0.7112  0.1974  0.4492
  603MOL0     C81336   4.084  10.114   3.945  0.1959  0.7139  0.0832
  603MOL0     C81337   3.941  10.103   3.931  0.1383 -1.1416  0.8471
  603MOL0     H81338   3.612   9.870   3.726 -1.1501 -2.0068  0.4023
  603MOL0     H81339   3.400   9.818   3.633  1.0797  0.0877  1.2366
  603MOL0     H81340   3.058  10.126   3.610  0.6470  1.6684 -0.2042
  603MOL0     H81341   3.203  10.130   3.511  0.4077 -0.1138  0.3017
  603MOL0     H81342   3.102   9.887   3.411 -0.6744 -1.9442  1.7427
  603MOL0     H81343   2.956   9.948   3.497  0.1691 -1.1263 -1.3577
  603MOL0     H81344   2.957  10.151   3.363  3.2497  0.8672  1.7898
  603MOL0     H81345   3.107  10.103   3.284  1.6832 -0.7725  1.0287
  603MOL0     H81346   2.968   9.895   3.203  1.9522  1.0507 -0.1051
  603MOL0     H81347   2.830   9.983   3.262  1.3601 -0.7350  1.2553
  603MOL0     H81348   2.806  10.136   3.127 -1.6772 -2.6389 -1.9564
  603MOL0     H81349   2.971  10.163   3.071 -1.1579  1.3303 -0.3898
  603MOL0     H81350   2.955   9.962   2.932  0.3550  0.9291 -0.4486
  603MOL0     H81351   2.801   9.915   3.010 -3.2327  0.7256 -2.6243
  603MOL0     H81352   2.714  10.148   2.924 -0.6601 -1.1402 -0.7839
  603MOL0     H81353   2.849  10.148   2.814 -0.2159  0.0879 -0.9272
  603MOL0     H81354   2.618   9.940   2.847  0.0829 -0.2161  0.3335
  603MOL0     H81355   2.749   9.907   2.746 -0.7442 -1.7685  3.3860
  603MOL0     H81356   2.761  10.195   2.592 -0.5926 -0.1597  0.2946
  603MOL0     H81357   2.527  10.398   2.478  2.0390  2.3415 -1.1228
  603MOL0     H81358   2.646  10.314   2.363 -0.8991 -1.6700 -0.5302
  603MOL0     H81359   2.509  10.357   2.208 -3.4968  0.9730 -3.1112
  603MOL0     H81360   2.369  10.372   2.317 -0.3392 -1.6529  0.4824
  603MOL0     H81361   2.323  10.137   2.282 -1.0522  0.3378 -3.8200
  603MOL0     H81362   2.497  10.104   2.256  2.4200  2.1509  2.0347
  603MOL0     H81363   2.368  10.081   2.041  0.6644 -1.0771  0.8144
  603MOL0     H81364   2.500  10.200   2.040 -0.0396 -1.5443  0.0129
  603MOL0     H81365   2.164  10.032   2.046 -0.8370  0.4088  1.8864
  603MOL0     H81366   1.832   9.943   1.942  1.3143 -0.3819 -1.0635
  603MOL0     H81367   1.990   9.894   1.964 -2.4387 -2.5817  0.2809
  603MOL0     H81368   1.901   9.951   2.111 -2.1154 -0.5271 -0.0146
  603MOL0     H81369   1.555  10.344   1.645 -0.1554  0.6068  0.4479
  603MOL0     H81370   1.322  10.361   1.634 -0.5115 -0.5606  0.0201
  603MOL0     H81371   1.080  10.347   2.011 -1.6668  1.3380  2.7168
  603MOL0     H81372   1.117  10.518   1.993 -0.7783 -0.8453  0.7976
  603MOL0     H81373   0.911  10.391   1.810 -1.5056 -0.3410  0.6767
  603MOL0     H81374   0.860  10.447   1.969 -2.3515  0.8255 -1.6124
  603MOL0     H81375   0.979  10.604   1.739  1.4703 -1.9106  1.5428
  603MOL0     H81376   0.911  10.681   1.894 -0.4608  0.4355  0.6130
  603MOL0     H81377   0.767  10.519   1.693  0.6723 -1.4283  0.8413
  603MOL0     H81378   0.697  10.584   1.839  0.8880 -1.9730 -0.7818
  603MOL0     H81379   0.792  10.734   1.585  0.6870  0.1991 -0.0551
  603MOL0     H81380   0.755  10.823   1.725  1.4779 -1.1202  1.2141
  603MOL0     H81381   0.581  10.643   1.556  2.1942 -1.6707  1.0397
  603MOL0     H81382   0.513  10.678   1.714  0.4460 -0.6161  1.3844
  603MOL0     H81383   0.601  10.890   1.504  1.5483  0.7802  1.3754
  603MOL0     H81384   0.579  10.930   1.663 -2.6127  0.3699  1.2853
  603MOL0     H81385   0.346  10.817   1.496  2.2675 -0.3684 -0.8769
  603MOL0     H81386   0.375  10.990   1.532 -2.1894 -0.2452 -0.5274
  603MOL0     H81387   1.303  10.391   2.064 -0.7766 -1.2898 -0.2958
  603MOL0     H81388   1.569  10.384   2.067  2.7697  1.0421 -1.1071
  603MOL0     H81389   1.920  10.463   1.973  3.5617  0.9690 -3.2533
  603MOL0     H81390   2.147  10.461   2.022  3.6973 -0.6803 -2.4862
  603MOL0     H81391   3.238  10.191   3.762  2.5222  3.2648 -1.8532
  603MOL0     H81392   3.458  10.263   3.858  0.9823 -0.2946  0.5262
  603MOL0     H81393   3.857  10.366   4.110 -0.7771 -0.9284  1.0066
  603MOL0     H81394   4.103  10.397   4.122 -0.7221  0.8357 -1.4584
  603MOL0     H81395   4.376  10.082   3.946  1.8515  0.6418 -1.3972
  603MOL0     H81396   4.297  10.157   3.827 -1.0400 -0.4772  0.6432
  603MOL0     H81397   4.541  10.207   3.803 -0.2933 -0.7338  0.4680
  603MOL0     H81398   4.528  10.297   3.956 -1.1055  2.9510 -0.7081
  603MOL0     H81399   4.339  10.441   3.854 -0.4289 -0.3349 -0.4927
  603MOL0     H81400   4.373  10.375   3.706 -2.3349  1.0362  2.3888
  603MOL0     H81401   4.587  10.504   3.875 -0.5725 -2.0363  0.2757
  603MOL0     H81402   4.499  10.575   3.729 -0.6982 -2.2387 -2.5145
  603MOL0     H81403   4.823  10.366   3.566 -1.1724  1.7123 -1.4566
  603MOL0     H81404   4.132  10.034   3.890  1.1193  0.1222  1.6767
  603MOL0     H81405   3.903  10.016   3.879 -2.4998 -0.8226  2.1032
  604MOL0     O81406   7.796   0.225   2.306 -0.1742  0.8831 -0.9093
  604MOL0     C81407   7.899   0.161   2.273  0.6106 -0.0632 -0.3194
  604MOL0     O81408   7.921   0.086   2.161  0.3012 -0.5394  0.3264
  604MOL0     C81409   7.821   0.082   2.065  0.0565  0.4087  0.3978
  604MOL0     C81410   7.864   0.110   1.939  0.1056 -0.5039  0.9039
  604MOL0     C81411   7.772   0.110   1.828 -0.7357 -1.3913 -0.1125
  604MOL0     C81412   7.639   0.084   1.857  0.3466  0.6160  0.6216
  604MOL0     O81413   7.540   0.079   1.765 -0.2244 -0.2787 -0.3588
  604MOL0     C81414   7.565   0.127   1.635  0.6744 -0.0859  0.4670
  604MOL0     C81415   7.422   0.141   1.570  0.8221  0.1304 -0.2526
  604MOL0     C81416   7.358   0.009   1.524  0.0418 -0.0440 -0.8730
  604MOL0     C81417   7.240   0.035   1.433 -0.2382 -0.2610  0.2035
  604MOL0     C81418   7.113   0.066   1.506 -0.0910  0.6269  0.1483
  604MOL0     C81419   7.004   0.073   1.401  0.1079  0.5362  0.5300
  604MOL0     C81420   6.870   0.081   1.488  0.7283 -0.3108  0.3596
  604MOL0     C81421   6.755   0.131   1.406  0.0362 -0.4011 -1.0144
  604MOL0     N81422   6.631   0.131   1.482  0.1545 -1.0218 -0.1485
  604MOL0     C81423   6.589   0.217   1.578  0.0896 -0.1188 -0.0047
  604MOL0     C81424   6.489   0.148   1.646 -0.3584 -0.1650  0.4584
  604MOL0     C81425   6.404   0.208   1.749  0.5151  0.8193  0.1010
  604MOL0     C81426   6.370   0.353   1.723  0.0724 -0.3780 -0.4580
  604MOL0     C81427   6.300   0.384   1.594 -0.2851 -0.7694  0.4253
  604MOL0     C81428   6.278   0.533   1.575  0.2589  0.1918 -0.4202
  604MOL0     O81429   6.210   0.607   1.681  0.7982  0.5556  0.1931
  604MOL0     C81430   6.093   0.564   1.733 -0.1478  0.2026  0.1830
  604MOL0     C81431   6.075   0.577   1.874  0.6354 -0.3506  0.0234
  604MOL0     C81432   5.956   0.529   1.937  0.3877 -0.0061 -0.6567
  604MOL0     C81433   5.966   0.532   2.087 -0.0181 -0.7119 -0.0063
  604MOL0     C81434   5.841   0.484   1.861  1.0210 -0.2306 -0.5994
  604MOL0     C81435   5.717   0.429   1.917  0.4688  0.1484 -0.0818
  604MOL0     O81436   5.614   0.389   1.834 -0.3234  0.0113 -0.1038
  604MOL0     C81437   5.489   0.382   1.884 -1.0523 -0.3724  0.3973
  604MOL0     C81438   5.416   0.262   1.871  0.2663 -0.5408  0.2186
  604MOL0     C81439   5.282   0.262   1.919 -0.3263  0.4118 -0.5801
  604MOL0     C81440   5.221   0.380   1.966  0.7293 -0.1616 -0.1301
  604MOL0     O81441   5.084   0.390   1.986  0.0211 -0.1342 -0.2198
  604MOL0     C81442   4.997   0.280   1.997  0.9653  0.1942  0.1659
  604MOL0     C81443   4.843   0.289   1.973  0.3203  0.2164  0.2339
  604MOL0     C81444   4.768   0.377   2.081 -0.6984 -0.0949 -0.2775
  604MOL0     C81445   4.612   0.370   2.055  0.1510  0.3510 -0.1586
  604MOL0     C81446   4.523   0.445   2.155  0.4945 -0.1897  0.3050
  604MOL0     C81447   4.549   0.594   2.156  0.1175  1.1685  0.6476
  604MOL0     C81448   4.440   0.680   2.226  0.4618 -0.3879 -0.3773
  604MOL0     C81449   4.306   0.693   2.161  0.8833  0.1605  0.5218
  604MOL0    Cl81450   4.186   0.771   2.273  0.4413  0.1656 -0.7573
  604MOL0     C81451   5.303   0.491   1.992  0.8044  0.7981 -0.1972
  604MOL0     C81452   5.439   0.493   1.951 -0.1899  0.1908  0.9842
  604MOL0     O81453   5.718   0.401   2.033  0.4587  0.5079 -0.1450
  604MOL0     C81454   5.860   0.479   1.730 -0.2055 -0.3735  0.3209
  604MOL0     C81455   5.979   0.516   1.657 -0.6664 -0.2134  0.2580
  604MOL0     N81456   6.464   0.032   1.581  1.5250  0.1257  0.2554
  604MOL0     N81457   6.546   0.024   1.485 -0.2181 -0.3531 -0.7037
  604MOL0     C81458   7.597   0.057   1.985  0.0689  0.2707  0.1662
  604MOL0     C81459   7.688   0.059   2.090 -0.3756 -0.0342  0.3661
  604MOL0     C81460   8.017   0.162   2.362  0.2516  0.1284 -0.3323
  604MOL0     C81461   8.007   0.213   2.494  0.6984  1.0386 -0.2273
  604MOL0     C81462   8.118   0.227   2.574  0.0002  0.5933 -0.2705
  604MOL0     C81463   8.237   0.177   2.537 -0.9610  0.4677 -0.2301
  604MOL0     O81464   8.331   0.186   2.640  0.5863  0.0708  0.6195
  604MOL0     C81465   8.471   0.155   2.607 -0.3492  0.5685 -0.2202
  604MOL0     C81466   8.561   0.211   2.725  0.5669 -0.0987  0.0722
  604MOL0     C81467   8.709   0.174   2.689  0.0581 -0.3017  0.4541
  604MOL0     C81468   8.816   0.207   2.796  0.2616 -0.1337  0.5880
  604MOL0     C81469   8.935   0.140   2.744 -0.7989 -0.0546  0.2798
  604MOL0     C81470   9.039   0.085   2.707  1.3284  0.2299  0.1540
  604MOL0     C81471   8.255   0.119   2.408 -0.5625 -0.1199  0.5274
  604MOL0     C81472   8.145   0.117   2.321 -0.1211  0.1410  0.0913
  604MOL0     H81473   7.966   0.140   1.918 -1.4570  3.3877 -2.5753
  604MOL0     H81474   7.800   0.132   1.725  0.3961 -0.2531  0.4078
  604MOL0     H81475   7.621   0.220   1.630  1.1032 -0.0668  3.5448
  604MOL0     H81476   7.621   0.049   1.582 -0.0622  0.6980 -1.5548
  604MOL0     H81477   7.354   0.188   1.642  1.0141 -1.9877  1.4374
  604MOL0     H81478   7.427   0.211   1.487  0.8999  1.6312  0.9663
  604MOL0     H81479   7.432  -0.051   1.470  1.4070  1.5997 -0.8979
  604MOL0     H81480   7.320  -0.049   1.608 -2.2691  0.4743 -1.4729
  604MOL0     H81481   7.258   0.114   1.359  1.2431  0.2549  1.0962
  604MOL0     H81482   7.215  -0.052   1.371 -1.3203 -0.7966  1.3338
  604MOL0     H81483   7.088  -0.013   1.578 -1.6524 -0.4894 -1.5073
  604MOL0     H81484   7.113   0.160   1.563  0.6649  0.8933 -0.2833
  604MOL0     H81485   7.023   0.157   1.333  0.9301  0.9499  1.2453
  604MOL0     H81486   6.995  -0.020   1.345 -2.9100  0.3946  1.0597
  604MOL0     H81487   6.853  -0.019   1.529  0.5208 -0.1062  0.7765
  604MOL0     H81488   6.881   0.149   1.573 -1.3458  0.4898  0.0382
  604MOL0     H81489   6.745   0.076   1.311  0.5391  0.4911 -1.5926
  604MOL0     H81490   6.777   0.233   1.372  0.2465  0.8384  2.4361
  604MOL0     H81491   6.631   0.313   1.608 -0.7650  1.5289 -3.5576
  604MOL0     H81492   6.314   0.146   1.758 -0.6263  2.3532 -0.2263
  604MOL0     H81493   6.465   0.205   1.840 -1.4841 -0.4329  1.4894
  604MOL0     H81494   6.458   0.417   1.733 -1.9183  2.3081  1.4589
  604MOL0     H81495   6.295   0.383   1.797  2.0817  1.0500  1.1054
  604MOL0     H81496   6.204   0.332   1.586 -1.0521  0.9052 -3.2966
  604MOL0     H81497   6.352   0.349   1.505  1.7170  1.3326  0.6967
  604MOL0     H81498   6.235   0.557   1.477 -2.5172  2.5917  1.2057
  604MOL0     H81499   6.382   0.566   1.563  0.4626 -0.1161  0.4247
  604MOL0     H81500   6.159   0.620   1.927  3.0074 -0.6297 -3.1714
  604MOL0     H81501   6.047   0.599   2.116 -0.2386  0.2531 -1.5299
  604MOL0     H81502   5.869   0.552   2.135  1.4500  0.8875  2.5408
  604MOL0     H81503   5.989   0.435   2.131  0.2582 -0.8460 -0.4411
  604MOL0     H81504   5.474   0.177   1.836 -0.0345 -0.8204  0.3897
  604MOL0     H81505   5.237   0.165   1.904  1.7722 -0.3169 -2.8567
  604MOL0     H81506   5.028   0.205   1.923  2.2915  0.3426  0.5521
  604MOL0     H81507   4.996   0.241   2.099 -3.8925 -1.8042 -0.3730
  604MOL0     H81508   4.826   0.330   1.873  3.7208 -1.2763 -1.1269
  604MOL0     H81509   4.797   0.190   1.978 -0.1631  0.3872 -0.6855
  604MOL0     H81510   4.818   0.474   2.085 -0.6578 -0.1305  3.0401
  604MOL0     H81511   4.783   0.337   2.182 -2.0232 -0.7416 -0.3189
  604MOL0     H81512   4.601   0.403   1.951 -1.4666  1.3458  0.3031
  604MOL0     H81513   4.575   0.268   2.065  0.3484  0.5057  2.9132
  604MOL0     H81514   4.527   0.407   2.258  0.2158  0.9471  0.7608
  604MOL0     H81515   4.423   0.427   2.116  0.8386 -0.3413 -0.5119
  604MOL0     H81516   4.642   0.611   2.210  1.0296  0.9863 -0.8020
  604MOL0     H81517   4.556   0.624   2.051 -3.9438 -0.1627 -0.1884
  604MOL0     H81518   4.484   0.780   2.235  0.0035 -0.3484  1.9259
  604MOL0     H81519   4.448   0.644   2.329  0.0625  1.0250  0.1747
  604MOL0     H81520   4.275   0.593   2.131 -0.0769  0.6786 -0.2581
  604MOL0     H81521   4.315   0.754   2.071 -2.1756  0.5842  0.4197
  604MOL0     H81522   5.260   0.579   2.038  0.9329  0.5085  0.4823
  604MOL0     H81523   5.511   0.572   1.967  1.0631 -0.8083  0.4435
  604MOL0     H81524   5.781   0.447   1.662  0.3737 -1.0802 -0.0333
  604MOL0     H81525   5.988   0.522   1.549 -1.9069  1.4125  0.2130
  604MOL0     H81526   7.492   0.043   2.012  1.2658 -1.8023  4.6045
  604MOL0     H81527   7.651   0.043   2.191 -0.3968  0.6784  0.4764
  604MOL0     H81528   7.914   0.246   2.538  0.9427 -0.6946  1.7596
  604MOL0     H81529   8.095   0.269   2.672  1.1995 -2.2659  1.3648
  604MOL0     H81530   8.473   0.046   2.594  1.1612  0.4866  0.5032
  604MOL0     H81531   8.498   0.206   2.515  0.4997 -2.3583 -1.7016
  604MOL0     H81532   8.527   0.177   2.824 -3.0376 -1.6087 -1.5027
  604MOL0     H81533   8.547   0.319   2.728  0.4386  0.1440 -3.9396
  604MOL0     H81534   8.733   0.225   2.596 -0.0549  0.4575  0.8396
  604MOL0     H81535   8.710   0.067   2.665 -1.9628 -0.5812  1.4025
  604MOL0     H81536   8.789   0.165   2.894  1.8222 -0.1043  1.0657
  604MOL0     H81537   8.833   0.315   2.805  3.9333 -0.6230  0.9426
  604MOL0     H81538   9.134   0.044   2.677  2.2165  1.2832  1.3927
  604MOL0     H81539   8.347   0.068   2.379 -0.0679  0.4698  1.0372
  604MOL0     H81540   8.162   0.077   2.222 -2.2321 -2.4786  0.6652
  605MOL0     O81541   3.673   1.584   0.756  0.7718 -0.2941 -0.2331
  605MOL0     C81542   3.719   1.554   0.650 -0.6090  0.2626 -0.0407
  605MOL0     O81543   3.652   1.538   0.529  0.6525 -0.0328  0.2179
  605MOL0     C81544   3.516   1.550   0.545  0.2228 -0.0346  0.1903
  605MOL0     C81545   3.451   1.667   0.596 -0.2108 -0.3936 -0.6193
  605MOL0     C81546   3.308   1.665   0.612 -0.3384 -0.5925  0.2343
  605MOL0     C81547   3.230   1.555   0.572  0.5158 -0.2645 -0.1407
  605MOL0     O81548   3.090   1.566   0.590 -0.5488 -0.7474  0.4923
  605MOL0     C81549   3.009   1.485   0.512  0.3317  0.8684  0.6259
  605MOL0     C81550   2.868   1.554   0.530 -0.2591 -0.1067  0.3020
  605MOL0     C81551   2.754   1.476   0.467 -0.2625  0.1143  0.6560
  605MOL0     C81552   2.726   1.329   0.520 -0.4664 -0.7102 -0.5641
  605MOL0     C81553   2.622   1.252   0.441  0.5533  0.0327 -0.5477
  605MOL0     C81554   2.655   1.226   0.295 -0.0917  0.6055  1.0843
  605MOL0     C81555   2.555   1.138   0.224 -0.1389 -0.1450 -0.2594
  605MOL0     C81556   2.595   0.995   0.229  0.2003 -0.4630  0.5547
  605MOL0     N81557   2.500   0.899   0.180  0.5088  0.2644  0.0547
  605MOL0     C81558   2.395   0.928   0.093 -0.1760 -0.0012  0.8310
  605MOL0     C81559   2.325   0.818   0.070 -0.8112  0.6446  0.1384
  605MOL0     C81560   2.194   0.800   0.005  0.1507  0.2359  0.3154
  605MOL0     C81561   2.207   0.799  -0.144 -0.4194 -0.7431 -0.0444
  605MOL0     C81562   2.067   0.785  -0.208  0.3911 -0.4178 -0.2297
  605MOL0     C81563   2.089   0.806  -0.360  0.7572 -0.7362 -0.7715
  605MOL0     O81564   1.960   0.804  -0.424 -0.3080  0.3287  0.1966
  605MOL0     C81565   1.892   0.679  -0.434 -0.1017 -0.6042  0.2220
  605MOL0     C81566   1.954   0.560  -0.437 -0.2156  0.1400 -0.4288
  605MOL0     C81567   1.881   0.435  -0.467  0.1579 -0.3527 -0.1368
  605MOL0     C81568   1.961   0.308  -0.450 -0.4888  0.2005  0.6303
  605MOL0     C81569   1.735   0.438  -0.482 -0.4440 -0.8147 -0.4051
  605MOL0     C81570   1.655   0.315  -0.495 -0.0340 -0.2844  0.1313
  605MOL0     O81571   1.531   0.314  -0.445 -0.3807  0.5671  0.0092
  605MOL0     C81572   1.425   0.238  -0.486 -0.5337 -0.1940  0.2360
  605MOL0     C81573   1.415   0.135  -0.582 -0.4623 -0.4349 -0.1296
  605MOL0     C81574   1.296   0.086  -0.630  0.2193  0.6327 -1.0933
  605MOL0     C81575   1.180   0.128  -0.567 -1.0163 -0.1373 -0.5926
  605MOL0     O81576   1.065   0.061  -0.608  0.2474 -0.4363  0.5952
  605MOL0     C81577   0.959   0.161  -0.626  0.6010 -0.1041 -0.1448
  605MOL0     C81578   0.852   0.099  -0.719 -0.5012  0.2716  0.1922
  605MOL0     C81579   0.789  -0.025  -0.659 -0.1959 -0.8837 -0.8501
  605MOL0     C81580   0.696  -0.103  -0.757  0.5177  0.0174 -0.1182
  605MOL0     C81581   0.559  -0.027  -0.777  0.4796 -0.3547  0.2440
  605MOL0     C81582   0.511  -0.082  -0.906 -0.1999 -0.2316  0.1192
  605MOL0     C81583   0.406   0.027  -0.975  0.3239  0.6264 -0.9470
  605MOL0     C81584   0.395   0.015  -1.125 -0.1939 -1.0734  0.1938
  605MOL0    Cl81585   0.244   0.107  -1.169 -0.2337 -0.2039  0.8130
  605MOL0     C81586   1.186   0.203  -0.454  0.6275  0.6605 -0.0957
  605MOL0     C81587   1.305   0.263  -0.418 -0.1006  0.1077  0.0300
  605MOL0     O81588   1.710   0.234  -0.575 -0.6719 -0.1812 -0.0418
  605MOL0     C81589   1.675   0.562  -0.464 -0.2407 -0.5081 -0.0993
  605MOL0     C81590   1.756   0.677  -0.456 -1.0363 -0.1999 -0.3251
  605MOL0     N81591   2.399   0.714   0.123  0.0343 -0.7337 -0.8347
  605MOL0     N81592   2.498   0.758   0.181 -0.7827 -0.3264  0.1430
  605MOL0     C81593   3.293   1.442   0.519  0.2962  0.2249 -0.2930
  605MOL0     C81594   3.429   1.444   0.503 -0.2722 -0.6119  0.0204
  605MOL0     C81595   3.869   1.532   0.646 -0.3469 -0.3368  0.4580
  605MOL0     C81596   3.955   1.561   0.760  0.4280 -0.2372 -0.2640
  605MOL0     C81597   4.095   1.546   0.755 -0.1095  0.0026  0.7206
  605MOL0     C81598   4.155   1.502   0.631 -0.2431  0.1979 -0.1416
  605MOL0     O81599   4.290   1.487   0.605 -0.0547 -0.2610 -0.0124
  605MOL0     C81600   4.384   1.463   0.715  0.1926  0.1488 -0.0743
  605MOL0     C81601   4.529   1.451   0.657  0.1310 -0.4817  0.5309
  605MOL0     C81602   4.628   1.411   0.773 -0.4811 -1.0903  0.3287
  605MOL0     C81603   4.773   1.436   0.720  0.0576 -0.6227 -0.1344
  605MOL0     C81604   4.857   1.471   0.838  0.4871  0.0389 -0.1597
  605MOL0     C81605   4.910   1.495   0.941  0.2544  0.2370 -0.4684
  605MOL0     C81606   4.068   1.467   0.525 -0.3613 -0.3544 -0.1038
  605MOL0     C81607   3.935   1.477   0.527  1.1041 -0.0611 -0.0231
  605MOL0     H81608   3.505   1.758   0.621 -2.1352  0.0983  2.1608
  605MOL0     H81609   3.268   1.756   0.655  1.2051 -0.1536  0.7887
  605MOL0     H81610   3.030   1.494   0.404  0.3003 -1.3354  0.4080
  605MOL0     H81611   3.005   1.380   0.542 -3.1568  0.5713 -0.4432
  605MOL0     H81612   2.846   1.553   0.637  0.9355 -0.8702  0.5668
  605MOL0     H81613   2.869   1.659   0.501  1.3687 -0.0064  0.6197
  605MOL0     H81614   2.660   1.531   0.477  0.8820  2.3141 -0.0359
  605MOL0     H81615   2.786   1.477   0.362  0.1461  1.4553  0.7704
  605MOL0     H81616   2.817   1.268   0.527  0.2373  0.2217 -1.4983
  605MOL0     H81617   2.702   1.324   0.627 -1.5012  4.1312 -0.3365
  605MOL0     H81618   2.605   1.158   0.494  2.5580  0.2286  0.5077
  605MOL0     H81619   2.532   1.313   0.449  0.1452 -0.5988 -0.2161
  605MOL0     H81620   2.649   1.324   0.244  1.6765 -0.7694 -2.0678
  605MOL0     H81621   2.755   1.188   0.275 -0.0955  0.8699  0.5173
  605MOL0     H81622   2.452   1.153   0.257  0.9150 -0.6414  3.8020
  605MOL0     H81623   2.548   1.166   0.119  4.1274  0.7345 -0.4838
  605MOL0     H81624   2.606   0.959   0.332 -1.8464 -0.4587  0.8220
  605MOL0     H81625   2.692   0.987   0.180 -1.1308 -1.2742 -2.1000
  605MOL0     H81626   2.354   1.023   0.059  1.9180  1.5190  2.2460
  605MOL0     H81627   2.147   0.705   0.034 -0.8574  1.3883  2.7133
  605MOL0     H81628   2.135   0.887   0.036  1.2303  0.7581  0.9510
  605MOL0     H81629   2.272   0.716  -0.170 -1.0117 -0.7755 -1.4870
  605MOL0     H81630   2.259   0.890  -0.178  3.0477 -3.1724 -1.8994
  605MOL0     H81631   2.010   0.870  -0.168 -0.1118 -0.1498 -1.4714
  605MOL0     H81632   2.016   0.690  -0.193  2.0357 -1.1234  1.1788
  605MOL0     H81633   2.172   0.744  -0.395  4.4171  1.3378  3.2845
  605MOL0     H81634   2.130   0.906  -0.377  0.9243 -1.3379 -5.4087
  605MOL0     H81635   2.061   0.565  -0.419 -0.1201  2.4436 -1.3618
  605MOL0     H81636   1.893   0.233  -0.410  0.2425 -2.0130 -2.0002
  605MOL0     H81637   1.989   0.278  -0.552 -3.8993  1.5776 -0.8772
  605MOL0     H81638   2.051   0.315  -0.389  1.3615 -0.1071 -1.8930
  605MOL0     H81639   1.510   0.093  -0.614  1.0972  0.6533  2.7918
  605MOL0     H81640   1.295   0.020  -0.717 -0.4325 -1.0810  0.1680
  605MOL0     H81641   0.920   0.181  -0.525 -0.3948  1.3313 -0.7798
  605MOL0     H81642   0.971   0.252  -0.686 -3.5983  0.3173 -0.6849
  605MOL0     H81643   0.776   0.177  -0.731 -0.9699 -0.0468  0.9743
  605MOL0     H81644   0.902   0.069  -0.811  0.2367 -0.8901  0.9412
  605MOL0     H81645   0.727   0.012  -0.576 -0.2973  0.6356 -1.5734
  605MOL0     H81646   0.863  -0.091  -0.614 -0.3301 -0.0185  0.7442
  605MOL0     H81647   0.759  -0.112  -0.846  2.1884  1.4254  0.8561
  605MOL0     H81648   0.675  -0.204  -0.721 -1.3288  0.1613 -0.6852
  605MOL0     H81649   0.563   0.082  -0.787 -0.5417 -0.3763 -0.5740
  605MOL0     H81650   0.498  -0.048  -0.689  2.1484  2.1220  2.1250
  605MOL0     H81651   0.600  -0.076  -0.968 -0.1085 -1.6061  0.0983
  605MOL0     H81652   0.464  -0.181  -0.906 -1.1657  0.2033 -0.9101
  605MOL0     H81653   0.423   0.133  -0.954 -3.6582  0.8991  2.1534
  605MOL0     H81654   0.308   0.006  -0.931  0.5944  1.8917  0.3076
  605MOL0     H81655   0.387  -0.087  -1.164  1.9220 -1.2534  0.0952
  605MOL0     H81656   0.482   0.062  -1.172 -0.2604 -0.1361  0.9662
  605MOL0     H81657   1.103   0.232  -0.391 -0.3714 -0.2770 -0.9331
  605MOL0     H81658   1.304   0.326  -0.330  1.3704 -2.7915  2.3372
  605MOL0     H81659   1.568   0.572  -0.474  0.0318  0.6645 -2.9977
  605MOL0     H81660   1.712   0.776  -0.458  2.1193  1.4847  2.8465
  605MOL0     H81661   3.234   1.356   0.487  0.8581 -0.5470  0.6593
  605MOL0     H81662   3.477   1.356   0.461  1.2319 -0.0632  0.5550
  605MOL0     H81663   3.899   1.600   0.845 -2.3367  0.7641 -2.3926
  605MOL0     H81664   4.150   1.577   0.843 -0.6213  2.2946  0.3124
  605MOL0     H81665   4.381   1.547   0.785  1.6396  1.5081 -1.5476
  605MOL0     H81666   4.355   1.372   0.768  2.8376 -0.6251  0.1597
  605MOL0     H81667   4.560   1.549   0.619 -0.1027  0.0521  1.6904
  605MOL0     H81668   4.536   1.374   0.579  0.6781 -3.0420  2.9703
  605MOL0     H81669   4.622   1.308   0.808  0.5974 -0.8968  1.1402
  605MOL0     H81670   4.614   1.478   0.859  1.2165 -0.9904  0.5758
  605MOL0     H81671   4.776   1.521   0.651 -0.6851  1.1501  1.8916
  605MOL0     H81672   4.812   1.356   0.657  1.8328  1.1898 -1.4791
  605MOL0     H81673   4.952   1.534   1.032 -0.1333 -0.6235  0.0837
  605MOL0     H81674   4.118   1.439   0.432  0.6774 -0.2158  0.4019
  605MOL0     H81675   3.876   1.448   0.441 -1.2084 -1.5339  1.9090
  606MOL0     O81676   2.781   1.527   4.318  0.3066  0.0187 -0.4177
  606MOL0     C81677   2.832   1.485   4.218  0.2132  0.0361 -1.1040
  606MOL0     O81678   2.767   1.447   4.099  0.1779 -0.0238  0.3827
  606MOL0     C81679   2.633   1.442   4.088 -1.0129 -0.3483  0.2941
  606MOL0     C81680   2.548   1.400   4.195 -0.4838 -0.8829  0.8296
  606MOL0     C81681   2.413   1.394   4.160  0.1124  0.7075  0.1333
  606MOL0     C81682   2.354   1.453   4.046  0.0293  0.3898 -0.5468
  606MOL0     O81683   2.218   1.470   4.042  0.2990 -1.1032 -0.1438
  606MOL0     C81684   2.154   1.434   3.919 -1.1902 -0.2783 -0.1444
  606MOL0     C81685   1.998   1.455   3.926  0.1944  0.0432  0.2825
  606MOL0     C81686   1.939   1.356   4.024 -0.4625 -0.1295  0.4424
  606MOL0     C81687   1.912   1.408   4.169 -0.0968  0.5485 -0.6717
  606MOL0     C81688   1.816   1.322   4.241 -0.2655  0.0991 -0.2184
  606MOL0     C81689   1.668   1.351   4.193 -0.2115 -0.4069 -0.0798
  606MOL0     C81690   1.584   1.232   4.249  0.7218 -0.5339  0.0619
  606MOL0     C81691   1.440   1.270   4.228  0.2451  1.1051 -0.0655
  606MOL0     N81692   1.347   1.154   4.260 -0.3844  0.1051  0.3941
  606MOL0     C81693   1.326   1.102   4.378 -0.1584 -0.4149 -0.3484
  606MOL0     C81694   1.232   1.006   4.367 -0.0320 -0.2460 -0.1491
  606MOL0     C81695   1.172   0.924   4.480 -0.5355  0.5071  0.1260
  606MOL0     C81696   1.025   0.970   4.508 -0.3224  0.4159  0.6610
  606MOL0     C81697   0.964   0.918   4.641  0.7459 -0.1021 -0.0666
  606MOL0     C81698   0.830   0.985   4.667 -0.3070 -0.5833  0.0798
  606MOL0     O81699   0.728   0.910   4.609 -0.6044  0.5922  0.4187
  606MOL0     C81700   0.618   0.988   4.589 -0.3806  0.0047  0.3400
  606MOL0     C81701   0.505   0.976   4.666 -0.1296 -0.3560 -0.5306
  606MOL0     C81702   0.393   1.058   4.648  0.1532 -0.0079  0.5953
  606MOL0     C81703   0.263   1.027   4.718  0.1220  0.3389  0.1224
  606MOL0     C81704   0.400   1.170   4.552  1.4928  0.3653  0.6895
  606MOL0     C81705   0.286   1.263   4.516 -0.4712  1.3522 -0.4278
  606MOL0     O81706   0.333   1.355   4.434  0.1145  0.1964  0.0960
  606MOL0     C81707   0.248   1.449   4.387 -0.1562 -0.5410  0.6905
  606MOL0     C81708   0.167   1.406   4.280  0.5885 -0.2485 -0.4001
  606MOL0     C81709   0.066   1.494   4.229  0.0266  1.2965 -0.4915
  606MOL0     C81710   0.029   1.609   4.300 -0.5136 -0.4454  0.5099
  606MOL0     O81711  -0.083   1.664   4.250  0.6137  0.0686 -0.0518
  606MOL0     C81712  -0.146   1.778   4.325 -0.0427 -0.3182 -0.3067
  606MOL0     C81713  -0.244   1.848   4.236  0.4962  0.2130 -0.0573
  606MOL0     C81714  -0.366   1.749   4.210  0.2601 -0.6765  0.5743
  606MOL0     C81715  -0.447   1.818   4.094  0.0150 -0.2787 -0.0086
  606MOL0     C81716  -0.581   1.749   4.072  0.4659  0.5498  0.3677
  606MOL0     C81717  -0.656   1.795   3.946  1.1408 -0.3461 -0.0495
  606MOL0     C81718  -0.605   1.741   3.811  0.4917 -0.4801  0.0991
  606MOL0     C81719  -0.671   1.814   3.698 -0.1786  0.6296 -0.0598
  606MOL0    Cl81720  -0.849   1.832   3.707 -0.0109 -0.5046  0.3118
  606MOL0     C81721   0.112   1.662   4.398  0.6056  0.0753 -0.1573
  606MOL0     C81722   0.221   1.578   4.447 -0.1015  0.3166  0.4940
  606MOL0     O81723   0.169   1.249   4.551 -0.1513 -0.2524  0.0597
  606MOL0     C81724   0.510   1.174   4.463 -0.9109 -0.2241 -0.2703
  606MOL0     C81725   0.617   1.086   4.486 -0.4156  0.4829 -0.5357
  606MOL0     N81726   1.197   1.003   4.239  0.3677 -0.2797  0.0856
  606MOL0     N81727   1.258   1.093   4.176  0.4258 -0.4578 -0.5474
  606MOL0     C81728   2.445   1.495   3.948  0.4126  0.0627  0.2126
  606MOL0     C81729   2.580   1.485   3.969  0.3074 -0.6962  1.3258
  606MOL0     C81730   2.979   1.462   4.222 -0.3721  0.4990 -0.1882
  606MOL0     C81731   3.052   1.389   4.120  0.1443  0.5275 -0.3019
  606MOL0     C81732   3.184   1.347   4.146 -0.2994  0.1223 -0.1716
  606MOL0     C81733   3.254   1.398   4.249 -0.0130 -0.2573  0.3112
  606MOL0     O81734   3.386   1.352   4.261 -0.4529 -0.6925  0.5638
  606MOL0     C81735   3.443   1.371   4.390  0.0362 -0.7123  0.0021
  606MOL0     C81736   3.586   1.319   4.399 -0.6449  0.4436 -0.1710
  606MOL0     C81737   3.598   1.168   4.374 -0.4333  0.1456 -0.3357
  606MOL0     C81738   3.710   1.097   4.447 -0.3608  0.0585 -0.0503
  606MOL0     C81739   3.723   0.961   4.385  0.6397 -0.3165 -0.6454
  606MOL0     C81740   3.738   0.847   4.339  0.1718 -0.1334 -0.2043
  606MOL0     C81741   3.195   1.481   4.342  0.7085 -0.3044 -0.5014
  606MOL0     C81742   3.056   1.503   4.334 -0.5502 -0.0383 -0.0567
  606MOL0     H81743   2.586   1.354   4.286 -0.8526 -2.8924  0.0183
  606MOL0     H81744   2.335   1.367   4.231  1.4030  0.4175  1.4879
  606MOL0     H81745   2.206   1.493   3.843  1.2636  0.8448  2.2191
  606MOL0     H81746   2.173   1.328   3.901  0.7158 -0.4407  2.2783
  606MOL0     H81747   1.981   1.559   3.953 -1.1746  0.3107 -1.4474
  606MOL0     H81748   1.963   1.433   3.825  0.2293  2.6261 -0.3499
  606MOL0     H81749   1.843   1.328   3.981  1.0941  0.6011 -4.0934
  606MOL0     H81750   1.990   1.259   4.022 -2.5600 -1.3072 -2.0976
  606MOL0     H81751   2.005   1.423   4.224 -1.9046  2.1894  2.1493
  606MOL0     H81752   1.870   1.508   4.160  1.3751  1.0010 -4.3077
  606MOL0     H81753   1.852   1.220   4.225 -1.0722 -0.2342  0.0744
  606MOL0     H81754   1.816   1.346   4.347 -3.9740  2.9870 -0.6719
  606MOL0     H81755   1.618   1.439   4.235 -3.3499 -0.4007 -3.3584
  606MOL0     H81756   1.652   1.363   4.086 -4.2058  2.6818  0.6260
  606MOL0     H81757   1.613   1.138   4.201  2.3832 -0.4167  0.7785
  606MOL0     H81758   1.610   1.223   4.355  1.1631  0.4335  0.0411
  606MOL0     H81759   1.425   1.303   4.125  3.7342 -0.1962 -1.1555
  606MOL0     H81760   1.416   1.354   4.293  0.1329  0.6166  0.5379
  606MOL0     H81761   1.369   1.137   4.472 -0.2669 -0.0769 -0.4258
  606MOL0     H81762   1.172   0.820   4.446  2.8307  1.3930 -3.3378
  606MOL0     H81763   1.239   0.952   4.561 -0.9852  1.5252  0.1547
  606MOL0     H81764   0.968   0.951   4.416 -2.2105 -1.0454  2.0591
  606MOL0     H81765   1.032   1.079   4.514 -1.7760  0.8462 -2.8192
  606MOL0     H81766   1.026   0.956   4.723 -0.2482  0.7876  0.2799
  606MOL0     H81767   0.959   0.809   4.656 -0.3087 -0.4155 -2.2263
  606MOL0     H81768   0.828   1.089   4.633 -1.2293  0.1765  2.2898
  606MOL0     H81769   0.806   0.990   4.774 -1.3886 -0.7729 -0.1338
  606MOL0     H81770   0.520   0.900   4.743  1.0019  0.8213  0.4590
  606MOL0     H81771   0.230   1.121   4.763 -0.1997 -0.6986  2.1745
  606MOL0     H81772   0.185   0.985   4.655  2.1442 -2.5316 -0.6890
  606MOL0     H81773   0.296   0.954   4.792  0.6104  0.6399  0.2052
  606MOL0     H81774   0.179   1.303   4.247 -1.6575 -0.7777  0.2536
  606MOL0     H81775  -0.004   1.464   4.152  0.7730  3.1729 -1.9919
  606MOL0     H81776  -0.196   1.740   4.415 -0.4799 -1.6546 -1.0842
  606MOL0     H81777  -0.063   1.845   4.350  0.9103 -0.7320 -2.2119
  606MOL0     H81778  -0.280   1.938   4.287  0.9594  1.1307 -1.2956
  606MOL0     H81779  -0.194   1.879   4.144 -0.5480  0.3978 -0.5793
  606MOL0     H81780  -0.434   1.740   4.295 -2.2801  2.4454 -0.9176
  606MOL0     H81781  -0.333   1.650   4.178  3.2372  0.0967  1.0342
  606MOL0     H81782  -0.469   1.924   4.111 -1.1782 -0.7771  1.8110
  606MOL0     H81783  -0.395   1.809   3.998 -1.4787  1.2996 -1.0266
  606MOL0     H81784  -0.632   1.765   4.168  0.4511 -0.4513  0.5426
  606MOL0     H81785  -0.568   1.642   4.053 -1.3705  0.2885  0.4283
  606MOL0     H81786  -0.759   1.763   3.964  0.9137  1.2498  1.7986
  606MOL0     H81787  -0.659   1.904   3.941 -0.8443 -0.2076  2.2771
  606MOL0     H81788  -0.633   1.635   3.810  0.3976 -0.4998  1.6079
  606MOL0     H81789  -0.496   1.746   3.795  0.3557 -0.5858 -0.9129
  606MOL0     H81790  -0.662   1.741   3.616 -2.2673  1.3874 -1.0407
  606MOL0     H81791  -0.619   1.905   3.667  2.3375 -0.5334  0.5022
  606MOL0     H81792   0.101   1.765   4.430  1.9031  0.0517  0.3795
  606MOL0     H81793   0.290   1.608   4.525  1.6549 -3.6204  0.7072
  606MOL0     H81794   0.523   1.238   4.376  0.1066  0.8186  0.6122
  606MOL0     H81795   0.704   1.085   4.420  1.1668 -1.2360  1.4329
  606MOL0     H81796   2.405   1.546   3.861 -0.5177 -2.3664 -0.8694
  606MOL0     H81797   2.649   1.526   3.895  0.3137  0.8332  2.1396
  606MOL0     H81798   2.996   1.353   4.035 -1.9019 -2.2121  2.0292
  606MOL0     H81799   3.240   1.281   4.081 -0.3022  1.8447 -2.0301
  606MOL0     H81800   3.449   1.476   4.420 -1.1492 -0.5306 -0.3503
  606MOL0     H81801   3.393   1.325   4.476  0.3072 -0.6735  0.1815
  606MOL0     H81802   3.614   1.349   4.500  0.7187 -2.1740  0.3109
  606MOL0     H81803   3.644   1.382   4.330  2.3450 -1.7618  0.1213
  606MOL0     H81804   3.610   1.142   4.269 -0.2770 -1.3518  0.0226
  606MOL0     H81805   3.500   1.123   4.392 -0.5998  1.0466  1.2672
  606MOL0     H81806   3.686   1.087   4.553  3.3914 -1.3827  0.8036
  606MOL0     H81807   3.797   1.162   4.445 -0.9911  0.9026 -1.0821
  606MOL0     H81808   3.748   0.748   4.298  2.6665  0.8104 -2.1149
  606MOL0     H81809   3.250   1.525   4.424  0.8848 -1.7806  0.2006
  606MOL0     H81810   3.017   1.564   4.415 -0.3968  1.2080 -0.8959
  607MOL0     O81811   1.504   2.232   2.407 -0.6481  0.6089 -0.1133
  607MOL0     C81812   1.580   2.256   2.505  0.2543  0.3113 -0.3419
  607MOL0     O81813   1.546   2.253   2.636  0.2108  0.2283 -0.0274
  607MOL0     C81814   1.428   2.184   2.668 -0.2077  0.6762  0.2885
  607MOL0     C81815   1.443   2.086   2.762  0.2822  0.0958  0.2783
  607MOL0     C81816   1.336   2.018   2.805 -0.1504  0.0204  1.0732
  607MOL0     C81817   1.213   2.048   2.773 -0.8170 -0.4118 -0.3289
  607MOL0     O81818   1.108   1.981   2.839 -0.5672 -0.1333  0.0149
  607MOL0     C81819   0.981   2.014   2.804  0.8010  0.1329  0.9700
  607MOL0     C81820   0.886   1.933   2.889 -0.1222  1.4085  0.2605
  607MOL0     C81821   0.752   2.000   2.883  0.1953 -0.0683 -0.4722
  607MOL0     C81822   0.653   1.904   2.957  0.5110  0.2989  0.2275
  607MOL0     C81823   0.505   1.949   2.963  0.3130 -0.7297 -0.3993
  607MOL0     C81824   0.439   1.863   3.075 -0.1585 -1.2206 -0.0069
  607MOL0     C81825   0.296   1.922   3.089 -0.0495 -0.5348  0.0755
  607MOL0     C81826   0.216   1.879   3.205 -0.1153  0.1070  0.1106
  607MOL0     N81827   0.119   1.769   3.183 -0.2315  0.2639 -0.6432
  607MOL0     C81828   0.145   1.659   3.101  0.2577  0.5541 -0.6238
  607MOL0     C81829   0.020   1.600   3.088 -0.0021 -0.1735 -1.1249
  607MOL0     C81830  -0.021   1.484   3.005 -0.9304 -0.6204  0.9385
  607MOL0     C81831  -0.165   1.484   2.971  0.1129  0.6711 -0.5498
  607MOL0     C81832  -0.256   1.398   3.060 -0.4455  0.0393  0.3609
  607MOL0     C81833  -0.403   1.373   3.026 -0.2411  0.2237  0.3371
  607MOL0     O81834  -0.462   1.497   2.997 -0.6011 -0.6512 -0.2271
  607MOL0     C81835  -0.569   1.505   2.908  0.2803 -1.3440  0.1194
  607MOL0     C81836  -0.583   1.632   2.857  1.1229 -0.5448 -0.0430
  607MOL0     C81837  -0.705   1.668   2.784 -0.5020 -0.2364 -0.6573
  607MOL0     C81838  -0.717   1.804   2.739  0.4700 -0.7573  0.4932
  607MOL0     C81839  -0.801   1.566   2.770 -0.0758 -0.4878  0.7000
  607MOL0     C81840  -0.917   1.584   2.674 -1.6015  0.3594 -0.0923
  607MOL0     O81841  -1.021   1.503   2.706 -0.2982  0.0481  0.4286
  607MOL0     C81842  -1.156   1.518   2.676  0.1363 -0.5811  0.2846
  607MOL0     C81843  -1.213   1.637   2.630 -0.1783  0.2351  0.3616
  607MOL0     C81844  -1.351   1.658   2.616 -0.1836 -0.3725  0.1631
  607MOL0     C81845  -1.440   1.548   2.646 -0.4058 -0.0569 -0.9645
  607MOL0     O81846  -1.572   1.575   2.623 -0.8562 -0.3938  0.0768
  607MOL0     C81847  -1.669   1.465   2.639  0.8013  0.7939  0.5121
  607MOL0     C81848  -1.797   1.511   2.573 -0.4733  0.7081 -0.3996
  607MOL0     C81849  -1.914   1.432   2.626  1.3877  0.5242 -1.0182
  607MOL0     C81850  -2.041   1.485   2.549  0.5730 -0.4626  0.1227
  607MOL0     C81851  -2.148   1.380   2.582 -0.5358 -0.5549  0.4248
  607MOL0     C81852  -2.292   1.419   2.535 -0.9890 -0.7185  0.3461
  607MOL0     C81853  -2.399   1.356   2.620  0.1879 -0.1059  1.1672
  607MOL0     C81854  -2.541   1.373   2.553  0.0032 -0.0667 -0.7122
  607MOL0    Cl81855  -2.590   1.542   2.570 -0.0034 -0.1151 -0.3861
  607MOL0     C81856  -1.379   1.429   2.703  0.0483 -0.0968  0.8772
  607MOL0     C81857  -1.239   1.416   2.725  0.3528  1.0044  0.5952
  607MOL0     O81858  -0.920   1.677   2.594 -0.1065  0.0125  0.2820
  607MOL0     C81859  -0.784   1.443   2.841 -0.5069 -0.2630  0.5293
  607MOL0     C81860  -0.663   1.408   2.898  0.5234 -0.3158  0.0125
  607MOL0     N81861  -0.072   1.671   3.168 -0.0824  0.4471  0.7198
  607MOL0     N81862  -0.015   1.769   3.213  0.2860 -0.0439 -0.0308
  607MOL0     C81863   1.187   2.149   2.677 -0.9512 -0.0879  0.2400
  607MOL0     C81864   1.299   2.213   2.623 -0.8335  0.5307 -0.2169
  607MOL0     C81865   1.713   2.314   2.472  0.4997 -0.0974 -0.1701
  607MOL0     C81866   1.744   2.348   2.340  0.2115 -0.1107  0.1242
  607MOL0     C81867   1.874   2.400   2.306  0.2563 -0.5890 -0.1510
  607MOL0     C81868   1.970   2.419   2.402 -0.3321  0.1636 -0.4109
  607MOL0     O81869   2.090   2.474   2.363 -0.3621  0.5468  0.0516
  607MOL0     C81870   2.211   2.409   2.399  0.2410 -0.1127 -0.2172
  607MOL0     C81871   2.305   2.503   2.472 -0.1669 -0.1384 -0.9365
  607MOL0     C81872   2.272   2.535   2.617  0.6456  0.1904 -0.4378
  607MOL0     C81873   2.367   2.631   2.681 -0.4993 -0.1817  0.1780
  607MOL0     C81874   2.502   2.601   2.730  0.8762  0.0250 -0.1245
  607MOL0     C81875   2.616   2.576   2.759  0.4822 -0.3975 -0.5020
  607MOL0     C81876   1.942   2.381   2.543  0.5769 -0.1881  0.2553
  607MOL0     C81877   1.811   2.335   2.569 -0.1055  0.6750 -0.6585
  607MOL0     H81878   1.541   2.068   2.805  1.8394  3.7798 -1.3016
  607MOL0     H81879   1.350   1.935   2.873  0.9951 -0.8774 -0.1853
  607MOL0     H81880   0.960   2.118   2.829  0.2671 -0.1699  1.7875
  607MOL0     H81881   0.949   1.987   2.703 -2.4375 -1.8269  2.3654
  607MOL0     H81882   0.874   1.834   2.844  0.5368  1.8488 -0.9355
  607MOL0     H81883   0.938   1.925   2.985 -0.2370  1.9184  0.3662
  607MOL0     H81884   0.757   2.091   2.945 -0.5766 -0.9953  1.0111
  607MOL0     H81885   0.716   2.016   2.782 -2.5081  0.8826  0.5589
  607MOL0     H81886   0.640   1.806   2.908 -2.0484 -0.1892  1.6922
  607MOL0     H81887   0.680   1.891   3.062 -1.5133  0.1520  0.7657
  607MOL0     H81888   0.505   2.056   2.987 -0.8366 -0.7264 -0.3258
  607MOL0     H81889   0.443   1.927   2.876 -0.6309 -3.2209  0.8024
  607MOL0     H81890   0.437   1.756   3.052  3.4358 -1.6800  1.1967
  607MOL0     H81891   0.493   1.874   3.170  0.1170  2.8173 -0.4285
  607MOL0     H81892   0.311   2.029   3.105 -0.9971 -0.1191 -1.5882
  607MOL0     H81893   0.237   1.922   2.997  0.1725  0.5303 -0.0743
  607MOL0     H81894   0.158   1.969   3.228  2.3106  1.3966  1.6264
  607MOL0     H81895   0.287   1.859   3.286  0.2972 -0.4192 -0.3730
  607MOL0     H81896   0.237   1.625   3.054  0.8655 -0.8468  1.4117
  607MOL0     H81897   0.037   1.489   2.912  1.2496  0.7973  2.2762
  607MOL0     H81898   0.006   1.391   3.056  0.1537 -0.0903  1.3682
  607MOL0     H81899  -0.171   1.445   2.869 -1.8324  1.3201 -0.7234
  607MOL0     H81900  -0.212   1.582   2.971 -3.8297 -1.0268 -0.3615
  607MOL0     H81901  -0.256   1.453   3.155  3.2454  4.0340 -1.6109
  607MOL0     H81902  -0.206   1.300   3.062 -0.3378  0.0255 -1.4745
  607MOL0     H81903  -0.450   1.315   3.106 -2.0382 -1.9514 -2.1023
  607MOL0     H81904  -0.401   1.309   2.937  0.0128  2.3122 -1.2278
  607MOL0     H81905  -0.509   1.708   2.883  0.6494  0.2312 -0.9175
  607MOL0     H81906  -0.694   1.809   2.632  0.4064  2.3038  0.5306
  607MOL0     H81907  -0.813   1.854   2.752  0.5344 -0.3639 -0.4960
  607MOL0     H81908  -0.642   1.867   2.789  3.4361 -1.5718 -2.5713
  607MOL0     H81909  -1.147   1.715   2.593 -1.0165  0.9417  0.3244
  607MOL0     H81910  -1.388   1.753   2.581  0.2715  0.0231  0.7266
  607MOL0     H81911  -1.632   1.378   2.584 -2.4532 -0.6186  0.3237
  607MOL0     H81912  -1.682   1.435   2.743 -2.8887 -1.1584 -0.3412
  607MOL0     H81913  -1.816   1.614   2.606 -0.6584  0.7133 -0.5205
  607MOL0     H81914  -1.793   1.510   2.463  0.0078  1.3430 -0.3972
  607MOL0     H81915  -1.931   1.427   2.734 -1.1893 -0.3851 -1.3996
  607MOL0     H81916  -1.891   1.330   2.595  0.8612 -0.9689  2.8587
  607MOL0     H81917  -2.074   1.583   2.583  0.8501 -0.9475  1.8723
  607MOL0     H81918  -2.026   1.506   2.443 -0.6753 -2.8561 -0.6115
  607MOL0     H81919  -2.153   1.357   2.689  1.4122  1.2025  0.9612
  607MOL0     H81920  -2.111   1.295   2.523 -0.2383 -0.2336  0.1454
  607MOL0     H81921  -2.308   1.527   2.543  0.3859 -0.6167  2.2662
  607MOL0     H81922  -2.301   1.387   2.431  2.0070  4.9524 -2.0839
  607MOL0     H81923  -2.395   1.401   2.720  0.2413  3.2853 -0.2136
  607MOL0     H81924  -2.373   1.251   2.634  1.0869 -0.0738 -0.0863
  607MOL0     H81925  -2.623   1.311   2.590  0.9169 -1.8372 -1.5642
  607MOL0     H81926  -2.519   1.345   2.450  1.2016 -1.6442 -0.0626
  607MOL0     H81927  -1.441   1.344   2.728 -0.9391  0.4956  0.5075
  607MOL0     H81928  -1.205   1.329   2.779  0.3544  0.6530  0.0357
  607MOL0     H81929  -0.860   1.366   2.832  0.7490 -1.5242  0.4280
  607MOL0     H81930  -0.645   1.305   2.926 -2.7941 -1.5063 -1.7026
  607MOL0     H81931   1.087   2.170   2.640 -1.1296 -0.6858  0.3708
  607MOL0     H81932   1.293   2.290   2.547  0.5593  0.4220 -0.4635
  607MOL0     H81933   1.668   2.334   2.264 -0.1677  1.9851  0.0612
  607MOL0     H81934   1.897   2.433   2.205 -3.0148 -1.4439 -1.3108
  607MOL0     H81935   2.181   2.327   2.464 -0.4992  1.1313  1.0424
  607MOL0     H81936   2.263   2.372   2.309  1.4819 -0.1638  0.4928
  607MOL0     H81937   2.336   2.579   2.400  2.9936 -1.2186 -0.8702
  607MOL0     H81938   2.395   2.441   2.478  0.6916  1.1911  1.2230
  607MOL0     H81939   2.276   2.441   2.672  0.3571  0.3306 -0.1729
  607MOL0     H81940   2.177   2.589   2.625  1.4284  1.4446  1.0416
  607MOL0     H81941   2.315   2.665   2.771  2.1516  2.6091  0.8384
  607MOL0     H81942   2.372   2.718   2.616 -0.8259 -0.8605 -0.7775
  607MOL0     H81943   2.720   2.563   2.782  1.1883 -3.0540 -4.2955
  607MOL0     H81944   2.017   2.403   2.617 -0.2260  2.7819  0.2792
  607MOL0     H81945   1.796   2.292   2.668 -0.9903 -0.4628 -1.2503
  608MOL0     O81946   8.812   1.296   5.038 -0.2377  0.4555 -0.7026
  608MOL0     C81947   8.860   1.410   5.046 -1.1694  0.5738 -0.0292
  608MOL0     O81948   8.799   1.527   5.018  0.0380 -0.5942  0.1761
  608MOL0     C81949   8.668   1.525   4.968  0.6059 -0.2197  0.3352
  608MOL0     C81950   8.576   1.609   5.025 -1.0735  0.0630 -0.6762
  608MOL0     C81951   8.439   1.592   4.997 -0.6646  0.4664 -0.3103
  608MOL0     C81952   8.395   1.491   4.901 -0.2745 -0.8792 -0.0729
  608MOL0     O81953   8.264   1.478   4.853  0.4993  0.4627 -0.4314
  608MOL0     C81954   8.170   1.525   4.956  0.1341 -0.7134 -0.0931
  608MOL0     C81955   8.034   1.475   4.907 -0.4941 -0.5871  0.4950
  608MOL0     C81956   8.032   1.323   4.913 -0.6364 -0.0601  0.8495
  608MOL0     C81957   8.035   1.263   5.048 -0.3735  0.1407 -0.1479
  608MOL0     C81958   8.026   1.113   5.042 -0.2475 -0.3135 -0.5423
  608MOL0     C81959   7.887   1.062   5.008  0.4458  0.3722  0.0478
  608MOL0     C81960   7.870   0.919   5.062  0.6676 -0.6350  0.0009
  608MOL0     C81961   7.720   0.867   5.065 -0.1966 -0.2319  0.5148
  608MOL0     N81962   7.678   0.835   4.926  0.0138  0.0470 -0.0484
  608MOL0     C81963   7.600   0.918   4.850 -0.0768  0.6546 -0.5882
  608MOL0     C81964   7.560   0.838   4.750  0.2801  0.4934  0.0336
  608MOL0     C81965   7.475   0.883   4.635  0.2328 -0.5556  0.2436
  608MOL0     C81966   7.332   0.899   4.684 -0.6374  0.2284  0.0297
  608MOL0     C81967   7.273   0.762   4.700  0.1673 -0.2133  0.4297
  608MOL0     C81968   7.125   0.763   4.741 -0.2613  0.3970 -0.4286
  608MOL0     O81969   7.053   0.849   4.660  0.1909 -0.1877  0.0484
  608MOL0     C81970   6.917   0.834   4.650  0.6584  0.2810 -0.0395
  608MOL0     C81971   6.831   0.729   4.697  0.1090 -0.8812 -0.0345
  608MOL0     C81972   6.689   0.738   4.675  0.1926  0.0503  0.2326
  608MOL0     C81973   6.594   0.638   4.755 -0.4592  0.1851 -0.0645
  608MOL0     C81974   6.635   0.837   4.591 -0.1921 -0.2987  0.2594
  608MOL0     C81975   6.490   0.853   4.546 -0.5760 -0.0558  0.4022
  608MOL0     O81976   6.458   0.978   4.499 -0.1060  0.0541 -0.4839
  608MOL0     C81977   6.339   1.001   4.446  0.2501  0.3737  0.5555
  608MOL0     C81978   6.340   1.021   4.307 -0.2131  0.3125  0.0399
  608MOL0     C81979   6.225   1.019   4.226  0.0384  0.6971  0.2352
  608MOL0     C81980   6.102   1.019   4.299 -0.8892  0.4129  0.6754
  608MOL0     O81981   5.988   1.019   4.227 -0.4893  0.0167  0.2056
  608MOL0     C81982   5.858   1.001   4.284 -0.3353  0.9006  0.6091
  608MOL0     C81983   5.769   0.989   4.164  0.1076  0.6409  0.9079
  608MOL0     C81984   5.624   0.961   4.190 -0.0061 -0.0022 -0.5102
  608MOL0     C81985   5.516   1.007   4.084 -0.8314 -0.2027  1.4905
  608MOL0     C81986   5.379   1.022   4.153  0.1515 -0.5751  0.6379
  608MOL0     C81987   5.280   1.069   4.042  1.1152  0.3202  0.4955
  608MOL0     C81988   5.137   1.092   4.088 -0.0356 -0.1048 -0.0934
  608MOL0     C81989   5.059   0.957   4.132  0.7164 -0.2817  0.1397
  608MOL0    Cl81990   5.038   0.841   3.999  0.0431  0.0905  0.3905
  608MOL0     C81991   6.105   1.002   4.441  0.0327 -0.4896  0.2240
  608MOL0     C81992   6.216   0.988   4.516 -0.1909  0.2285  0.2274
  608MOL0     O81993   6.417   0.754   4.548 -0.3315  0.2491  0.0386
  608MOL0     C81994   6.728   0.940   4.551  0.1746  0.2505 -0.6340
  608MOL0     C81995   6.860   0.937   4.577 -0.7717  0.7825 -0.4873
  608MOL0     N81996   7.607   0.713   4.769 -0.0790  0.8684 -0.2565
  608MOL0     N81997   7.672   0.707   4.879  0.1360 -0.3414  0.3846
  608MOL0     C81998   8.492   1.417   4.835  0.0232 -0.7585  0.7480
  608MOL0     C81999   8.626   1.437   4.870  0.5097 -0.2514  0.0929
  608MOL0     C82000   9.013   1.411   5.072  0.5672  0.3617 -0.1615
  608MOL0     C82001   9.078   1.530   5.037 -0.6075  0.6758 -0.8953
  608MOL0     C82002   9.215   1.551   5.065 -0.3527  0.4786 -0.2571
  608MOL0     C82003   9.294   1.451   5.126  0.3276  0.1683 -0.4203
  608MOL0     O82004   9.421   1.482   5.161  0.1154 -0.1745 -0.4424
  608MOL0     C82005   9.503   1.381   5.222 -0.1164 -0.0835  0.2014
  608MOL0     C82006   9.629   1.458   5.236 -0.9261 -0.2651  0.0779
  608MOL0     C82007   9.736   1.363   5.293  0.2995  0.5899 -0.0928
  608MOL0     C82008   9.688   1.299   5.423 -0.1061 -0.0442 -0.2533
  608MOL0     C82009   9.805   1.239   5.489 -0.1949  0.2347  0.7176
  608MOL0     C82010   9.907   1.196   5.544 -0.0612 -0.2805 -0.4193
  608MOL0     C82011   9.233   1.319   5.149 -0.3423  0.3858  0.0405
  608MOL0     C82012   9.090   1.302   5.131  0.9672  0.0650  0.3574
  608MOL0     H82013   8.612   1.689   5.088 -1.2757  1.7155 -2.5638
  608MOL0     H82014   8.368   1.638   5.066 -0.7903 -1.7734  1.1576
  608MOL0     H82015   8.196   1.480   5.052 -0.8453  1.7809  1.4298
  608MOL0     H82016   8.164   1.634   4.963  3.6276 -0.3565 -0.6539
  608MOL0     H82017   7.954   1.517   4.970 -1.4723  1.1821 -1.7823
  608MOL0     H82018   8.015   1.523   4.811 -1.1041  1.2606  1.4792
  608MOL0     H82019   7.947   1.285   4.854  0.7447  0.9757 -1.9817
  608MOL0     H82020   8.117   1.285   4.854 -0.9506  1.8020 -0.9167
  608MOL0     H82021   8.133   1.288   5.090 -1.3394 -0.7365  2.9051
  608MOL0     H82022   7.958   1.295   5.119  0.6936  1.0944  0.6242
  608MOL0     H82023   8.089   1.048   4.981 -1.7354 -0.2724 -2.1842
  608MOL0     H82024   8.046   1.088   5.147 -2.7282 -0.1234  0.0378
  608MOL0     H82025   7.810   1.122   5.057  1.1610  0.2908  1.3079
  608MOL0     H82026   7.869   1.052   4.901 -3.0461  0.4699  0.5084
  608MOL0     H82027   7.922   0.859   4.987 -0.1903  1.7076 -2.6407
  608MOL0     H82028   7.919   0.909   5.159  0.2903  0.8519  0.3739
  608MOL0     H82029   7.657   0.940   5.117 -0.9428  0.1563 -0.8720
  608MOL0     H82030   7.723   0.776   5.126 -0.1419  0.0021  0.8661
  608MOL0     H82031   7.575   1.023   4.857 -2.9631  0.0713 -0.7964
  608MOL0     H82032   7.508   0.974   4.586  0.6268 -1.6818 -1.6937
  608MOL0     H82033   7.472   0.797   4.566 -0.0152 -3.5715  3.6913
  608MOL0     H82034   7.271   0.948   4.607  0.8004 -0.7742 -1.8268
  608MOL0     H82035   7.326   0.953   4.779  1.3756 -0.3088  0.5061
  608MOL0     H82036   7.329   0.700   4.770 -0.5917 -0.8576  0.4699
  608MOL0     H82037   7.278   0.712   4.602 -0.6787 -1.3291  0.9350
  608MOL0     H82038   7.122   0.792   4.847 -0.1496 -0.2308 -0.2490
  608MOL0     H82039   7.085   0.663   4.725  2.5356 -0.7495 -0.8171
  608MOL0     H82040   6.871   0.647   4.756  0.1433 -1.2694 -0.5923
  608MOL0     H82041   6.535   0.580   4.683  0.0611 -1.7320  0.9657
  608MOL0     H82042   6.655   0.561   4.803 -1.1155 -1.0353 -1.0964
  608MOL0     H82043   6.528   0.688   4.826 -2.0565 -1.7676 -0.0631
  608MOL0     H82044   6.435   1.022   4.255 -0.8182  1.8205 -1.1004
  608MOL0     H82045   6.223   1.028   4.118 -2.3674 -1.0900  0.0502
  608MOL0     H82046   5.856   0.911   4.346  0.5327  1.5961  1.6865
  608MOL0     H82047   5.833   1.084   4.350  0.5725  0.3459  1.6814
  608MOL0     H82048   5.771   1.082   4.106  0.1203 -0.9357 -1.7806
  608MOL0     H82049   5.813   0.912   4.101  4.0221  1.3710  2.4850
  608MOL0     H82050   5.590   1.008   4.283  0.2837  3.3931 -1.9708
  608MOL0     H82051   5.616   0.855   4.214  3.1455 -0.2063  0.1200
  608MOL0     H82052   5.545   1.107   4.048 -2.5418 -0.3321 -0.4088
  608MOL0     H82053   5.514   0.944   3.994 -1.7994  0.6283  0.9106
  608MOL0     H82054   5.382   1.094   4.235 -1.7952  0.2131  0.0800
  608MOL0     H82055   5.342   0.925   4.186 -1.0377  0.2601  1.8539
  608MOL0     H82056   5.317   1.159   3.992 -1.0656  0.7100 -0.5376
  608MOL0     H82057   5.276   0.983   3.974 -1.1332  1.5039 -1.0210
  608MOL0     H82058   5.088   1.138   4.001  1.3297  0.2812 -0.6849
  608MOL0     H82059   5.129   1.160   4.172 -1.1834  0.2379 -0.4591
  608MOL0     H82060   4.965   1.001   4.165  1.3537 -0.0385  1.6953
  608MOL0     H82061   5.114   0.916   4.217 -0.8557 -1.0188  0.8443
  608MOL0     H82062   6.010   0.986   4.492  1.3523 -0.2035  2.9492
  608MOL0     H82063   6.211   0.983   4.625  1.1720  2.6763  0.4766
  608MOL0     H82064   6.693   1.024   4.491  0.0815  1.0277  0.4887
  608MOL0     H82065   6.933   1.013   4.552  0.4162 -0.2711 -0.3279
  608MOL0     H82066   8.479   1.355   4.747  0.0826 -1.8372  1.4750
  608MOL0     H82067   8.700   1.376   4.819  0.8026  2.1576 -2.6088
  608MOL0     H82068   9.018   1.613   5.000 -1.2866  1.7345  2.2598
  608MOL0     H82069   9.261   1.647   5.043  1.3229 -0.1107  0.5029
  608MOL0     H82070   9.469   1.344   5.319 -0.7676 -2.6251 -0.9003
  608MOL0     H82071   9.523   1.294   5.158 -1.2505  0.4834 -0.9657
  608MOL0     H82072   9.629   1.548   5.298  2.0079  1.4992 -2.1914
  608MOL0     H82073   9.665   1.491   5.138 -0.4386 -1.7989 -0.2871
  608MOL0     H82074   9.829   1.415   5.317 -0.9426  2.5026  0.9193
  608MOL0     H82075   9.749   1.291   5.212 -0.0601  1.1481 -0.6631
  608MOL0     H82076   9.617   1.218   5.403  0.9437 -0.7311 -1.3217
  608MOL0     H82077   9.655   1.380   5.488 -0.3676  0.6300 -1.2144
  608MOL0     H82078  10.003   1.161   5.575  0.2525  1.8730  1.1955
  608MOL0     H82079   9.290   1.233   5.182 -2.0706  0.7274  4.5955
  608MOL0     H82080   9.039   1.208   5.151  1.0383 -0.2009 -0.6181
  609MOL0     O82081   2.418   1.064   4.829 -0.3968  0.4834  0.2689
  609MOL0     C82082   2.391   0.947   4.852  0.7767  0.2146 -0.2097
  609MOL0     O82083   2.273   0.903   4.909  0.4781  0.4486  0.6981
  609MOL0     C82084   2.177   0.979   4.967  1.5185  0.1681 -0.1707
  609MOL0     C82085   2.084   0.903   5.039  0.0902  0.6405  0.8280
  609MOL0     C82086   1.964   0.960   5.091  0.4690 -0.0332 -1.3211
  609MOL0     C82087   1.945   1.099   5.083  0.4124 -0.2665 -0.0517
  609MOL0     O82088   1.841   1.166   5.141 -0.5314 -0.5984  0.2915
  609MOL0     C82089   1.738   1.087   5.205  0.4543 -0.3264  0.9463
  609MOL0     C82090   1.640   1.181   5.264  0.5320  0.5960  0.0230
  609MOL0     C82091   1.533   1.122   5.360  0.4584 -1.0829  0.1089
  609MOL0     C82092   1.452   1.233   5.429  0.4386  0.6066  0.9204
  609MOL0     C82093   1.359   1.183   5.540  0.5384 -0.0939  0.6673
  609MOL0     C82094   1.254   1.285   5.597 -0.0898 -0.0903 -0.4032
  609MOL0     C82095   1.306   1.397   5.689 -0.7518  0.2069 -0.5554
  609MOL0     C82096   1.226   1.529   5.684  0.2298 -0.5941  0.2512
  609MOL0     N82097   1.261   1.629   5.787 -0.4400 -0.2875  0.3953
  609MOL0     C82098   1.383   1.700   5.794  0.7150  0.7188  0.2115
  609MOL0     C82099   1.366   1.771   5.907 -0.0441  0.5942 -0.1169
  609MOL0     C82100   1.466   1.872   5.956 -0.2918 -1.1340 -0.2133
  609MOL0     C82101   1.549   1.821   6.074  0.4118  0.8391  0.8504
  609MOL0     C82102   1.664   1.918   6.127  0.1340 -1.1682  0.1724
  609MOL0     C82103   1.789   1.883   6.058  0.0658 -0.6323 -0.0118
  609MOL0     O82104   1.823   1.748   6.092  0.4664  0.3787 -0.0501
  609MOL0     C82105   1.925   1.688   6.012 -0.0364  0.7055  0.0881
  609MOL0     C82106   2.009   1.761   5.925  0.2224  0.4632 -0.6025
  609MOL0     C82107   2.106   1.694   5.856  0.1030  1.1361  0.7373
  609MOL0     C82108   2.199   1.768   5.767 -0.7726  0.5788  0.3027
  609MOL0     C82109   2.127   1.551   5.864  0.6655 -0.4419 -0.2310
  609MOL0     C82110   2.236   1.482   5.801  0.1516  0.6778  0.2565
  609MOL0     O82111   2.261   1.511   5.665 -0.3275  0.3161 -0.2619
  609MOL0     C82112   2.393   1.496   5.622 -0.0531  0.2175  0.3056
  609MOL0     C82113   2.455   1.604   5.551 -0.6069  0.6849 -0.3360
  609MOL0     C82114   2.585   1.596   5.501  0.4312 -0.2065  0.4543
  609MOL0     C82115   2.657   1.473   5.510  0.2921 -0.3636 -0.1791
  609MOL0     O82116   2.789   1.455   5.461  0.3072 -0.5875  0.0077
  609MOL0     C82117   2.839   1.564   5.372 -0.3530  0.2908  0.1848
  609MOL0     C82118   2.933   1.493   5.269 -0.2084 -0.3899 -0.0901
  609MOL0     C82119   2.952   1.560   5.137  0.0153 -0.9027 -0.3249
  609MOL0     C82120   3.004   1.465   5.035 -0.2730  0.9020 -0.2302
  609MOL0     C82121   2.998   1.534   4.900 -0.4650  0.2033  0.3620
  609MOL0     C82122   3.033   1.443   4.777  0.4416 -0.0985 -0.7059
  609MOL0     C82123   2.911   1.403   4.699 -0.0468 -0.6763  0.0568
  609MOL0     C82124   2.950   1.284   4.614 -0.0719 -0.0011 -0.0923
  609MOL0    Cl82125   2.926   1.137   4.718 -0.2058  0.0549 -0.0605
  609MOL0     C82126   2.592   1.365   5.568 -0.3783  0.6048 -0.2006
  609MOL0     C82127   2.461   1.372   5.624  0.5465  0.2860 -0.0947
  609MOL0     O82128   2.303   1.408   5.870 -0.1004  0.3450 -0.5766
  609MOL0     C82129   2.037   1.484   5.945  0.2968 -1.1877  0.5217
  609MOL0     C82130   1.945   1.547   6.023  0.0811  0.9646 -0.3909
  609MOL0     N82131   1.237   1.749   5.960 -0.5512 -0.1395  0.1961
  609MOL0     N82132   1.180   1.667   5.888 -0.5428 -0.2049 -0.3813
  609MOL0     C82133   2.041   1.178   5.023  1.1074  1.0013  1.0353
  609MOL0     C82134   2.155   1.114   4.962  0.4076 -0.1940  0.0523
  609MOL0     C82135   2.493   0.846   4.817 -0.3715 -0.0273 -0.0604
  609MOL0     C82136   2.484   0.710   4.853 -0.4727 -0.2646 -0.2832
  609MOL0     C82137   2.580   0.616   4.822 -0.2253  0.5695  0.4057
  609MOL0     C82138   2.700   0.655   4.758  0.5689  0.0479  1.0311
  609MOL0     O82139   2.790   0.560   4.730  0.5590  0.5824  0.2760
  609MOL0     C82140   2.903   0.586   4.656 -0.6634 -0.8384 -0.3787
  609MOL0     C82141   3.011   0.650   4.750  0.4829  0.1057  0.1780
  609MOL0     C82142   3.135   0.699   4.669  0.0974  0.3586  0.1865
  609MOL0     C82143   3.178   0.830   4.730 -0.1687  0.0827 -0.1444
  609MOL0     C82144   3.309   0.867   4.667  0.3663 -0.9142  1.1762
  609MOL0     C82145   3.414   0.888   4.614 -0.1474  0.2563 -0.4765
  609MOL0     C82146   2.704   0.787   4.726 -0.1235 -0.3654 -0.2344
  609MOL0     C82147   2.609   0.881   4.749  0.1413 -0.6718 -0.2541
  609MOL0     H82148   2.091   0.795   5.033  1.9632  0.7975 -1.4188
  609MOL0     H82149   1.888   0.894   5.133 -1.5206  1.8240 -1.8237
  609MOL0     H82150   1.694   1.018   5.132 -0.1671  0.6133  0.4173
  609MOL0     H82151   1.792   1.035   5.285  0.7274 -1.5570 -0.0037
  609MOL0     H82152   1.710   1.247   5.316  0.4974  1.5563 -1.1137
  609MOL0     H82153   1.584   1.232   5.185 -0.5102  0.6158  0.7563
  609MOL0     H82154   1.465   1.046   5.322 -3.1913  1.8508  0.1857
  609MOL0     H82155   1.597   1.076   5.436  0.4202 -2.0684 -0.4467
  609MOL0     H82156   1.518   1.306   5.476  0.6800  2.4180 -1.9581
  609MOL0     H82157   1.389   1.290   5.360  0.3316 -0.9421 -0.2943
  609MOL0     H82158   1.304   1.100   5.494  1.3792 -0.4920  0.3526
  609MOL0     H82159   1.420   1.145   5.622  1.0299  0.5187  0.5955
  609MOL0     H82160   1.185   1.324   5.522 -1.5131 -1.1951  0.2778
  609MOL0     H82161   1.197   1.227   5.670  1.3063  0.6232  1.3262
  609MOL0     H82162   1.304   1.371   5.795  1.8669  0.8533 -0.2929
  609MOL0     H82163   1.409   1.411   5.657 -1.3142  2.0059 -1.7740
  609MOL0     H82164   1.119   1.512   5.692  0.1488  0.4279  1.9825
  609MOL0     H82165   1.247   1.567   5.584  0.9966 -0.4329  0.4613
  609MOL0     H82166   1.463   1.698   5.721 -1.4966  0.8837 -2.3660
  609MOL0     H82167   1.534   1.906   5.878 -1.4905 -0.2541 -0.9055
  609MOL0     H82168   1.406   1.959   5.984 -0.7011 -1.1307 -1.0713
  609MOL0     H82169   1.567   1.713   6.064  0.4823  1.0205 -1.5511
  609MOL0     H82170   1.478   1.814   6.157 -0.0362  2.6360  0.6546
  609MOL0     H82171   1.679   1.908   6.235 -1.0180  1.5623  0.6531
  609MOL0     H82172   1.625   2.020   6.120 -2.0094 -2.0129 -1.7314
  609MOL0     H82173   1.866   1.952   6.093  1.0600  0.2170 -3.4272
  609MOL0     H82174   1.782   1.898   5.949 -1.1343  0.0223  0.1358
  609MOL0     H82175   2.008   1.869   5.931 -1.2038  0.4282  0.5769
  609MOL0     H82176   2.304   1.760   5.798 -0.6878 -3.0835 -0.4633
  609MOL0     H82177   2.202   1.739   5.661  1.6124  2.1799 -0.1410
  609MOL0     H82178   2.183   1.876   5.756 -0.1226  0.6460 -0.0502
  609MOL0     H82179   2.400   1.697   5.539 -1.3171  0.2065 -0.8223
  609MOL0     H82180   2.622   1.684   5.450 -2.2096 -0.4558 -2.1327
  609MOL0     H82181   2.752   1.599   5.317 -0.5604  0.4316  0.5940
  609MOL0     H82182   2.896   1.640   5.427  2.7610 -1.1260 -0.8859
  609MOL0     H82183   3.023   1.464   5.326  0.8140  2.4206 -0.1148
  609MOL0     H82184   2.882   1.397   5.254 -0.4762 -0.6568  2.1390
  609MOL0     H82185   3.016   1.649   5.135 -1.0213 -0.1158  0.2083
  609MOL0     H82186   2.851   1.590   5.108  1.1780  0.9740 -2.8681
  609MOL0     H82187   3.109   1.440   5.056 -0.4762  0.4598  0.2649
  609MOL0     H82188   2.944   1.374   5.043 -0.8794  1.4122  1.4511
  609MOL0     H82189   3.057   1.626   4.896  1.8769 -1.1101  2.1433
  609MOL0     H82190   2.897   1.573   4.881 -0.7271 -0.2786  0.7492
  609MOL0     H82191   3.103   1.487   4.705 -0.4893  0.6326 -1.1888
  609MOL0     H82192   3.079   1.357   4.826  1.7972  0.8173 -0.3061
  609MOL0     H82193   2.871   1.486   4.641  0.0481 -1.2437 -0.8489
  609MOL0     H82194   2.828   1.381   4.767  0.0930  0.2197  0.5247
  609MOL0     H82195   3.052   1.288   4.576 -1.1680  1.7932 -3.2487
  609MOL0     H82196   2.887   1.290   4.525 -0.1843 -0.8442 -0.0738
  609MOL0     H82197   2.637   1.267   5.568 -1.6063 -0.0838 -3.1454
  609MOL0     H82198   2.423   1.285   5.676  0.2731 -0.1507 -1.0064
  609MOL0     H82199   2.042   1.376   5.945 -1.1910 -1.3129 -1.4728
  609MOL0     H82200   1.889   1.482   6.090  4.4182  0.8898  3.6961
  609MOL0     H82201   2.034   1.286   5.012  2.1256  0.8568 -1.7315
  609MOL0     H82202   2.226   1.183   4.917 -0.6295  0.4161 -0.7217
  609MOL0     H82203   2.388   0.676   4.891 -0.7014  1.9339  1.2738
  609MOL0     H82204   2.548   0.515   4.842  0.2320  0.6840  1.8501
  609MOL0     H82205   2.936   0.489   4.617 -2.2917 -1.1735 -1.0098
  609MOL0     H82206   2.887   0.652   4.571  1.7640  0.1264 -0.1607
  609MOL0     H82207   3.036   0.575   4.825  0.8613  0.6034  0.5601
  609MOL0     H82208   2.957   0.734   4.796 -0.6289 -0.2465 -0.4547
  609MOL0     H82209   3.121   0.701   4.561  2.3255 -0.1324 -0.1601
  609MOL0     H82210   3.215   0.628   4.694 -0.1416  0.9445  2.9280
  609MOL0     H82211   3.206   0.809   4.833 -4.0738  0.8576  1.2008
  609MOL0     H82212   3.107   0.913   4.728  1.1696  1.2731 -1.6238
  609MOL0     H82213   3.516   0.898   4.582  0.3328  1.3278  1.2435
  609MOL0     H82214   2.793   0.824   4.677  0.1273 -1.8667 -0.9737
  609MOL0     H82215   2.626   0.981   4.713  0.4947  0.2380  2.2346
  610MOL0     O82216   1.217   1.819   9.524  1.1024 -0.2649 -0.1230
  610MOL0     C82217   1.252   1.824   9.637  0.6741  0.8782 -0.2147
  610MOL0     O82218   1.172   1.834   9.750 -0.1739 -0.1571  0.9486
  610MOL0     C82219   1.038   1.868   9.723  0.7128  0.1337 -0.3901
  610MOL0     C82220   0.931   1.781   9.730  0.8616 -0.9704 -0.4614
  610MOL0     C82221   0.797   1.825   9.716  0.4221 -0.2502 -0.0706
  610MOL0     C82222   0.766   1.957   9.693 -0.2116 -0.3916  0.4166
  610MOL0     O82223   0.640   2.011   9.677  0.3824  0.3248  0.1153
  610MOL0     C82224   0.605   2.075   9.554 -0.1571 -0.4411 -0.6368
  610MOL0     C82225   0.466   2.146   9.567  0.3571 -0.3919 -0.4199
  610MOL0     C82226   0.473   2.283   9.644 -0.7602  0.1356 -0.2708
  610MOL0     C82227   0.380   2.295   9.764 -0.7197  0.7545  0.1318
  610MOL0     C82228   0.383   2.431   9.833 -0.2005  0.3116 -0.1240
  610MOL0     C82229   0.256   2.449   9.921 -0.4517 -0.8283  0.1114
  610MOL0     C82230   0.278   2.575  10.004 -0.6527  0.3108  0.3921
  610MOL0     C82231   0.177   2.594  10.119  0.2311 -0.6014 -0.3074
  610MOL0     N82232   0.034   2.589  10.073  0.3645 -0.0169 -0.4928
  610MOL0     C82233  -0.020   2.699  10.013 -0.4967 -0.0054 -0.8372
  610MOL0     C82234  -0.151   2.657  10.005 -0.2042  0.4734  0.6034
  610MOL0     C82235  -0.259   2.757   9.961  0.1097  0.8051 -0.2948
  610MOL0     C82236  -0.396   2.683   9.944 -0.0008 -0.2706 -0.3354
  610MOL0     C82237  -0.469   2.659  10.081  0.9392  0.0445  0.2885
  610MOL0     C82238  -0.618   2.627  10.067 -0.6637  1.1534  0.2780
  610MOL0     O82239  -0.662   2.620  10.205 -0.5454  0.6685 -0.3498
  610MOL0     C82240  -0.789   2.647  10.235 -0.3099  0.2103 -0.5814
  610MOL0     C82241  -0.887   2.691  10.144  0.3185 -0.4378  0.5159
  610MOL0     C82242  -1.019   2.727  10.182 -0.0111 -0.4787  0.5226
  610MOL0     C82243  -1.106   2.788  10.076 -0.7580 -0.0700  0.1145
  610MOL0     C82244  -1.055   2.710  10.320  0.3780 -0.5879  0.1978
  610MOL0     C82245  -1.194   2.738  10.364  0.0767 -1.0160 -0.2917
  610MOL0     O82246  -1.274   2.815  10.294 -0.2790 -0.8580 -0.8032
  610MOL0     C82247  -1.405   2.828  10.323 -0.0144 -0.2238 -0.6599
  610MOL0     C82248  -1.454   2.847  10.456  1.0043 -0.1516  0.6245
  610MOL0     C82249  -1.593   2.865  10.476  0.4017  0.0954 -0.5697
  610MOL0     C82250  -1.687   2.876  10.379  0.0649  0.5442  0.7137
  610MOL0     O82251  -1.821   2.905  10.408  0.2234 -0.2809 -0.5058
  610MOL0     C82252  -1.921   2.893  10.313  0.3742  0.1049  1.3219
  610MOL0     C82253  -2.057   2.904  10.378  0.0343 -1.1324  0.5499
  610MOL0     C82254  -2.095   3.049  10.425 -0.3868  0.1379  0.4104
  610MOL0     C82255  -2.196   3.047  10.544  0.8420 -0.0067  0.0682
  610MOL0     C82256  -2.262   3.182  10.577 -0.0265  0.3693 -0.2559
  610MOL0     C82257  -2.374   3.186  10.679 -0.4175 -0.1655 -0.0548
  610MOL0     C82258  -2.448   3.318  10.702  0.4910 -0.3287 -0.1101
  610MOL0     C82259  -2.563   3.299  10.802  0.3074  0.4264  0.2782
  610MOL0    Cl82260  -2.615   3.468  10.837  0.2708  0.2506  0.1109
  610MOL0     C82261  -1.638   2.867  10.247  0.4377 -0.6941 -0.6526
  610MOL0     C82262  -1.495   2.843  10.225  0.1808 -0.2094  0.3434
  610MOL0     O82263  -1.218   2.675  10.469  0.4713 -0.1184  0.0942
  610MOL0     C82264  -0.964   2.664  10.413  0.2514 -0.0050  0.8002
  610MOL0     C82265  -0.832   2.628  10.367  0.2079 -0.4069 -0.1231
  610MOL0     N82266  -0.159   2.524  10.047 -0.2071 -0.7569  0.6499
  610MOL0     N82267  -0.041   2.480  10.079  0.0685 -0.0307  1.0286
  610MOL0     C82268   0.876   2.044   9.682 -0.7215  0.2069 -0.1436
  610MOL0     C82269   1.012   2.003   9.697  0.6808 -0.2567 -0.9629
  610MOL0     C82270   1.397   1.819   9.650 -0.0999  0.2057  0.9455
  610MOL0     C82271   1.460   1.801   9.775 -0.2427  0.0836  0.0475
  610MOL0     C82272   1.598   1.818   9.794 -1.1187 -0.0775  0.2459
  610MOL0     C82273   1.686   1.829   9.676 -0.3147  0.6981  0.0793
  610MOL0     O82274   1.822   1.821   9.700  0.2267 -0.2628  0.3551
  610MOL0     C82275   1.907   1.813   9.578 -0.5015 -0.7874 -0.9258
  610MOL0     C82276   2.052   1.847   9.623 -0.3284  0.0882 -0.5489
  610MOL0     C82277   2.138   1.716   9.649 -0.0634 -0.4040  0.5022
  610MOL0     C82278   2.192   1.651   9.518  0.0257  0.1455 -0.1666
  610MOL0     C82279   2.261   1.534   9.551  0.4724  0.5127 -0.3073
  610MOL0     C82280   2.357   1.457   9.564  0.8735 -0.1275  0.6083
  610MOL0     C82281   1.625   1.834   9.547  0.4566 -0.1828 -0.1818
  610MOL0     C82282   1.484   1.828   9.536  0.1759 -0.5878  0.1544
  610MOL0     H82283   0.946   1.683   9.773 -0.2685 -2.3850 -3.0766
  610MOL0     H82284   0.713   1.759   9.737  0.9088 -1.3152 -1.3446
  610MOL0     H82285   0.675   2.156   9.533 -2.3086  1.6917  0.0743
  610MOL0     H82286   0.595   2.013   9.464 -0.6059 -0.8852 -0.2873
  610MOL0     H82287   0.410   2.151   9.474 -1.0630  0.8199  0.4519
  610MOL0     H82288   0.400   2.089   9.635 -1.6163 -0.8893 -2.6222
  610MOL0     H82289   0.577   2.307   9.667 -0.9906 -0.5927  1.7192
  610MOL0     H82290   0.429   2.360   9.580 -0.2548 -0.3176 -1.1942
  610MOL0     H82291   0.280   2.279   9.722 -0.6547  2.6024 -0.8744
  610MOL0     H82292   0.388   2.216   9.839 -0.4279 -0.1039 -0.7776
  610MOL0     H82293   0.471   2.439   9.897  0.0333 -0.3175 -0.3563
  610MOL0     H82294   0.388   2.510   9.757  2.7823 -0.1448 -0.5316
  610MOL0     H82295   0.159   2.455   9.870 -0.2386 -0.3730 -0.2358
  610MOL0     H82296   0.249   2.371   9.998 -0.5183  0.2052  1.1703
  610MOL0     H82297   0.378   2.585  10.048 -0.9515 -1.5294  1.6523
  610MOL0     H82298   0.278   2.658   9.933  1.2915  0.2112  0.2297
  610MOL0     H82299   0.192   2.693  10.163  3.0984 -0.6129 -1.0481
  610MOL0     H82300   0.191   2.519  10.197 -1.4851  0.5119  1.1504
  610MOL0     H82301   0.031   2.793   9.992 -0.5226  0.8069  2.3010
  610MOL0     H82302  -0.272   2.824  10.047 -0.5221 -2.4979  2.3766
  610MOL0     H82303  -0.225   2.805   9.868  1.0432  2.0581  0.6697
  610MOL0     H82304  -0.376   2.591   9.887  2.5656  1.5380 -2.6342
  610MOL0     H82305  -0.471   2.739   9.888 -0.2007 -2.4931 -2.4622
  610MOL0     H82306  -0.473   2.753  10.137 -0.1236 -0.1901  0.6320
  610MOL0     H82307  -0.418   2.583  10.141  2.8042 -1.7314 -3.2090
  610MOL0     H82308  -0.644   2.531  10.023 -1.6707  0.4540  2.2793
  610MOL0     H82309  -0.663   2.705  10.005  0.4991  0.1390 -1.9566
  610MOL0     H82310  -0.860   2.696  10.039  0.3744 -0.5667  0.5238
  610MOL0     H82311  -1.106   2.892  10.110  2.6677  0.1263 -0.0552
  610MOL0     H82312  -1.063   2.776   9.976  0.5724  1.9454  0.3775
  610MOL0     H82313  -1.209   2.753  10.070 -2.2079  3.3456  2.0507
  610MOL0     H82314  -1.388   2.851  10.542  0.4947  0.7693  0.9812
  610MOL0     H82315  -1.619   2.870  10.581 -0.9181 -0.3495 -0.8584
  610MOL0     H82316  -1.910   2.967  10.234 -0.1640 -2.5087 -1.3803
  610MOL0     H82317  -1.902   2.795  10.269  0.9045  0.3751  0.9449
  610MOL0     H82318  -2.132   2.871  10.306  0.9558 -1.4038 -0.3056
  610MOL0     H82319  -2.063   2.835  10.462  0.7794 -1.7679  0.0950
  610MOL0     H82320  -2.154   3.096  10.345 -0.3190  1.6918  1.2334
  610MOL0     H82321  -2.004   3.110  10.433 -1.2789  1.5741 -0.0151
  610MOL0     H82322  -2.283   2.986  10.521  0.5896 -0.3072  1.6608
  610MOL0     H82323  -2.150   3.012  10.637  2.3568  4.1453  1.1376
  610MOL0     H82324  -2.305   3.213  10.481 -1.8937  0.0842  0.4485
  610MOL0     H82325  -2.192   3.259  10.611 -0.2277  0.8236 -0.8498
  610MOL0     H82326  -2.438   3.098  10.668 -0.3830 -0.0307 -1.5837
  610MOL0     H82327  -2.322   3.167  10.773  1.4470  0.6513 -0.8621
  610MOL0     H82328  -2.482   3.355  10.604 -2.2437 -0.1746  0.8216
  610MOL0     H82329  -2.382   3.391  10.750 -3.1757  2.3038  1.4582
  610MOL0     H82330  -2.530   3.262  10.899 -1.6180  0.8269  1.1312
  610MOL0     H82331  -2.640   3.231  10.764 -0.6933  0.8100  1.5595
  610MOL0     H82332  -1.703   2.867  10.160  1.1672 -2.0426 -1.2267
  610MOL0     H82333  -1.451   2.838  10.126  1.3993 -0.2802  0.8780
  610MOL0     H82334  -0.987   2.666  10.519  1.2082  2.8999  1.0487
  610MOL0     H82335  -0.748   2.599  10.430  2.3382  0.1900 -2.5490
  610MOL0     H82336   0.871   2.149   9.653  3.4829  0.6040  0.0113
  610MOL0     H82337   1.090   2.078   9.707 -1.1259  1.6428 -0.3195
  610MOL0     H82338   1.412   1.762   9.864 -1.9362 -2.1602 -1.7384
  610MOL0     H82339   1.636   1.803   9.895 -2.2360 -2.8241  0.3494
  610MOL0     H82340   1.896   1.719   9.523  1.3757 -1.3219 -0.4828
  610MOL0     H82341   1.874   1.898   9.518 -2.9679  0.5891  2.1300
  610MOL0     H82342   2.048   1.905   9.716 -2.3857  1.1580 -1.2292
  610MOL0     H82343   2.096   1.915   9.549  0.4625 -1.2261 -1.3309
  610MOL0     H82344   2.073   1.651   9.709 -1.5735 -0.3489 -1.0054
  610MOL0     H82345   2.228   1.741   9.705  0.1305 -0.3755  0.1758
  610MOL0     H82346   2.254   1.724   9.464 -1.3276 -0.7213 -3.0574
  610MOL0     H82347   2.113   1.624   9.447  1.5783  1.5249 -2.5834
  610MOL0     H82348   2.441   1.392   9.579  0.1769 -1.2556 -0.1853
  610MOL0     H82349   1.678   1.844   9.453 -2.7204  0.9077 -1.9719
  610MOL0     H82350   1.443   1.834   9.436  0.6709  0.2201 -0.0132
  611MOL0     O82351   3.892   1.843   5.883  0.3072  0.0185  0.2736
  611MOL0     C82352   3.964   1.774   5.812  0.3512  0.0063  0.2603
  611MOL0     O82353   3.920   1.678   5.728 -0.1999 -0.1908 -0.7968
  611MOL0     C82354   3.785   1.645   5.726 -0.7552  0.5727 -0.2192
  611MOL0     C82355   3.709   1.655   5.610 -0.6699  0.7007 -0.2536
  611MOL0     C82356   3.570   1.618   5.615  0.3078 -0.2620  0.0111
  611MOL0     C82357   3.501   1.561   5.732 -0.0711 -0.0413  0.5799
  611MOL0     O82358   3.369   1.517   5.729 -0.0975 -0.2383 -0.1672
  611MOL0     C82359   3.289   1.530   5.605 -0.3059 -0.1201 -0.3680
  611MOL0     C82360   3.149   1.478   5.622  0.6796  0.1822  0.3989
  611MOL0     C82361   3.056   1.566   5.704 -0.7892  0.4728 -0.8146
  611MOL0     C82362   2.941   1.489   5.769  0.4705 -0.8068  0.2756
  611MOL0     C82363   2.828   1.587   5.816 -0.5414 -0.1547 -1.0966
  611MOL0     C82364   2.726   1.490   5.890  0.1017  0.2533  0.0301
  611MOL0     C82365   2.599   1.557   5.925  0.0715 -0.4905 -1.2547
  611MOL0     C82366   2.614   1.699   5.982 -0.0151 -0.3110 -0.0980
  611MOL0     N82367   2.499   1.759   6.057 -0.0816  0.9647  0.6145
  611MOL0     C82368   2.452   1.714   6.176 -0.1636 -0.5141  1.2873
  611MOL0     C82369   2.340   1.787   6.186 -0.2152  0.6425 -1.0375
  611MOL0     C82370   2.232   1.758   6.289  0.0483 -0.6886 -0.1478
  611MOL0     C82371   2.152   1.629   6.291  0.1640 -0.0986  0.5191
  611MOL0     C82372   2.200   1.530   6.391 -0.0478 -0.1106 -0.4541
  611MOL0     C82373   2.133   1.391   6.369  0.8066 -0.2598  0.2618
  611MOL0     O82374   1.993   1.402   6.342 -0.3028  0.0696 -0.3372
  611MOL0     C82375   1.908   1.300   6.383 -0.7218  0.2191 -0.0032
  611MOL0     C82376   1.781   1.329   6.436  0.0637  0.4976  1.0766
  611MOL0     C82377   1.690   1.223   6.460  0.0005  0.2888  0.0384
  611MOL0     C82378   1.551   1.257   6.488  0.5402 -0.0751  0.1428
  611MOL0     C82379   1.742   1.088   6.449  0.1951 -0.2688 -0.0403
  611MOL0     C82380   1.662   0.968   6.481  0.7461 -0.5575  0.1366
  611MOL0     O82381   1.674   0.859   6.399  0.3874 -0.0765  0.4332
  611MOL0     C82382   1.579   0.759   6.386 -0.4768  0.3994  0.3502
  611MOL0     C82383   1.450   0.773   6.427 -0.1292  0.0590 -0.5453
  611MOL0     C82384   1.367   0.654   6.422 -0.5913 -0.5326 -0.4932
  611MOL0     C82385   1.407   0.532   6.367 -0.9677  0.1362  0.1348
  611MOL0     O82386   1.341   0.410   6.360  0.4094 -0.6004 -0.1982
  611MOL0     C82387   1.202   0.412   6.403 -0.2449  0.1304  0.0307
  611MOL0     C82388   1.136   0.289   6.348 -0.0550  0.1531 -0.4406
  611MOL0     C82389   0.982   0.325   6.335 -0.3456  0.2905 -0.3030
  611MOL0     C82390   0.917   0.194   6.279  0.4138 -0.6718 -0.1396
  611MOL0     C82391   0.759   0.197   6.284  0.7739 -0.1268  0.4795
  611MOL0     C82392   0.692   0.287   6.181  0.5395  0.2375 -0.3382
  611MOL0     C82393   0.559   0.357   6.231 -0.7099 -0.5869 -0.5726
  611MOL0     C82394   0.481   0.427   6.122  0.1119  0.1287 -0.4994
  611MOL0    Cl82395   0.390   0.310   6.015  0.1392 -0.0982  0.1474
  611MOL0     C82396   1.545   0.527   6.335  0.1735 -0.9988 -0.5710
  611MOL0     C82397   1.629   0.639   6.341 -0.7212  0.6870 -0.5903
  611MOL0     O82398   1.595   0.976   6.590 -0.7729 -0.4697 -0.5243
  611MOL0     C82399   1.866   1.056   6.398  0.5444  0.1497  0.0566
  611MOL0     C82400   1.950   1.162   6.368 -0.0761  0.3683  0.4529
  611MOL0     N82401   2.329   1.883   6.088 -0.2947 -0.2985 -0.2392
  611MOL0     N82402   2.429   1.865   6.011  0.4611  0.1063 -0.2008
  611MOL0     C82403   3.582   1.545   5.844 -0.5708 -0.4415  0.4051
  611MOL0     C82404   3.721   1.584   5.843 -0.3507  0.7634  0.1763
  611MOL0     C82405   4.111   1.782   5.834  0.0618 -0.3406  0.6389
  611MOL0     C82406   4.158   1.855   5.954  0.0507  0.6240  0.5487
  611MOL0     C82407   4.294   1.876   5.969 -0.1720  0.2982 -0.3540
  611MOL0     C82408   4.390   1.824   5.880  0.9977 -0.3316 -0.0434
  611MOL0     O82409   4.531   1.839   5.888 -0.4167  0.8169 -0.6153
  611MOL0     C82410   4.587   1.921   5.990  0.3228 -0.5418  0.1877
  611MOL0     C82411   4.738   1.929   5.985  0.0406 -0.9143 -0.5242
  611MOL0     C82412   4.782   2.007   5.860 -0.0009  0.2448 -0.7383
  611MOL0     C82413   4.933   2.007   5.849  0.1170  0.8276 -0.1106
  611MOL0     C82414   4.966   2.102   5.747 -1.2434  0.2237  0.3159
  611MOL0     C82415   5.014   2.181   5.668 -0.4111 -0.0509 -0.4924
  611MOL0     C82416   4.349   1.763   5.764  0.6531 -0.4502  0.8342
  611MOL0     C82417   4.210   1.745   5.738  0.3264  0.3064  0.1901
  611MOL0     H82418   3.757   1.694   5.521 -0.9683  2.7543  0.4433
  611MOL0     H82419   3.515   1.639   5.524  1.1408  2.9434  0.1332
  611MOL0     H82420   3.298   1.636   5.581 -2.0819 -0.0702 -0.9184
  611MOL0     H82421   3.332   1.461   5.532 -1.1176  0.6167 -1.5863
  611MOL0     H82422   3.094   1.471   5.528 -2.5272  1.2142  2.0572
  611MOL0     H82423   3.158   1.377   5.661  4.3267 -1.0188 -2.8965
  611MOL0     H82424   3.113   1.604   5.790  0.2737 -1.0195 -0.8158
  611MOL0     H82425   3.015   1.640   5.636 -0.6104  1.0388 -0.3176
  611MOL0     H82426   2.903   1.412   5.700 -0.1266  0.0018 -0.3208
  611MOL0     H82427   2.977   1.442   5.860 -1.2237  1.1315  2.0614
  611MOL0     H82428   2.875   1.666   5.875  1.0401 -0.3121 -2.1066
  611MOL0     H82429   2.779   1.633   5.730  1.2737  1.5240 -1.3025
  611MOL0     H82430   2.708   1.403   5.828 -0.6073  0.1661  0.3520
  611MOL0     H82431   2.771   1.448   5.981  1.0896  2.2633  0.5311
  611MOL0     H82432   2.533   1.569   5.838 -3.1251  0.1131  1.0654
  611MOL0     H82433   2.547   1.488   5.991 -0.4119  0.0716 -1.0383
  611MOL0     H82434   2.644   1.763   5.899  1.5138 -1.3662 -0.4012
  611MOL0     H82435   2.698   1.692   6.052  0.8632  0.4856 -1.0405
  611MOL0     H82436   2.498   1.651   6.252  1.3474 -2.1326 -0.8406
  611MOL0     H82437   2.279   1.772   6.387  1.8824  0.1847 -1.1041
  611MOL0     H82438   2.161   1.840   6.284  0.9680  0.2331  1.2312
  611MOL0     H82439   2.163   1.580   6.194 -1.3314 -0.2980  0.4295
  611MOL0     H82440   2.044   1.641   6.306 -0.1699 -1.7557 -0.3009
  611MOL0     H82441   2.159   1.557   6.488 -1.2324 -1.4582 -0.5491
  611MOL0     H82442   2.309   1.518   6.389  0.1648  1.3647  0.7670
  611MOL0     H82443   2.141   1.328   6.458 -0.4189  0.4935  0.9447
  611MOL0     H82444   2.173   1.345   6.278  0.8780  0.5723 -0.1410
  611MOL0     H82445   1.762   1.434   6.454 -0.0589  0.3884  1.6122
  611MOL0     H82446   1.531   1.272   6.595  2.4037  3.0578  0.1772
  611MOL0     H82447   1.534   1.351   6.435  0.0336  1.4574  2.7976
  611MOL0     H82448   1.483   1.182   6.446  1.5297 -0.5801 -0.5917
  611MOL0     H82449   1.411   0.862   6.476  2.6123 -0.2013  2.4836
  611MOL0     H82450   1.264   0.651   6.458  0.2088  0.7914  2.1376
  611MOL0     H82451   1.197   0.408   6.512 -1.2958  1.0885  0.0413
  611MOL0     H82452   1.149   0.502   6.369  0.8074 -0.0655 -2.2920
  611MOL0     H82453   1.173   0.262   6.249  1.6684  0.8889 -0.0346
  611MOL0     H82454   1.144   0.200   6.411 -0.3684 -0.5852 -1.4333
  611MOL0     H82455   0.976   0.406   6.262  2.2656  1.2851  0.4781
  611MOL0     H82456   0.927   0.351   6.425 -2.4541  1.5899 -1.8592
  611MOL0     H82457   0.952   0.163   6.181 -0.5366 -1.4423 -0.2562
  611MOL0     H82458   0.951   0.114   6.346  0.9268  0.1685  0.6359
  611MOL0     H82459   0.721   0.229   6.382  2.1633 -2.5708  1.9083
  611MOL0     H82460   0.718   0.097   6.273 -0.2399  0.4814 -1.8776
  611MOL0     H82461   0.765   0.359   6.142  1.0437 -1.0552 -1.8728
  611MOL0     H82462   0.659   0.227   6.096  1.3820  0.7191 -1.0155
  611MOL0     H82463   0.569   0.439   6.302 -1.1418  1.5444 -2.8674
  611MOL0     H82464   0.501   0.282   6.287 -0.8100  1.2778  2.0500
  611MOL0     H82465   0.546   0.496   6.069 -0.0243  1.1042  0.5584
  611MOL0     H82466   0.400   0.488   6.163  0.6788  0.7908 -0.3576
  611MOL0     H82467   1.595   0.446   6.283 -0.0873 -0.6854 -1.3301
  611MOL0     H82468   1.725   0.618   6.294 -0.9901 -0.3083 -0.7117
  611MOL0     H82469   1.907   0.956   6.401 -1.6066 -0.8102 -0.7929
  611MOL0     H82470   2.053   1.142   6.342  0.7435  3.5941  0.7381
  611MOL0     H82471   3.532   1.512   5.935 -0.0209 -0.7862  0.5907
  611MOL0     H82472   3.783   1.556   5.928 -0.0458 -0.1097 -0.3196
  611MOL0     H82473   4.092   1.883   6.035  1.0751 -0.4554  1.7974
  611MOL0     H82474   4.332   1.904   6.067  0.4923 -2.1040  0.1433
  611MOL0     H82475   4.538   2.018   5.981 -0.8021 -1.0015  1.0754
  611MOL0     H82476   4.554   1.892   6.090 -2.4745  1.4060 -0.0359
  611MOL0     H82477   4.786   1.831   5.985 -2.8302 -2.4602 -2.0116
  611MOL0     H82478   4.770   1.985   6.073  1.6261 -0.8861 -1.0870
  611MOL0     H82479   4.741   2.108   5.871 -2.2752 -0.3234 -2.9911
  611MOL0     H82480   4.739   1.956   5.773 -3.9963 -1.1520  1.8117
  611MOL0     H82481   4.973   1.906   5.835  0.4279  1.0781 -1.1113
  611MOL0     H82482   4.976   2.044   5.942  1.4290 -0.3211 -0.2224
  611MOL0     H82483   5.050   2.246   5.591 -0.2278  1.2590  0.6636
  611MOL0     H82484   4.420   1.730   5.689 -0.0015  0.8280 -0.4068
  611MOL0     H82485   4.175   1.679   5.660 -2.1685  0.3209  1.1726
  612MOL0     O82486   0.919   6.949   5.445 -0.0226  0.0506  0.0129
  612MOL0     C82487   0.920   7.015   5.335  0.2416 -0.6608 -0.2745
  612MOL0     O82488   0.809   7.036   5.253 -0.5860 -0.1612 -0.4471
  612MOL0     C82489   0.692   7.007   5.305 -0.1215  0.4230 -0.3219
  612MOL0     C82490   0.643   7.084   5.410 -0.1712  0.1957 -0.0487
  612MOL0     C82491   0.505   7.072   5.443 -0.4048  0.1719 -0.8449
  612MOL0     C82492   0.422   6.984   5.384 -0.0832  0.0177 -0.0833
  612MOL0     O82493   0.286   6.960   5.419 -0.6926  0.1861 -1.2784
  612MOL0     C82494   0.222   7.018   5.535  0.6230  0.0145 -0.3732
  612MOL0     C82495   0.074   7.002   5.516 -0.6872  0.1328 -0.1827
  612MOL0     C82496  -0.022   7.093   5.601 -0.2570 -0.6992  0.3407
  612MOL0     C82497  -0.015   7.074   5.756  0.1165  0.2881  0.7223
  612MOL0     C82498  -0.118   7.157   5.836  0.1410 -0.1333  0.0141
  612MOL0     C82499  -0.068   7.163   5.981 -0.5092  0.1220  0.0187
  612MOL0     C82500  -0.152   7.245   6.069  0.7759 -0.2939 -0.3886
  612MOL0     C82501  -0.289   7.176   6.091  0.5305  0.2479  0.5828
  612MOL0     N82502  -0.373   7.249   6.181  1.0746  0.8960 -0.2756
  612MOL0     C82503  -0.488   7.314   6.139  0.0342 -0.1448  0.1221
  612MOL0     C82504  -0.542   7.379   6.246 -0.8301 -0.0547  0.2164
  612MOL0     C82505  -0.670   7.448   6.264 -0.1615 -0.5099 -0.1398
  612MOL0     C82506  -0.644   7.576   6.338  1.0691 -0.1593 -0.9571
  612MOL0     C82507  -0.766   7.674   6.335 -0.0479 -0.6140  0.5171
  612MOL0     C82508  -0.832   7.687   6.200 -0.1219  0.6786  0.0700
  612MOL0     O82509  -0.922   7.793   6.216  0.3155  0.3597  0.0080
  612MOL0     C82510  -0.958   7.865   6.112  0.0266 -0.7095 -0.4445
  612MOL0     C82511  -0.957   7.818   5.982  0.6048  0.0403  0.2246
  612MOL0     C82512  -0.998   7.900   5.875  0.1148 -0.8203 -0.0258
  612MOL0     C82513  -1.004   7.833   5.739  0.7556 -0.5797  0.2455
  612MOL0     C82514  -1.044   8.040   5.901  0.7268  0.3479 -0.6946
  612MOL0     C82515  -1.056   8.143   5.801 -0.4113  0.0203  0.4431
  612MOL0     O82516  -1.095   8.267   5.842 -0.3069 -0.9043  0.1192
  612MOL0     C82517  -1.121   8.359   5.745 -0.2146  0.8190  0.6143
  612MOL0     C82518  -1.022   8.452   5.696 -0.1933  0.7384  0.7580
  612MOL0     C82519  -1.049   8.540   5.600 -0.2894  0.0984  0.0876
  612MOL0     C82520  -1.167   8.535   5.521 -0.1400 -1.1197  0.0013
  612MOL0     O82521  -1.193   8.632   5.431 -0.0576  0.0975  0.2772
  612MOL0     C82522  -1.320   8.635   5.357  0.2583  0.6918  0.0658
  612MOL0     C82523  -1.314   8.535   5.240 -1.0882  0.2272 -0.5228
  612MOL0     C82524  -1.235   8.598   5.126 -0.4690  0.5073 -0.3107
  612MOL0     C82525  -1.232   8.512   5.001 -0.4079  0.3370  1.1142
  612MOL0     C82526  -1.162   8.589   4.886 -0.3993  0.3418  0.1729
  612MOL0     C82527  -1.168   8.516   4.748  0.2682 -0.8212 -0.3566
  612MOL0     C82528  -1.093   8.612   4.653 -0.0201  0.1810 -0.0510
  612MOL0     C82529  -1.041   8.533   4.536  0.0901 -0.2605 -0.2495
  612MOL0    Cl82530  -1.165   8.469   4.434 -0.0551  0.0572  0.0830
  612MOL0     C82531  -1.263   8.436   5.559 -0.1767  0.3680 -0.3569
  612MOL0     C82532  -1.237   8.348   5.672  0.1570 -0.3197  0.1915
  612MOL0     O82533  -1.042   8.119   5.683 -0.1613  0.1777 -0.1074
  612MOL0     C82534  -1.068   8.077   6.040  0.0253  0.7205 -0.0662
  612MOL0     C82535  -1.022   7.986   6.136 -0.7854 -0.3983  0.1048
  612MOL0     N82536  -0.455   7.348   6.348 -0.3633 -0.2078 -0.4563
  612MOL0     N82537  -0.354   7.278   6.315 -0.7105  0.1044  0.3116
  612MOL0     C82538   0.475   6.897   5.289 -0.3583 -0.4650 -0.2213
  612MOL0     C82539   0.610   6.908   5.251 -0.5483  0.9834 -0.2294
  612MOL0     C82540   1.052   7.066   5.292  0.1780  0.2957 -0.4031
  612MOL0     C82541   1.048   7.168   5.197 -0.7528 -0.1381 -0.1746
  612MOL0     C82542   1.176   7.217   5.151  1.2771 -0.7589 -0.9981
  612MOL0     C82543   1.294   7.174   5.208  0.9710  0.1196  0.5431
  612MOL0     O82544   1.407   7.239   5.160  0.3861  0.3517 -0.2814
  612MOL0     C82545   1.527   7.221   5.231 -0.4471  0.6830 -0.1773
  612MOL0     C82546   1.632   7.316   5.157  0.0554 -0.2639 -0.6147
  612MOL0     C82547   1.668   7.230   5.031  0.6906  0.4614  0.1865
  612MOL0     C82548   1.782   7.284   4.942  0.2751  0.0527  0.7953
  612MOL0     C82549   1.760   7.426   4.901  0.2851 -0.2510  0.6732
  612MOL0     C82550   1.751   7.542   4.874 -0.3735  0.7046 -0.0630
  612MOL0     C82551   1.292   7.063   5.305  0.6536  0.3016 -0.2158
  612MOL0     C82552   1.167   7.006   5.337 -0.9249 -0.4442 -0.6215
  612MOL0     H82553   0.709   7.153   5.461 -1.5899  0.1632  1.9113
  612MOL0     H82554   0.464   7.131   5.526 -2.6679 -1.2822 -0.8393
  612MOL0     H82555   0.259   6.972   5.627 -3.3542 -2.8892  0.0237
  612MOL0     H82556   0.246   7.125   5.539  0.3981  0.0319  2.7743
  612MOL0     H82557   0.048   7.014   5.410  0.0825 -3.9564 -0.9903
  612MOL0     H82558   0.050   6.897   5.533  0.4512  0.0597  1.0932
  612MOL0     H82559   0.010   7.194   5.574  1.1157 -0.8900  1.1583
  612MOL0     H82560  -0.126   7.077   5.570 -0.6569  0.0830  1.2027
  612MOL0     H82561  -0.029   6.969   5.786 -0.6771  0.3208  0.5135
  612MOL0     H82562   0.085   7.090   5.797  2.2804 -2.7846 -2.6598
  612MOL0     H82563  -0.126   7.256   5.791  0.2890  0.8247  1.9983
  612MOL0     H82564  -0.216   7.112   5.819  0.0545  0.7596 -2.0936
  612MOL0     H82565  -0.061   7.061   6.021  1.7330 -0.2077 -1.0547
  612MOL0     H82566   0.040   7.177   5.982 -0.2744 -1.3707 -1.4651
  612MOL0     H82567  -0.106   7.267   6.166  1.4945 -1.3242 -0.4784
  612MOL0     H82568  -0.169   7.337   6.013  0.5211 -0.0223  0.1256
  612MOL0     H82569  -0.273   7.083   6.146  0.7153  0.7426  1.3942
  612MOL0     H82570  -0.334   7.154   5.994 -0.5486  2.7689  0.4266
  612MOL0     H82571  -0.546   7.291   6.050  0.6709 -0.7674 -0.1418
  612MOL0     H82572  -0.695   7.466   6.159  0.7553 -0.1977 -0.3135
  612MOL0     H82573  -0.750   7.392   6.312 -0.1094 -1.0483 -0.6717
  612MOL0     H82574  -0.557   7.626   6.293  0.4483 -0.7701 -2.9299
  612MOL0     H82575  -0.637   7.563   6.446 -2.8127  1.1479 -0.3895
  612MOL0     H82576  -0.726   7.773   6.357  1.7966 -1.3080  0.4760
  612MOL0     H82577  -0.834   7.644   6.416  1.5654 -1.9297  1.4452
  612MOL0     H82578  -0.895   7.603   6.171 -0.5432  0.6917  0.9036
  612MOL0     H82579  -0.754   7.699   6.125 -1.2562 -2.2105 -1.6971
  612MOL0     H82580  -0.910   7.726   5.951  0.2525  0.1310 -0.6145
  612MOL0     H82581  -1.084   7.868   5.672  0.9776 -0.7927 -0.1314
  612MOL0     H82582  -0.911   7.859   5.689  0.1840  3.0453  0.7285
  612MOL0     H82583  -1.011   7.724   5.748  2.9286 -0.7272  0.7301
  612MOL0     H82584  -0.930   8.457   5.753 -0.5864  1.8008  1.3293
  612MOL0     H82585  -0.966   8.604   5.570 -1.6916  1.3550 -1.2618
  612MOL0     H82586  -1.408   8.620   5.421  1.5132 -1.8089  1.3275
  612MOL0     H82587  -1.333   8.738   5.323 -2.3396 -0.0095 -1.2947
  612MOL0     H82588  -1.250   8.453   5.273 -0.7130  1.4002  1.8185
  612MOL0     H82589  -1.415   8.504   5.214 -1.7035  0.4677  1.4756
  612MOL0     H82590  -1.138   8.634   5.163  0.0105 -0.4257 -0.6056
  612MOL0     H82591  -1.290   8.684   5.088 -1.8847  0.3542  1.3091
  612MOL0     H82592  -1.189   8.412   5.011 -1.4176  0.0262  3.0751
  612MOL0     H82593  -1.333   8.494   4.963  0.1440 -1.8807  0.5720
  612MOL0     H82594  -1.061   8.617   4.918 -0.7216  0.7269  0.8819
  612MOL0     H82595  -1.218   8.682   4.870  0.1750  0.2543 -3.0201
  612MOL0     H82596  -1.130   8.414   4.748  1.3687 -0.4483 -1.5172
  612MOL0     H82597  -1.275   8.506   4.727  0.0533 -0.0185  0.2985
  612MOL0     H82598  -1.009   8.659   4.704 -2.0609  0.9508  2.8245
  612MOL0     H82599  -1.155   8.694   4.616  0.4697  1.2660  1.4660
  612MOL0     H82600  -0.979   8.447   4.565  1.5682  1.7387  3.0909
  612MOL0     H82601  -0.973   8.595   4.478  0.2711 -1.3152 -1.1971
  612MOL0     H82602  -1.351   8.407   5.503 -0.3877 -0.7077  0.4948
  612MOL0     H82603  -1.311   8.275   5.704 -1.3768  1.5755  1.1787
  612MOL0     H82604  -1.108   8.173   6.069  0.7425  1.1996 -0.6297
  612MOL0     H82605  -1.025   8.030   6.235 -0.5332  0.0645 -0.0883
  612MOL0     H82606   0.406   6.820   5.254  0.4269 -0.4193 -1.9708
  612MOL0     H82607   0.662   6.850   5.176 -1.6251 -1.2815  0.6663
  612MOL0     H82608   0.957   7.194   5.144 -0.6341 -0.8263 -0.7459
  612MOL0     H82609   1.184   7.300   5.082 -0.0460  1.9222  1.8472
  612MOL0     H82610   1.527   7.249   5.337 -0.6254  1.3097 -0.3363
  612MOL0     H82611   1.558   7.116   5.230  0.2815  0.8458 -2.6791
  612MOL0     H82612   1.721   7.335   5.217 -0.9445 -0.0311  0.8498
  612MOL0     H82613   1.591   7.415   5.138  2.0439  1.0398  1.3874
  612MOL0     H82614   1.582   7.200   4.971  1.5395 -0.9744 -0.3847
  612MOL0     H82615   1.697   7.132   5.069 -0.5179  0.2264  0.5423
  612MOL0     H82616   1.784   7.221   4.852 -0.6602 -0.7296  1.3139
  612MOL0     H82617   1.883   7.273   4.983  0.1328  0.0477  1.1484
  612MOL0     H82618   1.745   7.643   4.838  1.6564  0.6752 -0.5965
  612MOL0     H82619   1.375   7.012   5.353 -2.4663 -3.2157  1.9563
  612MOL0     H82620   1.159   6.929   5.413 -0.1263 -0.2507 -0.3303
  613MOL0     O82621   7.130   1.092   7.144 -0.4955 -0.2090 -0.2979
  613MOL0     C82622   7.188   0.992   7.183  0.1927  0.5277 -0.0968
  613MOL0     O82623   7.126   0.874   7.202 -0.3755 -0.2436  0.8088
  613MOL0     C82624   6.999   0.843   7.160 -0.7083  0.0440  0.7590
  613MOL0     C82625   6.932   0.749   7.227  0.0318 -1.2707  0.0284
  613MOL0     C82626   6.807   0.701   7.188 -0.1286 -0.2537 -0.4952
  613MOL0     C82627   6.747   0.757   7.072  0.5758  0.1079 -0.9952
  613MOL0     O82628   6.612   0.733   7.033  0.3609 -0.1333  0.0117
  613MOL0     C82629   6.523   0.655   7.104  0.7556  0.5375  0.1072
  613MOL0     C82630   6.400   0.645   7.020  0.0683  0.4933  0.2330
  613MOL0     C82631   6.287   0.574   7.107  0.6540 -0.5170  0.6117
  613MOL0     C82632   6.160   0.596   7.022  0.1964 -0.0756  0.7904
  613MOL0     C82633   6.026   0.555   7.092 -0.3810  0.5257 -1.1823
  613MOL0     C82634   5.907   0.565   6.994  0.4312 -0.6909  0.1766
  613MOL0     C82635   5.793   0.482   7.044  0.3632 -0.4665  0.2328
  613MOL0     C82636   5.678   0.487   6.944 -0.3269 -0.6128 -0.2543
  613MOL0     N82637   5.554   0.426   6.993  1.0263 -0.6388 -0.6298
  613MOL0     C82638   5.484   0.463   7.103  0.2316 -0.5418  0.2692
  613MOL0     C82639   5.376   0.377   7.112 -0.2552 -0.2129 -0.1440
  613MOL0     C82640   5.272   0.367   7.220  0.2583  0.6071  0.0426
  613MOL0     C82641   5.128   0.371   7.159  0.3381 -0.1463 -0.1990
  613MOL0     C82642   5.014   0.344   7.261  0.6575 -0.0333 -0.4099
  613MOL0     C82643   4.975   0.196   7.274  0.6539  0.2907  0.2242
  613MOL0     O82644   4.874   0.178   7.374  0.4912 -0.1148 -0.3569
  613MOL0     C82645   4.753   0.229   7.354  0.8529 -0.8932 -0.0113
  613MOL0     C82646   4.691   0.238   7.234  0.1259  0.9583  0.2383
  613MOL0     C82647   4.560   0.288   7.218 -0.1129  0.1661 -0.2336
  613MOL0     C82648   4.498   0.279   7.084 -0.0187 -0.6757 -0.2129
  613MOL0     C82649   4.489   0.350   7.327 -0.7503  0.1238 -0.0609
  613MOL0     C82650   4.358   0.423   7.315  0.2496  0.8421  0.1798
  613MOL0     O82651   4.269   0.397   7.413 -0.1136  0.5074 -0.3501
  613MOL0     C82652   4.144   0.458   7.419  0.4165  0.4702 -0.1696
  613MOL0     C82653   4.054   0.409   7.510  1.1162  0.5700 -0.0208
  613MOL0     C82654   3.924   0.461   7.529 -0.3712  0.4881 -0.2978
  613MOL0     C82655   3.880   0.563   7.443  0.5029  0.5270  0.2655
  613MOL0     O82656   3.757   0.610   7.468 -0.2825 -0.4822 -0.2972
  613MOL0     C82657   3.761   0.679   7.598  0.8188  0.3724 -0.6513
  613MOL0     C82658   3.678   0.599   7.706 -0.4167  0.3197 -0.2809
  613MOL0     C82659   3.661   0.701   7.823 -0.0323 -0.0401  0.9521
  613MOL0     C82660   3.538   0.676   7.907  0.3597  0.8137 -0.0443
  613MOL0     C82661   3.519   0.525   7.936  0.0370  0.1716 -0.6504
  613MOL0     C82662   3.378   0.508   7.992 -0.9658 -0.1232  0.8132
  613MOL0     C82663   3.369   0.360   8.037 -0.1393  0.2745 -0.3031
  613MOL0     C82664   3.226   0.305   8.029  0.2191 -0.4869 -0.1413
  613MOL0    Cl82665   3.223   0.135   8.033  0.3561  0.7961 -0.1372
  613MOL0     C82666   3.966   0.618   7.364 -0.7165 -0.4157 -0.7585
  613MOL0     C82667   4.100   0.574   7.353  0.8941 -0.2685  0.3140
  613MOL0     O82668   4.328   0.478   7.212 -0.6010 -0.7103 -0.9629
  613MOL0     C82669   4.547   0.326   7.455 -0.5162  0.0231 -0.0167
  613MOL0     C82670   4.672   0.258   7.468 -0.0181 -0.7586 -0.1829
  613MOL0     N82671   5.394   0.283   7.005 -0.5160 -0.0161 -1.1240
  613MOL0     N82672   5.494   0.313   6.939  0.0461 -0.6615 -0.6422
  613MOL0     C82673   6.824   0.842   6.994 -0.5112 -0.8629  0.3134
  613MOL0     C82674   6.946   0.881   7.037  0.9058 -0.1028 -0.1176
  613MOL0     C82675   7.333   0.990   7.220  0.9056 -0.8847  0.0746
  613MOL0     C82676   7.412   1.103   7.184  0.0322  0.8274  0.8920
  613MOL0     C82677   7.548   1.109   7.216  0.0573 -0.5342 -0.3687
  613MOL0     C82678   7.608   1.000   7.280  0.1409 -1.3439 -0.5153
  613MOL0     O82679   7.740   1.001   7.312  0.4721  0.3615 -0.4412
  613MOL0     C82680   7.831   1.097   7.259 -0.4510 -0.4138  0.1285
  613MOL0     C82681   7.831   1.213   7.361 -0.0261 -0.1032 -0.2954
  613MOL0     C82682   7.947   1.316   7.339 -1.1742 -0.1164  0.8600
  613MOL0     C82683   7.981   1.389   7.473  0.5684 -0.4014  0.2290
  613MOL0     C82684   7.863   1.443   7.525 -0.2373  0.1066  0.8050
  613MOL0     C82685   7.767   1.495   7.577 -0.4101 -1.1062 -0.5029
  613MOL0     C82686   7.533   0.889   7.310 -0.1374 -1.1372 -0.5311
  613MOL0     C82687   7.392   0.887   7.286 -0.2591 -0.4484 -0.3955
  613MOL0     H82688   6.983   0.713   7.316  1.7269  1.2867  0.1878
  613MOL0     H82689   6.760   0.630   7.255 -0.2252 -1.8868 -2.1932
  613MOL0     H82690   6.561   0.556   7.133 -0.2617 -0.2643 -1.1787
  613MOL0     H82691   6.497   0.705   7.198  0.3442 -1.1828  0.9569
  613MOL0     H82692   6.376   0.742   6.976  3.6458  0.8679 -1.2018
  613MOL0     H82693   6.435   0.580   6.940  2.9112  0.7322  1.1614
  613MOL0     H82694   6.294   0.465   7.105 -1.7073 -0.7043  0.0518
  613MOL0     H82695   6.287   0.618   7.207 -2.2443 -0.6982  0.7778
  613MOL0     H82696   6.152   0.697   6.980 -0.6645 -0.6418 -0.4580
  613MOL0     H82697   6.166   0.535   6.931 -2.6392  2.5660 -1.3964
  613MOL0     H82698   6.034   0.447   7.107  1.1109  0.5071 -1.9571
  613MOL0     H82699   6.011   0.612   7.184  1.2168  1.7420 -1.6237
  613MOL0     H82700   5.881   0.671   6.998  0.6475 -0.6297 -0.0340
  613MOL0     H82701   5.948   0.534   6.898  1.8338 -0.8257  0.7821
  613MOL0     H82702   5.820   0.376   7.045  0.6548 -0.3954  1.6118
  613MOL0     H82703   5.751   0.511   7.140 -0.6538 -0.5441 -0.1766
  613MOL0     H82704   5.718   0.442   6.852  2.5221  0.2232  0.4747
  613MOL0     H82705   5.656   0.590   6.915  1.0123 -0.0460  0.6401
  613MOL0     H82706   5.507   0.542   7.174 -0.7485  0.8368 -0.8818
  613MOL0     H82707   5.282   0.271   7.271 -2.4140  0.9118  1.3461
  613MOL0     H82708   5.265   0.451   7.290 -3.6912  1.1823 -0.8508
  613MOL0     H82709   5.121   0.301   7.075  1.2563 -0.5132  0.0122
  613MOL0     H82710   5.120   0.473   7.120  1.4602  0.1818  0.3904
  613MOL0     H82711   4.929   0.401   7.224  1.9346  1.2763 -1.4779
  613MOL0     H82712   5.025   0.383   7.363 -1.9771  0.6327 -0.3212
  613MOL0     H82713   5.062   0.133   7.295 -0.0463 -1.0543 -0.7843
  613MOL0     H82714   4.942   0.143   7.184  4.7721  1.6214 -2.3819
  613MOL0     H82715   4.744   0.201   7.147 -2.4440 -3.2247  0.1731
  613MOL0     H82716   4.541   0.186   7.045 -1.1865 -0.9943 -0.7950
  613MOL0     H82717   4.389   0.283   7.080  0.0059 -0.4341 -0.6554
  613MOL0     H82718   4.529   0.368   7.028 -0.8798 -1.2718 -1.6863
  613MOL0     H82719   4.082   0.324   7.572 -1.7793 -0.1357  0.4912
  613MOL0     H82720   3.849   0.412   7.591 -0.2362 -0.2940 -0.7282
  613MOL0     H82721   3.861   0.705   7.632  0.8630  1.7459 -1.7107
  613MOL0     H82722   3.711   0.774   7.576  0.8124  0.4069 -0.4808
  613MOL0     H82723   3.574   0.578   7.679 -1.7361  2.3256  2.7661
  613MOL0     H82724   3.729   0.506   7.735  0.9482  0.7177 -1.3364
  613MOL0     H82725   3.651   0.801   7.781  2.4579 -1.2926 -3.2208
  613MOL0     H82726   3.753   0.702   7.883  0.4334  2.1617  0.2739
  613MOL0     H82727   3.557   0.732   7.999  3.7194  1.2187 -0.8645
  613MOL0     H82728   3.452   0.711   7.849 -1.3306 -3.1089 -0.2884
  613MOL0     H82729   3.602   0.493   8.000 -0.9967  0.1295  0.7170
  613MOL0     H82730   3.530   0.457   7.851  1.3965  0.1297 -0.4545
  613MOL0     H82731   3.354   0.571   8.078  2.2161  0.4517  1.3858
  613MOL0     H82732   3.303   0.535   7.916 -1.6825  0.0054  1.5508
  613MOL0     H82733   3.412   0.356   8.138 -1.8233  1.0948  0.4830
  613MOL0     H82734   3.428   0.296   7.971 -2.6933 -0.5378 -1.9226
  613MOL0     H82735   3.180   0.337   7.935  0.3106  3.7520  1.0349
  613MOL0     H82736   3.174   0.339   8.119  2.0439 -3.6309  2.2889
  613MOL0     H82737   3.937   0.706   7.306  1.2325  1.8637  1.4934
  613MOL0     H82738   4.170   0.631   7.293  0.2780  0.3452  0.1610
  613MOL0     H82739   4.496   0.384   7.531 -0.3185  2.7422 -1.8138
  613MOL0     H82740   4.721   0.245   7.564  3.3787 -0.9046 -1.7978
  613MOL0     H82741   6.789   0.867   6.895 -0.9359 -0.4274  0.5725
  613MOL0     H82742   7.003   0.951   6.977  0.7778 -1.2188 -1.5965
  613MOL0     H82743   7.376   1.191   7.131  0.1768  0.3335 -0.0642
  613MOL0     H82744   7.610   1.197   7.199  0.0357 -0.2106  1.1080
  613MOL0     H82745   7.931   1.056   7.245 -0.2426  0.6967 -2.1792
  613MOL0     H82746   7.806   1.135   7.159 -4.6600 -1.2993  0.6614
  613MOL0     H82747   7.853   1.166   7.458  4.3405  0.7976 -0.6361
  613MOL0     H82748   7.735   1.264   7.349 -1.0374 -1.8920 -0.1275
  613MOL0     H82749   7.926   1.382   7.255 -0.1028  2.0744  2.2204
  613MOL0     H82750   8.042   1.267   7.316 -0.4522  1.3326  0.6397
  613MOL0     H82751   8.039   1.479   7.450  0.5018 -0.7975 -1.7222
  613MOL0     H82752   8.023   1.322   7.548 -2.6809 -1.1271  1.5537
  613MOL0     H82753   7.698   1.555   7.632 -0.6548 -1.6769 -0.1836
  613MOL0     H82754   7.567   0.803   7.367 -0.5886 -0.4048  0.8835
  613MOL0     H82755   7.327   0.814   7.334 -2.2502  1.9519  0.8587
  614MOL0     O82756   1.432   7.980   3.254 -0.2995  0.3366 -0.4462
  614MOL0     C82757   1.420   8.018   3.369 -0.0511  0.4277 -0.8814
  614MOL0     O82758   1.306   8.071   3.423 -0.1458  0.7100  0.5306
  614MOL0     C82759   1.187   8.028   3.380 -0.4567 -0.6060 -0.2020
  614MOL0     C82760   1.076   8.114   3.362  0.0175  0.1600  0.3903
  614MOL0     C82761   0.954   8.060   3.317  0.5442  0.5098 -0.3388
  614MOL0     C82762   0.938   7.924   3.281  0.4291  0.1846  0.7870
  614MOL0     O82763   0.822   7.879   3.229 -0.7194  0.0493  0.3575
  614MOL0     C82764   0.780   7.744   3.260 -0.9841 -0.7902  0.2582
  614MOL0     C82765   0.629   7.728   3.260  0.5652  0.5884  0.0288
  614MOL0     C82766   0.554   7.832   3.350  0.2821  0.1584  0.2099
  614MOL0     C82767   0.400   7.824   3.338  0.4434  0.1231 -0.4032
  614MOL0     C82768   0.332   7.931   3.425  0.3488  0.1971  0.1090
  614MOL0     C82769   0.193   7.962   3.357  0.2006  0.5051  0.8365
  614MOL0     C82770   0.102   8.035   3.444  0.7416 -0.6913 -0.2760
  614MOL0     C82771   0.161   8.166   3.499 -0.1342 -0.3212 -0.2266
  614MOL0     N82772   0.040   8.234   3.551  0.0580  0.0153 -0.2502
  614MOL0     C82773  -0.027   8.336   3.482  0.0229  0.8745 -0.3976
  614MOL0     C82774  -0.133   8.359   3.556  0.5781  0.6198 -0.4714
  614MOL0     C82775  -0.248   8.449   3.520  0.4259  0.2174  0.1775
  614MOL0     C82776  -0.296   8.421   3.384 -0.3095  0.4325  0.9978
  614MOL0     C82777  -0.420   8.516   3.356 -0.3805  0.2857 -0.4049
  614MOL0     C82778  -0.550   8.465   3.414 -0.9545  0.0041  0.6412
  614MOL0     O82779  -0.634   8.572   3.373  0.0844 -0.3657  0.5018
  614MOL0     C82780  -0.770   8.569   3.395  0.7399  0.5113 -0.4957
  614MOL0     C82781  -0.846   8.668   3.325  0.1998 -0.4761  1.0271
  614MOL0     C82782  -0.979   8.683   3.348  0.4523 -0.2220 -0.1589
  614MOL0     C82783  -1.048   8.810   3.295 -0.4985  0.0272 -0.6082
  614MOL0     C82784  -1.044   8.590   3.436 -0.5590  0.3494  0.1384
  614MOL0     C82785  -1.191   8.586   3.437 -0.0426  0.4834  0.2130
  614MOL0     O82786  -1.245   8.574   3.312  0.2117  0.4940 -0.3012
  614MOL0     C82787  -1.382   8.567   3.301  1.2319 -0.4780  0.4368
  614MOL0     C82788  -1.457   8.679   3.322  0.7562  0.5379 -0.4147
  614MOL0     C82789  -1.593   8.682   3.296  0.0393  0.0106 -1.1611
  614MOL0     C82790  -1.657   8.570   3.239  0.5749  0.3175  0.3410
  614MOL0     O82791  -1.790   8.561   3.220  0.0803 -0.4289  0.0259
  614MOL0     C82792  -1.872   8.672   3.208 -0.0964  0.2245 -0.6225
  614MOL0     C82793  -2.012   8.621   3.178  0.6893 -0.0643  0.3861
  614MOL0     C82794  -2.117   8.719   3.228  0.0721  0.3045 -0.7784
  614MOL0     C82795  -2.256   8.716   3.158  0.3362 -0.5429 -0.2514
  614MOL0     C82796  -2.370   8.783   3.248 -0.4904  0.1315  0.1465
  614MOL0     C82797  -2.334   8.921   3.298  0.5133  0.4199  0.0918
  614MOL0     C82798  -2.440   8.984   3.400 -0.5010 -0.0642  0.1556
  614MOL0     C82799  -2.465   8.909   3.535  0.2533  0.2106 -0.6885
  614MOL0    Cl82800  -2.305   8.845   3.602 -0.2646  0.1544  0.2014
  614MOL0     C82801  -1.580   8.458   3.216 -0.2062  0.1578 -0.0768
  614MOL0     C82802  -1.441   8.453   3.248  0.4649  0.9554  0.0745
  614MOL0     O82803  -1.255   8.577   3.544 -0.2822 -0.4154 -0.1102
  614MOL0     C82804  -0.971   8.480   3.493 -0.8325  0.1368 -0.5954
  614MOL0     C82805  -0.836   8.475   3.483 -1.1927  0.2846  0.0773
  614MOL0     N82806  -0.116   8.292   3.680  0.4262 -0.0891 -0.7935
  614MOL0     N82807  -0.018   8.210   3.673 -0.5145 -0.5235  1.0218
  614MOL0     C82808   1.049   7.843   3.307 -0.0783  0.8894  0.6218
  614MOL0     C82809   1.168   7.890   3.360 -0.0953 -0.9546  0.6555
  614MOL0     C82810   1.545   8.019   3.453  0.9792 -0.1756 -0.5641
  614MOL0     C82811   1.539   8.061   3.588 -0.3967  0.0864  0.3731
  614MOL0     C82812   1.657   8.056   3.668  0.5705 -0.0476  0.1197
  614MOL0     C82813   1.777   8.008   3.620  0.2368 -0.1334 -0.6710
  614MOL0     O82814   1.883   8.014   3.708 -0.1950 -0.1163  0.4998
  614MOL0     C82815   2.005   7.939   3.690  0.5573 -0.0949 -0.1239
  614MOL0     C82816   1.969   7.818   3.786 -0.2358  0.5591 -0.2393
  614MOL0     C82817   2.096   7.752   3.842 -0.6522 -0.3023  0.8563
  614MOL0     C82818   2.181   7.688   3.731 -0.0400 -0.5032  0.4884
  614MOL0     C82819   2.320   7.662   3.771  0.4430  1.2076 -0.7347
  614MOL0     C82820   2.432   7.637   3.814 -0.7509 -0.7988 -0.2430
  614MOL0     C82821   1.784   7.966   3.485 -0.0636  0.5794 -0.6884
  614MOL0     C82822   1.669   7.962   3.412  0.8618 -0.0879  0.4439
  614MOL0     H82823   1.092   8.221   3.374 -0.0827  0.1075  1.0754
  614MOL0     H82824   0.865   8.121   3.301 -0.7017 -0.3725  2.6071
  614MOL0     H82825   0.827   7.673   3.192  1.4785  0.5933  0.3776
  614MOL0     H82826   0.800   7.720   3.364 -1.9108  0.1061  0.6609
  614MOL0     H82827   0.587   7.715   3.159  0.6374 -4.0700  0.3555
  614MOL0     H82828   0.607   7.633   3.310  0.2203  0.9328  0.5341
  614MOL0     H82829   0.579   7.813   3.455  0.4549 -0.7752  0.0104
  614MOL0     H82830   0.585   7.934   3.329  0.6161 -0.3488 -1.9569
  614MOL0     H82831   0.378   7.839   3.231 -0.2756 -2.2139 -0.6302
  614MOL0     H82832   0.362   7.725   3.363 -1.9043  0.9468 -0.4421
  614MOL0     H82833   0.314   7.890   3.525  1.8181 -0.5300  0.0944
  614MOL0     H82834   0.399   8.017   3.435  2.3288 -1.2964  0.2496
  614MOL0     H82835   0.213   8.027   3.271  0.4381 -1.4245 -0.6370
  614MOL0     H82836   0.146   7.872   3.316  0.6184  1.7085 -2.6267
  614MOL0     H82837   0.012   8.053   3.383  0.6631 -1.2492 -0.3296
  614MOL0     H82838   0.068   7.981   3.533 -0.4309 -1.1406 -0.9657
  614MOL0     H82839   0.210   8.221   3.418  1.6107 -0.7882  0.4658
  614MOL0     H82840   0.226   8.155   3.586 -1.1203  2.8259  1.0517
  614MOL0     H82841  -0.013   8.387   3.388 -1.7013 -0.8794 -1.6948
  614MOL0     H82842  -0.329   8.427   3.590  0.8042 -0.6185  0.3681
  614MOL0     H82843  -0.226   8.556   3.522  1.5164 -0.0156  1.2809
  614MOL0     H82844  -0.312   8.317   3.353  0.1914  1.1375 -1.9092
  614MOL0     H82845  -0.217   8.452   3.316 -0.8128  1.5658  0.9075
  614MOL0     H82846  -0.435   8.529   3.248  0.0118 -1.8860 -0.7784
  614MOL0     H82847  -0.387   8.615   3.389  2.7651 -1.9890  4.5097
  614MOL0     H82848  -0.543   8.456   3.523  1.2599 -1.6031  0.4261
  614MOL0     H82849  -0.580   8.370   3.370  0.3417 -0.0304 -0.2019
  614MOL0     H82850  -0.783   8.732   3.263 -0.2813 -1.5033 -0.5656
  614MOL0     H82851  -1.083   8.785   3.194 -3.0996 -0.7653  0.4011
  614MOL0     H82852  -1.132   8.840   3.359 -1.5989 -3.8905  0.0650
  614MOL0     H82853  -0.979   8.895   3.290 -2.3450  1.6364  0.0498
  614MOL0     H82854  -1.407   8.774   3.332 -0.9035  1.5060 -1.0249
  614MOL0     H82855  -1.655   8.764   3.329 -0.3999 -0.1125 -1.6793
  614MOL0     H82856  -1.876   8.728   3.302  0.4932  0.1698 -0.5616
  614MOL0     H82857  -1.837   8.741   3.131  1.4818 -1.0591 -1.1001
  614MOL0     H82858  -2.023   8.616   3.069  1.9308  3.9296 -0.0708
  614MOL0     H82859  -2.043   8.528   3.227 -0.9018  0.4271  0.3978
  614MOL0     H82860  -2.076   8.821   3.232 -2.1967  1.2315  0.4621
  614MOL0     H82861  -2.132   8.698   3.335  1.4968 -0.1264 -0.6411
  614MOL0     H82862  -2.243   8.773   3.065  2.7866 -0.2451  0.2114
  614MOL0     H82863  -2.280   8.612   3.132 -0.2468  0.0378 -2.2456
  614MOL0     H82864  -2.388   8.719   3.334 -3.1762 -0.5310 -0.8142
  614MOL0     H82865  -2.465   8.786   3.194 -0.4297 -0.8408 -0.0394
  614MOL0     H82866  -2.241   8.923   3.356 -0.3595 -0.9155  1.6287
  614MOL0     H82867  -2.321   8.987   3.211  1.0909  0.1684 -0.0151
  614MOL0     H82868  -2.535   9.012   3.354 -0.6707 -0.4510  0.2665
  614MOL0     H82869  -2.391   9.077   3.430 -0.0538 -0.9815  2.4449
  614MOL0     H82870  -2.523   8.818   3.515  0.4162 -0.0055 -0.2066
  614MOL0     H82871  -2.512   8.966   3.616 -0.3704 -1.0671 -0.1243
  614MOL0     H82872  -1.644   8.379   3.176 -0.3523  0.1263  0.2135
  614MOL0     H82873  -1.372   8.371   3.232  2.1135  2.1145  1.0133
  614MOL0     H82874  -1.019   8.411   3.561  1.1194  1.0230  1.8590
  614MOL0     H82875  -0.780   8.401   3.539 -0.4339  1.3077  0.7284
  614MOL0     H82876   1.042   7.736   3.289 -4.3838  0.6985  2.2979
  614MOL0     H82877   1.254   7.824   3.371  0.1807 -0.8203 -0.5737
  614MOL0     H82878   1.447   8.112   3.616 -0.2611  0.4258  0.2038
  614MOL0     H82879   1.652   8.075   3.775  0.8768 -1.0408  0.3245
  614MOL0     H82880   2.036   7.910   3.590  2.5097  0.1988  0.3480
  614MOL0     H82881   2.083   8.005   3.731 -0.5212 -0.3601  2.6177
  614MOL0     H82882   1.916   7.734   3.739  0.1477 -0.3929  0.9726
  614MOL0     H82883   1.916   7.848   3.876 -0.2827  0.1841 -0.1412
  614MOL0     H82884   2.066   7.683   3.921  0.1929  0.3618  1.7870
  614MOL0     H82885   2.156   7.830   3.891  1.5093 -0.7590 -0.8702
  614MOL0     H82886   2.194   7.762   3.652  0.0539 -0.0698  0.9029
  614MOL0     H82887   2.135   7.597   3.691  2.1149 -1.1014 -0.7848
  614MOL0     H82888   2.534   7.623   3.842 -0.4294  1.2149 -0.3081
  614MOL0     H82889   1.876   7.945   3.430  0.7827  2.6945 -0.1770
  614MOL0     H82890   1.655   7.924   3.311 -3.6579  3.9047 -0.8172
  615MOL0     O82891   4.233   4.466   4.776 -0.2415  0.0605 -0.4827
  615MOL0     C82892   4.197   4.444   4.661  0.4756 -0.1181  0.5462
  615MOL0     O82893   4.073   4.464   4.613 -0.1485 -0.0250 -0.5889
  615MOL0     C82894   3.972   4.507   4.698  0.1454  0.2535  0.5222
  615MOL0     C82895   3.946   4.445   4.823 -0.5396 -0.0488 -0.8022
  615MOL0     C82896   3.829   4.476   4.894 -0.0144  0.9347  0.3275
  615MOL0     C82897   3.738   4.569   4.849  0.0999  0.0828  0.8896
  615MOL0     O82898   3.631   4.601   4.926 -0.3711 -0.2275 -0.4009
  615MOL0     C82899   3.514   4.635   4.843  0.2008  0.4658  0.6172
  615MOL0     C82900   3.379   4.626   4.920 -0.2074  0.1870 -0.2782
  615MOL0     C82901   3.263   4.681   4.836  0.4097  0.2306 -0.6057
  615MOL0     C82902   3.126   4.682   4.911  0.3814 -0.0573  0.2921
  615MOL0     C82903   3.040   4.797   4.840 -1.2146  0.6579  0.5613
  615MOL0     C82904   2.894   4.805   4.892 -0.0231 -0.2118 -1.6975
  615MOL0     C82905   2.801   4.685   4.861 -1.1555  0.5344 -0.2033
  615MOL0     C82906   2.661   4.715   4.911 -0.0285 -0.2621  0.9286
  615MOL0     N82907   2.637   4.692   5.048 -0.6654 -0.0138 -0.2442
  615MOL0     C82908   2.651   4.795   5.138 -0.1079 -0.3114  0.1239
  615MOL0     C82909   2.672   4.718   5.253  0.1412  0.7104  0.7546
  615MOL0     C82910   2.709   4.774   5.387 -0.0931  0.5711  0.2094
  615MOL0     C82911   2.815   4.688   5.453  0.2125  0.2475 -0.0856
  615MOL0     C82912   2.947   4.664   5.377 -0.1372  0.8057  0.2958
  615MOL0     C82913   3.025   4.793   5.349  0.7827 -0.0589 -0.0624
  615MOL0     O82914   3.142   4.760   5.279 -0.1416 -0.2772  0.5880
  615MOL0     C82915   3.258   4.723   5.348  0.1801 -0.3720 -0.5053
  615MOL0     C82916   3.341   4.621   5.305  0.4790  0.7551  0.1479
  615MOL0     C82917   3.469   4.589   5.352 -0.3970  0.8349 -0.0652
  615MOL0     C82918   3.550   4.475   5.296  0.1790  0.5852 -0.3581
  615MOL0     C82919   3.520   4.680   5.453  0.2455  1.1715  0.4314
  615MOL0     C82920   3.656   4.682   5.504  0.3597  0.5638 -1.0164
  615MOL0     O82921   3.717   4.797   5.541 -0.0098 -0.0556 -0.0501
  615MOL0     C82922   3.835   4.800   5.612 -0.1925 -0.2349 -1.2214
  615MOL0     C82923   3.838   4.882   5.725 -0.3580 -0.5126  0.2872
  615MOL0     C82924   3.956   4.891   5.794  0.1176 -1.0117  0.0820
  615MOL0     C82925   4.079   4.832   5.746 -0.5420 -0.2995  0.0787
  615MOL0     O82926   4.197   4.848   5.817  0.6854 -0.4361  0.6708
  615MOL0     C82927   4.323   4.811   5.770 -0.1608  0.1049 -0.2838
  615MOL0     C82928   4.433   4.837   5.876 -0.4373 -0.3558 -0.5060
  615MOL0     C82929   4.576   4.822   5.826 -0.7842  0.8850  0.5419
  615MOL0     C82930   4.683   4.898   5.913  0.4877  0.4645  0.4652
  615MOL0     C82931   4.822   4.858   5.896  0.3130 -0.3997  0.8584
  615MOL0     C82932   4.904   4.920   6.006 -0.4972 -0.3311  0.0552
  615MOL0     C82933   5.056   4.887   5.980  0.3588  0.6265  0.3229
  615MOL0     C82934   5.138   4.962   6.090  0.5889  0.2168 -0.4218
  615MOL0    Cl82935   5.128   5.132   6.086 -0.0647 -0.1484  0.1013
  615MOL0     C82936   4.071   4.774   5.615  0.5574 -0.2143 -0.5610
  615MOL0     C82937   3.956   4.747   5.556  1.2042 -0.6182  1.3226
  615MOL0     O82938   3.701   4.568   5.539 -0.7324  0.6234  0.1567
  615MOL0     C82939   3.435   4.774   5.509  0.0082  0.9817  0.0898
  615MOL0     C82940   3.315   4.801   5.448 -0.5012 -0.7738  0.3752
  615MOL0     N82941   2.657   4.580   5.223  0.5214  0.1240 -0.0963
  615MOL0     N82942   2.637   4.565   5.098  0.3167 -0.5408 -0.2971
  615MOL0     C82943   3.763   4.635   4.721  0.3689 -0.7414  0.2317
  615MOL0     C82944   3.871   4.590   4.649  0.5438  0.4052  0.5934
  615MOL0     C82945   4.284   4.379   4.559 -0.0259 -0.5387 -0.1871
  615MOL0     C82946   4.249   4.380   4.425 -0.8567  0.6580 -0.8981
  615MOL0     C82947   4.337   4.317   4.327  1.2142 -0.0475 -0.7160
  615MOL0     C82948   4.439   4.236   4.372  0.3497  0.1687 -0.0991
  615MOL0     O82949   4.507   4.180   4.268  0.4007 -0.1034 -0.5897
  615MOL0     C82950   4.627   4.101   4.273 -0.4446 -0.1540 -0.2212
  615MOL0     C82951   4.758   4.182   4.249 -0.1119 -0.9411 -0.0912
  615MOL0     C82952   4.761   4.294   4.130  0.1556 -0.0618  0.6524
  615MOL0     C82953   4.750   4.221   4.000 -0.9586  0.2801 -1.4266
  615MOL0     C82954   4.610   4.191   3.965 -0.5993  0.5271  0.1240
  615MOL0     C82955   4.495   4.155   3.949 -0.2847  0.1211  0.4546
  615MOL0     C82956   4.462   4.228   4.512 -0.3222 -0.7894  0.4801
  615MOL0     C82957   4.391   4.306   4.596 -0.6212  0.1347  0.3853
  615MOL0     H82958   4.015   4.369   4.858  0.7282  1.8139  1.0137
  615MOL0     H82959   3.808   4.417   4.983  2.3875  1.6078  1.4353
  615MOL0     H82960   3.527   4.736   4.802  1.1947 -0.4291 -1.4287
  615MOL0     H82961   3.516   4.569   4.756 -0.0828  0.5371  0.5557
  615MOL0     H82962   3.354   4.522   4.946 -3.6359  0.5569 -1.5646
  615MOL0     H82963   3.377   4.687   5.010  0.4343  0.9044 -0.7383
  615MOL0     H82964   3.294   4.787   4.837 -1.1927  0.7366 -1.6524
  615MOL0     H82965   3.268   4.640   4.735  2.2852 -3.2783  0.7461
  615MOL0     H82966   3.075   4.585   4.912  0.6461 -0.1938  0.8313
  615MOL0     H82967   3.143   4.713   5.015  2.0648 -1.6311  0.5233
  615MOL0     H82968   3.095   4.892   4.840 -0.7035  0.3966 -0.8430
  615MOL0     H82969   3.033   4.774   4.733  3.4874  0.8885 -0.0013
  615MOL0     H82970   2.910   4.818   4.999  0.0644 -1.1673 -1.5937
  615MOL0     H82971   2.855   4.895   4.843  2.4248 -0.2744 -3.9739
  615MOL0     H82972   2.794   4.663   4.754 -1.5084  4.3108 -1.0940
  615MOL0     H82973   2.834   4.590   4.903  0.0040 -0.0852 -2.3898
  615MOL0     H82974   2.592   4.650   4.855  0.5687 -0.5658  0.5308
  615MOL0     H82975   2.627   4.816   4.884  1.2217  0.2012  1.0142
  615MOL0     H82976   2.649   4.903   5.124 -0.7845 -0.3646 -0.2577
  615MOL0     H82977   2.744   4.877   5.375  0.9167  0.2842  0.6136
  615MOL0     H82978   2.619   4.775   5.450 -0.9079  2.7193 -0.8911
  615MOL0     H82979   2.766   4.593   5.476 -0.9400  0.0473 -2.8597
  615MOL0     H82980   2.841   4.742   5.544  1.2312  3.1831 -1.9736
  615MOL0     H82981   2.928   4.611   5.283 -0.6112 -1.0290  1.3849
  615MOL0     H82982   3.010   4.605   5.444  0.0454  2.3127  1.4836
  615MOL0     H82983   3.041   4.850   5.441  0.9910 -1.6873  0.9475
  615MOL0     H82984   2.962   4.853   5.283  0.6305  1.9035  1.7132
  615MOL0     H82985   3.314   4.569   5.214  0.5389  1.7690 -0.4649
  615MOL0     H82986   3.650   4.500   5.260  0.9701 -2.1669 -0.3324
  615MOL0     H82987   3.547   4.401   5.377  0.1450  1.6357  0.6354
  615MOL0     H82988   3.500   4.433   5.209  2.9024 -1.9880 -0.8229
  615MOL0     H82989   3.742   4.918   5.759  0.8246  3.5408 -0.1980
  615MOL0     H82990   3.978   4.947   5.884  1.8794 -1.4482 -0.0265
  615MOL0     H82991   4.330   4.708   5.732 -0.2099  0.6474 -1.8377
  615MOL0     H82992   4.354   4.871   5.684  1.8233 -0.3750  0.0456
  615MOL0     H82993   4.426   4.942   5.904  2.6674 -0.3085  0.5035
  615MOL0     H82994   4.413   4.787   5.972  1.3309  1.9019  1.1474
  615MOL0     H82995   4.578   4.858   5.723  1.2571  1.2847  0.6631
  615MOL0     H82996   4.599   4.715   5.834  0.0403  0.9680 -0.4644
  615MOL0     H82997   4.676   5.005   5.889  0.4752  0.5039  0.6403
  615MOL0     H82998   4.664   4.885   6.020  1.4652  0.1594  0.6122
  615MOL0     H82999   4.864   4.880   5.798 -1.5336 -3.0534 -0.6609
  615MOL0     H83000   4.833   4.750   5.897  0.0582 -0.4548 -0.4871
  615MOL0     H83001   4.886   5.028   6.012 -0.6699 -0.3697  0.2454
  615MOL0     H83002   4.879   4.871   6.101 -2.1585 -1.7441 -1.0699
  615MOL0     H83003   5.082   4.922   5.879  0.5620  0.0096  0.1622
  615MOL0     H83004   5.075   4.781   5.995 -3.2675  0.0031  1.6147
  615MOL0     H83005   5.243   4.933   6.088  0.3626 -0.6852  0.0498
  615MOL0     H83006   5.103   4.936   6.191  1.7462 -2.0894 -0.5386
  615MOL0     H83007   4.167   4.735   5.581  0.8312  1.6006 -2.0011
  615MOL0     H83008   3.965   4.699   5.459 -1.1650  0.4989  0.4772
  615MOL0     H83009   3.481   4.835   5.586  2.6804 -0.7606  0.0189
  615MOL0     H83010   3.271   4.897   5.474  0.0957 -0.5297  0.5012
  615MOL0     H83011   3.705   4.722   4.690 -1.7125 -0.9145  3.1999
  615MOL0     H83012   3.883   4.625   4.547  0.1213  0.0370  0.4173
  615MOL0     H83013   4.163   4.440   4.397 -1.1343  0.4915 -0.4106
  615MOL0     H83014   4.312   4.338   4.224 -1.5598  0.7532  0.0242
  615MOL0     H83015   4.627   4.050   4.370  1.2374  1.1076  0.4897
  615MOL0     H83016   4.602   4.037   4.188 -1.6947  0.4617 -0.3416
  615MOL0     H83017   4.836   4.108   4.228  1.6941  1.1927 -1.3770
  615MOL0     H83018   4.781   4.228   4.346 -1.4795 -1.7163  0.6215
  615MOL0     H83019   4.853   4.352   4.126  0.7141 -0.8819  1.1960
  615MOL0     H83020   4.678   4.360   4.157 -1.1642 -1.5896  0.4958
  615MOL0     H83021   4.800   4.124   4.002 -3.0819 -0.8747 -1.7140
  615MOL0     H83022   4.806   4.272   3.922  4.2956 -2.6908 -0.0406
  615MOL0     H83023   4.393   4.124   3.937 -0.6631  1.4780  0.0326
  615MOL0     H83024   4.550   4.182   4.555  1.7618  4.0612  2.0505
  615MOL0     H83025   4.413   4.290   4.701  0.7054 -0.7709 -0.0058
  616MOL0     O83026   3.378   6.646   9.080  0.1622  0.1156 -0.3154
  616MOL0     C83027   3.403   6.592   8.968 -0.2690  0.2120 -0.5318
  616MOL0     O83028   3.314   6.583   8.866 -0.3270 -0.2502 -0.5568
  616MOL0     C83029   3.194   6.641   8.891  0.0685  0.3496  0.1215
  616MOL0     C83030   3.079   6.565   8.879  0.4498  0.0552 -0.7144
  616MOL0     C83031   2.947   6.617   8.900  0.3499  1.6206 -0.0078
  616MOL0     C83032   2.925   6.751   8.912  0.3759  0.0326 -0.3357
  616MOL0     O83033   2.804   6.806   8.938  0.0605 -0.2143  0.1824
  616MOL0     C83034   2.790   6.944   8.965  0.4512  0.8516 -0.1179
  616MOL0     C83035   2.644   6.970   8.994 -0.1860 -0.6507 -0.6985
  616MOL0     C83036   2.590   6.894   9.117  0.1683  0.5883 -0.5578
  616MOL0     C83037   2.623   6.973   9.245  0.2063  0.1977  0.8360
  616MOL0     C83038   2.575   6.908   9.373 -0.1369  0.2356  0.5368
  616MOL0     C83039   2.661   6.792   9.425  0.1143  1.4301  0.1242
  616MOL0     C83040   2.630   6.744   9.565 -0.7447 -0.6735 -0.0989
  616MOL0     C83041   2.634   6.848   9.680  0.3824  0.0290 -0.0107
  616MOL0     N83042   2.750   6.936   9.684  0.0719 -0.4211 -1.0045
  616MOL0     C83043   2.880   6.897   9.700  0.3552 -1.0741  0.6548
  616MOL0     C83044   2.951   7.010   9.698 -0.0369 -0.8162  0.2810
  616MOL0     C83045   3.102   7.026   9.714  0.5370  0.2667 -0.0832
  616MOL0     C83046   3.172   7.060   9.576  0.5458  0.0805 -0.1868
  616MOL0     C83047   3.319   7.098   9.598  0.4958  0.0830  1.0098
  616MOL0     C83048   3.399   6.979   9.664  0.2503 -0.2380  0.2312
  616MOL0     O83049   3.546   6.982   9.645  0.2346 -0.0644 -0.1195
  616MOL0     C83050   3.606   6.942   9.528  0.0409  0.5779 -0.3389
  616MOL0     C83051   3.751   6.938   9.531  0.3833 -0.0377 -0.4090
  616MOL0     C83052   3.822   6.898   9.416 -0.0423 -0.0958  0.0356
  616MOL0     C83053   3.978   6.883   9.435  0.4591 -0.0831  0.0851
  616MOL0     C83054   3.751   6.876   9.293 -0.4533 -0.6718  0.1433
  616MOL0     C83055   3.826   6.855   9.165  0.5905 -0.5241  0.0781
  616MOL0     O83056   3.955   6.887   9.153 -0.0192 -0.0156 -0.4173
  616MOL0     C83057   4.026   6.814   9.061  0.9253  0.0264 -0.5227
  616MOL0     C83058   4.082   6.870   8.948 -0.0270 -0.1480 -0.5760
  616MOL0     C83059   4.168   6.805   8.866 -0.1990  0.0101 -0.4428
  616MOL0     C83060   4.200   6.675   8.892  0.1486  0.6818  0.0897
  616MOL0     O83061   4.284   6.593   8.818 -0.0350  0.4854 -0.0108
  616MOL0     C83062   4.338   6.636   8.690 -0.1958  0.6859 -0.2885
  616MOL0     C83063   4.424   6.511   8.637  0.4086 -0.3321  1.1310
  616MOL0     C83064   4.539   6.467   8.725 -0.0345  0.2212 -0.1437
  616MOL0     C83065   4.638   6.375   8.659 -0.1692 -0.6199 -0.2472
  616MOL0     C83066   4.756   6.324   8.740  0.0767 -0.1830 -0.2148
  616MOL0     C83067   4.873   6.263   8.656 -0.6683 -0.3052  0.2678
  616MOL0     C83068   4.968   6.200   8.751 -0.4957  0.1916  0.0899
  616MOL0     C83069   5.088   6.153   8.683 -0.3195  0.1333 -0.2831
  616MOL0    Cl83070   5.183   6.054   8.800  0.1697 -0.5846  0.2307
  616MOL0     C83071   4.139   6.610   9.001  0.0531 -0.7029 -0.0159
  616MOL0     C83072   4.052   6.680   9.086 -0.4983  0.2630  0.4297
  616MOL0     O83073   3.756   6.820   9.072 -0.2717 -0.0869 -0.0885
  616MOL0     C83074   3.607   6.871   9.295  0.2177 -1.3773  0.7206
  616MOL0     C83075   3.535   6.905   9.411 -0.2911  0.6279  0.5275
  616MOL0     N83076   2.860   7.117   9.680 -0.0972  0.7808 -0.0357
  616MOL0     N83077   2.738   7.068   9.672  0.0507 -0.1047  0.7626
  616MOL0     C83078   3.045   6.828   8.920 -0.0841 -0.0009  0.7582
  616MOL0     C83079   3.174   6.776   8.915 -0.5572  0.0301  0.1732
  616MOL0     C83080   3.540   6.539   8.941 -0.5720  0.5157 -0.4768
  616MOL0     C83081   3.623   6.517   9.042 -0.0673 -0.2507  0.1482
  616MOL0     C83082   3.752   6.459   9.021  0.1903  0.4231 -0.0122
  616MOL0     C83083   3.787   6.417   8.891 -0.7717  0.0845 -0.8364
  616MOL0     O83084   3.908   6.350   8.874  0.3959 -0.3708  0.5993
  616MOL0     C83085   4.003   6.419   8.786  0.6137  0.3098  0.6528
  616MOL0     C83086   4.005   6.355   8.647 -0.1524  0.0730 -0.0796
  616MOL0     C83087   4.034   6.195   8.638 -0.5867 -0.0422  0.6261
  616MOL0     C83088   4.180   6.156   8.684 -0.9092 -0.3587  0.3158
  616MOL0     C83089   4.204   6.009   8.687 -0.1124 -0.1443  0.8281
  616MOL0     C83090   4.233   5.890   8.687 -0.2801 -0.4343 -0.4204
  616MOL0     C83091   3.706   6.443   8.782  0.3056 -0.2634  0.1227
  616MOL0     C83092   3.580   6.505   8.812 -0.6120  0.3374 -0.8051
  616MOL0     H83093   3.085   6.458   8.864  1.8230 -0.4638  2.8059
  616MOL0     H83094   2.881   6.533   8.918  1.0959  1.2360  1.0127
  616MOL0     H83095   2.861   6.969   9.044  0.7216  1.1177 -0.4448
  616MOL0     H83096   2.818   6.998   8.875 -0.1764 -2.4845 -2.4931
  616MOL0     H83097   2.629   7.077   9.012 -1.6468 -1.2305  1.9263
  616MOL0     H83098   2.589   6.945   8.903 -0.8444  0.6075 -0.6560
  616MOL0     H83099   2.482   6.875   9.120  0.4877 -1.4046  0.7686
  616MOL0     H83100   2.632   6.794   9.131 -1.5479 -0.2765 -1.3088
  616MOL0     H83101   2.727   7.005   9.249  1.0747 -2.5532  2.5159
  616MOL0     H83102   2.557   7.058   9.224 -1.8419 -1.8637 -1.8611
  616MOL0     H83103   2.578   6.986   9.450  2.0889  1.0724 -0.3286
  616MOL0     H83104   2.471   6.883   9.348 -0.2718  2.4946 -1.5080
  616MOL0     H83105   2.638   6.707   9.360 -2.6637  2.3755 -0.2426
  616MOL0     H83106   2.767   6.816   9.434  0.6058 -0.7531  0.9333
  616MOL0     H83107   2.531   6.697   9.567 -2.1343  2.0561  2.2300
  616MOL0     H83108   2.697   6.660   9.589 -0.4965 -0.6300 -0.6495
  616MOL0     H83109   2.615   6.805   9.779  0.1466 -0.8515 -0.4274
  616MOL0     H83110   2.547   6.905   9.650  0.5655 -1.1368 -3.1551
  616MOL0     H83111   2.925   6.799   9.711  1.3786 -0.6972 -0.0522
  616MOL0     H83112   3.129   7.105   9.785  0.6790 -0.2226  0.4092
  616MOL0     H83113   3.138   6.930   9.751 -0.4833 -0.1710 -0.1791
  616MOL0     H83114   3.118   7.148   9.539 -1.1005 -0.7914  0.0249
  616MOL0     H83115   3.156   6.982   9.500 -1.8018  1.0507 -0.7858
  616MOL0     H83116   3.323   7.179   9.672  0.7448 -1.5405  2.8634
  616MOL0     H83117   3.363   7.122   9.501 -2.3566 -1.6889 -0.8704
  616MOL0     H83118   3.374   6.880   9.623 -1.7582 -0.9743  2.9485
  616MOL0     H83119   3.368   6.975   9.769 -1.9327  2.7592 -0.1916
  616MOL0     H83120   3.806   6.972   9.618  0.6043 -2.8232  0.6589
  616MOL0     H83121   4.011   6.797   9.377 -1.9436 -1.5339  0.7624
  616MOL0     H83122   4.029   6.977   9.410  0.4393  1.0244  3.6320
  616MOL0     H83123   4.007   6.871   9.540 -1.7208  1.0200  0.8615
  616MOL0     H83124   4.065   6.976   8.929 -1.3660 -0.8291 -3.6805
  616MOL0     H83125   4.219   6.852   8.783  2.1164 -3.7232 -1.3819
  616MOL0     H83126   4.256   6.663   8.622  0.9941  2.8587 -0.9609
  616MOL0     H83127   4.394   6.729   8.700  2.3417 -0.6732 -1.1326
  616MOL0     H83128   4.359   6.426   8.611  2.4147 -1.4693 -0.4642
  616MOL0     H83129   4.462   6.558   8.546  0.9369  1.7937  2.3982
  616MOL0     H83130   4.492   6.406   8.803 -1.0646  0.6340 -0.4314
  616MOL0     H83131   4.583   6.560   8.763 -0.5830  0.5635 -0.3475
  616MOL0     H83132   4.582   6.300   8.601  0.2063 -1.1798  0.1012
  616MOL0     H83133   4.681   6.438   8.581 -0.2581 -1.7478 -1.2466
  616MOL0     H83134   4.724   6.265   8.826  2.5928  0.4762  1.2685
  616MOL0     H83135   4.798   6.412   8.789 -0.7781 -0.9258  1.9784
  616MOL0     H83136   4.845   6.193   8.577  3.6701  1.7007 -3.5886
  616MOL0     H83137   4.918   6.348   8.604 -0.6015 -0.3681  0.2231
  616MOL0     H83138   4.921   6.108   8.789  0.6580 -1.8758 -3.0652
  616MOL0     H83139   4.993   6.266   8.834  2.2344 -2.7893  1.9029
  616MOL0     H83140   5.142   6.237   8.638  0.3858  0.3763  0.9681
  616MOL0     H83141   5.061   6.092   8.596 -0.0021 -0.2030 -0.1487
  616MOL0     H83142   4.165   6.507   9.021  1.5865 -0.9247 -2.6702
  616MOL0     H83143   4.006   6.625   9.167  0.3698 -1.0609  0.0465
  616MOL0     H83144   3.546   6.847   9.208 -1.0271  1.5566  0.6657
  616MOL0     H83145   3.427   6.894   9.408 -0.1624 -0.6953 -0.0643
  616MOL0     H83146   3.047   6.937   8.924  1.0950  0.0760 -0.8545
  616MOL0     H83147   3.260   6.842   8.915 -1.1371  0.8041 -0.9692
  616MOL0     H83148   3.590   6.556   9.138 -1.2889 -2.2098  0.5759
  616MOL0     H83149   3.818   6.429   9.102  1.9504 -2.1644 -2.2362
  616MOL0     H83150   3.978   6.524   8.773  0.7375  0.4570  1.5524
  616MOL0     H83151   4.097   6.403   8.839  0.0209 -2.8804  0.9907
  616MOL0     H83152   4.065   6.413   8.576  1.5759 -0.5177  0.8230
  616MOL0     H83153   3.913   6.372   8.591  0.5937  0.3373 -1.2591
  616MOL0     H83154   4.023   6.163   8.534  2.4082  1.0493 -0.1156
  616MOL0     H83155   3.952   6.145   8.690 -2.3353  0.1488 -1.7673
  616MOL0     H83156   4.201   6.195   8.784  1.7237  1.1594 -0.7212
  616MOL0     H83157   4.255   6.206   8.621  1.3016 -0.0070  3.0257
  616MOL0     H83158   4.236   5.788   8.719 -1.6281 -0.8140 -1.4150
  616MOL0     H83159   3.732   6.427   8.677  3.4333  0.6775  0.6290
  616MOL0     H83160   3.512   6.514   8.727  1.5094 -2.0333 -2.9436
  617MOL0     O83161   7.424  11.131   5.777 -0.4929 -1.0376  0.2366
  617MOL0     C83162   7.479  11.193   5.874 -0.5152  0.5566  0.2074
  617MOL0     O83163   7.433  11.193   6.005 -0.0770  0.4469  0.2936
  617MOL0     C83164   7.311  11.147   6.049  0.0033  0.3209  0.0044
  617MOL0     C83165   7.242  11.035   6.013 -0.6913  0.6827 -0.7525
  617MOL0     C83166   7.131  10.981   6.078 -0.7063 -0.7271  0.3903
  617MOL0     C83167   7.069  11.048   6.183  0.1233  0.0531  0.6634
  617MOL0     O83168   6.967  10.995   6.259  0.2328 -0.6302  0.6551
  617MOL0     C83169   6.866  10.931   6.185 -0.2519 -0.6186  0.0197
  617MOL0     C83170   6.736  10.988   6.237  0.2385  0.0171 -0.2894
  617MOL0     C83171   6.601  10.945   6.161 -0.2437 -0.8402  0.1373
  617MOL0     C83172   6.609  10.794   6.140  0.4548  0.4314 -0.2978
  617MOL0     C83173   6.476  10.726   6.178 -0.4268 -0.0608  0.7982
  617MOL0     C83174   6.350  10.784   6.100 -0.4378 -0.6304  0.4245
  617MOL0     C83175   6.224  10.697   6.140 -0.0975 -0.0788 -0.2591
  617MOL0     C83176   6.088  10.772   6.110 -0.2755 -0.0332 -0.1369
  617MOL0     N83177   5.963  10.695   6.126 -0.1327 -0.1121  0.0058
  617MOL0     C83178   5.862  10.717   6.216  1.6921  0.0056  0.0375
  617MOL0     C83179   5.779  10.609   6.203  0.2877 -0.0233  0.5887
  617MOL0     C83180   5.663  10.579   6.294  0.0902  0.1454 -0.3090
  617MOL0     C83181   5.522  10.592   6.230  0.1419 -0.1344  1.0607
  617MOL0     C83182   5.506  10.471   6.134 -0.1959 -0.1589 -0.4102
  617MOL0     C83183   5.417  10.501   6.010  0.1040 -0.2773 -0.2172
  617MOL0     O83184   5.291  10.536   6.067  0.0676 -1.1009 -1.1173
  617MOL0     C83185   5.192  10.559   5.976 -0.7406  0.5733 -0.8571
  617MOL0     C83186   5.194  10.555   5.834  0.1268 -0.5413  0.8181
  617MOL0     C83187   5.080  10.583   5.757  0.4780  0.0025  0.0232
  617MOL0     C83188   5.096  10.569   5.609  0.1768 -1.0658 -0.0939
  617MOL0     C83189   4.961  10.620   5.824 -0.2161  0.2760  1.0793
  617MOL0     C83190   4.824  10.663   5.766 -0.2862 -0.1195 -0.0396
  617MOL0     O83191   4.722  10.695   5.854  0.1503  0.5354  0.2182
  617MOL0     C83192   4.602  10.723   5.786 -0.1498 -0.5912 -0.1622
  617MOL0     C83193   4.515  10.625   5.742 -0.3084 -0.4648  1.4300
  617MOL0     C83194   4.395  10.643   5.673 -1.1710  0.0508  0.5482
  617MOL0     C83195   4.342  10.775   5.677 -0.8214  0.5077 -0.2391
  617MOL0     O83196   4.226  10.815   5.624 -0.1316 -0.6539  0.3579
  617MOL0     C83197   4.123  10.726   5.579  0.4996 -0.1457  0.5052
  617MOL0     C83198   4.072  10.628   5.687  0.3322 -0.5544  0.1355
  617MOL0     C83199   3.988  10.692   5.812 -0.5309  0.8230  1.2196
  617MOL0     C83200   3.859  10.755   5.772 -0.5626 -0.0953 -0.3565
  617MOL0     C83201   3.756  10.668   5.707  0.1828 -0.3105  0.7114
  617MOL0     C83202   3.619  10.737   5.690  0.0617 -0.6034 -0.4668
  617MOL0     C83203   3.511  10.634   5.676 -0.1009  0.1407  0.5928
  617MOL0     C83204   3.362  10.683   5.657 -0.7873  0.4897 -0.2179
  617MOL0    Cl83205   3.339  10.756   5.497 -0.3053  0.2417  0.0353
  617MOL0     C83206   4.422  10.874   5.736 -0.4499  0.4158 -0.2644
  617MOL0     C83207   4.554  10.852   5.776  0.3221 -0.5550  0.3656
  617MOL0     O83208   4.818  10.673   5.649  0.3774  0.3245  0.3681
  617MOL0     C83209   4.964  10.621   5.961 -0.0975  0.5303  0.3934
  617MOL0     C83210   5.074  10.586   6.040 -0.0839 -0.6226  0.4037
  617MOL0     N83211   5.839  10.522   6.111  0.3681 -0.0817 -0.0622
  617MOL0     N83212   5.942  10.577   6.068  0.0710 -0.1726  0.1939
  617MOL0     C83213   7.141  11.162   6.219  0.7594 -0.1154  0.4175
  617MOL0     C83214   7.250  11.210   6.163  0.2563  0.4173  0.6979
  617MOL0     C83215   7.592  11.284   5.848 -0.9472  0.5212  0.3461
  617MOL0     C83216   7.633  11.382   5.935  0.1975  0.3332 -0.7579
  617MOL0     C83217   7.738  11.468   5.907 -0.3409  0.3924 -0.0761
  617MOL0     C83218   7.821  11.449   5.803  0.0142  0.1789 -0.9969
  617MOL0     O83219   7.937  11.531   5.804  0.3184  0.1070 -0.1385
  617MOL0     C83220   8.064  11.464   5.820 -0.3666  0.4120  0.0924
  617MOL0     C83221   8.086  11.426   5.966 -0.1869  0.7571 -0.2720
  617MOL0     C83222   8.185  11.516   6.040 -0.3932 -0.2376 -0.6148
  617MOL0     C83223   8.201  11.473   6.190 -0.2490 -0.6960 -0.5240
  617MOL0     C83224   8.081  11.452   6.263  0.0871 -0.3638 -0.6509
  617MOL0     C83225   7.977  11.452   6.327  1.2125 -0.8860  0.5798
  617MOL0     C83226   7.774  11.366   5.709 -0.0764  0.4490 -0.2983
  617MOL0     C83227   7.665  11.281   5.729 -0.5082  0.1023  0.3405
  617MOL0     H83228   7.287  10.978   5.932  3.3694  3.2015 -0.5741
  617MOL0     H83229   7.111  10.881   6.039  1.9119 -0.7003 -1.3254
  617MOL0     H83230   6.873  10.949   6.077 -1.2339 -0.6810 -0.0700
  617MOL0     H83231   6.873  10.823   6.205 -1.4347 -0.9639 -1.2325
  617MOL0     H83232   6.728  10.957   6.342  1.7620  0.3801 -0.0411
  617MOL0     H83233   6.741  11.096   6.253 -1.4491 -0.2809  2.9137
  617MOL0     H83234   6.511  10.976   6.215  1.2804  0.9230  1.7876
  617MOL0     H83235   6.595  10.999   6.066 -1.8820  0.1424  0.7532
  617MOL0     H83236   6.640  10.772   6.037  0.9272 -0.2707 -0.0180
  617MOL0     H83237   6.679  10.748   6.211  1.2628  0.6036 -0.9692
  617MOL0     H83238   6.489  10.619   6.156 -2.2325 -0.0252 -0.6942
  617MOL0     H83239   6.455  10.743   6.284  0.0913 -0.0060  0.8950
  617MOL0     H83240   6.331  10.890   6.117 -1.1761 -0.9405  1.6845
  617MOL0     H83241   6.385  10.773   5.997 -0.9359 -2.8405  0.4387
  617MOL0     H83242   6.213  10.596   6.102  1.1286 -0.9569  1.5853
  617MOL0     H83243   6.231  10.682   6.248  0.2138 -1.2408 -0.4366
  617MOL0     H83244   6.096  10.805   6.006  0.4961  1.7150  0.4391
  617MOL0     H83245   6.084  10.856   6.179 -3.3561 -1.2961  1.4111
  617MOL0     H83246   5.856  10.796   6.290  0.2655 -0.2288  0.2134
  617MOL0     H83247   5.671  10.492   6.360 -2.8561  1.0067  1.3519
  617MOL0     H83248   5.668  10.662   6.364  4.5962  1.7526 -2.1360
  617MOL0     H83249   5.517  10.680   6.166  2.3771 -1.7437 -1.5726
  617MOL0     H83250   5.444  10.607   6.305 -0.8253  0.5065 -0.0341
  617MOL0     H83251   5.450  10.403   6.199 -1.4230 -0.2472 -1.5081
  617MOL0     H83252   5.604  10.430   6.109  0.3155 -0.9357  2.4856
  617MOL0     H83253   5.405  10.420   5.938  1.6665 -0.8527  0.1158
  617MOL0     H83254   5.463  10.579   5.949  0.4999  0.2698  0.7652
  617MOL0     H83255   5.287  10.536   5.780  1.0203  3.0012  0.8348
  617MOL0     H83256   5.202  10.581   5.587 -0.3912  2.5086 -1.5940
  617MOL0     H83257   5.055  10.473   5.574 -2.1829 -0.0640 -0.2261
  617MOL0     H83258   5.045  10.646   5.551 -0.2431 -1.0427  0.3048
  617MOL0     H83259   4.556  10.526   5.759  2.8205 -0.2019 -2.8079
  617MOL0     H83260   4.343  10.559   5.627  0.6604 -1.1451  0.5753
  617MOL0     H83261   4.050  10.802   5.551  1.2304  0.2975 -0.2254
  617MOL0     H83262   4.150  10.663   5.494  0.7238  2.1872 -1.2517
  617MOL0     H83263   4.011  10.546   5.648  0.9000 -0.5037 -0.8815
  617MOL0     H83264   4.161  10.582   5.733  1.6016 -0.0069 -1.6797
  617MOL0     H83265   4.057  10.766   5.855 -0.5755  0.9665  1.0456
  617MOL0     H83266   3.972  10.620   5.893  0.0944  0.6458  1.1891
  617MOL0     H83267   3.812  10.803   5.858  0.5863 -0.7162  0.6494
  617MOL0     H83268   3.883  10.839   5.707 -0.8292  0.0425 -0.2786
  617MOL0     H83269   3.729  10.578   5.763 -1.7594 -0.2603 -0.0371
  617MOL0     H83270   3.792  10.647   5.606  0.5761  2.0446  0.3073
  617MOL0     H83271   3.600  10.808   5.772 -0.3755  0.2560 -1.2917
  617MOL0     H83272   3.624  10.799   5.600  2.2182 -0.8306 -0.5640
  617MOL0     H83273   3.505  10.575   5.768 -1.6663 -1.8438 -0.6946
  617MOL0     H83274   3.536  10.568   5.592  0.9077  2.5218 -1.1049
  617MOL0     H83275   3.344  10.754   5.738 -3.7034 -0.9075  0.5163
  617MOL0     H83276   3.293  10.598   5.667 -2.2260  1.7049  0.6749
  617MOL0     H83277   4.393  10.976   5.759  3.2249  1.3596  0.8314
  617MOL0     H83278   4.619  10.932   5.808  0.2967 -0.4149  0.0694
  617MOL0     H83279   4.885  10.663   6.022  1.2457  0.0859  2.5808
  617MOL0     H83280   5.067  10.584   6.148  0.6273  0.1060  0.4740
  617MOL0     H83281   7.091  11.204   6.306 -1.3051  1.5154 -1.4313
  617MOL0     H83282   7.295  11.303   6.197  0.1945 -0.0701  2.2194
  617MOL0     H83283   7.585  11.388   6.033 -0.6278 -0.2623 -1.1217
  617MOL0     H83284   7.761  11.544   5.981 -3.3021 -1.6242  3.2553
  617MOL0     H83285   8.063  11.375   5.757 -1.0478  0.3594  0.1680
  617MOL0     H83286   8.137  11.540   5.790 -3.5178  3.9676  0.6126
  617MOL0     H83287   8.119  11.322   5.968  1.4782  1.2091  3.7304
  617MOL0     H83288   7.989  11.422   6.016 -0.6939  0.3077 -1.2634
  617MOL0     H83289   8.169  11.624   6.034  0.9124 -0.0866 -2.2701
  617MOL0     H83290   8.283  11.505   5.991 -0.9484 -1.3362 -1.5247
  617MOL0     H83291   8.262  11.554   6.230  2.0729 -1.9007 -1.3738
  617MOL0     H83292   8.250  11.375   6.197 -0.7393 -0.8692  0.6348
  617MOL0     H83293   7.881  11.460   6.374 -0.6151  0.2429 -3.0219
  617MOL0     H83294   7.823  11.351   5.614 -3.9749 -0.7618 -2.3329
  617MOL0     H83295   7.629  11.210   5.655 -0.3236 -0.8363  1.1325
  618MOL0     O83296   3.589   9.460   3.378 -0.6482 -0.4225  0.5570
  618MOL0     C83297   3.580   9.560   3.309 -0.5578  0.4237  0.3354
  618MOL0     O83298   3.462   9.624   3.262  0.3284 -0.0579  0.2828
  618MOL0     C83299   3.345   9.577   3.305 -0.2070  0.6153 -0.2574
  618MOL0     C83300   3.280   9.466   3.249  0.5730 -0.1045 -0.5705
  618MOL0     C83301   3.150   9.432   3.291  0.0473 -0.6930  0.3987
  618MOL0     C83302   3.086   9.510   3.387 -0.2200 -0.1703  0.3613
  618MOL0     O83303   2.964   9.465   3.435  0.0460 -0.5180  0.4796
  618MOL0     C83304   2.878   9.563   3.515  0.5240  0.8258  0.1374
  618MOL0     C83305   2.820   9.666   3.420 -0.4758 -0.7617  0.6034
  618MOL0     C83306   2.710   9.597   3.331 -0.4592  0.7631  0.4184
  618MOL0     C83307   2.664   9.696   3.227  0.2652  0.2529  0.4500
  618MOL0     C83308   2.558   9.628   3.150 -0.0645  0.9908  0.0728
  618MOL0     C83309   2.515   9.721   3.037 -0.7536  0.4000 -0.8267
  618MOL0     C83310   2.385   9.677   2.963 -0.4264  1.1094  0.0363
  618MOL0     C83311   2.341   9.767   2.845 -0.3049 -0.5158 -0.5567
  618MOL0     N83312   2.214   9.844   2.864 -0.6303 -0.1687  0.5912
  618MOL0     C83313   2.188   9.956   2.784  0.8464  0.1078 -0.1743
  618MOL0     C83314   2.074  10.012   2.846  1.2879 -0.1448  0.0572
  618MOL0     C83315   1.998  10.127   2.797  0.2286  0.1130  0.3745
  618MOL0     C83316   1.892  10.177   2.894 -0.7602 -0.1642 -1.0775
  618MOL0     C83317   1.837  10.303   2.845  0.2878 -0.5351  0.2818
  618MOL0     C83318   1.742  10.373   2.934  0.6057 -0.0070 -0.4755
  618MOL0     O83319   1.698  10.495   2.868 -0.1783 -0.0833 -0.0782
  618MOL0     C83320   1.620  10.581   2.943 -0.2519  0.2720  0.5883
  618MOL0     C83321   1.671  10.638   3.062  0.4074  0.5685  0.5634
  618MOL0     C83322   1.595  10.716   3.139 -0.0409 -0.7837 -0.7551
  618MOL0     C83323   1.678  10.791   3.248 -0.1695 -0.1346 -0.1088
  618MOL0     C83324   1.461  10.730   3.122 -0.1755  0.2439 -0.4977
  618MOL0     C83325   1.373  10.816   3.210  0.0973  0.3429  0.2304
  618MOL0     O83326   1.244  10.827   3.159 -0.8309  0.2546  0.0903
  618MOL0     C83327   1.136  10.878   3.213  0.9925  0.5767  0.0598
  618MOL0     C83328   1.059  10.975   3.145 -0.5088  0.1113  0.0177
  618MOL0     C83329   0.932  11.013   3.186 -0.2030  0.8386  0.0585
  618MOL0     C83330   0.887  10.968   3.309  0.1543 -0.5201 -0.1734
  618MOL0     O83331   0.757  10.998   3.342 -0.2906  0.1724  0.6251
  618MOL0     C83332   0.688  10.921   3.443  0.6991 -0.6318  0.5559
  618MOL0     C83333   0.549  10.976   3.476  0.1065 -0.0171  0.6948
  618MOL0     C83334   0.445  10.981   3.360 -0.8273 -0.3906  0.1981
  618MOL0     C83335   0.326  11.069   3.388  0.8450 -0.3433 -0.5765
  618MOL0     C83336   0.244  11.064   3.267  0.5633  0.0922 -0.8584
  618MOL0     C83337   0.121  11.167   3.294 -0.2552 -1.0700  0.2403
  618MOL0     C83338   0.023  11.175   3.167  1.1574  0.3895  1.2097
  618MOL0     C83339  -0.094  11.272   3.192  0.0805  0.7542  0.1578
  618MOL0    Cl83340  -0.210  11.252   3.062  0.2792  0.1148 -0.1138
  618MOL0     C83341   0.960  10.878   3.383 -0.4865 -1.1850  0.3618
  618MOL0     C83342   1.082  10.834   3.338 -0.7881  0.7147  0.1887
  618MOL0     O83343   1.408  10.869   3.313  0.4344  0.0734  0.4861
  618MOL0     C83344   1.410  10.678   3.005  0.2644 -0.5631  0.0834
  618MOL0     C83345   1.488  10.608   2.908  0.0735 -0.8733 -0.7928
  618MOL0     N83346   2.050   9.947   2.967 -0.1540  0.5879 -0.8312
  618MOL0     N83347   2.126   9.843   2.967 -0.2505  0.2888 -0.2206
  618MOL0     C83348   3.155   9.617   3.447  1.1284  0.0671  0.4094
  618MOL0     C83349   3.282   9.647   3.402  0.7805 -0.3994 -0.4370
  618MOL0     C83350   3.700   9.637   3.293  0.3674 -0.9700 -0.5647
  618MOL0     C83351   3.702   9.772   3.335 -0.6554  0.2172 -0.1006
  618MOL0     C83352   3.814   9.853   3.309 -0.4127  0.0117 -0.7422
  618MOL0     C83353   3.927   9.799   3.255 -0.0337 -0.7129 -0.0321
  618MOL0     O83354   4.044   9.871   3.254  0.0293 -0.8205  0.0140
  618MOL0     C83355   4.028  10.003   3.212  1.1649 -0.2589 -0.6218
  618MOL0     C83356   4.133  10.044   3.112 -0.3348  0.1151 -0.1924
  618MOL0     C83357   4.147   9.944   2.997  0.5804 -0.9217  0.2214
  618MOL0     C83358   4.205  10.010   2.872 -0.3368 -0.1871  0.6377
  618MOL0     C83359   4.338  10.073   2.893  0.3959  0.2851 -0.3737
  618MOL0     C83360   4.443  10.132   2.896  0.2872 -0.1458  0.0836
  618MOL0     C83361   3.923   9.663   3.222 -0.0110  0.0926  0.8123
  618MOL0     C83362   3.812   9.581   3.235 -0.2136 -0.7079 -0.0384
  618MOL0     H83363   3.326   9.396   3.182  0.0950  0.9869 -2.0942
  618MOL0     H83364   3.098   9.351   3.240 -0.6629 -1.6620  2.5515
  618MOL0     H83365   2.792   9.516   3.564 -0.2527  1.4056 -0.6449
  618MOL0     H83366   2.939   9.606   3.595  2.7239  1.5686 -1.8369
  618MOL0     H83367   2.777   9.750   3.475 -1.2262 -0.2684 -0.6726
  618MOL0     H83368   2.896   9.711   3.355  0.6848 -2.8200  0.4507
  618MOL0     H83369   2.764   9.517   3.280  3.0963  3.1368  0.1569
  618MOL0     H83370   2.633   9.553   3.395 -0.7852 -1.7049 -1.5343
  618MOL0     H83371   2.625   9.786   3.276  0.1383  2.5784 -3.4643
  618MOL0     H83372   2.748   9.718   3.160  0.4898 -1.2536  0.2093
  618MOL0     H83373   2.585   9.534   3.102  0.4150  1.4033 -0.4815
  618MOL0     H83374   2.480   9.593   3.218  1.7164  0.0174  1.6734
  618MOL0     H83375   2.494   9.816   3.087 -1.7028  0.1000 -0.6375
  618MOL0     H83376   2.606   9.728   2.976  0.1669  1.5406  0.6068
  618MOL0     H83377   2.395   9.575   2.925  1.2358  1.1213  0.3946
  618MOL0     H83378   2.309   9.672   3.042  0.7182  1.3626  1.1838
  618MOL0     H83379   2.356   9.718   2.748  2.0710 -1.4392  0.2149
  618MOL0     H83380   2.397   9.860   2.858 -3.4152  1.4723 -0.1662
  618MOL0     H83381   2.238   9.990   2.694 -1.0751  0.1345 -1.3058
  618MOL0     H83382   2.072  10.208   2.796  1.1714 -0.5829 -3.4941
  618MOL0     H83383   1.957  10.107   2.698  2.4623 -1.7205 -0.2780
  618MOL0     H83384   1.927  10.196   2.996 -2.4304  2.4523 -0.9039
  618MOL0     H83385   1.814  10.101   2.899 -1.0894  0.1514 -1.3646
  618MOL0     H83386   1.780  10.279   2.755 -1.8074  0.5166  1.2493
  618MOL0     H83387   1.915  10.372   2.813 -1.4370  1.7944  0.7798
  618MOL0     H83388   1.780  10.390   3.036  0.5349 -0.7632 -0.3190
  618MOL0     H83389   1.657  10.305   2.938  2.0032 -1.8648 -0.9792
  618MOL0     H83390   1.772  10.616   3.094  0.0464 -1.8118  0.2794
  618MOL0     H83391   1.648  10.758   3.348 -0.4845  1.4174  0.3244
  618MOL0     H83392   1.787  10.775   3.247 -0.0223 -1.0286  4.4586
  618MOL0     H83393   1.658  10.898   3.239  0.8567  0.0637 -0.1882
  618MOL0     H83394   1.096  11.001   3.047  1.9233 -1.0218  0.5511
  618MOL0     H83395   0.878  11.085   3.126  0.1638  0.7931 -0.3277
  618MOL0     H83396   0.672  10.818   3.413 -1.1867  0.8081 -4.3808
  618MOL0     H83397   0.751  10.932   3.532 -0.7311 -1.4514  1.7114
  618MOL0     H83398   0.512  10.910   3.555  2.5109 -2.3026  0.0528
  618MOL0     H83399   0.544  11.077   3.517 -1.7267 -0.0996  0.7584
  618MOL0     H83400   0.426  10.881   3.321  2.1532 -1.0382  0.1842
  618MOL0     H83401   0.496  11.026   3.274  0.4584 -1.9701  0.0928
  618MOL0     H83402   0.257  11.043   3.469  2.1859  1.5990  1.2986
  618MOL0     H83403   0.362  11.171   3.406  1.7952 -0.7485 -0.1070
  618MOL0     H83404   0.201  10.964   3.252  0.3844  0.1467 -0.7024
  618MOL0     H83405   0.301  11.080   3.175 -0.7406 -0.8653 -1.8674
  618MOL0     H83406   0.072  11.146   3.389  1.9382 -1.4256  1.3435
  618MOL0     H83407   0.171  11.263   3.306 -0.3277 -0.9241 -0.5654
  618MOL0     H83408  -0.015  11.075   3.146  2.2516  0.2729 -0.3396
  618MOL0     H83409   0.080  11.197   3.076 -0.5730 -1.4802 -0.4199
  618MOL0     H83410  -0.066  11.377   3.179 -0.8604  0.9868 -0.0389
  618MOL0     H83411  -0.145  11.268   3.289 -1.0213  1.7338 -0.3546
  618MOL0     H83412   0.917  10.827   3.468 -1.9793 -0.7086 -0.0851
  618MOL0     H83413   1.138  10.759   3.392 -1.9325 -0.9190 -0.8104
  618MOL0     H83414   1.311  10.706   2.968 -2.0450 -4.3956  2.6658
  618MOL0     H83415   1.446  10.578   2.813 -1.3926 -1.1975 -0.0801
  618MOL0     H83416   3.113   9.685   3.520 -0.8664 -3.6801  3.0691
  618MOL0     H83417   3.325   9.737   3.445 -1.1189 -1.1265  3.4161
  618MOL0     H83418   3.615   9.821   3.377  0.6146  0.8765  1.9573
  618MOL0     H83419   3.809   9.957   3.339 -1.4401  0.3455 -1.9844
  618MOL0     H83420   3.939  10.018   3.150 -0.5028 -1.6311  1.2976
  618MOL0     H83421   4.024  10.070   3.299 -0.3128 -0.0819 -0.7964
  618MOL0     H83422   4.230  10.053   3.162 -0.0074  0.6288 -0.8984
  618MOL0     H83423   4.103  10.142   3.075  2.4541  1.2020  0.2128
  618MOL0     H83424   4.043   9.917   2.977 -0.8343  3.8323 -0.1899
  618MOL0     H83425   4.196   9.854   3.035  0.3619 -0.3523  1.9444
  618MOL0     H83426   4.141  10.091   2.834  0.7635  0.6657  0.5479
  618MOL0     H83427   4.225   9.945   2.787  1.4560  1.4694 -0.3032
  618MOL0     H83428   4.533  10.190   2.905  2.5615 -3.2236 -1.0527
  618MOL0     H83429   4.012   9.629   3.169 -0.5183 -2.1072  1.2851
  618MOL0     H83430   3.813   9.474   3.213  2.6800 -1.1755  1.8116
  619MOL0     O83431   0.737   4.471   8.823 -0.0289  0.1495  0.0868
  619MOL0     C83432   0.644   4.405   8.874  0.0680  0.5504  0.6268
  619MOL0     O83433   0.668   4.293   8.955  0.6360 -0.4899  0.0429
  619MOL0     C83434   0.796   4.283   9.001  1.5681 -0.4436 -0.2831
  619MOL0     C83435   0.854   4.390   9.071  0.4243 -0.3116 -0.4192
  619MOL0     C83436   0.973   4.375   9.139  0.0824 -0.2279 -0.4232
  619MOL0     C83437   1.039   4.259   9.134 -0.8634 -0.2531 -0.4751
  619MOL0     O83438   1.146   4.226   9.218  0.3657  0.3528  0.9224
  619MOL0     C83439   1.179   4.318   9.324 -0.2017  0.1503 -0.1875
  619MOL0     C83440   1.320   4.281   9.390  0.0308 -0.3463 -0.7174
  619MOL0     C83441   1.333   4.132   9.414  0.3402 -0.4253 -0.0138
  619MOL0     C83442   1.226   4.089   9.520 -0.5924  0.4337 -1.1758
  619MOL0     C83443   1.267   3.948   9.580 -0.4591 -1.1194  0.6280
  619MOL0     C83444   1.247   3.838   9.472  0.5197  0.6620  0.6291
  619MOL0     C83445   1.321   3.709   9.507 -0.1717 -0.2141 -0.8605
  619MOL0     C83446   1.302   3.660   9.646 -0.4433 -0.0828  0.1476
  619MOL0     N83447   1.156   3.634   9.664  0.7346  0.2990 -0.1195
  619MOL0     C83448   1.082   3.510   9.650 -0.3953 -0.0670 -0.8867
  619MOL0     C83449   0.960   3.547   9.678  0.6079  0.6946  0.1006
  619MOL0     C83450   0.837   3.452   9.670  0.2788 -1.0959 -0.1865
  619MOL0     C83451   0.766   3.498   9.545  0.3786 -0.6743 -0.5869
  619MOL0     C83452   0.684   3.382   9.492  0.2944 -0.4861 -0.4511
  619MOL0     C83453   0.625   3.409   9.349 -0.2402  0.0250 -0.5540
  619MOL0     O83454   0.551   3.291   9.326  0.3963 -0.6246  0.0731
  619MOL0     C83455   0.422   3.293   9.384 -0.4376 -0.4825 -0.6713
  619MOL0     C83456   0.348   3.182   9.353  0.5596 -0.1310 -0.3228
  619MOL0     C83457   0.223   3.160   9.400 -0.3895  0.0078 -0.1182
  619MOL0     C83458   0.158   3.042   9.335  0.5445 -0.2684 -0.7996
  619MOL0     C83459   0.156   3.264   9.479 -0.7775  0.0758  0.0076
  619MOL0     C83460   0.009   3.274   9.513  0.7837  0.0795 -0.1888
  619MOL0     O83461  -0.042   3.400   9.516 -0.5386  0.0002 -0.0204
  619MOL0     C83462  -0.174   3.416   9.540 -0.2966 -0.6243 -0.7504
  619MOL0     C83463  -0.282   3.331   9.494 -0.3173  0.2904  0.0982
  619MOL0     C83464  -0.417   3.359   9.531  1.1352 -0.0345 -0.5644
  619MOL0     C83465  -0.453   3.467   9.617 -0.0116 -0.3891 -0.2289
  619MOL0     O83466  -0.582   3.495   9.663 -0.4136  0.7649 -0.2420
  619MOL0     C83467  -0.700   3.407   9.641 -0.2634 -0.6070 -0.0233
  619MOL0     C83468  -0.825   3.479   9.699 -1.4478  0.3115  0.4110
  619MOL0     C83469  -0.945   3.432   9.622  0.5677  0.3526 -0.0372
  619MOL0     C83470  -1.076   3.449   9.701  0.2963  0.4092  0.5825
  619MOL0     C83471  -1.197   3.382   9.631 -0.7415  0.2837 -0.4983
  619MOL0     C83472  -1.224   3.463   9.503 -0.2324 -0.1383 -0.4247
  619MOL0     C83473  -1.357   3.425   9.445 -0.2645 -0.2069 -0.2175
  619MOL0     C83474  -1.386   3.483   9.305  0.2210  0.1043  0.0088
  619MOL0    Cl83475  -1.539   3.420   9.231  0.3047  0.4159 -0.0862
  619MOL0     C83476  -0.348   3.549   9.655  0.2261 -0.8496  0.3253
  619MOL0     C83477  -0.217   3.527   9.620 -0.8864 -0.5961 -0.3942
  619MOL0     O83478  -0.059   3.169   9.527  0.5178  0.0761  0.3205
  619MOL0     C83479   0.234   3.377   9.520  0.1330 -0.2507 -0.3294
  619MOL0     C83480   0.365   3.392   9.471  0.6737  0.1406 -0.5214
  619MOL0     N83481   0.942   3.677   9.702 -0.1281 -0.1269 -0.9323
  619MOL0     N83482   1.063   3.730   9.693  0.5768  0.3063 -0.4261
  619MOL0     C83483   0.985   4.151   9.059 -0.0760 -0.3293 -0.7148
  619MOL0     C83484   0.869   4.165   8.986  0.0561  1.0865  1.4769
  619MOL0     C83485   0.502   4.455   8.855 -0.0708  0.6228 -0.6571
  619MOL0     C83486   0.398   4.392   8.923  0.1268 -0.1437 -0.2997
  619MOL0     C83487   0.261   4.423   8.903 -0.9508  0.8188  0.1609
  619MOL0     C83488   0.220   4.522   8.810  0.1804 -0.2440 -0.3884
  619MOL0     O83489   0.083   4.549   8.813 -0.4162 -0.1947 -1.0554
  619MOL0     C83490   0.025   4.624   8.705  0.5679 -0.7702  0.5772
  619MOL0     C83491  -0.122   4.646   8.743  0.6687 -0.5277  0.9962
  619MOL0     C83492  -0.208   4.646   8.613 -0.8968  0.0230  0.4980
  619MOL0     C83493  -0.358   4.652   8.650 -0.4330 -0.4732  0.6679
  619MOL0     C83494  -0.435   4.636   8.530 -0.0743 -0.0458 -0.6445
  619MOL0     C83495  -0.501   4.642   8.429  0.7628 -0.0488 -0.6449
  619MOL0     C83496   0.334   4.587   8.744  1.6451  0.0405 -0.1760
  619MOL0     C83497   0.464   4.555   8.763  0.1463  0.1795  0.4471
  619MOL0     H83498   0.803   4.484   9.089  1.3964  0.5921 -2.1137
  619MOL0     H83499   1.006   4.467   9.184 -0.7530 -0.3180  0.3947
  619MOL0     H83500   1.188   4.412   9.269 -1.7073 -1.9603 -4.4998
  619MOL0     H83501   1.095   4.314   9.395 -0.9479 -0.2263 -1.0592
  619MOL0     H83502   1.403   4.316   9.328 -1.9841  2.6904 -1.9393
  619MOL0     H83503   1.330   4.329   9.487 -0.4044 -2.6899  0.5556
  619MOL0     H83504   1.331   4.073   9.322 -0.3008 -0.8680  0.2799
  619MOL0     H83505   1.433   4.121   9.457  0.5946  1.6613  0.0112
  619MOL0     H83506   1.231   4.161   9.602  0.1800 -3.8776  3.0577
  619MOL0     H83507   1.125   4.106   9.484 -0.6184 -0.3365 -1.4957
  619MOL0     H83508   1.373   3.936   9.604 -0.4778 -3.0511 -0.0690
  619MOL0     H83509   1.214   3.923   9.672  1.4788  0.1213  2.1772
  619MOL0     H83510   1.141   3.817   9.463  0.5932  0.7626 -0.5687
  619MOL0     H83511   1.286   3.870   9.375 -0.2891 -2.6546 -0.9202
  619MOL0     H83512   1.304   3.630   9.434 -2.4474 -0.6025  0.0142
  619MOL0     H83513   1.427   3.735   9.500 -0.2355  0.7332  0.9776
  619MOL0     H83514   1.334   3.731   9.723 -1.6253  1.8840 -1.1028
  619MOL0     H83515   1.350   3.562   9.655 -1.0964 -0.2840  2.1826
  619MOL0     H83516   1.108   3.407   9.633 -0.2655  0.0568 -1.4880
  619MOL0     H83517   0.859   3.345   9.677  3.0298 -0.6355 -0.6662
  619MOL0     H83518   0.778   3.473   9.760  0.2113 -0.6207 -0.3364
  619MOL0     H83519   0.849   3.519   9.477  2.4355 -1.0182  1.6601
  619MOL0     H83520   0.711   3.590   9.564  0.6701 -0.8646  1.3646
  619MOL0     H83521   0.604   3.369   9.566  1.0534  0.2609  0.5235
  619MOL0     H83522   0.748   3.294   9.503  0.2678 -0.4639 -0.1046
  619MOL0     H83523   0.704   3.419   9.275  1.8450  2.6021  1.7991
  619MOL0     H83524   0.565   3.500   9.345  0.6232  0.5613 -1.7505
  619MOL0     H83525   0.393   3.105   9.290  2.2491 -0.0748  0.7427
  619MOL0     H83526   0.094   3.064   9.248  0.0256  1.4325 -0.0237
  619MOL0     H83527   0.227   2.960   9.313  0.4876 -0.6846  0.5093
  619MOL0     H83528   0.105   3.001   9.421 -0.6330  1.4257 -0.6665
  619MOL0     H83529  -0.259   3.253   9.423  0.4583  2.1954 -1.8791
  619MOL0     H83530  -0.502   3.299   9.499 -0.4916  1.2240  1.1929
  619MOL0     H83531  -0.708   3.397   9.532  0.9976  0.5997 -0.2471
  619MOL0     H83532  -0.683   3.307   9.682  2.1993  0.1040  0.8365
  619MOL0     H83533  -0.827   3.448   9.804 -0.4314 -0.7863  0.1334
  619MOL0     H83534  -0.821   3.588   9.698 -0.2265  0.2941 -0.4402
  619MOL0     H83535  -0.945   3.324   9.605 -1.9986  0.4377 -0.9223
  619MOL0     H83536  -0.952   3.484   9.526 -1.3487 -0.2652 -0.2787
  619MOL0     H83537  -1.060   3.403   9.798  2.4252 -0.2281 -0.0178
  619MOL0     H83538  -1.095   3.556   9.713  0.1976  0.4073  0.4430
  619MOL0     H83539  -1.285   3.383   9.696  0.3267 -0.6976  1.0274
  619MOL0     H83540  -1.178   3.278   9.600  1.2362  0.7493 -1.0273
  619MOL0     H83541  -1.211   3.570   9.523  3.5518 -0.4563 -0.3750
  619MOL0     H83542  -1.147   3.452   9.426  0.9708  3.3928  0.0827
  619MOL0     H83543  -1.436   3.460   9.512 -1.1183 -0.0032 -1.3093
  619MOL0     H83544  -1.366   3.316   9.445 -0.0161 -0.2286 -0.3867
  619MOL0     H83545  -1.303   3.488   9.234 -0.7059 -1.4570 -1.2580
  619MOL0     H83546  -1.414   3.588   9.317 -1.3661 -0.4561  1.6927
  619MOL0     H83547  -0.375   3.625   9.728  0.8095 -1.3521  1.0810
  619MOL0     H83548  -0.130   3.583   9.654 -0.3004 -1.4103 -0.5204
  619MOL0     H83549   0.195   3.451   9.588 -2.9026 -3.2131  1.4680
  619MOL0     H83550   0.414   3.485   9.496 -0.1623 -0.3596  3.7307
  619MOL0     H83551   1.043   4.059   9.066  1.3785  0.4392 -2.0325
  619MOL0     H83552   0.847   4.090   8.911 -0.4513 -0.1461  2.8363
  619MOL0     H83553   0.422   4.318   8.998 -0.9778  0.5873  0.8072
  619MOL0     H83554   0.193   4.384   8.977 -0.2643 -1.1102 -0.1719
  619MOL0     H83555   0.067   4.723   8.686  0.5699 -0.7483  0.6973
  619MOL0     H83556   0.038   4.569   8.611  1.5040 -2.0193  1.4186
  619MOL0     H83557  -0.138   4.740   8.795 -0.5960 -0.8991  1.3133
  619MOL0     H83558  -0.155   4.558   8.801  3.0084 -1.7713  0.5578
  619MOL0     H83559  -0.188   4.557   8.553  1.8837 -0.0965  1.4318
  619MOL0     H83560  -0.178   4.737   8.559 -2.0426 -0.3208 -0.7700
  619MOL0     H83561  -0.394   4.743   8.698 -0.3122  0.9502 -1.7794
  619MOL0     H83562  -0.373   4.572   8.724  2.6580  1.8777  4.1823
  619MOL0     H83563  -0.577   4.656   8.354 -1.3211 -1.5399  1.0484
  619MOL0     H83564   0.312   4.652   8.659 -0.5690  1.1795  1.1854
  619MOL0     H83565   0.533   4.595   8.690 -1.0261 -2.8199 -2.5743
  620MOL0     O83566   5.832   0.888  10.320 -0.1958 -0.8355 -0.3405
  620MOL0     C83567   5.893   0.996  10.311 -0.2219 -0.0891 -0.0673
  620MOL0     O83568   5.847   1.109  10.257  0.8006 -0.8491 -0.2334
  620MOL0     C83569   5.718   1.115  10.202 -0.8231 -0.8733 -0.6050
  620MOL0     C83570   5.609   1.025  10.221  1.1969  1.0445 -0.3447
  620MOL0     C83571   5.488   1.041  10.152 -0.4344  0.8075 -0.7818
  620MOL0     C83572   5.473   1.152  10.062 -0.4498  0.7901  0.0031
  620MOL0     O83573   5.340   1.158  10.018 -0.2196  0.4528  0.5442
  620MOL0     C83574   5.343   1.217   9.892 -0.3358 -0.2493  0.1782
  620MOL0     C83575   5.206   1.186   9.830 -0.3217  0.4974 -0.6931
  620MOL0     C83576   5.169   1.259   9.694 -0.6482 -0.3030  0.0919
  620MOL0     C83577   5.021   1.279   9.693 -0.5584 -0.8934  0.0648
  620MOL0     C83578   4.976   1.384   9.601  0.2858 -0.1648  0.5419
  620MOL0     C83579   4.823   1.400   9.607  0.6936 -0.0773 -0.5468
  620MOL0     C83580   4.765   1.454   9.479  0.2494  0.1025  0.6234
  620MOL0     C83581   4.608   1.422   9.462 -0.1581  0.7535 -0.8090
  620MOL0     N83582   4.523   1.489   9.569 -0.4595  0.5119  0.2059
  620MOL0     C83583   4.498   1.625   9.582  0.1299 -0.2432 -0.5505
  620MOL0     C83584   4.454   1.647   9.710  0.5426  1.0339 -0.5266
  620MOL0     C83585   4.423   1.788   9.766 -0.2451 -0.0116  0.2049
  620MOL0     C83586   4.295   1.850   9.714 -0.7670 -0.3450  0.7356
  620MOL0     C83587   4.174   1.757   9.738  0.8462 -0.0708 -0.3245
  620MOL0     C83588   4.046   1.836   9.693 -0.2169 -0.1823  0.4298
  620MOL0     O83589   3.936   1.760   9.729  0.2356 -0.4974  0.1211
  620MOL0     C83590   3.878   1.780   9.858  0.5419  0.5736  0.0564
  620MOL0     C83591   3.763   1.698   9.878  0.0166  0.7562 -0.0607
  620MOL0     C83592   3.707   1.677  10.006  0.0763 -0.3017  0.0836
  620MOL0     C83593   3.611   1.569  10.033  0.3223 -0.2394 -0.3392
  620MOL0     C83594   3.755   1.756  10.109  0.1550 -0.0892 -0.2477
  620MOL0     C83595   3.696   1.749  10.250  0.5451  0.2311 -0.6898
  620MOL0     O83596   3.786   1.771  10.359 -0.4113 -0.0299  0.2629
  620MOL0     C83597   3.757   1.770  10.491  0.4220 -0.1661  0.2054
  620MOL0     C83598   3.860   1.821  10.569 -0.1170  0.1028  0.5702
  620MOL0     C83599   3.843   1.845  10.711 -0.2641 -0.0261  0.0126
  620MOL0     C83600   3.724   1.802  10.772  0.5358 -0.7159 -0.9837
  620MOL0     O83601   3.713   1.818  10.904  0.0881  0.0301 -0.1118
  620MOL0     C83602   3.599   1.875  10.961 -0.3847  0.0729 -0.5155
  620MOL0     C83603   3.581   1.818  11.106 -0.7225  0.4148 -0.1827
  620MOL0     C83604   3.454   1.865  11.179  0.2738  0.0089  0.4901
  620MOL0     C83605   3.321   1.800  11.131  0.3730  0.0764 -0.0611
  620MOL0     C83606   3.204   1.886  11.186 -0.2434 -0.2967 -0.3109
  620MOL0     C83607   3.069   1.854  11.119  0.2821  0.7145  0.5523
  620MOL0     C83608   2.960   1.937  11.189 -0.0178  0.9272  0.1763
  620MOL0     C83609   2.824   1.924  11.116  0.9790  0.4507 -0.3077
  620MOL0    Cl83610   2.715   2.034  11.215 -0.1496 -0.4779  0.3947
  620MOL0     C83611   3.623   1.741  10.691  0.1512 -0.0748  0.5341
  620MOL0     C83612   3.646   1.717  10.558  1.1374 -0.6076  0.1087
  620MOL0     O83613   3.576   1.734  10.261 -0.1404 -0.3477 -0.2505
  620MOL0     C83614   3.868   1.839  10.087  0.1445 -0.2115 -0.5263
  620MOL0     C83615   3.934   1.852   9.964  0.0346  0.5223 -0.0832
  620MOL0     N83616   4.433   1.536   9.770  0.1673  1.0056  0.4627
  620MOL0     N83617   4.486   1.440   9.693 -0.2802 -1.1357  0.3259
  620MOL0     C83618   5.581   1.238  10.040 -0.0695 -0.5078  0.2551
  620MOL0     C83619   5.695   1.217  10.112  0.6910  0.1392  0.0758
  620MOL0     C83620   6.031   0.992  10.361 -0.4592  0.5884 -0.3566
  620MOL0     C83621   6.102   1.109  10.365  0.4382 -0.1558  1.3309
  620MOL0     C83622   6.231   1.116  10.417  0.8662  1.1981  1.0686
  620MOL0     C83623   6.299   0.996  10.443  0.8277 -0.6722  0.6523
  620MOL0     O83624   6.437   0.979  10.456  0.4275  0.0055 -0.2000
  620MOL0     C83625   6.489   0.848  10.492 -0.4893 -0.4159 -0.1391
  620MOL0     C83626   6.641   0.860  10.502 -0.6691 -0.6897  0.5548
  620MOL0     C83627   6.696   0.938  10.616 -0.1027 -0.2801 -0.4089
  620MOL0     C83628   6.842   0.964  10.598 -0.2753  0.0762  0.8363
  620MOL0     C83629   6.919   0.841  10.607 -0.0494 -0.9242  0.2140
  620MOL0     C83630   7.001   0.753  10.590 -0.4032 -1.2701 -0.1837
  620MOL0     C83631   6.218   0.878  10.455 -0.0686  0.6890 -0.8643
  620MOL0     C83632   6.088   0.871  10.400 -0.1315 -0.8893  0.0160
  620MOL0     H83633   5.614   0.943  10.292  1.9817  1.2784 -0.1184
  620MOL0     H83634   5.402   0.980  10.179  0.8306  0.4349  3.0003
  620MOL0     H83635   5.367   1.323   9.903  2.4771 -0.8856  1.0569
  620MOL0     H83636   5.418   1.177   9.823 -0.4055  0.3745 -0.2685
  620MOL0     H83637   5.208   1.078   9.813  1.5017 -0.3026  3.3021
  620MOL0     H83638   5.132   1.216   9.905  2.3887  0.8099  2.0712
  620MOL0     H83639   5.228   1.348   9.669  0.8160 -0.8409  1.5055
  620MOL0     H83640   5.200   1.185   9.620  1.4256  0.2602  0.3371
  620MOL0     H83641   4.974   1.182   9.674  0.3926 -1.2759 -0.4013
  620MOL0     H83642   4.993   1.319   9.790  0.7492  2.4624 -0.7965
  620MOL0     H83643   5.018   1.481   9.631  0.0268  0.8762 -2.1802
  620MOL0     H83644   5.005   1.359   9.499 -0.6300 -2.0682  0.7084
  620MOL0     H83645   4.771   1.308   9.634 -3.6954  2.0125 -1.1080
  620MOL0     H83646   4.808   1.473   9.687 -1.4930  1.4554 -2.2394
  620MOL0     H83647   4.776   1.562   9.470  3.4145 -0.3144 -2.4915
  620MOL0     H83648   4.818   1.404   9.397 -1.1870 -0.1202 -0.2162
  620MOL0     H83649   4.598   1.314   9.463  1.4925  0.5477 -1.7828
  620MOL0     H83650   4.591   1.458   9.360  1.8571 -1.7977 -2.1487
  620MOL0     H83651   4.512   1.706   9.511 -0.4931  1.3013  1.0100
  620MOL0     H83652   4.435   1.777   9.874 -1.5525 -0.2491  0.3398
  620MOL0     H83653   4.502   1.862   9.749  0.1107  0.4864  3.4293
  620MOL0     H83654   4.315   1.858   9.607  3.8384 -0.9313  1.3173
  620MOL0     H83655   4.282   1.946   9.764 -1.1740 -0.9779  1.8811
  620MOL0     H83656   4.171   1.711   9.837 -2.0766 -0.3597 -0.4529
  620MOL0     H83657   4.183   1.667   9.677  1.0608  0.6950 -1.4561
  620MOL0     H83658   4.044   1.851   9.584 -0.4006  4.4146  0.8343
  620MOL0     H83659   4.038   1.944   9.714 -2.1419 -0.1366 -0.2806
  620MOL0     H83660   3.741   1.630   9.796  3.7320  0.7892 -1.2634
  620MOL0     H83661   3.507   1.600  10.045  0.7798  2.1504 -1.8806
  620MOL0     H83662   3.628   1.497   9.952  0.0836 -1.8879  1.0239
  620MOL0     H83663   3.635   1.535  10.134  0.3109  2.2149  0.5745
  620MOL0     H83664   3.956   1.841  10.522  0.2791 -0.1992  1.2387
  620MOL0     H83665   3.918   1.899  10.768  2.8818 -1.1581 -2.7099
  620MOL0     H83666   3.611   1.983  10.968 -4.9464  0.7330  0.4906
  620MOL0     H83667   3.504   1.847  10.913  0.2652 -2.1609 -0.6239
  620MOL0     H83668   3.580   1.709  11.113 -1.5706  0.2998 -1.6841
  620MOL0     H83669   3.676   1.847  11.153 -0.4637  0.6947 -0.8640
  620MOL0     H83670   3.450   1.975  11.183  0.4808 -0.0209  2.7066
  620MOL0     H83671   3.464   1.826  11.280 -2.0539 -1.1798  0.3246
  620MOL0     H83672   3.324   1.799  11.022 -1.1606  1.2002 -0.1321
  620MOL0     H83673   3.312   1.699  11.173 -0.5707 -0.3539 -1.2351
  620MOL0     H83674   3.224   1.993  11.170 -1.1409 -0.0657  0.0637
  620MOL0     H83675   3.187   1.874  11.294 -0.2809  3.4021  0.2407
  620MOL0     H83676   3.072   1.880  11.013 -1.1549  1.1510  0.6028
  620MOL0     H83677   3.049   1.747  11.129 -1.1257  1.0811  2.0216
  620MOL0     H83678   2.991   2.042  11.190  1.9905  0.4253 -1.4682
  620MOL0     H83679   2.935   1.910  11.292  0.8065  4.0603  1.3277
  620MOL0     H83680   2.788   1.821  11.123  0.0675  0.7302 -0.8071
  620MOL0     H83681   2.818   1.966  11.015  1.3288 -0.7990 -0.8656
  620MOL0     H83682   3.530   1.707  10.735 -1.1079  0.2880 -1.6725
  620MOL0     H83683   3.578   1.663  10.493  0.5123  2.6208 -2.1511
  620MOL0     H83684   3.922   1.892  10.164 -0.5991  0.8576 -0.7269
  620MOL0     H83685   4.020   1.918   9.959 -0.8348  1.6797 -0.2574
  620MOL0     H83686   5.590   1.329   9.983  0.5168 -0.6752  0.0733
  620MOL0     H83687   5.786   1.272  10.088  1.2492 -0.7615  0.0765
  620MOL0     H83688   6.060   1.204  10.334 -0.6779 -0.5324  1.6523
  620MOL0     H83689   6.286   1.209  10.416  2.9270  0.0595 -1.1944
  620MOL0     H83690   6.447   0.818  10.589 -3.4362 -0.0431 -1.2030
  620MOL0     H83691   6.465   0.768  10.421 -1.0337 -1.7860  1.4978
  620MOL0     H83692   6.677   0.887  10.402 -0.1715 -3.1507  0.0100
  620MOL0     H83693   6.695   0.765  10.509 -0.8278 -0.7249  1.2894
  620MOL0     H83694   6.678   0.886  10.711 -0.6509 -1.7641 -1.2964
  620MOL0     H83695   6.642   1.033  10.620 -2.2285 -1.4572  0.3104
  620MOL0     H83696   6.884   1.032  10.673 -4.4805  2.0147  1.7426
  620MOL0     H83697   6.857   0.995  10.494 -0.6259 -0.6248  0.5717
  620MOL0     H83698   7.070   0.674  10.609  0.3585 -0.7908 -0.9061
  620MOL0     H83699   6.257   0.782  10.485 -1.3431 -0.0184 -1.3990
  620MOL0     H83700   6.031   0.779  10.388 -1.1681 -0.4396  1.3111
  621MOL0     O83701   4.288   7.170   4.793  0.3162  0.0837  0.3181
  621MOL0     C83702   4.312   7.265   4.727 -0.7897 -1.0291  0.4704
  621MOL0     O83703   4.226   7.355   4.681  0.6851 -0.0617  0.3600
  621MOL0     C83704   4.089   7.324   4.691  0.1495  0.6301  0.4560
  621MOL0     C83705   3.999   7.405   4.758 -0.3468 -0.9884  0.3940
  621MOL0     C83706   3.862   7.387   4.756 -0.8206 -0.1244  0.7297
  621MOL0     C83707   3.807   7.276   4.683 -0.7707 -0.1479 -0.0729
  621MOL0     O83708   3.676   7.261   4.675  0.1760  0.4015  0.4878
  621MOL0     C83709   3.617   7.135   4.711  0.0856  0.5298  0.4730
  621MOL0     C83710   3.476   7.159   4.769  0.0349 -0.4838  0.0645
  621MOL0     C83711   3.387   7.223   4.672 -0.5591 -0.1345  0.0537
  621MOL0     C83712   3.248   7.234   4.740 -0.0574  0.2526  0.6684
  621MOL0     C83713   3.145   7.329   4.664  0.0894 -0.2669 -0.5926
  621MOL0     C83714   3.018   7.354   4.744  0.5511 -0.0203  0.0390
  621MOL0     C83715   2.922   7.425   4.650  0.8315 -0.7158 -0.4308
  621MOL0     C83716   2.797   7.456   4.736 -0.1643  0.0011 -1.1201
  621MOL0     N83717   2.700   7.543   4.672  0.3019  0.1618 -0.9109
  621MOL0     C83718   2.608   7.515   4.575 -0.2931 -0.4101 -0.6446
  621MOL0     C83719   2.537   7.628   4.554 -0.9799 -0.5437 -0.7423
  621MOL0     C83720   2.429   7.633   4.450 -0.5870 -0.5041 -0.4479
  621MOL0     C83721   2.444   7.763   4.363  0.2061  0.0312 -0.2957
  621MOL0     C83722   2.300   7.778   4.302  0.1499 -0.9917  0.4374
  621MOL0     C83723   2.283   7.899   4.210 -0.0575 -0.4382  0.1518
  621MOL0     O83724   2.148   7.914   4.169 -0.1874 -0.5939 -0.1143
  621MOL0     C83725   2.110   8.012   4.087 -0.5450  0.4008 -0.6845
  621MOL0     C83726   2.194   8.090   4.016  0.1849  0.5235 -0.0365
  621MOL0     C83727   2.155   8.198   3.934  0.2644  0.0151 -0.0526
  621MOL0     C83728   2.258   8.285   3.874  0.1697 -0.2140  0.1121
  621MOL0     C83729   2.013   8.223   3.933 -0.3645 -0.3490 -0.3751
  621MOL0     C83730   1.946   8.337   3.853 -0.2112 -0.8362  0.0680
  621MOL0     O83731   1.812   8.342   3.866 -0.2560  0.1160 -0.5243
  621MOL0     C83732   1.726   8.442   3.801  0.1838 -0.7019  1.1966
  621MOL0     C83733   1.592   8.411   3.788 -0.1941 -0.9296 -0.9775
  621MOL0     C83734   1.499   8.502   3.744  0.4254 -0.2551  0.1426
  621MOL0     C83735   1.539   8.633   3.712  0.1207 -0.0070 -0.5692
  621MOL0     O83736   1.464   8.731   3.651 -0.3590  0.1586 -0.2143
  621MOL0     C83737   1.361   8.684   3.572  1.3640 -0.3471  0.0916
  621MOL0     C83738   1.273   8.804   3.508  0.0812  1.5554  0.0639
  621MOL0     C83739   1.170   8.861   3.609 -0.6896 -0.2146 -0.4639
  621MOL0     C83740   1.137   8.999   3.572 -0.6384  0.0173 -0.3765
  621MOL0     C83741   1.011   9.055   3.652  0.0687 -0.4356  0.4117
  621MOL0     C83742   0.997   9.204   3.636 -0.0737  0.2493  0.1726
  621MOL0     C83743   0.954   9.286   3.762 -0.0170  0.3957 -0.3999
  621MOL0     C83744   0.802   9.283   3.808 -0.3218 -1.0384  0.1305
  621MOL0    Cl83745   0.772   9.151   3.922  0.0333 -0.3010 -0.5396
  621MOL0     C83746   1.673   8.670   3.733 -0.1303  0.1215 -1.0386
  621MOL0     C83747   1.764   8.576   3.783 -0.9021 -0.5990 -0.4699
  621MOL0     O83748   2.012   8.406   3.773  0.2603 -0.0907  0.2421
  621MOL0     C83749   1.930   8.133   4.007 -0.0496  0.3607 -0.0485
  621MOL0     C83750   1.976   8.030   4.080 -0.0975 -0.0819 -0.4513
  621MOL0     N83751   2.605   7.731   4.621 -0.1579 -0.5912 -0.0331
  621MOL0     N83752   2.702   7.674   4.689  0.5779 -0.4338 -0.4122
  621MOL0     C83753   3.898   7.183   4.628 -0.0561  0.1837  0.5432
  621MOL0     C83754   4.033   7.210   4.622 -0.0404 -1.7726 -0.2151
  621MOL0     C83755   4.456   7.290   4.692 -0.5171  0.0844  0.7466
  621MOL0     C83756   4.560   7.262   4.774 -0.7944 -0.8381 -0.1477
  621MOL0     C83757   4.695   7.282   4.734  0.1895  0.2217 -0.4705
  621MOL0     C83758   4.729   7.340   4.616  0.4589  0.7309  0.7529
  621MOL0     O83759   4.861   7.358   4.604  0.1980 -0.6126  0.9525
  621MOL0     C83760   4.903   7.383   4.471 -0.1492 -0.4056  0.0454
  621MOL0     C83761   5.055   7.414   4.472  0.3311 -0.9738  0.3501
  621MOL0     C83762   5.148   7.297   4.449  0.0213 -0.2196  0.0294
  621MOL0     C83763   5.287   7.325   4.382  0.5492 -0.5946 -0.5009
  621MOL0     C83764   5.371   7.203   4.386  0.3379 -0.1584  0.2159
  621MOL0     C83765   5.443   7.105   4.377  0.1898 -1.1873  0.6201
  621MOL0     C83766   4.619   7.366   4.526  0.1095 -0.0549  0.4503
  621MOL0     C83767   4.487   7.352   4.569 -0.1443  0.0813  0.4605
  621MOL0     H83768   4.037   7.497   4.801 -0.0755 -0.3696 -1.0978
  621MOL0     H83769   3.794   7.453   4.810 -1.2802  0.9552 -1.0839
  621MOL0     H83770   3.615   7.077   4.618  1.6292 -0.2325  0.8781
  621MOL0     H83771   3.676   7.092   4.792  1.0206 -0.8652 -0.8947
  621MOL0     H83772   3.420   7.073   4.808  0.1448  0.6283  2.9287
  621MOL0     H83773   3.487   7.228   4.854  1.0655 -0.5399 -0.0148
  621MOL0     H83774   3.418   7.327   4.660  0.1846 -0.5953 -2.4872
  621MOL0     H83775   3.396   7.184   4.570  0.6535 -2.2876  0.9072
  621MOL0     H83776   3.205   7.135   4.755 -1.5691  0.2057 -2.9372
  621MOL0     H83777   3.256   7.284   4.837  1.1414  3.2510 -0.8580
  621MOL0     H83778   3.191   7.426   4.644  0.8282 -0.2947  0.8355
  621MOL0     H83779   3.116   7.285   4.568  1.5246  2.7698 -2.5851
  621MOL0     H83780   2.978   7.261   4.785  0.8033 -0.7335 -1.2647
  621MOL0     H83781   3.053   7.425   4.819  3.4575  0.3117 -1.4742
  621MOL0     H83782   2.972   7.518   4.622  1.3396 -0.6650  0.5924
  621MOL0     H83783   2.892   7.373   4.558 -0.5785  2.1713 -1.7507
  621MOL0     H83784   2.825   7.515   4.823  2.2763  0.3813 -2.0984
  621MOL0     H83785   2.756   7.365   4.782 -1.8362 -0.3169 -3.1139
  621MOL0     H83786   2.601   7.423   4.518  0.4450 -1.7539  1.3191
  621MOL0     H83787   2.443   7.546   4.386  1.1393  0.3311 -1.2661
  621MOL0     H83788   2.335   7.639   4.506  0.5387  2.4729  1.3207
  621MOL0     H83789   2.516   7.745   4.283 -2.4674 -1.9935 -2.4252
  621MOL0     H83790   2.478   7.846   4.427 -1.4811 -0.5611  1.4620
  621MOL0     H83791   2.231   7.793   4.385  1.7043  0.6480  1.5028
  621MOL0     H83792   2.281   7.684   4.250  1.8354 -0.5730 -1.0520
  621MOL0     H83793   2.346   7.881   4.123 -0.2218 -2.3098  0.3972
  621MOL0     H83794   2.318   7.990   4.260 -0.0828  0.7806 -1.8873
  621MOL0     H83795   2.301   8.073   4.024  0.0898  0.2403  0.6918
  621MOL0     H83796   2.347   8.267   3.935 -1.2329 -0.9760  2.0215
  621MOL0     H83797   2.266   8.261   3.768 -2.1522  0.5156 -0.2739
  621MOL0     H83798   2.227   8.389   3.880  0.8007  0.2050 -2.5660
  621MOL0     H83799   1.553   8.314   3.819 -1.6884  0.2729  1.2385
  621MOL0     H83800   1.397   8.469   3.729  0.5705 -2.6561  3.2859
  621MOL0     H83801   1.398   8.615   3.495  1.6880  0.0494 -0.1101
  621MOL0     H83802   1.282   8.631   3.626  0.2521 -1.2474 -2.2434
  621MOL0     H83803   1.340   8.880   3.466 -1.3418  1.7045 -2.0571
  621MOL0     H83804   1.223   8.757   3.422 -1.9386  2.4962  0.6719
  621MOL0     H83805   1.218   8.864   3.707 -2.2063 -0.1644  0.3000
  621MOL0     H83806   1.089   8.790   3.631 -0.4539 -0.1726  0.6159
  621MOL0     H83807   1.224   9.058   3.602 -0.2087 -1.8157  2.5043
  621MOL0     H83808   1.121   9.011   3.465  0.8477  2.2003 -0.3949
  621MOL0     H83809   1.026   9.042   3.760  3.0327  0.0957  0.1702
  621MOL0     H83810   0.920   9.006   3.618  0.6919  0.6508 -3.1716
  621MOL0     H83811   1.098   9.241   3.616  0.3223  2.2579  4.7640
  621MOL0     H83812   0.929   9.227   3.553 -1.3593 -1.4411  0.7132
  621MOL0     H83813   0.974   9.391   3.738  1.2528  0.0760 -0.8015
  621MOL0     H83814   1.021   9.263   3.845 -2.2597 -1.7761  0.9370
  621MOL0     H83815   0.739   9.283   3.718  1.8567 -1.0553 -1.4798
  621MOL0     H83816   0.786   9.381   3.855  0.4722 -0.3986 -0.8683
  621MOL0     H83817   1.706   8.772   3.716  0.7470  0.1539  0.6523
  621MOL0     H83818   1.868   8.599   3.803 -0.8893 -1.7422  0.9062
  621MOL0     H83819   1.821   8.142   4.009 -0.2103 -1.2402  0.9408
  621MOL0     H83820   1.905   7.969   4.134 -0.1990 -0.8679 -1.4394
  621MOL0     H83821   3.860   7.091   4.586 -0.6285  1.0599 -0.9450
  621MOL0     H83822   4.100   7.149   4.563 -0.5429 -2.9638  0.4256
  621MOL0     H83823   4.527   7.237   4.875 -0.2000 -0.2396  0.2054
  621MOL0     H83824   4.766   7.252   4.810  0.3191  3.4225  0.8448
  621MOL0     H83825   4.873   7.301   4.405  1.0931 -1.0516  0.2613
  621MOL0     H83826   4.850   7.472   4.433  0.1316  0.3587  1.3995
  621MOL0     H83827   5.087   7.467   4.562  1.6941 -1.2315  0.0406
  621MOL0     H83828   5.063   7.481   4.387 -1.3018 -0.6625  0.3975
  621MOL0     H83829   5.091   7.228   4.387 -0.0077  0.2440 -0.4651
  621MOL0     H83830   5.177   7.236   4.536  2.2603 -0.4308 -0.7788
  621MOL0     H83831   5.343   7.410   4.423  0.5510 -1.5122  1.4912
  621MOL0     H83832   5.266   7.341   4.276  1.1173 -1.5822 -0.7723
  621MOL0     H83833   5.499   7.014   4.366 -0.5101 -1.5985  0.3889
  621MOL0     H83834   4.642   7.404   4.427  2.4871 -1.5992  0.3189
  621MOL0     H83835   4.413   7.386   4.496 -2.6181 -5.0627  0.1083
  622MOL0     O83836  10.407  10.822   3.047  0.4353  0.2669  0.2132
  622MOL0     C83837  10.394  10.703   3.015  0.2363 -0.0022  0.0136
  622MOL0     O83838  10.284  10.625   3.044  0.2966 -0.8121  0.0912
  622MOL0     C83839  10.165  10.687   3.079 -0.1056  0.2860  0.6495
  622MOL0     C83840  10.105  10.792   3.000  0.2033  0.6244 -0.6470
  622MOL0     C83841   9.975  10.835   3.024  0.3491 -0.1846  1.0821
  622MOL0     C83842   9.904  10.792   3.135  0.1289  0.5676  0.0498
  622MOL0     O83843   9.782  10.860   3.143 -0.5973 -0.1324 -0.1360
  622MOL0     C83844   9.741  10.905   3.267 -0.1850  0.0825  0.2710
  622MOL0     C83845   9.607  10.839   3.295  0.2748  0.1523 -0.0766
  622MOL0     C83846   9.541  10.868   3.431  0.2912  0.2115 -0.4398
  622MOL0     C83847   9.411  10.789   3.447 -0.3172 -0.2222 -0.2125
  622MOL0     C83848   9.301  10.880   3.523 -0.2152 -0.7257  0.8835
  622MOL0     C83849   9.151  10.847   3.507 -0.1992  0.8860  0.4222
  622MOL0     C83850   9.092  10.864   3.370 -0.2149  0.0166  0.4575
  622MOL0     C83851   8.948  10.822   3.362 -0.1695  0.3718 -0.3038
  622MOL0     N83852   8.862  10.923   3.410 -0.3684  0.1700 -0.1273
  622MOL0     C83853   8.750  10.983   3.343 -0.2272 -0.4376  0.2075
  622MOL0     C83854   8.691  11.064   3.437 -0.8348  0.4864  0.2757
  622MOL0     C83855   8.587  11.165   3.412 -0.0758 -0.2987  0.3096
  622MOL0     C83856   8.446  11.120   3.442 -0.3677  0.1512  0.1605
  622MOL0     C83857   8.421  11.115   3.595  0.3464  0.1259  0.4281
  622MOL0     C83858   8.277  11.073   3.637 -0.1647 -0.7916 -0.0490
  622MOL0     O83859   8.258  10.941   3.591  0.4526 -0.3599 -0.7670
  622MOL0     C83860   8.137  10.897   3.558  0.4915 -0.1518  0.5637
  622MOL0     C83861   8.014  10.949   3.607  1.0185 -0.1945  0.0542
  622MOL0     C83862   7.890  10.907   3.561 -0.7623 -1.1074 -0.5951
  622MOL0     C83863   7.786  11.006   3.607  0.0480  0.5887  0.4011
  622MOL0     C83864   7.880  10.798   3.477  0.4834  0.0337 -0.7532
  622MOL0     C83865   7.756  10.737   3.433 -0.4326  0.0676  0.6997
  622MOL0     O83866   7.752  10.640   3.329 -0.1989 -0.6461 -0.6533
  622MOL0     C83867   7.637  10.562   3.337  0.0706 -0.7531 -0.8355
  622MOL0     C83868   7.522  10.601   3.271 -0.2354 -0.3277  0.5264
  622MOL0     C83869   7.406  10.526   3.277 -0.0007 -1.6621  0.0097
  622MOL0     C83870   7.401  10.409   3.346  0.0621  1.1949 -0.0808
  622MOL0     O83871   7.284  10.336   3.340  0.4110  0.4918  0.1018
  622MOL0     C83872   7.281  10.195   3.382 -0.1311  1.5380 -0.5637
  622MOL0     C83873   7.243  10.184   3.527  0.0683  0.4523 -1.9807
  622MOL0     C83874   7.185  10.042   3.561  0.1288  0.3308 -0.1086
  622MOL0     C83875   7.293   9.947   3.614  0.7382 -0.4501  0.1570
  622MOL0     C83876   7.238   9.801   3.635 -0.1048 -0.4901  0.5003
  622MOL0     C83877   7.193   9.748   3.498 -0.1178 -0.4070  0.1642
  622MOL0     C83878   7.174   9.598   3.503  0.0398 -0.1576  0.9698
  622MOL0     C83879   7.178   9.537   3.367 -0.3433 -0.1307 -0.0596
  622MOL0    Cl83880   7.081   9.626   3.245  0.1734 -0.3182  0.0124
  622MOL0     C83881   7.520  10.369   3.418 -0.3048 -0.1340  0.4667
  622MOL0     C83882   7.633  10.453   3.415 -0.9047 -0.1435  0.8754
  622MOL0     O83883   7.659  10.770   3.500  0.1630  0.7916  0.4795
  622MOL0     C83884   8.002  10.735   3.448 -0.4612 -0.1683  0.1884
  622MOL0     C83885   8.130  10.779   3.480 -0.7717 -0.4480 -0.6706
  622MOL0     N83886   8.764  11.047   3.554 -0.1783 -0.6019 -0.0621
  622MOL0     N83887   8.857  10.967   3.539 -0.1277  0.0547  0.7749
  622MOL0     C83888   9.959  10.695   3.210  0.9743 -0.3927 -0.2369
  622MOL0     C83889  10.086  10.635   3.179  0.3522  0.2234 -0.4186
  622MOL0     C83890  10.505  10.639   2.954  0.4037 -0.8924  0.2837
  622MOL0     C83891  10.491  10.516   2.886  0.3863 -1.1095  0.7877
  622MOL0     C83892  10.608  10.460   2.817 -0.4196 -0.0719 -0.4356
  622MOL0     C83893  10.735  10.512   2.825  0.7378  0.6466 -0.3375
  622MOL0     O83894  10.840  10.442   2.759  0.0472 -0.7548 -0.4745
  622MOL0     C83895  10.975  10.502   2.727  0.3990 -0.4067 -0.1830
  622MOL0     C83896  11.074  10.431   2.817  0.0125 -0.8595 -0.2679
  622MOL0     C83897  11.046  10.433   2.969  0.7208  0.4133 -0.8159
  622MOL0     C83898  11.164  10.353   3.040 -0.1803 -0.7176  0.4787
  622MOL0     C83899  11.168  10.410   3.172  1.3135 -0.5998  0.3658
  622MOL0     C83900  11.184  10.436   3.289 -0.1915  0.4066  0.3024
  622MOL0     C83901  10.744  10.636   2.907 -0.2672 -0.4209  0.0997
  622MOL0     C83902  10.634  10.697   2.963 -0.3256  0.2108  0.2020
  622MOL0     H83903  10.154  10.833   2.912  0.4723 -1.1179 -1.3611
  622MOL0     H83904   9.927  10.915   2.968 -1.8652 -0.4161  2.5460
  622MOL0     H83905   9.820  10.885   3.339  0.8969  3.0311  0.0433
  622MOL0     H83906   9.733  11.015   3.264 -0.1538  0.0630 -1.4274
  622MOL0     H83907   9.534  10.871   3.221 -0.7804 -1.7857  0.0633
  622MOL0     H83908   9.611  10.730   3.289 -2.4792 -0.0388  0.0661
  622MOL0     H83909   9.605  10.845   3.517 -0.1444 -0.4473 -0.2871
  622MOL0     H83910   9.527  10.976   3.431  1.9231  0.4441 -0.0653
  622MOL0     H83911   9.385  10.756   3.346  2.3425 -0.3212 -0.9369
  622MOL0     H83912   9.428  10.699   3.507 -3.2822  0.2943  1.6064
  622MOL0     H83913   9.330  10.879   3.628  0.6269  0.8469  0.6821
  622MOL0     H83914   9.308  10.980   3.479 -1.0947 -1.1081 -0.1876
  622MOL0     H83915   9.136  10.743   3.538  3.2029 -0.0271 -0.5492
  622MOL0     H83916   9.097  10.908   3.580  0.9935  0.7975  1.4039
  622MOL0     H83917   9.107  10.965   3.332 -1.4140 -0.7954 -2.3730
  622MOL0     H83918   9.140  10.794   3.301 -1.6836  0.5155 -1.1281
  622MOL0     H83919   8.942  10.730   3.422  4.5046 -1.1608 -1.7766
  622MOL0     H83920   8.927  10.794   3.258 -5.4006 -1.2782  0.8844
  622MOL0     H83921   8.721  10.968   3.240 -1.5760 -2.5923  0.8280
  622MOL0     H83922   8.625  11.247   3.473  3.7794  0.0089 -2.1732
  622MOL0     H83923   8.588  11.201   3.309 -0.6012 -0.6178  0.1840
  622MOL0     H83924   8.431  11.025   3.391 -0.5176  0.9951 -1.4554
  622MOL0     H83925   8.374  11.194   3.405  0.3158  2.2770  2.7720
  622MOL0     H83926   8.437  11.218   3.628  1.0046  0.9197 -2.0962
  622MOL0     H83927   8.489  11.048   3.648 -1.4795 -1.1551  1.2437
  622MOL0     H83928   8.203  11.140   3.593  0.3453 -0.6810 -0.7444
  622MOL0     H83929   8.267  11.082   3.746  1.6441 -1.2863  0.1885
  622MOL0     H83930   8.024  11.030   3.679  1.8992  1.2297 -1.6128
  622MOL0     H83931   7.758  11.081   3.532  4.2528  1.6020 -0.3952
  622MOL0     H83932   7.702  10.954   3.653  0.4798 -0.4170  0.0648
  622MOL0     H83933   7.821  11.071   3.688 -0.0239  0.8997  0.1840
  622MOL0     H83934   7.517  10.689   3.209 -0.6841 -2.1945 -2.2988
  622MOL0     H83935   7.308  10.562   3.249  0.5445 -1.4201 -1.7308
  622MOL0     H83936   7.204  10.145   3.322  0.5766 -2.5712  1.6278
  622MOL0     H83937   7.370  10.136   3.359 -0.8210 -0.7143  2.0391
  622MOL0     H83938   7.330  10.204   3.589 -1.3177 -2.4341  1.2869
  622MOL0     H83939   7.161  10.252   3.550  1.1276  1.6910 -1.7877
  622MOL0     H83940   7.144  10.005   3.467 -0.3522 -0.1073  0.2703
  622MOL0     H83941   7.096  10.048   3.624 -1.8211 -0.9523 -2.5411
  622MOL0     H83942   7.381   9.946   3.549  0.3981 -0.2324 -0.3160
  622MOL0     H83943   7.325   9.983   3.712  0.7936 -3.7324  1.4794
  622MOL0     H83944   7.166   9.793   3.717  0.5489 -0.9265  1.0443
  622MOL0     H83945   7.322   9.740   3.670  0.7124 -1.3613 -2.6031
  622MOL0     H83946   7.099   9.800   3.476  1.2243  1.1009 -2.5174
  622MOL0     H83947   7.265   9.777   3.421  0.2571  1.0292  1.0274
  622MOL0     H83948   7.080   9.576   3.555 -0.7169  0.2471 -0.1859
  622MOL0     H83949   7.245   9.555   3.575 -2.4552 -2.0353  2.4662
  622MOL0     H83950   7.143   9.434   3.370 -0.0167 -0.2123  1.2141
  622MOL0     H83951   7.276   9.527   3.320 -0.3618  0.5426 -0.2651
  622MOL0     H83952   7.517  10.274   3.470 -4.1532 -1.9774 -2.5227
  622MOL0     H83953   7.716  10.435   3.483 -2.0392  0.6051  2.5529
  622MOL0     H83954   7.999  10.641   3.394 -1.2370 -1.7749  2.8414
  622MOL0     H83955   8.217  10.723   3.447 -0.0206  0.4690 -0.2686
  622MOL0     H83956   9.902  10.649   3.290  1.0048 -1.7859 -0.9837
  622MOL0     H83957  10.112  10.549   3.240 -1.4469  1.0337  1.5833
  622MOL0     H83958  10.394  10.468   2.888 -0.5905  0.6747  4.0884
  622MOL0     H83959  10.593  10.367   2.765 -0.3347  0.7359 -1.9595
  622MOL0     H83960  10.991  10.483   2.621 -1.0481  0.5946 -0.6045
  622MOL0     H83961  10.976  10.611   2.740  2.1271 -0.1814 -1.7380
  622MOL0     H83962  11.174  10.471   2.796 -0.3336 -0.0499 -0.4201
  622MOL0     H83963  11.066  10.331   2.774 -0.0982 -0.2761 -1.6668
  622MOL0     H83964  10.957  10.374   2.991 -0.7581  2.8209  0.1223
  622MOL0     H83965  11.035  10.536   3.003  0.5898  0.4523 -0.9735
  622MOL0     H83966  11.263  10.378   3.001  0.2773 -0.6636  1.6371
  622MOL0     H83967  11.137  10.247   3.043  2.6323 -1.4957  2.1555
  622MOL0     H83968  11.217  10.460   3.388  2.1646  2.4197 -0.8583
  622MOL0     H83969  10.843  10.682   2.910  0.4330 -1.6057 -2.1790
  622MOL0     H83970  10.646  10.800   2.996  2.6529 -0.2204  0.7425
  623MOL0     O83971  11.083   1.515   1.800 -0.2409 -0.2787 -0.2148
  623MOL0     C83972  11.144   1.545   1.903  0.8046 -0.7624  0.2848
  623MOL0     O83973  11.090   1.595   2.015  0.1000 -0.1547  0.0534
  623MOL0     C83974  10.955   1.606   2.010 -0.1758  0.4100  0.7061
  623MOL0     C83975  10.908   1.735   1.994  0.5916 -0.0819  0.1419
  623MOL0     C83976  10.769   1.756   1.969 -0.3902  0.2162 -1.0125
  623MOL0     C83977  10.671   1.659   1.986 -0.5182 -0.2294  0.4523
  623MOL0     O83978  10.536   1.700   1.961 -0.0275 -0.1207 -0.6158
  623MOL0     C83979  10.435   1.626   2.027  0.0810 -0.5033 -0.8330
  623MOL0     C83980  10.313   1.719   2.004  0.2924 -0.5185 -0.1977
  623MOL0     C83981  10.192   1.676   2.090 -0.2935  0.0481 -0.2387
  623MOL0     C83982  10.067   1.761   2.060 -0.2952 -0.6257 -0.1776
  623MOL0     C83983   9.941   1.726   2.130  0.0442  0.1308 -0.7371
  623MOL0     C83984   9.826   1.764   2.041 -0.0309 -0.4153  0.5857
  623MOL0     C83985   9.694   1.751   2.109  1.4564 -0.3200  0.4680
  623MOL0     C83986   9.654   1.879   2.186  0.2603 -0.1110  0.8995
  623MOL0     N83987   9.510   1.876   2.238  0.4862 -0.1277 -0.0362
  623MOL0     C83988   9.439   1.990   2.263 -0.8226 -0.0761  0.2783
  623MOL0     C83989   9.324   1.938   2.308  0.0456  0.2162  0.3786
  623MOL0     C83990   9.209   2.029   2.345  0.1196  0.2018 -0.2187
  623MOL0     C83991   9.077   1.990   2.291  0.0863 -0.0793  0.7392
  623MOL0     C83992   9.012   1.868   2.351 -0.2565 -0.7561  0.4555
  623MOL0     C83993   8.869   1.856   2.323 -0.1545 -0.2177  0.1404
  623MOL0     O83994   8.794   1.974   2.351  0.0756 -0.9682 -0.9210
  623MOL0     C83995   8.653   1.960   2.333  0.1475  0.2986  0.4112
  623MOL0     C83996   8.561   2.053   2.383 -0.5463  0.6357  0.0725
  623MOL0     C83997   8.426   2.041   2.374  0.3300  0.4545  0.7318
  623MOL0     C83998   8.340   2.146   2.434  0.8261 -0.6949  0.0456
  623MOL0     C83999   8.362   1.933   2.307 -0.3178 -0.2817  0.4790
  623MOL0     C84000   8.211   1.910   2.295 -0.4523  0.5544  0.0492
  623MOL0     O84001   8.158   1.856   2.180 -0.3671  0.0457  0.4003
  623MOL0     C84002   8.023   1.857   2.157 -0.1715  0.1639 -0.4177
  623MOL0     C84003   7.952   1.744   2.143 -0.7589  0.3254  0.0079
  623MOL0     C84004   7.814   1.739   2.124  0.3060  0.2127  0.3159
  623MOL0     C84005   7.737   1.856   2.127 -0.1227 -0.1080 -0.7459
  623MOL0     O84006   7.601   1.870   2.109  0.2915  0.3421  0.6719
  623MOL0     C84007   7.522   1.751   2.112  0.1077 -0.5356 -0.8015
  623MOL0     C84008   7.369   1.794   2.100  0.1895  0.5084 -0.7058
  623MOL0     C84009   7.344   1.849   1.963  0.1569  0.5975 -0.0473
  623MOL0     C84010   7.194   1.841   1.948  0.1555 -0.3977 -0.4650
  623MOL0     C84011   7.169   1.869   1.792 -0.4589  0.0053  0.2446
  623MOL0     C84012   7.016   1.863   1.760  0.2792 -0.3487  0.4084
  623MOL0     C84013   6.957   1.725   1.766  0.1176  0.5204 -0.1469
  623MOL0     C84014   6.803   1.724   1.728 -1.2806  0.0134  0.4194
  623MOL0    Cl84015   6.798   1.735   1.541 -0.3463 -0.1073  0.3396
  623MOL0     C84016   7.809   1.975   2.154 -0.6670 -0.5795  0.5470
  623MOL0     C84017   7.950   1.981   2.158  0.1711 -1.2150  0.5015
  623MOL0     O84018   8.142   1.935   2.390 -0.1169 -0.5350 -0.2575
  623MOL0     C84019   8.450   1.841   2.239 -0.6411 -0.0283  0.5610
  623MOL0     C84020   8.592   1.857   2.256  0.4917 -0.0101  0.7325
  623MOL0     N84021   9.326   1.801   2.311  0.2206  0.0472 -0.1386
  623MOL0     N84022   9.437   1.768   2.274 -0.3788 -0.4591  0.3576
  623MOL0     C84023  10.718   1.529   2.015  0.4154  0.1464  0.9021
  623MOL0     C84024  10.860   1.496   2.016  0.3924  0.2188 -0.2861
  623MOL0     C84025  11.283   1.516   1.895 -0.4346  0.0505  0.0655
  623MOL0     C84026  11.378   1.601   1.955 -0.2892 -0.5963  0.9813
  623MOL0     C84027  11.512   1.556   1.963  0.0066  0.4551  0.4323
  623MOL0     C84028  11.554   1.457   1.880 -0.4488  0.6549  0.0674
  623MOL0     O84029  11.687   1.414   1.852 -0.3110  0.0118 -0.1536
  623MOL0     C84030  11.795   1.455   1.940 -0.1771  0.4462  0.6443
  623MOL0     C84031  11.829   1.343   2.036 -0.3938 -0.4631 -0.0558
  623MOL0     C84032  11.953   1.265   1.996  0.2104  0.8880 -0.2962
  623MOL0     C84033  12.009   1.193   2.125 -0.1688 -0.3183 -0.2797
  623MOL0     C84034  12.107   1.085   2.091 -0.4245 -0.1613 -0.4973
  623MOL0     C84035  12.191   1.012   2.048  0.5381 -0.3230 -0.2227
  623MOL0     C84036  11.464   1.378   1.810  0.7191  0.1531 -0.4082
  623MOL0     C84037  11.327   1.397   1.832 -0.1445  0.0295  0.0788
  623MOL0     H84038  10.972   1.823   2.000 -0.3690  0.5728  1.4112
  623MOL0     H84039  10.734   1.858   1.960  1.1409  0.7913 -0.7251
  623MOL0     H84040  10.421   1.525   1.989 -0.2184 -1.0910  0.7562
  623MOL0     H84041  10.461   1.609   2.132 -0.7670 -2.1669 -0.8624
  623MOL0     H84042  10.339   1.823   2.025  2.0315  0.2569 -4.8673
  623MOL0     H84043  10.289   1.727   1.897  1.7075  0.6768 -0.4602
  623MOL0     H84044  10.173   1.568   2.082  2.1234 -0.3844 -0.9049
  623MOL0     H84045  10.209   1.702   2.195  0.6916  0.0148 -0.3826
  623MOL0     H84046  10.084   1.868   2.076 -1.0834 -0.1102 -2.5178
  623MOL0     H84047  10.063   1.742   1.953  2.0077 -3.2271  0.0697
  623MOL0     H84048   9.938   1.624   2.169 -1.1620  0.6698  0.6651
  623MOL0     H84049   9.933   1.795   2.214  0.7356  2.0515 -2.1739
  623MOL0     H84050   9.839   1.868   2.008  2.5102 -0.7539  0.2771
  623MOL0     H84051   9.834   1.703   1.950 -1.1103  1.1232 -0.6097
  623MOL0     H84052   9.621   1.746   2.029  1.9323 -4.4141  0.0567
  623MOL0     H84053   9.680   1.662   2.171  0.0844 -0.7038 -0.3670
  623MOL0     H84054   9.668   1.964   2.118 -1.4011  0.4944  1.2809
  623MOL0     H84055   9.728   1.888   2.266  3.9743  0.5629 -2.3044
  623MOL0     H84056   9.461   2.096   2.256  0.2504 -0.3805 -2.2941
  623MOL0     H84057   9.202   2.030   2.455 -1.3610  0.1259 -0.2861
  623MOL0     H84058   9.229   2.130   2.310  1.5918 -0.6704 -2.0317
  623MOL0     H84059   9.079   1.989   2.181 -1.8990 -1.5083  0.6734
  623MOL0     H84060   9.016   2.078   2.314  0.1006  0.2070 -0.2385
  623MOL0     H84061   9.024   1.875   2.459 -2.6814  1.1438  0.6917
  623MOL0     H84062   9.060   1.774   2.322  0.8462 -0.6991  2.0038
  623MOL0     H84063   8.827   1.776   2.384 -0.9884 -0.1823 -0.3686
  623MOL0     H84064   8.863   1.825   2.218 -0.2095 -1.4141  0.4886
  623MOL0     H84065   8.617   2.114   2.454  0.3197 -2.3713  2.1355
  623MOL0     H84066   8.260   2.170   2.364  1.2875 -1.1542 -0.6580
  623MOL0     H84067   8.295   2.127   2.532  0.2195 -2.0447 -0.4641
  623MOL0     H84068   8.404   2.234   2.445  0.2417 -0.1738 -0.7332
  623MOL0     H84069   8.011   1.654   2.153 -1.9632 -0.6678 -1.3881
  623MOL0     H84070   7.773   1.640   2.110 -3.7288  1.7412 -0.0490
  623MOL0     H84071   7.543   1.675   2.037  0.7068 -1.0637 -0.1247
  623MOL0     H84072   7.539   1.702   2.208 -1.7180  1.4592  0.6590
  623MOL0     H84073   7.305   1.711   2.133  0.3813  0.5484 -0.2318
  623MOL0     H84074   7.342   1.869   2.175 -2.0095 -1.0560  0.1941
  623MOL0     H84075   7.396   1.796   1.883 -2.4656  0.7176 -1.9449
  623MOL0     H84076   7.379   1.952   1.949 -2.2857  1.4147 -0.5285
  623MOL0     H84077   7.149   1.747   1.981 -1.2645 -0.1034 -1.4667
  623MOL0     H84078   7.158   1.927   2.006 -1.0806  0.5426 -2.4671
  623MOL0     H84079   7.217   1.783   1.743  0.3868  0.2714  0.5913
  623MOL0     H84080   7.224   1.955   1.754  2.4095 -0.7988  2.2445
  623MOL0     H84081   6.958   1.931   1.824 -1.2354 -0.3038 -0.9363
  623MOL0     H84082   7.005   1.904   1.659  2.5803 -2.5843 -0.8418
  623MOL0     H84083   6.975   1.686   1.866  2.7922 -1.0686 -1.1714
  623MOL0     H84084   7.015   1.665   1.696  1.0510  0.6299  0.5220
  623MOL0     H84085   6.749   1.802   1.782 -0.7431 -0.0022  0.9923
  623MOL0     H84086   6.774   1.627   1.769 -0.3819 -0.0267  0.9736
  623MOL0     H84087   7.760   2.071   2.152  2.9025  1.4400 -1.8061
  623MOL0     H84088   8.006   2.072   2.172  1.1195 -1.9826  1.8526
  623MOL0     H84089   8.431   1.755   2.176  0.7704 -0.0314  0.1227
  623MOL0     H84090   8.651   1.786   2.199  0.8918  2.0359 -1.5813
  623MOL0     H84091  10.653   1.445   2.037 -1.5825  0.8937 -1.6811
  623MOL0     H84092  10.902   1.396   2.026  1.1560  0.5424 -0.2242
  623MOL0     H84093  11.346   1.684   2.017 -1.0442 -1.5168  1.8522
  623MOL0     H84094  11.585   1.606   2.025  0.5357  0.4465 -0.1666
  623MOL0     H84095  11.867   1.483   1.862 -1.7261  2.0061 -0.3049
  623MOL0     H84096  11.778   1.546   1.998 -2.1809  0.2242  0.4884
  623MOL0     H84097  11.739   1.282   2.049 -0.4401 -0.2158  0.8105
  623MOL0     H84098  11.851   1.390   2.132  3.6353 -2.2911  0.0852
  623MOL0     H84099  12.031   1.321   1.944  0.2123  2.3544  1.1824
  623MOL0     H84100  11.918   1.189   1.925 -0.5772 -0.4285  1.4445
  623MOL0     H84101  11.928   1.138   2.175  1.4474 -2.2008  0.4267
  623MOL0     H84102  12.070   1.255   2.190  0.2530 -2.4089  1.4511
  623MOL0     H84103  12.256   0.936   2.010  0.5799 -1.7610  2.4609
  623MOL0     H84104  11.500   1.287   1.763  3.7725 -0.9442  3.5340
  623MOL0     H84105  11.254   1.330   1.789 -0.2189  0.0735  0.1368
  624MOL0     O84106   4.131   7.287  10.344  0.2078 -0.3326  0.5288
  624MOL0     C84107   4.202   7.190  10.384  0.1301  0.4762 -0.4717
  624MOL0     O84108   4.153   7.079  10.452  0.7076  0.0707 -0.6494
  624MOL0     C84109   4.021   7.086  10.473  0.2306 -0.7017 -0.1649
  624MOL0     C84110   3.941   7.003  10.404  0.0864 -0.7331 -0.1491
  624MOL0     C84111   3.801   7.007  10.437  0.0298 -0.4951 -0.0473
  624MOL0     C84112   3.747   7.098  10.533  0.1368  0.1644 -1.2465
  624MOL0     O84113   3.611   7.123  10.559 -0.0655  0.2666  0.8513
  624MOL0     C84114   3.515   7.055  10.473 -0.2070  0.1809  0.3637
  624MOL0     C84115   3.383   7.060  10.545 -0.2380  0.0116 -0.4015
  624MOL0     C84116   3.275   6.975  10.482 -0.2631  0.3934 -0.7041
  624MOL0     C84117   3.281   6.830  10.541  0.4589  1.1215 -0.2295
  624MOL0     C84118   3.160   6.753  10.485 -0.1795  0.0550 -0.6440
  624MOL0     C84119   3.157   6.607  10.547  0.4172  0.1384  0.0416
  624MOL0     C84120   3.053   6.516  10.473 -0.6681  0.4720 -0.2186
  624MOL0     C84121   3.057   6.369  10.529 -0.8340 -0.1284  0.4172
  624MOL0     N84122   3.194   6.312  10.549  0.6811  0.4516  0.3334
  624MOL0     C84123   3.292   6.302  10.451 -0.3323  0.1700  0.2595
  624MOL0     C84124   3.412   6.297  10.520  1.2988 -0.0769  0.5156
  624MOL0     C84125   3.547   6.304  10.461 -0.5851  0.5535  0.2794
  624MOL0     C84126   3.613   6.441  10.499  0.1650  0.3064  0.9771
  624MOL0     C84127   3.748   6.470  10.432  0.0346  0.2814 -0.1156
  624MOL0     C84128   3.761   6.619  10.419  0.0575  0.0895 -0.2796
  624MOL0     O84129   3.897   6.652  10.371  0.9513 -0.2598  0.9821
  624MOL0     C84130   3.925   6.651  10.232 -0.6532  0.2691 -0.3668
  624MOL0     C84131   3.833   6.628  10.135 -0.4499 -0.0388 -0.5808
  624MOL0     C84132   3.868   6.620  10.003  0.6347 -0.3408  0.6704
  624MOL0     C84133   3.770   6.590   9.893  0.3929 -0.3590  0.0423
  624MOL0     C84134   4.008   6.648   9.970  0.7313  0.4427 -0.1992
  624MOL0     C84135   4.068   6.643   9.837  0.3117 -0.0826  0.0975
  624MOL0     O84136   4.196   6.604   9.829 -0.1189 -0.1616  0.0427
  624MOL0     C84137   4.253   6.577   9.705  0.0932 -0.2783  0.3769
  624MOL0     C84138   4.271   6.677   9.610  0.7419 -0.7124 -0.7104
  624MOL0     C84139   4.315   6.644   9.479 -0.0174  0.1718 -0.3651
  624MOL0     C84140   4.363   6.517   9.452 -0.4784  0.9172  0.1762
  624MOL0     O84141   4.401   6.479   9.331 -0.3222  0.0330 -0.3592
  624MOL0     C84142   4.475   6.567   9.256 -0.4990  0.1972 -0.2819
  624MOL0     C84143   4.510   6.517   9.110  0.8239 -0.0036 -0.0093
  624MOL0     C84144   4.581   6.375   9.111  0.9687 -0.0489  0.6689
  624MOL0     C84145   4.726   6.390   9.167  0.0495 -0.8557 -0.4801
  624MOL0     C84146   4.813   6.270   9.152 -0.1852  0.1429 -0.1274
  624MOL0     C84147   4.768   6.149   9.245 -0.5602 -0.2013  0.3263
  624MOL0     C84148   4.865   6.025   9.234  0.0107 -0.4087 -0.6630
  624MOL0     C84149   4.826   5.933   9.117  0.0289 -0.2232 -0.4367
  624MOL0    Cl84150   4.899   5.772   9.144  0.1737 -0.1496 -0.1928
  624MOL0     C84151   4.363   6.418   9.548  0.1535  0.3352  0.5349
  624MOL0     C84152   4.314   6.452   9.679 -0.1670 -0.4872  0.0652
  624MOL0     O84153   3.991   6.673   9.742  0.1957  0.6487 -0.1427
  624MOL0     C84154   4.096   6.672  10.072 -0.7282 -0.7128 -0.4319
  624MOL0     C84155   4.056   6.681  10.206 -0.1467 -0.1941  0.6659
  624MOL0     N84156   3.379   6.291  10.655 -0.6731  0.1621  0.6693
  624MOL0     N84157   3.255   6.300  10.672  0.1672 -0.9632 -0.0257
  624MOL0     C84158   3.839   7.187  10.599 -0.0890 -0.0567  0.8056
  624MOL0     C84159   3.975   7.164  10.580 -0.0905 -0.0748  0.1231
  624MOL0     C84160   4.347   7.195  10.365  0.3429  0.1737 -0.6262
  624MOL0     C84161   4.399   7.298  10.284 -0.4580  0.7930 -0.2560
  624MOL0     C84162   4.531   7.325  10.281  0.5817  0.4370 -0.2747
  624MOL0     C84163   4.618   7.255  10.371 -0.4987 -0.9155 -1.1326
  624MOL0     O84164   4.751   7.286  10.394 -0.5000 -0.6605 -0.5477
  624MOL0     C84165   4.822   7.388  10.320 -0.3265  0.7297  0.1814
  624MOL0     C84166   4.960   7.339  10.283  0.2413 -0.9021 -0.1715
  624MOL0     C84167   4.943   7.214  10.180 -0.2209 -0.7150  0.2709
  624MOL0     C84168   5.052   7.185  10.075 -0.4800 -0.3748 -0.1195
  624MOL0     C84169   5.187   7.147  10.125 -0.1133  0.4836  0.2118
  624MOL0     C84170   5.292   7.109  10.174 -0.2535 -0.3463  0.2651
  624MOL0     C84171   4.562   7.159  10.460  0.9086 -0.2173  0.4633
  624MOL0     C84172   4.423   7.127  10.452 -0.3186 -0.3763  0.5386
  624MOL0     H84173   3.980   6.937  10.327 -0.2693  0.1322 -1.0937
  624MOL0     H84174   3.738   6.944  10.375 -1.3989  0.2447  0.6026
  624MOL0     H84175   3.516   7.106  10.377  1.4167  1.3804  0.9777
  624MOL0     H84176   3.546   6.951  10.469  0.5383  0.4050  0.2359
  624MOL0     H84177   3.394   7.025  10.648 -0.5273 -0.1484 -0.4244
  624MOL0     H84178   3.352   7.165  10.546 -0.6884 -0.0786 -1.7083
  624MOL0     H84179   3.182   7.023  10.515 -1.2981 -1.1267 -1.3270
  624MOL0     H84180   3.280   6.983  10.373 -1.5812  0.5587 -0.7681
  624MOL0     H84181   3.372   6.777  10.510 -2.1022 -2.6463 -2.1167
  624MOL0     H84182   3.281   6.834  10.650 -0.2283 -0.7417 -0.1204
  624MOL0     H84183   3.067   6.805  10.510  0.0513 -1.2001  3.5761
  624MOL0     H84184   3.168   6.735  10.377 -0.1755 -0.3855 -0.5717
  624MOL0     H84185   3.259   6.568  10.541  1.4754  2.1603  2.7258
  624MOL0     H84186   3.130   6.608  10.653  0.2719 -0.2060  0.0089
  624MOL0     H84187   2.952   6.555  10.484 -1.2869 -0.8942 -0.8203
  624MOL0     H84188   3.090   6.502  10.370 -1.2222 -2.9515 -0.0788
  624MOL0     H84189   2.995   6.310  10.462  0.3228 -0.5134 -0.3347
  624MOL0     H84190   2.999   6.369  10.622 -3.0905 -1.4092 -0.9162
  624MOL0     H84191   3.278   6.315  10.345 -0.7342 -0.7607  0.1902
  624MOL0     H84192   3.612   6.223  10.495 -0.2570  1.3052  1.5329
  624MOL0     H84193   3.543   6.292  10.353  2.3088  1.2020  0.0069
  624MOL0     H84194   3.631   6.435  10.607 -0.0180  2.4936  1.1704
  624MOL0     H84195   3.536   6.514  10.474 -0.6004 -0.1231  1.9724
  624MOL0     H84196   3.759   6.421  10.335  1.3346 -3.0377  1.5180
  624MOL0     H84197   3.831   6.430  10.492 -0.2463  1.7933  1.3614
  624MOL0     H84198   3.740   6.668  10.514 -0.8411  1.3518 -1.0784
  624MOL0     H84199   3.688   6.660  10.347  1.3089  1.8471 -0.6099
  624MOL0     H84200   3.730   6.613  10.166 -0.3949  1.2325  0.2920
  624MOL0     H84201   3.678   6.550   9.937  0.4553 -0.0977  0.4166
  624MOL0     H84202   3.741   6.680   9.839 -0.8945 -1.2610 -0.8420
  624MOL0     H84203   3.801   6.509   9.826 -0.6405  0.9319 -2.1041
  624MOL0     H84204   4.233   6.776   9.632  2.7485 -0.1165  0.2942
  624MOL0     H84205   4.308   6.720   9.402  0.7289 -1.9792 -2.6709
  624MOL0     H84206   4.427   6.664   9.240 -0.6654  0.0146 -0.9095
  624MOL0     H84207   4.572   6.585   9.302 -0.3129 -0.3241 -0.4643
  624MOL0     H84208   4.416   6.499   9.057 -0.2562  0.1234  1.8071
  624MOL0     H84209   4.567   6.595   9.058 -0.8567  1.1677 -0.2015
  624MOL0     H84210   4.593   6.330   9.012  1.6878 -0.2959  0.8605
  624MOL0     H84211   4.513   6.311   9.168  0.5847 -1.3602 -1.1793
  624MOL0     H84212   4.780   6.461   9.104  1.0160 -0.6064  0.5922
  624MOL0     H84213   4.716   6.423   9.271 -2.5942 -1.7214 -0.3841
  624MOL0     H84214   4.920   6.295   9.159  0.7760 -2.7861 -2.2618
  624MOL0     H84215   4.803   6.229   9.051  0.9764 -1.2017  0.2643
  624MOL0     H84216   4.758   6.173   9.352 -0.1524  2.5721 -0.1763
  624MOL0     H84217   4.670   6.120   9.207 -1.0960 -0.5711  1.8902
  624MOL0     H84218   4.894   5.971   9.325  2.2940  0.3805 -0.8368
  624MOL0     H84219   4.964   6.069   9.217 -0.3931  0.9008  0.2075
  624MOL0     H84220   4.854   5.979   9.022  1.9387 -0.3456  0.0190
  624MOL0     H84221   4.718   5.918   9.115  0.0852 -0.7154 -0.0299
  624MOL0     H84222   4.392   6.315   9.529 -2.3597 -1.0871  3.5745
  624MOL0     H84223   4.309   6.374   9.755  0.2610  0.4402  1.0811
  624MOL0     H84224   4.200   6.685  10.042 -0.0328 -3.5066  0.4281
  624MOL0     H84225   4.116   6.704  10.294 -1.1570  3.3699  0.5793
  624MOL0     H84226   3.808   7.257  10.676 -0.2222  1.0635 -0.2407
  624MOL0     H84227   4.048   7.224  10.632  0.2343 -0.5642  0.2370
  624MOL0     H84228   4.348   7.370  10.220 -1.4245  2.5078  2.2889
  624MOL0     H84229   4.569   7.416  10.236  3.2167  0.1469  1.1307
  624MOL0     H84230   4.775   7.423  10.228 -2.9180 -0.3640  1.0001
  624MOL0     H84231   4.835   7.474  10.386 -1.1821  1.1552 -0.1940
  624MOL0     H84232   5.022   7.297  10.363  1.2433 -0.1024 -0.5128
  624MOL0     H84233   5.017   7.417  10.231 -2.3034  0.8580 -0.4887
  624MOL0     H84234   4.847   7.227  10.129 -1.8767 -3.0239  2.5969
  624MOL0     H84235   4.930   7.121  10.235  1.6375 -1.4354 -0.4418
  624MOL0     H84236   5.069   7.281  10.025  1.1119 -1.8777 -2.7155
  624MOL0     H84237   5.017   7.113  10.001  1.5192  1.3223 -2.9019
  624MOL0     H84238   5.388   7.071  10.200 -0.4773 -1.2391 -0.1855
  624MOL0     H84239   4.622   7.120  10.541  1.8553  0.8879  0.3260
  624MOL0     H84240   4.377   7.058  10.522 -3.3861  2.2243  1.3373
  625MOL0     O84241   7.413   9.962   8.735  0.2819 -0.3745  0.5743
  625MOL0     C84242   7.438   9.846   8.760  0.3944  0.2020  0.0435
  625MOL0     O84243   7.346   9.748   8.788 -0.1999 -0.0231  0.2681
  625MOL0     C84244   7.220   9.776   8.820  0.5620  0.6153 -0.7713
  625MOL0     C84245   7.147   9.664   8.854  0.9198  0.1368 -0.1725
  625MOL0     C84246   7.004   9.687   8.878 -1.3698  0.5689 -0.1355
  625MOL0     C84247   6.940   9.808   8.875  0.6511  0.7164 -0.1930
  625MOL0     O84248   6.811   9.812   8.919  0.0987  0.5000  0.0511
  625MOL0     C84249   6.760   9.946   8.942 -0.3036  0.4278  0.5268
  625MOL0     C84250   6.607   9.930   8.953  0.0205  0.0010  0.2639
  625MOL0     C84251   6.545  10.050   8.893 -0.2105 -0.6457  0.2329
  625MOL0     C84252   6.390  10.053   8.913 -0.3162 -0.0595  0.4499
  625MOL0     C84253   6.335  10.136   9.034 -0.1333  0.0865  0.3311
  625MOL0     C84254   6.185  10.113   9.055  0.5258 -1.2306 -0.1857
  625MOL0     C84255   6.135  10.203   9.176  0.8006  1.0387  0.1181
  625MOL0     C84256   5.981  10.182   9.205 -0.3641 -0.3034  0.3952
  625MOL0     N84257   5.969  10.073   9.307  0.7365  0.2205 -1.0945
  625MOL0     C84258   5.961  10.103   9.445  0.9087  0.3702 -0.5097
  625MOL0     C84259   5.925   9.981   9.504 -0.4092  0.0841 -0.3481
  625MOL0     C84260   5.906   9.950   9.651 -0.8836 -0.1760  0.6081
  625MOL0     C84261   5.756   9.922   9.688  0.4464 -0.4176  0.6886
  625MOL0     C84262   5.712   9.772   9.665  0.4293 -0.3315  0.1757
  625MOL0     C84263   5.565   9.751   9.718 -0.0780 -0.5134 -0.1301
  625MOL0     O84264   5.583   9.752   9.861  0.0509 -0.3880  0.9245
  625MOL0     C84265   5.467   9.724   9.941  0.0691  0.0822 -0.8554
  625MOL0     C84266   5.479   9.729  10.079 -0.0642  0.4349  0.3481
  625MOL0     C84267   5.375   9.716  10.174  0.1663 -0.0889 -0.3358
  625MOL0     C84268   5.421   9.728  10.324  0.1016  0.6500 -0.7518
  625MOL0     C84269   5.246   9.699  10.121 -0.6832  0.6915 -0.4936
  625MOL0     C84270   5.133   9.690  10.210  0.5842  0.8635  0.2734
  625MOL0     O84271   5.007   9.692  10.148  0.0596  0.1411 -0.5041
  625MOL0     C84272   4.893   9.670  10.219  0.6771  0.0631  0.1929
  625MOL0     C84273   4.800   9.578  10.176 -0.3150  0.7190  0.2745
  625MOL0     C84274   4.690   9.549  10.249 -0.0728 -0.0674  0.7003
  625MOL0     C84275   4.667   9.612  10.371 -0.3590  0.2531  0.8883
  625MOL0     O84276   4.563   9.567  10.450 -0.0723  0.1198 -0.0810
  625MOL0     C84277   4.433   9.578  10.394  0.3528  0.3252  0.1032
  625MOL0     C84278   4.370   9.441  10.414 -0.0876  0.0403  0.5965
  625MOL0     C84279   4.285   9.428  10.542 -0.1148 -0.0482 -0.3394
  625MOL0     C84280   4.210   9.298  10.540 -0.6647  0.1529  0.8969
  625MOL0     C84281   4.118   9.292  10.651 -0.0426  0.5689 -0.2646
  625MOL0     C84282   4.008   9.201  10.619  0.7410  0.7523  0.4448
  625MOL0     C84283   3.903   9.217  10.720  0.9174 -0.1485  0.5850
  625MOL0     C84284   3.820   9.100  10.747  0.2246  0.5111  0.1346
  625MOL0    Cl84285   3.679   9.151  10.843  0.5340  0.2090  0.0697
  625MOL0     C84286   4.754   9.710  10.408 -1.7266 -0.4744 -0.8166
  625MOL0     C84287   4.868   9.746  10.328 -0.2645  0.8552 -0.7366
  625MOL0     O84288   5.146   9.661  10.336 -0.1901  0.4005  0.2367
  625MOL0     C84289   5.234   9.680   9.981 -0.0416 -0.1970  0.7394
  625MOL0     C84290   5.349   9.693   9.904  0.3107  0.3143  0.5917
  625MOL0     N84291   5.902   9.900   9.406 -0.6285  0.0759  0.8228
  625MOL0     N84292   5.940   9.947   9.288  0.4622  0.2897 -0.4983
  625MOL0     C84293   7.025   9.916   8.851 -0.4021 -1.0149  0.3723
  625MOL0     C84294   7.160   9.900   8.826  0.1646 -0.0030 -0.2231
  625MOL0     C84295   7.577   9.806   8.769 -0.0876  0.5665 -0.0149
  625MOL0     C84296   7.619   9.668   8.773 -0.1791  0.2362 -0.2722
  625MOL0     C84297   7.754   9.627   8.790 -0.7626  0.1611  0.0042
  625MOL0     C84298   7.861   9.721   8.789  0.1200 -0.5976 -0.3095
  625MOL0     O84299   7.986   9.661   8.801 -0.8733 -0.3647 -0.0060
  625MOL0     C84300   8.086   9.716   8.890  0.3438  0.0616 -0.5812
  625MOL0     C84301   8.231   9.703   8.842 -0.3910 -0.2889 -0.4067
  625MOL0     C84302   8.323   9.796   8.913 -0.1698  0.5163  0.3519
  625MOL0     C84303   8.472   9.791   8.866 -0.5613 -0.0515 -0.3740
  625MOL0     C84304   8.486   9.855   8.736 -0.4506 -0.4358 -1.0006
  625MOL0     C84305   8.480   9.894   8.622  0.2289 -0.2972  1.2355
  625MOL0     C84306   7.817   9.856   8.784  0.1220  0.3400 -0.1741
  625MOL0     C84307   7.685   9.899   8.769  0.1509 -0.2873  0.0512
  625MOL0     H84308   7.187   9.563   8.851  2.3289  0.6483  0.4555
  625MOL0     H84309   6.942   9.604   8.912 -1.1925  0.1992 -0.6953
  625MOL0     H84310   6.810   9.992   9.027  0.2137  1.7738 -0.4730
  625MOL0     H84311   6.773  10.008   8.853 -0.9781 -2.2545 -1.5992
  625MOL0     H84312   6.577   9.836   8.906 -0.0060  0.0126  0.2570
  625MOL0     H84313   6.571   9.921   9.056 -0.1659  1.9314  0.4019
  625MOL0     H84314   6.587  10.145   8.926 -0.5299 -0.1215 -0.8077
  625MOL0     H84315   6.571  10.049   8.786  0.7306 -3.0997  0.4149
  625MOL0     H84316   6.339  10.098   8.828 -0.0963 -0.5801  0.0348
  625MOL0     H84317   6.354   9.949   8.913 -0.4861 -0.1149  4.2102
  625MOL0     H84318   6.385  10.101   9.125  0.9002 -0.7416 -0.5300
  625MOL0     H84319   6.344  10.244   9.023 -0.1177  0.1064  0.5554
  625MOL0     H84320   6.128  10.144   8.967  0.8485  0.4619  0.1630
  625MOL0     H84321   6.159  10.008   9.072  0.4605 -1.1981 -0.0809
  625MOL0     H84322   6.198  10.201   9.266 -1.3661  4.3863  1.9125
  625MOL0     H84323   6.146  10.305   9.139 -1.0365  0.7743 -1.2818
  625MOL0     H84324   5.927  10.171   9.111  0.1846  2.5877 -0.3724
  625MOL0     H84325   5.941  10.274   9.250 -0.6475 -0.7444  1.0504
  625MOL0     H84326   5.979  10.204   9.481  4.1257  0.7876 -2.8273
  625MOL0     H84327   5.961   9.858   9.674 -0.5353 -0.0667  0.2306
  625MOL0     H84328   5.948  10.032   9.710 -2.2562  0.2595  0.9976
  625MOL0     H84329   5.687   9.975   9.622 -1.7577 -1.3437  2.1533
  625MOL0     H84330   5.733   9.944   9.792  0.7373 -1.2101  0.9285
  625MOL0     H84331   5.771   9.703   9.725  0.1729  1.7032  2.9424
  625MOL0     H84332   5.712   9.740   9.560  0.1946 -1.0011  0.3744
  625MOL0     H84333   5.525   9.655   9.682  1.4980 -1.2424 -0.0291
  625MOL0     H84334   5.502   9.834   9.685 -2.0277 -1.5804  0.6831
  625MOL0     H84335   5.580   9.748  10.112  1.1669 -2.8675 -1.1073
  625MOL0     H84336   5.529   9.740  10.343 -0.1690 -0.5129  1.9832
  625MOL0     H84337   5.388   9.818  10.377  1.0361  0.6662 -0.1601
  625MOL0     H84338   5.395   9.635  10.374  2.3656  0.4198  0.1187
  625MOL0     H84339   4.827   9.507  10.099 -0.3714  0.4181  0.5293
  625MOL0     H84340   4.620   9.469  10.229 -0.9075  1.0335 -1.0047
  625MOL0     H84341   4.378   9.658  10.444 -0.3286  3.0898 -4.4770
  625MOL0     H84342   4.427   9.605  10.288 -1.8093  0.0877  0.1108
  625MOL0     H84343   4.298   9.428  10.333  1.1361  1.1237 -0.7142
  625MOL0     H84344   4.448   9.365  10.407  2.6282  2.8128 -2.7431
  625MOL0     H84345   4.215   9.512  10.550  0.9725  0.7159  2.0202
  625MOL0     H84346   4.338   9.443  10.636  1.2212 -0.5558 -0.9985
  625MOL0     H84347   4.164   9.272  10.444 -0.3752 -2.6065  1.4192
  625MOL0     H84348   4.284   9.219  10.557 -0.7551  0.1288  1.1858
  625MOL0     H84349   4.073   9.389  10.673 -0.1853 -0.1721  3.4214
  625MOL0     H84350   4.170   9.267  10.744 -1.1080 -0.8316 -0.0093
  625MOL0     H84351   3.960   9.228  10.524 -1.5691 -1.2967  0.9410
  625MOL0     H84352   4.033   9.095  10.614 -1.4045  0.2141 -0.2786
  625MOL0     H84353   3.831   9.286  10.674  2.4005 -0.4034 -2.3670
  625MOL0     H84354   3.939   9.261  10.814  1.3414  1.0810 -0.1303
  625MOL0     H84355   3.865   9.014  10.797 -0.0321 -0.5560 -1.3926
  625MOL0     H84356   3.784   9.073  10.648  3.9865  0.7686 -1.4763
  625MOL0     H84357   4.746   9.759  10.504 -0.3609  0.1339 -0.9850
  625MOL0     H84358   4.938   9.821  10.362  0.9410 -0.5940  0.0982
  625MOL0     H84359   5.142   9.650   9.931 -0.8422 -0.6837  2.3963
  625MOL0     H84360   5.349   9.690   9.796  0.3051 -1.5032  0.6136
  625MOL0     H84361   6.989  10.018   8.840  0.6000 -0.7116 -0.1305
  625MOL0     H84362   7.210   9.995   8.811  0.3229 -0.2751 -1.5409
  625MOL0     H84363   7.539   9.594   8.777 -0.5868  0.6971  0.3643
  625MOL0     H84364   7.792   9.525   8.794  2.6954  1.3125 -0.0471
  625MOL0     H84365   8.063   9.822   8.897 -1.3589 -0.3816  1.4431
  625MOL0     H84366   8.072   9.674   8.990  4.1373 -1.1876 -0.3884
  625MOL0     H84367   8.236   9.730   8.736  1.2060 -1.9401 -0.7914
  625MOL0     H84368   8.265   9.599   8.852 -1.4030 -0.4487  2.1872
  625MOL0     H84369   8.317   9.773   9.019  0.9419 -1.2448  0.0718
  625MOL0     H84370   8.296   9.900   8.895 -0.4968  0.6558  1.5750
  625MOL0     H84371   8.502   9.686   8.857 -0.8271 -0.2194  0.5674
  625MOL0     H84372   8.542   9.837   8.937 -2.3224  0.9989  0.7659
  625MOL0     H84373   8.466   9.920   8.519 -1.2057  0.0742  1.5024
  625MOL0     H84374   7.892   9.932   8.801 -1.6497  1.7011  2.3032
  625MOL0     H84375   7.652  10.003   8.765 -0.9369 -0.6407 -2.3578
  626MOL0     O84376   4.163  10.285   5.684 -1.1464 -0.1413 -0.3246
  626MOL0     C84377   4.211  10.239   5.781 -0.1706  0.7715  0.9773
  626MOL0     O84378   4.142  10.183   5.888 -0.1386  0.5526  0.5773
  626MOL0     C84379   4.005  10.184   5.893  0.0857 -0.6436 -0.7423
  626MOL0     C84380   3.918  10.289   5.863  0.8454  0.6806 -0.7697
  626MOL0     C84381   3.781  10.275   5.878 -0.4943  0.6473  0.0276
  626MOL0     C84382   3.721  10.160   5.943  0.3998  0.2930  0.3727
  626MOL0     O84383   3.587  10.141   5.971 -0.0533 -0.2117 -0.7465
  626MOL0     C84384   3.506  10.249   5.923 -0.1249 -0.1483 -0.1711
  626MOL0     C84385   3.361  10.193   5.944 -0.0394  0.7740 -0.8987
  626MOL0     C84386   3.259  10.296   5.913 -0.3885 -0.3932 -1.0206
  626MOL0     C84387   3.116  10.232   5.946 -0.2421  0.2539  0.3395
  626MOL0     C84388   3.000  10.299   5.866  0.2697 -0.5071  0.2178
  626MOL0     C84389   2.870  10.241   5.936 -0.0701  1.0508  0.1517
  626MOL0     C84390   2.748  10.312   5.879  0.3821  0.6830  0.4955
  626MOL0     C84391   2.708  10.236   5.749 -0.1246  0.2501 -0.3514
  626MOL0     N84392   2.599  10.288   5.675 -0.0587 -0.8939 -0.2773
  626MOL0     C84393   2.528  10.224   5.576 -0.0754  0.9903  0.5507
  626MOL0     C84394   2.425  10.306   5.546 -0.0994 -0.6459  0.4676
  626MOL0     C84395   2.321  10.279   5.440  0.4852  0.2933  0.1791
  626MOL0     C84396   2.185  10.351   5.454  0.0097  0.0626  0.7421
  626MOL0     C84397   2.088  10.296   5.341 -0.9141  0.3642 -0.6394
  626MOL0     C84398   1.978  10.398   5.312  0.3420 -0.0176  0.7334
  626MOL0     O84399   1.901  10.351   5.206 -0.0741 -0.3703 -0.2102
  626MOL0     C84400   1.793  10.272   5.233 -0.5531  0.9690  0.6225
  626MOL0     C84401   1.696  10.324   5.309  0.9638  0.3904 -0.3119
  626MOL0     C84402   1.576  10.251   5.328  0.0930  0.3305 -0.1905
  626MOL0     C84403   1.460  10.310   5.417 -0.4586 -0.8563 -0.3588
  626MOL0     C84404   1.563  10.124   5.264  0.2802 -0.5478  1.0599
  626MOL0     C84405   1.446  10.032   5.286 -0.1431  1.0525 -0.1691
  626MOL0     O84406   1.319  10.074   5.319  0.4599 -0.2166  0.2713
  626MOL0     C84407   1.219   9.985   5.354 -0.2750  0.5674 -0.9188
  626MOL0     C84408   1.124  10.028   5.448  0.6273  0.3823 -0.0792
  626MOL0     C84409   1.010   9.952   5.480  0.1431  0.3759  0.6882
  626MOL0     C84410   0.987   9.821   5.424  1.0542  0.0813  0.1637
  626MOL0     O84411   0.890   9.736   5.468  0.0236  0.0144 -0.2965
  626MOL0     C84412   0.774   9.793   5.525  0.2065  0.1281 -0.4701
  626MOL0     C84413   0.657   9.695   5.499  0.4841  0.6808 -0.1719
  626MOL0     C84414   0.527   9.766   5.551 -0.3227 -0.3164  1.0217
  626MOL0     C84415   0.401   9.669   5.546 -0.0156  0.4189  1.0713
  626MOL0     C84416   0.266   9.743   5.579  0.3479 -0.1660 -0.1080
  626MOL0     C84417   0.282   9.794   5.721 -0.0196  0.2030  0.5047
  626MOL0     C84418   0.146   9.847   5.787  0.1608  0.2839 -0.3155
  626MOL0     C84419   0.044   9.901   5.688  0.1647 -0.6743  0.2479
  626MOL0    Cl84420  -0.083   9.992   5.763  0.2004  0.2261 -0.0743
  626MOL0     C84421   1.073   9.778   5.325  0.4747 -0.6931 -0.6117
  626MOL0     C84422   1.185   9.864   5.292 -0.0237  0.2975 -0.3404
  626MOL0     O84423   1.474   9.913   5.265  0.4422 -0.1609 -0.0269
  626MOL0     C84424   1.669  10.075   5.188 -0.5066 -0.5801  0.1613
  626MOL0     C84425   1.781  10.151   5.163 -0.2504 -0.9434 -0.0692
  626MOL0     N84426   2.435  10.416   5.625 -0.4038 -0.1824  0.1486
  626MOL0     N84427   2.549  10.411   5.699  0.6835  0.1040  0.0918
  626MOL0     C84428   3.817  10.063   5.983  0.4464 -0.2737  0.2563
  626MOL0     C84429   3.953  10.070   5.955 -0.1627  0.8668 -0.5139
  626MOL0     C84430   4.364  10.216   5.791 -0.5691 -0.7499 -0.3013
  626MOL0     C84431   4.426  10.148   5.900  0.1694 -0.2260  0.1338
  626MOL0     C84432   4.561  10.129   5.912  0.4798  0.3139 -0.2206
  626MOL0     C84433   4.641  10.178   5.813 -0.7057  0.1835 -0.0788
  626MOL0     O84434   4.773  10.148   5.827 -0.3736  0.2742 -0.3058
  626MOL0     C84435   4.871  10.224   5.753 -0.0594 -0.0550  0.9339
  626MOL0     C84436   5.006  10.170   5.770  0.8034  0.6444 -0.0025
  626MOL0     C84437   5.070  10.200   5.905 -0.6986 -0.3358  0.1857
  626MOL0     C84438   5.203  10.117   5.910  0.7375 -0.6462  0.8860
  626MOL0     C84439   5.266  10.152   6.036 -0.4416  0.3231 -0.5177
  626MOL0     C84440   5.302  10.178   6.147 -0.3130 -1.0027  0.3469
  626MOL0     C84441   4.584  10.254   5.707  0.7410  1.2280  0.1357
  626MOL0     C84442   4.451  10.260   5.693 -0.0172 -0.8984 -0.1539
  626MOL0     H84443   3.963  10.372   5.808  1.1743  0.4806 -0.8092
  626MOL0     H84444   3.713  10.347   5.834 -2.2241  0.9396  2.9662
  626MOL0     H84445   3.523  10.332   5.993 -2.4400 -1.3007  1.9074
  626MOL0     H84446   3.523  10.263   5.816 -1.7047 -0.9405 -0.5467
  626MOL0     H84447   3.345  10.103   5.884 -1.7939  1.2271 -1.1713
  626MOL0     H84448   3.356  10.171   6.051  0.7306  2.5924 -0.4488
  626MOL0     H84449   3.284  10.389   5.966  2.8748 -0.8287 -1.5918
  626MOL0     H84450   3.260  10.323   5.807 -2.0375  0.9290 -0.7461
  626MOL0     H84451   3.111  10.124   5.931  0.5126  0.1307  0.8953
  626MOL0     H84452   3.105  10.248   6.054  1.9725 -1.6926  0.9332
  626MOL0     H84453   3.005  10.408   5.871  0.1200 -0.3554 -2.0040
  626MOL0     H84454   2.997  10.277   5.759 -0.5267 -0.0029  0.1224
  626MOL0     H84455   2.871  10.133   5.924  2.4411  0.6945  2.6173
  626MOL0     H84456   2.874  10.266   6.042  0.1706 -0.6640  0.5741
  626MOL0     H84457   2.666  10.315   5.951 -1.0829  1.0091 -1.1280
  626MOL0     H84458   2.773  10.417   5.862  0.7017  0.6920  0.9798
  626MOL0     H84459   2.683  10.131   5.771 -0.7627  0.1581 -1.4364
  626MOL0     H84460   2.795  10.231   5.684  0.3975  0.7927  0.2980
  626MOL0     H84461   2.552  10.126   5.535 -1.4602  0.5037  0.8319
  626MOL0     H84462   2.372  10.277   5.343  0.5264 -3.1242  0.1588
  626MOL0     H84463   2.300  10.172   5.439 -1.0866  0.5654  0.9519
  626MOL0     H84464   2.188  10.460   5.447 -3.7119  0.2979  0.8226
  626MOL0     H84465   2.138  10.335   5.552 -2.4968  2.3826  0.0373
  626MOL0     H84466   2.044  10.202   5.376  0.5701  0.1692  0.8583
  626MOL0     H84467   2.137  10.264   5.249  2.5557  0.0028  1.1457
  626MOL0     H84468   2.024  10.484   5.263 -0.5933  0.2106  0.2521
  626MOL0     H84469   1.921  10.427   5.401 -0.2180  0.5626  0.1932
  626MOL0     H84470   1.709  10.423   5.350  0.1765 -0.1857  1.4216
  626MOL0     H84471   1.513  10.341   5.508 -1.4321  2.2497 -0.7605
  626MOL0     H84472   1.425  10.400   5.367  1.9803  1.6112  2.0166
  626MOL0     H84473   1.375  10.252   5.455 -0.8953  1.2723  2.2278
  626MOL0     H84474   1.134  10.128   5.488 -0.0631 -0.0729  1.2993
  626MOL0     H84475   0.947   9.992   5.558 -0.4718 -2.5963  1.8585
  626MOL0     H84476   0.781   9.818   5.631 -2.6715  1.1651 -0.4252
  626MOL0     H84477   0.745   9.885   5.472 -1.7962  0.3239  0.8372
  626MOL0     H84478   0.634   9.671   5.394  0.6549 -0.1527 -0.0239
  626MOL0     H84479   0.677   9.605   5.557 -1.6754  1.2540  1.5915
  626MOL0     H84480   0.509   9.852   5.486 -1.3301 -1.6283 -0.5192
  626MOL0     H84481   0.543   9.798   5.654 -0.3121 -1.1116  1.2754
  626MOL0     H84482   0.396   9.618   5.449  2.5395  0.8000  0.6580
  626MOL0     H84483   0.399   9.580   5.610 -1.0536 -1.8160 -1.8055
  626MOL0     H84484   0.183   9.672   5.571 -1.0134  1.3484  0.0373
  626MOL0     H84485   0.268   9.824   5.505  1.0241  0.1043  0.1932
  626MOL0     H84486   0.329   9.711   5.776  0.2112 -0.6964 -0.9803
  626MOL0     H84487   0.346   9.883   5.723  0.5565 -0.1885 -0.1417
  626MOL0     H84488   0.164   9.926   5.861  0.3256 -2.1021  2.3548
  626MOL0     H84489   0.101   9.767   5.846  0.5998  1.1697  1.3033
  626MOL0     H84490  -0.010   9.817   5.642 -0.1341 -3.1303  4.5889
  626MOL0     H84491   0.101   9.956   5.613  1.3188 -0.5431  1.1966
  626MOL0     H84492   1.068   9.693   5.258  1.6568 -2.0551  0.9589
  626MOL0     H84493   1.248   9.829   5.210  1.9866 -1.4487  1.7998
  626MOL0     H84494   1.667   9.980   5.135 -2.2402  1.2126 -3.3734
  626MOL0     H84495   1.859  10.108   5.100 -1.1772 -3.5090  0.4156
  626MOL0     H84496   3.784   9.969   6.027  0.6354  0.1956  1.4087
  626MOL0     H84497   4.026   9.992   5.972  0.9867  2.0360  0.1069
  626MOL0     H84498   4.364  10.121   5.985 -2.6198  1.7513 -1.1497
  626MOL0     H84499   4.599  10.072   5.996  1.4938  0.9586 -0.2243
  626MOL0     H84500   4.855  10.221   5.644 -1.2100  1.7616  1.0054
  626MOL0     H84501   4.852  10.331   5.761 -0.8956  0.1972 -2.5672
  626MOL0     H84502   5.067  10.213   5.690  0.8726  1.3069  0.4075
  626MOL0     H84503   5.006  10.061   5.757  0.4296  0.7765 -1.2590
  626MOL0     H84504   4.999  10.163   5.979  1.0992 -0.9749  1.6551
  626MOL0     H84505   5.094  10.306   5.915  0.9105 -0.5392 -1.1497
  626MOL0     H84506   5.253  10.159   5.823 -4.6339  0.7986 -1.9611
  626MOL0     H84507   5.181  10.010   5.898 -0.1966 -0.2154 -2.0747
  626MOL0     H84508   5.329  10.202   6.248 -2.0474 -2.0913  1.1295
  626MOL0     H84509   4.649  10.298   5.632  1.0904 -0.1495 -0.3933
  626MOL0     H84510   4.411  10.317   5.609  1.3516  2.3665  1.2185
  627MOL0     O84511   8.458  10.084   1.535 -0.0957  0.5560 -0.1166
  627MOL0     C84512   8.535  10.041   1.454 -0.2219 -0.0843  0.1132
  627MOL0     O84513   8.507   9.932   1.371 -0.4958 -0.0339 -0.3570
  627MOL0     C84514   8.386   9.870   1.373 -0.5320 -0.7610  1.0889
  627MOL0     C84515   8.340   9.823   1.246  0.1307 -0.0325 -0.3090
  627MOL0     C84516   8.219   9.748   1.241 -0.2059  0.1564 -0.4309
  627MOL0     C84517   8.149   9.722   1.364 -0.2565 -0.6622  0.2355
  627MOL0     O84518   8.050   9.619   1.358  0.1130 -0.3476  1.3888
  627MOL0     C84519   7.941   9.629   1.269  0.0883 -0.8505  0.6133
  627MOL0     C84520   7.840   9.510   1.269 -0.3855 -0.1949  0.1387
  627MOL0     C84521   7.736   9.496   1.154  0.1994  0.6173  0.0132
  627MOL0     C84522   7.622   9.406   1.196  0.1909 -0.1556  0.0033
  627MOL0     C84523   7.515   9.395   1.084  0.0400  0.3159 -0.0202
  627MOL0     C84524   7.438   9.267   1.111 -0.2565  0.9496  0.2196
  627MOL0     C84525   7.362   9.271   1.251 -0.0205 -0.1577  0.1432
  627MOL0     C84526   7.246   9.377   1.252 -0.6602 -0.0334 -0.3856
  627MOL0     N84527   7.138   9.348   1.151  0.3449 -0.5462 -0.3878
  627MOL0     C84528   7.040   9.255   1.157 -0.5104  0.3684 -0.0625
  627MOL0     C84529   6.971   9.267   1.038  0.0796 -0.0612  0.3678
  627MOL0     C84530   6.861   9.174   0.990 -0.3985  0.0187  0.0442
  627MOL0     C84531   6.754   9.135   1.099 -0.4746 -0.2718 -0.2956
  627MOL0     C84532   6.646   9.040   1.040  0.6539  0.3485 -0.1337
  627MOL0     C84533   6.572   8.976   1.160 -0.2433  0.7258  0.0196
  627MOL0     O84534   6.526   9.074   1.253 -0.0311  0.1817  0.8567
  627MOL0     C84535   6.389   9.101   1.247  0.1977 -0.4659  0.8770
  627MOL0     C84536   6.340   9.180   1.148 -0.0912 -0.9891  0.2665
  627MOL0     C84537   6.202   9.224   1.137 -0.3444  0.6354  0.5849
  627MOL0     C84538   6.179   9.331   1.028 -0.1540  0.2932 -0.0401
  627MOL0     C84539   6.107   9.175   1.227 -0.1894  0.5857  0.9180
  627MOL0     C84540   5.961   9.215   1.232  0.0762 -0.6972  0.8191
  627MOL0     O84541   5.870   9.123   1.296  0.0589 -0.0571 -0.6827
  627MOL0     C84542   5.736   9.151   1.311 -0.0214 -0.8739  0.0823
  627MOL0     C84543   5.639   9.055   1.274 -0.0759 -0.4876  0.1922
  627MOL0     C84544   5.504   9.081   1.305  0.6044  0.1487 -0.0000
  627MOL0     C84545   5.457   9.192   1.368 -0.7165 -0.2988 -0.4333
  627MOL0     O84546   5.329   9.223   1.408  0.5544 -0.3839 -0.0438
  627MOL0     C84547   5.244   9.108   1.441  0.5501 -0.6077  0.0199
  627MOL0     C84548   5.152   9.132   1.562  0.7534  0.3783 -0.4967
  627MOL0     C84549   5.072   9.268   1.547 -0.6522  0.2014 -0.7708
  627MOL0     C84550   4.961   9.275   1.650  0.6426 -0.2422 -0.7698
  627MOL0     C84551   4.890   9.421   1.643  0.2673 -0.3487  0.3407
  627MOL0     C84552   4.830   9.455   1.512  0.1536 -0.9668  0.9393
  627MOL0     C84553   4.727   9.356   1.455  0.1252 -0.7102 -0.1031
  627MOL0     C84554   4.616   9.343   1.551  0.0336 -0.1210  0.8981
  627MOL0    Cl84555   4.481   9.284   1.467 -0.0384 -0.1178  0.0800
  627MOL0     C84556   5.552   9.290   1.398 -0.2552  0.3314 -0.3858
  627MOL0     C84557   5.692   9.268   1.376 -0.0821 -0.8867  0.3124
  627MOL0     O84558   5.927   9.330   1.194  0.2076  1.1593  0.3521
  627MOL0     C84559   6.155   9.088   1.328 -0.5930 -0.1728  0.2391
  627MOL0     C84560   6.297   9.056   1.349  0.1564  0.7581  0.2643
  627MOL0     N84561   7.023   9.380   0.974 -0.0207  0.6198 -0.5405
  627MOL0     N84562   7.127   9.416   1.041  0.6801  0.0255  0.6182
  627MOL0     C84563   8.201   9.766   1.485  0.7097 -1.0338  0.4059
  627MOL0     C84564   8.317   9.843   1.488  0.0519  0.7155 -0.0522
  627MOL0     C84565   8.660  10.112   1.436 -0.2562 -0.6092  0.2712
  627MOL0     C84566   8.690  10.234   1.501 -0.1075 -0.4340  0.2560
  627MOL0     C84567   8.810  10.299   1.489 -0.5081 -0.6188  0.7021
  627MOL0     C84568   8.898  10.258   1.397 -0.5291  0.6377  0.8179
  627MOL0     O84569   9.012  10.331   1.374  0.4769  1.0881 -0.9135
  627MOL0     C84570   9.114  10.333   1.470  0.4117 -0.1742 -0.2418
  627MOL0     C84571   9.130  10.474   1.540  0.3454  0.1730  0.4363
  627MOL0     C84572   9.214  10.568   1.454 -0.4576  0.1159  0.2516
  627MOL0     C84573   9.240  10.704   1.525 -0.1061 -0.6680 -0.2942
  627MOL0     C84574   9.298  10.806   1.443 -0.7601 -0.4857  0.1510
  627MOL0     C84575   9.337  10.896   1.369  0.7520 -0.6443 -0.9397
  627MOL0     C84576   8.874  10.135   1.324  0.2546  0.2579 -1.0268
  627MOL0     C84577   8.754  10.065   1.342  0.1783 -0.7417  0.1095
  627MOL0     H84578   8.403   9.850   1.162  1.9717  3.0588  1.8285
  627MOL0     H84579   8.192   9.716   1.141  1.5796  2.1301 -1.6376
  627MOL0     H84580   7.885   9.722   1.285  0.1271 -0.9543  1.4140
  627MOL0     H84581   7.976   9.644   1.167 -0.6274  3.4364  0.7963
  627MOL0     H84582   7.900   9.419   1.253  0.2653 -0.0389  1.5971
  627MOL0     H84583   7.798   9.510   1.370 -1.6149  1.9605 -0.3093
  627MOL0     H84584   7.700   9.594   1.122 -1.2324  0.1744  0.2031
  627MOL0     H84585   7.787   9.451   1.068 -0.1194 -1.7289  0.9774
  627MOL0     H84586   7.659   9.305   1.215 -2.2922 -1.6632 -2.4012
  627MOL0     H84587   7.570   9.437   1.287  0.6284  0.7291 -0.0391
  627MOL0     H84588   7.452   9.485   1.089  0.7755  1.0026 -2.1840
  627MOL0     H84589   7.567   9.374   0.990  1.4774 -1.3609  1.0966
  627MOL0     H84590   7.361   9.243   1.037 -1.9913 -2.2241  2.7806
  627MOL0     H84591   7.508   9.182   1.113 -0.5864  0.6736  0.1018
  627MOL0     H84592   7.321   9.170   1.266 -0.8893 -0.0200 -1.1055
  627MOL0     H84593   7.428   9.290   1.336  0.3659 -2.1107  0.3220
  627MOL0     H84594   7.292   9.474   1.229 -0.7595  0.0436 -0.2576
  627MOL0     H84595   7.208   9.389   1.354  1.7508 -1.6155  0.7822
  627MOL0     H84596   7.023   9.182   1.236 -2.1362  0.2738 -0.4726
  627MOL0     H84597   6.817   9.229   0.906 -1.6756 -1.9348 -0.6313
  627MOL0     H84598   6.899   9.079   0.952 -2.0254 -0.2833 -0.9128
  627MOL0     H84599   6.720   9.227   1.147  1.3788  1.1838 -1.5675
  627MOL0     H84600   6.808   9.076   1.174  0.0456  1.3448  0.6642
  627MOL0     H84601   6.706   8.965   0.988  1.2786 -0.7378  2.0337
  627MOL0     H84602   6.570   9.079   0.972 -0.2580 -2.2323 -0.7033
  627MOL0     H84603   6.641   8.910   1.213 -0.3989 -0.7570 -1.5629
  627MOL0     H84604   6.493   8.907   1.132  0.8687 -0.6245  0.1296
  627MOL0     H84605   6.408   9.209   1.068 -1.7363 -3.2797 -2.1126
  627MOL0     H84606   6.101   9.302   0.956 -2.4927  1.5710  1.8379
  627MOL0     H84607   6.144   9.408   1.096 -0.9553 -1.7357  1.9733
  627MOL0     H84608   6.270   9.344   0.969 -0.5956 -2.8043 -1.6281
  627MOL0     H84609   5.670   8.958   1.236  0.1783 -0.8199  1.2431
  627MOL0     H84610   5.427   9.017   1.264 -1.2533  1.3219  1.5085
  627MOL0     H84611   5.179   9.090   1.355  0.9769  0.6433 -0.5969
  627MOL0     H84612   5.309   9.022   1.460  2.8415  1.5506  2.9504
  627MOL0     H84613   5.069   9.061   1.559  0.5820  0.6009 -2.9988
  627MOL0     H84614   5.206   9.114   1.655  4.5327  0.5824 -2.4685
  627MOL0     H84615   5.024   9.265   1.449  0.5166  1.3825 -1.4079
  627MOL0     H84616   5.132   9.359   1.548 -1.6204  0.8952  1.4541
  627MOL0     H84617   4.888   9.195   1.652  1.2720 -0.8063  0.6206
  627MOL0     H84618   5.006   9.285   1.749  1.3397  1.2139 -1.1996
  627MOL0     H84619   4.972   9.492   1.656  1.1881 -1.6659  2.2229
  627MOL0     H84620   4.815   9.428   1.721 -0.8031 -0.5993 -0.6338
  627MOL0     H84621   4.781   9.552   1.522 -1.7355 -1.7947  0.1346
  627MOL0     H84622   4.909   9.488   1.444  0.4969  1.5917  2.4209
  627MOL0     H84623   4.781   9.264   1.435 -0.0742 -0.5501 -1.5129
  627MOL0     H84624   4.692   9.386   1.355  2.8358 -0.5970 -1.0837
  627MOL0     H84625   4.584   9.439   1.592 -2.0131 -0.3619 -0.0177
  627MOL0     H84626   4.642   9.271   1.630 -0.3191 -0.4232  0.7413
  627MOL0     H84627   5.524   9.374   1.461  0.4005 -1.3782  2.3920
  627MOL0     H84628   5.767   9.336   1.415  1.4081 -2.8847  1.1129
  627MOL0     H84629   6.077   9.047   1.390  1.1007 -2.7326  0.8312
  627MOL0     H84630   6.319   9.002   1.440  2.4690  0.0271 -0.6678
  627MOL0     H84631   8.146   9.753   1.577  0.7183 -0.9616  0.4212
  627MOL0     H84632   8.353   9.875   1.586  0.8031  2.7157 -0.9239
  627MOL0     H84633   8.621  10.269   1.576 -2.6298 -0.8358 -1.7336
  627MOL0     H84634   8.835  10.389   1.545  0.6616 -2.0599  2.6353
  627MOL0     H84635   9.093  10.259   1.548  3.3676 -0.5102  0.3937
  627MOL0     H84636   9.213  10.308   1.429 -0.3294  0.5818 -2.6303
  627MOL0     H84637   9.160  10.465   1.645  0.1311 -0.6371  0.4374
  627MOL0     H84638   9.028  10.512   1.551 -0.7311 -2.4481  0.3092
  627MOL0     H84639   9.165  10.571   1.356 -0.2827  2.3732  0.1830
  627MOL0     H84640   9.311  10.522   1.431 -0.5931  0.7361 -1.8167
  627MOL0     H84641   9.309  10.677   1.605  2.3075  0.4170 -1.8759
  627MOL0     H84642   9.140  10.733   1.557  0.1240 -1.2499  0.9746
  627MOL0     H84643   9.378  10.976   1.311  2.5230 -0.1271  0.9113
  627MOL0     H84644   8.947  10.102   1.251  1.8007  2.3074 -0.5194
  627MOL0     H84645   8.741   9.968   1.297  2.0452 -2.9203  3.7928
  628MOL0     O84646   3.162   0.625  10.323  0.2261 -0.2461  0.2372
  628MOL0     C84647   3.199   0.738  10.288  0.8060  0.1204  0.2599
  628MOL0     O84648   3.125   0.823  10.213 -0.3611 -0.1245 -0.5154
  628MOL0     C84649   3.007   0.795  10.154 -0.4927  1.3687  0.4847
  628MOL0     C84650   2.984   0.808  10.016  1.0122  0.5463 -0.6290
  628MOL0     C84651   2.861   0.781   9.962  0.5737 -0.1052  0.3920
  628MOL0     C84652   2.751   0.754  10.036  0.0344  0.5265 -0.4706
  628MOL0     O84653   2.633   0.739   9.968  0.1143  0.0842 -0.0041
  628MOL0     C84654   2.559   0.617   9.984  0.4920  0.4386  1.2020
  628MOL0     C84655   2.428   0.662  10.049  0.6487 -0.2926  0.0671
  628MOL0     C84656   2.349   0.544  10.107  0.1814  0.5637  0.1470
  628MOL0     C84657   2.210   0.581  10.164 -0.0922 -0.0028  0.8062
  628MOL0     C84658   2.092   0.613  10.068  1.0375  0.0569 -0.4119
  628MOL0     C84659   1.956   0.629  10.142  0.4532  0.4686  0.8494
  628MOL0     C84660   1.837   0.669  10.057 -1.0365 -0.4178  0.8014
  628MOL0     C84661   1.714   0.708  10.140  0.1691 -0.0625 -0.2553
  628MOL0     N84662   1.587   0.698  10.071  0.2449 -0.9348 -0.1535
  628MOL0     C84663   1.524   0.585  10.030  0.7994 -0.1519  0.2570
  628MOL0     C84664   1.404   0.629   9.976 -0.1121 -0.3706 -0.4773
  628MOL0     C84665   1.288   0.544   9.936  0.0273 -0.0144  0.2404
  628MOL0     C84666   1.173   0.561  10.033 -0.2037 -1.2105 -0.6055
  628MOL0     C84667   1.068   0.664   9.991  0.8085  0.0213 -0.1882
  628MOL0     C84668   0.966   0.610   9.894 -0.1934 -0.1409  0.1256
  628MOL0     O84669   0.869   0.712   9.884  0.8847  0.3392  0.2781
  628MOL0     C84670   0.752   0.682   9.813 -0.0283 -0.4459 -0.5797
  628MOL0     C84671   0.730   0.561   9.742 -0.8014 -0.0306  0.3568
  628MOL0     C84672   0.630   0.536   9.651  0.0454  0.8582  0.2923
  628MOL0     C84673   0.622   0.395   9.592  0.4185  0.3155 -0.2759
  628MOL0     C84674   0.527   0.630   9.648 -0.8370  0.8257 -0.7216
  628MOL0     C84675   0.414   0.617   9.559  0.4851  0.3475 -0.2475
  628MOL0     O84676   0.292   0.660   9.596 -0.3220 -0.5789  0.5080
  628MOL0     C84677   0.191   0.643   9.514 -0.0827 -0.2591 -0.4215
  628MOL0     C84678   0.171   0.723   9.402  0.7964 -0.4622 -0.1092
  628MOL0     C84679   0.058   0.712   9.322  0.2075  0.3239 -0.2952
  628MOL0     C84680  -0.041   0.619   9.359 -1.2505 -0.2495 -0.6830
  628MOL0     O84681  -0.155   0.623   9.281 -0.5141  0.4771 -0.3581
  628MOL0     C84682  -0.219   0.501   9.251 -0.5901 -0.4138 -0.5623
  628MOL0     C84683  -0.307   0.511   9.125  0.4451 -0.2463 -0.3008
  628MOL0     C84684  -0.348   0.367   9.065 -0.5879 -0.7705 -0.3711
  628MOL0     C84685  -0.474   0.381   8.983 -1.0697  0.4451  0.4173
  628MOL0     C84686  -0.543   0.237   8.975 -1.2277  0.4861  0.0684
  628MOL0     C84687  -0.460   0.137   8.893 -0.2536  0.3499 -0.2399
  628MOL0     C84688  -0.524  -0.005   8.874 -0.7008 -0.4072  0.1149
  628MOL0     C84689  -0.425  -0.106   8.912 -0.4071  1.1089  0.1306
  628MOL0    Cl84690  -0.390  -0.088   9.090  0.3233  0.4972 -0.5476
  628MOL0     C84691  -0.018   0.529   9.465  0.4538  0.1651  0.0987
  628MOL0     C84692   0.097   0.536   9.540  0.4624 -0.8298  0.4555
  628MOL0     O84693   0.438   0.556   9.455 -0.1059 -0.3103 -0.0687
  628MOL0     C84694   0.542   0.747   9.725  0.8964  0.4085 -0.1768
  628MOL0     C84695   0.651   0.776   9.805  0.2023  0.6465  0.2288
  628MOL0     N84696   1.413   0.768   9.969  0.1990 -0.2168  0.8134
  628MOL0     N84697   1.522   0.807  10.023  0.7255 -0.2118 -0.0655
  628MOL0     C84698   2.768   0.735  10.174  0.0827  0.2592 -0.1497
  628MOL0     C84699   2.896   0.762  10.240 -0.3999  0.6410  0.7263
  628MOL0     C84700   3.319   0.792  10.351 -0.3550 -0.9645  0.4736
  628MOL0     C84701   3.368   0.745  10.471  0.5314  0.3719  0.8868
  628MOL0     C84702   3.488   0.801  10.526 -0.3070  0.1251 -0.1758
  628MOL0     C84703   3.558   0.907  10.461 -0.4386  0.8458  0.3619
  628MOL0     O84704   3.680   0.953  10.515  0.0686  0.4610 -0.4621
  628MOL0     C84705   3.782   0.961  10.414  0.0374 -0.3244 -0.0045
  628MOL0     C84706   3.901   1.002  10.501  0.0120  0.4451  0.1523
  628MOL0     C84707   4.028   1.006  10.415 -0.7345  0.4262  0.0324
  628MOL0     C84708   4.153   1.018  10.495 -0.6071  0.6286  0.7321
  628MOL0     C84709   4.186   1.145  10.554 -0.2022  0.5412 -0.3660
  628MOL0     C84710   4.227   1.253  10.595  1.1322  0.2306 -0.3069
  628MOL0     C84711   3.506   0.947  10.336 -0.6141 -0.2352 -0.1940
  628MOL0     C84712   3.388   0.892  10.286 -0.4127 -0.3795 -0.4096
  628MOL0     H84713   3.052   0.851   9.943  1.8156 -0.3203 -0.4208
  628MOL0     H84714   2.846   0.787   9.854 -0.8820 -3.2337  0.3111
  628MOL0     H84715   2.543   0.571   9.886  0.5453  2.6597  0.1051
  628MOL0     H84716   2.606   0.545  10.052  2.8738 -0.2037 -0.9813
  628MOL0     H84717   2.453   0.721  10.138  1.0704 -2.8076  1.7073
  628MOL0     H84718   2.374   0.723   9.976  0.4429  0.1230  0.5593
  628MOL0     H84719   2.334   0.461  10.038 -1.1438 -0.4204  1.5328
  628MOL0     H84720   2.405   0.509  10.194 -0.1148  2.9326  1.3920
  628MOL0     H84721   2.185   0.495  10.227  1.3018  1.1373  3.0474
  628MOL0     H84722   2.221   0.661  10.237  2.9223  0.8372 -0.4094
  628MOL0     H84723   2.109   0.710  10.020  1.3180  1.0471  1.6099
  628MOL0     H84724   2.082   0.540   9.987  1.8300  1.5675 -1.9492
  628MOL0     H84725   1.934   0.526  10.172 -2.1531 -0.0626 -2.2536
  628MOL0     H84726   1.968   0.698  10.226 -0.5740 -0.7541  2.0468
  628MOL0     H84727   1.866   0.755   9.996 -0.2902 -1.9339 -1.0906
  628MOL0     H84728   1.822   0.588   9.985  0.0845  0.5896 -0.6242
  628MOL0     H84729   1.730   0.813  10.167 -2.6892  0.0133  1.5720
  628MOL0     H84730   1.713   0.650  10.233 -0.3783  1.3729  0.6619
  628MOL0     H84731   1.535   0.478  10.049 -2.8119 -0.8381 -0.6823
  628MOL0     H84732   1.251   0.566   9.835  0.5340  0.2388  0.1070
  628MOL0     H84733   1.318   0.439   9.927  1.8018  0.5646 -1.2681
  628MOL0     H84734   1.216   0.584  10.131  2.0677 -1.4604 -1.4916
  628MOL0     H84735   1.123   0.465  10.050 -0.7130 -0.8629 -0.0759
  628MOL0     H84736   1.120   0.743   9.937 -1.0531  1.0591 -0.5383
  628MOL0     H84737   1.009   0.703  10.074 -1.6625 -0.4397 -1.6579
  628MOL0     H84738   0.924   0.519   9.938  0.8239 -1.4224 -1.4173
  628MOL0     H84739   1.013   0.575   9.801  0.7598  1.2574  0.0572
  628MOL0     H84740   0.808   0.487   9.757 -0.8021 -0.0233  0.3942
  628MOL0     H84741   0.532   0.348   9.633 -0.0650 -0.0990 -1.7769
  628MOL0     H84742   0.615   0.396   9.483  0.0043 -0.0808 -0.2562
  628MOL0     H84743   0.708   0.330   9.611 -0.3285 -0.4698  0.5305
  628MOL0     H84744   0.247   0.791   9.364  0.6494 -1.7679 -3.0065
  628MOL0     H84745   0.039   0.774   9.235  0.2450  1.4769  0.4848
  628MOL0     H84746  -0.138   0.432   9.229 -0.9769 -0.4070 -2.0966
  628MOL0     H84747  -0.278   0.482   9.341 -1.4551 -1.8728 -1.4045
  628MOL0     H84748  -0.396   0.571   9.145  1.1449  0.5500  0.5214
  628MOL0     H84749  -0.251   0.554   9.042  1.7170 -0.5944  0.3405
  628MOL0     H84750  -0.378   0.307   9.152 -2.9816  1.2791  0.3231
  628MOL0     H84751  -0.270   0.315   9.008 -0.1327 -3.6826  2.5650
  628MOL0     H84752  -0.545   0.451   9.027 -3.6159 -0.7381 -1.5750
  628MOL0     H84753  -0.451   0.407   8.879 -0.1160  2.5337  1.0881
  628MOL0     H84754  -0.643   0.235   8.930 -1.8432  0.6255  1.3844
  628MOL0     H84755  -0.551   0.199   9.077  0.5913 -1.3134 -0.3820
  628MOL0     H84756  -0.438   0.176   8.793 -1.0012 -1.2624 -1.0538
  628MOL0     H84757  -0.367   0.123   8.950 -1.3177 -1.5085  1.1729
  628MOL0     H84758  -0.554  -0.013   8.769  2.1672  0.5594 -0.8594
  628MOL0     H84759  -0.610  -0.011   8.942 -1.4902  0.8690 -0.7258
  628MOL0     H84760  -0.331  -0.093   8.858 -0.1547  0.0074  0.2692
  628MOL0     H84761  -0.477  -0.200   8.891 -2.1890  2.5393 -2.5566
  628MOL0     H84762  -0.094   0.454   9.488  0.3001 -0.6576 -2.7392
  628MOL0     H84763   0.110   0.470   9.625 -1.1664 -1.4427  0.2542
  628MOL0     H84764   0.464   0.822   9.729  1.9413  1.5252 -0.4225
  628MOL0     H84765   0.665   0.872   9.852  0.4699  0.2743  0.9254
  628MOL0     H84766   2.684   0.714  10.239 -1.0409  1.5408 -1.1285
  628MOL0     H84767   2.905   0.772  10.347 -2.8693 -0.3432  1.0911
  628MOL0     H84768   3.327   0.662  10.527  3.7899  0.3352  3.4892
  628MOL0     H84769   3.531   0.754  10.614 -3.0862 -5.1201 -1.2278
  628MOL0     H84770   3.800   0.864  10.368  1.0404 -1.4089  2.5243
  628MOL0     H84771   3.755   1.037  10.340 -0.8140  0.5952  1.1994
  628MOL0     H84772   3.917   0.923  10.576 -3.6361 -1.6919 -1.0306
  628MOL0     H84773   3.879   1.099  10.546 -0.3372  0.6960 -0.5538
  628MOL0     H84774   4.028   1.086  10.341 -3.0086  1.7461  1.3324
  628MOL0     H84775   4.030   0.906  10.371 -1.1135  0.5720 -0.3305
  628MOL0     H84776   4.237   0.981  10.435 -0.3072 -0.4801  1.7916
  628MOL0     H84777   4.153   0.948  10.579  1.9879  1.2246  1.3164
  628MOL0     H84778   4.266   1.347  10.630 -0.9130  1.2989 -0.7558
  628MOL0     H84779   3.561   1.017  10.274  2.0506 -1.9643  0.0845
  628MOL0     H84780   3.346   0.934  10.196 -0.5594  3.6568  1.3134
  629MOL0     O84781   7.568   8.008   7.460 -0.4039  0.1504 -0.0509
  629MOL0     C84782   7.554   7.995   7.582  0.7159 -0.4980  0.2423
  629MOL0     O84783   7.440   7.986   7.649 -0.6698 -0.1352  0.3555
  629MOL0     C84784   7.325   7.990   7.579 -0.5301 -0.1305  0.7600
  629MOL0     C84785   7.258   8.114   7.583  0.0182  0.2135 -0.6443
  629MOL0     C84786   7.121   8.122   7.538 -0.8069  0.1864 -0.3352
  629MOL0     C84787   7.057   8.016   7.490  0.3858  0.3950  0.0554
  629MOL0     O84788   6.923   8.026   7.458 -0.6760 -0.0478 -0.2651
  629MOL0     C84789   6.836   7.919   7.510 -0.3411 -0.2428  1.0631
  629MOL0     C84790   6.697   7.942   7.449  0.4959  0.4763  0.3082
  629MOL0     C84791   6.697   7.943   7.308  0.5542 -0.2874  0.4964
  629MOL0     C84792   6.562   7.949   7.243 -0.4814  0.1591 -0.2297
  629MOL0     C84793   6.566   7.993   7.095  0.4297 -0.2501  0.2003
  629MOL0     C84794   6.421   7.985   7.035  0.5002  0.4962  0.8497
  629MOL0     C84795   6.422   8.038   6.891 -0.7382 -0.7604  0.5566
  629MOL0     C84796   6.281   8.043   6.828  0.7157 -0.9516 -0.0914
  629MOL0     N84797   6.230   8.180   6.831  0.4213  0.3804  0.3240
  629MOL0     C84798   6.165   8.236   6.943 -0.2753 -0.2353  0.2326
  629MOL0     C84799   6.125   8.356   6.897 -0.3978 -0.4526 -0.0132
  629MOL0     C84800   6.057   8.464   6.980 -0.8087  0.5487 -0.0205
  629MOL0     C84801   5.946   8.534   6.904 -0.7667  0.1367  0.4779
  629MOL0     C84802   5.850   8.625   6.990 -1.1133  0.1639  0.0077
  629MOL0     C84803   5.703   8.584   6.969 -0.2364  0.3978 -0.6788
  629MOL0     O84804   5.661   8.571   6.837  0.7588  0.0467  0.2997
  629MOL0     C84805   5.542   8.513   6.809  0.1785 -0.1797  0.3372
  629MOL0     C84806   5.518   8.475   6.676 -0.1368 -0.7826 -0.5141
  629MOL0     C84807   5.394   8.421   6.643 -0.3756  0.0423 -0.5821
  629MOL0     C84808   5.366   8.406   6.499  0.0277  0.2368 -0.2980
  629MOL0     C84809   5.290   8.394   6.741  0.4631 -0.8821  0.9733
  629MOL0     C84810   5.152   8.336   6.715  0.2598  0.2474 -0.3060
  629MOL0     O84811   5.122   8.327   6.587  0.2693 -0.0186  0.0438
  629MOL0     C84812   4.995   8.287   6.555  0.4992 -0.5719 -0.4996
  629MOL0     C84813   4.972   8.175   6.482 -0.6095 -0.4777  0.0611
  629MOL0     C84814   4.846   8.140   6.443  0.1147 -0.2902 -0.4419
  629MOL0     C84815   4.735   8.207   6.488  0.2004 -0.4046 -0.4980
  629MOL0     O84816   4.601   8.170   6.449  0.0622  0.0049 -0.0517
  629MOL0     C84817   4.582   8.057   6.362  0.0106  0.5554 -1.6840
  629MOL0     C84818   4.433   8.018   6.353  0.6310 -0.2235  0.0879
  629MOL0     C84819   4.368   7.969   6.480  0.2013 -1.0567 -0.0098
  629MOL0     C84820   4.221   7.931   6.463 -0.3972  0.0060 -0.9647
  629MOL0     C84821   4.189   7.857   6.601  0.2124 -0.3632  0.3152
  629MOL0     C84822   4.036   7.860   6.615 -0.8403 -0.4779 -0.0981
  629MOL0     C84823   3.989   7.795   6.750 -0.1019  0.3269 -0.2106
  629MOL0     C84824   3.837   7.792   6.757 -0.3918  1.1767  0.3180
  629MOL0    Cl84825   3.769   7.634   6.691  0.3517  0.0347  0.2526
  629MOL0     C84826   4.748   8.327   6.562 -0.8866 -0.3345 -0.0709
  629MOL0     C84827   4.880   8.363   6.594 -0.4317 -0.2028  0.0192
  629MOL0     O84828   5.074   8.299   6.809  0.0395  0.7414  0.5468
  629MOL0     C84829   5.323   8.425   6.877  0.6339  0.3000  0.2194
  629MOL0     C84830   5.445   8.488   6.909  0.7438 -0.6970  0.0738
  629MOL0     N84831   6.184   8.372   6.773 -0.1025 -0.1809  0.7414
  629MOL0     N84832   6.241   8.271   6.728  0.0264  0.5791 -0.0916
  629MOL0     C84833   7.125   7.894   7.488  0.0335 -0.0119  0.1496
  629MOL0     C84834   7.260   7.877   7.523 -0.3557  0.0262 -0.7444
  629MOL0     C84835   7.680   7.992   7.668  0.5080  0.1065  0.1726
  629MOL0     C84836   7.802   7.962   7.614 -0.1520  0.8451 -0.3049
  629MOL0     C84837   7.917   7.956   7.697  0.1243 -0.2505  0.6141
  629MOL0     C84838   7.908   7.975   7.830 -0.0381  0.1141  0.2970
  629MOL0     O84839   8.008   7.968   7.924  0.0296  0.6401  0.2204
  629MOL0     C84840   8.125   7.909   7.874 -0.7561 -0.1549  0.1393
  629MOL0     C84841   8.200   7.850   7.994  0.5704  0.7228 -0.1910
  629MOL0     C84842   8.342   7.807   7.951 -0.6835  0.6149 -0.7395
  629MOL0     C84843   8.423   7.754   8.073 -0.1676  0.2243 -0.5290
  629MOL0     C84844   8.563   7.723   8.043 -0.3069 -1.4803  0.4428
  629MOL0     C84845   8.677   7.703   8.015 -0.6168 -0.0991  0.3363
  629MOL0     C84846   7.785   8.017   7.886 -0.0558 -0.2240  0.5514
  629MOL0     C84847   7.669   8.024   7.803 -0.1332 -0.1385  0.2089
  629MOL0     H84848   7.300   8.195   7.642 -0.9591  0.2343  0.0630
  629MOL0     H84849   7.059   8.211   7.549 -2.2943 -0.7273 -1.1213
  629MOL0     H84850   6.868   7.821   7.473  1.1672 -0.1143  1.9305
  629MOL0     H84851   6.838   7.921   7.619  5.0453  0.9358  1.2315
  629MOL0     H84852   6.634   7.860   7.484  0.9008 -1.0089 -2.2532
  629MOL0     H84853   6.669   8.040   7.491 -2.3268  0.0479 -0.3514
  629MOL0     H84854   6.750   8.037   7.286  1.1350 -0.8561 -0.6467
  629MOL0     H84855   6.757   7.859   7.270  1.1722  0.2621  0.2248
  629MOL0     H84856   6.514   7.851   7.250  3.2624 -1.8487 -0.3199
  629MOL0     H84857   6.514   8.029   7.300  3.9214  1.1987  2.5199
  629MOL0     H84858   6.592   8.099   7.081  1.1019 -0.4874 -0.4586
  629MOL0     H84859   6.633   7.922   7.045  0.9948  0.6010 -0.2946
  629MOL0     H84860   6.381   7.884   7.045 -0.8799  0.8694 -0.5181
  629MOL0     H84861   6.358   8.051   7.095  3.8451  3.0804  1.8042
  629MOL0     H84862   6.474   8.132   6.868 -1.8730 -0.2486  0.0508
  629MOL0     H84863   6.481   7.969   6.830 -1.3213  0.4331 -1.4192
  629MOL0     H84864   6.211   7.973   6.874 -1.5374 -0.1063 -2.0854
  629MOL0     H84865   6.282   8.027   6.720  0.3634  2.2012 -0.6609
  629MOL0     H84866   6.138   8.189   7.037 -1.2687 -1.5741 -0.6845
  629MOL0     H84867   6.015   8.424   7.073  0.2001  0.0725  0.2495
  629MOL0     H84868   6.139   8.531   7.010 -0.9088  0.3475  0.7365
  629MOL0     H84869   5.887   8.469   6.840 -0.9847  0.3900  0.4219
  629MOL0     H84870   5.994   8.612   6.844 -3.2290  0.5532 -1.0701
  629MOL0     H84871   5.842   8.726   6.950 -4.3778  0.2711  0.6423
  629MOL0     H84872   5.877   8.626   7.096 -1.0809  0.0393  0.0018
  629MOL0     H84873   5.632   8.645   7.026 -0.8313  0.1774 -1.1630
  629MOL0     H84874   5.692   8.482   7.006  0.0790  0.4025 -0.5711
  629MOL0     H84875   5.595   8.497   6.602  0.7001 -1.6581  0.0736
  629MOL0     H84876   5.459   8.433   6.449  0.0360 -1.1992 -1.1244
  629MOL0     H84877   5.335   8.306   6.466 -3.2297  1.3235 -0.9078
  629MOL0     H84878   5.288   8.469   6.456 -0.3973 -0.8207 -1.1383
  629MOL0     H84879   5.054   8.120   6.437  2.2905  2.2508  1.5998
  629MOL0     H84880   4.829   8.053   6.379  1.0226 -0.6205 -0.2438
  629MOL0     H84881   4.616   8.083   6.262 -1.7839 -0.4648 -2.6170
  629MOL0     H84882   4.634   7.967   6.398  0.1299  0.8260 -1.1716
  629MOL0     H84883   4.382   8.111   6.323  2.5003  0.3553 -1.5182
  629MOL0     H84884   4.423   7.947   6.270  0.4783  1.2762 -1.2290
  629MOL0     H84885   4.382   8.047   6.555 -0.1205 -1.8265  0.8712
  629MOL0     H84886   4.422   7.879   6.512 -0.9655 -2.1746 -1.0454
  629MOL0     H84887   4.156   8.016   6.441 -0.1862  0.8627  1.4841
  629MOL0     H84888   4.199   7.858   6.384  0.0660 -0.0343 -1.0572
  629MOL0     H84889   4.232   7.904   6.689 -0.2431 -0.2291  0.4677
  629MOL0     H84890   4.235   7.758   6.601  1.9654  0.3960  1.9526
  629MOL0     H84891   3.999   7.961   6.601  0.0709 -0.3767 -2.0704
  629MOL0     H84892   4.008   7.796   6.531  0.6541 -0.7073 -0.4591
  629MOL0     H84893   4.037   7.865   6.819  2.1219 -1.4774  0.2061
  629MOL0     H84894   4.028   7.694   6.763 -1.1572  0.0278  0.7534
  629MOL0     H84895   3.784   7.878   6.715 -1.3597 -0.7341 -2.7014
  629MOL0     H84896   3.809   7.785   6.862  1.6156 -0.4501  0.8009
  629MOL0     H84897   4.662   8.389   6.585  0.6771  2.0639 -0.4045
  629MOL0     H84898   4.896   8.456   6.649  0.4687 -0.2489 -0.1505
  629MOL0     H84899   5.253   8.412   6.959 -0.6719  1.6899 -0.6183
  629MOL0     H84900   5.457   8.524   7.011 -0.1462  2.0979 -0.7153
  629MOL0     H84901   7.081   7.800   7.456 -1.4268  0.5012  0.5949
  629MOL0     H84902   7.299   7.776   7.522 -1.3178 -0.4224 -3.7623
  629MOL0     H84903   7.806   7.922   7.514 -1.3048 -1.0559  0.3480
  629MOL0     H84904   8.010   7.928   7.648 -0.1390  2.3912 -1.7124
  629MOL0     H84905   8.110   7.820   7.812 -0.8655  0.8207 -1.2910
  629MOL0     H84906   8.174   7.983   7.810  1.6261 -0.4634  1.4886
  629MOL0     H84907   8.139   7.769   8.034 -0.4944  1.0072 -1.1868
  629MOL0     H84908   8.209   7.930   8.067 -0.9936  0.5746  0.1975
  629MOL0     H84909   8.396   7.895   7.913 -1.2960  1.5968  0.5697
  629MOL0     H84910   8.354   7.736   7.868  1.2481 -0.5788  0.4866
  629MOL0     H84911   8.373   7.661   8.101 -2.7884  1.4263 -0.9375
  629MOL0     H84912   8.416   7.829   8.153 -0.5687  0.0464 -0.3943
  629MOL0     H84913   8.777   7.695   7.976 -1.2114  0.4078 -1.3850
  629MOL0     H84914   7.780   8.050   7.989  2.3184 -0.1532  0.6982
  629MOL0     H84915   7.574   8.053   7.849  0.0434 -0.1592  0.5930
  630MOL0     O84916   0.431   7.758   7.246 -0.9985  0.0077 -0.5142
  630MOL0     C84917   0.498   7.657   7.236 -0.0176  0.3769 -0.1239
  630MOL0     O84918   0.443   7.531   7.195  0.1023 -0.2235  0.6463
  630MOL0     C84919   0.311   7.524   7.163  0.7803 -0.1049 -0.3355
  630MOL0     C84920   0.211   7.564   7.244  0.7237 -0.5107  0.5721
  630MOL0     C84921   0.082   7.537   7.213  0.4245 -0.8709 -0.1250
  630MOL0     C84922   0.043   7.483   7.096 -0.1008 -0.2706  0.3246
  630MOL0     O84923  -0.092   7.470   7.082 -0.0879  0.7600 -0.7392
  630MOL0     C84924  -0.138   7.384   6.980  0.3283 -0.0046 -0.1810
  630MOL0     C84925  -0.287   7.413   6.979  0.4359  0.5765 -0.2712
  630MOL0     C84926  -0.361   7.326   6.873  0.8446 -0.1497 -0.5391
  630MOL0     C84927  -0.487   7.378   6.805  0.5179  0.3781  0.3115
  630MOL0     C84928  -0.561   7.265   6.737  0.3639  0.0334  0.0371
  630MOL0     C84929  -0.673   7.306   6.642 -0.1632  0.3363  0.6845
  630MOL0     C84930  -0.765   7.198   6.591  0.4208  0.7203 -0.0445
  630MOL0     C84931  -0.711   7.062   6.557 -0.1266 -0.2258 -0.6666
  630MOL0     N84932  -0.811   6.976   6.489 -0.7526  0.5435  0.4880
  630MOL0     C84933  -0.940   6.961   6.527 -0.7263 -0.5023 -0.7142
  630MOL0     C84934  -1.006   6.875   6.453  0.1300 -0.2688  0.6052
  630MOL0     C84935  -1.158   6.848   6.444 -0.9784 -0.1138 -0.1560
  630MOL0     C84936  -1.247   6.977   6.428  0.0966 -0.5645  0.7970
  630MOL0     C84937  -1.190   7.055   6.312 -0.7412  0.5410  0.2770
  630MOL0     C84938  -1.260   7.186   6.280  0.2280 -0.4164  0.7626
  630MOL0     O84939  -1.402   7.148   6.280 -0.2779 -0.0944  0.9245
  630MOL0     C84940  -1.494   7.242   6.220  0.0834  0.4707  0.4992
  630MOL0     C84941  -1.576   7.312   6.307 -0.1575 -0.6082  0.1620
  630MOL0     C84942  -1.688   7.382   6.253  0.0474 -0.0853  0.8987
  630MOL0     C84943  -1.785   7.439   6.350 -0.5800 -0.1072  0.2114
  630MOL0     C84944  -1.697   7.401   6.113 -0.5254  0.6206 -0.5069
  630MOL0     C84945  -1.790   7.497   6.048  0.2222 -0.1090 -0.3075
  630MOL0     O84946  -1.765   7.530   5.921  0.8619  0.0628  0.4303
  630MOL0     C84947  -1.839   7.633   5.862  0.2337  0.4906  0.5586
  630MOL0     C84948  -1.924   7.590   5.759 -0.1532 -0.0206  0.7258
  630MOL0     C84949  -2.023   7.676   5.699 -0.2402  1.0020 -0.8589
  630MOL0     C84950  -2.026   7.808   5.747  0.2186  0.5213 -0.1151
  630MOL0     O84951  -2.106   7.907   5.694 -0.4556 -0.1903 -0.2142
  630MOL0     C84952  -2.186   7.866   5.586 -0.3524  0.4354 -0.7035
  630MOL0     C84953  -2.243   7.987   5.512 -0.4859 -0.4449  0.1664
  630MOL0     C84954  -2.295   7.931   5.373 -0.0440  0.3805 -0.7282
  630MOL0     C84955  -2.379   8.040   5.313 -0.5117 -0.9013  0.4521
  630MOL0     C84956  -2.421   8.021   5.171 -1.2855 -0.0314  0.4123
  630MOL0     C84957  -2.527   8.131   5.142  1.0803 -0.4773  0.5191
  630MOL0     C84958  -2.617   8.106   5.028  0.0338  0.0188  0.7688
  630MOL0     C84959  -2.733   8.199   5.043  0.2622 -0.0561  0.2507
  630MOL0    Cl84960  -2.850   8.167   4.909 -0.4987  0.2481  0.1824
  630MOL0     C84961  -1.946   7.846   5.851 -0.3962  0.0107  0.3083
  630MOL0     C84962  -1.861   7.766   5.909 -0.1236 -0.2969 -1.1020
  630MOL0     O84963  -1.892   7.536   6.108 -0.0161 -0.9669  0.6638
  630MOL0     C84964  -1.611   7.325   6.029 -0.2259 -0.6758 -0.4503
  630MOL0     C84965  -1.518   7.237   6.086  0.1485 -0.7647  0.9756
  630MOL0     N84966  -0.904   6.814   6.376  0.0409  0.2799  0.4167
  630MOL0     N84967  -0.788   6.865   6.407 -0.5420  0.2282 -0.7743
  630MOL0     C84968   0.141   7.436   7.010  0.1388  0.3626  0.6934
  630MOL0     C84969   0.270   7.455   7.051  0.6775 -0.4277  0.1877
  630MOL0     C84970   0.646   7.662   7.255  0.0295 -0.2178  0.0995
  630MOL0     C84971   0.720   7.542   7.251  0.8895 -0.1610  0.2176
  630MOL0     C84972   0.861   7.554   7.252  0.0982  0.4521  0.3212
  630MOL0     C84973   0.936   7.663   7.292  0.8564 -0.3043 -0.0957
  630MOL0     O84974   1.068   7.641   7.307 -0.1271 -0.6570  0.0779
  630MOL0     C84975   1.160   7.752   7.310  0.7032 -0.1750  1.0304
  630MOL0     C84976   1.298   7.702   7.322 -0.0797  0.6541  0.1018
  630MOL0     C84977   1.341   7.632   7.197  1.2174 -0.4268  1.0115
  630MOL0     C84978   1.494   7.586   7.206  0.2074  0.0221  0.4564
  630MOL0     C84979   1.582   7.700   7.220 -0.7479 -0.3991  0.1116
  630MOL0     C84980   1.679   7.778   7.232  0.4261 -0.8787 -0.6056
  630MOL0     C84981   0.859   7.783   7.304 -0.8518 -0.6685  0.5573
  630MOL0     C84982   0.720   7.783   7.282 -0.5936 -0.2397  0.1537
  630MOL0     H84983   0.239   7.604   7.341 -0.2129  0.4299  0.4745
  630MOL0     H84984   0.011   7.571   7.288  1.5658 -0.3681  0.7584
  630MOL0     H84985  -0.101   7.418   6.882  0.3249  3.1037  0.7829
  630MOL0     H84986  -0.116   7.278   6.994 -0.9493  0.0040  2.3416
  630MOL0     H84987  -0.336   7.395   7.075  2.2563  1.1314  0.8117
  630MOL0     H84988  -0.291   7.518   6.948 -0.1136  0.4108 -0.7832
  630MOL0     H84989  -0.287   7.303   6.795  0.1994 -2.2212 -0.6217
  630MOL0     H84990  -0.384   7.225   6.909 -1.2934 -0.0970 -1.5944
  630MOL0     H84991  -0.558   7.431   6.869  0.1104  0.8231 -0.4940
  630MOL0     H84992  -0.450   7.448   6.728 -0.2071  1.5662  1.0104
  630MOL0     H84993  -0.488   7.205   6.682  0.3254 -1.9545  2.0314
  630MOL0     H84994  -0.604   7.193   6.806 -1.7012  1.7964  0.7106
  630MOL0     H84995  -0.732   7.385   6.689  1.4624  1.8450  0.2831
  630MOL0     H84996  -0.628   7.355   6.555  0.2024  0.3962  0.9053
  630MOL0     H84997  -0.833   7.183   6.675 -1.3132 -0.7647 -1.6180
  630MOL0     H84998  -0.825   7.238   6.508 -0.3210 -1.9034 -0.8938
  630MOL0     H84999  -0.682   7.029   6.657 -2.6927 -0.6926 -0.0042
  630MOL0     H85000  -0.621   7.060   6.495  1.5384 -4.8384  1.4596
  630MOL0     H85001  -0.988   7.023   6.603  0.0696  0.6041 -1.0924
  630MOL0     H85002  -1.177   6.781   6.359  1.1456  1.0842 -1.6711
  630MOL0     H85003  -1.188   6.798   6.536  4.2499 -1.6460  1.0380
  630MOL0     H85004  -1.241   7.021   6.528  0.1515 -1.4250  1.1786
  630MOL0     H85005  -1.346   6.940   6.399 -0.3405  0.1170  1.4009
  630MOL0     H85006  -1.197   6.990   6.223 -3.5541  0.6021  0.3630
  630MOL0     H85007  -1.089   7.087   6.336 -0.5224  0.6223 -0.7195
  630MOL0     H85008  -1.226   7.219   6.181 -2.1387 -1.2339 -0.4129
  630MOL0     H85009  -1.235   7.264   6.352 -4.0438  1.7733  0.2081
  630MOL0     H85010  -1.539   7.303   6.408  0.6034  0.0802 -0.0470
  630MOL0     H85011  -1.755   7.404   6.449  2.0451  0.3439 -0.3314
  630MOL0     H85012  -1.799   7.547   6.360 -3.1816 -0.2416 -1.0852
  630MOL0     H85013  -1.883   7.402   6.319 -1.5257  1.4071  1.2272
  630MOL0     H85014  -1.921   7.486   5.729  0.5444  0.2547 -0.1934
  630MOL0     H85015  -2.088   7.641   5.619 -2.1877  2.8153 -0.1641
  630MOL0     H85016  -2.132   7.797   5.521 -0.6947  0.1623 -0.7017
  630MOL0     H85017  -2.263   7.806   5.636  1.8105  0.2812  2.8293
  630MOL0     H85018  -2.326   8.025   5.571 -0.2326 -0.6351  0.6520
  630MOL0     H85019  -2.159   8.054   5.492  1.1969 -2.8375 -1.3686
  630MOL0     H85020  -2.358   7.843   5.363  0.3047  0.3064 -2.5946
  630MOL0     H85021  -2.210   7.905   5.309 -0.0565  1.9773 -1.4411
  630MOL0     H85022  -2.465   8.052   5.380 -2.4179  1.8523 -2.2389
  630MOL0     H85023  -2.323   8.134   5.318  0.8038 -1.6962  1.1627
  630MOL0     H85024  -2.462   7.920   5.161  1.7032 -1.4501  1.4485
  630MOL0     H85025  -2.330   8.037   5.114  0.0165 -2.7617  1.5513
  630MOL0     H85026  -2.596   8.118   5.226 -0.9856  0.7072 -0.8904
  630MOL0     H85027  -2.485   8.232   5.145  3.0925 -1.1231 -1.9971
  630MOL0     H85028  -2.648   8.001   5.020 -3.0940  0.8954  0.4601
  630MOL0     H85029  -2.565   8.138   4.937  0.8468 -0.2210  1.1378
  630MOL0     H85030  -2.696   8.301   5.032  1.1071 -0.4406 -0.6075
  630MOL0     H85031  -2.788   8.195   5.138 -1.0465 -0.7060 -0.5093
  630MOL0     H85032  -1.944   7.951   5.877 -2.8279  0.2698 -0.3763
  630MOL0     H85033  -1.812   7.812   5.994 -4.4231  0.8175  1.0615
  630MOL0     H85034  -1.624   7.324   5.921  2.0304  0.8811 -0.7996
  630MOL0     H85035  -1.457   7.178   6.019 -0.2423 -0.6546  0.5161
  630MOL0     H85036   0.115   7.387   6.916  0.2606 -0.6854  1.1893
  630MOL0     H85037   0.353   7.413   6.995  1.4702  1.0718  0.1844
  630MOL0     H85038   0.666   7.449   7.239  0.2417  0.0963  1.0754
  630MOL0     H85039   0.905   7.456   7.240 -0.6775  0.3371 -2.3710
  630MOL0     H85040   1.151   7.829   7.232  1.7233  1.8652  2.8235
  630MOL0     H85041   1.142   7.806   7.403  2.4340  0.3582  1.0923
  630MOL0     H85042   1.314   7.638   7.409 -3.8938 -3.2449 -1.6496
  630MOL0     H85043   1.364   7.786   7.345  0.9643  0.1418 -0.9150
  630MOL0     H85044   1.328   7.703   7.115 -0.6740 -0.0398  1.5978
  630MOL0     H85045   1.270   7.553   7.172 -0.3138  0.9847  0.6477
  630MOL0     H85046   1.513   7.546   7.106  0.1352  3.4588 -1.0826
  630MOL0     H85047   1.515   7.506   7.278  2.8727 -0.0795 -0.3360
  630MOL0     H85048   1.750   7.858   7.226  1.2424 -1.6068 -1.0258
  630MOL0     H85049   0.911   7.879   7.309 -2.4767  0.4897 -2.4272
  630MOL0     H85050   0.662   7.874   7.275  0.4248  0.4592  0.5992
  631MOL0     O85051   4.860   7.131  11.029 -0.7526  0.4424 -0.1625
  631MOL0     C85052   4.883   7.201  11.126 -0.4992  0.3697  0.2516
  631MOL0     O85053   4.803   7.216  11.235  0.3625  0.4440 -0.2783
  631MOL0     C85054   4.681   7.163  11.242  0.1843 -0.1462  0.8546
  631MOL0     C85055   4.570   7.173  11.147  0.3827 -0.1171 -0.5051
  631MOL0     C85056   4.449   7.107  11.168 -0.0514 -0.0041 -0.2057
  631MOL0     C85057   4.426   7.035  11.278  0.5128  0.1964 -0.7838
  631MOL0     O85058   4.318   6.956  11.284 -0.2350  0.0575 -0.4276
  631MOL0     C85059   4.188   7.012  11.257 -0.1248  0.1017 -0.7844
  631MOL0     C85060   4.080   6.911  11.311 -1.2305 -0.0447  0.1507
  631MOL0     C85061   4.070   6.787  11.223 -0.6833 -0.4359 -0.6757
  631MOL0     C85062   3.930   6.714  11.240 -0.1208 -0.5222  1.2113
  631MOL0     C85063   3.905   6.608  11.134 -0.5961  0.0556 -0.4958
  631MOL0     C85064   3.788   6.523  11.174 -0.0937  0.5985 -0.3586
  631MOL0     C85065   3.822   6.438  11.300 -0.0343  0.0052 -0.5502
  631MOL0     C85066   3.721   6.327  11.318  0.6895 -0.1567 -0.5855
  631MOL0     N85067   3.578   6.371  11.334  0.4881  0.1738 -0.3168
  631MOL0     C85068   3.470   6.285  11.339  0.6786 -1.1908 -0.5013
  631MOL0     C85069   3.366   6.380  11.348 -0.4259  0.0654  0.0915
  631MOL0     C85070   3.217   6.352  11.373  0.2164 -0.7561 -0.3130
  631MOL0     C85071   3.148   6.291  11.246 -1.0266  0.1835 -0.4988
  631MOL0     C85072   3.028   6.192  11.265  0.3071 -0.0201  0.5257
  631MOL0     C85073   2.913   6.241  11.360 -0.6651  0.9699 -0.0898
  631MOL0     O85074   2.859   6.362  11.306 -0.5319 -0.1250  0.6567
  631MOL0     C85075   2.758   6.416  11.370  0.0101 -0.5265  0.6795
  631MOL0     C85076   2.733   6.420  11.508  0.0325  1.1756 -0.0064
  631MOL0     C85077   2.627   6.494  11.564  0.3045  0.3017 -0.0135
  631MOL0     C85078   2.611   6.496  11.713  0.3935  0.0908 -0.0112
  631MOL0     C85079   2.555   6.584  11.483  0.3767  0.4728  0.3757
  631MOL0     C85080   2.445   6.666  11.535  0.9724 -0.4693  0.1431
  631MOL0     O85081   2.380   6.636  11.650 -0.1483  0.9258  0.7970
  631MOL0     C85082   2.260   6.689  11.679  0.2285 -0.5338 -0.2410
  631MOL0     C85083   2.244   6.802  11.758  0.2974  0.7904 -0.0990
  631MOL0     C85084   2.119   6.855  11.783  0.9626  0.4063  0.5943
  631MOL0     C85085   2.003   6.793  11.727  0.0877 -0.2794 -1.2221
  631MOL0     O85086   1.894   6.871  11.741  0.3850  0.1981  0.0375
  631MOL0     C85087   1.771   6.820  11.679 -0.2074 -0.5938  0.8264
  631MOL0     C85088   1.652   6.904  11.721 -0.3798 -0.0776 -0.0067
  631MOL0     C85089   1.615   6.874  11.869 -0.6539  0.5409 -0.0145
  631MOL0     C85090   1.502   6.943  11.932  0.3038 -0.4173 -0.2901
  631MOL0     C85091   1.472   6.905  12.069 -0.8310 -0.7666  0.0523
  631MOL0     C85092   1.327   6.945  12.107 -0.9927 -0.1252  0.9176
  631MOL0     C85093   1.288   6.920  12.252  0.4483 -0.3611  0.0617
  631MOL0     C85094   1.282   6.772  12.296 -0.3086  0.1333  0.4395
  631MOL0    Cl85095   1.174   6.768  12.439  0.2200  0.0631  0.1248
  631MOL0     C85096   2.019   6.674  11.660  0.8042  0.0017  0.0563
  631MOL0     C85097   2.149   6.619  11.638  0.2554  1.0832  0.1370
  631MOL0     O85098   2.413   6.770  11.466  0.7340  0.4363  0.8057
  631MOL0     C85099   2.575   6.581  11.344 -0.2534  0.1391 -0.5476
  631MOL0     C85100   2.677   6.503  11.290 -1.2111 -0.1031  0.6603
  631MOL0     N85101   3.417   6.508  11.352  0.4840 -0.3762 -0.4591
  631MOL0     N85102   3.544   6.496  11.338  0.2831  0.7754 -0.7726
  631MOL0     C85103   4.521   7.041  11.380  0.5498 -0.5720 -0.2650
  631MOL0     C85104   4.639   7.105  11.362  0.3615 -0.2364 -0.6505
  631MOL0     C85105   5.009   7.273  11.134  0.7174  0.3382  0.7386
  631MOL0     C85106   5.049   7.342  11.256 -0.5426 -0.2004  0.8097
  631MOL0     C85107   5.174   7.411  11.262  0.2050  0.2643 -0.0236
  631MOL0     C85108   5.267   7.397  11.160 -1.0168  0.3413  0.2482
  631MOL0     O85109   5.388   7.458  11.146 -0.5743  0.0249 -0.2612
  631MOL0     C85110   5.419   7.572  11.234  0.4261  0.2968  0.0670
  631MOL0     C85111   5.538   7.656  11.203  0.3110 -0.0386  1.1323
  631MOL0     C85112   5.564   7.672  11.052  0.7847 -0.7509 -0.5696
  631MOL0     C85113   5.675   7.775  11.021 -0.1009  0.3293  0.3385
  631MOL0     C85114   5.624   7.909  11.048  0.3106 -0.2532  0.0008
  631MOL0     C85115   5.593   8.027  11.050 -1.0578  0.4056 -0.6443
  631MOL0     C85116   5.227   7.325  11.043 -0.2953 -0.0162 -0.2088
  631MOL0     C85117   5.097   7.268  11.028  1.3104 -0.2633  0.2762
  631MOL0     H85118   4.574   7.242  11.064  0.9868 -0.2338 -0.5774
  631MOL0     H85119   4.371   7.104  11.093 -0.2367 -1.2554  0.0133
  631MOL0     H85120   4.169   7.108  11.305  0.8043  0.0526 -0.3016
  631MOL0     H85121   4.171   7.019  11.149 -0.8616  0.9708 -0.6278
  631MOL0     H85122   4.112   6.884  11.412 -2.4680 -1.0614  0.2920
  631MOL0     H85123   3.985   6.963  11.326  0.8983  3.3378  3.8443
  631MOL0     H85124   4.083   6.811  11.117  0.5777  0.5192 -0.3308
  631MOL0     H85125   4.155   6.726  11.256  0.5129  0.9993 -0.9526
  631MOL0     H85126   3.938   6.666  11.338  0.5434  0.6632  1.7530
  631MOL0     H85127   3.849   6.788  11.238  0.9952  0.7154 -0.1120
  631MOL0     H85128   3.883   6.650  11.035  2.1216  0.5453 -0.9830
  631MOL0     H85129   3.999   6.552  11.127 -1.5444 -1.6628  0.0895
  631MOL0     H85130   3.701   6.588  11.184 -1.3387 -0.9437 -0.5789
  631MOL0     H85131   3.762   6.463  11.085  2.5000  1.9904 -2.1865
  631MOL0     H85132   3.924   6.400  11.291 -0.2136 -0.9007  0.9905
  631MOL0     H85133   3.823   6.495  11.393  1.1467  1.7944 -1.5960
  631MOL0     H85134   3.754   6.278  11.410  3.1725  1.6029 -0.4481
  631MOL0     H85135   3.712   6.254  11.237 -1.7126  0.2442 -0.7564
  631MOL0     H85136   3.474   6.179  11.316 -0.6586 -0.9556 -1.9533
  631MOL0     H85137   3.227   6.276  11.450  1.4731  1.0494  1.3943
  631MOL0     H85138   3.159   6.434  11.417  2.5636  1.3404 -0.9050
  631MOL0     H85139   3.220   6.241  11.180 -0.1615 -1.0616  1.3008
  631MOL0     H85140   3.111   6.369  11.178  2.0808  0.9283 -1.5211
  631MOL0     H85141   3.053   6.096  11.311  0.0074 -0.6279 -0.5605
  631MOL0     H85142   2.996   6.176  11.162  0.7928  5.6218 -0.8406
  631MOL0     H85143   2.951   6.255  11.462 -0.2445 -3.4507  0.5699
  631MOL0     H85144   2.839   6.160  11.360 -0.3147  0.5553 -2.4185
  631MOL0     H85145   2.792   6.360  11.576 -0.6004  1.2822  0.6461
  631MOL0     H85146   2.524   6.438  11.745  0.4934  1.1977  2.5019
  631MOL0     H85147   2.698   6.451  11.761 -1.3651 -2.8791  0.6265
  631MOL0     H85148   2.611   6.601  11.744  0.9195  0.3299 -0.7771
  631MOL0     H85149   2.327   6.860  11.797 -0.0580 -0.1732  2.2569
  631MOL0     H85150   2.119   6.948  11.838  1.2019  1.4731 -1.1355
  631MOL0     H85151   1.787   6.837  11.572  2.8811 -1.9871  0.9575
  631MOL0     H85152   1.743   6.716  11.696 -1.9072 -0.6082 -1.5041
  631MOL0     H85153   1.668   7.012  11.720 -2.8433  0.3398 -0.0715
  631MOL0     H85154   1.564   6.893  11.658 -1.3613  0.4325  1.2214
  631MOL0     H85155   1.704   6.917  11.918 -3.5490  4.2821  2.5907
  631MOL0     H85156   1.633   6.773  11.907 -4.2176 -0.1215  0.1992
  631MOL0     H85157   1.529   7.049  11.933  0.8722 -0.5205 -1.7536
  631MOL0     H85158   1.414   6.934  11.867  0.5730  0.7961 -0.8605
  631MOL0     H85159   1.548   6.950  12.133  0.1584 -2.1038 -0.1244
  631MOL0     H85160   1.489   6.797  12.077  1.1644 -0.6501 -1.7146
  631MOL0     H85161   1.321   7.052  12.085  0.9368 -0.5472 -2.2924
  631MOL0     H85162   1.258   6.891  12.042  0.2820  0.5624 -1.1249
  631MOL0     H85163   1.189   6.964  12.264  0.7748  0.4815 -0.2161
  631MOL0     H85164   1.354   6.978  12.318 -0.3315  2.9481 -1.8060
  631MOL0     H85165   1.384   6.741  12.322 -0.3226 -1.7997 -1.5074
  631MOL0     H85166   1.241   6.709  12.217  1.5485  1.0394 -1.3435
  631MOL0     H85167   1.938   6.610  11.625  1.8288 -0.6114 -1.2965
  631MOL0     H85168   2.161   6.522  11.591 -0.3346  0.8920  0.3788
  631MOL0     H85169   2.509   6.633  11.275 -0.3619 -0.6863 -1.0745
  631MOL0     H85170   2.686   6.517  11.183 -1.7935  0.3047  0.6611
  631MOL0     H85171   4.504   6.999  11.478 -0.4820 -2.2936 -1.1423
  631MOL0     H85172   4.710   7.109  11.444  2.6924  1.9136 -2.5879
  631MOL0     H85173   4.981   7.357  11.340  1.9065  2.8429  2.4402
  631MOL0     H85174   5.198   7.472  11.349 -0.1955  1.4297 -0.7070
  631MOL0     H85175   5.332   7.639  11.236  0.1472 -0.0738  1.7648
  631MOL0     H85176   5.430   7.521  11.330 -2.4898 -1.1836 -0.2752
  631MOL0     H85177   5.625   7.619  11.259  2.4755  1.1337 -1.2802
  631MOL0     H85178   5.503   7.754  11.236 -0.6074  0.6015 -1.5535
  631MOL0     H85179   5.464   7.706  11.021 -0.8747 -2.0895  2.7966
  631MOL0     H85180   5.583   7.573  11.010  0.5485  0.0602 -2.6880
  631MOL0     H85181   5.703   7.759  10.916  0.1041  0.4783  0.3684
  631MOL0     H85182   5.766   7.763  11.080 -0.2932  4.5024  1.8367
  631MOL0     H85183   5.566   8.131  11.047  2.1552  1.3551 -0.1311
  631MOL0     H85184   5.291   7.318  10.955 -0.1047  0.6874 -0.1323
  631MOL0     H85185   5.068   7.234  10.929  3.2781 -1.4886  0.0753
  632MOL0     O85186   4.191   9.511   4.779  0.4334  0.4997  0.4674
  632MOL0     C85187   4.192   9.576   4.676 -0.0514  0.0564  0.3960
  632MOL0     O85188   4.087   9.611   4.596 -0.3425 -0.4904 -0.0359
  632MOL0     C85189   3.952   9.579   4.611 -0.5475 -0.3636  0.4577
  632MOL0     C85190   3.865   9.617   4.507  0.6003 -0.1325  0.3921
  632MOL0     C85191   3.727   9.600   4.513  0.0904 -0.1708 -0.8012
  632MOL0     C85192   3.674   9.537   4.623  0.2482  0.9149  0.7306
  632MOL0     O85193   3.537   9.509   4.643 -0.6773  0.3785 -0.1286
  632MOL0     C85194   3.444   9.581   4.559 -0.3699 -0.2318  0.3049
  632MOL0     C85195   3.298   9.560   4.596 -0.1512 -0.4631  0.2269
  632MOL0     C85196   3.209   9.629   4.490 -0.5659  0.6801  0.3308
  632MOL0     C85197   3.171   9.771   4.537 -0.7277 -0.5837  0.1697
  632MOL0     C85198   3.051   9.829   4.452  0.1708  0.0983 -0.1784
  632MOL0     C85199   2.924   9.871   4.537 -0.2593 -0.3692  1.0637
  632MOL0     C85200   2.845   9.748   4.580  0.5680  0.8676  0.3518
  632MOL0     C85201   2.702   9.781   4.634  0.3072 -0.6658  0.5610
  632MOL0     N85202   2.607   9.832   4.534 -0.3551  0.7652 -0.3816
  632MOL0     C85203   2.593   9.784   4.402  0.6870  0.3198 -0.6082
  632MOL0     C85204   2.498   9.862   4.345 -0.3384  0.3297 -0.3423
  632MOL0     C85205   2.436   9.860   4.206 -0.1210 -0.2975  0.8018
  632MOL0     C85206   2.388   9.714   4.170 -0.2026 -0.0940 -0.1994
  632MOL0     C85207   2.378   9.702   4.017 -1.0038  0.5210  0.9136
  632MOL0     C85208   2.276   9.781   3.934 -0.5254  0.0926  0.1002
  632MOL0     O85209   2.296   9.922   3.909  0.0980  0.0568 -0.2992
  632MOL0     C85210   2.179   9.980   3.886  0.2829  0.8426  0.2530
  632MOL0     C85211   2.115  10.047   3.992  0.3576 -0.7389  0.5286
  632MOL0     C85212   1.988  10.103   3.974  0.5450  0.5921 -0.4021
  632MOL0     C85213   1.928  10.181   4.090  0.3757 -0.0484 -0.5058
  632MOL0     C85214   1.921  10.083   3.848 -0.6323 -0.9291 -0.4820
  632MOL0     C85215   1.789  10.153   3.814  0.2577 -0.1547 -0.7190
  632MOL0     O85216   1.713  10.187   3.916  0.2504 -0.4206 -0.3622
  632MOL0     C85217   1.589  10.224   3.897 -0.4810 -0.4473 -0.6014
  632MOL0     C85218   1.536  10.312   3.994 -0.1081 -0.2751 -0.8939
  632MOL0     C85219   1.402  10.346   4.001 -1.1126 -0.3730 -0.0020
  632MOL0     C85220   1.310  10.271   3.931 -0.8353  0.5928  0.9190
  632MOL0     O85221   1.175  10.302   3.942 -0.1178  0.0976  0.2222
  632MOL0     C85222   1.122  10.400   3.847  0.4033  0.9241 -0.3288
  632MOL0     C85223   1.007  10.339   3.777 -0.2792  0.4235 -0.3477
  632MOL0     C85224   0.898  10.431   3.732  0.3068  0.4378 -0.2577
  632MOL0     C85225   0.950  10.539   3.641  0.8617 -0.3415  0.8343
  632MOL0     C85226   1.012  10.501   3.494  0.0965 -0.5322  0.1271
  632MOL0     C85227   0.904  10.448   3.397  0.0030 -0.1325 -0.7477
  632MOL0     C85228   0.948  10.406   3.261 -0.5736  0.4936  0.3220
  632MOL0     C85229   0.981  10.252   3.236 -0.6685 -0.0148  0.4948
  632MOL0    Cl85230   0.837  10.154   3.217 -0.1518  0.1840  0.3044
  632MOL0     C85231   1.362  10.179   3.834 -0.0690  0.3843 -0.1407
  632MOL0     C85232   1.503  10.166   3.809  0.1297 -0.2495  0.6063
  632MOL0     O85233   1.765  10.178   3.700  1.0330 -0.3353  0.3612
  632MOL0     C85234   1.980  10.006   3.750  0.8790  0.1706 -0.3592
  632MOL0     C85235   2.105   9.948   3.771  0.7596 -0.0064  0.2821
  632MOL0     N85236   2.445   9.937   4.450  0.4931 -0.7225 -0.4472
  632MOL0     N85237   2.512   9.918   4.557 -0.1207  0.9203 -0.4997
  632MOL0     C85238   3.758   9.496   4.727 -0.3006  0.0901 -0.6529
  632MOL0     C85239   3.891   9.524   4.721 -0.0178  0.6360 -0.0790
  632MOL0     C85240   4.325   9.630   4.645 -0.9285 -0.1312  0.1782
  632MOL0     C85241   4.443   9.615   4.729 -0.4013  0.1943 -0.1236
  632MOL0     C85242   4.570   9.690   4.706  0.2863 -0.8658  0.6441
  632MOL0     C85243   4.571   9.767   4.590 -0.4359 -0.8468  0.1393
  632MOL0     O85244   4.685   9.842   4.559  0.2191 -0.2585 -0.0490
  632MOL0     C85245   4.814   9.824   4.616 -0.0391  0.6492  0.0162
  632MOL0     C85246   4.908   9.927   4.564 -0.8284 -0.8398 -0.0923
  632MOL0     C85247   4.953   9.915   4.414 -0.1508 -0.5077 -0.8254
  632MOL0     C85248   5.048   9.799   4.398  0.4542 -0.0044  0.6977
  632MOL0     C85249   5.095   9.787   4.259  0.1485  0.5833  0.2722
  632MOL0     C85250   5.113   9.783   4.141 -0.2103 -0.5800  0.1419
  632MOL0     C85251   4.459   9.780   4.508  0.0810 -0.0984 -0.6653
  632MOL0     C85252   4.342   9.710   4.533 -0.3671  0.3221 -0.9597
  632MOL0     H85253   3.902   9.674   4.423 -3.0682  0.7818 -0.7629
  632MOL0     H85254   3.675   9.634   4.424  2.0868  0.6253 -1.7100
  632MOL0     H85255   3.470   9.686   4.576  1.1380 -0.8203  1.9806
  632MOL0     H85256   3.458   9.563   4.452 -1.1443  1.8348 -0.1821
  632MOL0     H85257   3.281   9.452   4.587 -0.7890 -0.2863 -0.9096
  632MOL0     H85258   3.272   9.596   4.696  2.5371  0.5265  0.6381
  632MOL0     H85259   3.256   9.643   4.392  0.0785  3.2433  0.9214
  632MOL0     H85260   3.123   9.563   4.475 -0.2432  0.0461  1.1918
  632MOL0     H85261   3.136   9.746   4.637 -2.1463 -3.9230 -1.0322
  632MOL0     H85262   3.253   9.843   4.540 -0.5942 -0.5048 -2.5832
  632MOL0     H85263   3.099   9.910   4.396  0.1941  0.5682  0.5156
  632MOL0     H85264   3.012   9.756   4.381  2.3084 -1.1417 -0.1965
  632MOL0     H85265   2.957   9.949   4.606  1.9522  0.5574 -0.8805
  632MOL0     H85266   2.856   9.912   4.462 -1.0337 -1.0410  1.3809
  632MOL0     H85267   2.817   9.687   4.494 -0.1673  0.3616  0.9326
  632MOL0     H85268   2.903   9.711   4.665 -0.5443 -0.6613  0.4812
  632MOL0     H85269   2.708   9.858   4.712 -4.4260 -2.0874  2.7137
  632MOL0     H85270   2.652   9.698   4.685  0.9980  1.1641  4.6988
  632MOL0     H85271   2.636   9.697   4.355  1.4897  0.7494 -0.6960
  632MOL0     H85272   2.351   9.928   4.197  0.6383  0.4723 -1.2267
  632MOL0     H85273   2.502   9.900   4.128 -0.3548  0.3528  0.9360
  632MOL0     H85274   2.287   9.694   4.208 -0.7964  1.9305 -0.5830
  632MOL0     H85275   2.460   9.636   4.195  0.6461  0.8582  0.4020
  632MOL0     H85276   2.360   9.596   3.997  2.4717 -0.2558  1.3786
  632MOL0     H85277   2.476   9.719   3.972 -1.5000  0.4193 -0.2308
  632MOL0     H85278   2.184   9.762   3.990  0.3040  0.2486  1.5512
  632MOL0     H85279   2.281   9.735   3.834  0.2909 -0.9033  0.5785
  632MOL0     H85280   2.172  10.065   4.082  1.5741 -1.5341 -0.0528
  632MOL0     H85281   1.922  10.283   4.050  3.8775  0.5940  0.2898
  632MOL0     H85282   1.831  10.140   4.122  0.6483 -0.9322 -0.7952
  632MOL0     H85283   1.997  10.179   4.175 -0.4394 -3.4104  0.2533
  632MOL0     H85284   1.602  10.360   4.066 -2.0300  1.4280 -0.1527
  632MOL0     H85285   1.353  10.415   4.069  0.5302 -2.4758  3.5669
  632MOL0     H85286   1.070  10.476   3.906 -2.5789 -1.0441 -0.1879
  632MOL0     H85287   1.199  10.439   3.780 -0.6933  2.3618 -0.8024
  632MOL0     H85288   1.045  10.284   3.690  0.2469 -0.4797  0.4359
  632MOL0     H85289   0.960  10.270   3.848  0.5167 -1.4601 -1.5717
  632MOL0     H85290   0.859  10.479   3.822 -0.2708 -1.3351  0.4781
  632MOL0     H85291   0.815  10.378   3.686  0.2447  1.2320 -1.1053
  632MOL0     H85292   0.868  10.607   3.618  0.9884 -0.5102 -0.1692
  632MOL0     H85293   1.016  10.604   3.700 -1.1719  3.2616 -0.5367
  632MOL0     H85294   1.096  10.432   3.505 -0.3319 -1.4974 -2.1757
  632MOL0     H85295   1.048  10.589   3.440 -1.1232 -0.6840 -0.9965
  632MOL0     H85296   0.850  10.358   3.428  0.1996 -1.0475 -2.8812
  632MOL0     H85297   0.832  10.528   3.382  0.0067 -0.2586 -1.4719
  632MOL0     H85298   1.041  10.459   3.241  0.3116 -0.5173  1.5291
  632MOL0     H85299   0.870  10.436   3.191 -0.3023  1.3003  0.3541
  632MOL0     H85300   1.045  10.208   3.312 -0.3022 -1.3309 -0.5521
  632MOL0     H85301   1.032  10.251   3.140 -3.2812 -0.6026 -0.9756
  632MOL0     H85302   1.296  10.136   3.759  0.4798 -2.5307  0.9334
  632MOL0     H85303   1.524  10.111   3.718 -1.1976  0.1190  0.0544
  632MOL0     H85304   1.913   9.979   3.669 -0.0429 -0.3604  0.5537
  632MOL0     H85305   2.156   9.877   3.707 -0.3134 -0.1548 -0.4238
  632MOL0     H85306   3.725   9.466   4.825 -0.8869 -1.2818 -1.2462
  632MOL0     H85307   3.941   9.490   4.812 -1.1509  1.6921  0.9674
  632MOL0     H85308   4.434   9.566   4.826 -2.2785  1.0606  0.2039
  632MOL0     H85309   4.655   9.694   4.773 -1.0622 -2.8612  2.6347
  632MOL0     H85310   4.812   9.829   4.725 -0.0370  0.2652  0.0358
  632MOL0     H85311   4.858   9.727   4.589  1.7478  1.3986  0.0771
  632MOL0     H85312   4.997   9.932   4.627 -1.0415 -2.0127  0.3142
  632MOL0     H85313   4.857  10.024   4.565  3.9465  2.0100  1.6753
  632MOL0     H85314   5.002  10.005   4.376  1.6659 -1.8344 -1.7788
  632MOL0     H85315   4.862   9.912   4.354 -0.9658 -0.3260  0.3682
  632MOL0     H85316   4.986   9.712   4.420 -0.4491  0.0903 -1.2908
  632MOL0     H85317   5.126   9.801   4.475  1.7218 -1.7455 -0.4342
  632MOL0     H85318   5.126   9.778   4.035 -0.7561 -0.6504  0.0777
  632MOL0     H85319   4.461   9.843   4.420 -1.4786 -1.0721 -1.4361
  632MOL0     H85320   4.253   9.739   4.476 -0.3865  2.3888  0.0080
  633MOL0     O85321   9.070   4.316   4.088 -0.3999  0.3609 -0.1342
  633MOL0     C85322   9.150   4.250   4.019  0.2256  0.3950  0.2131
  633MOL0     O85323   9.128   4.126   3.970 -0.7178  0.4450 -0.3899
  633MOL0     C85324   9.006   4.071   3.984 -0.3591  0.4170 -0.4685
  633MOL0     C85325   8.890   4.130   3.936 -0.3177 -0.3562  0.2589
  633MOL0     C85326   8.764   4.068   3.957 -0.2996 -0.1431 -0.0647
  633MOL0     C85327   8.752   3.941   4.014 -1.3600 -0.3879 -0.0476
  633MOL0     O85328   8.638   3.866   4.032 -0.1530 -0.2240  1.0721
  633MOL0     C85329   8.510   3.920   3.984  0.2851 -0.5169  0.2573
  633MOL0     C85330   8.391   3.851   4.047 -0.1880  0.5523  0.0546
  633MOL0     C85331   8.266   3.931   4.056  0.0381 -0.2759 -0.1419
  633MOL0     C85332   8.160   3.865   4.131  0.1000  0.2264 -0.2068
  633MOL0     C85333   8.042   3.958   4.147  0.4715  0.1142  0.3243
  633MOL0     C85334   7.919   3.878   4.199  0.0628  0.0946  0.0687
  633MOL0     C85335   7.786   3.952   4.209  0.0661 -1.0137  0.1082
  633MOL0     C85336   7.666   3.860   4.248  0.7787  0.5564  1.1626
  633MOL0     N85337   7.658   3.848   4.393 -0.0390  0.3169 -0.1480
  633MOL0     C85338   7.695   3.735   4.465  0.5884  0.1180  0.7965
  633MOL0     C85339   7.645   3.756   4.583 -0.4453 -0.2248  0.3699
  633MOL0     C85340   7.681   3.680   4.704  0.2171  0.2809  0.1899
  633MOL0     C85341   7.627   3.530   4.703 -0.4484 -0.0897  0.1081
  633MOL0     C85342   7.480   3.509   4.660  0.4163 -0.8553 -0.2083
  633MOL0     C85343   7.462   3.511   4.503  0.4602 -0.5414  0.1713
  633MOL0     O85344   7.344   3.429   4.471  0.4998  0.6930 -0.4860
  633MOL0     C85345   7.306   3.436   4.334 -0.4414  0.3707  0.0666
  633MOL0     C85346   7.369   3.498   4.228  0.0157 -0.2370 -0.1887
  633MOL0     C85347   7.321   3.493   4.101 -0.0955  0.0884 -0.2944
  633MOL0     C85348   7.410   3.565   4.003 -0.0498 -0.4010 -0.8223
  633MOL0     C85349   7.199   3.421   4.066 -0.3709 -0.1842 -0.4696
  633MOL0     C85350   7.124   3.436   3.937 -1.0122 -0.0295 -0.0595
  633MOL0     O85351   7.018   3.349   3.916  0.2932  0.6287 -0.3791
  633MOL0     C85352   6.931   3.360   3.810  0.6293  0.5671  0.1353
  633MOL0     C85353   6.796   3.332   3.840 -0.6869 -0.2656 -0.4109
  633MOL0     C85354   6.700   3.329   3.734  0.2950 -0.1998  0.4062
  633MOL0     C85355   6.739   3.364   3.607 -0.5429 -0.0168 -0.8043
  633MOL0     O85356   6.645   3.360   3.503  0.3768  0.6592 -0.4455
  633MOL0     C85357   6.498   3.372   3.523 -0.4366  0.1324  0.4870
  633MOL0     C85358   6.427   3.240   3.527 -0.6219  0.5180  0.6662
  633MOL0     C85359   6.280   3.260   3.497  0.3511  0.7478 -0.2902
  633MOL0     C85360   6.189   3.135   3.487  0.2703  0.0420  0.6535
  633MOL0     C85361   6.062   3.170   3.404  0.7882  0.4568 -0.4736
  633MOL0     C85362   5.978   3.272   3.474  0.2825  0.6534  0.2615
  633MOL0     C85363   5.869   3.329   3.391  0.5640 -0.2532  1.1969
  633MOL0     C85364   5.823   3.462   3.452 -0.4477  0.2863 -0.4871
  633MOL0    Cl85365   5.757   3.441   3.617  0.0476  0.0185 -0.0322
  633MOL0     C85366   6.870   3.398   3.582  0.6586  0.1891  0.4506
  633MOL0     C85367   6.967   3.398   3.680 -0.3002  0.0725 -0.0001
  633MOL0     O85368   7.157   3.525   3.861  0.9303 -0.5027 -0.2195
  633MOL0     C85369   7.147   3.345   4.167  0.1593  0.4627 -0.6033
  633MOL0     C85370   7.201   3.352   4.298 -0.9090  0.5929 -0.1784
  633MOL0     N85371   7.584   3.880   4.591 -0.2219 -0.1639  0.1125
  633MOL0     N85372   7.589   3.929   4.474 -0.1083 -0.5274  0.8006
  633MOL0     C85373   8.875   3.879   4.060  0.3301 -1.0414 -0.0613
  633MOL0     C85374   9.001   3.944   4.047 -0.4495 -0.0915  0.4562
  633MOL0     C85375   9.282   4.305   3.970 -0.0189  0.4824 -0.4247
  633MOL0     C85376   9.379   4.219   3.917 -0.3802  0.5306 -0.2984
  633MOL0     C85377   9.501   4.272   3.870  0.2680 -0.2428 -0.5894
  633MOL0     C85378   9.522   4.410   3.869 -0.1998  0.1679  0.3294
  633MOL0     O85379   9.646   4.450   3.815  0.2053 -0.0950  0.2243
  633MOL0     C85380   9.674   4.595   3.812  0.1945  0.6984  0.2559
  633MOL0     C85381   9.781   4.626   3.706  0.1258  0.0157 -0.6416
  633MOL0     C85382   9.792   4.774   3.674  0.3232  0.6366 -0.4734
  633MOL0     C85383   9.821   4.874   3.787  0.5782 -0.0907  0.3403
  633MOL0     C85384   9.956   4.856   3.835 -0.2724 -0.0601 -0.3335
  633MOL0     C85385  10.068   4.842   3.880  0.1148  0.2632 -0.0397
  633MOL0     C85386   9.420   4.488   3.915  0.2537 -0.5760  0.4777
  633MOL0     C85387   9.306   4.441   3.974  0.4253  1.0154  0.2085
  633MOL0     H85388   8.890   4.233   3.902  0.5447 -0.8286 -1.2492
  633MOL0     H85389   8.675   4.120   3.922 -0.1956  0.7627  0.9684
  633MOL0     H85390   8.513   4.029   3.993 -0.4843 -0.6085  1.9252
  633MOL0     H85391   8.508   3.892   3.878  0.1981  1.9947 -0.4639
  633MOL0     H85392   8.375   3.755   3.997 -0.6902 -0.2294  1.6710
  633MOL0     H85393   8.416   3.826   4.150  2.2685 -0.4727 -0.7293
  633MOL0     H85394   8.281   4.034   4.089 -1.3098 -0.6638  1.8530
  633MOL0     H85395   8.218   3.944   3.958  1.4352 -0.1561 -0.8423
  633MOL0     H85396   8.127   3.777   4.075  1.5121  0.3596 -1.2971
  633MOL0     H85397   8.194   3.837   4.231  4.3452 -0.8166 -1.7550
  633MOL0     H85398   8.063   4.032   4.225  0.5799  1.1540 -0.6799
  633MOL0     H85399   8.021   4.010   4.053 -1.0939 -2.3162 -0.7964
  633MOL0     H85400   7.902   3.793   4.132 -1.5982  1.2955 -1.1092
  633MOL0     H85401   7.938   3.847   4.302  0.2018  3.5407  1.1946
  633MOL0     H85402   7.804   4.032   4.280  1.1180 -0.8683 -0.3057
  633MOL0     H85403   7.755   3.992   4.112 -1.2536  0.0276  0.9245
  633MOL0     H85404   7.670   3.764   4.197  0.3061 -0.2073  2.5310
  633MOL0     H85405   7.572   3.906   4.216  0.6981 -0.7066 -0.5289
  633MOL0     H85406   7.751   3.647   4.435  2.2849  0.5021  2.6409
  633MOL0     H85407   7.790   3.669   4.703  0.0243 -3.5651 -2.8661
  633MOL0     H85408   7.635   3.727   4.791 -2.5551 -0.5936 -0.6973
  633MOL0     H85409   7.628   3.490   4.804 -1.3964  0.4531  0.3413
  633MOL0     H85410   7.698   3.477   4.639  1.0954 -0.9116  2.3738
  633MOL0     H85411   7.418   3.588   4.704  2.2123  0.5571 -0.0957
  633MOL0     H85412   7.437   3.418   4.703  0.5875 -1.0062 -0.3513
  633MOL0     H85413   7.549   3.466   4.454  0.4651  0.5308 -0.8405
  633MOL0     H85414   7.450   3.613   4.466  2.6390 -0.7847 -1.4184
  633MOL0     H85415   7.460   3.555   4.242  0.2507 -0.5363 -0.4945
  633MOL0     H85416   7.505   3.592   4.049  1.0736  0.1353 -3.2982
  633MOL0     H85417   7.427   3.507   3.912  0.5665 -0.7113 -0.5155
  633MOL0     H85418   7.356   3.657   3.976  0.4280 -0.6099 -2.6368
  633MOL0     H85419   6.750   3.318   3.937 -3.2241  1.7032 -1.2094
  633MOL0     H85420   6.599   3.292   3.742  0.1353  0.0892 -0.1853
  633MOL0     H85421   6.484   3.428   3.616  0.8419 -3.4080  3.0295
  633MOL0     H85422   6.461   3.431   3.439 -1.1611 -3.0654 -1.6227
  633MOL0     H85423   6.471   3.171   3.454  3.5704  1.1772  2.2415
  633MOL0     H85424   6.441   3.194   3.625 -2.8404  0.6487  1.0950
  633MOL0     H85425   6.274   3.330   3.412  1.9732  1.4470  0.1209
  633MOL0     H85426   6.251   3.299   3.595  0.6097 -0.3852  0.2469
  633MOL0     H85427   6.242   3.052   3.440 -0.4177  0.7603 -1.5586
  633MOL0     H85428   6.152   3.111   3.587 -1.5183 -0.9136 -0.1939
  633MOL0     H85429   6.000   3.079   3.404 -0.4897  1.2944 -0.2767
  633MOL0     H85430   6.093   3.192   3.302  1.6240  0.4948 -0.2154
  633MOL0     H85431   5.945   3.216   3.563 -2.5366  0.4698 -0.8153
  633MOL0     H85432   6.038   3.359   3.501 -1.1631  1.8074 -0.1499
  633MOL0     H85433   5.794   3.252   3.369  2.4771 -1.1232 -3.5691
  633MOL0     H85434   5.921   3.362   3.300  2.0382 -1.6689  1.4702
  633MOL0     H85435   5.741   3.496   3.387 -0.9435  1.4489  0.7061
  633MOL0     H85436   5.893   3.546   3.459 -0.4571  0.3055 -0.6129
  633MOL0     H85437   6.900   3.421   3.480  0.5704  0.6499  0.5299
  633MOL0     H85438   7.070   3.427   3.661 -0.4177  0.2788 -0.3189
  633MOL0     H85439   7.062   3.281   4.145 -0.6416  1.5328 -0.7298
  633MOL0     H85440   7.151   3.290   4.371  0.2456 -3.8031 -2.7387
  633MOL0     H85441   8.865   3.783   4.109 -2.5693 -0.0194  1.5843
  633MOL0     H85442   9.087   3.906   4.101  1.6478  1.9601 -1.2489
  633MOL0     H85443   9.376   4.111   3.907  0.9059  0.4147  0.4088
  633MOL0     H85444   9.582   4.207   3.837 -0.7532 -1.2782 -1.1029
  633MOL0     H85445   9.587   4.647   3.772 -0.0920 -0.4144 -0.6228
  633MOL0     H85446   9.702   4.633   3.911 -1.4899  0.0637  1.0107
  633MOL0     H85447   9.762   4.564   3.619 -0.2334 -1.1948  0.2793
  633MOL0     H85448   9.879   4.597   3.746 -0.3490  0.9950  1.3756
  633MOL0     H85449   9.696   4.801   3.629  0.2463  2.4109  0.6761
  633MOL0     H85450   9.875   4.789   3.603  1.7252 -1.0101  0.7377
  633MOL0     H85451   9.750   4.853   3.868 -0.6580 -0.3316 -0.7884
  633MOL0     H85452   9.816   4.980   3.760  3.1388  1.3620  4.5334
  633MOL0     H85453  10.171   4.838   3.907 -0.3810  0.3368  2.0575
  633MOL0     H85454   9.426   4.596   3.906 -0.8132 -0.6199 -1.2233
  633MOL0     H85455   9.223   4.502   4.008  0.2713  0.1656  1.4259
  634MOL0     O85456   7.195   2.380   2.129  0.3550  0.2406  0.1852
  634MOL0     C85457   7.263   2.304   2.058  0.0930  0.4184  0.4201
  634MOL0     O85458   7.219   2.254   1.936  0.3900 -0.1623 -0.3534
  634MOL0     C85459   7.083   2.261   1.897 -0.3733 -0.0308 -0.2838
  634MOL0     C85460   7.066   2.225   1.767  0.0763 -0.0263  0.1579
  634MOL0     C85461   6.946   2.227   1.698 -0.2990 -0.3495 -0.1733
  634MOL0     C85462   6.832   2.267   1.773  0.7220  0.4677 -0.4028
  634MOL0     O85463   6.714   2.278   1.700  0.3297 -0.0336 -0.0980
  634MOL0     C85464   6.584   2.255   1.758 -0.2587 -0.1245 -0.5591
  634MOL0     C85465   6.474   2.299   1.668  0.3013  0.0111 -0.1076
  634MOL0     C85466   6.335   2.284   1.726  0.1400  0.2012 -0.5703
  634MOL0     C85467   6.227   2.340   1.639 -0.4689  0.8666 -0.0770
  634MOL0     C85468   6.225   2.491   1.617  1.3048  0.0289  0.2569
  634MOL0     C85469   6.083   2.529   1.550 -0.7487 -0.4524 -0.5650
  634MOL0     C85470   6.077   2.673   1.522 -0.2356  0.3783  0.1453
  634MOL0     C85471   5.942   2.700   1.456  0.7056  0.0034  0.2179
  634MOL0     N85472   5.927   2.696   1.308 -0.5294 -0.4568 -1.0287
  634MOL0     C85473   5.808   2.666   1.253 -0.8224  0.1814  0.2254
  634MOL0     C85474   5.836   2.684   1.119  0.9428  0.0701  0.4678
  634MOL0     C85475   5.745   2.668   1.012  0.2130  0.0696  0.7272
  634MOL0     C85476   5.705   2.514   0.982  0.3358 -0.1896  0.0235
  634MOL0     C85477   5.604   2.488   0.868  0.7221  0.5420  0.2536
  634MOL0     C85478   5.575   2.337   0.838 -0.9003  0.1293 -0.5905
  634MOL0     O85479   5.449   2.305   0.773  1.4416  0.3416  0.2670
  634MOL0     C85480   5.321   2.311   0.832  1.3664  0.4144 -0.4599
  634MOL0     C85481   5.303   2.321   0.971 -1.2346  0.6331  0.7281
  634MOL0     C85482   5.174   2.328   1.023 -0.3051  0.4284 -0.3370
  634MOL0     C85483   5.172   2.327   1.178  0.5303 -0.9899  0.4660
  634MOL0     C85484   5.052   2.324   0.953  0.4077  0.3857  1.0599
  634MOL0     C85485   4.910   2.347   1.001  0.4448 -0.7010 -0.1383
  634MOL0     O85486   4.818   2.328   0.900  0.4590  0.7635  0.8040
  634MOL0     C85487   4.690   2.313   0.937  0.1504  0.5445 -0.4139
  634MOL0     C85488   4.657   2.204   1.022  0.2334  0.0792 -0.2795
  634MOL0     C85489   4.534   2.190   1.079 -0.2368  0.9445 -0.8981
  634MOL0     C85490   4.434   2.288   1.053  0.1161 -0.1399  0.7931
  634MOL0     O85491   4.316   2.272   1.125 -0.4291 -0.6695 -1.4046
  634MOL0     C85492   4.217   2.372   1.107 -0.3731 -0.3389  0.3574
  634MOL0     C85493   4.095   2.338   1.192  0.0633 -0.6144  0.5217
  634MOL0     C85494   4.106   2.405   1.326 -0.1623 -0.0042 -0.7300
  634MOL0     C85495   3.971   2.403   1.396 -0.3297  0.3978 -0.9040
  634MOL0     C85496   3.983   2.457   1.542 -0.0101 -0.6677 -0.1100
  634MOL0     C85497   3.967   2.606   1.536  0.6182 -0.0580 -0.0735
  634MOL0     C85498   3.960   2.674   1.667  1.0463  1.4703 -0.0913
  634MOL0     C85499   3.857   2.628   1.775 -0.6130  0.4708 -0.5526
  634MOL0    Cl85500   3.905   2.471   1.850  0.2458  0.0466  0.3004
  634MOL0     C85501   4.458   2.390   0.958 -0.2616  0.4181  0.3823
  634MOL0     C85502   4.589   2.402   0.906 -0.2276 -0.5292  0.5086
  634MOL0     O85503   4.885   2.372   1.118  0.8151 -0.2202  0.2027
  634MOL0     C85504   5.067   2.306   0.814 -0.7846 -0.6659  0.2640
  634MOL0     C85505   5.199   2.299   0.756 -0.0218 -0.7488  0.5759
  634MOL0     N85506   5.971   2.706   1.108  0.0054 -1.5094 -0.0702
  634MOL0     N85507   6.025   2.730   1.220 -0.8038  0.2462 -0.3364
  634MOL0     C85508   6.844   2.299   1.909  0.2317 -0.0420  0.8217
  634MOL0     C85509   6.971   2.297   1.970  0.5943  1.0464 -0.2980
  634MOL0     C85510   7.410   2.302   2.086  0.1278 -0.3941  0.1872
  634MOL0     C85511   7.517   2.271   1.995 -0.1544 -0.1076 -0.3902
  634MOL0     C85512   7.653   2.289   2.038  0.2595  0.2245 -0.3199
  634MOL0     C85513   7.678   2.337   2.169  0.0280 -0.2817  0.4867
  634MOL0     O85514   7.811   2.331   2.206  0.0473 -0.0949  0.6222
  634MOL0     C85515   7.886   2.449   2.160 -1.3371 -0.4208  0.2745
  634MOL0     C85516   8.039   2.420   2.113  0.2566  0.2528  0.5800
  634MOL0     C85517   8.125   2.394   2.234 -0.9205  0.3524  0.4925
  634MOL0     C85518   8.178   2.517   2.292 -0.2402 -0.3946  0.1483
  634MOL0     C85519   8.296   2.558   2.227 -0.9107 -1.0808 -0.2939
  634MOL0     C85520   8.401   2.603   2.187 -0.2678 -1.0498 -0.1136
  634MOL0     C85521   7.572   2.354   2.257  0.2731  0.5646  0.1907
  634MOL0     C85522   7.439   2.345   2.214 -1.1840 -0.0305 -0.3748
  634MOL0     H85523   7.152   2.194   1.709 -0.6677  0.6607 -1.3807
  634MOL0     H85524   6.927   2.202   1.594 -0.2131 -0.2505 -0.2134
  634MOL0     H85525   6.566   2.147   1.765 -2.5043  0.3000  3.4568
  634MOL0     H85526   6.561   2.296   1.857  0.5435  2.0151 -1.2065
  634MOL0     H85527   6.502   2.402   1.645 -1.4333  0.6419  0.4520
  634MOL0     H85528   6.496   2.242   1.577 -1.7620 -0.0112 -0.6395
  634MOL0     H85529   6.315   2.177   1.739 -0.6572  0.4841  0.6279
  634MOL0     H85530   6.325   2.336   1.822 -2.1410  0.5580 -0.9470
  634MOL0     H85531   6.248   2.294   1.542  0.7061  0.2348  0.4623
  634MOL0     H85532   6.130   2.311   1.681 -1.0013  1.1642 -1.0596
  634MOL0     H85533   6.226   2.551   1.708 -2.1446  3.0579 -1.4348
  634MOL0     H85534   6.298   2.514   1.539  3.7210 -1.2574  2.0044
  634MOL0     H85535   6.064   2.469   1.461 -0.5888 -1.8870  0.3366
  634MOL0     H85536   6.001   2.502   1.618 -1.6481  0.5926 -1.2070
  634MOL0     H85537   6.083   2.724   1.619 -1.3847 -0.7229  0.8254
  634MOL0     H85538   6.151   2.709   1.450 -0.5836  1.4746  0.3082
  634MOL0     H85539   5.906   2.795   1.495  1.2639 -0.4396  1.8721
  634MOL0     H85540   5.874   2.622   1.493 -1.1830  1.1692 -0.6462
  634MOL0     H85541   5.714   2.643   1.303 -1.4902  0.9875 -0.6210
  634MOL0     H85542   5.657   2.726   1.041  2.0424  2.4543  1.8886
  634MOL0     H85543   5.775   2.718   0.919 -1.8920  1.0955  0.5368
  634MOL0     H85544   5.651   2.484   1.072 -1.5365 -0.4046 -1.1294
  634MOL0     H85545   5.786   2.442   0.962 -0.9189 -1.0029 -2.6351
  634MOL0     H85546   5.622   2.539   0.774 -0.3906  0.6056  0.0605
  634MOL0     H85547   5.509   2.516   0.915  0.4040 -1.9951  1.2767
  634MOL0     H85548   5.592   2.281   0.930  2.1686 -0.7683 -1.5555
  634MOL0     H85549   5.663   2.309   0.779 -0.7868 -1.3411  0.2273
  634MOL0     H85550   5.385   2.328   1.041  0.1467  1.1974 -0.8712
  634MOL0     H85551   5.151   2.426   1.221 -2.9676 -1.5550  0.4067
  634MOL0     H85552   5.084   2.269   1.209  0.6723 -0.8256  1.1955
  634MOL0     H85553   5.253   2.275   1.230 -0.7410 -1.3862  2.1495
  634MOL0     H85554   4.741   2.136   1.036  1.1599  1.4545  1.1040
  634MOL0     H85555   4.509   2.108   1.145  0.1743 -0.9074 -2.9083
  634MOL0     H85556   4.262   2.467   1.137  2.1993 -1.0898 -0.8751
  634MOL0     H85557   4.192   2.385   1.002  3.0353 -0.9473 -0.6208
  634MOL0     H85558   4.005   2.385   1.151  0.5094  0.6919  0.9989
  634MOL0     H85559   4.081   2.230   1.198 -0.6821 -0.6245 -0.9743
  634MOL0     H85560   4.139   2.509   1.316  0.4833 -0.2676 -1.4496
  634MOL0     H85561   4.182   2.346   1.377 -1.2286 -0.7479  0.0284
  634MOL0     H85562   3.891   2.465   1.354  1.1432  2.7819 -0.3876
  634MOL0     H85563   3.940   2.299   1.396  0.5982  0.1159 -1.3510
  634MOL0     H85564   4.086   2.433   1.573  1.5116  1.4926 -3.0486
  634MOL0     H85565   3.903   2.422   1.608  0.9529  1.3633  2.3162
  634MOL0     H85566   4.045   2.644   1.469 -1.1469 -1.4552 -3.1153
  634MOL0     H85567   3.874   2.631   1.485  0.4602 -0.8056 -0.1569
  634MOL0     H85568   3.923   2.773   1.637 -4.2305  0.4594  2.0457
  634MOL0     H85569   4.057   2.677   1.718  0.5993 -1.6254  1.0864
  634MOL0     H85570   3.768   2.613   1.714 -0.5191 -0.1227 -0.5399
  634MOL0     H85571   3.846   2.710   1.847 -0.7521  3.1434 -3.4120
  634MOL0     H85572   4.383   2.460   0.924  0.6696  0.6315 -1.3969
  634MOL0     H85573   4.608   2.488   0.843 -1.3337 -1.7487 -1.5823
  634MOL0     H85574   4.985   2.311   0.743  0.2258  1.9825 -0.8580
  634MOL0     H85575   5.206   2.293   0.648  1.2869  0.0201  0.6031
  634MOL0     H85576   6.751   2.333   1.953 -1.1001  0.7388 -2.3060
  634MOL0     H85577   6.984   2.313   2.076 -0.8306 -0.4658  0.1576
  634MOL0     H85578   7.506   2.225   1.897 -0.8704  2.9197 -1.8687
  634MOL0     H85579   7.736   2.263   1.974  0.0696  0.8775 -0.8456
  634MOL0     H85580   7.834   2.495   2.075  0.4166 -0.7754 -1.0501
  634MOL0     H85581   7.901   2.515   2.246  2.1057  0.0552 -0.5164
  634MOL0     H85582   8.071   2.505   2.052 -2.6629  0.3924 -0.9165
  634MOL0     H85583   8.050   2.336   2.044  4.9301 -0.0466  1.3406
  634MOL0     H85584   8.208   2.332   2.199 -0.2918  0.6358  1.4159
  634MOL0     H85585   8.078   2.332   2.311 -1.2090  0.5472  0.4709
  634MOL0     H85586   8.198   2.507   2.400  1.4563  0.4965 -0.0484
  634MOL0     H85587   8.096   2.589   2.286 -0.1595 -0.1219  1.7202
  634MOL0     H85588   8.497   2.651   2.181 -0.2828 -0.1379  3.8061
  634MOL0     H85589   7.592   2.380   2.360  0.2448 -0.6590  0.5238
  634MOL0     H85590   7.365   2.367   2.290 -0.7061  3.2143 -0.7068
  635MOL0     O85591   6.988   8.488   8.194 -0.4382  0.2091  0.1964
  635MOL0     C85592   7.024   8.417   8.279 -0.9456  0.5805 -0.3772
  635MOL0     O85593   7.139   8.345   8.282  0.6174  0.0523  0.4830
  635MOL0     C85594   7.210   8.339   8.167 -0.0052 -1.0457  0.1006
  635MOL0     C85595   7.159   8.326   8.039 -0.3063  0.4575  1.3973
  635MOL0     C85596   7.241   8.324   7.931  0.7353  0.1148  0.4566
  635MOL0     C85597   7.375   8.354   7.943 -0.0585 -0.2102  0.5343
  635MOL0     O85598   7.436   8.371   7.823 -0.7271  0.3480  0.4704
  635MOL0     C85599   7.580   8.390   7.833  1.0991  0.7171 -0.0190
  635MOL0     C85600   7.641   8.450   7.709 -0.0769 -0.2919 -0.4490
  635MOL0     C85601   7.630   8.349   7.593 -0.2449 -0.4584  0.5268
  635MOL0     C85602   7.719   8.394   7.475 -0.3369 -0.2977  0.1706
  635MOL0     C85603   7.723   8.300   7.359 -0.1727  0.0063 -0.3301
  635MOL0     C85604   7.592   8.294   7.278  0.4276  0.1758 -0.2961
  635MOL0     C85605   7.617   8.189   7.166  0.7987  0.6519 -0.2903
  635MOL0     C85606   7.527   8.199   7.049 -0.0442  0.6898  0.4093
  635MOL0     N85607   7.395   8.233   7.081  0.1482  0.2671  0.4901
  635MOL0     C85608   7.299   8.150   7.131 -0.3460 -0.0946  0.7727
  635MOL0     C85609   7.182   8.216   7.120  0.4582 -0.5044 -0.2321
  635MOL0     C85610   7.049   8.159   7.173  0.4528  0.4688 -0.1754
  635MOL0     C85611   6.926   8.219   7.095  0.5012 -0.1167 -0.2023
  635MOL0     C85612   6.893   8.133   6.971 -0.3206 -0.3064 -0.2152
  635MOL0     C85613   6.995   8.162   6.857 -0.0504  0.1127 -0.4268
  635MOL0     O85614   6.981   8.073   6.742 -0.2963  0.7923 -0.3024
  635MOL0     C85615   6.858   8.073   6.676  0.2262  0.4240  0.1738
  635MOL0     C85616   6.781   8.189   6.668  0.2863  0.9573 -0.0808
  635MOL0     C85617   6.672   8.191   6.588 -0.0901 -0.1744 -0.1727
  635MOL0     C85618   6.589   8.306   6.596  0.7343  0.3525  0.5842
  635MOL0     C85619   6.629   8.070   6.525  0.3100 -0.5874  0.1475
  635MOL0     C85620   6.503   8.075   6.449 -0.7392  0.0342 -0.4077
  635MOL0     O85621   6.398   8.002   6.493 -0.0776 -0.4233 -0.2587
  635MOL0     C85622   6.286   7.987   6.409 -0.9631  0.3040 -0.1091
  635MOL0     C85623   6.198   8.093   6.384 -0.0722  0.1054  0.1100
  635MOL0     C85624   6.088   8.063   6.302  0.2002  0.3019 -0.1926
  635MOL0     C85625   6.080   7.942   6.234  0.3904  0.1820  0.6337
  635MOL0     O85626   5.984   7.905   6.143  0.3973 -0.0043  0.4066
  635MOL0     C85627   5.856   7.975   6.142  0.1734 -0.5235  0.2843
  635MOL0     C85628   5.756   7.908   6.045 -0.2527  0.4586  0.3179
  635MOL0     C85629   5.658   8.000   5.974  0.3923  0.3183 -0.1229
  635MOL0     C85630   5.534   7.921   5.918 -1.1576  0.1322  1.6880
  635MOL0     C85631   5.471   8.002   5.808  0.0747  0.2929 -0.2536
  635MOL0     C85632   5.342   7.937   5.759  0.6667  0.5546 -0.0394
  635MOL0     C85633   5.270   8.028   5.652  0.3357  0.6644  0.6458
  635MOL0     C85634   5.164   7.945   5.566 -0.2934 -0.3240  0.0609
  635MOL0    Cl85635   5.014   8.049   5.529 -0.1074  0.4188  0.3456
  635MOL0     C85636   6.167   7.840   6.258 -0.9453 -0.4348  0.1666
  635MOL0     C85637   6.272   7.865   6.354  0.3209  0.3753 -0.3344
  635MOL0     O85638   6.512   8.132   6.342  0.2288  0.3781  0.3768
  635MOL0     C85639   6.708   7.957   6.526 -0.2099  0.1483  0.7017
  635MOL0     C85640   6.821   7.963   6.600  0.1249 -0.0570  0.2730
  635MOL0     N85641   7.201   8.338   7.061 -0.9178  0.1934 -0.1597
  635MOL0     N85642   7.327   8.339   7.034 -0.1625  1.1865 -0.1243
  635MOL0     C85643   7.430   8.358   8.067 -0.2505  0.1758 -0.3902
  635MOL0     C85644   7.346   8.369   8.179 -0.5136 -0.1566  0.4371
  635MOL0     C85645   6.947   8.410   8.405  0.0603 -0.9852  0.4513
  635MOL0     C85646   6.980   8.314   8.501 -0.1765  0.3640 -0.5020
  635MOL0     C85647   6.900   8.312   8.614 -0.3490 -0.6902  0.4874
  635MOL0     C85648   6.809   8.412   8.651  0.5517  0.7654 -0.3278
  635MOL0     O85649   6.742   8.418   8.770  0.1275  0.0040 -0.1448
  635MOL0     C85650   6.748   8.314   8.872 -0.5582  0.7082  0.3415
  635MOL0     C85651   6.631   8.218   8.849  0.3050  0.4042 -0.6640
  635MOL0     C85652   6.498   8.281   8.867  0.4758  0.7120 -0.5515
  635MOL0     C85653   6.453   8.320   9.015 -0.2015 -0.0287  0.7621
  635MOL0     C85654   6.307   8.341   9.012  0.0056 -0.4842  0.1458
  635MOL0     C85655   6.184   8.354   9.006 -0.0373 -0.0150  0.3743
  635MOL0     C85656   6.771   8.499   8.556 -1.1464 -0.0246  0.0130
  635MOL0     C85657   6.835   8.497   8.431 -0.1812  0.4285 -0.5420
  635MOL0     H85658   7.052   8.311   8.037 -0.1166 -1.9754  3.3053
  635MOL0     H85659   7.197   8.318   7.832 -2.4848  0.8138  1.7376
  635MOL0     H85660   7.599   8.460   7.915 -1.5390  1.7433 -0.2141
  635MOL0     H85661   7.620   8.290   7.857  2.0904  1.6321  2.5342
  635MOL0     H85662   7.590   8.542   7.676 -2.0588 -0.4146  1.9324
  635MOL0     H85663   7.740   8.483   7.739 -0.7697  0.0392  1.6857
  635MOL0     H85664   7.668   8.252   7.627 -1.7066 -0.9504  0.8477
  635MOL0     H85665   7.529   8.329   7.555 -0.3217 -1.1098  1.0575
  635MOL0     H85666   7.689   8.492   7.438  2.2555  0.6280  0.2773
  635MOL0     H85667   7.823   8.406   7.506 -0.2485 -0.3245 -0.1132
  635MOL0     H85668   7.805   8.333   7.294  1.5589 -1.2979  1.0970
  635MOL0     H85669   7.747   8.200   7.394  1.0594 -0.4718 -2.3808
  635MOL0     H85670   7.515   8.258   7.348  1.0590 -1.0930 -0.2309
  635MOL0     H85671   7.560   8.389   7.234 -0.2400 -0.0032 -0.2088
  635MOL0     H85672   7.719   8.193   7.128  1.6201 -1.7105  1.4426
  635MOL0     H85673   7.602   8.094   7.217 -1.6928  1.0251 -0.1817
  635MOL0     H85674   7.533   8.099   7.004  2.7004  0.7986  0.3247
  635MOL0     H85675   7.568   8.278   6.984  0.5372  0.0145 -0.0723
  635MOL0     H85676   7.299   8.050   7.174 -1.8169  0.0254  1.0909
  635MOL0     H85677   7.050   8.050   7.166 -0.9698  0.1826  2.7843
  635MOL0     H85678   7.040   8.196   7.275  4.6898 -0.4302  0.7059
  635MOL0     H85679   6.934   8.326   7.074 -2.6217  0.4951  1.0085
  635MOL0     H85680   6.840   8.217   7.163 -1.2653  2.1474 -2.1780
  635MOL0     H85681   6.791   8.161   6.944 -0.8987 -2.7804 -0.8212
  635MOL0     H85682   6.886   8.025   6.988  1.7088 -1.1472 -3.6951
  635MOL0     H85683   7.096   8.133   6.888 -0.8769 -2.6903 -0.0958
  635MOL0     H85684   6.992   8.269   6.835  0.5182  0.2746  0.2638
  635MOL0     H85685   6.818   8.279   6.716  2.8669  0.0170 -0.1223
  635MOL0     H85686   6.569   8.335   6.492  1.2467 -3.0511 -0.5916
  635MOL0     H85687   6.490   8.291   6.640  1.4048 -3.1745  1.1749
  635MOL0     H85688   6.647   8.391   6.635  1.3257  0.2798 -0.1248
  635MOL0     H85689   6.208   8.190   6.432 -1.1031 -0.5576  1.7417
  635MOL0     H85690   6.018   8.142   6.279  1.9479  3.1729  3.3377
  635MOL0     H85691   5.807   7.976   6.239 -4.1245 -1.0251 -1.6667
  635MOL0     H85692   5.874   8.077   6.105  2.3901 -1.2112 -0.7083
  635MOL0     H85693   5.803   7.845   5.969 -4.7240  0.6787 -3.0653
  635MOL0     H85694   5.701   7.833   6.103 -3.8559  1.8383 -1.0098
  635MOL0     H85695   5.733   8.040   5.904  1.2537 -1.1444 -0.0703
  635MOL0     H85696   5.620   8.087   6.028 -1.1627 -0.1801 -0.3630
  635MOL0     H85697   5.564   7.824   5.877  0.0747  1.8224 -1.7379
  635MOL0     H85698   5.463   7.899   5.998 -0.9411 -4.3700  0.9250
  635MOL0     H85699   5.536   8.025   5.722  0.5835  1.4707  0.4204
  635MOL0     H85700   5.451   8.101   5.850 -1.7257  0.3488 -1.1414
  635MOL0     H85701   5.361   7.842   5.708 -1.0052  1.1454 -1.8704
  635MOL0     H85702   5.281   7.922   5.848  0.1232  2.2932 -0.0770
  635MOL0     H85703   5.343   8.081   5.591  0.9853 -1.0762 -0.1552
  635MOL0     H85704   5.211   8.094   5.717 -2.8885 -1.4712  0.1354
  635MOL0     H85705   5.125   7.868   5.633 -0.2046 -1.4724 -1.1612
  635MOL0     H85706   5.202   7.916   5.468  3.7223  0.6379  1.1656
  635MOL0     H85707   6.157   7.747   6.203  0.2094  0.2632 -1.3059
  635MOL0     H85708   6.338   7.783   6.381  2.6269  2.5437  1.0659
  635MOL0     H85709   6.675   7.869   6.472 -3.8653  2.3666 -1.0679
  635MOL0     H85710   6.890   7.880   6.611 -1.2841 -1.3205 -0.0620
  635MOL0     H85711   7.536   8.357   8.087 -0.2811 -1.9031 -0.0862
  635MOL0     H85712   7.384   8.389   8.278  2.0809 -0.7415 -0.3622
  635MOL0     H85713   7.069   8.252   8.494 -0.2094  0.3593 -0.8920
  635MOL0     H85714   6.930   8.232   8.680  0.4144 -0.3582  0.5581
  635MOL0     H85715   6.839   8.255   8.881  1.2326  2.9575 -1.6329
  635MOL0     H85716   6.737   8.365   8.968 -0.4409  1.0137  0.1953
  635MOL0     H85717   6.650   8.134   8.917 -0.9439 -1.0165 -1.9837
  635MOL0     H85718   6.629   8.172   8.749  2.1198 -2.8172  0.6044
  635MOL0     H85719   6.420   8.215   8.828  0.9649 -0.1647 -0.1047
  635MOL0     H85720   6.490   8.369   8.803  0.8759  2.0167  1.1293
  635MOL0     H85721   6.508   8.410   9.042  0.3935 -0.0638 -0.3019
  635MOL0     H85722   6.480   8.238   9.082 -0.3900 -1.8539 -1.2811
  635MOL0     H85723   6.079   8.371   8.998 -0.6085 -0.7551  4.2309
  635MOL0     H85724   6.683   8.555   8.585 -0.1551  0.6189  1.9936
  635MOL0     H85725   6.803   8.574   8.362  0.0889  0.2447 -0.8730
  636MOL0     O85726   6.835   2.599   8.414  0.0418 -0.2534  0.3417
  636MOL0     C85727   6.793   2.575   8.301  0.1157  0.2575 -0.4070
  636MOL0     O85728   6.850   2.611   8.181  0.0009 -0.1790 -0.2637
  636MOL0     C85729   6.967   2.682   8.190 -0.1845  0.4780  0.3323
  636MOL0     C85730   6.958   2.825   8.180  0.3572 -1.1110 -0.7688
  636MOL0     C85731   7.075   2.903   8.189  1.4122  0.2537 -1.1857
  636MOL0     C85732   7.195   2.836   8.205  0.0716  0.3137  0.3491
  636MOL0     O85733   7.301   2.924   8.213  0.3927  0.5254  0.6596
  636MOL0     C85734   7.440   2.885   8.216  0.3383  0.0625 -0.1563
  636MOL0     C85735   7.517   3.018   8.249  0.2250 -0.4282  0.1919
  636MOL0     C85736   7.510   3.124   8.130  0.4685  0.8281 -0.0879
  636MOL0     C85737   7.390   3.225   8.135  0.5888 -0.5238  0.2806
  636MOL0     C85738   7.417   3.369   8.086  0.1843 -0.8119  0.3322
  636MOL0     C85739   7.279   3.453   8.110  0.4813  0.0065 -0.5203
  636MOL0     C85740   7.290   3.585   8.039  0.4598 -0.8029  0.2716
  636MOL0     C85741   7.151   3.648   8.059 -0.5054  0.0611  0.0920
  636MOL0     N85742   7.159   3.781   8.012  0.2862 -0.4360  0.5052
  636MOL0     C85743   7.161   3.816   7.880 -0.7276  0.7761 -0.8212
  636MOL0     C85744   7.142   3.946   7.884 -0.0780 -0.2290 -0.8337
  636MOL0     C85745   7.157   4.024   7.754 -1.0068  0.5200 -0.4588
  636MOL0     C85746   7.016   4.062   7.698 -0.7169 -0.1290  1.2726
  636MOL0     C85747   7.010   4.107   7.549 -0.2934  0.0785 -0.1793
  636MOL0     C85748   6.883   4.194   7.526  0.4243  0.8322  0.6210
  636MOL0     O85749   6.776   4.107   7.505 -0.1777  0.8995 -0.6310
  636MOL0     C85750   6.666   4.149   7.438 -0.1919 -0.6091 -0.6407
  636MOL0     C85751   6.650   4.277   7.395 -0.1989  0.0958 -0.3815
  636MOL0     C85752   6.543   4.315   7.313  0.4559 -0.0872 -0.4352
  636MOL0     C85753   6.538   4.462   7.260  0.0364 -0.1546 -0.0255
  636MOL0     C85754   6.447   4.219   7.282  0.3258  0.7578  0.0416
  636MOL0     C85755   6.327   4.249   7.198 -0.3001  0.4139  1.1274
  636MOL0     O85756   6.246   4.145   7.170 -0.3730 -0.6136  0.3391
  636MOL0     C85757   6.113   4.181   7.141 -0.3935  0.9625 -0.8964
  636MOL0     C85758   6.024   4.208   7.248  0.9770  0.5905  0.3658
  636MOL0     C85759   5.897   4.257   7.222  0.4402  0.9669  0.1590
  636MOL0     C85760   5.846   4.262   7.090  0.1400 -0.1381 -0.6780
  636MOL0     O85761   5.720   4.302   7.068 -0.2478 -0.1396  0.2920
  636MOL0     C85762   5.645   4.388   7.144  1.1588  0.7583 -0.0047
  636MOL0     C85763   5.495   4.399   7.089 -0.1338  0.4801 -0.2086
  636MOL0     C85764   5.399   4.476   7.180  0.5166 -0.2334 -0.1529
  636MOL0     C85765   5.415   4.630   7.151 -0.2296 -0.3161  0.2733
  636MOL0     C85766   5.337   4.713   7.254  0.2929  0.1589  0.0409
  636MOL0     C85767   5.191   4.692   7.233  0.0514  0.2320 -1.1382
  636MOL0     C85768   5.113   4.782   7.323  0.0401 -0.3720 -0.8077
  636MOL0     C85769   4.965   4.744   7.323  0.4488 -0.7479 -1.1770
  636MOL0    Cl85770   4.866   4.874   7.401 -0.0521  0.0872 -0.1319
  636MOL0     C85771   5.929   4.211   6.988 -0.7450 -0.4289  1.0496
  636MOL0     C85772   6.057   4.170   7.016  0.3567 -0.7846  0.7874
  636MOL0     O85773   6.306   4.366   7.161 -0.0363  0.4111 -0.3423
  636MOL0     C85774   6.467   4.093   7.328  0.7137 -0.0905 -0.9344
  636MOL0     C85775   6.567   4.057   7.411  0.2535 -0.6665  0.4305
  636MOL0     N85776   7.141   3.998   8.012 -0.4227 -0.4320 -0.6046
  636MOL0     N85777   7.148   3.896   8.094  0.2957 -0.0994 -0.4120
  636MOL0     C85778   7.208   2.698   8.197  0.8209 -0.5568  0.3528
  636MOL0     C85779   7.092   2.618   8.196  0.2308 -0.0060 -0.2495
  636MOL0     C85780   6.665   2.508   8.281 -0.2704  0.2392  0.0653
  636MOL0     C85781   6.572   2.507   8.382 -0.0489  0.1916 -0.5050
  636MOL0     C85782   6.451   2.443   8.371 -0.2382  0.0696  1.0371
  636MOL0     C85783   6.418   2.363   8.258  0.0900  0.0321 -0.2632
  636MOL0     O85784   6.303   2.277   8.252 -0.6768  0.3171 -0.0737
  636MOL0     C85785   6.228   2.266   8.372 -0.1474 -0.3077 -0.3594
  636MOL0     C85786   6.114   2.154   8.356 -0.4245 -1.2971  0.2977
  636MOL0     C85787   6.038   2.183   8.221  0.2169 -0.0346  0.2959
  636MOL0     C85788   5.913   2.095   8.226  0.4759 -0.8130 -0.6452
  636MOL0     C85789   5.810   2.135   8.331 -0.1680 -0.2854 -0.1997
  636MOL0     C85790   5.711   2.156   8.402 -0.0640 -0.0922  0.1008
  636MOL0     C85791   6.513   2.359   8.156 -0.0094  0.2905  0.0338
  636MOL0     C85792   6.635   2.435   8.165  0.6120 -0.4092 -0.2149
  636MOL0     H85793   6.870   2.885   8.160 -0.2928 -1.5846  0.5296
  636MOL0     H85794   7.073   3.011   8.179  0.4977  0.2380 -1.2562
  636MOL0     H85795   7.455   2.814   8.298 -3.0527 -2.8910 -1.7848
  636MOL0     H85796   7.462   2.825   8.127  1.0900 -0.6142  0.4730
  636MOL0     H85797   7.483   3.064   8.342 -1.0438  0.0485 -0.4866
  636MOL0     H85798   7.625   3.003   8.249 -0.0216 -2.5954  1.3949
  636MOL0     H85799   7.595   3.188   8.153  1.3032 -1.1993  3.0791
  636MOL0     H85800   7.527   3.091   8.027  2.3801  2.2805 -0.2866
  636MOL0     H85801   7.314   3.174   8.075  1.9722 -1.5160 -0.6734
  636MOL0     H85802   7.345   3.227   8.235  2.9642  0.2936  1.4111
  636MOL0     H85803   7.493   3.411   8.151  2.3686  0.4686 -2.7995
  636MOL0     H85804   7.452   3.371   7.982  0.7546  1.4107  0.5210
  636MOL0     H85805   7.185   3.404   8.084  0.7841 -0.9394  0.0929
  636MOL0     H85806   7.272   3.469   8.218 -1.6635 -0.9824 -0.4641
  636MOL0     H85807   7.376   3.642   8.076  0.6213 -1.7413  1.3988
  636MOL0     H85808   7.304   3.559   7.934 -0.0109 -1.3822  0.3471
  636MOL0     H85809   7.129   3.645   8.167  0.7939  2.2486  0.4720
  636MOL0     H85810   7.063   3.592   8.025 -0.7571 -0.7244  1.9233
  636MOL0     H85811   7.175   3.749   7.796 -2.0362  0.6202 -0.9436
  636MOL0     H85812   7.221   4.112   7.770 -1.2130  0.7534 -0.8839
  636MOL0     H85813   7.219   3.969   7.683 -0.5921  0.5424 -0.1172
  636MOL0     H85814   6.986   4.140   7.769 -0.5672 -0.0519  1.2499
  636MOL0     H85815   6.952   3.976   7.716 -1.9269  0.4855  0.0639
  636MOL0     H85816   7.011   4.031   7.471  0.5415  0.0092 -0.1146
  636MOL0     H85817   7.100   4.163   7.523 -0.3973 -0.5186 -1.9695
  636MOL0     H85818   6.895   4.246   7.431 -0.1672 -0.8842 -0.4297
  636MOL0     H85819   6.865   4.267   7.606 -0.3842  1.9280 -0.5214
  636MOL0     H85820   6.718   4.356   7.426  2.4048 -1.9700 -0.4793
  636MOL0     H85821   6.450   4.515   7.296 -1.8043 -2.8831 -0.1721
  636MOL0     H85822   6.631   4.513   7.288 -0.2973 -0.5071  1.8453
  636MOL0     H85823   6.529   4.447   7.152  1.3431  2.3838 -0.5750
  636MOL0     H85824   6.057   4.208   7.351  3.0704  1.0455 -0.2645
  636MOL0     H85825   5.832   4.272   7.307  0.9783  0.3093  0.6994
  636MOL0     H85826   5.642   4.345   7.244  1.2409 -2.1369 -1.1398
  636MOL0     H85827   5.692   4.487   7.136  0.0964  1.1393 -2.8790
  636MOL0     H85828   5.501   4.440   6.988 -2.7863 -2.4213 -1.7254
  636MOL0     H85829   5.446   4.301   7.090 -0.7927  0.7994  0.9272
  636MOL0     H85830   5.411   4.450   7.285 -2.2699 -1.0575  0.0496
  636MOL0     H85831   5.299   4.437   7.159  0.9206 -2.2244  1.2342
  636MOL0     H85832   5.520   4.654   7.170 -0.2174 -1.1745  1.3900
  636MOL0     H85833   5.386   4.643   7.047  2.2091  1.9888 -0.2274
  636MOL0     H85834   5.349   4.822   7.250 -0.8622  0.3099  0.2351
  636MOL0     H85835   5.370   4.678   7.352 -0.4487  0.2815  0.3363
  636MOL0     H85836   5.168   4.714   7.128 -1.4747  1.4815 -0.5809
  636MOL0     H85837   5.171   4.587   7.256 -0.0365 -0.3590 -3.6292
  636MOL0     H85838   5.125   4.886   7.293 -0.1107  0.4116  1.6773
  636MOL0     H85839   5.153   4.776   7.425  1.4692 -1.5507 -1.3888
  636MOL0     H85840   4.951   4.652   7.381 -0.5147  1.4969  2.4769
  636MOL0     H85841   4.935   4.730   7.219 -1.6008  2.5542 -1.1597
  636MOL0     H85842   5.884   4.210   6.889 -0.4529 -2.5949  0.8780
  636MOL0     H85843   6.112   4.138   6.928 -1.7133 -2.9043  0.1433
  636MOL0     H85844   6.401   4.017   7.287  0.8074 -1.2168  0.8421
  636MOL0     H85845   6.581   3.956   7.448 -0.2623 -0.6705  0.6319
  636MOL0     H85846   7.302   2.644   8.204  2.4752  1.7136 -2.3973
  636MOL0     H85847   7.098   2.511   8.210  0.4194  0.2811  2.2624
  636MOL0     H85848   6.594   2.556   8.476 -0.9351  0.2239 -0.3024
  636MOL0     H85849   6.379   2.455   8.451 -0.6576  1.1651  0.5243
  636MOL0     H85850   6.297   2.234   8.451  0.9163 -0.4145 -1.3015
  636MOL0     H85851   6.180   2.361   8.396  0.1138  0.0591 -1.2416
  636MOL0     H85852   6.045   2.161   8.440 -1.8907 -4.2084 -0.5504
  636MOL0     H85853   6.157   2.053   8.353 -0.8846 -1.4753 -1.0139
  636MOL0     H85854   6.105   2.151   8.139  2.9012 -0.3952  2.4696
  636MOL0     H85855   6.013   2.288   8.202 -0.3427 -0.2742 -0.3459
  636MOL0     H85856   5.933   1.990   8.251  0.5348 -0.5418  0.5265
  636MOL0     H85857   5.873   2.102   8.125 -2.5389 -0.1886  0.4635
  636MOL0     H85858   5.624   2.186   8.456  1.2509 -0.6486  2.7010
  636MOL0     H85859   6.487   2.291   8.075 -0.9266  0.5393  0.1060
  636MOL0     H85860   6.710   2.411   8.091  0.4424 -1.3242 -0.1020
  637MOL0     O85861   2.189   4.773   2.064 -0.0851  0.4703  0.0927
  637MOL0     C85862   2.279   4.798   1.984  0.1578  0.3394  0.5778
  637MOL0     O85863   2.410   4.760   1.996  0.7337 -0.7618  0.2224
  637MOL0     C85864   2.448   4.693   2.106  0.4429 -0.7431 -0.3203
  637MOL0     C85865   2.516   4.569   2.088 -0.6619 -0.0766  0.8488
  637MOL0     C85866   2.573   4.503   2.198 -0.1072  0.0273  0.0288
  637MOL0     C85867   2.551   4.541   2.334  0.3148 -0.0052  0.5214
  637MOL0     O85868   2.610   4.465   2.437 -0.0143  0.2666 -0.2100
  637MOL0     C85869   2.614   4.538   2.560 -0.6813  0.5859  0.2500
  637MOL0     C85870   2.693   4.451   2.660  0.1568  0.0655  0.1884
  637MOL0     C85871   2.617   4.324   2.691 -0.7194 -0.0666  0.3885
  637MOL0     C85872   2.684   4.250   2.805  0.4724 -0.7375  0.1797
  637MOL0     C85873   2.597   4.126   2.843  0.5898  1.0480 -0.3302
  637MOL0     C85874   2.637   4.067   2.980  0.9482  0.2244 -0.7345
  637MOL0     C85875   2.539   3.953   3.017 -0.3282  0.1735  0.0080
  637MOL0     C85876   2.554   3.831   2.925 -0.4078 -0.6738 -0.1774
  637MOL0     N85877   2.464   3.735   2.982 -0.0611  0.5387 -0.2647
  637MOL0     C85878   2.330   3.735   2.968  0.2601  0.4367  0.5514
  637MOL0     C85879   2.297   3.636   3.055  0.0976  0.0041 -0.0149
  637MOL0     C85880   2.158   3.586   3.095 -0.0499  0.2755  0.6621
  637MOL0     C85881   2.088   3.510   2.981 -0.1132 -0.1342  0.7269
  637MOL0     C85882   1.950   3.457   3.024  0.0309  0.2281  0.6983
  637MOL0     C85883   1.865   3.412   2.901 -0.8374  0.2623  1.2923
  637MOL0     O85884   1.741   3.376   2.954  0.2980  0.1518 -0.4745
  637MOL0     C85885   1.647   3.333   2.864 -0.5728 -0.3919  0.0494
  637MOL0     C85886   1.656   3.345   2.730 -0.1319  0.6370  0.4804
  637MOL0     C85887   1.558   3.290   2.643  0.9150 -0.7159 -0.6689
  637MOL0     C85888   1.570   3.306   2.492 -0.4492 -0.4777  0.0051
  637MOL0     C85889   1.440   3.239   2.704  1.0016  0.1406  0.8967
  637MOL0     C85890   1.316   3.203   2.627 -0.0192  0.3580 -0.0942
  637MOL0     O85891   1.223   3.135   2.699  0.0918  0.6708 -0.0830
  637MOL0     C85892   1.091   3.122   2.668 -0.2228 -0.2886 -0.0434
  637MOL0     C85893   1.026   3.204   2.578  1.1033 -0.1260 -0.2931
  637MOL0     C85894   0.889   3.187   2.555 -0.4312  0.2505 -0.8161
  637MOL0     C85895   0.825   3.083   2.622  0.3582  0.0117 -0.6039
  637MOL0     O85896   0.689   3.073   2.598 -0.3965  0.0702  0.5015
  637MOL0     C85897   0.596   3.031   2.707  0.0250  0.0614 -0.2485
  637MOL0     C85898   0.450   3.031   2.674  0.5156  0.5367 -0.0520
  637MOL0     C85899   0.424   2.889   2.625 -0.0855  0.6913  1.0613
  637MOL0     C85900   0.271   2.857   2.610  0.6641  0.6494 -0.5855
  637MOL0     C85901   0.266   2.708   2.571 -0.0018  0.2572 -0.3058
  637MOL0     C85902   0.117   2.674   2.587 -0.3388  0.3239  0.0188
  637MOL0     C85903   0.093   2.522   2.556 -0.1823  0.6754  0.5112
  637MOL0     C85904  -0.043   2.470   2.624  0.1015  0.2325 -0.0987
  637MOL0    Cl85905  -0.171   2.503   2.491 -0.1103 -0.2974  0.2584
  637MOL0     C85906   0.888   3.011   2.716 -0.1927 -0.5624 -0.3659
  637MOL0     C85907   1.021   3.023   2.735 -0.3109 -0.7677  0.8869
  637MOL0     O85908   1.316   3.216   2.508  0.0769 -0.2277  0.3347
  637MOL0     C85909   1.432   3.224   2.843  0.8460 -0.0795 -0.2111
  637MOL0     C85910   1.537   3.274   2.919  0.5297  0.4594 -0.5619
  637MOL0     N85911   2.408   3.576   3.110  0.7093 -0.0270 -0.3058
  637MOL0     N85912   2.510   3.650   3.078  0.4164 -0.4693  0.6328
  637MOL0     C85913   2.467   4.654   2.344  1.0413 -0.8184 -0.3197
  637MOL0     C85914   2.433   4.734   2.236  1.1454 -0.2348 -0.1735
  637MOL0     C85915   2.240   4.871   1.864 -1.3465  0.0428  0.4673
  637MOL0     C85916   2.113   4.901   1.829 -0.0674  0.0057  0.0142
  637MOL0     C85917   2.079   4.957   1.710 -0.1101 -0.2195  0.3738
  637MOL0     C85918   2.175   4.998   1.616 -0.0774 -0.4181 -0.3060
  637MOL0     O85919   2.138   5.070   1.507 -0.3269 -0.3927  0.1666
  637MOL0     C85920   2.234   5.075   1.398 -0.3129 -0.2778  0.0313
  637MOL0     C85921   2.192   5.174   1.297 -0.0946  0.3494  0.1319
  637MOL0     C85922   2.064   5.129   1.236  0.6184  0.0011 -0.2632
  637MOL0     C85923   1.950   5.222   1.269  0.2534  0.7286  0.0736
  637MOL0     C85924   1.925   5.237   1.419  0.1498 -0.5706  0.0452
  637MOL0     C85925   1.903   5.257   1.535 -0.4532  0.1627  0.0864
  637MOL0     C85926   2.311   4.982   1.661  0.1837 -0.0981 -0.0618
  637MOL0     C85927   2.346   4.917   1.783  0.7411  0.9185 -0.4615
  637MOL0     H85928   2.518   4.527   1.988  3.3160 -0.2467  0.8290
  637MOL0     H85929   2.630   4.414   2.171 -2.5691 -2.0161  1.1290
  637MOL0     H85930   2.662   4.635   2.546 -1.2287  0.6922 -0.9475
  637MOL0     H85931   2.513   4.564   2.592 -2.5827  0.1414 -4.5550
  637MOL0     H85932   2.794   4.432   2.624 -0.6084 -3.6695 -0.3850
  637MOL0     H85933   2.719   4.503   2.752  1.1790 -0.0721 -0.0060
  637MOL0     H85934   2.510   4.343   2.706 -1.4525 -0.8147 -2.9742
  637MOL0     H85935   2.626   4.261   2.601 -0.8903 -2.2540  1.8242
  637MOL0     H85936   2.783   4.220   2.769  0.6466  1.4964 -1.4577
  637MOL0     H85937   2.688   4.318   2.890  1.0517 -1.0798  0.4281
  637MOL0     H85938   2.492   4.159   2.847 -0.0909 -0.9659 -0.2100
  637MOL0     H85939   2.595   4.052   2.763  1.6711  2.5078 -1.7598
  637MOL0     H85940   2.739   4.028   2.985  0.8347  0.0978  1.9178
  637MOL0     H85941   2.627   4.136   3.064 -1.8620  0.1504 -0.9122
  637MOL0     H85942   2.572   3.917   3.115  0.1714 -0.6513 -0.4534
  637MOL0     H85943   2.438   3.994   3.029 -0.8988 -1.3696  0.5985
  637MOL0     H85944   2.658   3.799   2.925 -0.0892  0.2606 -1.6764
  637MOL0     H85945   2.524   3.835   2.820 -0.8640 -1.9821 -0.1216
  637MOL0     H85946   2.259   3.792   2.909  0.3624  0.6430  0.6286
  637MOL0     H85947   2.182   3.511   3.170  4.5787 -0.2858 -1.0205
  637MOL0     H85948   2.097   3.671   3.128 -1.5851  0.9973 -3.5102
  637MOL0     H85949   2.150   3.425   2.953 -1.1923  0.0576 -2.7016
  637MOL0     H85950   2.076   3.579   2.897  0.3172 -2.1108 -1.0090
  637MOL0     H85951   1.894   3.534   3.078 -0.0265 -0.2055  1.2554
  637MOL0     H85952   1.977   3.367   3.080  0.8927 -0.0695 -0.1588
  637MOL0     H85953   1.897   3.317   2.857 -0.8095  1.4917 -1.5034
  637MOL0     H85954   1.868   3.482   2.817 -1.8866 -3.4221 -2.0962
  637MOL0     H85955   1.741   3.388   2.679 -1.6210 -1.0599 -3.9090
  637MOL0     H85956   1.518   3.229   2.434 -1.6078 -2.6103  3.6023
  637MOL0     H85957   1.538   3.402   2.449 -0.8794 -0.9175 -0.6913
  637MOL0     H85958   1.671   3.292   2.453 -0.5467  0.0823 -0.4762
  637MOL0     H85959   1.077   3.281   2.522  0.2070 -0.0885 -1.0730
  637MOL0     H85960   0.847   3.236   2.468  2.1026  0.8043 -1.8338
  637MOL0     H85961   0.625   2.930   2.734  1.2809  0.2756 -0.7327
  637MOL0     H85962   0.614   3.102   2.788 -0.2428  1.4567 -1.3660
  637MOL0     H85963   0.401   3.051   2.770  0.7305 -1.0694  0.4123
  637MOL0     H85964   0.428   3.109   2.600  0.1586 -0.1468 -0.6723
  637MOL0     H85965   0.465   2.816   2.696  1.1539 -1.4383 -1.6698
  637MOL0     H85966   0.464   2.882   2.523 -1.0018 -0.1942  0.7541
  637MOL0     H85967   0.219   2.868   2.706 -0.9163 -0.8011 -1.2301
  637MOL0     H85968   0.226   2.914   2.528  0.6995 -0.0281 -1.0827
  637MOL0     H85969   0.322   2.638   2.633 -0.9958 -1.1292 -0.9186
  637MOL0     H85970   0.302   2.695   2.468  2.4185 -1.8370  0.7229
  637MOL0     H85971   0.079   2.691   2.688 -0.7877 -0.6931  0.0318
  637MOL0     H85972   0.064   2.737   2.515 -0.0651 -0.0999 -0.5576
  637MOL0     H85973   0.178   2.470   2.602 -0.6521  1.1990  2.0635
  637MOL0     H85974   0.084   2.508   2.448  0.4474  2.1062  0.2562
  637MOL0     H85975  -0.079   2.521   2.715 -2.5872 -2.1786  0.3421
  637MOL0     H85976  -0.043   2.362   2.642 -0.2147  0.0162 -1.3221
  637MOL0     H85977   0.834   2.940   2.778  1.3120 -2.1970 -0.8405
  637MOL0     H85978   1.070   2.960   2.809  1.4942  0.6729  0.9715
  637MOL0     H85979   1.347   3.182   2.896  1.6509 -2.5131 -0.7337
  637MOL0     H85980   1.534   3.276   3.027 -3.6976 -2.0164 -0.3914
  637MOL0     H85981   2.444   4.691   2.444  3.1168  0.2961 -0.1999
  637MOL0     H85982   2.379   4.828   2.244 -0.3269 -1.0502 -0.1150
  637MOL0     H85983   2.042   4.849   1.893 -0.2576 -1.2700 -1.1794
  637MOL0     H85984   1.974   4.963   1.685 -0.2555 -5.1721 -1.2620
  637MOL0     H85985   2.334   5.107   1.427 -0.1699 -2.7827  2.7559
  637MOL0     H85986   2.246   4.975   1.354 -0.6404  0.0880 -0.9231
  637MOL0     H85987   2.273   5.157   1.225 -0.3690  0.6049 -0.2375
  637MOL0     H85988   2.205   5.279   1.326 -1.8159  0.6345 -0.0196
  637MOL0     H85989   2.044   5.027   1.269 -0.3178 -0.1609 -1.2730
  637MOL0     H85990   2.067   5.121   1.127  0.9406  2.4409 -0.4956
  637MOL0     H85991   1.856   5.193   1.222  1.1191 -2.0837 -0.0856
  637MOL0     H85992   1.983   5.320   1.233  0.3574  1.4620  2.0422
  637MOL0     H85993   1.881   5.272   1.638  1.5385  0.1990  0.5514
  637MOL0     H85994   2.393   5.028   1.607  0.3915 -0.9947 -0.5148
  637MOL0     H85995   2.450   4.895   1.804  0.8668  2.2284  0.3472
  638MOL0     O85996   7.000   5.444   5.922 -0.4407  0.3077  0.3249
  638MOL0     C85997   7.080   5.370   5.978  0.4019  0.1476  0.5687
  638MOL0     O85998   7.055   5.292   6.086 -0.0821  0.0845 -0.0277
  638MOL0     C85999   6.926   5.294   6.136 -0.2429 -0.3699  0.2783
  638MOL0     C86000   6.833   5.223   6.070 -0.1699  0.2372 -0.0815
  638MOL0     C86001   6.698   5.207   6.115  0.6370 -0.4565  0.0012
  638MOL0     C86002   6.665   5.255   6.237  0.1787 -0.9549  0.6070
  638MOL0     O86003   6.538   5.255   6.295  0.2197  0.2815 -0.1297
  638MOL0     C86004   6.435   5.163   6.255  0.4809 -0.8741 -1.6552
  638MOL0     C86005   6.319   5.201   6.357  0.3229 -0.0123  0.1590
  638MOL0     C86006   6.195   5.124   6.316  0.5313  0.0307 -0.4866
  638MOL0     C86007   6.080   5.126   6.425  0.5094  0.0321 -0.1276
  638MOL0     C86008   5.993   5.003   6.387 -0.6005 -0.3448 -0.9100
  638MOL0     C86009   5.860   5.015   6.457  0.8709  0.6761  0.3191
  638MOL0     C86010   5.769   4.903   6.406 -0.0746 -0.3096  0.1010
  638MOL0     C86011   5.618   4.922   6.425 -0.0661 -0.6639 -0.6102
  638MOL0     N86012   5.544   4.838   6.330  0.8338 -0.4424  0.0035
  638MOL0     C86013   5.531   4.699   6.330  0.1646  0.4175  0.4300
  638MOL0     C86014   5.449   4.669   6.225 -0.0242 -0.1595 -0.2286
  638MOL0     C86015   5.415   4.526   6.183  0.2178 -0.6280 -0.5103
  638MOL0     C86016   5.266   4.514   6.146  0.0407 -0.4024  0.0285
  638MOL0     C86017   5.165   4.562   6.249  0.3436  0.2710  0.7233
  638MOL0     C86018   5.024   4.512   6.213  0.2091 -0.8995  0.6046
  638MOL0     O86019   4.961   4.583   6.112  0.4696 -0.1926 -0.1995
  638MOL0     C86020   4.832   4.547   6.086 -0.0437 -0.5046  0.3460
  638MOL0     C86021   4.814   4.441   5.999  0.0097  1.3484 -0.0903
  638MOL0     C86022   4.687   4.388   5.967 -0.0548 -0.5046 -0.1046
  638MOL0     C86023   4.691   4.258   5.878  0.4312 -0.1970 -0.1127
  638MOL0     C86024   4.572   4.450   6.018 -1.0064 -0.4368 -1.2419
  638MOL0     C86025   4.436   4.399   5.996  0.0979 -0.1980 -0.2068
  638MOL0     O86026   4.336   4.474   6.049 -0.0130  0.2423 -0.1881
  638MOL0     C86027   4.205   4.439   6.030  0.7267  0.3165 -0.2002
  638MOL0     C86028   4.131   4.479   5.921  0.5001 -0.4588 -0.2629
  638MOL0     C86029   3.995   4.456   5.901 -0.2115 -0.1756  0.2815
  638MOL0     C86030   3.925   4.382   6.001 -0.0442  0.2873 -0.1077
  638MOL0     O86031   3.794   4.355   5.969 -0.4892  0.3927  0.2366
  638MOL0     C86032   3.705   4.306   6.075  0.3091 -0.0291 -1.1430
  638MOL0     C86033   3.562   4.339   6.052 -0.2385 -0.2429 -0.6219
  638MOL0     C86034   3.537   4.491   6.045 -0.1210  0.3134  0.1404
  638MOL0     C86035   3.547   4.554   5.900  0.1492  0.7606 -0.6889
  638MOL0     C86036   3.531   4.705   5.918  0.4281 -0.0368 -0.0970
  638MOL0     C86037   3.381   4.748   5.924 -0.2414  0.7136  0.1596
  638MOL0     C86038   3.373   4.889   5.957  0.3017 -0.1990  0.4459
  638MOL0     C86039   3.359   4.984   5.848 -0.1054  0.5709  0.2914
  638MOL0    Cl86040   3.191   5.009   5.797 -0.3027 -0.1645 -0.5249
  638MOL0     C86041   3.984   4.342   6.116 -0.1095 -0.1061 -0.8328
  638MOL0     C86042   4.132   4.371   6.132  1.1159  0.3512 -0.0295
  638MOL0     O86043   4.420   4.295   5.935  0.0813  0.1683 -0.1657
  638MOL0     C86044   4.592   4.567   6.102  0.0111  0.6941 -0.1051
  638MOL0     C86045   4.720   4.614   6.136 -0.2777  0.4998  0.0124
  638MOL0     N86046   5.421   4.787   6.163  0.6286  0.3348 -0.0029
  638MOL0     N86047   5.477   4.887   6.223 -0.4000 -1.1482  0.1694
  638MOL0     C86048   6.758   5.320   6.317 -0.7928  0.4852  0.0916
  638MOL0     C86049   6.896   5.340   6.268  0.4073  0.4206  0.2165
  638MOL0     C86050   7.214   5.384   5.936  0.0949  0.3185  0.2443
  638MOL0     C86051   7.318   5.327   6.003  0.1194 -0.7110 -0.4290
  638MOL0     C86052   7.454   5.333   5.966 -0.2510  0.0786 -0.5174
  638MOL0     C86053   7.489   5.378   5.836  0.3758 -0.7894 -0.2103
  638MOL0     O86054   7.619   5.386   5.788 -0.8573  0.2648 -0.0714
  638MOL0     C86055   7.660   5.270   5.715  0.1099  0.0036  0.3122
  638MOL0     C86056   7.675   5.143   5.802 -0.3614  0.0004  0.1500
  638MOL0     C86057   7.806   5.126   5.877  0.1437 -0.5424  0.7022
  638MOL0     C86058   7.810   5.023   5.990 -0.1664 -0.4373  0.4411
  638MOL0     C86059   7.911   5.056   6.101 -0.2396  0.2525 -0.9472
  638MOL0     C86060   7.988   5.059   6.188  0.9811 -0.6035 -0.1077
  638MOL0     C86061   7.381   5.442   5.762 -0.3446  0.8598  0.4250
  638MOL0     C86062   7.253   5.442   5.820 -0.0974  0.3480 -1.0161
  638MOL0     H86063   6.856   5.184   5.971 -1.1924 -0.5052 -0.0410
  638MOL0     H86064   6.631   5.141   6.061 -0.8627 -0.5971  1.9306
  638MOL0     H86065   6.398   5.170   6.152 -2.2706  3.5452 -0.6588
  638MOL0     H86066   6.470   5.062   6.275  1.5796  0.1891  2.9035
  638MOL0     H86067   6.341   5.166   6.458 -0.6202 -2.0317 -0.2966
  638MOL0     H86068   6.298   5.308   6.347 -1.2122 -0.4274 -1.4081
  638MOL0     H86069   6.154   5.154   6.219 -0.8704  0.7315  0.2956
  638MOL0     H86070   6.235   5.022   6.314 -0.4755 -0.3630 -1.5919
  638MOL0     H86071   6.135   5.114   6.519 -0.9549  0.2857  0.7899
  638MOL0     H86072   6.029   5.222   6.429 -0.5346 -0.5570  1.6763
  638MOL0     H86073   5.985   4.991   6.279 -0.0185 -0.6287 -0.9261
  638MOL0     H86074   6.030   4.906   6.423 -0.3901  1.1167  3.4411
  638MOL0     H86075   5.863   5.007   6.566  2.5119  0.8069  0.3051
  638MOL0     H86076   5.822   5.110   6.418  3.3354  1.7488  0.3095
  638MOL0     H86077   5.788   4.886   6.300 -0.8335 -3.8299  0.4037
  638MOL0     H86078   5.801   4.811   6.457 -2.7246 -1.5516 -0.3343
  638MOL0     H86079   5.598   5.026   6.398  0.3392 -0.4484 -0.0905
  638MOL0     H86080   5.589   4.910   6.530  1.5553 -1.4080 -0.2249
  638MOL0     H86081   5.586   4.636   6.399 -1.4646 -1.5734 -0.0009
  638MOL0     H86082   5.474   4.486   6.100  0.3972 -2.0026  0.2623
  638MOL0     H86083   5.423   4.459   6.269 -2.1148 -0.1569  0.1483
  638MOL0     H86084   5.250   4.407   6.129 -2.0320 -0.8771  3.7409
  638MOL0     H86085   5.253   4.572   6.055  1.6911  1.3551  0.8501
  638MOL0     H86086   5.173   4.671   6.253 -1.5067  0.4580  0.2458
  638MOL0     H86087   5.197   4.528   6.348  3.0646  1.5746  0.3770
  638MOL0     H86088   4.964   4.529   6.303 -0.2913  1.7291 -0.1586
  638MOL0     H86089   5.024   4.406   6.187  0.5524 -1.1147  1.4414
  638MOL0     H86090   4.897   4.387   5.955 -1.0042 -1.3207  1.0725
  638MOL0     H86091   4.633   4.282   5.788  3.3006  0.2944 -1.9730
  638MOL0     H86092   4.795   4.240   5.850  0.4090 -0.4520 -0.0283
  638MOL0     H86093   4.640   4.169   5.917 -0.4367  0.9151  1.4307
  638MOL0     H86094   4.179   4.527   5.836 -1.3124 -0.0192 -1.0883
  638MOL0     H86095   3.944   4.498   5.815  2.5611  0.3807 -1.1842
  638MOL0     H86096   3.696   4.197   6.075 -3.7587  0.0812  1.3161
  638MOL0     H86097   3.728   4.350   6.172 -0.3986 -0.0105 -0.9781
  638MOL0     H86098   3.542   4.294   5.954 -2.2452  1.5389 -1.1049
  638MOL0     H86099   3.495   4.297   6.127 -0.3868  0.6051 -0.2612
  638MOL0     H86100   3.610   4.536   6.111  1.4229  2.5558 -2.8452
  638MOL0     H86101   3.433   4.505   6.076  0.2461 -1.8951  2.7142
  638MOL0     H86102   3.647   4.543   5.855  0.3681 -1.4629  0.2521
  638MOL0     H86103   3.460   4.517   5.846 -1.5368  2.2949  0.8732
  638MOL0     H86104   3.570   4.750   5.827 -0.4502 -1.5075 -1.2576
  638MOL0     H86105   3.592   4.743   6.000  0.4034 -1.4532  0.6181
  638MOL0     H86106   3.320   4.728   5.835 -1.7977 -1.8032  1.6872
  638MOL0     H86107   3.345   4.679   6.000 -1.6562 -1.5050 -2.3538
  638MOL0     H86108   3.460   4.921   6.016 -0.7441  1.0085  1.4005
  638MOL0     H86109   3.288   4.901   6.026 -2.7226  0.5716 -3.1246
  638MOL0     H86110   3.421   4.967   5.759 -0.6563 -0.4031  0.0836
  638MOL0     H86111   3.390   5.076   5.898  0.6799  0.2459  0.4183
  638MOL0     H86112   3.946   4.286   6.201  2.6373 -0.5291  0.2392
  638MOL0     H86113   4.190   4.329   6.213 -0.3514 -1.2451  0.2325
  638MOL0     H86114   4.509   4.621   6.145 -0.1039  1.5426 -1.3325
  638MOL0     H86115   4.723   4.699   6.203  0.2070  1.9201 -1.7305
  638MOL0     H86116   6.730   5.335   6.421 -0.6029 -3.5833  0.8978
  638MOL0     H86117   6.972   5.386   6.330 -0.5162  3.0974 -0.4922
  638MOL0     H86118   7.301   5.277   6.097 -0.5132  1.1865  0.5158
  638MOL0     H86119   7.523   5.295   6.040 -0.6604  0.7434  0.2092
  638MOL0     H86120   7.582   5.245   5.642  1.1832 -0.7532 -0.6164
  638MOL0     H86121   7.755   5.288   5.665  0.6052 -0.0135  1.2318
  638MOL0     H86122   7.688   5.061   5.730 -2.6234  0.2436 -0.6199
  638MOL0     H86123   7.583   5.114   5.854  0.3577 -2.0527  0.3974
  638MOL0     H86124   7.824   5.225   5.920 -0.7309  0.5531 -1.3090
  638MOL0     H86125   7.884   5.098   5.806 -1.4819 -0.0083 -1.3916
  638MOL0     H86126   7.821   4.925   5.943 -0.0534  0.6174 -1.8667
  638MOL0     H86127   7.710   5.012   6.033 -0.6179 -2.3896 -1.0050
  638MOL0     H86128   8.065   5.077   6.261  1.5889  0.2563 -0.9357
  638MOL0     H86129   7.399   5.475   5.660 -0.2614  1.6932  0.7036
  638MOL0     H86130   7.178   5.494   5.760  0.9257  2.5829 -0.4865
  639MOL0     O86131  10.384   8.503  10.643  0.1235 -0.0102  0.3414
  639MOL0     C86132  10.430   8.619  10.658 -0.0987 -1.3954 -0.5311
  639MOL0     O86133  10.362   8.732  10.620  0.8270  0.1427  0.2007
  639MOL0     C86134  10.248   8.708  10.541 -0.2370 -0.4520  0.2270
  639MOL0     C86135  10.135   8.785  10.573 -0.2225  0.8589 -0.6420
  639MOL0     C86136  10.018   8.773  10.499 -0.0526  0.4863  0.6704
  639MOL0     C86137  10.009   8.691  10.386 -0.0441  0.1588  0.3240
  639MOL0     O86138   9.898   8.684  10.306 -0.2289 -0.4273 -0.2702
  639MOL0     C86139   9.773   8.706  10.369 -0.2926  0.7147 -0.8828
  639MOL0     C86140   9.661   8.704  10.259 -0.5966 -1.0460 -0.3744
  639MOL0     C86141   9.652   8.851  10.205 -0.4703  0.3113 -0.2247
  639MOL0     C86142   9.576   8.858  10.076 -0.9495  0.7043 -0.7576
  639MOL0     C86143   9.432   8.807  10.082  0.4907 -0.0361 -0.4376
  639MOL0     C86144   9.340   8.882  10.177 -0.3298  0.2290  0.0828
  639MOL0     C86145   9.188   8.857  10.169  0.5444  0.1582  0.1793
  639MOL0     C86146   9.113   8.945  10.255  0.3785 -0.2766 -0.1762
  639MOL0     N86147   8.976   8.898  10.253 -0.5703 -0.3141 -0.0957
  639MOL0     C86148   8.886   8.954  10.172 -0.6495  0.3977 -0.2090
  639MOL0     C86149   8.771   8.896  10.206 -0.2939  0.4385 -1.3903
  639MOL0     C86150   8.640   8.937  10.156  0.0582 -0.5663  0.7320
  639MOL0     C86151   8.598   9.068  10.232 -0.4848  0.1024 -0.3494
  639MOL0     C86152   8.473   9.127  10.156  0.8147 -0.4213  0.0054
  639MOL0     C86153   8.467   9.279  10.188 -0.1504 -0.0068  0.1329
  639MOL0     O86154   8.424   9.302  10.325 -0.8765 -0.5379 -0.0875
  639MOL0     C86155   8.304   9.258  10.339  1.0179  0.4274  0.8164
  639MOL0     C86156   8.278   9.166  10.437  0.0748 -0.5569 -0.3270
  639MOL0     C86157   8.151   9.113  10.457 -0.7581 -1.1670  0.1486
  639MOL0     C86158   8.142   9.007  10.560 -0.4870 -0.4060 -0.0779
  639MOL0     C86159   8.039   9.160  10.377  0.0727  0.6306  0.3878
  639MOL0     C86160   7.900   9.127  10.406  0.8201  1.0069 -1.2397
  639MOL0     O86161   7.860   9.043  10.508 -0.0189  0.6840 -0.5897
  639MOL0     C86162   7.733   9.038  10.548  0.5285 -0.7718  0.1253
  639MOL0     C86163   7.668   8.928  10.590  0.1468 -0.5105  0.2836
  639MOL0     C86164   7.543   8.927  10.649  0.9298  0.3867  0.6071
  639MOL0     C86165   7.477   9.047  10.667  0.3310 -0.0275  0.2571
  639MOL0     O86166   7.356   9.046  10.734 -0.8046 -0.1156 -0.0334
  639MOL0     C86167   7.251   9.093  10.654 -0.2711 -0.5797 -0.1565
  639MOL0     C86168   7.208   9.020  10.531  0.4280 -0.0390 -0.3639
  639MOL0     C86169   7.137   8.894  10.578 -0.1836  0.3378 -0.1112
  639MOL0     C86170   7.075   8.798  10.478 -0.4229  0.1886 -0.1999
  639MOL0     C86171   6.948   8.858  10.425 -0.4931  0.1596  0.2496
  639MOL0     C86172   6.897   8.752  10.324  0.2089 -0.5987 -0.1349
  639MOL0     C86173   6.764   8.801  10.261  0.2334 -0.7801 -0.0660
  639MOL0     C86174   6.694   8.679  10.210  0.8693  0.3948 -0.4368
  639MOL0    Cl86175   6.542   8.746  10.129  0.1919 -0.2269 -0.4213
  639MOL0     C86176   7.540   9.168  10.634  0.3062 -0.4548  0.2082
  639MOL0     C86177   7.657   9.163  10.561  0.4694  0.1298 -0.1073
  639MOL0     O86178   7.821   9.170  10.322  0.4093 -0.4422 -0.2115
  639MOL0     C86179   8.073   9.252  10.273  0.2540  0.1137 -0.4054
  639MOL0     C86180   8.201   9.306  10.256 -0.1531 -0.0122  0.4094
  639MOL0     N86181   8.785   8.819  10.317 -0.4437 -0.1743 -0.4325
  639MOL0     N86182   8.915   8.820  10.341  0.0230  0.7661 -0.4640
  639MOL0     C86183  10.128   8.625  10.349 -0.1344 -0.3991  0.3725
  639MOL0     C86184  10.246   8.630  10.422 -0.3051 -0.3431 -0.2323
  639MOL0     C86185  10.574   8.637  10.694  0.7722 -0.4553 -0.3221
  639MOL0     C86186  10.621   8.770  10.731 -0.6339 -0.3562 -0.1540
  639MOL0     C86187  10.755   8.783  10.778  0.4344  0.1738  0.3089
  639MOL0     C86188  10.830   8.663  10.800  0.0423  0.0920 -0.3513
  639MOL0     O86189  10.961   8.674  10.849 -0.9220  0.6165  0.1624
  639MOL0     C86190  11.071   8.599  10.798  1.2928 -0.1835  0.4813
  639MOL0     C86191  11.110   8.477  10.881  0.1030  0.0369  0.5363
  639MOL0     C86192  11.261   8.455  10.895 -0.7267 -0.3014  0.8758
  639MOL0     C86193  11.339   8.462  10.763 -0.2211  0.4110 -0.2966
  639MOL0     C86194  11.481   8.425  10.791  0.0142 -0.4191 -0.4705
  639MOL0     C86195  11.595   8.404  10.817  0.0703 -0.4914 -1.0215
  639MOL0     C86196  10.777   8.533  10.771 -0.6353 -0.2872  0.5014
  639MOL0     C86197  10.655   8.523  10.708  0.2623 -0.0746 -0.3843
  639MOL0     H86198  10.134   8.853  10.658  0.3218  0.2048 -0.0968
  639MOL0     H86199   9.927   8.826  10.525 -0.5169 -0.3571  0.7915
  639MOL0     H86200   9.756   8.624  10.438 -0.6441  1.1754 -0.4133
  639MOL0     H86201   9.756   8.798  10.426  0.2890  0.2462  0.0722
  639MOL0     H86202   9.696   8.641  10.177  2.9491  2.7060 -2.1199
  639MOL0     H86203   9.567   8.674  10.306 -2.4387  1.3591 -2.2805
  639MOL0     H86204   9.611   8.919  10.279  3.2492  2.1116  0.4367
  639MOL0     H86205   9.751   8.894  10.188 -0.9109  0.6251 -2.3217
  639MOL0     H86206   9.582   8.961  10.042  1.7416  0.8436 -0.0900
  639MOL0     H86207   9.629   8.798  10.001 -2.1991  0.6161 -1.6026
  639MOL0     H86208   9.378   8.826   9.988 -1.9256  1.9979  1.2245
  639MOL0     H86209   9.429   8.698  10.093 -1.7714  0.0284  0.0460
  639MOL0     H86210   9.372   8.851  10.277  0.7963  0.9651 -0.0321
  639MOL0     H86211   9.358   8.990  10.169 -0.8657  0.3435  0.3722
  639MOL0     H86212   9.155   8.876  10.066  0.6443  3.6480  0.6801
  639MOL0     H86213   9.159   8.756  10.199 -1.2777  0.4722 -0.3817
  639MOL0     H86214   9.127   9.050  10.228  1.1065 -0.6858 -1.4792
  639MOL0     H86215   9.157   8.946  10.356 -1.8592 -2.2458  0.9389
  639MOL0     H86216   8.902   9.026  10.093 -2.4030  2.1547  0.9458
  639MOL0     H86217   8.651   8.947  10.048 -1.8237 -0.2659  0.5201
  639MOL0     H86218   8.566   8.860  10.180 -0.2747  0.5521  3.7784
  639MOL0     H86219   8.685   9.135  10.234 -0.6455  0.3051  1.1503
  639MOL0     H86220   8.572   9.050  10.337 -1.3140  0.7475 -0.4248
  639MOL0     H86221   8.375   9.080  10.170  1.0830 -1.1048 -0.3732
  639MOL0     H86222   8.491   9.104  10.051  3.9980  1.5616 -0.0217
  639MOL0     H86223   8.411   9.337  10.114  0.6585  1.5522  0.6920
  639MOL0     H86224   8.567   9.323  10.184  0.4768 -1.4176 -0.8867
  639MOL0     H86225   8.363   9.130  10.494 -1.3415 -1.0185  1.5639
  639MOL0     H86226   8.098   8.914  10.522 -1.1443 -0.8127  1.5720
  639MOL0     H86227   8.234   8.981  10.613 -0.0612  0.5069 -0.3521
  639MOL0     H86228   8.079   9.037  10.645  1.9326 -0.6926  1.9142
  639MOL0     H86229   7.722   8.834  10.593 -1.5041 -1.5143  0.1592
  639MOL0     H86230   7.493   8.834  10.672 -0.7498  0.3180 -2.7044
  639MOL0     H86231   7.164   9.111  10.719  0.2893  1.0042  0.2032
  639MOL0     H86232   7.271   9.193  10.614 -1.1872  0.1178  1.0257
  639MOL0     H86233   7.148   9.085  10.466  1.2437 -0.6419 -1.7643
  639MOL0     H86234   7.297   8.981  10.480  1.2343 -2.1857  2.4059
  639MOL0     H86235   7.063   8.945  10.639 -0.5187 -0.6876  0.3727
  639MOL0     H86236   7.206   8.837  10.641  1.6836  0.9565 -1.4755
  639MOL0     H86237   7.151   8.795  10.399 -3.0549 -0.1248 -2.9087
  639MOL0     H86238   7.059   8.699  10.521  3.5271 -0.1315  0.9241
  639MOL0     H86239   6.959   8.958  10.382  1.3476  0.5726  1.5930
  639MOL0     H86240   6.878   8.859  10.509 -0.7233 -3.0138  0.2039
  639MOL0     H86241   6.962   8.741  10.237 -1.8337  1.9244 -2.1615
  639MOL0     H86242   6.878   8.653  10.367 -3.3736 -1.0332 -2.3376
  639MOL0     H86243   6.804   8.863  10.180  4.5824 -0.9835  1.6866
  639MOL0     H86244   6.699   8.852  10.333  0.5077  2.4817 -1.9577
  639MOL0     H86245   6.670   8.609  10.290  1.6384  1.4780  0.8065
  639MOL0     H86246   6.748   8.628  10.129 -0.5978  0.1722 -1.3004
  639MOL0     H86247   7.488   9.264  10.640 -1.0067 -0.9043 -2.3520
  639MOL0     H86248   7.689   9.256  10.517 -0.5308 -0.1920 -1.5984
  639MOL0     H86249   7.991   9.288  10.213 -2.7221  0.0283  3.2423
  639MOL0     H86250   8.228   9.374  10.176  0.0617  0.5316  0.9330
  639MOL0     H86251  10.138   8.576  10.252 -0.5149  3.1159 -1.6258
  639MOL0     H86252  10.332   8.573  10.390 -0.5281 -1.0179  0.3448
  639MOL0     H86253  10.555   8.854  10.720 -1.2058 -0.9104 -1.1231
  639MOL0     H86254  10.798   8.881  10.790 -1.9438  1.2412  0.6583
  639MOL0     H86255  11.057   8.562  10.696  0.6140 -2.5244  1.3343
  639MOL0     H86256  11.146   8.677  10.785 -0.0886  0.9383 -1.2574
  639MOL0     H86257  11.064   8.391  10.831  1.1902 -0.5316  0.4922
  639MOL0     H86258  11.060   8.484  10.978  1.9009 -1.6763  1.6639
  639MOL0     H86259  11.274   8.359  10.945  0.2730 -1.3814 -1.3296
  639MOL0     H86260  11.297   8.541  10.953  1.4989 -0.5707 -0.0069
  639MOL0     H86261  11.341   8.563  10.720  1.0104 -0.9128 -3.6700
  639MOL0     H86262  11.302   8.398  10.682 -2.3198 -2.2487  2.5151
  639MOL0     H86263  11.696   8.382  10.845 -0.3085 -2.1412 -0.8640
  639MOL0     H86264  10.847   8.453  10.793  0.3506 -0.0026 -1.3880
  639MOL0     H86265  10.615   8.430  10.667  1.1797 -0.4931 -0.3512
  640MOL0     O86266   0.949   1.744   8.472 -0.6091  0.0517  0.1677
  640MOL0     C86267   1.021   1.829   8.523  0.6947 -0.8111  0.2526
  640MOL0     O86268   0.988   1.964   8.529 -0.7201 -0.1494 -0.0053
  640MOL0     C86269   0.866   1.986   8.481 -0.6095  0.9576  0.3826
  640MOL0     C86270   0.856   2.017   8.345 -0.7829  1.2282  0.3581
  640MOL0     C86271   0.727   2.041   8.291  0.0625  0.1313  0.0658
  640MOL0     C86272   0.611   2.035   8.373 -0.2443 -0.3570  0.1938
  640MOL0     O86273   0.497   2.043   8.301  0.1727  0.5139 -0.2835
  640MOL0     C86274   0.368   1.989   8.360 -0.0550 -0.0191 -0.5215
  640MOL0     C86275   0.266   2.106   8.369 -0.7653 -0.3806  0.5664
  640MOL0     C86276   0.137   2.067   8.435  1.3644 -0.0131 -0.3792
  640MOL0     C86277   0.028   2.170   8.421 -0.0598 -0.1191 -0.5930
  640MOL0     C86278  -0.112   2.119   8.461  0.2083 -0.3746 -0.0592
  640MOL0     C86279  -0.171   2.001   8.371 -0.3093 -0.3876 -0.3811
  640MOL0     C86280  -0.317   1.975   8.395 -0.5938  0.1735 -0.0040
  640MOL0     C86281  -0.359   1.946   8.542 -0.5346 -0.7121 -0.7004
  640MOL0     N86282  -0.509   1.933   8.551 -0.3560 -0.0462  0.2011
  640MOL0     C86283  -0.593   1.831   8.508 -0.1722 -0.0105 -0.4704
  640MOL0     C86284  -0.706   1.842   8.579 -0.3037 -0.1917  0.0914
  640MOL0     C86285  -0.827   1.756   8.565 -0.3479  0.0429 -0.0946
  640MOL0     C86286  -0.963   1.821   8.535  0.0082 -0.2707  0.3257
  640MOL0     C86287  -0.968   1.872   8.390  0.1637  0.0539  0.3793
  640MOL0     C86288  -1.110   1.874   8.323 -0.7843  0.3409 -0.3142
  640MOL0     O86289  -1.178   1.963   8.414 -0.4902 -0.2977 -0.5243
  640MOL0     C86290  -1.312   1.946   8.418 -0.1187 -0.7317  0.1055
  640MOL0     C86291  -1.374   1.951   8.540  0.4207 -0.7628 -0.5354
  640MOL0     C86292  -1.508   1.946   8.547 -0.2924 -0.5083  0.0434
  640MOL0     C86293  -1.561   1.946   8.690  0.2942  0.4784 -1.0783
  640MOL0     C86294  -1.590   1.927   8.431  0.4328 -0.5239  0.5041
  640MOL0     C86295  -1.736   1.891   8.434  0.6481 -0.5762 -0.7200
  640MOL0     O86296  -1.790   1.883   8.312  0.0836 -0.2523  0.5030
  640MOL0     C86297  -1.916   1.829   8.296  0.0734 -0.4622 -0.4506
  640MOL0     C86298  -1.932   1.708   8.228 -0.0971  0.2625  0.7793
  640MOL0     C86299  -2.054   1.668   8.195  0.2490  0.4116  0.6271
  640MOL0     C86300  -2.163   1.742   8.224 -0.1884  0.3659 -0.5409
  640MOL0     O86301  -2.282   1.691   8.188  0.3458  0.1978 -0.0491
  640MOL0     C86302  -2.404   1.745   8.233 -0.0267 -1.0619 -0.6186
  640MOL0     C86303  -2.506   1.652   8.172 -0.2546  0.3696 -0.5804
  640MOL0     C86304  -2.644   1.682   8.240 -0.0195  0.2874  0.7515
  640MOL0     C86305  -2.664   1.606   8.370  0.1719  0.3925  0.5858
  640MOL0     C86306  -2.807   1.615   8.428 -0.7328  0.8545 -0.0061
  640MOL0     C86307  -2.787   1.547   8.570 -0.0950 -0.3910 -0.3815
  640MOL0     C86308  -2.916   1.542   8.649  0.4702  0.4682 -0.5498
  640MOL0     C86309  -2.982   1.401   8.653 -0.6439 -0.2749 -0.5688
  640MOL0    Cl86310  -3.147   1.422   8.708  0.0712 -0.2356  0.3735
  640MOL0     C86311  -2.148   1.865   8.296 -0.1795 -0.3245 -0.0395
  640MOL0     C86312  -2.024   1.909   8.333 -0.0250  0.3224  0.2284
  640MOL0     O86313  -1.801   1.882   8.537 -0.5670 -0.0089 -0.4612
  640MOL0     C86314  -1.531   1.945   8.304 -0.3065  0.1037 -0.3052
  640MOL0     C86315  -1.391   1.947   8.299 -0.6104 -0.3003 -0.0139
  640MOL0     N86316  -0.694   1.966   8.645 -0.3945  0.0179  0.5230
  640MOL0     N86317  -0.581   2.012   8.631  0.2291  0.5102  1.0464
  640MOL0     C86318   0.621   2.003   8.505 -0.2697 -0.2357 -0.6964
  640MOL0     C86319   0.749   1.980   8.565  0.0850  0.9356 -0.6611
  640MOL0     C86320   1.150   1.791   8.582 -0.6749  0.7771  0.4619
  640MOL0     C86321   1.210   1.664   8.563  1.0470 -0.3238 -0.0701
  640MOL0     C86322   1.331   1.631   8.620 -0.3074 -0.1769 -0.1320
  640MOL0     C86323   1.403   1.730   8.696  0.4230 -0.4332 -0.0507
  640MOL0     O86324   1.518   1.698   8.775 -0.0017 -0.7829  0.2709
  640MOL0     C86325   1.639   1.656   8.699 -0.0997 -0.7719  0.3845
  640MOL0     C86326   1.744   1.772   8.714 -0.7860  0.2167 -0.1672
  640MOL0     C86327   1.847   1.759   8.602 -0.1610 -0.4369 -0.1966
  640MOL0     C86328   1.994   1.762   8.656 -0.6166  0.1089  0.0769
  640MOL0     C86329   2.090   1.806   8.550  0.1614  0.3893 -0.2264
  640MOL0     C86330   2.178   1.826   8.466  0.2224 -1.1505  0.4604
  640MOL0     C86331   1.343   1.859   8.712  0.1176 -0.3171 -0.8593
  640MOL0     C86332   1.224   1.890   8.652  0.2277  0.1989  0.8985
  640MOL0     H86333   0.938   2.024   8.275 -1.1530 -2.2303 -0.5721
  640MOL0     H86334   0.703   2.064   8.188 -0.4521  0.2948  0.2198
  640MOL0     H86335   0.326   1.912   8.296 -0.2135 -0.8982  0.6077
  640MOL0     H86336   0.382   1.939   8.457 -3.8820 -0.9335 -0.3074
  640MOL0     H86337   0.305   2.187   8.431 -3.2693 -0.5822  2.5703
  640MOL0     H86338   0.246   2.125   8.263  0.7838 -2.5682 -0.1987
  640MOL0     H86339   0.111   1.967   8.400  2.1080 -0.3169 -0.1015
  640MOL0     H86340   0.156   2.050   8.541 -2.3498 -2.3201  0.0852
  640MOL0     H86341   0.047   2.264   8.474 -0.7997 -0.9268  1.1894
  640MOL0     H86342   0.019   2.199   8.316 -0.2796 -1.1364 -0.8630
  640MOL0     H86343  -0.107   2.095   8.568  0.2957  2.7449  0.7574
  640MOL0     H86344  -0.183   2.202   8.452 -1.7720 -1.9092  0.6101
  640MOL0     H86345  -0.156   2.033   8.267  0.7402  1.3284  0.2565
  640MOL0     H86346  -0.131   1.902   8.398 -1.6156 -1.3070 -1.6439
  640MOL0     H86347  -0.366   2.070   8.370  0.3358  0.4133 -1.0022
  640MOL0     H86348  -0.347   1.901   8.321  0.2923 -1.4258  1.1902
  640MOL0     H86349  -0.332   2.021   8.616  0.7063 -0.8598 -0.9799
  640MOL0     H86350  -0.319   1.852   8.581  0.2331  0.1851  0.7121
  640MOL0     H86351  -0.573   1.763   8.426 -0.8765  0.7688 -1.3012
  640MOL0     H86352  -0.805   1.682   8.488  0.3449 -0.9830  1.0640
  640MOL0     H86353  -0.833   1.692   8.653  1.7563 -3.3917 -2.2348
  640MOL0     H86354  -0.969   1.906   8.603 -0.6680  0.8371 -1.0762
  640MOL0     H86355  -1.050   1.759   8.560 -2.2723  2.5644 -0.0399
  640MOL0     H86356  -0.906   1.808   8.327  0.3494 -0.7818  1.3843
  640MOL0     H86357  -0.925   1.973   8.396  0.3721 -0.1431  2.9890
  640MOL0     H86358  -1.157   1.775   8.322 -0.1001 -0.0317  1.3557
  640MOL0     H86359  -1.106   1.914   8.221 -1.7209 -0.7044 -0.7845
  640MOL0     H86360  -1.318   1.970   8.631 -1.1444  0.9800  0.1269
  640MOL0     H86361  -1.490   1.955   8.772 -1.1597 -0.7375  0.3835
  640MOL0     H86362  -1.623   2.033   8.714  2.3761  1.1451  2.6168
  640MOL0     H86363  -1.620   1.856   8.705  2.4540 -1.7745 -4.6153
  640MOL0     H86364  -1.843   1.654   8.196 -1.6758 -3.3391  1.9196
  640MOL0     H86365  -2.068   1.578   8.136  2.7889  0.9165 -0.8962
  640MOL0     H86366  -2.403   1.736   8.342  0.9367 -3.6739 -0.7727
  640MOL0     H86367  -2.426   1.848   8.201  0.0711 -0.1280  2.0643
  640MOL0     H86368  -2.513   1.669   8.065 -1.2886  1.5768 -0.3437
  640MOL0     H86369  -2.471   1.553   8.201  1.0760  0.6260 -1.2591
  640MOL0     H86370  -2.721   1.651   8.169  0.7579  0.7691 -0.3273
  640MOL0     H86371  -2.661   1.789   8.254 -0.8630  0.0305  1.8517
  640MOL0     H86372  -2.638   1.501   8.353 -0.9915  0.2595 -0.5037
  640MOL0     H86373  -2.594   1.645   8.444  1.3698 -1.0006  0.2418
  640MOL0     H86374  -2.882   1.565   8.365 -1.3018 -0.0889  1.3827
  640MOL0     H86375  -2.831   1.721   8.430 -1.8387  0.6484 -1.0572
  640MOL0     H86376  -2.756   1.444   8.550  0.8248  0.1951 -2.1642
  640MOL0     H86377  -2.704   1.591   8.625  1.4686 -1.5017 -1.7801
  640MOL0     H86378  -2.989   1.616   8.613 -1.1010  0.3048  2.0304
  640MOL0     H86379  -2.887   1.563   8.752 -0.6994 -1.3158  0.1983
  640MOL0     H86380  -2.922   1.335   8.716  0.5585  3.4664  2.6173
  640MOL0     H86381  -2.984   1.356   8.553 -3.1140  2.1935 -1.7801
  640MOL0     H86382  -2.227   1.932   8.327  0.7294  1.8997 -2.2087
  640MOL0     H86383  -2.005   2.003   8.384  0.3402  0.1956  0.3270
  640MOL0     H86384  -1.591   1.935   8.214  0.1822 -1.5580 -0.4814
  640MOL0     H86385  -1.339   1.963   8.205 -0.7949  0.5772  0.0273
  640MOL0     H86386   0.539   1.992   8.575 -0.4920 -0.9255 -1.0558
  640MOL0     H86387   0.745   1.967   8.672 -0.0867  2.9094 -0.3835
  640MOL0     H86388   1.160   1.591   8.500 -1.5986  0.5439  0.8910
  640MOL0     H86389   1.382   1.535   8.611  4.8096  2.1245  0.6710
  640MOL0     H86390   1.678   1.560   8.731  0.7730 -0.9784 -1.2059
  640MOL0     H86391   1.619   1.639   8.593  0.4457  1.9319 -0.2423
  640MOL0     H86392   1.796   1.764   8.810  1.8506 -0.7349 -1.5663
  640MOL0     H86393   1.704   1.873   8.717  2.4190  1.6906 -1.7964
  640MOL0     H86394   1.833   1.848   8.541 -0.1955  0.1418  0.6281
  640MOL0     H86395   1.843   1.672   8.536  0.4784  0.4868 -1.4903
  640MOL0     H86396   2.018   1.664   8.698 -1.8126 -0.9533 -1.6451
  640MOL0     H86397   2.007   1.832   8.739  1.3291  1.1340 -1.0128
  640MOL0     H86398   2.251   1.849   8.390 -1.6315 -0.4209 -1.2026
  640MOL0     H86399   1.397   1.937   8.766  1.1365 -0.4990 -1.5742
  640MOL0     H86400   1.189   1.992   8.668 -0.7104 -0.0195  0.2576
  641MOL0     O86401   0.855   4.559   2.379 -0.4120  0.3872 -0.6712
  641MOL0     C86402   0.847   4.590   2.258 -0.3675 -0.2154 -1.1289
  641MOL0     O86403   0.732   4.587   2.184 -0.0927  0.2819 -0.4613
  641MOL0     C86404   0.623   4.520   2.241 -0.2312 -0.4071  0.8154
  641MOL0     C86405   0.609   4.385   2.242  0.7016 -0.4373  0.3708
  641MOL0     C86406   0.495   4.332   2.295  0.2239 -0.3537  0.6697
  641MOL0     C86407   0.391   4.411   2.346  0.4219  1.0092 -0.3742
  641MOL0     O86408   0.291   4.344   2.411  0.0547 -0.2568  0.2500
  641MOL0     C86409   0.178   4.421   2.465 -0.1783  0.3459 -0.1535
  641MOL0     C86410   0.081   4.315   2.532  0.0888  0.3846 -0.5836
  641MOL0     C86411   0.143   4.245   2.655 -0.0464 -0.2047 -1.1934
  641MOL0     C86412   0.042   4.157   2.734  0.5515  0.3701  0.9567
  641MOL0     C86413   0.113   4.097   2.852 -0.2923  0.3176 -0.1379
  641MOL0     C86414   0.026   3.987   2.927  0.2747 -0.3716 -0.0202
  641MOL0     C86415   0.124   3.923   3.036 -0.1223  0.6995  0.0487
  641MOL0     C86416   0.062   3.822   3.138  0.3433  0.4051  0.0532
  641MOL0     N86417   0.026   3.700   3.063 -0.2932  0.6746  0.1277
  641MOL0     C86418  -0.093   3.684   2.997 -0.1987  0.4771  0.3059
  641MOL0     C86419  -0.111   3.545   2.997 -0.1744  0.3405  0.6183
  641MOL0     C86420  -0.235   3.471   2.948  0.9576 -0.4532  0.3093
  641MOL0     C86421  -0.235   3.482   2.797  0.2631 -0.1012  0.7262
  641MOL0     C86422  -0.333   3.374   2.737 -0.4573  0.1794  1.1744
  641MOL0     C86423  -0.477   3.377   2.781 -0.3686 -0.4808 -0.9866
  641MOL0     O86424  -0.552   3.286   2.701  1.1371 -0.2451 -0.6325
  641MOL0     C86425  -0.692   3.300   2.700 -0.5680 -0.0631  0.5180
  641MOL0     C86426  -0.754   3.204   2.614 -0.3449 -0.2711 -0.2964
  641MOL0     C86427  -0.893   3.196   2.609 -0.7033  0.9521  0.3474
  641MOL0     C86428  -0.950   3.080   2.528 -0.5285  0.8723  0.0830
  641MOL0     C86429  -0.974   3.285   2.685  0.9307 -0.1784  0.0444
  641MOL0     C86430  -1.128   3.283   2.689  0.4291 -0.1737  0.3649
  641MOL0     O86431  -1.195   3.333   2.806 -0.6042 -0.0665 -0.1461
  641MOL0     C86432  -1.334   3.356   2.798 -0.9792 -0.0673 -0.7003
  641MOL0     C86433  -1.414   3.345   2.917 -0.7964 -0.7844  1.3156
  641MOL0     C86434  -1.550   3.369   2.909  0.4658  0.7014 -0.0279
  641MOL0     C86435  -1.613   3.409   2.785  0.7193  0.3308 -0.3765
  641MOL0     O86436  -1.745   3.440   2.802 -0.0885 -0.2524  0.6051
  641MOL0     C86437  -1.827   3.460   2.681  0.2102 -0.0461  0.0139
  641MOL0     C86438  -1.951   3.556   2.706 -0.0792  0.9330  0.3841
  641MOL0     C86439  -2.063   3.475   2.764  0.5386 -0.6182  0.1140
  641MOL0     C86440  -2.184   3.558   2.789 -0.0604  0.0608 -0.1107
  641MOL0     C86441  -2.264   3.577   2.653 -0.7646  0.4728  0.0483
  641MOL0     C86442  -2.373   3.688   2.674 -0.4713  0.7129  0.7099
  641MOL0     C86443  -2.466   3.698   2.554  0.7579  0.0238 -0.3784
  641MOL0     C86444  -2.540   3.831   2.557 -0.8929  0.1084  0.5096
  641MOL0    Cl86445  -2.656   3.838   2.420 -0.4200  0.5575  0.4290
  641MOL0     C86446  -1.536   3.429   2.671 -0.9305  0.1528  0.6708
  641MOL0     C86447  -1.393   3.401   2.684 -0.0010  0.6701  0.4172
  641MOL0     O86448  -1.179   3.230   2.594 -0.5842  0.1014  0.1173
  641MOL0     C86449  -0.913   3.382   2.768  0.0028 -0.6032 -0.0071
  641MOL0     C86450  -0.769   3.378   2.778  0.8995 -0.6213 -0.4613
  641MOL0     N86451  -0.017   3.492   3.077  0.5162 -0.4402  0.2375
  641MOL0     N86452   0.070   3.584   3.107  0.3502 -0.4040  0.5316
  641MOL0     C86453   0.398   4.547   2.324  0.2192  0.2723  0.4630
  641MOL0     C86454   0.518   4.600   2.282 -0.0681 -0.5184  0.8490
  641MOL0     C86455   0.977   4.629   2.197 -0.1715 -0.1245 -0.7466
  641MOL0     C86456   0.980   4.674   2.061  0.3604 -0.1996 -0.4677
  641MOL0     C86457   1.100   4.721   2.005 -1.0317  0.0013 -0.9780
  641MOL0     C86458   1.213   4.734   2.081 -0.2597  1.1528 -0.0236
  641MOL0     O86459   1.328   4.796   2.038  0.1656  0.5143 -0.4201
  641MOL0     C86460   1.344   4.828   1.904 -0.5798 -0.2536  0.5546
  641MOL0     C86461   1.490   4.870   1.862  0.2615  0.1558 -0.5320
  641MOL0     C86462   1.595   4.761   1.900  0.4471 -0.5985 -0.4282
  641MOL0     C86463   1.731   4.798   1.862  0.5246 -0.0901  0.1204
  641MOL0     C86464   1.778   4.921   1.918  0.4504  0.1638  0.1042
  641MOL0     C86465   1.815   5.022   1.977  0.5155  0.5412 -0.1563
  641MOL0     C86466   1.212   4.679   2.209  0.0191  0.2528  0.0228
  641MOL0     C86467   1.099   4.628   2.275 -0.3601 -1.4054  0.2161
  641MOL0     H86468   0.691   4.328   2.199  1.9329 -0.6330  2.8065
  641MOL0     H86469   0.488   4.224   2.287  1.1180 -0.3775 -0.0926
  641MOL0     H86470   0.222   4.494   2.534  0.6250  0.3417 -0.6475
  641MOL0     H86471   0.131   4.478   2.385 -0.4059 -2.2185 -1.9729
  641MOL0     H86472  -0.017   4.355   2.559 -0.2934 -0.3430 -0.8562
  641MOL0     H86473   0.059   4.228   2.468  1.4407 -1.1031  0.8660
  641MOL0     H86474   0.228   4.183   2.626 -1.1335 -2.4350  0.1701
  641MOL0     H86475   0.177   4.319   2.727  2.3790 -3.2701  1.0622
  641MOL0     H86476  -0.045   4.220   2.754  0.5661  2.2318 -3.7013
  641MOL0     H86477   0.002   4.076   2.673  0.5536  0.8871  0.2658
  641MOL0     H86478   0.202   4.038   2.826  2.5074  4.2726 -0.5307
  641MOL0     H86479   0.156   4.171   2.921  0.2084  1.2319 -1.3980
  641MOL0     H86480  -0.062   4.037   2.968  1.4981  1.9919 -0.0492
  641MOL0     H86481  -0.005   3.908   2.858  0.8693 -2.0458  1.5543
  641MOL0     H86482   0.204   3.861   2.996  0.5646 -0.5231  3.0288
  641MOL0     H86483   0.180   4.006   3.079 -1.5162  1.4267  0.5341
  641MOL0     H86484  -0.021   3.873   3.188  0.3042  1.1232 -0.7184
  641MOL0     H86485   0.139   3.798   3.211  1.6031  0.8250 -1.0974
  641MOL0     H86486  -0.159   3.756   2.949 -0.2858 -0.3073 -0.8031
  641MOL0     H86487  -0.213   3.366   2.964 -1.7457 -1.4017 -1.5261
  641MOL0     H86488  -0.320   3.499   3.011  0.8676  0.2195 -0.0991
  641MOL0     H86489  -0.136   3.463   2.756  0.2866 -2.2722  1.6399
  641MOL0     H86490  -0.275   3.581   2.774 -0.4766 -0.3578  0.8615
  641MOL0     H86491  -0.290   3.273   2.745 -1.3856 -0.2044  1.4562
  641MOL0     H86492  -0.348   3.385   2.630  1.5813 -2.4513  0.5003
  641MOL0     H86493  -0.511   3.480   2.766  0.7086 -0.0965 -0.8891
  641MOL0     H86494  -0.482   3.355   2.888  2.9106  5.2021  0.7838
  641MOL0     H86495  -0.692   3.126   2.573 -1.5624 -0.6078 -1.5805
  641MOL0     H86496  -1.009   3.015   2.594  1.9616 -1.4003  0.2129
  641MOL0     H86497  -1.007   3.118   2.443 -1.1717  1.0432  0.5779
  641MOL0     H86498  -0.877   3.018   2.475 -0.3670  3.6988 -3.3629
  641MOL0     H86499  -1.361   3.320   3.008  1.3092  0.6609  0.5517
  641MOL0     H86500  -1.604   3.354   3.002 -1.2927 -0.4860 -1.1755
  641MOL0     H86501  -1.768   3.524   2.615 -1.0732  1.9597  0.7290
  641MOL0     H86502  -1.852   3.368   2.627  0.8900  1.4864 -3.1626
  641MOL0     H86503  -1.925   3.639   2.772  1.2117  0.8288  0.0293
  641MOL0     H86504  -1.987   3.599   2.612 -0.4390  0.0634  0.1102
  641MOL0     H86505  -2.022   3.433   2.856  2.5873  2.5224  0.8090
  641MOL0     H86506  -2.087   3.392   2.697 -0.2539 -1.0327  0.8860
  641MOL0     H86507  -2.249   3.506   2.860 -0.9171 -1.1233 -1.7019
  641MOL0     H86508  -2.151   3.649   2.840  2.0150 -0.6050 -0.1912
  641MOL0     H86509  -2.312   3.486   2.614  0.2990  0.5658 -1.5385
  641MOL0     H86510  -2.195   3.610   2.575 -0.1558 -0.9030 -0.0164
  641MOL0     H86511  -2.442   3.655   2.753 -1.1087  1.5941  0.5463
  641MOL0     H86512  -2.327   3.782   2.706  0.3926  0.8390 -0.8443
  641MOL0     H86513  -2.539   3.617   2.564  3.6773 -2.7702  0.0285
  641MOL0     H86514  -2.416   3.678   2.458  0.5591  0.5922 -0.6041
  641MOL0     H86515  -2.468   3.913   2.548  1.2972 -1.7454  0.4079
  641MOL0     H86516  -2.590   3.835   2.654  1.0072 -4.4335  1.9110
  641MOL0     H86517  -1.575   3.470   2.579 -0.4050 -0.9281 -0.0549
  641MOL0     H86518  -1.339   3.410   2.591 -1.3913  3.4406 -0.2006
  641MOL0     H86519  -0.980   3.445   2.825 -0.7331 -0.2511 -1.2089
  641MOL0     H86520  -0.734   3.448   2.853 -0.5990  1.9024 -1.9779
  641MOL0     H86521   0.315   4.614   2.346 -0.0269 -0.2750  1.2463
  641MOL0     H86522   0.531   4.707   2.269 -0.1054 -0.5472  0.5575
  641MOL0     H86523   0.889   4.677   2.003  0.8500  0.1497 -1.2266
  641MOL0     H86524   1.084   4.760   1.905 -1.6522 -0.1613 -0.9488
  641MOL0     H86525   1.314   4.741   1.845 -2.1924  0.7070 -0.1183
  641MOL0     H86526   1.272   4.909   1.888 -0.6349 -0.6571 -1.4501
  641MOL0     H86527   1.517   4.955   1.926  1.5206 -0.8233  0.2937
  641MOL0     H86528   1.490   4.897   1.756  3.5086 -0.4566 -0.7926
  641MOL0     H86529   1.561   4.668   1.852  0.5615 -0.8435 -0.0431
  641MOL0     H86530   1.599   4.758   2.009  2.6022 -1.3498 -0.4766
  641MOL0     H86531   1.745   4.810   1.754  1.2246 -1.0004  0.0938
  641MOL0     H86532   1.787   4.713   1.901  0.1373 -0.6370 -0.4829
  641MOL0     H86533   1.838   5.115   2.024 -0.8015  1.2656 -0.8730
  641MOL0     H86534   1.312   4.675   2.253  0.3993 -2.1460 -0.9098
  641MOL0     H86535   1.096   4.581   2.373  0.6758 -1.4045  0.2580
  642MOL0     O86536   1.247   0.229  10.193  0.4204  0.0974 -0.0686
  642MOL0     C86537   1.324   0.209  10.101  0.4095 -0.4284  0.1359
  642MOL0     O86538   1.285   0.163   9.977 -0.3294 -0.3864  0.9180
  642MOL0     C86539   1.154   0.163   9.942  0.0079 -0.5043  0.5710
  642MOL0     C86540   1.124   0.202   9.809 -0.4473 -0.4527  0.4110
  642MOL0     C86541   0.995   0.208   9.761  0.2913  1.0669 -0.3186
  642MOL0     C86542   0.890   0.145   9.829 -0.0265 -0.7611 -0.0874
  642MOL0     O86543   0.761   0.154   9.777 -1.0395  0.0953  0.5469
  642MOL0     C86544   0.671   0.065   9.835 -0.2530 -0.1532  0.1725
  642MOL0     C86545   0.567   0.026   9.722 -0.8888  0.2239 -0.0485
  642MOL0     C86546   0.429   0.059   9.770 -0.4310 -0.4071 -0.2391
  642MOL0     C86547   0.328   0.013   9.668  0.6551  0.1380 -0.0950
  642MOL0     C86548   0.183   0.018   9.720  0.2226  0.8373  0.2119
  642MOL0     C86549   0.137   0.161   9.733  0.4600  0.0419 -0.9401
  642MOL0     C86550  -0.018   0.171   9.759 -0.4713  0.2501  0.0837
  642MOL0     C86551  -0.051   0.128   9.900  0.7654 -0.5947  1.2222
  642MOL0     N86552  -0.198   0.132   9.919 -0.0110 -0.1486 -0.0374
  642MOL0     C86553  -0.263   0.248   9.947 -0.1082 -0.7735 -0.6641
  642MOL0     C86554  -0.391   0.218   9.908 -0.4160  0.2517  0.6121
  642MOL0     C86555  -0.500   0.306   9.922  0.3205 -0.2556 -0.2545
  642MOL0     C86556  -0.556   0.297  10.065 -0.8405 -0.6279 -0.3047
  642MOL0     C86557  -0.713   0.306  10.071 -0.3213  0.3097 -0.2998
  642MOL0     C86558  -0.778   0.186  10.013  0.1719  0.2024 -0.0675
  642MOL0     O86559  -0.909   0.158  10.077  0.5237  0.4645 -0.0836
  642MOL0     C86560  -1.008   0.260  10.074 -0.4373 -0.3501  1.4147
  642MOL0     C86561  -1.013   0.372   9.989  0.4277 -0.3031  0.2684
  642MOL0     C86562  -1.121   0.462   9.993  0.5212 -0.1083 -0.0199
  642MOL0     C86563  -1.116   0.579   9.894  0.1483  1.1543 -0.2075
  642MOL0     C86564  -1.226   0.434  10.080 -0.4283 -1.1183  0.2299
  642MOL0     C86565  -1.349   0.514  10.088  0.4078  0.0630 -0.7107
  642MOL0     O86566  -1.386   0.567  10.216  0.1604  0.4094 -0.0096
  642MOL0     C86567  -1.498   0.647  10.217  0.3554  0.6265 -0.7120
  642MOL0     C86568  -1.488   0.781  10.210  0.5936 -0.3631  1.0137
  642MOL0     C86569  -1.598   0.863  10.210 -0.2924 -0.8148 -0.8522
  642MOL0     C86570  -1.732   0.805  10.223 -0.3551 -0.8918 -0.0239
  642MOL0     O86571  -1.839   0.889  10.227 -0.8371  0.2065  0.0385
  642MOL0     C86572  -1.972   0.839  10.249  0.0350 -0.3613  0.5028
  642MOL0     C86573  -2.065   0.967  10.245 -0.0292  0.2136 -0.4307
  642MOL0     C86574  -2.207   0.925  10.284  0.2618 -0.9029 -0.0912
  642MOL0     C86575  -2.316   1.011  10.216  0.2886  0.2032 -0.5612
  642MOL0     C86576  -2.457   0.970  10.271 -0.6957  0.1822  0.4357
  642MOL0     C86577  -2.556   1.065  10.204  0.1680 -0.1219  0.4274
  642MOL0     C86578  -2.698   1.017  10.251  0.3100  0.4475  0.2276
  642MOL0     C86579  -2.814   1.108  10.220 -0.1864 -1.3841  0.1978
  642MOL0    Cl86580  -2.972   1.035  10.241 -0.1735 -0.2607 -0.5368
  642MOL0     C86581  -1.743   0.665  10.231  0.1273  0.3350 -0.1082
  642MOL0     C86582  -1.627   0.586  10.236  0.7839 -0.2985 -0.2779
  642MOL0     O86583  -1.412   0.533   9.986 -1.0634  0.1704 -0.0530
  642MOL0     C86584  -1.224   0.317  10.152 -0.0338 -0.1491 -0.2548
  642MOL0     C86585  -1.114   0.233  10.153  0.1250 -0.5356 -0.0693
  642MOL0     N86586  -0.401   0.100   9.845  0.1050 -0.2757  0.2108
  642MOL0     N86587  -0.285   0.045   9.862  0.2830  0.5955  0.3126
  642MOL0     C86588   0.921   0.090   9.959 -0.1223 -0.0973  0.8401
  642MOL0     C86589   1.047   0.105  10.016  0.1297 -0.0096  1.0364
  642MOL0     C86590   1.470   0.222  10.123  0.0031  0.7216 -0.1597
  642MOL0     C86591   1.529   0.263  10.242  0.0759  0.8157  0.6229
  642MOL0     C86592   1.667   0.258  10.266  0.5935  0.2398  0.2840
  642MOL0     C86593   1.757   0.210  10.163 -0.8948  0.0399 -0.0593
  642MOL0     O86594   1.895   0.202  10.188  0.0309  0.6954 -0.3724
  642MOL0     C86595   1.986   0.153  10.089  0.0467  0.0917  0.1153
  642MOL0     C86596   2.121   0.187  10.149 -0.5900 -1.1633 -0.0262
  642MOL0     C86597   2.226   0.128  10.055  0.6555 -0.0602 -0.0712
  642MOL0     C86598   2.370   0.161  10.098  0.4707  0.3597  0.1076
  642MOL0     C86599   2.451   0.170   9.978 -0.1137 -0.2060 -0.0612
  642MOL0     C86600   2.512   0.191   9.868  0.5172  0.6374 -0.0301
  642MOL0     C86601   1.697   0.184  10.037  0.4161 -0.2865 -0.1433
  642MOL0     C86602   1.555   0.181  10.019 -0.7697  0.3951  0.2969
  642MOL0     H86603   1.202   0.245   9.746 -1.4546  0.7171 -0.0923
  642MOL0     H86604   0.971   0.250   9.663  0.5919  1.4433 -0.2359
  642MOL0     H86605   0.702  -0.030   9.879  1.1761  1.1713  2.2592
  642MOL0     H86606   0.610   0.124   9.905 -0.2443  0.9612 -0.7261
  642MOL0     H86607   0.591   0.067   9.624 -2.6540  0.4028 -0.4304
  642MOL0     H86608   0.577  -0.082   9.711  1.5242  0.3088  0.7044
  642MOL0     H86609   0.415   0.006   9.865 -0.1580  1.9407  1.1857
  642MOL0     H86610   0.419   0.165   9.791 -0.6000 -0.4222 -0.2466
  642MOL0     H86611   0.335   0.074   9.577  0.8772  0.5618  0.2013
  642MOL0     H86612   0.356  -0.088   9.636  0.0441  0.0560 -0.3768
  642MOL0     H86613   0.116  -0.043   9.659  0.3846 -1.7041  2.4204
  642MOL0     H86614   0.168  -0.021   9.821  0.9972  2.4459  0.9865
  642MOL0     H86615   0.190   0.210   9.816 -0.1247 -1.9935  0.7123
  642MOL0     H86616   0.157   0.224   9.645 -0.2804  0.5836 -0.7210
  642MOL0     H86617  -0.067   0.263   9.726  1.0220  0.4154 -1.8786
  642MOL0     H86618  -0.069   0.092   9.703 -1.7104  0.4275  0.9183
  642MOL0     H86619  -0.001   0.188   9.977 -0.9458  0.7573  1.3300
  642MOL0     H86620  -0.021   0.023   9.901  2.4186 -0.1838 -0.1385
  642MOL0     H86621  -0.217   0.337   9.988  1.2189 -1.9509  0.4835
  642MOL0     H86622  -0.458   0.406   9.905  1.3722 -1.1021 -3.5474
  642MOL0     H86623  -0.575   0.283   9.846  0.7281 -0.0374 -0.7313
  642MOL0     H86624  -0.509   0.374  10.126  1.4204 -0.8490 -1.6574
  642MOL0     H86625  -0.532   0.202  10.115 -0.4360 -0.4458 -0.1486
  642MOL0     H86626  -0.728   0.405  10.028 -0.6971  0.1901 -0.4450
  642MOL0     H86627  -0.751   0.308  10.174 -0.1501 -6.4802  0.3853
  642MOL0     H86628  -0.705   0.105  10.023  1.1737  1.0373 -0.4893
  642MOL0     H86629  -0.797   0.200   9.906  0.6095  1.5320  0.0217
  642MOL0     H86630  -0.942   0.385   9.908  1.1764  0.8669  1.0744
  642MOL0     H86631  -1.110   0.663   9.963 -2.5705 -0.0446  1.6975
  642MOL0     H86632  -1.025   0.566   9.835  0.7376  0.0183  0.8881
  642MOL0     H86633  -1.205   0.602   9.835  0.4868  2.8536 -0.0917
  642MOL0     H86634  -1.389   0.827  10.211 -0.0606  1.2042  3.6235
  642MOL0     H86635  -1.588   0.970  10.203  0.2234 -0.9144 -1.7262
  642MOL0     H86636  -2.005   0.767  10.173  1.9849 -1.0963  0.3067
  642MOL0     H86637  -1.981   0.787  10.345  3.0204 -3.8249 -0.8518
  642MOL0     H86638  -2.034   1.046  10.314 -1.0641  0.8101 -0.6394
  642MOL0     H86639  -2.072   0.998  10.140  2.6974  0.9354 -0.4820
  642MOL0     H86640  -2.215   0.948  10.390 -1.8310  0.9002 -0.5638
  642MOL0     H86641  -2.220   0.817  10.281 -0.6058 -0.9974  3.2774
  642MOL0     H86642  -2.290   1.115  10.233 -1.9163  0.9213 -1.2624
  642MOL0     H86643  -2.319   1.000  10.107  1.4622 -0.9528 -0.5077
  642MOL0     H86644  -2.458   0.966  10.380  1.5776 -0.8081  0.4841
  642MOL0     H86645  -2.475   0.866  10.243  0.6704 -0.3414  1.3670
  642MOL0     H86646  -2.535   1.166  10.240 -0.5562 -0.2762  1.3217
  642MOL0     H86647  -2.548   1.063  10.095  2.1709  0.2742  0.5352
  642MOL0     H86648  -2.701   1.005  10.360 -1.1574 -0.0644  0.1382
  642MOL0     H86649  -2.722   0.921  10.206  1.9814 -0.5415  1.3282
  642MOL0     H86650  -2.812   1.132  10.113 -2.7979  2.2120  0.7456
  642MOL0     H86651  -2.810   1.202  10.276  2.1196 -0.7255 -0.9441
  642MOL0     H86652  -1.833   0.609  10.253  2.0162 -2.9868 -0.2045
  642MOL0     H86653  -1.648   0.480  10.237 -1.4718  0.0836 -1.3821
  642MOL0     H86654  -1.319   0.277  10.186 -0.1898 -0.2521 -0.8064
  642MOL0     H86655  -1.118   0.138  10.204 -1.4945 -0.5171 -0.1039
  642MOL0     H86656   0.845   0.041  10.020  0.3369 -2.3789 -0.3101
  642MOL0     H86657   1.061   0.072  10.118 -0.4821  0.8282  1.4024
  642MOL0     H86658   1.463   0.288  10.324 -0.9636 -1.2670  0.5067
  642MOL0     H86659   1.702   0.283  10.366 -0.6598 -0.4190  0.9100
  642MOL0     H86660   1.968   0.052  10.053  2.5508  0.5242 -2.8663
  642MOL0     H86661   1.960   0.214  10.001 -1.9652  0.6724  1.0586
  642MOL0     H86662   2.127   0.139  10.247 -2.4490  1.1223  1.2999
  642MOL0     H86663   2.125   0.296  10.158 -0.1277 -1.2672  1.2030
  642MOL0     H86664   2.206   0.155   9.951  1.7121  2.1467  0.2235
  642MOL0     H86665   2.205   0.021  10.054 -2.9731  0.5149 -1.3974
  642MOL0     H86666   2.403   0.094  10.178 -1.6836 -0.7258  0.1790
  642MOL0     H86667   2.364   0.260  10.144 -1.8110 -0.1216  0.9857
  642MOL0     H86668   2.576   0.199   9.783  0.4729 -0.1470 -0.1465
  642MOL0     H86669   1.768   0.152   9.962 -0.2639 -2.6321  0.1060
  642MOL0     H86670   1.517   0.153   9.921  0.0015 -2.0076  0.6158
  643MOL0     O86671   4.918   7.944   2.622  0.6664 -1.3883  0.3449
  643MOL0     C86672   4.965   7.841   2.667 -0.6699 -0.5765  0.4270
  643MOL0     O86673   4.904   7.719   2.682  0.2597 -0.6835  0.2080
  643MOL0     C86674   4.792   7.700   2.598  0.2507  0.3062  0.6465
  643MOL0     C86675   4.686   7.635   2.660  0.0453  0.3022  0.6179
  643MOL0     C86676   4.563   7.618   2.586 -1.5400 -0.8567 -0.8776
  643MOL0     C86677   4.559   7.644   2.449  0.1567  0.3313  1.5310
  643MOL0     O86678   4.459   7.604   2.364 -0.6108  0.4969  0.0794
  643MOL0     C86679   4.351   7.696   2.369 -0.3260 -0.2134  0.2444
  643MOL0     C86680   4.223   7.633   2.312  0.0807  0.9461 -0.1192
  643MOL0     C86681   4.091   7.700   2.358  0.2058  0.3601 -0.1101
  643MOL0     C86682   3.981   7.630   2.287 -0.0171  0.3793  0.8177
  643MOL0     C86683   3.831   7.646   2.328  0.1557  0.8906  0.8657
  643MOL0     C86684   3.786   7.790   2.323 -0.5222 -0.1859 -0.0297
  643MOL0     C86685   3.643   7.816   2.356  0.1751 -1.0778  0.3595
  643MOL0     C86686   3.543   7.733   2.270  0.2440 -0.2747  0.1674
  643MOL0     N86687   3.408   7.789   2.283 -0.9960 -0.2530  0.6934
  643MOL0     C86688   3.326   7.782   2.395 -0.4458  0.1511  1.1378
  643MOL0     C86689   3.220   7.868   2.358  0.9079  0.6509 -0.5299
  643MOL0     C86690   3.094   7.894   2.431  0.0383  0.2599 -0.2291
  643MOL0     C86691   2.977   7.817   2.377  0.5142 -0.5943 -0.6884
  643MOL0     C86692   2.867   7.831   2.482 -0.7375  0.0097 -0.1174
  643MOL0     C86693   2.735   7.770   2.419  0.0229 -0.2850  0.1448
  643MOL0     O86694   2.748   7.627   2.401 -0.2652 -0.1646  0.3103
  643MOL0     C86695   2.643   7.545   2.398  0.2086  0.3600  0.6395
  643MOL0     C86696   2.502   7.586   2.393 -0.9856 -0.4759  0.1374
  643MOL0     C86697   2.407   7.489   2.402 -0.3575 -0.1423 -0.4989
  643MOL0     C86698   2.267   7.528   2.378  0.5285  0.5030  0.3594
  643MOL0     C86699   2.445   7.350   2.429  0.9633 -0.4490 -0.8503
  643MOL0     C86700   2.343   7.245   2.451  0.7493 -0.1838 -0.5351
  643MOL0     O86701   2.390   7.131   2.524 -0.0711 -0.8998  0.2924
  643MOL0     C86702   2.311   7.027   2.537  0.5701 -0.4749  0.3564
  643MOL0     C86703   2.225   7.004   2.655  0.0791  0.7736 -0.8554
  643MOL0     C86704   2.140   6.899   2.663  0.8172 -0.7788  0.9327
  643MOL0     C86705   2.131   6.809   2.558 -0.5634  0.1801  0.8242
  643MOL0     O86706   2.070   6.686   2.568 -0.2852 -0.2599  0.0674
  643MOL0     C86707   2.016   6.632   2.698  0.3598 -0.4858 -0.1568
  643MOL0     C86708   1.995   6.480   2.683 -0.5711 -0.7588 -0.7498
  643MOL0     C86709   1.860   6.454   2.627 -0.3472  0.3692 -0.3253
  643MOL0     C86710   1.817   6.311   2.656 -0.0051  0.0848 -0.3740
  643MOL0     C86711   1.929   6.201   2.644  0.0797 -0.0098 -0.6422
  643MOL0     C86712   1.869   6.053   2.643 -0.8489 -0.5635  0.0101
  643MOL0     C86713   1.997   5.961   2.628  0.3402 -0.0537  0.0433
  643MOL0     C86714   1.944   5.820   2.624  0.2993 -0.3676  0.6275
  643MOL0    Cl86715   1.888   5.791   2.454 -0.3048  0.0581  0.3865
  643MOL0     C86716   2.204   6.826   2.444 -0.1339 -0.0630 -0.2620
  643MOL0     C86717   2.289   6.939   2.428 -0.7334  0.7049 -0.6122
  643MOL0     O86718   2.232   7.250   2.401 -0.0549 -1.6986  0.3338
  643MOL0     C86719   2.584   7.323   2.448 -0.7481 -0.9050  0.0772
  643MOL0     C86720   2.678   7.416   2.417 -0.4571  0.3765  1.1499
  643MOL0     N86721   3.248   7.932   2.240  0.0645 -0.0989 -0.1398
  643MOL0     N86722   3.359   7.881   2.199 -0.6277 -0.0121 -0.0902
  643MOL0     C86723   4.670   7.711   2.389  0.0009  0.1464  0.0966
  643MOL0     C86724   4.781   7.737   2.464  0.7708  0.0609 -0.2486
  643MOL0     C86725   5.091   7.851   2.743  0.1677 -0.1881 -0.7535
  643MOL0     C86726   5.126   7.968   2.820  0.2658 -0.4596  0.1260
  643MOL0     C86727   5.250   7.977   2.877 -0.6412 -0.3600  0.9352
  643MOL0     C86728   5.337   7.865   2.879  0.2794 -0.3972 -0.3493
  643MOL0     O86729   5.460   7.858   2.945 -0.3511 -0.2389 -0.0232
  643MOL0     C86730   5.501   7.980   2.999 -0.1695 -0.1955 -0.8384
  643MOL0     C86731   5.655   7.959   3.023 -1.3326  0.3979 -0.2268
  643MOL0     C86732   5.718   8.099   3.067  0.2608  0.5584 -0.0279
  643MOL0     C86733   5.876   8.097   3.088 -0.3419 -0.0422  0.0412
  643MOL0     C86734   5.937   8.092   2.961 -0.1070  0.2565 -0.2114
  643MOL0     C86735   5.990   8.104   2.853 -0.9912  1.0943 -0.8332
  643MOL0     C86736   5.306   7.757   2.808  0.5806  0.0503 -0.3331
  643MOL0     C86737   5.183   7.750   2.739 -0.2737 -0.1094  0.2444
  643MOL0     H86738   4.694   7.600   2.762 -1.4508  2.4248  1.5322
  643MOL0     H86739   4.483   7.584   2.651 -1.2898 -2.8181 -1.5162
  643MOL0     H86740   4.334   7.743   2.466  2.9080  1.5592  0.1214
  643MOL0     H86741   4.382   7.780   2.305 -1.1936  0.2484  0.4149
  643MOL0     H86742   4.232   7.636   2.203  3.4291  2.2843  0.0746
  643MOL0     H86743   4.216   7.527   2.339 -1.9348  0.8264 -0.9942
  643MOL0     H86744   4.062   7.684   2.462 -0.1963 -2.1867 -0.5495
  643MOL0     H86745   4.094   7.807   2.334  2.3240 -0.0585 -2.0318
  643MOL0     H86746   3.987   7.669   2.185  1.5305 -1.4181  0.1483
  643MOL0     H86747   4.011   7.525   2.278  2.8286  0.9889  2.1463
  643MOL0     H86748   3.773   7.575   2.267 -0.9381  0.4988  2.3036
  643MOL0     H86749   3.816   7.607   2.429 -0.0840 -1.7653 -0.1066
  643MOL0     H86750   3.853   7.850   2.385  0.2825  0.5078 -1.5228
  643MOL0     H86751   3.812   7.830   2.225  0.6923 -2.5658 -0.7670
  643MOL0     H86752   3.607   7.802   2.458 -1.9259  1.3674  0.0482
  643MOL0     H86753   3.622   7.921   2.334 -2.6422 -1.1688  2.0978
  643MOL0     H86754   3.546   7.627   2.295  0.6288 -0.4364 -0.5250
  643MOL0     H86755   3.567   7.741   2.163  0.1311 -1.6415  0.0243
  643MOL0     H86756   3.338   7.715   2.479  3.0691  0.7894  1.3030
  643MOL0     H86757   3.112   7.861   2.534  0.7393  0.9851 -0.1063
  643MOL0     H86758   3.066   8.000   2.437  0.6600  0.3560  1.7290
  643MOL0     H86759   3.003   7.712   2.366  1.6596 -0.5309  1.0168
  643MOL0     H86760   2.944   7.867   2.285  1.3169 -3.1779 -2.5010
  643MOL0     H86761   2.851   7.935   2.511 -1.5302 -1.0881  4.0755
  643MOL0     H86762   2.896   7.773   2.570  0.6808 -1.1503 -1.3057
  643MOL0     H86763   2.718   7.826   2.327 -2.3080  1.9125  1.7780
  643MOL0     H86764   2.646   7.785   2.482  0.5834  0.7980  0.6976
  643MOL0     H86765   2.478   7.690   2.376  1.2235  0.3236  1.5430
  643MOL0     H86766   2.237   7.471   2.290 -1.0113  1.9015 -0.0826
  643MOL0     H86767   2.202   7.506   2.464 -0.8675  1.8384 -0.2974
  643MOL0     H86768   2.255   7.636   2.361  0.6599  0.1331 -2.5375
  643MOL0     H86769   2.241   7.065   2.744  4.9747 -0.7022 -0.4460
  643MOL0     H86770   2.077   6.889   2.751 -1.2802  3.1534  0.0770
  643MOL0     H86771   2.088   6.646   2.780 -0.4692 -1.5728  0.7861
  643MOL0     H86772   1.926   6.689   2.722  1.5411  1.0971  0.7201
  643MOL0     H86773   2.084   6.430   2.645  1.5818  0.5539  2.1572
  643MOL0     H86774   1.990   6.440   2.785  0.4607  1.0818  0.0870
  643MOL0     H86775   1.882   6.455   2.520  0.6412  0.6637 -0.1302
  643MOL0     H86776   1.793   6.533   2.661  0.3563  0.8796 -0.0998
  643MOL0     H86777   1.778   6.300   2.758 -0.0105 -2.3476 -0.5820
  643MOL0     H86778   1.732   6.286   2.591 -1.4296  2.5473  0.3979
  643MOL0     H86779   1.995   6.210   2.731 -0.8993 -1.0399  0.2273
  643MOL0     H86780   1.980   6.216   2.548  0.6347  1.3252 -0.1719
  643MOL0     H86781   1.815   6.036   2.737  0.7351 -1.4548  0.7942
  643MOL0     H86782   1.798   6.049   2.560 -1.4031 -0.6242  0.4797
  643MOL0     H86783   2.064   5.969   2.714 -1.2810 -2.8422  1.7324
  643MOL0     H86784   2.050   5.979   2.534 -3.0592 -1.1110 -2.2448
  643MOL0     H86785   1.848   5.814   2.675 -0.1996 -4.3421 -0.4530
  643MOL0     H86786   2.014   5.742   2.655  1.6368 -0.6585 -2.6533
  643MOL0     H86787   2.193   6.751   2.366 -2.2833  0.2971 -0.3838
  643MOL0     H86788   2.343   6.955   2.336  0.4026 -1.3453 -0.3492
  643MOL0     H86789   2.621   7.223   2.468  0.7754 -0.6291 -1.1745
  643MOL0     H86790   2.781   7.380   2.417 -0.4440  0.2991 -0.7571
  643MOL0     H86791   4.660   7.735   2.284  3.5495 -0.5275 -0.5388
  643MOL0     H86792   4.869   7.779   2.417  1.1198 -3.3410 -3.1018
  643MOL0     H86793   5.058   8.050   2.842  2.8860  1.1905  2.7024
  643MOL0     H86794   5.282   8.070   2.921  4.6399 -0.9620 -0.8425
  643MOL0     H86795   5.498   8.072   2.940  0.1928  1.4226  1.5368
  643MOL0     H86796   5.449   8.003   3.092 -1.4904 -0.3538 -1.5151
  643MOL0     H86797   5.705   7.908   2.940 -0.5340 -1.1744  1.1477
  643MOL0     H86798   5.675   7.887   3.103  0.9015 -0.1424 -1.1898
  643MOL0     H86799   5.668   8.137   3.157 -2.4597 -0.7068 -0.9036
  643MOL0     H86800   5.701   8.171   2.985  1.5753  2.1085  0.9885
  643MOL0     H86801   5.903   8.013   3.153 -0.6934  0.6720  1.1349
  643MOL0     H86802   5.898   8.193   3.136 -0.8224  0.8161 -1.3850
  643MOL0     H86803   6.044   8.113   2.761  3.8088 -0.7021  1.4727
  643MOL0     H86804   5.363   7.665   2.808 -1.5083 -1.3039  0.4824
  643MOL0     H86805   5.168   7.656   2.687  0.9639 -1.2932  1.9370
  644MOL0     O86806   4.657  11.306   1.832  0.2767  0.3699 -0.4636
  644MOL0     C86807   4.676  11.276   1.715  0.2341  0.7074  0.1764
  644MOL0     O86808   4.580  11.243   1.624  0.7439 -0.1721 -0.1426
  644MOL0     C86809   4.450  11.221   1.661  0.3999  0.6730  0.1077
  644MOL0     C86810   4.378  11.313   1.725 -0.1008 -1.0498 -0.1180
  644MOL0     C86811   4.249  11.289   1.762 -0.2849 -0.2628 -0.1976
  644MOL0     C86812   4.180  11.178   1.711 -0.1346  0.5430  0.5438
  644MOL0     O86813   4.049  11.166   1.744  0.4607 -0.0362 -0.1680
  644MOL0     C86814   3.950  11.141   1.636 -0.3596 -0.5933 -1.2930
  644MOL0     C86815   3.823  11.221   1.671 -0.2334  0.1347  0.7332
  644MOL0     C86816   3.755  11.167   1.808 -0.0350  0.0875  0.0665
  644MOL0     C86817   3.662  11.268   1.869 -0.3235 -0.3352  0.6971
  644MOL0     C86818   3.632  11.246   2.022 -0.8958 -0.7220 -0.9493
  644MOL0     C86819   3.574  11.102   2.046 -0.4166  0.3572  0.7891
  644MOL0     C86820   3.496  11.086   2.176 -0.8923 -0.0829  0.8198
  644MOL0     C86821   3.507  10.931   2.222 -0.2373 -0.4591  0.2203
  644MOL0     N86822   3.453  10.926   2.356  0.7257 -0.8488 -0.6049
  644MOL0     C86823   3.521  10.943   2.476 -0.1750 -0.4419 -0.0207
  644MOL0     C86824   3.430  10.928   2.575  0.0752  0.2159  0.1146
  644MOL0     C86825   3.449  10.921   2.720  0.0568  1.1462 -0.5407
  644MOL0     C86826   3.526  11.035   2.777 -0.5231 -0.0969 -0.6940
  644MOL0     C86827   3.549  11.027   2.929  0.6491  0.3296  0.0729
  644MOL0     C86828   3.426  11.026   3.013 -0.5298  0.6979 -0.2124
  644MOL0     O86829   3.364  11.153   3.012 -0.7939 -0.3159 -0.3434
  644MOL0     C86830   3.258  11.173   3.096  0.6187  0.1792  0.0010
  644MOL0     C86831   3.195  11.293   3.083 -0.6034  0.6871  0.5567
  644MOL0     C86832   3.075  11.334   3.151 -0.4998 -0.1018  0.0157
  644MOL0     C86833   3.031  11.475   3.136  0.0705 -0.3663  0.0831
  644MOL0     C86834   3.019  11.236   3.245  0.3393 -0.5318 -0.1334
  644MOL0     C86835   2.893  11.262   3.319  1.1811 -0.0343  0.5190
  644MOL0     O86836   2.852  11.174   3.415  0.1456  0.2494 -0.4200
  644MOL0     C86837   2.745  11.197   3.492 -0.4021  0.5866  0.7385
  644MOL0     C86838   2.751  11.238   3.622 -0.3622 -0.2883  0.2730
  644MOL0     C86839   2.636  11.258   3.695 -0.0302 -0.0878  0.7051
  644MOL0     C86840   2.512  11.257   3.634  0.1825  0.1995 -0.0854
  644MOL0     O86841   2.411  11.293   3.717 -0.2982  0.0314  0.4861
  644MOL0     C86842   2.288  11.220   3.691 -0.5199  0.2391  1.1027
  644MOL0     C86843   2.188  11.255   3.803  0.4813 -0.0595 -0.5330
  644MOL0     C86844   2.068  11.169   3.794 -1.4335  0.4067  0.3545
  644MOL0     C86845   1.999  11.170   3.930 -0.3696 -0.0049  0.1307
  644MOL0     C86846   1.869  11.085   3.915  0.3378  0.2809 -0.4322
  644MOL0     C86847   1.775  11.119   4.037  0.4982 -0.9549 -0.6908
  644MOL0     C86848   1.639  11.051   4.041  0.7220  0.4565  0.0954
  644MOL0     C86849   1.577  11.051   4.182 -0.3197  0.5001 -0.6979
  644MOL0    Cl86850   1.443  10.934   4.187  0.4217  0.0825  0.3635
  644MOL0     C86851   2.496  11.216   3.503 -0.1640  0.0480  0.3023
  644MOL0     C86852   2.622  11.191   3.435  0.4511  1.2828  0.1024
  644MOL0     O86853   2.833  11.367   3.306  0.0091  0.6523  0.0479
  644MOL0     C86854   3.076  11.110   3.256  0.3611  0.7243 -0.4356
  644MOL0     C86855   3.193  11.075   3.176  0.6466 -0.8002 -0.3105
  644MOL0     N86856   3.306  10.892   2.516 -0.2920  0.0005  0.2110
  644MOL0     N86857   3.321  10.889   2.383  0.1669  0.4665 -0.3346
  644MOL0     C86858   4.254  11.080   1.639 -0.6405 -0.0949  0.4721
  644MOL0     C86859   4.392  11.103   1.620 -0.8415 -0.2703 -0.6409
  644MOL0     C86860   4.817  11.260   1.674  0.8327 -0.6332 -0.0072
  644MOL0     C86861   4.851  11.214   1.551 -0.0814 -0.2410  0.3871
  644MOL0     C86862   4.984  11.194   1.516 -0.5013  0.1725 -0.2311
  644MOL0     C86863   5.092  11.224   1.604 -0.4359  0.1850 -0.5176
  644MOL0     O86864   5.217  11.221   1.547 -0.3734  0.0913 -0.0356
  644MOL0     C86865   5.328  11.211   1.637 -0.1514 -0.0274 -0.0068
  644MOL0     C86866   5.456  11.161   1.573 -0.2377  0.1828 -0.4126
  644MOL0     C86867   5.573  11.148   1.665 -0.5321 -0.1304 -0.5895
  644MOL0     C86868   5.705  11.111   1.598  0.5286  0.1683 -0.4899
  644MOL0     C86869   5.752  11.205   1.496 -0.7960  0.3512 -0.3273
  644MOL0     C86870   5.783  11.274   1.405  0.2938 -0.8100  0.0628
  644MOL0     C86871   5.055  11.269   1.734 -0.3009 -0.4434  0.6503
  644MOL0     C86872   4.921  11.282   1.767 -0.3247 -0.7579  0.5382
  644MOL0     H86873   4.416  11.410   1.754 -0.3459 -0.8324 -0.5231
  644MOL0     H86874   4.202  11.369   1.819  0.6375 -0.1968  0.5048
  644MOL0     H86875   3.984  11.188   1.543  0.2044 -0.0112 -0.8037
  644MOL0     H86876   3.930  11.035   1.619  0.2771 -1.0413  0.5646
  644MOL0     H86877   3.844  11.328   1.683  0.3220  0.6991 -3.5095
  644MOL0     H86878   3.753  11.217   1.587 -0.0256 -0.0098  0.5680
  644MOL0     H86879   3.702  11.072   1.797  0.2867  0.0596 -1.3919
  644MOL0     H86880   3.827  11.152   1.889  1.0865 -2.4755 -1.3066
  644MOL0     H86881   3.713  11.363   1.855 -0.2117 -0.1380  2.2608
  644MOL0     H86882   3.566  11.269   1.816 -0.8043 -1.3587  1.5045
  644MOL0     H86883   3.723  11.261   2.081 -0.8478 -0.9749 -0.9613
  644MOL0     H86884   3.562  11.321   2.061  1.3045  0.9347  0.0856
  644MOL0     H86885   3.505  11.075   1.966  0.8811 -0.0642 -0.2174
  644MOL0     H86886   3.656  11.030   2.051 -0.6197 -0.0712 -1.4174
  644MOL0     H86887   3.548  11.154   2.244 -2.6213  1.9905  0.1895
  644MOL0     H86888   3.391  11.114   2.161 -2.1371 -3.3552  2.5145
  644MOL0     H86889   3.609  10.893   2.231  0.2617  0.9092  0.6429
  644MOL0     H86890   3.451  10.864   2.157  0.3414 -0.5797 -0.1629
  644MOL0     H86891   3.626  10.962   2.499 -0.6619  1.2703  0.9520
  644MOL0     H86892   3.350  10.909   2.765 -0.2309 -0.5192 -1.5435
  644MOL0     H86893   3.491  10.824   2.745 -1.7072  0.8975  1.8441
  644MOL0     H86894   3.475  11.132   2.776 -0.6385 -0.1356  0.2900
  644MOL0     H86895   3.620  11.044   2.722  2.3113 -1.1725  3.4806
  644MOL0     H86896   3.603  11.115   2.965  2.4976 -0.5744 -0.3382
  644MOL0     H86897   3.612  10.939   2.948  0.7105  0.3289 -0.1290
  644MOL0     H86898   3.459  11.000   3.114 -2.1827 -2.1732 -0.3189
  644MOL0     H86899   3.352  10.956   2.973  0.1603  1.4205 -2.9687
  644MOL0     H86900   3.248  11.360   3.016 -0.9063 -0.6262 -1.0532
  644MOL0     H86901   2.963  11.475   3.050  1.4312  0.1714 -1.0256
  644MOL0     H86902   2.977  11.524   3.217  0.1541  0.9048 -0.6147
  644MOL0     H86903   3.115  11.539   3.109  1.1651 -1.1609  1.4572
  644MOL0     H86904   2.846  11.232   3.673  0.7234 -6.9708 -1.5304
  644MOL0     H86905   2.634  11.293   3.798  1.5998  0.2556  0.6602
  644MOL0     H86906   2.243  11.245   3.595 -0.0449  0.9024  1.0429
  644MOL0     H86907   2.304  11.112   3.684  1.8950  0.5885  0.1326
  644MOL0     H86908   2.245  11.235   3.894 -3.6730 -0.6430  2.1973
  644MOL0     H86909   2.145  11.355   3.796 -0.3844 -0.4953 -1.7012
  644MOL0     H86910   2.095  11.067   3.765 -0.9365  0.7028 -0.2492
  644MOL0     H86911   2.000  11.210   3.718 -3.7399 -1.1997  1.4374
  644MOL0     H86912   2.058  11.112   4.001 -1.7463 -0.6787  0.7623
  644MOL0     H86913   1.973  11.269   3.968 -0.2541  0.5504 -1.1892
  644MOL0     H86914   1.887  10.977   3.921 -1.6752 -0.0502  0.7346
  644MOL0     H86915   1.810  11.113   3.827 -1.2938  2.3660  1.2168
  644MOL0     H86916   1.822  11.089   4.131 -3.1204  2.9214  2.7993
  644MOL0     H86917   1.760  11.227   4.047  1.0495 -1.0135  1.0624
  644MOL0     H86918   1.651  10.950   4.001  1.1121  0.8939 -0.9203
  644MOL0     H86919   1.573  11.099   3.967  0.2941 -0.5871 -0.2269
  644MOL0     H86920   1.542  11.152   4.205 -1.8474  0.1459 -1.3637
  644MOL0     H86921   1.654  11.025   4.255 -1.6982 -0.6796  0.3962
  644MOL0     H86922   2.408  11.214   3.438  1.2646  1.2192 -1.8169
  644MOL0     H86923   2.617  11.176   3.327  2.8242  1.4679 -0.0953
  644MOL0     H86924   3.023  11.036   3.315 -0.8511  2.3339  0.5683
  644MOL0     H86925   3.240  10.981   3.204 -1.9987 -1.9514  0.6737
  644MOL0     H86926   4.204  10.991   1.602  0.0477  0.1501 -1.1567
  644MOL0     H86927   4.455  11.029   1.572 -1.1183 -0.7790 -0.2311
  644MOL0     H86928   4.773  11.188   1.480  0.4187 -1.5381  0.2820
  644MOL0     H86929   5.001  11.166   1.413  0.3982  1.1016 -0.3483
  644MOL0     H86930   5.354  11.311   1.674  0.4414 -0.4050  0.6153
  644MOL0     H86931   5.286  11.146   1.714 -0.0787  1.0138  0.9429
  644MOL0     H86932   5.487  11.227   1.491 -0.9617  1.9166  0.6643
  644MOL0     H86933   5.440  11.063   1.527  0.9714 -0.6432  0.8613
  644MOL0     H86934   5.544  11.067   1.732 -3.2049  1.7313  0.7391
  644MOL0     H86935   5.572  11.248   1.710 -2.4644  1.0198 -2.9237
  644MOL0     H86936   5.687  11.017   1.545 -1.5126  0.5716 -0.5767
  644MOL0     H86937   5.779  11.087   1.675 -0.0167  3.6493  1.3292
  644MOL0     H86938   5.815  11.342   1.330  0.5823  0.5702  1.3845
  644MOL0     H86939   5.127  11.299   1.809  2.1578 -2.3802 -0.7808
  644MOL0     H86940   4.894  11.328   1.861  1.7796  1.9624 -0.0657
  645MOL0     O86941   3.250   7.383   2.416 -0.1988 -0.1298  0.2742
  645MOL0     C86942   3.329   7.371   2.506 -0.8760 -0.0063  0.0998
  645MOL0     O86943   3.303   7.353   2.641  0.4607 -0.5609  0.7378
  645MOL0     C86944   3.167   7.353   2.673  0.1742  0.0951 -0.5637
  645MOL0     C86945   3.108   7.259   2.762  0.2411  0.3539 -0.0648
  645MOL0     C86946   2.972   7.252   2.796 -0.3056  0.3249  0.2058
  645MOL0     C86947   2.887   7.349   2.745  0.2303 -0.5892 -0.0464
  645MOL0     O86948   2.755   7.332   2.779 -0.5750  0.5904 -0.5738
  645MOL0     C86949   2.697   7.456   2.829 -1.2986  0.8471 -0.6830
  645MOL0     C86950   2.553   7.437   2.881 -0.8575 -0.8726  0.2644
  645MOL0     C86951   2.438   7.415   2.784  0.5150  0.3308 -0.7733
  645MOL0     C86952   2.312   7.437   2.863 -0.3258 -0.1222 -0.2876
  645MOL0     C86953   2.193   7.419   2.774 -0.1949  0.5053 -0.4224
  645MOL0     C86954   2.059   7.426   2.840  0.7896 -0.2842 -0.6181
  645MOL0     C86955   1.948   7.421   2.730  0.1079  0.5331  0.3634
  645MOL0     C86956   1.927   7.277   2.676  0.1801  0.1427  1.3178
  645MOL0     N86957   1.894   7.177   2.781 -0.2672 -0.0040 -0.2292
  645MOL0     C86958   1.768   7.157   2.832  0.0354  0.0934  0.4396
  645MOL0     C86959   1.780   7.082   2.948 -0.1554  0.0201  0.0888
  645MOL0     C86960   1.678   7.039   3.045 -0.7030 -0.4620 -0.3765
  645MOL0     C86961   1.648   7.155   3.140  0.3832  0.3593 -0.5139
  645MOL0     C86962   1.509   7.137   3.202  0.2521  0.1473  0.1923
  645MOL0     C86963   1.499   7.214   3.336  0.5959  0.0651 -0.1525
  645MOL0     O86964   1.374   7.201   3.389  0.5520 -0.4727 -0.0780
  645MOL0     C86965   1.318   7.088   3.438 -0.2159 -0.2167 -1.2809
  645MOL0     C86966   1.178   7.069   3.438 -0.2582 -0.2621  0.5118
  645MOL0     C86967   1.123   6.958   3.507 -0.3087  0.7574  0.4165
  645MOL0     C86968   0.974   6.958   3.495 -0.0878 -0.2676 -0.4557
  645MOL0     C86969   1.196   6.855   3.576 -0.2509 -0.2793  0.6519
  645MOL0     C86970   1.149   6.737   3.657 -0.5414 -0.2116  0.0676
  645MOL0     O86971   1.242   6.634   3.660  0.4494  0.7218 -0.2227
  645MOL0     C86972   1.205   6.513   3.709  0.3447 -0.3269 -0.6796
  645MOL0     C86973   1.307   6.440   3.775 -0.0071  0.4632 -0.3591
  645MOL0     C86974   1.281   6.311   3.826 -0.1295  0.0401 -0.4743
  645MOL0     C86975   1.155   6.255   3.822 -0.1977  0.5392  0.1610
  645MOL0     O86976   1.125   6.144   3.897  0.3758 -0.1900  0.3797
  645MOL0     C86977   0.989   6.108   3.920 -0.3037  0.1493 -0.3965
  645MOL0     C86978   1.000   5.994   4.015 -0.8884 -0.5168  0.0703
  645MOL0     C86979   1.073   5.869   3.957  0.2429 -0.3715  0.5429
  645MOL0     C86980   1.087   5.751   4.057  0.0687  0.1461 -0.5409
  645MOL0     C86981   1.152   5.625   3.996 -0.0813 -0.4538 -1.2160
  645MOL0     C86982   1.294   5.662   3.961  0.8320 -0.0451  0.7074
  645MOL0     C86983   1.388   5.543   3.954 -0.3372  0.2118  1.1317
  645MOL0     C86984   1.491   5.557   3.841 -0.1806  0.6873  0.4054
  645MOL0    Cl86985   1.413   5.537   3.685  0.3582  0.2858  0.0662
  645MOL0     C86986   1.059   6.325   3.745 -0.3126  0.2621 -0.2255
  645MOL0     C86987   1.088   6.448   3.684  0.7395  0.3131  1.0760
  645MOL0     O86988   1.038   6.734   3.699  0.6462  0.0268 -0.8874
  645MOL0     C86989   1.338   6.873   3.560 -0.2949 -0.3508  0.2214
  645MOL0     C86990   1.399   6.983   3.496  0.4410  0.9894  0.5383
  645MOL0     N86991   1.921   7.047   2.951  1.2001 -0.3508 -0.2951
  645MOL0     N86992   1.982   7.101   2.853  0.4465 -0.3437  0.1665
  645MOL0     C86993   2.935   7.451   2.657  0.8540  0.1955 -0.8456
  645MOL0     C86994   3.075   7.454   2.629  0.3033  0.0824  0.1641
  645MOL0     C86995   3.474   7.349   2.476  0.3680  0.1375 -0.1083
  645MOL0     C86996   3.573   7.342   2.579 -0.3476  0.3891 -0.4220
  645MOL0     C86997   3.700   7.318   2.539 -0.2985  0.7445 -0.5474
  645MOL0     C86998   3.737   7.281   2.406 -0.5443 -0.5644 -1.4377
  645MOL0     O86999   3.868   7.245   2.391  0.3355 -0.3918 -0.0283
  645MOL0     C87000   3.913   7.182   2.266  0.7169  0.4985 -0.4396
  645MOL0     C87001   4.065   7.131   2.274 -0.5784 -0.8459  0.1568
  645MOL0     C87002   4.108   7.043   2.152 -0.0834 -0.0767  1.2242
  645MOL0     C87003   4.243   6.980   2.152 -0.2889 -0.2637 -0.7358
  645MOL0     C87004   4.345   7.088   2.180 -0.1099  0.1411 -0.4926
  645MOL0     C87005   4.415   7.182   2.195  0.1985 -0.3457  0.1230
  645MOL0     C87006   3.638   7.284   2.315 -0.1362 -0.2838  0.0370
  645MOL0     C87007   3.512   7.322   2.345 -0.0157 -0.0998 -0.1161
  645MOL0     H87008   3.171   7.178   2.796 -1.3987 -1.4497 -1.1251
  645MOL0     H87009   2.933   7.168   2.852  5.0100 -3.3135 -0.7771
  645MOL0     H87010   2.762   7.487   2.911 -0.3064  0.0150 -1.1436
  645MOL0     H87011   2.686   7.538   2.757  0.8949  1.9408  0.1364
  645MOL0     H87012   2.554   7.349   2.946  0.3503 -0.2936  1.0784
  645MOL0     H87013   2.527   7.518   2.948  1.7612  0.2483  0.0629
  645MOL0     H87014   2.449   7.487   2.702  1.6939 -0.4618 -1.3341
  645MOL0     H87015   2.439   7.311   2.749 -0.5510 -0.6118  1.7670
  645MOL0     H87016   2.313   7.356   2.937 -0.3693 -1.7959 -2.0494
  645MOL0     H87017   2.307   7.541   2.895  0.1526  1.2108 -4.0768
  645MOL0     H87018   2.203   7.493   2.694 -0.8559  1.9700  0.7949
  645MOL0     H87019   2.201   7.330   2.712  0.1557  0.6746 -0.6221
  645MOL0     H87020   2.060   7.346   2.914  1.9490 -1.7894 -2.1765
  645MOL0     H87021   2.052   7.517   2.900 -0.0185  0.3291 -1.6016
  645MOL0     H87022   1.852   7.456   2.768  0.9418  3.9490 -0.3648
  645MOL0     H87023   1.974   7.494   2.653 -1.0331 -0.7928 -1.3654
  645MOL0     H87024   2.016   7.242   2.622 -2.7572 -3.3787 -1.7672
  645MOL0     H87025   1.847   7.265   2.602  0.5127 -0.7492  1.0892
  645MOL0     H87026   1.675   7.190   2.785  0.4831  0.4211 -0.2332
  645MOL0     H87027   1.590   7.015   2.985  0.1743  2.2986 -3.0615
  645MOL0     H87028   1.721   6.955   3.100  1.6816 -0.2505 -1.7658
  645MOL0     H87029   1.655   7.256   3.099 -2.8861  0.2205 -1.6697
  645MOL0     H87030   1.715   7.146   3.227 -1.5560  1.4580  1.1970
  645MOL0     H87031   1.487   7.030   3.208  1.0896 -0.2262 -2.3262
  645MOL0     H87032   1.431   7.180   3.139  0.0633 -1.4584 -0.7052
  645MOL0     H87033   1.523   7.318   3.310 -1.0774  0.2542 -1.0849
  645MOL0     H87034   1.570   7.169   3.405 -1.0524 -1.0056  0.9248
  645MOL0     H87035   1.115   7.135   3.379  1.8588 -2.0403 -4.3047
  645MOL0     H87036   0.945   6.854   3.481  0.2659 -0.4930  0.3991
  645MOL0     H87037   0.939   7.011   3.585  2.8671  2.7725 -0.8901
  645MOL0     H87038   0.943   7.011   3.405 -0.1858 -1.4693 -1.1475
  645MOL0     H87039   1.399   6.493   3.795  0.3644 -0.3208  0.0679
  645MOL0     H87040   1.363   6.256   3.872  0.3972  0.0606 -1.3710
  645MOL0     H87041   0.938   6.190   3.972 -0.4523 -1.4113  2.0860
  645MOL0     H87042   0.943   6.072   3.828  3.2144 -1.5352 -1.6536
  645MOL0     H87043   1.045   6.028   4.108 -0.2525  3.3418 -1.4784
  645MOL0     H87044   0.894   5.967   4.025 -1.3701  0.9535 -0.8157
  645MOL0     H87045   1.172   5.906   3.930 -0.6818  0.9690 -1.1017
  645MOL0     H87046   1.036   5.836   3.860  4.3223  1.8501 -2.0500
  645MOL0     H87047   1.144   5.789   4.142  0.0547 -0.8629 -0.0625
  645MOL0     H87048   0.991   5.725   4.104 -0.5815  3.4270  0.2273
  645MOL0     H87049   1.103   5.589   3.906 -1.1506 -1.9434 -0.0951
  645MOL0     H87050   1.152   5.541   4.065 -0.4205 -0.3577 -1.0943
  645MOL0     H87051   1.284   5.713   3.865 -0.4939 -0.4763  0.5988
  645MOL0     H87052   1.338   5.733   4.032 -2.6699  1.9077  1.1259
  645MOL0     H87053   1.326   5.453   3.946 -0.0890  0.1535 -0.2557
  645MOL0     H87054   1.460   5.545   4.036  2.2165  2.2631 -0.9986
  645MOL0     H87055   1.571   5.483   3.846 -1.3128 -0.5604  0.7508
  645MOL0     H87056   1.538   5.656   3.838 -1.8002  1.4739 -1.2510
  645MOL0     H87057   0.955   6.295   3.744 -0.4992  0.8941 -0.0810
  645MOL0     H87058   1.005   6.497   3.635 -0.2821 -0.3848  2.0532
  645MOL0     H87059   1.418   6.815   3.604  2.4914  0.8686 -2.8343
  645MOL0     H87060   1.507   6.978   3.490  0.4207 -1.8305  1.3870
  645MOL0     H87061   2.859   7.516   2.615  1.0746  0.2314 -1.1985
  645MOL0     H87062   3.112   7.533   2.564  1.9040 -2.2932 -2.0128
  645MOL0     H87063   3.560   7.357   2.686  0.4252  0.6224 -0.3571
  645MOL0     H87064   3.786   7.317   2.606  0.1922  2.3585 -1.0959
  645MOL0     H87065   3.854   7.095   2.235 -1.3675  1.2470  1.2212
  645MOL0     H87066   3.895   7.255   2.186  0.2013  1.5633  0.6236
  645MOL0     H87067   4.093   7.075   2.364  3.4255  1.7220  0.7522
  645MOL0     H87068   4.124   7.223   2.285 -1.2468 -0.3647 -0.2358
  645MOL0     H87069   4.098   7.105   2.062  1.7945 -0.1674  0.9244
  645MOL0     H87070   4.031   6.966   2.163  1.1454 -0.9375  4.9941
  645MOL0     H87071   4.253   6.946   2.048 -0.2077 -1.8458 -0.2447
  645MOL0     H87072   4.255   6.895   2.220 -0.8076 -2.1650 -2.8900
  645MOL0     H87073   4.483   7.264   2.207 -0.5251  0.7437 -2.5740
  645MOL0     H87074   3.665   7.257   2.214 -0.8931 -1.2280  0.0734
  645MOL0     H87075   3.439   7.307   2.266  1.1778  0.2464 -1.3155
  646MOL0     O87076   8.445   0.178   8.152  0.7331  0.3758  0.2615
  646MOL0     C87077   8.422   0.286   8.097  0.0812 -0.4285  0.3413
  646MOL0     O87078   8.299   0.338   8.065 -0.5797  1.0824  0.7994
  646MOL0     C87079   8.175   0.278   8.101 -1.0932  1.0250 -0.3528
  646MOL0     C87080   8.158   0.178   8.200 -0.5440  0.7266 -0.8144
  646MOL0     C87081   8.031   0.115   8.217 -0.3890  0.8325  1.4532
  646MOL0     C87082   7.919   0.168   8.153  0.1690  0.1697  0.0734
  646MOL0     O87083   7.789   0.133   8.171 -0.2785  0.3671 -0.4754
  646MOL0     C87084   7.756   0.064   8.298 -0.3128 -0.5635 -0.4366
  646MOL0     C87085   7.611   0.102   8.328  0.0243 -0.7164  0.7149
  646MOL0     C87086   7.523   0.020   8.236  0.0177 -0.2804 -0.0860
  646MOL0     C87087   7.394   0.107   8.213 -0.9312  0.4899  0.0538
  646MOL0     C87088   7.281   0.024   8.162  0.1371 -0.3217  0.4444
  646MOL0     C87089   7.150   0.103   8.132 -0.5660  0.5357  0.0838
  646MOL0     C87090   7.051   0.010   8.067 -0.6376 -0.2160 -0.7427
  646MOL0     C87091   7.095  -0.017   7.921  0.1197  0.4077  0.2318
  646MOL0     N87092   6.985  -0.089   7.847  0.2198  0.0688 -0.1734
  646MOL0     C87093   6.856  -0.126   7.874  0.1807 -1.1786  0.5877
  646MOL0     C87094   6.800  -0.165   7.756  0.1810 -0.0975 -0.1478
  646MOL0     C87095   6.659  -0.220   7.755 -0.4670 -1.0354  0.2842
  646MOL0     C87096   6.574  -0.138   7.661  0.3061  0.0426  0.0061
  646MOL0     C87097   6.578   0.019   7.669  0.3765 -0.1941 -0.6286
  646MOL0     C87098   6.495   0.077   7.781 -0.2793  1.0472 -0.3302
  646MOL0     O87099   6.363   0.070   7.744 -0.3901  0.4073 -0.3191
  646MOL0     C87100   6.278   0.163   7.799  0.1455 -0.3142 -0.5690
  646MOL0     C87101   6.299   0.219   7.927  0.1866 -0.5263 -0.1813
  646MOL0     C87102   6.206   0.303   7.995 -0.0209  0.0138 -0.7066
  646MOL0     C87103   6.261   0.369   8.120  0.2816  0.7026 -0.5197
  646MOL0     C87104   6.084   0.331   7.924 -0.3012 -1.2986 -0.9282
  646MOL0     C87105   5.975   0.424   7.980  0.4133  0.3747  0.5784
  646MOL0     O87106   5.861   0.438   7.901  0.8137 -0.1982 -0.1727
  646MOL0     C87107   5.735   0.456   7.961  0.3798  0.1826 -0.4705
  646MOL0     C87108   5.631   0.498   7.882  1.0239 -0.2446 -0.2041
  646MOL0     C87109   5.506   0.535   7.932  0.8698  0.2263 -0.7831
  646MOL0     C87110   5.470   0.505   8.064 -0.1958 -0.0800 -0.3878
  646MOL0     O87111   5.346   0.511   8.123  0.2961  0.6902 -0.5169
  646MOL0     C87112   5.235   0.493   8.042 -0.0486 -0.0794  1.0077
  646MOL0     C87113   5.110   0.490   8.134 -0.4182 -0.4977  0.2988
  646MOL0     C87114   5.098   0.597   8.237  0.4415 -0.0195 -0.8069
  646MOL0     C87115   5.081   0.737   8.176  0.8756  0.7669  0.5511
  646MOL0     C87116   5.085   0.850   8.280  0.4334 -0.8745 -0.3669
  646MOL0     C87117   4.961   0.849   8.380 -0.1277  0.3299 -0.1491
  646MOL0     C87118   4.826   0.816   8.319 -0.2646 -0.7683  0.3935
  646MOL0     C87119   4.775   0.929   8.232 -0.3842 -0.1089 -0.0333
  646MOL0    Cl87120   4.615   0.871   8.171 -0.0892  0.1253 -0.1661
  646MOL0     C87121   5.570   0.454   8.147 -0.2672 -0.2232  1.0208
  646MOL0     C87122   5.698   0.426   8.092  0.5055 -0.4768 -0.6112
  646MOL0     O87123   5.987   0.470   8.089  0.2219 -0.4428  0.0117
  646MOL0     C87124   6.067   0.284   7.790 -0.2024  0.7047 -0.1755
  646MOL0     C87125   6.164   0.203   7.729 -0.0516  0.1448  0.3221
  646MOL0     N87126   6.892  -0.168   7.655  0.6792 -0.2121  0.5956
  646MOL0     N87127   7.002  -0.124   7.714 -0.2018 -0.5585 -0.4453
  646MOL0     C87128   7.933   0.276   8.069  0.7269  0.4521 -0.3337
  646MOL0     C87129   8.059   0.325   8.035  0.3177  0.0877  0.3504
  646MOL0     C87130   8.532   0.352   8.024 -0.0951 -0.0402 -0.2560
  646MOL0     C87131   8.661   0.345   8.080  0.4545  0.0464  0.7742
  646MOL0     C87132   8.768   0.375   8.004  0.8468  0.0515 -0.5372
  646MOL0     C87133   8.765   0.431   7.873  0.3164 -0.1801 -0.4850
  646MOL0     O87134   8.871   0.470   7.793  0.3496  0.4956 -0.1890
  646MOL0     C87135   9.009   0.438   7.836 -0.4942  0.4629 -1.1833
  646MOL0     C87136   9.115   0.406   7.733  0.3102  0.0454  0.2786
  646MOL0     C87137   9.142   0.534   7.667  0.2282 -0.4905  0.7350
  646MOL0     C87138   9.246   0.531   7.561 -0.3311 -0.2887  0.3459
  646MOL0     C87139   9.384   0.510   7.610 -0.1092  0.3176 -0.8699
  646MOL0     C87140   9.501   0.480   7.632 -0.5758 -0.9102  0.6574
  646MOL0     C87141   8.634   0.452   7.825  0.2537  0.5337 -0.8032
  646MOL0     C87142   8.520   0.413   7.899  0.2460  0.4269  0.3675
  646MOL0     H87143   8.233   0.142   8.270 -1.5934  1.0819  0.5297
  646MOL0     H87144   8.017   0.029   8.282 -1.2411 -0.0067  0.1980
  646MOL0     H87145   7.773  -0.044   8.292 -0.3835 -0.6165  0.3027
  646MOL0     H87146   7.824   0.096   8.378 -0.4727 -2.6537  0.5885
  646MOL0     H87147   7.587   0.066   8.429 -1.5896 -2.1283 -0.1273
  646MOL0     H87148   7.599   0.210   8.313 -0.7246 -1.0371 -1.2177
  646MOL0     H87149   7.576  -0.005   8.144  0.8215  0.4287  0.1769
  646MOL0     H87150   7.506  -0.069   8.297  0.5796  1.2762  2.5112
  646MOL0     H87151   7.359   0.154   8.305 -0.0473 -0.2230  0.7689
  646MOL0     H87152   7.419   0.187   8.142 -0.3601 -1.8660 -2.5869
  646MOL0     H87153   7.309  -0.030   8.072 -0.9677 -1.9348  1.0236
  646MOL0     H87154   7.262  -0.063   8.226 -0.1611 -0.0020  0.7993
  646MOL0     H87155   7.103   0.147   8.221  2.0973  2.2891  0.7409
  646MOL0     H87156   7.161   0.186   8.062 -2.1134  0.4598 -0.2904
  646MOL0     H87157   7.030  -0.072   8.135 -1.6992  1.4235  1.0135
  646MOL0     H87158   6.955   0.063   8.066 -1.1886 -1.1856 -2.2163
  646MOL0     H87159   7.178  -0.086   7.902  0.2240  0.9001 -1.2364
  646MOL0     H87160   7.117   0.078   7.872  1.6194  1.0004  1.9074
  646MOL0     H87161   6.788  -0.117   7.958 -4.4784 -0.0153 -2.9022
  646MOL0     H87162   6.669  -0.320   7.714 -0.5421  0.1265 -2.8704
  646MOL0     H87163   6.620  -0.217   7.857  0.8308  2.1051  0.8207
  646MOL0     H87164   6.468  -0.168   7.659  0.3367 -0.1224  0.5123
  646MOL0     H87165   6.611  -0.177   7.566 -0.7015 -4.1092  1.0885
  646MOL0     H87166   6.533   0.052   7.574  0.4399  4.3623  0.6564
  646MOL0     H87167   6.676   0.066   7.678 -0.2282  0.9575  0.2498
  646MOL0     H87168   6.524   0.180   7.800 -2.2395  1.6894 -0.6461
  646MOL0     H87169   6.505   0.014   7.870  1.6387 -1.2739 -2.0326
  646MOL0     H87170   6.393   0.192   7.975  0.4993 -0.8089 -0.9211
  646MOL0     H87171   6.287   0.300   8.201  1.2422  2.1886  0.4937
  646MOL0     H87172   6.354   0.414   8.084  0.3354 -0.5076 -1.9813
  646MOL0     H87173   6.219   0.462   8.159  1.7567  1.5410 -0.8344
  646MOL0     H87174   5.633   0.503   7.773 -2.2717 -1.8863 -0.4640
  646MOL0     H87175   5.429   0.570   7.864 -0.9710  0.5844  1.3660
  646MOL0     H87176   5.245   0.569   7.964 -0.1051  0.1975  1.2676
  646MOL0     H87177   5.228   0.393   7.998 -0.6491 -0.1516  1.2566
  646MOL0     H87178   5.030   0.505   8.062  1.3879 -0.6468 -1.8332
  646MOL0     H87179   5.099   0.393   8.183  0.1070  0.7879  3.2290
  646MOL0     H87180   5.193   0.605   8.290  0.4229  2.3462 -1.0151
  646MOL0     H87181   5.024   0.567   8.312  2.0518 -3.0535 -0.2377
  646MOL0     H87182   5.167   0.752   8.109  0.1958  0.8368 -0.3197
  646MOL0     H87183   4.993   0.745   8.112  0.1515 -1.8082  1.1261
  646MOL0     H87184   5.090   0.942   8.222  1.8529  1.1911  2.7540
  646MOL0     H87185   5.177   0.851   8.339  1.4087 -0.0277 -1.8407
  646MOL0     H87186   4.984   0.765   8.446 -0.4206  0.5936  0.2936
  646MOL0     H87187   4.944   0.940   8.437 -2.7079  1.0198 -1.8079
  646MOL0     H87188   4.752   0.789   8.395 -0.9982 -0.7317 -0.2938
  646MOL0     H87189   4.831   0.724   8.261  0.2399 -0.6703  0.2747
  646MOL0     H87190   4.848   0.958   8.156 -1.9936 -0.6555 -1.8799
  646MOL0     H87191   4.768   1.022   8.288  3.2069 -0.6912  1.6697
  646MOL0     H87192   5.550   0.428   8.250  1.0741  0.2748  1.4139
  646MOL0     H87193   5.773   0.383   8.157 -1.2298 -1.8758  0.5694
  646MOL0     H87194   5.974   0.302   7.737  0.4861  0.3221 -1.5641
  646MOL0     H87195   6.135   0.155   7.636 -2.0498 -1.2442  1.5549
  646MOL0     H87196   7.851   0.341   8.042 -2.1970 -2.3199  1.2590
  646MOL0     H87197   8.067   0.411   7.970  0.5385 -1.7925 -2.2530
  646MOL0     H87198   8.678   0.293   8.173 -1.4575  0.1471  1.2157
  646MOL0     H87199   8.861   0.366   8.060  0.5237 -0.5256 -0.0840
  646MOL0     H87200   9.055   0.518   7.895 -1.3713  1.4598 -1.8191
  646MOL0     H87201   8.999   0.348   7.896 -0.5593 -0.2530 -2.2460
  646MOL0     H87202   9.099   0.325   7.662 -2.1429  0.8250 -0.1453
  646MOL0     H87203   9.200   0.383   7.798  1.3090  0.5475 -0.8104
  646MOL0     H87204   9.185   0.594   7.748 -0.0384 -1.2068  1.4133
  646MOL0     H87205   9.045   0.573   7.634 -0.6729 -1.6830  1.8945
  646MOL0     H87206   9.248   0.631   7.517 -0.3529  0.2225  1.4568
  646MOL0     H87207   9.217   0.451   7.493 -1.4558  0.8838 -0.6107
  646MOL0     H87208   9.601   0.455   7.661  0.4229 -0.2031 -1.9308
  646MOL0     H87209   8.627   0.501   7.728  0.4030  1.6727 -0.2506
  646MOL0     H87210   8.426   0.422   7.845 -0.1000 -0.6100  0.7782
  647MOL0     O87211   8.424   7.724   0.162  0.0048 -0.3890 -0.2396
  647MOL0     C87212   8.507   7.783   0.093 -0.3648 -0.0227 -0.1950
  647MOL0     O87213   8.484   7.824  -0.037 -0.4975  0.2453 -0.1051
  647MOL0     C87214   8.369   7.789  -0.107 -1.2552  0.5174  0.0329
  647MOL0     C87215   8.393   7.721  -0.228  0.1057 -0.7208 -0.2976
  647MOL0     C87216   8.282   7.678  -0.299  0.6591 -0.9352  0.3460
  647MOL0     C87217   8.149   7.705  -0.253  0.5028 -0.3285  0.1982
  647MOL0     O87218   8.043   7.650  -0.325 -0.3982 -0.1896  0.1805
  647MOL0     C87219   7.943   7.735  -0.357  0.1879  0.2036  0.1940
  647MOL0     C87220   7.824   7.645  -0.404  0.8754 -0.3527 -0.0060
  647MOL0     C87221   7.755   7.559  -0.300 -1.2978 -0.4852 -0.2512
  647MOL0     C87222   7.613   7.506  -0.340 -0.3068 -0.0726  0.9455
  647MOL0     C87223   7.614   7.383  -0.435  0.4747  0.6833 -0.1831
  647MOL0     C87224   7.466   7.352  -0.480 -0.2023  0.5705  0.2922
  647MOL0     C87225   7.439   7.196  -0.490 -0.9879 -0.1928  0.0652
  647MOL0     C87226   7.445   7.125  -0.351  0.0134  0.1756  0.2245
  647MOL0     N87227   7.376   6.997  -0.376  0.1321 -0.0034  0.6957
  647MOL0     C87228   7.243   6.980  -0.348  0.1647 -1.0186  0.4256
  647MOL0     C87229   7.222   6.853  -0.376  0.1414 -1.1103 -0.1224
  647MOL0     C87230   7.096   6.782  -0.369  0.1854  0.3635 -0.2666
  647MOL0     C87231   7.001   6.793  -0.491 -0.0796  0.9973  0.1328
  647MOL0     C87232   7.064   6.749  -0.629  0.3429 -0.4893 -0.7078
  647MOL0     C87233   6.961   6.741  -0.740  0.0385 -0.3345  0.1666
  647MOL0     O87234   6.903   6.870  -0.772 -0.8327  0.6464  0.5754
  647MOL0     C87235   6.800   6.889  -0.861 -0.3866 -1.2191  0.1198
  647MOL0     C87236   6.725   6.782  -0.912 -0.1420  0.4627  0.0752
  647MOL0     C87237   6.603   6.801  -0.977  0.1787  0.7501 -0.0388
  647MOL0     C87238   6.526   6.678  -1.007 -0.0581  0.6418  0.7544
  647MOL0     C87239   6.548   6.933  -0.995 -0.2099 -0.0039 -0.0118
  647MOL0     C87240   6.417   6.965  -1.050 -0.3791 -0.0098  0.5978
  647MOL0     O87241   6.392   7.099  -1.068 -0.0728  0.4785 -0.3045
  647MOL0     C87242   6.263   7.141  -1.072 -0.6730 -0.5686  0.1669
  647MOL0     C87243   6.193   7.157  -0.951  0.4175 -0.6148  0.0049
  647MOL0     C87244   6.060   7.200  -0.949 -0.7750 -0.6229  0.1536
  647MOL0     C87245   5.986   7.225  -1.066 -0.6288  0.5333  0.6719
  647MOL0     O87246   5.860   7.275  -1.058  0.1553 -0.3006 -0.0642
  647MOL0     C87247   5.810   7.339  -1.175 -0.3503  0.2136  0.6337
  647MOL0     C87248   5.665   7.389  -1.148  0.8047  1.2036 -0.4346
  647MOL0     C87249   5.645   7.499  -1.050 -0.3471  1.1302 -0.2235
  647MOL0     C87250   5.547   7.609  -1.100 -0.3860 -0.6059  0.6034
  647MOL0     C87251   5.536   7.705  -0.986  0.2342 -0.1032 -1.0906
  647MOL0     C87252   5.481   7.849  -1.032 -0.9530  0.4804  0.2952
  647MOL0     C87253   5.335   7.841  -1.059  0.0217 -0.0329 -0.5737
  647MOL0     C87254   5.278   7.966  -1.136 -0.9313 -0.1215 -1.2295
  647MOL0    Cl87255   5.101   7.951  -1.172  0.1130 -0.1711  0.0373
  647MOL0     C87256   6.065   7.211  -1.188 -0.0010 -0.2935  1.1040
  647MOL0     C87257   6.199   7.178  -1.188  0.1936  0.4614 -0.5588
  647MOL0     O87258   6.326   6.880  -1.069 -0.7613  0.0156 -0.3253
  647MOL0     C87259   6.629   7.035  -0.949  0.2808  0.2682  1.2067
  647MOL0     C87260   6.753   7.014  -0.883  0.9282 -0.5623  0.5300
  647MOL0     N87261   7.342   6.796  -0.417 -0.0839 -0.1001  0.4027
  647MOL0     N87262   7.435   6.884  -0.409 -0.1874  0.0362 -0.4933
  647MOL0     C87263   8.122   7.774  -0.136 -0.0149 -0.0668 -0.1513
  647MOL0     C87264   8.235   7.816  -0.065 -0.6211 -0.6563  0.6759
  647MOL0     C87265   8.653   7.805   0.146  0.4536 -0.0780  0.1407
  647MOL0     C87266   8.673   7.783   0.287  0.1676 -0.1230 -0.3280
  647MOL0     C87267   8.800   7.801   0.333 -0.1005 -0.4222 -0.0609
  647MOL0     C87268   8.911   7.829   0.247  0.9010 -0.1539 -0.2090
  647MOL0     O87269   9.033   7.843   0.301 -0.1276  0.0365  0.2526
  647MOL0     C87270   9.143   7.873   0.212 -0.5029  0.6948  0.2991
  647MOL0     C87271   9.274   7.839   0.282 -0.3281 -0.4086 -0.0739
  647MOL0     C87272   9.395   7.872   0.193 -0.5575 -0.3923 -0.1260
  647MOL0     C87273   9.532   7.881   0.263  0.1344  0.1837 -0.6579
  647MOL0     C87274   9.547   7.972   0.372  0.9656 -0.0973 -0.8415
  647MOL0     C87275   9.549   8.050   0.464  0.0414 -1.1978  0.2164
  647MOL0     C87276   8.887   7.849   0.106  0.9998  0.2512 -0.5074
  647MOL0     C87277   8.757   7.842   0.063  0.6428 -0.0473 -0.2193
  647MOL0     H87278   8.490   7.695  -0.270 -0.0272 -2.3634  0.3243
  647MOL0     H87279   8.292   7.617  -0.388  1.3781 -0.4498  0.0844
  647MOL0     H87280   7.916   7.800  -0.273  2.7721  0.9649  0.5311
  647MOL0     H87281   7.987   7.798  -0.435 -0.7133  0.6898  0.0621
  647MOL0     H87282   7.743   7.706  -0.447  0.5914 -1.5789 -1.2892
  647MOL0     H87283   7.859   7.575  -0.480 -1.1679 -1.2375 -0.1976
  647MOL0     H87284   7.824   7.476  -0.280  0.2104  0.8778  0.4608
  647MOL0     H87285   7.752   7.626  -0.213  1.5638 -0.0146 -0.4017
  647MOL0     H87286   7.555   7.471  -0.254 -0.5678 -2.4198 -0.0980
  647MOL0     H87287   7.548   7.582  -0.382  0.2826  0.5479  1.1336
  647MOL0     H87288   7.675   7.402  -0.524 -0.4666  0.0741 -0.9761
  647MOL0     H87289   7.654   7.290  -0.393 -0.6694  0.8909  1.4667
  647MOL0     H87290   7.390   7.403  -0.421 -0.6390 -0.8206  0.9670
  647MOL0     H87291   7.462   7.387  -0.584  2.0243  1.1831  0.3588
  647MOL0     H87292   7.344   7.176  -0.541 -0.7735 -2.4338  0.4285
  647MOL0     H87293   7.518   7.153  -0.552 -0.3792 -1.1499  1.4498
  647MOL0     H87294   7.384   7.185  -0.284 -2.6931 -1.5974 -0.5004
  647MOL0     H87295   7.543   7.106  -0.305 -0.9196 -1.1348  1.7771
  647MOL0     H87296   7.174   7.059  -0.319  2.5871  1.2413  0.4837
  647MOL0     H87297   7.128   6.680  -0.346  1.8339  0.7145 -0.8173
  647MOL0     H87298   7.045   6.829  -0.284  1.9067  2.8733 -0.5050
  647MOL0     H87299   6.969   6.896  -0.512 -1.0743  0.8524  0.8809
  647MOL0     H87300   6.912   6.735  -0.467 -0.4068  1.2786 -0.3651
  647MOL0     H87301   7.097   6.645  -0.618  1.8221 -0.0562 -0.8411
  647MOL0     H87302   7.154   6.808  -0.651  1.6004 -1.9855  0.1807
  647MOL0     H87303   6.892   6.664  -0.705  0.2130  0.2773  1.9179
  647MOL0     H87304   7.003   6.712  -0.837  1.2609  0.3933  0.4581
  647MOL0     H87305   6.742   6.676  -0.894  0.8466  0.4146 -1.0488
  647MOL0     H87306   6.507   6.691  -1.114  0.2258  0.3433  0.6660
  647MOL0     H87307   6.576   6.584  -0.985 -0.5182  0.7392  2.2977
  647MOL0     H87308   6.434   6.678  -0.948 -0.5868 -1.4625  0.0104
  647MOL0     H87309   6.246   7.151  -0.857  0.6933 -2.3488 -0.2333
  647MOL0     H87310   6.014   7.212  -0.851  0.7846  1.6739  0.6886
  647MOL0     H87311   5.875   7.423  -1.199  1.7659 -1.1112  1.5044
  647MOL0     H87312   5.810   7.269  -1.259 -0.1038  2.7742 -1.6442
  647MOL0     H87313   5.610   7.407  -1.241  0.3487 -0.7783 -0.5924
  647MOL0     H87314   5.616   7.303  -1.102  1.1709  1.1620 -0.1229
  647MOL0     H87315   5.745   7.541  -1.031  1.4603 -2.9667  0.3834
  647MOL0     H87316   5.608   7.463  -0.953  1.6184  2.1975  0.9960
  647MOL0     H87317   5.578   7.666  -1.188 -0.8083 -1.3790 -0.0636
  647MOL0     H87318   5.449   7.562  -1.116 -1.0429  0.4617  1.4066
  647MOL0     H87319   5.633   7.725  -0.940 -0.5335 -1.1446  1.1229
  647MOL0     H87320   5.473   7.662  -0.907 -0.4575  0.4861 -1.3094
  647MOL0     H87321   5.517   7.915  -0.951  0.0114  1.7500 -1.1157
  647MOL0     H87322   5.537   7.882  -1.120 -1.4834  0.7039  0.0406
  647MOL0     H87323   5.284   7.839  -0.962 -0.4204 -1.6911 -0.8026
  647MOL0     H87324   5.311   7.748  -1.111  1.8548 -0.2771 -1.0253
  647MOL0     H87325   5.334   7.986  -1.228  0.2429  3.5712  0.0920
  647MOL0     H87326   5.304   8.057  -1.082  1.9319 -1.9846  0.8301
  647MOL0     H87327   6.014   7.218  -1.283  0.3548  2.7167  1.0479
  647MOL0     H87328   6.263   7.173  -1.276  1.2178 -3.4124  0.2436
  647MOL0     H87329   6.602   7.139  -0.967  1.2391  0.1063 -1.7131
  647MOL0     H87330   6.807   7.099  -0.843 -1.0438  0.0556  2.0299
  647MOL0     H87331   8.021   7.796  -0.102  0.4589  2.1042  0.0305
  647MOL0     H87332   8.224   7.864   0.031 -1.4213 -0.4930  0.5129
  647MOL0     H87333   8.592   7.756   0.354  0.3454 -1.3287 -0.5847
  647MOL0     H87334   8.824   7.786   0.438 -3.1568 -0.8286  0.6709
  647MOL0     H87335   9.142   7.816   0.118 -0.9071  1.2188 -0.0229
  647MOL0     H87336   9.126   7.980   0.199  0.0887  0.8712  0.9538
  647MOL0     H87337   9.272   7.737   0.322 -0.4725  0.0830  1.2290
  647MOL0     H87338   9.271   7.904   0.370  1.0783 -0.1500 -0.1992
  647MOL0     H87339   9.371   7.970   0.149  1.4755  1.0422  1.7333
  647MOL0     H87340   9.402   7.797   0.114 -1.0225 -0.5961  0.0247
  647MOL0     H87341   9.608   7.925   0.197  2.2657 -1.9669  0.2133
  647MOL0     H87342   9.570   7.786   0.300 -1.1483 -0.1763 -0.2142
  647MOL0     H87343   9.552   8.103   0.557  0.9979 -4.1673  2.0198
  647MOL0     H87344   8.966   7.883   0.040  1.9024 -1.1466 -0.1941
  647MOL0     H87345   8.728   7.864  -0.039  2.1399 -0.2603 -0.7137
  648MOL0     O87346   3.368   8.884   7.708 -0.3403 -0.3170 -0.2772
  648MOL0     C87347   3.403   8.773   7.666  0.6111 -0.0919 -0.4154
  648MOL0     O87348   3.323   8.679   7.600  0.3336 -0.3505 -0.5239
  648MOL0     C87349   3.199   8.730   7.560 -0.8288 -0.4334  0.0463
  648MOL0     C87350   3.085   8.713   7.637 -0.2073  0.0422 -0.1137
  648MOL0     C87351   2.964   8.767   7.611 -0.4467  0.7768 -0.3153
  648MOL0     C87352   2.946   8.828   7.490  0.0781  0.2863  0.8146
  648MOL0     O87353   2.817   8.848   7.457  0.3653 -0.5845 -0.1432
  648MOL0     C87354   2.803   8.968   7.373  0.2289 -0.0177  1.2190
  648MOL0     C87355   2.655   8.971   7.341  0.6326 -0.1348 -0.3819
  648MOL0     C87356   2.605   9.066   7.226  0.4102  0.1796 -0.1066
  648MOL0     C87357   2.549   8.986   7.106 -0.1686 -0.1842 -0.3090
  648MOL0     C87358   2.416   8.911   7.138 -0.7157 -0.0699 -0.0658
  648MOL0     C87359   2.362   8.818   7.022 -0.1699  0.4380  0.2150
  648MOL0     C87360   2.218   8.783   7.048  0.0236  0.1522  0.0655
  648MOL0     C87361   2.188   8.660   6.967 -0.2763  0.2064  0.4314
  648MOL0     N87362   2.051   8.627   6.950  0.2951 -0.1199 -0.1473
  648MOL0     C87363   1.990   8.641   6.833 -0.1508  0.1660  0.4913
  648MOL0     C87364   1.861   8.607   6.861 -0.7502  0.0349 -0.1948
  648MOL0     C87365   1.754   8.610   6.766  0.6035  0.2948  0.1915
  648MOL0     C87366   1.613   8.578   6.824  0.3499 -0.8436  0.2772
  648MOL0     C87367   1.513   8.571   6.712 -0.3544 -0.0499  0.9069
  648MOL0     C87368   1.383   8.506   6.760  0.4850  0.4225  0.7319
  648MOL0     O87369   1.297   8.504   6.647 -1.2382  0.5268 -0.7444
  648MOL0     C87370   1.170   8.475   6.654  0.1317  0.4216  0.7078
  648MOL0     C87371   1.103   8.447   6.771  0.0162 -0.5196 -0.2314
  648MOL0     C87372   0.963   8.417   6.767 -0.6779  0.4157  0.1089
  648MOL0     C87373   0.901   8.384   6.897  0.1662 -1.1757 -0.4155
  648MOL0     C87374   0.895   8.402   6.644 -0.1162  0.0284  0.3174
  648MOL0     C87375   0.755   8.366   6.626 -0.4168 -0.0078 -0.6054
  648MOL0     O87376   0.714   8.334   6.501 -0.6559  0.0452  0.2720
  648MOL0     C87377   0.586   8.290   6.488  0.9490 -0.9339 -0.3033
  648MOL0     C87378   0.485   8.386   6.458 -0.9613 -0.0295  0.8104
  648MOL0     C87379   0.352   8.343   6.434 -0.5629 -0.5349  0.6977
  648MOL0     C87380   0.319   8.208   6.442  0.5423  0.7657 -0.5464
  648MOL0     O87381   0.185   8.176   6.423 -0.6108 -0.3207  0.4724
  648MOL0     C87382   0.153   8.034   6.403  0.2832 -0.6390  0.2859
  648MOL0     C87383   0.011   8.009   6.376  0.3925  0.1376 -0.8969
  648MOL0     C87384  -0.009   7.877   6.300 -0.1305  0.8104  0.9788
  648MOL0     C87385  -0.140   7.890   6.232 -0.4975 -0.2894  0.2952
  648MOL0     C87386  -0.176   7.771   6.148 -0.3887 -0.5294 -0.0916
  648MOL0     C87387  -0.294   7.802   6.056 -0.1436 -0.1376 -0.4190
  648MOL0     C87388  -0.364   7.679   5.993  0.3453 -0.7784 -1.1030
  648MOL0     C87389  -0.282   7.601   5.896  0.0879 -0.5886 -0.6768
  648MOL0    Cl87390  -0.368   7.456   5.856 -0.0481  0.4090 -0.2473
  648MOL0     C87391   0.415   8.120   6.480 -0.2909  0.2245  0.5907
  648MOL0     C87392   0.550   8.157   6.505 -0.2375 -0.4883  0.1641
  648MOL0     O87393   0.686   8.360   6.724  0.8204  0.3164 -0.0814
  648MOL0     C87394   0.973   8.436   6.530  0.0959 -0.1681  0.8816
  648MOL0     C87395   1.105   8.476   6.535 -0.1606 -0.0366  0.2402
  648MOL0     N87396   1.855   8.558   6.994 -0.3066 -0.4558  0.2632
  648MOL0     N87397   1.974   8.559   7.038  0.6687 -0.3365  0.1684
  648MOL0     C87398   3.064   8.862   7.412  0.8013  1.0060 -0.6150
  648MOL0     C87399   3.193   8.811   7.447 -0.0302  0.5388 -0.1411
  648MOL0     C87400   3.546   8.747   7.681  0.1504 -0.0572 -1.6151
  648MOL0     C87401   3.609   8.797   7.797 -0.1086 -0.0765 -0.4641
  648MOL0     C87402   3.744   8.769   7.820  0.0437 -0.2782 -0.4402
  648MOL0     C87403   3.814   8.679   7.736 -0.4166  0.4254 -0.5696
  648MOL0     O87404   3.948   8.647   7.744 -0.0042  0.1323 -0.0175
  648MOL0     C87405   3.965   8.514   7.802  0.3620 -0.0101  0.4712
  648MOL0     C87406   4.099   8.454   7.771  0.0616  0.5676 -0.5631
  648MOL0     C87407   4.216   8.544   7.817  0.9228 -0.1732 -0.8032
  648MOL0     C87408   4.365   8.491   7.815 -0.5087  0.4157 -0.3230
  648MOL0     C87409   4.452   8.572   7.901 -0.7078 -0.0679 -0.2218
  648MOL0     C87410   4.532   8.641   7.956 -0.2005 -0.7122  0.4996
  648MOL0     C87411   3.745   8.622   7.627  0.4087 -0.3184  0.1074
  648MOL0     C87412   3.611   8.654   7.596  0.0623  0.3842  0.3792
  648MOL0     H87413   3.098   8.671   7.736 -0.4832 -3.2629 -1.3760
  648MOL0     H87414   2.890   8.742   7.686 -0.3506 -2.4732 -1.1366
  648MOL0     H87415   2.835   9.061   7.421 -0.9151  0.4690  1.0578
  648MOL0     H87416   2.851   8.946   7.277 -1.5046 -1.2891  0.5762
  648MOL0     H87417   2.620   8.873   7.306 -3.0402  1.6226 -2.3108
  648MOL0     H87418   2.598   8.996   7.431  0.0227  1.2438 -1.1231
  648MOL0     H87419   2.533   9.135   7.270  2.4086  1.8921  0.6324
  648MOL0     H87420   2.696   9.116   7.191  2.9297 -2.9141  1.4589
  648MOL0     H87421   2.532   9.050   7.019 -0.4156 -1.3737 -1.1549
  648MOL0     H87422   2.635   8.923   7.086  0.7923  1.0593 -0.2307
  648MOL0     H87423   2.427   8.841   7.221 -3.2695 -1.4789 -0.7977
  648MOL0     H87424   2.344   8.985   7.174 -0.2785 -0.2996  1.3080
  648MOL0     H87425   2.385   8.858   6.923  1.0839 -1.5552 -0.3538
  648MOL0     H87426   2.425   8.729   7.026 -0.2538  0.3876  0.4825
  648MOL0     H87427   2.192   8.757   7.151 -1.7887 -2.1711 -0.8704
  648MOL0     H87428   2.162   8.867   7.007  0.2320 -0.6800 -2.0311
  648MOL0     H87429   2.238   8.581   7.023 -1.6914 -0.7074  0.4427
  648MOL0     H87430   2.227   8.677   6.866 -1.1756  0.9740  0.2011
  648MOL0     H87431   2.042   8.684   6.749 -0.4978 -0.1007  0.1347
  648MOL0     H87432   1.748   8.710   6.722  0.0541 -0.1072 -0.6952
  648MOL0     H87433   1.779   8.538   6.687 -1.3218 -1.2281  0.8948
  648MOL0     H87434   1.580   8.650   6.900 -0.1935  0.5315 -1.2155
  648MOL0     H87435   1.618   8.473   6.855  0.8053 -0.6239  0.9878
  648MOL0     H87436   1.547   8.513   6.626  1.7181 -0.4240  1.9324
  648MOL0     H87437   1.482   8.666   6.666  2.3795 -0.6928 -2.7069
  648MOL0     H87438   1.349   8.569   6.843  2.7377  0.9396  1.3227
  648MOL0     H87439   1.406   8.402   6.784  0.5625 -0.1324 -1.5500
  648MOL0     H87440   1.156   8.461   6.865 -0.3512  0.0170 -0.1038
  648MOL0     H87441   0.978   8.393   6.974  1.5311  2.0994 -1.9520
  648MOL0     H87442   0.819   8.450   6.927  2.0047  2.1217 -2.1153
  648MOL0     H87443   0.866   8.280   6.894  1.2033 -1.6135  1.4233
  648MOL0     H87444   0.507   8.492   6.450  1.0644 -0.4639  0.1458
  648MOL0     H87445   0.274   8.415   6.415  0.0829  0.2907  1.0877
  648MOL0     H87446   0.222   7.998   6.325  0.4548 -2.2540  1.1371
  648MOL0     H87447   0.176   7.983   6.496  1.8821  1.8750  1.3775
  648MOL0     H87448  -0.049   7.999   6.467  1.4441 -0.7246 -0.2759
  648MOL0     H87449  -0.023   8.084   6.304 -0.3627  0.5739 -0.1121
  648MOL0     H87450  -0.009   7.792   6.368  0.9388  0.7595  0.9348
  648MOL0     H87451   0.076   7.862   6.233  1.1300  0.7691  2.5222
  648MOL0     H87452  -0.218   7.909   6.306  2.3167  0.9243  3.1659
  648MOL0     H87453  -0.134   7.980   6.169 -1.7949  0.6118  1.3940
  648MOL0     H87454  -0.197   7.686   6.215  3.0001 -0.7789  0.8305
  648MOL0     H87455  -0.092   7.744   6.083 -1.1486  0.1569 -1.4141
  648MOL0     H87456  -0.364   7.871   6.103  1.7742  3.0931 -2.0270
  648MOL0     H87457  -0.243   7.855   5.976  0.3402  1.1233  0.6964
  648MOL0     H87458  -0.453   7.715   5.941  0.5257 -3.0434 -3.1419
  648MOL0     H87459  -0.399   7.612   6.071 -0.3521  1.1236  0.3022
  648MOL0     H87460  -0.190   7.578   5.950  0.4766  0.6637 -0.7760
  648MOL0     H87461  -0.256   7.654   5.804 -0.0047 -0.4012 -0.5939
  648MOL0     H87462   0.390   8.015   6.493 -0.4582  0.2639  0.5847
  648MOL0     H87463   0.627   8.085   6.531  1.9262  1.0036 -1.7382
  648MOL0     H87464   0.929   8.428   6.432  0.9592 -0.7885  0.5321
  648MOL0     H87465   1.154   8.504   6.443 -0.1453 -1.5414 -0.2414
  648MOL0     H87466   3.041   8.902   7.314 -3.5313  1.2447  0.3341
  648MOL0     H87467   3.273   8.834   7.378 -1.1151 -0.4276 -1.7832
  648MOL0     H87468   3.554   8.850   7.874 -0.8193 -0.4471 -0.7106
  648MOL0     H87469   3.797   8.803   7.908 -0.9713 -0.9097  0.4480
  648MOL0     H87470   3.945   8.527   7.909 -0.7058  3.8230 -0.0536
  648MOL0     H87471   3.893   8.442   7.760  1.2789 -0.7313  0.1142
  648MOL0     H87472   4.106   8.447   7.662 -2.2737 -0.3675 -0.6981
  648MOL0     H87473   4.106   8.356   7.818 -2.8819  0.7766  0.5531
  648MOL0     H87474   4.190   8.563   7.922  1.1330 -2.7293 -0.2311
  648MOL0     H87475   4.215   8.640   7.765 -0.8996  1.3982  1.8867
  648MOL0     H87476   4.390   8.521   7.713  1.1457  0.0272 -0.0631
  648MOL0     H87477   4.380   8.383   7.821  2.0164  0.5163 -2.7800
  648MOL0     H87478   4.599   8.710   8.003 -0.4791 -1.2996  1.8323
  648MOL0     H87479   3.813   8.572   7.560  2.5093  1.6991  0.6204
  648MOL0     H87480   3.553   8.606   7.518 -0.1426  0.7867  0.2849
  649MOL0     O87481   4.129   7.589   0.096  0.1822 -0.1653 -0.0598
  649MOL0     C87482   4.223   7.507   0.110  0.1257 -0.1865 -0.4597
  649MOL0     O87483   4.204   7.370   0.137 -0.1235 -0.4332 -0.3667
  649MOL0     C87484   4.076   7.323   0.164 -0.4815  0.0610 -0.0792
  649MOL0     C87485   3.952   7.370   0.119 -0.0250  1.0583  0.1839
  649MOL0     C87486   3.833   7.298   0.136 -0.1317  0.3630 -0.2501
  649MOL0     C87487   3.835   7.173   0.202  0.3193 -0.1826  0.2418
  649MOL0     O87488   3.714   7.102   0.218  0.0879 -0.9066 -0.3450
  649MOL0     C87489   3.679   7.024   0.100 -0.0099 -0.1839  0.2322
  649MOL0     C87490   3.531   7.009   0.086  1.2938  0.0063  0.2510
  649MOL0     C87491   3.461   6.898   0.166  1.1087  0.3337 -1.1312
  649MOL0     C87492   3.313   6.907   0.123 -0.3524 -0.5471  0.4692
  649MOL0     C87493   3.225   6.814   0.209 -0.2324 -0.8244  0.5220
  649MOL0     C87494   3.077   6.824   0.143  0.0580  0.3302  0.3583
  649MOL0     C87495   2.971   6.736   0.196 -0.3605 -0.4061 -0.4134
  649MOL0     C87496   2.960   6.752   0.349  0.2163  1.2721  0.4627
  649MOL0     N87497   2.848   6.832   0.399 -0.1132 -0.1150  0.2245
  649MOL0     C87498   2.768   6.915   0.326  0.1611  0.6250  0.3404
  649MOL0     C87499   2.678   6.976   0.412  0.9844 -0.0651 -0.2864
  649MOL0     C87500   2.551   7.059   0.384  0.1596 -0.7169  0.6337
  649MOL0     C87501   2.583   7.174   0.281 -0.5328 -0.4040  0.3409
  649MOL0     C87502   2.475   7.286   0.279 -0.0454 -0.2294 -0.3179
  649MOL0     C87503   2.326   7.255   0.269  0.4784  0.6423 -0.0815
  649MOL0     O87504   2.302   7.238   0.132 -0.4235  0.0912  0.2678
  649MOL0     C87505   2.183   7.184   0.087  0.5808  0.8480  0.4084
  649MOL0     C87506   2.157   7.208  -0.048 -0.3100 -0.5756  0.8259
  649MOL0     C87507   2.042   7.159  -0.111  0.0178 -0.2293  0.6927
  649MOL0     C87508   2.008   7.203  -0.250  0.0574  0.2270  0.2315
  649MOL0     C87509   1.952   7.086  -0.031 -0.5119 -0.2155 -0.1053
  649MOL0     C87510   1.819   7.036  -0.073 -0.0154  0.6459 -0.3209
  649MOL0     O87511   1.724   6.989   0.022  0.1303  0.1827  0.5178
  649MOL0     C87512   1.589   6.976  -0.002 -0.4850 -0.7448  0.6148
  649MOL0     C87513   1.526   6.860   0.036 -0.7465  0.5333  0.2777
  649MOL0     C87514   1.390   6.847   0.023  0.4712  0.6296 -0.6520
  649MOL0     C87515   1.319   6.935  -0.048 -0.7245 -0.1188  0.1589
  649MOL0     O87516   1.179   6.920  -0.056 -0.2793 -0.1881 -0.0958
  649MOL0     C87517   1.091   7.030  -0.080  0.5051  0.6338  0.4794
  649MOL0     C87518   0.946   6.993  -0.054 -1.5625 -0.3346  0.3417
  649MOL0     C87519   0.858   7.102  -0.123  0.9726  0.1643  0.0606
  649MOL0     C87520   0.847   7.229  -0.042 -0.3038  0.8253  0.5818
  649MOL0     C87521   0.743   7.335  -0.099  0.0497  0.1542  0.2040
  649MOL0     C87522   0.725   7.466  -0.012  0.3333  0.4290  0.3131
  649MOL0     C87523   0.616   7.549  -0.078  0.6807 -0.0394 -0.2108
  649MOL0     C87524   0.474   7.511  -0.035 -0.4369  0.0861 -1.1202
  649MOL0    Cl87525   0.367   7.635  -0.114  0.5044  0.1532 -0.1831
  649MOL0     C87526   1.381   7.049  -0.111 -0.1582  0.6027 -0.3577
  649MOL0     C87527   1.520   7.064  -0.084  0.4923  1.3214 -0.0556
  649MOL0     O87528   1.793   7.042  -0.192  0.3208  0.5438  0.2828
  649MOL0     C87529   1.986   7.061   0.097  0.3988  0.4363 -0.0260
  649MOL0     C87530   2.092   7.115   0.157 -0.5461 -0.0694 -0.0840
  649MOL0     N87531   2.717   6.930   0.537  0.0064 -0.6352 -0.3362
  649MOL0     N87532   2.816   6.849   0.527 -0.1769  0.8234 -0.2163
  649MOL0     C87533   3.958   7.124   0.248  0.2735  0.1219 -0.2394
  649MOL0     C87534   4.077   7.200   0.223 -1.1157 -0.3450 -0.4676
  649MOL0     C87535   4.352   7.566   0.074 -0.1785 -0.3946  0.3650
  649MOL0     C87536   4.447   7.474   0.031 -0.6818 -0.6575 -0.0649
  649MOL0     C87537   4.579   7.518  -0.012 -1.1577  0.4594 -0.2485
  649MOL0     C87538   4.607   7.652  -0.009  0.1962  0.5100  0.1299
  649MOL0     O87539   4.724   7.684  -0.067 -0.8980  0.3753  0.3832
  649MOL0     C87540   4.764   7.821  -0.079 -0.7628 -0.3053  0.1262
  649MOL0     C87541   4.908   7.843  -0.129  1.0291 -0.9255  0.1454
  649MOL0     C87542   4.925   7.788  -0.269 -0.0387 -0.7628 -1.0350
  649MOL0     C87543   5.066   7.749  -0.299 -0.7448 -0.3325 -0.0849
  649MOL0     C87544   5.165   7.856  -0.297 -0.5460 -0.0348 -0.7134
  649MOL0     C87545   5.250   7.940  -0.297 -0.2307 -0.1379  0.1595
  649MOL0     C87546   4.505   7.744   0.022  0.6214 -0.3599 -0.6212
  649MOL0     C87547   4.382   7.700   0.073  0.1684  0.2319  0.1601
  649MOL0     H87548   3.929   7.461   0.064  2.5530 -0.3793 -3.7181
  649MOL0     H87549   3.731   7.330   0.118 -1.0215 -2.2772 -0.4330
  649MOL0     H87550   3.714   7.069   0.006 -1.1036 -0.1761 -0.1967
  649MOL0     H87551   3.733   6.930   0.107  1.3536  0.5289 -0.2010
  649MOL0     H87552   3.481   7.102   0.114 -1.2937 -0.5726 -1.9367
  649MOL0     H87553   3.513   6.981  -0.018 -1.3588  0.1234  0.5927
  649MOL0     H87554   3.518   6.806   0.155 -0.3385 -0.9619  1.2284
  649MOL0     H87555   3.466   6.920   0.273  2.9352 -2.6048 -0.5217
  649MOL0     H87556   3.285   7.012   0.138  2.3521  0.2869  0.1982
  649MOL0     H87557   3.309   6.869   0.020 -0.6403 -0.2575  0.3738
  649MOL0     H87558   3.259   6.710   0.197  1.5585 -0.1286 -0.9393
  649MOL0     H87559   3.227   6.851   0.312  0.4284 -0.1769  0.2790
  649MOL0     H87560   3.049   6.929   0.130  0.7926  0.2675 -2.4585
  649MOL0     H87561   3.087   6.791   0.039 -2.7242  0.5362 -0.0610
  649MOL0     H87562   2.873   6.747   0.148 -0.3933 -1.4900 -0.6129
  649MOL0     H87563   2.991   6.631   0.175 -0.3955 -0.0691 -2.2670
  649MOL0     H87564   3.050   6.793   0.395  1.9102 -2.9278  1.2658
  649MOL0     H87565   2.943   6.656   0.398  2.4442  1.0511  0.8953
  649MOL0     H87566   2.763   6.933   0.219  0.0603 -1.7716 -0.1094
  649MOL0     H87567   2.482   6.987   0.338 -1.7379  0.4110  1.6060
  649MOL0     H87568   2.506   7.092   0.478 -1.5521 -0.4662 -0.2156
  649MOL0     H87569   2.603   7.145   0.178  0.4600  1.4051 -0.0096
  649MOL0     H87570   2.665   7.240   0.310  0.3567 -1.1621 -0.3654
  649MOL0     H87571   2.493   7.351   0.193  0.4991  1.3955  0.9595
  649MOL0     H87572   2.502   7.346   0.367  0.9447 -0.8243 -0.1962
  649MOL0     H87573   2.268   7.341   0.305 -1.0082 -0.6896  0.8283
  649MOL0     H87574   2.297   7.169   0.330 -0.0502  0.1937 -0.9543
  649MOL0     H87575   2.224   7.271  -0.105 -0.7485 -1.2610 -0.4966
  649MOL0     H87576   1.911   7.254  -0.245  0.6774  1.5791 -0.9389
  649MOL0     H87577   2.080   7.270  -0.298  0.3324 -0.4264 -0.2861
  649MOL0     H87578   2.017   7.110  -0.307  3.6820 -0.7857  2.1536
  649MOL0     H87579   1.578   6.799   0.109 -2.4264  0.1132  1.1757
  649MOL0     H87580   1.341   6.768   0.079  1.1799 -1.7015 -3.1115
  649MOL0     H87581   1.117   7.119  -0.022  0.2868 -0.1179  1.7733
  649MOL0     H87582   1.099   7.051  -0.187 -0.5387 -0.7967  0.0919
  649MOL0     H87583   0.909   6.893  -0.080 -0.9355 -0.5405  0.2283
  649MOL0     H87584   0.932   6.999   0.055  2.1149  0.7625  0.8999
  649MOL0     H87585   0.757   7.059  -0.119  1.3056 -0.6045  0.4388
  649MOL0     H87586   0.898   7.132  -0.221  0.0962 -0.5011 -0.5257
  649MOL0     H87587   0.819   7.205   0.061 -1.2489  0.4725  0.2542
  649MOL0     H87588   0.939   7.288  -0.037  0.3403 -0.1044 -0.1260
  649MOL0     H87589   0.647   7.284  -0.111  1.8037 -3.0936 -1.0833
  649MOL0     H87590   0.775   7.361  -0.200  1.3203 -0.3228  0.4656
  649MOL0     H87591   0.712   7.441   0.094  2.2410  3.3454  1.3422
  649MOL0     H87592   0.815   7.526  -0.020  0.5537  0.1751  0.8142
  649MOL0     H87593   0.631   7.548  -0.186  3.3883 -2.4057  0.0663
  649MOL0     H87594   0.616   7.656  -0.052 -1.5179  0.8316 -3.2353
  649MOL0     H87595   0.466   7.504   0.074  2.1001  1.4874 -0.7484
  649MOL0     H87596   0.464   7.406  -0.064  0.0214 -0.2978  0.0312
  649MOL0     H87597   1.323   7.122  -0.167 -1.8260  1.2968  2.0955
  649MOL0     H87598   1.569   7.152  -0.125 -3.3569  2.6630 -2.3422
  649MOL0     H87599   1.915   7.002   0.155  1.5255 -1.9782 -0.9419
  649MOL0     H87600   2.099   7.097   0.264 -2.0482 -0.0534  0.0347
  649MOL0     H87601   3.963   7.025   0.292 -0.6930 -0.5546 -1.6041
  649MOL0     H87602   4.174   7.170   0.260 -2.0823 -2.0394  0.8386
  649MOL0     H87603   4.419   7.370   0.023 -0.0365 -0.6916 -4.8633
  649MOL0     H87604   4.647   7.442  -0.048 -0.3318  0.1117  1.8867
  649MOL0     H87605   4.701   7.881  -0.145 -2.1583  0.6811  2.2510
  649MOL0     H87606   4.768   7.864   0.022 -3.1098  1.0574 -0.2942
  649MOL0     H87607   4.976   7.804  -0.053  0.3206 -1.3491  0.5784
  649MOL0     H87608   4.920   7.952  -0.131 -0.4885 -0.7207  0.4005
  649MOL0     H87609   4.883   7.870  -0.327  0.0500  0.5118  0.6280
  649MOL0     H87610   4.867   7.696  -0.279  0.9882 -1.6901  0.9228
  649MOL0     H87611   5.068   7.689  -0.390 -2.0550 -0.7183  0.1199
  649MOL0     H87612   5.094   7.680  -0.218 -0.4055 -1.5001 -1.1725
  649MOL0     H87613   5.334   8.005  -0.312 -0.9353  1.0579  1.2552
  649MOL0     H87614   4.509   7.852   0.006  1.2509 -0.5812 -2.1286
  649MOL0     H87615   4.315   7.775   0.113 -0.1445 -0.5187  1.0922
  650MOL0     O87616   5.591   1.787   1.985  0.1067  0.4986  0.4746
  650MOL0     C87617   5.587   1.662   1.964  0.4883 -0.3093 -0.6059
  650MOL0     O87618   5.470   1.584   1.944 -0.1670  0.0566  0.2716
  650MOL0     C87619   5.359   1.656   1.966 -0.3175 -0.0679 -0.0887
  650MOL0     C87620   5.344   1.741   2.076  0.0003 -0.2532 -0.2795
  650MOL0     C87621   5.226   1.810   2.103 -1.6896 -0.0834 -0.4070
  650MOL0     C87622   5.124   1.795   2.020 -0.3136  0.0999  0.7735
  650MOL0     O87623   4.999   1.840   2.040 -0.6984  0.3910 -0.4568
  650MOL0     C87624   4.977   1.949   2.136 -0.5359  0.0358 -0.8281
  650MOL0     C87625   4.827   1.987   2.150  0.3177 -0.9768 -0.7504
  650MOL0     C87626   4.772   2.049   2.030 -0.2730  0.3184 -0.3742
  650MOL0     C87627   4.628   2.097   2.041  0.9734 -0.6032  0.3913
  650MOL0     C87628   4.565   2.123   1.898 -0.8014 -0.7241  0.5389
  650MOL0     C87629   4.413   2.105   1.899  0.1218 -0.1594 -0.4862
  650MOL0     C87630   4.341   2.224   1.964  0.2665 -0.2740 -0.2047
  650MOL0     C87631   4.198   2.240   1.905  0.4811 -0.0368 -0.3713
  650MOL0     N87632   4.121   2.128   1.950  0.2146 -0.2921 -0.3757
  650MOL0     C87633   3.987   2.137   1.990 -0.7560 -0.4690  0.0871
  650MOL0     C87634   3.934   2.012   1.990 -0.8712 -0.1363 -0.4660
  650MOL0     C87635   3.802   1.953   2.017  0.0895 -0.0141 -0.3279
  650MOL0     C87636   3.726   1.922   1.885 -0.0906  0.4425  0.0994
  650MOL0     C87637   3.661   2.052   1.837  0.1356  0.2612  0.7593
  650MOL0     C87638   3.576   2.019   1.713 -0.1421  0.3565 -0.1702
  650MOL0     O87639   3.544   2.146   1.644  0.8873 -0.2288  0.0116
  650MOL0     C87640   3.497   2.135   1.514 -0.0005 -0.2849 -0.1496
  650MOL0     C87641   3.539   2.216   1.408  0.0662  0.5481 -0.3241
  650MOL0     C87642   3.481   2.213   1.281 -0.2643 -0.1039 -0.0144
  650MOL0     C87643   3.541   2.295   1.177 -0.3338 -0.5060 -0.7289
  650MOL0     C87644   3.371   2.135   1.254  1.0729 -0.0183  0.1930
  650MOL0     C87645   3.293   2.140   1.128 -0.6153  0.0294  0.1022
  650MOL0     O87646   3.244   2.019   1.094  1.1398  0.3260 -0.3813
  650MOL0     C87647   3.136   2.011   1.004 -0.2446  0.7914  0.4322
  650MOL0     C87648   3.149   1.936   0.886 -0.6071 -0.2076  0.4184
  650MOL0     C87649   3.037   1.913   0.795 -0.2917 -0.0332  0.0965
  650MOL0     C87650   2.905   1.946   0.831 -0.0412  0.6408  0.3499
  650MOL0     O87651   2.803   1.908   0.749 -0.4366 -0.0524 -0.3382
  650MOL0     C87652   2.678   1.866   0.807 -0.8069  0.2706 -0.1249
  650MOL0     C87653   2.600   1.800   0.695  0.1830 -0.1436 -0.8454
  650MOL0     C87654   2.463   1.759   0.739  0.2900 -0.6122 -0.9409
  650MOL0     C87655   2.394   1.673   0.631  0.4776  0.0385  1.1837
  650MOL0     C87656   2.256   1.629   0.674  0.1078  0.1019  0.7055
  650MOL0     C87657   2.181   1.565   0.556 -1.1520  1.0761  0.3020
  650MOL0     C87658   2.037   1.521   0.595  0.7124 -0.5454 -0.1336
  650MOL0     C87659   1.946   1.478   0.495  0.0352 -0.2402 -0.0410
  650MOL0    Cl87660   1.989   1.352   0.390  0.2670 -0.1709  0.0216
  650MOL0     C87661   2.893   2.017   0.956 -0.8383 -0.0342  0.1476
  650MOL0     C87662   3.004   2.043   1.040  0.4346 -0.4906  0.0100
  650MOL0     O87663   3.262   2.254   1.082  0.3862  0.3273 -0.7953
  650MOL0     C87664   3.323   2.053   1.367 -0.3060  0.1344  0.1719
  650MOL0     C87665   3.383   2.052   1.493  0.0652  0.3412 -0.4691
  650MOL0     N87666   4.032   1.930   1.943 -0.0483 -0.3688  0.3651
  650MOL0     N87667   4.131   1.996   1.912  0.7349 -0.7372  0.3324
  650MOL0     C87668   5.129   1.712   1.907 -0.3491  0.3169 -0.5531
  650MOL0     C87669   5.246   1.639   1.884 -1.1201  0.6963  0.5127
  650MOL0     C87670   5.718   1.596   1.985  0.5737 -0.2278  0.3193
  650MOL0     C87671   5.733   1.455   1.982 -0.6941  0.4283 -0.8354
  650MOL0     C87672   5.860   1.391   1.976  0.2878  0.0668  0.2515
  650MOL0     C87673   5.977   1.468   2.005 -0.3846 -0.2141  1.3265
  650MOL0     O87674   6.095   1.395   2.011 -0.6436  0.2267 -0.3272
  650MOL0     C87675   6.200   1.456   2.089 -0.1494  0.2589  0.6089
  650MOL0     C87676   6.313   1.535   2.024  0.0613  0.1752 -0.0987
  650MOL0     C87677   6.353   1.485   1.886 -1.2475  0.4728  0.0524
  650MOL0     C87678   6.484   1.541   1.837  0.0419 -0.3908  0.5175
  650MOL0     C87679   6.521   1.523   1.697  0.5009  0.4733 -0.3419
  650MOL0     C87680   6.570   1.527   1.584 -0.9667 -0.2591 -0.2605
  650MOL0     C87681   5.963   1.602   2.032  0.2192  0.5668 -0.1088
  650MOL0     C87682   5.837   1.670   2.012  1.0529 -0.1847  0.0112
  650MOL0     H87683   5.424   1.761   2.147  0.3263 -4.0486  0.6460
  650MOL0     H87684   5.225   1.858   2.201  0.5748 -1.8863  0.6108
  650MOL0     H87685   5.015   1.919   2.234  2.3593  0.5550 -1.6962
  650MOL0     H87686   5.035   2.037   2.109 -3.4627  1.7694 -2.0274
  650MOL0     H87687   4.765   1.910   2.198  2.8955 -1.4650  2.1815
  650MOL0     H87688   4.826   2.060   2.231 -2.2768 -1.9686  0.2277
  650MOL0     H87689   4.837   2.131   1.997 -2.3044  0.6945 -4.0015
  650MOL0     H87690   4.770   1.969   1.954 -4.0081 -0.9681  0.8464
  650MOL0     H87691   4.569   2.016   2.084 -3.0126  1.0772 -1.3980
  650MOL0     H87692   4.616   2.179   2.113 -1.8405 -0.3708 -0.2156
  650MOL0     H87693   4.597   2.222   1.863  0.6369 -0.0423  3.4568
  650MOL0     H87694   4.609   2.051   1.829  1.9787  0.5339  0.8499
  650MOL0     H87695   4.387   2.109   1.792  2.0826  1.9928 -0.9646
  650MOL0     H87696   4.383   2.007   1.937 -1.9166  0.4958 -0.3042
  650MOL0     H87697   4.340   2.213   2.073  2.8168  2.1365  0.1790
  650MOL0     H87698   4.407   2.310   1.952  2.4295 -1.3190  2.8468
  650MOL0     H87699   4.207   2.260   1.798  0.4556  1.5927 -0.1001
  650MOL0     H87700   4.153   2.330   1.949 -0.1898  0.1065 -1.3013
  650MOL0     H87701   3.940   2.231   2.018  1.9766  0.0401  3.9249
  650MOL0     H87702   3.813   1.861   2.075 -3.7258 -1.1607 -1.0925
  650MOL0     H87703   3.744   2.021   2.081  0.1807  0.2822 -0.5609
  650MOL0     H87704   3.650   1.846   1.901  0.9219 -0.5577  0.2596
  650MOL0     H87705   3.804   1.875   1.825 -0.5441 -0.0143 -0.1418
  650MOL0     H87706   3.741   2.124   1.817  0.8994  0.5515  4.2060
  650MOL0     H87707   3.596   2.095   1.915 -1.9807  0.0114 -0.7759
  650MOL0     H87708   3.488   1.966   1.750 -1.4101  2.9406  0.7511
  650MOL0     H87709   3.645   1.965   1.648 -0.0110  0.2219  0.0796
  650MOL0     H87710   3.614   2.293   1.426  0.5510  0.0139 -0.0056
  650MOL0     H87711   3.488   2.391   1.170  1.3178  0.5413  0.5147
  650MOL0     H87712   3.643   2.313   1.211 -1.3672  3.7484  0.8721
  650MOL0     H87713   3.528   2.242   1.083 -2.1381 -1.9215  0.2633
  650MOL0     H87714   3.248   1.901   0.858  1.6912  4.2624  2.0215
  650MOL0     H87715   3.056   1.851   0.708  2.2607 -1.2255  1.3796
  650MOL0     H87716   2.694   1.789   0.883  1.3009  1.4153  0.6996
  650MOL0     H87717   2.634   1.954   0.854 -1.2544  0.7431 -1.3975
  650MOL0     H87718   2.580   1.864   0.608  1.7487 -0.0658 -1.1780
  650MOL0     H87719   2.653   1.710   0.662  0.2002  0.3998 -2.3731
  650MOL0     H87720   2.424   1.856   0.768 -0.6821 -0.7902 -1.6231
  650MOL0     H87721   2.458   1.697   0.830 -0.3101  0.2090 -0.4017
  650MOL0     H87722   2.381   1.724   0.535 -2.3911 -2.3610  0.1341
  650MOL0     H87723   2.458   1.588   0.609 -0.0213  0.5786 -3.3007
  650MOL0     H87724   2.197   1.716   0.705  0.4943  0.3152  0.8511
  650MOL0     H87725   2.245   1.563   0.760 -0.9789 -0.9997 -0.2503
  650MOL0     H87726   2.187   1.639   0.475  3.9045 -0.2168 -0.8565
  650MOL0     H87727   2.237   1.476   0.526 -0.5235  1.3040  0.7765
  650MOL0     H87728   1.985   1.605   0.640  2.3362  2.6555 -3.6891
  650MOL0     H87729   2.046   1.446   0.674  0.4226  2.0721  2.5646
  650MOL0     H87730   1.927   1.563   0.429  2.2439 -0.4393 -1.0079
  650MOL0     H87731   1.862   1.439   0.553  2.7809 -3.6641  2.0443
  650MOL0     H87732   2.795   2.035   0.997 -0.7174  1.1333 -0.0240
  650MOL0     H87733   2.975   2.077   1.138 -0.7626 -1.1126 -0.1163
  650MOL0     H87734   3.235   1.990   1.357 -1.5969  1.9575 -0.4719
  650MOL0     H87735   3.348   1.972   1.557 -1.6631  0.2703 -1.4322
  650MOL0     H87736   5.044   1.699   1.842  0.0003  0.9602 -1.1484
  650MOL0     H87737   5.260   1.559   1.812  0.5150  0.3084  1.2123
  650MOL0     H87738   5.641   1.398   1.999  2.0142 -3.3882  3.5516
  650MOL0     H87739   5.860   1.282   1.970 -0.8052 -0.0857  2.1998
  650MOL0     H87740   6.152   1.519   2.165 -0.7529  1.9903 -1.1417
  650MOL0     H87741   6.248   1.379   2.151 -1.0011 -1.1087 -0.3791
  650MOL0     H87742   6.401   1.542   2.089  0.5692  1.8030 -0.9139
  650MOL0     H87743   6.278   1.638   2.016 -4.1347 -1.0106  0.3631
  650MOL0     H87744   6.279   1.522   1.814  0.1711  1.4165 -0.9751
  650MOL0     H87745   6.356   1.376   1.878 -0.7576  0.5689 -1.4750
  650MOL0     H87746   6.569   1.495   1.888  1.5104  2.9411  1.2896
  650MOL0     H87747   6.497   1.648   1.854  1.8330  0.0963 -3.0210
  650MOL0     H87748   6.626   1.516   1.494  1.0323  0.0513  0.8838
  650MOL0     H87749   6.043   1.670   2.061 -1.2743  2.4082 -0.0595
  650MOL0     H87750   5.835   1.778   2.026 -0.1280 -0.1181 -0.5508
  651MOL0     O87751  10.417   5.711   5.224  0.1758 -0.6691 -0.8958
  651MOL0     C87752  10.484   5.731   5.122 -0.1378  0.0076  0.5258
  651MOL0     O87753  10.436   5.769   5.004  0.5765 -0.2301 -0.0852
  651MOL0     C87754  10.305   5.796   4.988  1.6165  0.0508 -0.6114
  651MOL0     C87755  10.277   5.917   4.930 -0.5628  0.0733 -0.3209
  651MOL0     C87756  10.144   5.960   4.916 -0.3518  0.5121 -0.4053
  651MOL0     C87757  10.032   5.889   4.958 -0.3767  0.5407  0.3394
  651MOL0     O87758   9.899   5.932   4.967 -0.6563 -0.7899  0.1332
  651MOL0     C87759   9.869   6.047   4.890  0.2716 -0.0416 -0.1110
  651MOL0     C87760   9.738   6.100   4.955 -0.2720  0.1607  0.2431
  651MOL0     C87761   9.616   6.003   4.956 -0.3719  0.8104  0.0257
  651MOL0     C87762   9.483   6.069   5.002  0.0158  0.0791  0.4474
  651MOL0     C87763   9.364   5.970   4.991 -0.0950 -0.2059 -0.0806
  651MOL0     C87764   9.245   6.027   5.054 -0.4038 -0.6398 -0.4850
  651MOL0     C87765   9.114   5.971   5.004 -0.8328 -0.2099  0.1556
  651MOL0     C87766   8.994   6.023   5.080  0.0867  0.1816  0.1022
  651MOL0     N87767   8.874   5.942   5.063  0.2779 -0.1234  0.2878
  651MOL0     C87768   8.822   5.856   5.150  0.3356  0.5365 -0.7777
  651MOL0     C87769   8.721   5.799   5.085 -0.0715 -0.2193  0.5868
  651MOL0     C87770   8.619   5.710   5.148 -0.9114  0.2047 -0.0207
  651MOL0     C87771   8.487   5.716   5.067  0.2587 -0.2917 -0.1127
  651MOL0     C87772   8.396   5.598   5.093  0.3965 -0.1952  0.2472
  651MOL0     C87773   8.319   5.600   5.233 -0.8794 -0.3589 -0.2884
  651MOL0     O87774   8.204   5.507   5.228 -0.2815 -0.2317 -0.5754
  651MOL0     C87775   8.103   5.546   5.140 -0.1118  0.0512 -0.1391
  651MOL0     C87776   8.062   5.474   5.031  0.1344  0.4091  0.3799
  651MOL0     C87777   7.956   5.506   4.944  0.8129  0.1513  0.5753
  651MOL0     C87778   7.919   5.404   4.844  0.1003 -0.6819  0.5113
  651MOL0     C87779   7.879   5.623   4.969 -0.1009  1.4831  0.4553
  651MOL0     C87780   7.780   5.672   4.876 -0.4221 -0.5998  0.2115
  651MOL0     O87781   7.775   5.628   4.743  0.3887 -0.6062  0.3223
  651MOL0     C87782   7.674   5.674   4.662  0.9976 -0.2640  0.3204
  651MOL0     C87783   7.541   5.639   4.677  1.3528  0.0619  0.0777
  651MOL0     C87784   7.452   5.693   4.590  0.8374 -0.0626 -0.6315
  651MOL0     C87785   7.484   5.757   4.470 -0.3124 -0.4331  0.4807
  651MOL0     O87786   7.385   5.793   4.377  0.3240  1.0433  0.0361
  651MOL0     C87787   7.426   5.866   4.262  0.5592  0.6684 -0.6590
  651MOL0     C87788   7.317   5.863   4.150  0.5344  0.6027 -0.1785
  651MOL0     C87789   7.183   5.938   4.196  0.7560 -0.2433  0.5016
  651MOL0     C87790   7.068   5.915   4.091 -0.2851  0.5609 -0.2227
  651MOL0     C87791   7.026   5.768   4.067 -0.3399 -0.4447 -0.0374
  651MOL0     C87792   6.905   5.750   3.968 -0.1357  0.0110 -0.4711
  651MOL0     C87793   6.884   5.604   3.925  0.0569 -0.7982  0.0751
  651MOL0     C87794   6.825   5.535   4.049 -0.3905 -0.0542  0.0575
  651MOL0    Cl87795   6.661   5.604   4.094  0.4313 -0.0266 -0.5180
  651MOL0     C87796   7.618   5.779   4.455 -0.2495 -0.5752  0.4581
  651MOL0     C87797   7.713   5.750   4.551 -0.9681 -0.1668 -0.0116
  651MOL0     O87798   7.694   5.742   4.929 -0.3861  0.3569  0.9491
  651MOL0     C87799   7.921   5.699   5.076 -0.4968  0.7644 -0.0691
  651MOL0     C87800   8.034   5.670   5.148 -0.2259  0.1910  0.3457
  651MOL0     N87801   8.713   5.848   4.955 -0.5064  0.4100 -0.0691
  651MOL0     N87802   8.808   5.937   4.941 -0.0424  0.7322  0.0971
  651MOL0     C87803  10.061   5.758   5.003 -0.3964  0.3802  0.4785
  651MOL0     C87804  10.192   5.714   5.029  0.2361 -0.6907  0.0425
  651MOL0     C87805  10.623   5.679   5.126  0.1873  0.1989 -0.1076
  651MOL0     C87806  10.695   5.688   5.006  0.4920  0.0038 -0.3455
  651MOL0     C87807  10.824   5.643   5.007 -0.5928  0.5995 -0.6607
  651MOL0     C87808  10.885   5.583   5.116  0.1676 -0.6888  0.5422
  651MOL0     O87809  11.002   5.516   5.132 -0.5782  0.0144  0.3844
  651MOL0     C87810  11.097   5.514   5.032 -0.4816 -0.3234  0.0690
  651MOL0     C87811  11.231   5.560   5.090  0.4647 -0.2496  0.1852
  651MOL0     C87812  11.347   5.545   4.991  0.4467  0.0546 -0.5027
  651MOL0     C87813  11.395   5.405   4.955  0.7696  0.6392  0.1235
  651MOL0     C87814  11.486   5.353   5.055 -0.0185 -0.2674  0.2207
  651MOL0     C87815  11.552   5.303   5.144 -0.6163  0.1333  0.3817
  651MOL0     C87816  10.811   5.581   5.237  0.2017  1.1478  0.5869
  651MOL0     C87817  10.682   5.627   5.244 -0.1009  0.1886 -1.1793
  651MOL0     H87818  10.359   5.983   4.902 -1.8699  2.6886  1.5002
  651MOL0     H87819  10.129   6.060   4.877 -3.2884 -0.8851 -3.4051
  651MOL0     H87820   9.949   6.122   4.891  0.1421  0.1060 -0.4975
  651MOL0     H87821   9.849   6.023   4.785 -0.5979  0.3063 -0.0311
  651MOL0     H87822   9.759   6.128   5.059  1.2042 -1.1450  0.3560
  651MOL0     H87823   9.713   6.180   4.885  0.9056 -1.8027 -2.6340
  651MOL0     H87824   9.598   5.960   4.857  3.3909 -4.8836  1.3355
  651MOL0     H87825   9.628   5.924   5.030  1.5501  2.0531  1.1360
  651MOL0     H87826   9.487   6.124   5.096 -0.5528  2.3539 -0.7678
  651MOL0     H87827   9.461   6.147   4.928  0.4229  0.1115  0.3545
  651MOL0     H87828   9.348   5.936   4.888  0.7569  1.2067 -0.7095
  651MOL0     H87829   9.396   5.891   5.059  4.0395  0.3570 -1.0749
  651MOL0     H87830   9.246   5.992   5.158  1.4133  0.3646 -0.1160
  651MOL0     H87831   9.245   6.135   5.044  0.9684 -0.4557  1.0488
  651MOL0     H87832   9.105   5.986   4.896  0.1785 -0.3558  0.0428
  651MOL0     H87833   9.127   5.867   5.035 -1.2840 -1.6159 -3.8504
  651MOL0     H87834   8.978   6.120   5.033  0.0167 -0.1634 -0.6050
  651MOL0     H87835   9.026   6.037   5.183  2.3800 -0.7989 -0.4033
  651MOL0     H87836   8.862   5.843   5.250 -2.0144  0.5296  0.2310
  651MOL0     H87837   8.654   5.606   5.146 -0.7771  0.2314  0.7190
  651MOL0     H87838   8.598   5.749   5.248 -1.2150 -1.5156  0.6279
  651MOL0     H87839   8.509   5.714   4.959 -1.3163  0.3883 -0.4750
  651MOL0     H87840   8.439   5.813   5.081  1.9676  0.5104  0.5506
  651MOL0     H87841   8.449   5.503   5.096  0.1471 -0.3321  3.1117
  651MOL0     H87842   8.324   5.593   5.011 -1.5259 -2.2379  1.9424
  651MOL0     H87843   8.296   5.703   5.260  0.4425  0.4002 -1.9336
  651MOL0     H87844   8.402   5.564   5.295 -1.0150  0.1920  0.2255
  651MOL0     H87845   8.122   5.386   5.009  2.2354  1.7295  0.5919
  651MOL0     H87846   7.980   5.420   4.755  1.0391 -1.5396  0.9772
  651MOL0     H87847   7.944   5.304   4.881  0.2552  0.0503  2.5458
  651MOL0     H87848   7.814   5.407   4.815 -0.3801 -1.2646  2.0640
  651MOL0     H87849   7.513   5.564   4.751 -1.8069 -0.4686 -1.4610
  651MOL0     H87850   7.352   5.660   4.615 -0.0615  0.2681 -3.4348
  651MOL0     H87851   7.434   5.973   4.284 -1.1211  0.4090  1.5569
  651MOL0     H87852   7.514   5.826   4.210 -0.4258 -0.0889 -1.7958
  651MOL0     H87853   7.352   5.917   4.061  0.2422 -0.0340 -0.6934
  651MOL0     H87854   7.295   5.759   4.127  3.2881 -0.0352 -0.1582
  651MOL0     H87855   7.211   6.043   4.196  1.8617 -0.5263  0.6220
  651MOL0     H87856   7.154   5.900   4.294 -3.2981 -0.2883 -0.5513
  651MOL0     H87857   6.989   5.984   4.123  0.0677  0.9089 -0.0923
  651MOL0     H87858   7.113   5.951   3.998  1.6378  0.4399  0.6240
  651MOL0     H87859   7.010   5.720   4.164  0.1732 -2.1284 -0.7623
  651MOL0     H87860   7.109   5.722   4.013  0.4107 -0.3301  0.9812
  651MOL0     H87861   6.813   5.786   4.014  0.3777 -1.3854  1.8053
  651MOL0     H87862   6.911   5.805   3.874 -2.0858  0.0791 -0.5971
  651MOL0     H87863   6.977   5.552   3.903 -1.5313 -3.1407 -1.6897
  651MOL0     H87864   6.818   5.593   3.838 -0.0072  0.6729 -0.0953
  651MOL0     H87865   6.890   5.552   4.135  0.0081  1.4947 -0.5212
  651MOL0     H87866   6.824   5.426   4.034  3.2101 -0.1586 -0.2005
  651MOL0     H87867   7.642   5.831   4.363 -0.0363 -1.9740 -0.3084
  651MOL0     H87868   7.815   5.785   4.541 -1.6621  2.1247  0.5039
  651MOL0     H87869   7.859   5.785   5.100 -3.4009 -0.9555 -0.8913
  651MOL0     H87870   8.063   5.745   5.221 -0.7412  1.2931 -0.5362
  651MOL0     H87871   9.986   5.683   5.026 -3.2991  3.1115  0.5518
  651MOL0     H87872  10.223   5.620   5.072  0.4723 -1.0454 -0.8658
  651MOL0     H87873  10.660   5.726   4.911 -2.4861  1.4523  1.1958
  651MOL0     H87874  10.873   5.640   4.911  0.0621  4.0332 -0.5732
  651MOL0     H87875  11.097   5.408   5.004 -3.1513 -0.2098 -0.6263
  651MOL0     H87876  11.084   5.581   4.947  0.0883 -0.4563 -0.1249
  651MOL0     H87877  11.265   5.509   5.181 -0.0833 -1.0653 -0.0522
  651MOL0     H87878  11.222   5.668   5.103  2.8597 -0.0471  0.6494
  651MOL0     H87879  11.433   5.604   5.022  0.6294 -1.2012  1.5581
  651MOL0     H87880  11.309   5.601   4.904 -3.5128 -2.5667 -0.7241
  651MOL0     H87881  11.440   5.401   4.855 -0.3380 -0.6588 -0.3547
  651MOL0     H87882  11.317   5.329   4.950  1.0717  0.3117  0.3162
  651MOL0     H87883  11.579   5.245   5.230  1.7879 -2.3347 -1.8862
  651MOL0     H87884  10.868   5.535   5.317  1.9836  3.2268  0.5786
  651MOL0     H87885  10.632   5.631   5.340  3.5013  0.6762  0.8670
  652MOL0     O87886   2.665   5.992   8.680  0.4202  0.3836  1.0541
  652MOL0     C87887   2.707   6.025   8.788 -0.7056 -0.0123  0.4985
  652MOL0     O87888   2.636   6.068   8.895 -0.1233 -0.2261 -1.0242
  652MOL0     C87889   2.500   6.058   8.911  0.1342 -0.2848  0.0370
  652MOL0     C87890   2.417   5.970   8.843  0.0435 -0.0043  0.0826
  652MOL0     C87891   2.273   5.978   8.869 -0.9177 -0.0521 -0.4952
  652MOL0     C87892   2.211   6.058   8.963  0.6787 -1.0389 -0.4256
  652MOL0     O87893   2.078   6.050   9.011 -0.4451 -0.5244 -0.5400
  652MOL0     C87894   1.992   5.982   8.921  0.8882  0.5464  0.2798
  652MOL0     C87895   1.986   5.834   8.963 -0.1801 -0.4196  0.7873
  652MOL0     C87896   1.853   5.782   8.982  0.4217 -0.1117  0.6030
  652MOL0     C87897   1.816   5.705   8.851 -0.0077  0.3794  0.4185
  652MOL0     C87898   1.664   5.698   8.837  0.2145  0.2193  0.1757
  652MOL0     C87899   1.595   5.837   8.842 -0.3466 -0.4502  0.7066
  652MOL0     C87900   1.456   5.845   8.772 -0.6208 -0.2425  0.1985
  652MOL0     C87901   1.386   5.984   8.775 -0.6271  0.0608 -0.4840
  652MOL0     N87902   1.327   6.013   8.906  0.2297  0.1354 -0.4534
  652MOL0     C87903   1.393   6.043   9.018  0.0586  0.2296  0.1557
  652MOL0     C87904   1.291   6.074   9.103  0.9934 -0.1259  0.5288
  652MOL0     C87905   1.302   6.128   9.248  0.0118 -0.3046 -0.2100
  652MOL0     C87906   1.171   6.099   9.325 -0.8474 -0.1882  0.5384
  652MOL0     C87907   1.202   6.126   9.473  0.9053  0.2391  0.0134
  652MOL0     C87908   1.077   6.093   9.565 -0.2171  0.8091 -0.1621
  652MOL0     O87909   1.032   5.960   9.545 -0.3318 -0.3312 -0.9952
  652MOL0     C87910   0.897   5.944   9.558  0.6026  0.0290  0.9944
  652MOL0     C87911   0.830   5.981   9.672  0.5173  0.4718  0.4200
  652MOL0     C87912   0.693   5.964   9.685  0.1710 -0.0241 -0.3468
  652MOL0     C87913   0.639   5.997   9.826  0.3144 -0.3450  0.4572
  652MOL0     C87914   0.608   5.901   9.586  0.6035 -0.3165 -0.4276
  652MOL0     C87915   0.464   5.899   9.586 -0.4755  0.5205  0.2838
  652MOL0     O87916   0.400   5.913   9.706  0.1387 -0.2564 -0.3704
  652MOL0     C87917   0.275   5.966   9.710 -0.8697  0.2803  0.1032
  652MOL0     C87918   0.163   5.897   9.663  0.0593  0.7366 -0.4507
  652MOL0     C87919   0.033   5.946   9.663  0.2458  0.1575  0.1080
  652MOL0     C87920   0.008   6.064   9.740 -0.6925 -0.2543 -1.5794
  652MOL0     O87921  -0.119   6.116   9.758 -0.2822 -0.1302 -0.4252
  652MOL0     C87922  -0.206   6.116   9.641  0.1893  0.2585  0.1944
  652MOL0     C87923  -0.335   6.193   9.682 -0.0313  0.6170  0.9822
  652MOL0     C87924  -0.424   6.204   9.558 -0.5032  0.4207 -0.3195
  652MOL0     C87925  -0.485   6.061   9.511 -0.4251 -0.0066 -0.2901
  652MOL0     C87926  -0.612   6.031   9.598  0.0898 -0.0923  0.2738
  652MOL0     C87927  -0.677   5.902   9.552  0.4202  0.5208 -0.5980
  652MOL0     C87928  -0.789   5.863   9.654 -0.7102 -0.3102  0.5141
  652MOL0     C87929  -0.732   5.784   9.777  0.4904  0.0337 -0.1055
  652MOL0    Cl87930  -0.675   5.616   9.742 -0.3635 -0.1963 -0.2424
  652MOL0     C87931   0.123   6.135   9.804  0.5142  1.4574 -0.3856
  652MOL0     C87932   0.256   6.083   9.779  0.0825 -0.0282  0.7342
  652MOL0     O87933   0.408   5.886   9.476 -0.7855 -0.4029 -0.0210
  652MOL0     C87934   0.679   5.863   9.466  1.1595  0.6406 -0.1639
  652MOL0     C87935   0.817   5.885   9.453 -0.1503 -0.2547 -0.9507
  652MOL0     N87936   1.166   6.059   9.043 -0.0810 -0.1214 -0.0232
  652MOL0     N87937   1.195   6.017   8.927 -0.5556 -0.4730  1.2960
  652MOL0     C87938   2.297   6.139   9.035 -0.8389  0.1726  0.3862
  652MOL0     C87939   2.439   6.145   9.004 -0.3643 -0.7796 -0.2567
  652MOL0     C87940   2.856   6.033   8.807  0.0028 -0.6347 -0.3549
  652MOL0     C87941   2.905   6.144   8.878  0.0176  0.4048  0.1948
  652MOL0     C87942   3.040   6.174   8.886 -0.2386  0.8818  0.8601
  652MOL0     C87943   3.132   6.094   8.811  0.7867  0.0525 -0.2663
  652MOL0     O87944   3.259   6.126   8.818 -0.2275  0.4946 -0.6585
  652MOL0     C87945   3.303   6.251   8.757  0.2572 -0.2595  0.2392
  652MOL0     C87946   3.373   6.219   8.630 -0.4482  0.3378 -0.1762
  652MOL0     C87947   3.478   6.111   8.654 -0.1218 -0.1612  0.0989
  652MOL0     C87948   3.572   6.094   8.533 -0.0433  0.1229 -0.0744
  652MOL0     C87949   3.625   5.960   8.520  1.0106  0.3514  0.1275
  652MOL0     C87950   3.666   5.849   8.509  0.5314 -1.6243 -0.3952
  652MOL0     C87951   3.084   5.983   8.736 -0.0506  1.0503  0.2217
  652MOL0     C87952   2.946   5.956   8.726 -1.4943  0.7296 -0.2458
  652MOL0     H87953   2.454   5.910   8.761 -1.2807  2.0843 -2.1906
  652MOL0     H87954   2.217   5.914   8.802 -1.1968  2.8924 -3.3552
  652MOL0     H87955   1.892   6.027   8.924  0.6319 -0.0547  1.1981
  652MOL0     H87956   2.027   5.995   8.818  2.9780  0.4336  0.9250
  652MOL0     H87957   2.048   5.786   8.887  1.4086  2.0987  0.3794
  652MOL0     H87958   2.024   5.833   9.066 -0.6152  0.6633  0.9660
  652MOL0     H87959   1.854   5.702   9.057 -0.5381 -1.1467 -0.4612
  652MOL0     H87960   1.786   5.859   9.020  1.7314  0.4366  1.9126
  652MOL0     H87961   1.852   5.751   8.758 -1.8418 -2.2470 -1.7641
  652MOL0     H87962   1.864   5.607   8.849  1.2804  0.9879  0.3591
  652MOL0     H87963   1.639   5.653   8.741  2.2761  0.6525 -0.6085
  652MOL0     H87964   1.612   5.637   8.912 -0.3285  0.5437  0.0710
  652MOL0     H87965   1.585   5.864   8.948  0.8299  0.4510  0.6108
  652MOL0     H87966   1.657   5.912   8.791  2.6978 -1.1023  3.1003
  652MOL0     H87967   1.472   5.828   8.665 -0.9784 -0.8326  0.2325
  652MOL0     H87968   1.381   5.777   8.816 -3.1015  2.0886 -0.1903
  652MOL0     H87969   1.300   5.993   8.708 -0.7222  0.5619 -0.2980
  652MOL0     H87970   1.460   6.058   8.744 -0.2605  0.1991  0.6667
  652MOL0     H87971   1.499   6.061   9.033  0.1663  0.3026 -0.6286
  652MOL0     H87972   1.380   6.073   9.301 -0.4408 -0.9996 -0.2474
  652MOL0     H87973   1.325   6.235   9.241 -0.6066 -0.1432  0.0898
  652MOL0     H87974   1.138   5.995   9.318 -3.4726  0.3987  2.8014
  652MOL0     H87975   1.086   6.164   9.303 -0.7242 -0.6844 -1.6085
  652MOL0     H87976   1.230   6.231   9.479  0.9762  0.1438  2.8944
  652MOL0     H87977   1.287   6.067   9.508  1.4517 -0.4316 -2.2758
  652MOL0     H87978   0.995   6.162   9.542 -1.5545 -0.6744 -0.0121
  652MOL0     H87979   1.103   6.104   9.671 -2.1675 -0.1125  0.4631
  652MOL0     H87980   0.887   6.012   9.759 -0.3488 -1.5853  1.7898
  652MOL0     H87981   0.704   6.070   9.876 -1.0442  0.7805  0.6247
  652MOL0     H87982   0.554   6.064   9.810  0.1055 -0.7847 -0.2919
  652MOL0     H87983   0.622   5.911   9.891  1.0041 -1.7846 -1.1794
  652MOL0     H87984   0.191   5.804   9.614 -5.5788 -1.2356 -0.7183
  652MOL0     H87985  -0.050   5.886   9.628 -0.5536  0.6661  1.0625
  652MOL0     H87986  -0.170   6.172   9.555 -2.2942  0.3347 -0.8610
  652MOL0     H87987  -0.228   6.013   9.611  0.6253  0.3304 -0.4015
  652MOL0     H87988  -0.386   6.153   9.771  1.6222  0.0818  1.7329
  652MOL0     H87989  -0.302   6.294   9.706  0.9120  1.0782 -1.9424
  652MOL0     H87990  -0.384   6.261   9.474  3.6202 -0.2243  0.9764
  652MOL0     H87991  -0.516   6.257   9.586  0.5708  2.5731 -0.6329
  652MOL0     H87992  -0.528   6.072   9.411 -0.4540 -1.3662 -0.4442
  652MOL0     H87993  -0.407   5.984   9.509 -0.3377 -0.0030  1.5204
  652MOL0     H87994  -0.682   6.115   9.593  0.4501  0.1637 -1.1287
  652MOL0     H87995  -0.575   6.023   9.700  1.1571 -1.3549 -0.1841
  652MOL0     H87996  -0.710   5.917   9.449  1.6469  3.3295 -0.6741
  652MOL0     H87997  -0.598   5.826   9.553  0.4610  0.5310 -1.6410
  652MOL0     H87998  -0.855   5.787   9.610 -1.4815  0.5575  0.1433
  652MOL0     H87999  -0.854   5.948   9.676 -3.0586 -0.4937 -4.3129
  652MOL0     H88000  -0.806   5.781   9.857  1.5795 -0.7396  0.9164
  652MOL0     H88001  -0.648   5.831   9.830  1.5328 -1.7382 -0.1129
  652MOL0     H88002   0.102   6.219   9.869 -0.5217  1.3773 -0.5934
  652MOL0     H88003   0.341   6.131   9.827 -0.6898  1.9909  0.1964
  652MOL0     H88004   0.631   5.813   9.382 -1.8820  2.9556  0.0285
  652MOL0     H88005   0.858   5.835   9.366  0.9015 -1.5006  0.2096
  652MOL0     H88006   2.274   6.196   9.124  4.5173 -2.5295  4.0545
  652MOL0     H88007   2.516   6.209   9.048 -0.0545 -2.5356  1.9570
  652MOL0     H88008   2.849   6.202   8.951  0.3498 -0.4923  1.1915
  652MOL0     H88009   3.088   6.247   8.950  0.8037  1.7729 -0.8479
  652MOL0     H88010   3.214   6.313   8.746  1.1417  0.8694 -0.8400
  652MOL0     H88011   3.379   6.297   8.822  0.3076 -0.1383  0.0954
  652MOL0     H88012   3.431   6.307   8.600  0.5413 -0.7858 -1.7305
  652MOL0     H88013   3.316   6.196   8.539 -0.9888 -0.8903  0.4456
  652MOL0     H88014   3.422   6.019   8.676 -1.9659  0.6942 -0.7656
  652MOL0     H88015   3.539   6.135   8.742 -1.3393  1.3902  0.5660
  652MOL0     H88016   3.662   6.156   8.541  0.8109 -0.8781 -1.4570
  652MOL0     H88017   3.521   6.119   8.440 -2.3975  4.5946  2.1026
  652MOL0     H88018   3.712   5.755   8.488  1.6970 -1.8250  2.5687
  652MOL0     H88019   3.157   5.933   8.673  1.8239  4.8791 -0.9608
  652MOL0     H88020   2.909   5.869   8.674  1.8983 -1.8754  1.3106
  653MOL0     O88021   3.058   9.848   1.509  0.3660  0.6709  0.2576
  653MOL0     C88022   3.097   9.786   1.412  0.4894 -0.9595 -0.4669
  653MOL0     O88023   3.023   9.736   1.313  0.6264 -0.5173 -0.0693
  653MOL0     C88024   2.887   9.752   1.308 -0.0579  0.1266 -0.4913
  653MOL0     C88025   2.837   9.777   1.185  0.2520 -0.3034  0.2908
  653MOL0     C88026   2.699   9.795   1.164  0.1934  0.4180  0.4754
  653MOL0     C88027   2.605   9.790   1.269  0.0995 -0.3769  0.0601
  653MOL0     O88028   2.474   9.806   1.228 -0.2303  0.4136 -0.1341
  653MOL0     C88029   2.375   9.770   1.321  0.2638  0.4223 -0.2025
  653MOL0     C88030   2.240   9.722   1.256  0.2784 -0.8097  0.2747
  653MOL0     C88031   2.150   9.641   1.353  0.1882 -0.6555  0.0937
  653MOL0     C88032   2.017   9.594   1.278 -0.5672 -0.1131  0.2118
  653MOL0     C88033   1.928   9.714   1.246  0.3211  0.8168 -0.4490
  653MOL0     C88034   1.796   9.659   1.193 -0.3027  0.5259 -0.9893
  653MOL0     C88035   1.707   9.770   1.141  0.2033 -0.0644  0.4179
  653MOL0     C88036   1.576   9.713   1.081  0.4146 -0.1526 -0.0651
  653MOL0     N88037   1.478   9.684   1.184 -0.4497  0.5947 -0.4123
  653MOL0     C88038   1.407   9.782   1.247  0.1137  0.9901 -0.4427
  653MOL0     C88039   1.312   9.711   1.314 -0.0277 -0.7933 -1.4191
  653MOL0     C88040   1.208   9.780   1.404 -0.5404 -0.8810 -0.2101
  653MOL0     C88041   1.074   9.812   1.325  0.1318  0.8170  0.6721
  653MOL0     C88042   0.999   9.904   1.423 -0.2766 -0.2785  0.3211
  653MOL0     C88043   0.865   9.960   1.372  0.5523 -0.4401 -0.7504
  653MOL0     O88044   0.863  10.101   1.379 -0.4703 -0.2576  0.1352
  653MOL0     C88045   0.737  10.156   1.369  0.5310  0.2913  0.2428
  653MOL0     C88046   0.668  10.189   1.485  0.1777 -0.0441 -0.1363
  653MOL0     C88047   0.537  10.252   1.482  0.0461  0.3978 -0.2973
  653MOL0     C88048   0.493  10.293   1.618  0.8626  0.6025 -0.7270
  653MOL0     C88049   0.475  10.285   1.356 -0.3630  0.5039  0.1754
  653MOL0     C88050   0.335  10.342   1.344 -0.0493  0.6472  0.0526
  653MOL0     O88051   0.314  10.409   1.235 -0.7868  0.1377  0.2963
  653MOL0     C88052   0.196  10.470   1.206 -0.2635  0.1377 -0.4026
  653MOL0     C88053   0.163  10.504   1.072 -0.9579 -0.1461  0.1962
  653MOL0     C88054   0.046  10.575   1.044  0.0079  0.0004  0.1231
  653MOL0     C88055  -0.055  10.602   1.139 -0.3667 -0.0103  0.0125
  653MOL0     O88056  -0.163  10.666   1.090  0.3327 -0.0701 -0.3221
  653MOL0     C88057  -0.260  10.726   1.178 -0.1154 -0.0861 -0.3934
  653MOL0     C88058  -0.374  10.767   1.086  0.0724 -0.3208  0.2879
  653MOL0     C88059  -0.429  10.645   1.007 -1.0943 -0.4221  0.2449
  653MOL0     C88060  -0.574  10.670   0.954 -0.5178  0.1962  0.2605
  653MOL0     C88061  -0.674  10.686   1.069 -0.0350 -0.3129  0.1646
  653MOL0     C88062  -0.815  10.673   1.036 -0.2906 -0.3789 -0.5899
  653MOL0     C88063  -0.870  10.781   0.936 -0.4204 -0.4685 -0.0959
  653MOL0     C88064  -0.953  10.721   0.824  0.3552  0.4079 -0.6946
  653MOL0    Cl88065  -0.857  10.612   0.714  0.0580  0.5215 -0.1588
  653MOL0     C88066  -0.026  10.563   1.268 -0.4795 -0.0935 -1.1867
  653MOL0     C88067   0.090  10.500   1.303  0.3572  0.2120  0.1812
  653MOL0     O88068   0.255  10.302   1.426 -0.2947 -0.1197  0.3975
  653MOL0     C88069   0.551  10.264   1.239 -0.5086  0.2435  0.4038
  653MOL0     C88070   0.671  10.193   1.239 -0.8658 -0.1006  0.0915
  653MOL0     N88071   1.320   9.579   1.290 -0.7206 -0.3748 -0.2385
  653MOL0     N88072   1.425   9.562   1.218 -1.1263 -0.2414 -0.3417
  653MOL0     C88073   2.659   9.783   1.396  0.2697 -0.5245 -1.0931
  653MOL0     C88074   2.792   9.769   1.416  0.4950  0.3730 -0.4257
  653MOL0     C88075   3.246   9.761   1.400 -0.1830 -0.1373 -0.4913
  653MOL0     C88076   3.339   9.822   1.483  0.4633  0.2465 -0.1972
  653MOL0     C88077   3.473   9.788   1.476  0.1298 -0.6259 -0.5240
  653MOL0     C88078   3.522   9.700   1.372  1.0710 -0.8810  0.1617
  653MOL0     O88079   3.653   9.678   1.376 -0.3947  0.5395  0.1810
  653MOL0     C88080   3.696   9.576   1.287 -0.4445 -0.3131  0.0721
  653MOL0     C88081   3.848   9.542   1.309  1.0346  0.2397 -0.5342
  653MOL0     C88082   3.880   9.487   1.447 -0.7599  0.3619 -0.5143
  653MOL0     C88083   4.034   9.458   1.456  0.6787  0.3339 -0.6327
  653MOL0     C88084   4.063   9.318   1.420 -0.1345  0.0394  0.1685
  653MOL0     C88085   4.078   9.199   1.393 -0.1023 -0.2150 -1.0633
  653MOL0     C88086   3.432   9.659   1.282 -0.6257  1.2341  0.7359
  653MOL0     C88087   3.295   9.692   1.288 -0.5228  0.3292  0.4042
  653MOL0     H88088   2.906   9.786   1.102  2.5572  2.0697  2.2798
  653MOL0     H88089   2.660   9.800   1.063 -0.3770 -0.8303  0.6181
  653MOL0     H88090   2.418   9.682   1.368 -0.2339 -0.1421 -0.7875
  653MOL0     H88091   2.360   9.854   1.390  1.5324 -0.3644  1.0521
  653MOL0     H88092   2.185   9.813   1.229 -1.2715 -2.0378 -0.8415
  653MOL0     H88093   2.262   9.655   1.173  0.4181 -1.2409  0.6582
  653MOL0     H88094   2.197   9.550   1.392  0.9745 -0.1016  0.4735
  653MOL0     H88095   2.122   9.693   1.445  1.5980 -0.4928  0.4563
  653MOL0     H88096   2.030   9.544   1.182 -0.8273  1.4049 -0.6462
  653MOL0     H88097   1.956   9.528   1.341 -1.6178  1.0548  0.4692
  653MOL0     H88098   1.910   9.786   1.326  2.3547  2.1445 -1.1063
  653MOL0     H88099   1.970   9.777   1.167  0.8182 -0.1748 -1.0018
  653MOL0     H88100   1.799   9.581   1.117 -2.7725 -0.2590 -0.3621
  653MOL0     H88101   1.749   9.607   1.277 -0.0130  0.9655 -0.5493
  653MOL0     H88102   1.695   9.843   1.221  2.6543  3.1369 -1.8631
  653MOL0     H88103   1.757   9.823   1.060  0.5922 -0.6077  0.3019
  653MOL0     H88104   1.603   9.618   1.033  1.3408 -0.5782  1.2564
  653MOL0     H88105   1.535   9.793   1.018 -1.9698  1.0047  2.6973
  653MOL0     H88106   1.420   9.889   1.261 -2.1661  1.3645 -0.8175
  653MOL0     H88107   1.187   9.729   1.498 -1.1150  0.0881  0.2022
  653MOL0     H88108   1.240   9.884   1.419 -1.6483 -0.5569 -0.0272
  653MOL0     H88109   1.019   9.719   1.311  1.0711  0.3280  0.1363
  653MOL0     H88110   1.105   9.862   1.233  2.2889 -1.7776 -0.1583
  653MOL0     H88111   1.065   9.987   1.448 -0.1779 -0.1793 -0.2378
  653MOL0     H88112   0.981   9.848   1.515 -0.2515  1.9654  1.7632
  653MOL0     H88113   0.773   9.925   1.422  0.2157  2.0398  0.5612
  653MOL0     H88114   0.844   9.929   1.270  0.1435  0.4462 -0.9508
  653MOL0     H88115   0.707  10.178   1.586  1.2272 -1.7553 -0.6751
  653MOL0     H88116   0.484  10.402   1.616 -1.1816  0.4606 -1.3007
  653MOL0     H88117   0.394  10.255   1.647  1.4282 -0.2797  0.1331
  653MOL0     H88118   0.559  10.270   1.702 -0.3285  0.9076  0.3384
  653MOL0     H88119   0.231  10.486   0.990  1.0644  1.7502  1.3370
  653MOL0     H88120   0.019  10.604   0.943 -1.6836  1.9433  1.0447
  653MOL0     H88121  -0.292  10.651   1.250 -1.7005 -1.6684 -2.6133
  653MOL0     H88122  -0.222  10.816   1.228  3.0186 -1.2115 -0.5200
  653MOL0     H88123  -0.455  10.813   1.145 -0.2466  2.2384 -1.9426
  653MOL0     H88124  -0.347  10.843   1.013 -1.5595 -1.1713 -1.2749
  653MOL0     H88125  -0.428  10.554   1.067 -1.5780  0.1576  1.1492
  653MOL0     H88126  -0.361  10.627   0.922 -1.9822 -2.5729 -0.0654
  653MOL0     H88127  -0.573  10.761   0.894  1.1166  0.7943  1.1268
  653MOL0     H88128  -0.601  10.590   0.884 -3.2947 -0.1750  1.5913
  653MOL0     H88129  -0.663  10.781   1.123  1.0385 -0.4679  0.2432
  653MOL0     H88130  -0.650  10.611   1.144 -2.0208  0.8589  2.1125
  653MOL0     H88131  -0.823  10.573   0.991  1.1244 -0.6109 -0.3721
  653MOL0     H88132  -0.870  10.668   1.131  2.9683  2.1106  1.6597
  653MOL0     H88133  -0.792  10.855   0.915 -2.6841  1.9786 -0.4222
  653MOL0     H88134  -0.937  10.844   0.995 -0.3294 -1.7166  1.4047
  653MOL0     H88135  -0.988  10.803   0.762  0.2586  2.2578  1.6745
  653MOL0     H88136  -1.039  10.671   0.868 -0.8124  2.1035 -0.9835
  653MOL0     H88137  -0.101  10.569   1.346  1.8708 -1.0536  1.2954
  653MOL0     H88138   0.106  10.476   1.408 -1.1146 -2.8687 -0.1923
  653MOL0     H88139   0.500  10.288   1.145  0.3482 -2.6332 -0.8901
  653MOL0     H88140   0.725  10.157   1.152  0.5595 -1.5369  1.4967
  653MOL0     H88141   2.590   9.799   1.478  0.2675 -2.7096 -0.5938
  653MOL0     H88142   2.832   9.764   1.517  2.6425  0.5715 -1.1989
  653MOL0     H88143   3.291   9.886   1.556 -0.1994 -1.3813  0.8393
  653MOL0     H88144   3.545   9.826   1.547  1.7521 -0.9566 -1.9245
  653MOL0     H88145   3.638   9.485   1.302 -0.8101 -0.4883 -2.0864
  653MOL0     H88146   3.688   9.621   1.188  2.6671  2.2586  0.8344
  653MOL0     H88147   3.906   9.633   1.292 -0.8729  1.5114 -0.5060
  653MOL0     H88148   3.884   9.467   1.239  1.2797  1.1308 -1.3860
  653MOL0     H88149   3.821   9.397   1.461  0.8934 -0.5651  0.9129
  653MOL0     H88150   3.855   9.553   1.531 -2.0221 -1.7770  0.8781
  653MOL0     H88151   4.064   9.463   1.561  0.9568 -1.6476 -0.5876
  653MOL0     H88152   4.100   9.528   1.405  1.6942 -1.2626 -1.5870
  653MOL0     H88153   4.097   9.095   1.374  1.8585  0.0008 -0.5483
  653MOL0     H88154   3.449   9.590   1.199  1.6821  1.2509  1.1322
  653MOL0     H88155   3.227   9.655   1.212  1.4091  0.1756 -1.3341
  654MOL0     O88156   0.218   8.197   3.067  0.5732 -0.9108 -0.1389
  654MOL0     C88157   0.273   8.231   2.962  0.2196 -1.1942  0.0643
  654MOL0     O88158   0.245   8.340   2.882 -0.6291  0.4049  0.2899
  654MOL0     C88159   0.136   8.404   2.919  0.5923 -0.4009  0.3846
  654MOL0     C88160   0.130   8.479   3.033 -0.4824  0.5366  0.0151
  654MOL0     C88161   0.018   8.559   3.067 -0.9742  0.4506  0.3854
  654MOL0     C88162  -0.092   8.561   2.972 -0.6256 -0.5983 -0.2624
  654MOL0     O88163  -0.196   8.640   3.010 -0.3104 -0.1144  0.4666
  654MOL0     C88164  -0.283   8.681   2.899  0.1111 -0.6277 -1.1391
  654MOL0     C88165  -0.384   8.799   2.940  0.1759  0.4804  0.0619
  654MOL0     C88166  -0.293   8.921   2.949  0.8728 -0.7513 -0.7905
  654MOL0     C88167  -0.376   9.052   2.964 -0.3320  0.4862  0.1272
  654MOL0     C88168  -0.283   9.179   2.976 -0.0172  0.7820  0.5258
  654MOL0     C88169  -0.367   9.311   2.991 -0.0871  0.2127 -0.0787
  654MOL0     C88170  -0.303   9.432   3.049  0.5234  0.5969 -0.4168
  654MOL0     C88171  -0.409   9.545   3.087 -0.3238  0.5665 -0.5445
  654MOL0     N88172  -0.503   9.569   2.970 -0.3572  0.5344  0.2366
  654MOL0     C88173  -0.468   9.584   2.829  0.6209  0.2904 -0.1465
  654MOL0     C88174  -0.586   9.572   2.762  0.2374  0.0309  0.1593
  654MOL0     C88175  -0.604   9.561   2.612 -0.3610  0.2464 -0.4944
  654MOL0     C88176  -0.628   9.690   2.550  0.1271 -0.6958  0.3532
  654MOL0     C88177  -0.680   9.680   2.407 -0.1279  0.0082 -0.6973
  654MOL0     C88178  -0.771   9.796   2.357  0.3366  0.0255  0.1857
  654MOL0     O88179  -0.811   9.771   2.223  0.4340  0.2298 -0.3148
  654MOL0     C88180  -0.909   9.681   2.211 -0.4571  1.3684 -0.3875
  654MOL0     C88181  -0.886   9.562   2.144  0.1070 -1.0463 -0.9726
  654MOL0     C88182  -0.990   9.463   2.138  0.0861 -0.7650  0.5156
  654MOL0     C88183  -0.943   9.337   2.068 -0.8073 -0.6910  1.4459
  654MOL0     C88184  -1.114   9.482   2.205 -0.0051  0.3073 -0.0943
  654MOL0     C88185  -1.227   9.378   2.185  0.3797  0.9453 -1.3543
  654MOL0     O88186  -1.336   9.388   2.266  0.3772 -0.4552  0.1752
  654MOL0     C88187  -1.452   9.320   2.239 -0.2635 -0.1964  0.1774
  654MOL0     C88188  -1.461   9.182   2.228 -0.0475 -0.4699  0.5893
  654MOL0     C88189  -1.586   9.127   2.196  0.2337 -0.4005  0.2115
  654MOL0     C88190  -1.703   9.206   2.180  0.4953 -0.3198 -0.2159
  654MOL0     O88191  -1.836   9.161   2.157 -0.3707 -0.6385  0.7995
  654MOL0     C88192  -1.876   9.070   2.260  0.6061  0.3031  0.0972
  654MOL0     C88193  -2.009   9.013   2.229 -0.5152 -0.3174 -0.9430
  654MOL0     C88194  -2.115   9.117   2.212 -0.1636 -0.1982  0.6825
  654MOL0     C88195  -2.248   9.048   2.171 -0.2646 -0.6045  0.1480
  654MOL0     C88196  -2.358   9.155   2.167  0.1230 -0.5290 -0.5071
  654MOL0     C88197  -2.490   9.099   2.115  0.2618  0.5146  0.2613
  654MOL0     C88198  -2.597   9.199   2.098  0.1175 -0.6819 -0.0693
  654MOL0     C88199  -2.744   9.150   2.093 -0.8483  0.0331  0.3727
  654MOL0    Cl88200  -2.862   9.290   2.099 -0.4971 -0.0495 -0.4464
  654MOL0     C88201  -1.691   9.345   2.203  1.1340  0.0262  0.2025
  654MOL0     C88202  -1.567   9.403   2.228  0.0052  0.5281  0.5343
  654MOL0     O88203  -1.224   9.295   2.092 -0.3111 -0.4676 -0.3183
  654MOL0     C88204  -1.141   9.601   2.276  0.0878 -0.3594  0.0234
  654MOL0     C88205  -1.033   9.698   2.270  0.2748  0.0568  0.1109
  654MOL0     N88206  -0.692   9.544   2.850  0.1201 -0.3715 -0.4864
  654MOL0     N88207  -0.639   9.532   2.966  0.0724 -0.1996  0.1679
  654MOL0     C88208  -0.077   8.484   2.850 -0.3783  0.2090 -0.9238
  654MOL0     C88209   0.028   8.408   2.827 -0.2607 -0.4266  0.1149
  654MOL0     C88210   0.382   8.143   2.913  0.3605  0.2055 -0.4763
  654MOL0     C88211   0.395   8.086   2.790 -0.1228 -0.7347  0.2194
  654MOL0     C88212   0.506   8.004   2.759 -0.1342  0.0127 -0.5962
  654MOL0     C88213   0.612   7.996   2.853 -0.4382 -0.0005 -0.6157
  654MOL0     O88214   0.723   7.930   2.809  0.0865  0.4031 -0.0219
  654MOL0     C88215   0.833   7.905   2.903 -0.0097  0.6466 -0.0401
  654MOL0     C88216   0.945   7.810   2.855  0.0294 -0.5103  0.3369
  654MOL0     C88217   1.015   7.851   2.723 -0.6236 -0.2238 -0.0300
  654MOL0     C88218   1.085   7.727   2.651  0.2474  0.2255  0.2960
  654MOL0     C88219   1.145   7.633   2.748 -0.2786  0.2635 -0.0163
  654MOL0     C88220   1.201   7.552   2.819 -0.0564 -0.1126 -0.1385
  654MOL0     C88221   0.593   8.052   2.983 -1.1235 -0.1059 -0.2622
  654MOL0     C88222   0.480   8.122   3.009 -0.0069 -0.1322 -0.0285
  654MOL0     H88223   0.209   8.473   3.107  0.8152  0.7941 -1.3164
  654MOL0     H88224   0.019   8.616   3.159  1.0448  0.3638  0.4619
  654MOL0     H88225  -0.223   8.707   2.811  1.2302 -0.8731 -0.4777
  654MOL0     H88226  -0.350   8.600   2.870 -0.7167 -0.9075  1.3372
  654MOL0     H88227  -0.460   8.810   2.862  0.7690 -0.2284 -0.6276
  654MOL0     H88228  -0.435   8.775   3.034  0.6868 -0.9391 -0.0135
  654MOL0     H88229  -0.231   8.908   3.038  1.2719  3.0626 -0.3537
  654MOL0     H88230  -0.229   8.941   2.863  0.2589  0.0754 -1.0658
  654MOL0     H88231  -0.439   9.060   2.875  0.8944 -2.6319 -1.1478
  654MOL0     H88232  -0.437   9.044   3.055  2.4768  0.2373  2.1035
  654MOL0     H88233  -0.219   9.159   3.063  1.3764  1.2579 -0.3517
  654MOL0     H88234  -0.213   9.188   2.893 -0.5597  0.5128  0.0361
  654MOL0     H88235  -0.392   9.334   2.887  2.8180  0.0625 -0.9035
  654MOL0     H88236  -0.461   9.292   3.042  0.0444  1.2475  0.5816
  654MOL0     H88237  -0.245   9.406   3.138  0.0982 -3.1211 -1.0591
  654MOL0     H88238  -0.234   9.469   2.972  1.0666 -0.3039 -0.3719
  654MOL0     H88239  -0.352   9.627   3.132 -0.3773 -0.9219  2.4913
  654MOL0     H88240  -0.476   9.517   3.169 -0.2526  0.4974 -0.5100
  654MOL0     H88241  -0.368   9.598   2.789  0.5231  1.6200  0.0344
  654MOL0     H88242  -0.510   9.528   2.566  0.9138  2.4979  0.3491
  654MOL0     H88243  -0.685   9.491   2.590 -0.5146 -0.0941  0.9988
  654MOL0     H88244  -0.533   9.744   2.554 -0.1997 -0.1985  2.6209
  654MOL0     H88245  -0.695   9.745   2.616  0.4038 -0.0177  0.0753
  654MOL0     H88246  -0.747   9.594   2.401 -2.4493  1.6003  0.8825
  654MOL0     H88247  -0.597   9.677   2.336  1.0641  1.1176  0.5943
  654MOL0     H88248  -0.714   9.889   2.364 -0.1694  0.2865  0.9418
  654MOL0     H88249  -0.860   9.824   2.414 -1.8026 -0.6026 -2.5869
  654MOL0     H88250  -0.797   9.563   2.081  0.8714  2.0791 -0.0061
  654MOL0     H88251  -0.838   9.342   2.039 -1.0636 -2.2894  0.1271
  654MOL0     H88252  -0.942   9.260   2.145 -0.6948 -3.8955 -1.5282
  654MOL0     H88253  -1.012   9.310   1.988  0.7324  1.9451 -0.9695
  654MOL0     H88254  -1.371   9.120   2.228  2.1307  2.4194 -1.7326
  654MOL0     H88255  -1.610   9.022   2.182 -0.5578 -0.1365 -0.5669
  654MOL0     H88256  -1.812   8.981   2.258 -1.6080 -1.3459 -0.7090
  654MOL0     H88257  -1.868   9.115   2.359  2.0259  0.4922 -0.0830
  654MOL0     H88258  -2.008   8.952   2.139 -2.4627 -2.1608  0.1872
  654MOL0     H88259  -2.042   8.949   2.311  2.6743 -0.9875 -0.0281
  654MOL0     H88260  -2.088   9.198   2.144 -0.0109  0.7775  1.8517
  654MOL0     H88261  -2.134   9.170   2.306 -2.3293  1.3874 -0.5643
  654MOL0     H88262  -2.239   8.997   2.074 -0.4218  0.7472 -0.6078
  654MOL0     H88263  -2.274   8.973   2.247 -0.8171 -0.4556  0.1089
  654MOL0     H88264  -2.335   9.235   2.097  0.6754  1.4607  1.8370
  654MOL0     H88265  -2.372   9.197   2.266  0.4868  1.6469 -1.3375
  654MOL0     H88266  -2.482   9.033   2.029  2.1136  0.3072  0.5521
  654MOL0     H88267  -2.529   9.033   2.193  2.2914  0.4022  1.2426
  654MOL0     H88268  -2.565   9.256   2.010  0.3838 -1.0338 -0.2009
  654MOL0     H88269  -2.588   9.265   2.185  1.9934 -3.2676  1.8898
  654MOL0     H88270  -2.764   9.085   2.179  1.0785 -1.6378 -0.3739
  654MOL0     H88271  -2.762   9.086   2.007 -0.7135  0.3236  0.1250
  654MOL0     H88272  -1.785   9.398   2.195  0.0996 -2.0392 -2.4710
  654MOL0     H88273  -1.554   9.508   2.252 -0.4261  0.0644  2.9701
  654MOL0     H88274  -1.238   9.624   2.319  1.3915  1.4939  2.2374
  654MOL0     H88275  -1.047   9.793   2.321 -1.6231 -0.7581  1.2009
  654MOL0     H88276  -0.156   8.492   2.776 -0.6631  0.3944 -0.6014
  654MOL0     H88277   0.034   8.363   2.729  1.7578 -2.0493  0.9073
  654MOL0     H88278   0.318   8.087   2.713  2.6006 -3.1395 -2.8234
  654MOL0     H88279   0.503   7.959   2.661 -0.8686 -0.0971 -0.5287
  654MOL0     H88280   0.879   7.998   2.938 -1.4555 -0.0085  4.1674
  654MOL0     H88281   0.774   7.870   2.988 -1.9433  1.2370 -1.0903
  654MOL0     H88282   0.905   7.708   2.851  0.2000 -0.7703  2.9987
  654MOL0     H88283   1.008   7.821   2.944 -0.7620  0.4483  0.8007
  654MOL0     H88284   1.095   7.922   2.746  0.6082 -1.1184 -1.3905
  654MOL0     H88285   0.942   7.901   2.660 -1.2926 -2.4626 -1.1468
  654MOL0     H88286   1.161   7.770   2.586  0.0380  2.2686  1.3258
  654MOL0     H88287   1.016   7.672   2.587  1.3969  0.2751 -1.0296
  654MOL0     H88288   1.256   7.490   2.887  1.4853 -0.0632 -1.2926
  654MOL0     H88289   0.657   8.020   3.065  1.8235  1.3438 -1.8089
  654MOL0     H88290   0.486   8.151   3.113 -2.7590 -0.1983  0.2095
  655MOL0     O88291   1.366   6.996   8.221  0.6659 -0.6352  0.0940
  655MOL0     C88292   1.462   7.052   8.176  0.8859 -0.3930  0.4171
  655MOL0     O88293   1.454   7.167   8.102  0.9154 -0.4167 -0.1685
  655MOL0     C88294   1.328   7.224   8.068  0.2759  0.3128  1.5520
  655MOL0     C88295   1.284   7.348   8.116  0.5688 -0.7676 -0.0149
  655MOL0     C88296   1.164   7.394   8.083  0.4274 -0.6154 -0.2916
  655MOL0     C88297   1.079   7.318   7.997  0.3275 -0.1276  0.0741
  655MOL0     O88298   0.958   7.358   7.963 -0.1526 -0.0045  0.5636
  655MOL0     C88299   0.866   7.378   8.066 -0.1004 -0.1169 -0.6368
  655MOL0     C88300   0.741   7.423   7.993 -0.3887 -0.0758  0.0632
  655MOL0     C88301   0.639   7.452   8.095 -0.0133 -0.4980  0.1731
  655MOL0     C88302   0.504   7.516   8.049  0.0564  0.8266 -0.1574
  655MOL0     C88303   0.412   7.536   8.164  0.1434  0.3973  0.4474
  655MOL0     C88304   0.303   7.640   8.126  0.2787 -0.0638  0.1036
  655MOL0     C88305   0.187   7.657   8.231 -0.1642 -0.4805  0.7977
  655MOL0     C88306   0.218   7.742   8.353  0.2440 -0.1804  0.1304
  655MOL0     N88307   0.104   7.726   8.439 -0.3983  0.7310 -0.6207
  655MOL0     C88308   0.001   7.815   8.455 -0.9110  0.1983 -0.6138
  655MOL0     C88309  -0.076   7.766   8.563 -0.9635 -0.0723  0.1816
  655MOL0     C88310  -0.213   7.813   8.610  0.9017 -0.4571 -0.2469
  655MOL0     C88311  -0.329   7.795   8.512  0.5037 -0.7115 -0.0537
  655MOL0     C88312  -0.348   7.915   8.425 -0.4004  0.1381  0.1740
  655MOL0     C88313  -0.390   8.054   8.486  0.5457 -0.3136 -0.3163
  655MOL0     O88314  -0.484   8.044   8.582  0.6976 -0.1794 -0.7800
  655MOL0     C88315  -0.622   8.036   8.561 -0.3933 -0.2466  0.1886
  655MOL0     C88316  -0.684   8.032   8.432 -0.2022 -0.0513  0.5457
  655MOL0     C88317  -0.823   8.023   8.414  0.1538 -1.1463 -0.0674
  655MOL0     C88318  -0.864   7.994   8.271 -0.2209 -0.5171 -0.2299
  655MOL0     C88319  -0.902   8.018   8.529  0.1188  0.0509  0.4010
  655MOL0     C88320  -1.046   7.987   8.523  0.2414  0.4131  0.2241
  655MOL0     O88321  -1.092   7.944   8.641 -0.2652 -0.1414  0.0564
  655MOL0     C88322  -1.224   7.929   8.659  0.5648  0.2340 -0.5376
  655MOL0     C88323  -1.285   7.802   8.660  0.5682 -0.9044  0.1977
  655MOL0     C88324  -1.425   7.791   8.673  0.9086 -0.3389 -0.3360
  655MOL0     C88325  -1.503   7.906   8.703  0.5037 -0.5651 -0.8135
  655MOL0     O88326  -1.642   7.921   8.731 -0.2952 -0.3228  0.1946
  655MOL0     C88327  -1.727   7.814   8.691  0.0337 -0.4511 -0.6093
  655MOL0     C88328  -1.844   7.821   8.777 -0.1891  0.0821 -0.0230
  655MOL0     C88329  -1.966   7.742   8.716 -0.0010 -0.4447 -0.4663
  655MOL0     C88330  -2.073   7.751   8.833  0.2558 -0.2382 -0.3584
  655MOL0     C88331  -2.191   7.663   8.791 -0.5438  0.3270  0.3496
  655MOL0     C88332  -2.302   7.658   8.891  0.6726 -0.0636 -1.0288
  655MOL0     C88333  -2.427   7.571   8.840  0.6853  0.2278 -0.4210
  655MOL0     C88334  -2.533   7.538   8.947 -0.1414 -0.4635 -0.1483
  655MOL0    Cl88335  -2.682   7.538   8.863 -0.1569  0.1465  0.1640
  655MOL0     C88336  -1.438   8.026   8.705  0.1081 -0.4451  0.3108
  655MOL0     C88337  -1.298   8.041   8.686  1.4689 -0.0773 -0.2270
  655MOL0     O88338  -1.117   8.012   8.426  0.5237  0.1570 -0.0940
  655MOL0     C88339  -0.843   8.051   8.655 -0.4048 -0.2180  0.5551
  655MOL0     C88340  -0.703   8.058   8.666 -0.9081  0.2129 -0.3516
  655MOL0     N88341  -0.025   7.637   8.584  0.6155  0.4511  0.3854
  655MOL0     N88342   0.089   7.622   8.528 -0.1780 -0.1185  0.1353
  655MOL0     C88343   1.120   7.206   7.930 -0.5035  1.3170  0.8796
  655MOL0     C88344   1.251   7.160   7.972  0.0664  0.2693 -0.2037
  655MOL0     C88345   1.591   6.992   8.201 -0.3123  0.3288 -0.4781
  655MOL0     C88346   1.606   6.869   8.265 -0.5626  0.0607 -0.0993
  655MOL0     C88347   1.729   6.817   8.300 -0.5623 -0.3298 -0.9182
  655MOL0     C88348   1.844   6.889   8.279 -0.2682  0.1652  0.8147
  655MOL0     O88349   1.957   6.836   8.347 -0.1384  0.2675  0.5356
  655MOL0     C88350   2.084   6.865   8.284  0.2066  0.0979 -0.0124
  655MOL0     C88351   2.201   6.788   8.352 -0.9785 -0.1739 -0.3484
  655MOL0     C88352   2.328   6.831   8.281 -0.1441  1.3200 -0.3198
  655MOL0     C88353   2.451   6.761   8.332 -0.2890  0.9301 -0.3210
  655MOL0     C88354   2.584   6.806   8.283 -0.5626  0.7424 -0.1247
  655MOL0     C88355   2.697   6.836   8.245 -0.5544 -0.3386  0.6316
  655MOL0     C88356   1.837   7.014   8.219 -0.0455 -0.1914 -0.6973
  655MOL0     C88357   1.714   7.057   8.171  0.3249 -0.3702  0.8734
  655MOL0     H88358   1.340   7.383   8.202 -0.3034 -2.5019  1.3426
  655MOL0     H88359   1.120   7.486   8.120  1.5927  0.2307 -0.9168
  655MOL0     H88360   0.833   7.287   8.116  0.6208 -0.9751 -1.6915
  655MOL0     H88361   0.900   7.452   8.139 -0.4499 -1.1017  0.5466
  655MOL0     H88362   0.764   7.510   7.930  1.3133 -0.5510 -0.0303
  655MOL0     H88363   0.712   7.339   7.931  0.8153 -0.1400 -0.4526
  655MOL0     H88364   0.612   7.357   8.144 -1.1962 -0.9538 -1.2917
  655MOL0     H88365   0.678   7.511   8.178  1.1911 -0.6438 -0.2804
  655MOL0     H88366   0.515   7.611   7.996  3.4016  0.6578  0.0403
  655MOL0     H88367   0.457   7.450   7.976  1.9318  0.2894 -0.9436
  655MOL0     H88368   0.361   7.443   8.193 -0.7283  0.5049 -0.6306
  655MOL0     H88369   0.471   7.581   8.244  3.2416 -3.0863  0.3657
  655MOL0     H88370   0.352   7.736   8.108  0.9281  0.2384  2.9276
  655MOL0     H88371   0.253   7.617   8.031  0.1697 -0.2487  0.2045
  655MOL0     H88372   0.118   7.709   8.164  3.7845  1.0718 -2.4608
  655MOL0     H88373   0.151   7.556   8.248  1.3065 -1.3278 -0.8557
  655MOL0     H88374   0.234   7.845   8.321 -2.5472  0.0127 -0.9095
  655MOL0     H88375   0.303   7.694   8.403  0.7187 -0.4066 -0.8805
  655MOL0     H88376  -0.015   7.903   8.394 -0.4851  0.2371 -0.6689
  655MOL0     H88377  -0.237   7.758   8.701 -1.2175 -1.1273 -1.1423
  655MOL0     H88378  -0.198   7.917   8.641  2.5466 -0.7295 -0.0277
  655MOL0     H88379  -0.421   7.786   8.570  0.9135  0.1811  0.7674
  655MOL0     H88380  -0.316   7.708   8.447  1.8565  0.4065 -1.3532
  655MOL0     H88381  -0.427   7.892   8.353  0.6528 -1.4708 -0.5099
  655MOL0     H88382  -0.250   7.927   8.377  0.4474 -0.4114  1.6956
  655MOL0     H88383  -0.414   8.117   8.399  0.4194  1.0928  0.7103
  655MOL0     H88384  -0.302   8.095   8.535  0.3797  0.7550 -0.8872
  655MOL0     H88385  -0.628   8.045   8.340  0.6029 -0.5177  0.9584
  655MOL0     H88386  -0.962   7.948   8.256 -0.1581 -0.0420 -2.5010
  655MOL0     H88387  -0.855   8.080   8.204  0.3684 -0.5330 -0.1820
  655MOL0     H88388  -0.790   7.924   8.229  0.5634 -0.4920  1.0678
  655MOL0     H88389  -1.221   7.716   8.646  0.5313 -1.0046  0.6287
  655MOL0     H88390  -1.481   7.698   8.671  0.5182 -0.1416  0.7312
  655MOL0     H88391  -1.748   7.801   8.584  0.0361 -3.2166 -0.3646
  655MOL0     H88392  -1.683   7.722   8.730 -0.6214 -0.3710  0.3591
  655MOL0     H88393  -1.827   7.789   8.880 -2.5658  1.4373  0.8790
  655MOL0     H88394  -1.875   7.925   8.772  1.9299  0.8334  1.3551
  655MOL0     H88395  -1.941   7.636   8.703 -3.8633 -1.7214  1.0344
  655MOL0     H88396  -1.994   7.786   8.620  0.7530 -3.5864 -2.2773
  655MOL0     H88397  -2.032   7.705   8.923  0.9186 -1.9721 -1.4966
  655MOL0     H88398  -2.088   7.858   8.848  2.6878  0.4607 -2.3884
  655MOL0     H88399  -2.157   7.560   8.773  1.0613  0.6758  1.1683
  655MOL0     H88400  -2.232   7.713   8.704 -0.1416  1.6904  0.9155
  655MOL0     H88401  -2.272   7.604   8.982 -3.1683 -1.4422 -0.3901
  655MOL0     H88402  -2.335   7.756   8.924  1.6192  0.1161 -0.5975
  655MOL0     H88403  -2.406   7.478   8.788 -0.5719 -0.2944 -0.0456
  655MOL0     H88404  -2.480   7.626   8.762 -1.3938 -1.6042 -0.3988
  655MOL0     H88405  -2.530   7.608   9.031 -1.9551  0.3572 -0.7299
  655MOL0     H88406  -2.515   7.437   8.983 -0.3017 -0.0307  1.2162
  655MOL0     H88407  -1.503   8.110   8.725 -2.1048 -1.2136 -2.8530
  655MOL0     H88408  -1.256   8.140   8.700  1.0403 -0.3914  6.6422
  655MOL0     H88409  -0.903   8.071   8.743  1.3850  1.1166  1.5263
  655MOL0     H88410  -0.672   8.077   8.769 -1.8701  0.8583 -0.1719
  655MOL0     H88411   1.068   7.146   7.856 -1.1199  0.1638  2.1883
  655MOL0     H88412   1.287   7.063   7.940 -0.5251  0.0997 -0.3704
  655MOL0     H88413   1.515   6.810   8.275  0.0392 -1.0135 -0.7292
  655MOL0     H88414   1.736   6.723   8.353  1.7640 -0.6236 -1.6472
  655MOL0     H88415   2.079   6.835   8.179 -1.6975  0.2622 -0.0060
  655MOL0     H88416   2.110   6.971   8.283  0.8790 -0.0546 -1.7015
  655MOL0     H88417   2.190   6.682   8.328  0.7104  0.3123 -4.1255
  655MOL0     H88418   2.202   6.798   8.460 -1.0027 -0.1177 -0.3540
  655MOL0     H88419   2.330   6.940   8.285 -0.1665  1.3040  0.2519
  655MOL0     H88420   2.329   6.796   8.177 -0.3739 -1.7627  0.5972
  655MOL0     H88421   2.429   6.658   8.303 -1.7081  1.6748 -2.0228
  655MOL0     H88422   2.455   6.771   8.441 -1.5558  1.5064 -0.3079
  655MOL0     H88423   2.794   6.866   8.209 -1.5024 -0.4548 -2.2866
  655MOL0     H88424   1.917   7.086   8.203  1.4188 -1.1555  1.6801
  655MOL0     H88425   1.710   7.154   8.122 -0.1226 -1.2417 -0.8941
  656MOL0     O88426   2.028   0.449   3.637  0.4272 -0.0040 -0.2768
  656MOL0     C88427   2.103   0.375   3.699 -0.3358 -0.5169  0.4395
  656MOL0     O88428   2.074   0.303   3.809 -0.1898 -0.4937 -0.2939
  656MOL0     C88429   1.937   0.301   3.847 -0.7713  1.0255  0.9523
  656MOL0     C88430   1.854   0.198   3.794  0.5805 -0.7898 -0.6057
  656MOL0     C88431   1.723   0.194   3.833 -0.0730 -0.0818  0.1518
  656MOL0     C88432   1.672   0.280   3.930 -0.1048 -0.7510 -0.0962
  656MOL0     O88433   1.531   0.288   3.961  0.3019 -0.7277 -1.0144
  656MOL0     C88434   1.438   0.215   3.877 -0.1823  0.0461  0.2898
  656MOL0     C88435   1.295   0.243   3.936  0.0094  0.1305 -0.0139
  656MOL0     C88436   1.180   0.158   3.889 -0.0525  1.0186 -0.6042
  656MOL0     C88437   1.049   0.203   3.957  0.3188  0.2093 -0.2072
  656MOL0     C88438   1.003   0.340   3.910  0.0868  0.5450  0.5309
  656MOL0     C88439   0.843   0.336   3.905 -1.3810  0.0544 -0.0882
  656MOL0     C88440   0.795   0.475   3.899 -0.4465  0.0770 -0.4315
  656MOL0     C88441   0.665   0.486   3.815  0.3122  0.5806 -0.0374
  656MOL0     N88442   0.545   0.437   3.874  0.6890 -0.0878  0.0064
  656MOL0     C88443   0.420   0.444   3.821  0.3408  0.8947 -0.0739
  656MOL0     C88444   0.339   0.372   3.894  0.2893 -0.7230 -0.3901
  656MOL0     C88445   0.191   0.357   3.861 -0.6833 -0.7687  0.5243
  656MOL0     C88446   0.108   0.315   3.992 -0.0489 -0.0709  0.4199
  656MOL0     C88447  -0.043   0.306   3.953  0.4581 -0.1865 -0.5441
  656MOL0     C88448  -0.130   0.285   4.077  0.5203  0.6331  0.7023
  656MOL0     O88449  -0.273   0.284   4.048  0.1264 -0.5256  0.1902
  656MOL0     C88450  -0.369   0.236   4.133 -1.2667 -0.3945  0.1051
  656MOL0     C88451  -0.349   0.216   4.270 -0.0854  1.3523  0.1314
  656MOL0     C88452  -0.449   0.170   4.352  0.2740 -0.8759  0.1059
  656MOL0     C88453  -0.422   0.167   4.499 -0.5888 -0.3871  0.3607
  656MOL0     C88454  -0.573   0.150   4.294 -0.2102  0.3864  0.7825
  656MOL0     C88455  -0.691   0.109   4.366 -0.2054  0.5194 -0.9204
  656MOL0     O88456  -0.660   0.011   4.453  0.4718 -0.0364 -0.4166
  656MOL0     C88457  -0.751  -0.027   4.551  0.4539  0.6744  0.0332
  656MOL0     C88458  -0.866  -0.096   4.521  0.6590  0.8590 -1.1087
  656MOL0     C88459  -0.959  -0.122   4.629 -0.0573 -0.1950 -0.1481
  656MOL0     C88460  -0.939  -0.075   4.754  0.2600  0.1128 -1.2600
  656MOL0     O88461  -1.027  -0.103   4.861 -0.0302  0.0987  0.6755
  656MOL0     C88462  -1.087  -0.235   4.874  0.4715  0.4154  0.4893
  656MOL0     C88463  -1.154  -0.240   5.014 -0.3270  1.0071  0.4535
  656MOL0     C88464  -1.261  -0.143   5.017  0.8388  0.1672  0.3313
  656MOL0     C88465  -1.355  -0.169   5.132  0.6111 -0.1406 -0.5522
  656MOL0     C88466  -1.450  -0.051   5.148  0.2341 -0.4013  0.0977
  656MOL0     C88467  -1.575  -0.101   5.219 -0.8753 -0.1681 -0.5638
  656MOL0     C88468  -1.541  -0.160   5.362  0.0782  1.1747  0.1157
  656MOL0     C88469  -1.649  -0.164   5.462  0.0069  1.0449  0.1047
  656MOL0    Cl88470  -1.807  -0.234   5.392  0.2785  0.1375 -0.1821
  656MOL0     C88471  -0.835   0.008   4.772  0.1464  0.0533 -0.5608
  656MOL0     C88472  -0.738   0.030   4.679 -0.1008 -0.0187  0.1938
  656MOL0     O88473  -0.804   0.151   4.339  0.3128 -0.6639  0.0715
  656MOL0     C88474  -0.602   0.161   4.160 -0.6299 -0.2263  0.3714
  656MOL0     C88475  -0.493   0.206   4.073  0.2975  1.0694  0.5067
  656MOL0     N88476   0.414   0.318   3.999  0.8995  0.2119  1.0064
  656MOL0     N88477   0.541   0.357   3.982  0.7297 -1.6134 -0.7012
  656MOL0     C88478   1.760   0.379   3.985  0.6043 -0.2899  0.0590
  656MOL0     C88479   1.890   0.390   3.943  0.0119 -0.2962  0.2200
  656MOL0     C88480   2.244   0.376   3.648 -0.7097  0.2464  0.7666
  656MOL0     C88481   2.341   0.285   3.691  0.0927 -0.3669 -0.8313
  656MOL0     C88482   2.481   0.295   3.645 -0.1922 -0.2891 -0.0516
  656MOL0     C88483   2.521   0.397   3.568 -0.3048  0.0091  0.8762
  656MOL0     O88484   2.653   0.414   3.530  0.2578  0.1047 -0.5022
  656MOL0     C88485   2.735   0.299   3.487 -0.0021  0.1526  0.8500
  656MOL0     C88486   2.853   0.278   3.590 -0.3779 -0.6616  0.2694
  656MOL0     C88487   2.973   0.358   3.525  0.0963 -0.0984  0.7808
  656MOL0     C88488   3.110   0.314   3.576 -0.4984  0.6597 -0.0584
  656MOL0     C88489   3.122   0.167   3.557  0.1838 -0.0858  0.0075
  656MOL0     C88490   3.157   0.052   3.559  0.3887 -0.5023  0.5881
  656MOL0     C88491   2.426   0.494   3.523  0.5543 -0.4259 -0.8884
  656MOL0     C88492   2.288   0.478   3.559 -0.2788  0.0747  0.2123
  656MOL0     H88493   1.889   0.121   3.726  3.1738  0.0739 -0.3747
  656MOL0     H88494   1.652   0.125   3.788  0.9152 -0.4131 -0.9348
  656MOL0     H88495   1.435   0.244   3.772 -0.1176 -1.5535 -0.1848
  656MOL0     H88496   1.450   0.106   3.886  2.0569 -0.0345 -2.3192
  656MOL0     H88497   1.296   0.226   4.044  2.3908  3.7626  0.7148
  656MOL0     H88498   1.274   0.351   3.931 -2.5416 -0.1710  1.8594
  656MOL0     H88499   1.173   0.164   3.780 -0.0602  1.2928 -0.5891
  656MOL0     H88500   1.212   0.057   3.915  0.5134  1.5683  0.9592
  656MOL0     H88501   0.971   0.125   3.956  0.0546  0.4637  0.4739
  656MOL0     H88502   1.077   0.222   4.061 -0.9218 -0.3952  0.2596
  656MOL0     H88503   1.050   0.421   3.966  2.5391 -1.3815  1.4671
  656MOL0     H88504   1.037   0.345   3.806 -1.2759 -1.8091 -0.0972
  656MOL0     H88505   0.819   0.278   3.815  0.8644 -1.4363  0.1787
  656MOL0     H88506   0.804   0.287   3.994 -0.4460  0.4328  0.5523
  656MOL0     H88507   0.769   0.500   4.002  3.1236 -2.6012  1.3209
  656MOL0     H88508   0.869   0.545   3.859 -0.3957  0.2208 -0.0891
  656MOL0     H88509   0.673   0.433   3.720  0.8240  1.5701 -0.5595
  656MOL0     H88510   0.642   0.590   3.793  1.0625  0.6300 -0.6207
  656MOL0     H88511   0.387   0.501   3.734 -1.2243  1.8449  1.0813
  656MOL0     H88512   0.160   0.453   3.819 -1.6971 -2.3455 -2.6197
  656MOL0     H88513   0.182   0.283   3.782 -0.7655 -0.4735  0.2546
  656MOL0     H88514   0.127   0.383   4.075 -0.8338 -0.8074  1.2258
  656MOL0     H88515   0.144   0.216   4.023  0.9857  0.4978  1.0798
  656MOL0     H88516  -0.070   0.228   3.882  0.6224  1.0638 -2.0224
  656MOL0     H88517  -0.074   0.393   3.894  0.0195  0.6482  0.8566
  656MOL0     H88518  -0.105   0.365   4.148  4.1356 -0.3891  0.7455
  656MOL0     H88519  -0.101   0.188   4.118 -0.6665  0.1432  0.4119
  656MOL0     H88520  -0.253   0.240   4.316 -0.4712  2.1982  0.5049
  656MOL0     H88521  -0.318   0.191   4.519 -0.1012 -0.1090 -2.1254
  656MOL0     H88522  -0.487   0.241   4.548 -1.8518  1.1464 -3.2578
  656MOL0     H88523  -0.438   0.073   4.553  1.0303 -0.2299  1.1469
  656MOL0     H88524  -0.883  -0.124   4.417  2.3656 -1.4576 -0.8453
  656MOL0     H88525  -1.048  -0.181   4.605  0.4899 -0.8244 -0.6732
  656MOL0     H88526  -1.166  -0.256   4.802 -0.4317 -0.2935  1.6496
  656MOL0     H88527  -1.010  -0.312   4.881  0.2141  0.2732  2.3334
  656MOL0     H88528  -1.193  -0.342   5.025 -0.7266  1.2389  1.2812
  656MOL0     H88529  -1.079  -0.219   5.091 -0.0738 -1.0703  0.8519
  656MOL0     H88530  -1.314  -0.150   4.921  0.9191 -1.1291  0.3728
  656MOL0     H88531  -1.222  -0.041   5.025 -0.6323  0.8481 -0.6978
  656MOL0     H88532  -1.415  -0.261   5.124  0.2503 -0.0498  0.8829
  656MOL0     H88533  -1.303  -0.187   5.227  0.4431 -1.2702 -0.6501
  656MOL0     H88534  -1.478  -0.011   5.050  2.5747  1.6868  0.1797
  656MOL0     H88535  -1.398   0.027   5.205  0.7236  0.0466 -0.9231
  656MOL0     H88536  -1.654  -0.027   5.233  0.3548  1.1717 -0.4335
  656MOL0     H88537  -1.626  -0.180   5.164 -1.8738 -0.6390  0.9542
  656MOL0     H88538  -1.456  -0.103   5.402 -0.8514  2.9647 -0.3492
  656MOL0     H88539  -1.509  -0.263   5.346 -1.9067  0.8463 -2.4165
  656MOL0     H88540  -1.665  -0.062   5.499  0.4939  1.3334 -0.4715
  656MOL0     H88541  -1.629  -0.228   5.548  1.6766  1.3755  0.0061
  656MOL0     H88542  -0.826   0.056   4.870  1.7058  0.5198 -0.9001
  656MOL0     H88543  -0.648   0.082   4.710 -0.4582  1.6501 -1.3626
  656MOL0     H88544  -0.688   0.128   4.103  0.4110 -0.0751 -1.3567
  656MOL0     H88545  -0.503   0.225   3.966 -2.1526 -0.3288  0.4233
  656MOL0     H88546   1.725   0.448   4.062 -2.5278  0.8486 -2.1870
  656MOL0     H88547   1.958   0.453   4.000 -0.2088 -1.1417  1.4526
  656MOL0     H88548   2.315   0.200   3.752 -1.3337 -0.1294 -1.0854
  656MOL0     H88549   2.548   0.220   3.685 -1.1780  0.0060  2.3095
  656MOL0     H88550   2.684   0.202   3.479  1.8942 -0.7390 -2.5674
  656MOL0     H88551   2.767   0.320   3.384 -1.1485 -2.6315 -0.1732
  656MOL0     H88552   2.879   0.175   3.616 -0.6556 -0.3625  1.8476
  656MOL0     H88553   2.822   0.323   3.685 -0.6839  0.4704 -0.3464
  656MOL0     H88554   2.964   0.465   3.547  0.0913 -0.4029  2.3822
  656MOL0     H88555   2.980   0.337   3.418  1.0196  2.0388  0.3671
  656MOL0     H88556   3.104   0.343   3.682 -1.7247  5.3021 -1.1619
  656MOL0     H88557   3.199   0.365   3.538 -0.2062 -1.2714 -2.1328
  656MOL0     H88558   3.193  -0.049   3.551  3.1961  0.3575  1.3936
  656MOL0     H88559   2.462   0.569   3.452  0.0919 -2.0470 -2.9389
  656MOL0     H88560   2.219   0.558   3.533  0.4583  0.9279  0.7909
  657MOL0     O88561   7.719  10.282   0.597 -0.0345 -0.5048  0.3418
  657MOL0     C88562   7.832  10.244   0.574 -1.2259  1.1309 -0.1973
  657MOL0     O88563   7.877  10.121   0.547 -0.0996  0.8433 -0.3521
  657MOL0     C88564   7.788  10.025   0.523 -0.1438  0.6957 -1.2667
  657MOL0     C88565   7.772   9.924   0.622  0.4941  0.1007 -1.0258
  657MOL0     C88566   7.663   9.841   0.610 -0.0561  0.7281 -0.1476
  657MOL0     C88567   7.573   9.847   0.497  0.4002 -0.3491  0.2486
  657MOL0     O88568   7.484   9.743   0.491  0.4287 -0.2532 -0.4740
  657MOL0     C88569   7.386   9.733   0.387 -0.0815 -0.7999  0.2781
  657MOL0     C88570   7.262   9.825   0.417  0.9550  0.0354 -1.2094
  657MOL0     C88571   7.182   9.844   0.284 -0.4226 -0.1343  0.4840
  657MOL0     C88572   7.057   9.935   0.294 -0.0189 -0.3771  1.4330
  657MOL0     C88573   6.973   9.905   0.416 -0.1619  0.0273  0.1185
  657MOL0     C88574   6.844   9.975   0.392  0.1540 -0.3087  0.7512
  657MOL0     C88575   6.751   9.989   0.516 -0.2825 -0.3133  0.5569
  657MOL0     C88576   6.634  10.081   0.461  0.4184 -0.1444 -1.1060
  657MOL0     N88577   6.523  10.074   0.562  0.1014 -0.5097  0.0846
  657MOL0     C88578   6.450   9.965   0.586  0.3422  0.3406 -0.1320
  657MOL0     C88579   6.377   9.999   0.695  0.2959  0.1545  0.1501
  657MOL0     C88580   6.283   9.903   0.759  1.0403  0.9593  0.2044
  657MOL0     C88581   6.151   9.952   0.824 -0.5322 -0.4410 -0.2847
  657MOL0     C88582   6.046   9.999   0.727  0.2538  0.7803  1.0720
  657MOL0     C88583   5.909  10.016   0.792  0.0132  0.6589 -0.5849
  657MOL0     O88584   5.806  10.055   0.697 -0.0845 -0.4535  0.4940
  657MOL0     C88585   5.690  10.115   0.747  0.0821  0.1844 -0.1128
  657MOL0     C88586   5.618  10.192   0.657  0.1398  0.4964 -0.1903
  657MOL0     C88587   5.503  10.253   0.694  0.0701  0.0484 -0.6283
  657MOL0     C88588   5.441  10.353   0.596  0.2300  0.5118  0.8777
  657MOL0     C88589   5.446  10.231   0.826  0.5120 -0.0370  0.0854
  657MOL0     C88590   5.306  10.274   0.868 -0.1557 -0.1480 -0.8668
  657MOL0     O88591   5.282  10.277   1.008  0.0742 -0.2204  0.0383
  657MOL0     C88592   5.145  10.288   1.051 -1.2249 -0.3524 -0.4704
  657MOL0     C88593   5.111  10.205   1.158 -0.3179 -0.6172  0.5120
  657MOL0     C88594   4.990  10.224   1.219 -0.2369  0.1625 -0.9449
  657MOL0     C88595   4.895  10.316   1.169  0.4476 -1.1544 -0.0223
  657MOL0     O88596   4.772  10.326   1.223 -0.4236 -0.6146  0.1828
  657MOL0     C88597   4.722  10.217   1.305  0.3953 -0.8971 -0.0145
  657MOL0     C88598   4.569  10.232   1.301 -0.3488  0.0945 -0.9980
  657MOL0     C88599   4.526  10.217   1.150  0.2372  0.4331 -1.0061
  657MOL0     C88600   4.376  10.196   1.134  0.2219 -0.8287  0.0329
  657MOL0     C88601   4.297  10.323   1.159  0.4122  0.1809 -0.8982
  657MOL0     C88602   4.156  10.327   1.112  0.7387  0.6598 -0.2454
  657MOL0     C88603   4.065  10.228   1.196  0.2784 -0.4093 -0.2222
  657MOL0     C88604   3.910  10.257   1.172 -1.2103 -0.8427  0.2765
  657MOL0    Cl88605   3.856  10.433   1.190  0.2678  0.0283  0.3294
  657MOL0     C88606   4.932  10.392   1.057 -0.2723  0.7026 -0.0438
  657MOL0     C88607   5.060  10.390   1.006 -0.1103  1.0620 -0.0940
  657MOL0     O88608   5.224  10.290   0.786 -0.5403 -0.0732  0.2572
  657MOL0     C88609   5.523  10.159   0.912  0.0101  0.0872 -0.5725
  657MOL0     C88610   5.645  10.110   0.883 -0.7567  0.2892  0.2656
  657MOL0     N88611   6.392  10.138   0.725 -0.4222  0.1809  0.7786
  657MOL0     N88612   6.483  10.182   0.638 -0.1694  0.6415  1.0759
  657MOL0     C88613   7.595   9.947   0.396  0.2043  1.2169  0.6402
  657MOL0     C88614   7.703  10.026   0.415 -0.1945 -0.1243  0.2725
  657MOL0     C88615   7.937  10.346   0.584  0.5247 -0.5336 -1.0944
  657MOL0     C88616   8.068  10.301   0.575 -0.5085 -0.3769 -0.3050
  657MOL0     C88617   8.174  10.396   0.594  0.7860  0.2636  0.1396
  657MOL0     C88618   8.143  10.536   0.613 -1.5529  0.6391  0.9003
  657MOL0     O88619   8.237  10.627   0.605  0.1651 -0.8054  0.2725
  657MOL0     C88620   8.279  10.667   0.735  1.2037  0.1305  0.0042
  657MOL0     C88621   8.403  10.592   0.788 -0.2192 -0.3333  0.1946
  657MOL0     C88622   8.530  10.618   0.710  0.1874 -0.1583 -0.8879
  657MOL0     C88623   8.654  10.585   0.777  0.2754  0.3205 -0.3524
  657MOL0     C88624   8.684  10.677   0.889 -0.6506 -1.3334 -0.0586
  657MOL0     C88625   8.726  10.769   0.967  0.6593  0.4502  0.1188
  657MOL0     C88626   8.013  10.580   0.614  0.9953  0.0584 -0.1241
  657MOL0     C88627   7.909  10.481   0.601  1.5218 -0.7871  0.0709
  657MOL0     H88628   7.830   9.915   0.714 -0.2202 -1.0268 -0.6630
  657MOL0     H88629   7.625   9.767   0.680 -0.4853  1.2889  0.2235
  657MOL0     H88630   7.433   9.755   0.290 -0.7344 -0.5364  0.0148
  657MOL0     H88631   7.340   9.634   0.384 -1.1622 -0.3194  0.5604
  657MOL0     H88632   7.197   9.785   0.495 -0.2671  0.1586 -2.1410
  657MOL0     H88633   7.291   9.926   0.448  2.6845 -0.8341  0.1562
  657MOL0     H88634   7.245   9.897   0.211 -1.0027 -0.4681 -0.2630
  657MOL0     H88635   7.159   9.746   0.243 -1.1907 -0.0446  0.6846
  657MOL0     H88636   7.091  10.039   0.306  0.3631 -0.0788 -1.4209
  657MOL0     H88637   7.000   9.922   0.201 -0.2469 -0.3782  1.5723
  657MOL0     H88638   6.949   9.799   0.427  0.9649 -0.0895  1.8531
  657MOL0     H88639   7.016   9.940   0.511 -0.3090  4.3900 -1.1878
  657MOL0     H88640   6.864  10.070   0.341  0.5289 -0.7996 -0.0427
  657MOL0     H88641   6.787   9.909   0.326 -0.0318  0.7147 -0.1448
  657MOL0     H88642   6.705   9.896   0.550 -0.8710  0.2883  1.4623
  657MOL0     H88643   6.806  10.032   0.601 -1.6921  0.0075  1.3352
  657MOL0     H88644   6.600  10.031   0.369  0.0857  0.8156 -1.5167
  657MOL0     H88645   6.670  10.182   0.443  2.0300 -0.5874 -0.5382
  657MOL0     H88646   6.452   9.862   0.552 -2.2512 -0.1350  0.8965
  657MOL0     H88647   6.265   9.818   0.693  2.5875 -1.4787  2.7056
  657MOL0     H88648   6.334   9.859   0.846 -0.8129  1.7470  1.7583
  657MOL0     H88649   6.176  10.042   0.881 -0.5311  0.8182 -2.1719
  657MOL0     H88650   6.119   9.876   0.895 -0.2123  2.4734  3.2560
  657MOL0     H88651   6.048   9.923   0.648 -1.7522 -0.8015  2.4473
  657MOL0     H88652   6.075  10.089   0.673  0.0804  0.2923  0.1323
  657MOL0     H88653   5.916  10.097   0.865 -0.0579  1.4088 -1.3923
  657MOL0     H88654   5.884   9.925   0.848  0.5564  0.4776 -0.6272
  657MOL0     H88655   5.652  10.198   0.554  1.5770 -0.0505  0.2196
  657MOL0     H88656   5.361  10.307   0.538 -0.4633  0.9075  1.4971
  657MOL0     H88657   5.404  10.438   0.654 -1.1864 -0.7460  1.9018
  657MOL0     H88658   5.520  10.386   0.528 -0.8867 -1.5542 -1.5990
  657MOL0     H88659   5.185  10.135   1.195  0.2220  0.0144  0.6528
  657MOL0     H88660   4.983  10.167   1.311 -0.5124  1.9516  0.1936
  657MOL0     H88661   4.749  10.121   1.259 -0.0160 -1.3546  0.6737
  657MOL0     H88662   4.760  10.225   1.408 -0.1450  1.4823  0.0476
  657MOL0     H88663   4.519  10.161   1.368  2.8009 -2.7474 -1.4007
  657MOL0     H88664   4.537  10.328   1.342 -0.5729 -1.2623  2.3845
  657MOL0     H88665   4.570  10.128   1.104 -0.1149 -0.3567  0.1450
  657MOL0     H88666   4.564  10.305   1.096 -0.8592  1.0653 -0.7746
  657MOL0     H88667   4.358  10.164   1.031 -1.5701 -3.3614  1.0416
  657MOL0     H88668   4.333  10.121   1.201  0.2358 -1.2219 -0.3994
  657MOL0     H88669   4.346  10.409   1.113  1.5508  0.1228  0.1320
  657MOL0     H88670   4.296  10.347   1.265  0.7961  0.9710 -1.0661
  657MOL0     H88671   4.113  10.427   1.121 -2.1383 -0.3265 -1.6030
  657MOL0     H88672   4.140  10.298   1.007  0.6180  1.4904 -0.4576
  657MOL0     H88673   4.097  10.250   1.298 -0.2639  0.3025 -0.1980
  657MOL0     H88674   4.084  10.122   1.174  0.0712 -0.3658 -0.6273
  657MOL0     H88675   3.853  10.194   1.242 -1.7371  0.9172  1.4960
  657MOL0     H88676   3.897  10.229   1.067 -0.6759  0.5640 -0.1831
  657MOL0     H88677   4.864  10.473   1.035 -0.7981  1.1699  2.9250
  657MOL0     H88678   5.101  10.471   0.945 -0.2852 -0.4166 -2.2973
  657MOL0     H88679   5.492  10.134   1.013 -1.4087 -0.1343 -1.0430
  657MOL0     H88680   5.688  10.048   0.961 -1.8513  0.2189  0.8384
  657MOL0     H88681   7.537   9.963   0.306 -1.2498  1.3691  1.5828
  657MOL0     H88682   7.717  10.100   0.337 -0.5066 -0.6263 -0.2687
  657MOL0     H88683   8.098  10.197   0.580 -1.4398 -0.6157  0.8156
  657MOL0     H88684   8.277  10.366   0.577 -0.0211 -2.1625 -0.8436
  657MOL0     H88685   8.300  10.774   0.725 -0.2240  0.5045  0.7875
  657MOL0     H88686   8.206  10.651   0.814  1.3850  1.1604  0.4001
  657MOL0     H88687   8.387  10.484   0.785  1.8482 -0.7684  1.9060
  657MOL0     H88688   8.411  10.629   0.891 -1.5262  0.8895 -0.1083
  657MOL0     H88689   8.543  10.723   0.681  3.2220  0.1129  0.9880
  657MOL0     H88690   8.517  10.542   0.632 -1.4973 -1.1567  0.3107
  657MOL0     H88691   8.732  10.589   0.701  0.4967 -2.0541 -0.3362
  657MOL0     H88692   8.648  10.484   0.821 -1.1521 -0.3020 -1.8889
  657MOL0     H88693   8.757  10.831   1.049 -1.0627 -0.9818  1.9478
  657MOL0     H88694   7.991  10.685   0.632  2.2678  0.3578 -0.2515
  657MOL0     H88695   7.809  10.522   0.591  2.3246  1.5774  1.1377
  658MOL0     O88696   1.657   4.628   5.356 -0.6591 -0.1731 -0.3956
  658MOL0     C88697   1.709   4.599   5.465  0.1355  0.4626  0.0722
  658MOL0     O88698   1.644   4.628   5.585  0.1314 -0.0408 -0.3565
  658MOL0     C88699   1.536   4.718   5.574 -1.0896  0.1357  0.0258
  658MOL0     C88700   1.414   4.674   5.630 -0.7122  0.3928 -0.9749
  658MOL0     C88701   1.301   4.757   5.626 -0.6014 -0.2118 -0.7752
  658MOL0     C88702   1.316   4.888   5.578  0.5826 -0.0856  0.0132
  658MOL0     O88703   1.218   4.977   5.569  0.1728 -0.3140 -0.1688
  658MOL0     C88704   1.106   4.947   5.639 -0.2881 -0.7323  0.1501
  658MOL0     C88705   0.999   4.862   5.558 -0.1162  0.0946 -0.1023
  658MOL0     C88706   0.853   4.880   5.604  0.0508 -0.3475  0.6190
  658MOL0     C88707   0.833   4.872   5.755 -0.1571  0.9050 -0.2024
  658MOL0     C88708   0.690   4.847   5.800 -0.8453  0.1112 -0.3412
  658MOL0     C88709   0.580   4.938   5.737  0.1290  0.7088 -0.7788
  658MOL0     C88710   0.466   4.961   5.836 -0.1910  0.5878  0.0385
  658MOL0     C88711   0.332   4.996   5.773 -0.1673 -0.2243 -0.2476
  658MOL0     N88712   0.230   5.021   5.865 -0.5020 -0.6627 -0.2515
  658MOL0     C88713   0.212   5.139   5.930  0.7279  0.4918 -0.8879
  658MOL0     C88714   0.099   5.114   6.004 -0.2758 -0.0365  0.2287
  658MOL0     C88715   0.028   5.195   6.099  0.9037 -1.1666  0.0875
  658MOL0     C88716  -0.020   5.122   6.229 -1.0646 -0.1429  0.6959
  658MOL0     C88717  -0.153   5.048   6.200 -0.5611  0.7011  0.5222
  658MOL0     C88718  -0.220   5.013   6.338 -0.3196  0.0309 -0.5279
  658MOL0     O88719  -0.344   4.960   6.301  0.0958 -0.0665  0.7193
  658MOL0     C88720  -0.458   4.957   6.374  1.3206  0.6398 -0.2586
  658MOL0     C88721  -0.562   4.896   6.319 -0.0184 -0.5046  0.6818
  658MOL0     C88722  -0.682   4.875   6.387 -0.6886 -0.1496  0.5791
  658MOL0     C88723  -0.797   4.822   6.300  0.0213  0.1894  0.4148
  658MOL0     C88724  -0.701   4.926   6.518  0.1153 -0.5419 -0.5877
  658MOL0     C88725  -0.823   4.902   6.592  0.1291 -0.2953  0.0284
  658MOL0     O88726  -0.829   4.974   6.709  0.2933  0.3294  0.2971
  658MOL0     C88727  -0.944   4.951   6.780 -0.2791 -0.2453 -0.5653
  658MOL0     C88728  -1.054   5.028   6.764  1.0103  0.2717  0.1832
  658MOL0     C88729  -1.176   5.006   6.827 -0.0246 -0.4057 -0.1511
  658MOL0     C88730  -1.187   4.901   6.921  1.1565  0.1768  0.9485
  658MOL0     O88731  -1.295   4.878   6.999  0.1267 -0.4034  0.5223
  658MOL0     C88732  -1.421   4.940   6.965 -0.5308 -0.2686 -0.3113
  658MOL0     C88733  -1.500   4.933   7.095  1.1617 -0.4463 -0.6671
  658MOL0     C88734  -1.643   4.998   7.086 -0.0269  1.0389 -0.2980
  658MOL0     C88735  -1.646   5.092   7.202 -0.4079 -0.6565  0.3640
  658MOL0     C88736  -1.752   5.208   7.184 -0.8525 -0.1093  0.4590
  658MOL0     C88737  -1.895   5.156   7.158  0.5575  0.4780 -0.1072
  658MOL0     C88738  -1.991   5.268   7.177 -0.9444  0.5137 -0.6380
  658MOL0     C88739  -2.136   5.223   7.200  0.0645  0.6952 -0.3959
  658MOL0    Cl88740  -2.132   5.125   7.348  0.0479  0.1594  0.2856
  658MOL0     C88741  -1.075   4.823   6.949 -0.9110 -0.6653 -0.3797
  658MOL0     C88742  -0.954   4.842   6.877 -0.6387 -0.6510  0.4752
  658MOL0     O88743  -0.911   4.831   6.538  0.0422 -0.6336 -0.5443
  658MOL0     C88744  -0.589   4.983   6.577 -0.3225 -0.5488  0.6562
  658MOL0     C88745  -0.470   5.005   6.509 -0.7819 -1.1897  0.9945
  658MOL0     N88746   0.060   4.980   5.980  0.0507 -0.0921 -0.7474
  658MOL0     N88747   0.142   4.925   5.908 -0.5385  0.6683 -0.4536
  658MOL0     C88748   1.432   4.927   5.519 -0.5336 -0.4868  0.1672
  658MOL0     C88749   1.546   4.845   5.523  0.6450 -1.0227 -0.4501
  658MOL0     C88750   1.826   4.511   5.474 -0.6230 -0.1661  0.1593
  658MOL0     C88751   1.899   4.481   5.358 -0.3599  0.1181 -0.1221
  658MOL0     C88752   2.020   4.400   5.362 -0.3936  0.6818  0.0476
  658MOL0     C88753   2.073   4.372   5.488 -0.5441 -0.2920  0.2782
  658MOL0     O88754   2.199   4.313   5.499  0.1876 -0.8202  0.1107
  658MOL0     C88755   2.312   4.393   5.525  0.2074 -0.4282  0.1678
  658MOL0     C88756   2.422   4.312   5.585 -0.0557 -0.1600  0.0031
  658MOL0     C88757   2.534   4.403   5.626  0.8711  0.4010 -0.0469
  658MOL0     C88758   2.660   4.323   5.677  0.0325  0.6027  0.4472
  658MOL0     C88759   2.638   4.243   5.798  0.0083  0.0633 -0.3283
  658MOL0     C88760   2.638   4.168   5.895  0.2405  0.2557 -0.2746
  658MOL0     C88761   2.008   4.414   5.601 -0.3309 -0.1598 -0.8809
  658MOL0     C88762   1.886   4.487   5.602 -0.5292 -0.7505 -0.4794
  658MOL0     H88763   1.409   4.574   5.673 -2.9318  0.1015 -1.7844
  658MOL0     H88764   1.211   4.704   5.655 -0.3515 -0.1843  0.0736
  658MOL0     H88765   1.122   4.905   5.739 -0.1352  1.3623  1.0689
  658MOL0     H88766   1.062   5.045   5.660 -1.7490 -1.5370  0.9896
  658MOL0     H88767   1.010   4.901   5.456  1.0854  0.2350  0.0711
  658MOL0     H88768   1.021   4.755   5.560  1.8861  0.4684  0.1806
  658MOL0     H88769   0.815   4.978   5.573  1.3752  0.4182  1.2995
  658MOL0     H88770   0.788   4.808   5.555 -2.2122  1.0191  1.4268
  658MOL0     H88771   0.892   4.789   5.795  0.3731  2.5559  2.7614
  658MOL0     H88772   0.857   4.968   5.802 -2.0417  1.9055 -1.1304
  658MOL0     H88773   0.666   4.741   5.785 -2.4555  0.1928  1.2964
  658MOL0     H88774   0.690   4.853   5.909 -2.1172 -2.6941 -0.1188
  658MOL0     H88775   0.626   5.035   5.717 -0.9957  1.7907  1.4553
  658MOL0     H88776   0.554   4.886   5.645  1.0664 -0.2563 -0.5206
  658MOL0     H88777   0.459   4.867   5.892  1.8732 -1.4189 -2.7577
  658MOL0     H88778   0.487   5.042   5.906 -1.7326  1.8751 -0.9195
  658MOL0     H88779   0.303   4.912   5.709  0.2153 -2.0276  1.7999
  658MOL0     H88780   0.331   5.077   5.700 -2.1604 -1.3383 -1.5357
  658MOL0     H88781   0.262   5.235   5.924  2.8936 -0.2797  2.2777
  658MOL0     H88782   0.103   5.267   6.136  0.6284 -0.7525 -0.1526
  658MOL0     H88783  -0.054   5.242   6.044  1.2221  1.6814  1.8163
  658MOL0     H88784  -0.032   5.204   6.301 -1.4562  0.7166 -0.3250
  658MOL0     H88785   0.058   5.052   6.260 -0.0684 -1.0367 -3.3253
  658MOL0     H88786  -0.137   4.963   6.134 -0.4564  1.7430 -0.8366
  658MOL0     H88787  -0.217   5.117   6.146  1.2801  1.0537 -1.3390
  658MOL0     H88788  -0.227   5.105   6.397 -0.3604 -1.5939  2.1346
  658MOL0     H88789  -0.157   4.941   6.391 -0.1554  1.3276  1.1073
  658MOL0     H88790  -0.538   4.861   6.219  0.1733  0.3269  0.4291
  658MOL0     H88791  -0.781   4.867   6.202  2.7236 -0.4412  0.4925
  658MOL0     H88792  -0.807   4.713   6.303  1.3170  0.0389 -0.2830
  658MOL0     H88793  -0.899   4.858   6.314 -0.7281 -1.9338  0.8883
  658MOL0     H88794  -1.047   5.103   6.686 -1.1548  1.5040  1.0748
  658MOL0     H88795  -1.250   5.083   6.807  0.0460 -0.5182 -0.8814
  658MOL0     H88796  -1.409   5.045   6.938  1.7027 -0.1991  0.7241
  658MOL0     H88797  -1.479   4.891   6.886 -1.4995  1.7858 -0.9528
  658MOL0     H88798  -1.513   4.828   7.122  1.3951 -0.2041  0.4183
  658MOL0     H88799  -1.437   4.975   7.174 -2.0807 -1.0562  2.5114
  658MOL0     H88800  -1.722   4.921   7.087  0.4516  0.5409 -0.6366
  658MOL0     H88801  -1.655   5.059   6.997 -2.7499  1.2153  0.0853
  658MOL0     H88802  -1.676   5.043   7.295 -1.3949  0.2233  0.5251
  658MOL0     H88803  -1.552   5.146   7.218 -1.5277  0.4039  4.4596
  658MOL0     H88804  -1.721   5.271   7.100  0.2377  0.1640  1.0428
  658MOL0     H88805  -1.756   5.274   7.271  0.4913 -0.6641  0.9628
  658MOL0     H88806  -1.896   5.117   7.056 -0.9073 -0.6876  0.3131
  658MOL0     H88807  -1.928   5.077   7.226 -0.4408 -0.4235 -1.5772
  658MOL0     H88808  -1.978   5.354   7.111  0.2481  1.3336  0.5839
  658MOL0     H88809  -1.971   5.311   7.276  0.8492 -2.4806  0.4530
  658MOL0     H88810  -2.172   5.160   7.118  0.5388  1.5257 -1.2715
  658MOL0     H88811  -2.190   5.317   7.210  2.5689  2.3897 -1.5536
  658MOL0     H88812  -1.073   4.746   7.025 -0.0624 -0.1182  0.1728
  658MOL0     H88813  -0.867   4.779   6.889  0.2377  0.4313 -0.0602
  658MOL0     H88814  -0.595   5.034   6.672  2.7770  0.2929  0.5043
  658MOL0     H88815  -0.393   5.072   6.546 -0.2420 -1.0459 -0.3505
  658MOL0     H88816   1.431   5.016   5.457 -0.4325 -0.8219 -0.3213
  658MOL0     H88817   1.646   4.862   5.484  1.7626 -1.3924  2.0788
  658MOL0     H88818   1.863   4.513   5.261  2.3812  1.1635 -0.8597
  658MOL0     H88819   2.065   4.372   5.267  0.3193 -0.7572  0.7731
  658MOL0     H88820   2.338   4.447   5.434 -1.2080  0.4191  0.2275
  658MOL0     H88821   2.283   4.465   5.602 -0.4984 -1.8364  1.2643
  658MOL0     H88822   2.468   4.243   5.514  1.3359 -0.5470  1.2354
  658MOL0     H88823   2.381   4.258   5.670  0.3913  1.4036  1.2676
  658MOL0     H88824   2.496   4.471   5.703  0.6951  1.4555 -1.0485
  658MOL0     H88825   2.559   4.463   5.538 -0.9346  2.5474  0.8110
  658MOL0     H88826   2.748   4.386   5.697 -0.1529  1.1560 -0.4633
  658MOL0     H88827   2.686   4.244   5.606  1.2255 -0.5523  2.0603
  658MOL0     H88828   2.655   4.106   5.980  1.0948 -1.0689 -1.3606
  658MOL0     H88829   2.049   4.397   5.700 -2.4796 -2.7983 -0.3143
  658MOL0     H88830   1.830   4.513   5.690 -1.1654 -1.5493 -0.6347
  659MOL0     O88831   0.091   8.803  10.303  0.7851  0.2429 -0.1681
  659MOL0     C88832   0.144   8.768  10.406  0.5029 -0.3219  0.6844
  659MOL0     O88833   0.094   8.784  10.533 -0.2301 -0.0216  0.1361
  659MOL0     C88834  -0.029   8.849  10.541  0.1288 -0.2067  0.0979
  659MOL0     C88835  -0.035   8.988  10.583  0.1463 -0.3246  0.3052
  659MOL0     C88836  -0.154   9.052  10.562 -0.1085  0.1266  0.4548
  659MOL0     C88837  -0.269   8.983  10.523 -0.7920  0.6525  0.1688
  659MOL0     O88838  -0.383   9.052  10.532 -0.3363  0.1776  0.4176
  659MOL0     C88839  -0.496   8.998  10.462 -0.2996 -0.7140 -0.6371
  659MOL0     C88840  -0.599   9.114  10.440  0.4563  0.4731  0.5918
  659MOL0     C88841  -0.695   9.118  10.562  0.0415  0.2461 -0.5956
  659MOL0     C88842  -0.804   9.224  10.535  0.3735  0.1633  0.0581
  659MOL0     C88843  -0.933   9.157  10.599  0.1305 -1.1806 -0.7336
  659MOL0     C88844  -1.054   9.247  10.556 -0.1299 -0.3359 -0.2519
  659MOL0     C88845  -1.186   9.190  10.602  0.0566 -0.3476 -0.6887
  659MOL0     C88846  -1.306   9.264  10.581  0.0075 -0.6138  1.6249
  659MOL0     N88847  -1.331   9.281  10.438 -0.4411  0.0063  0.7773
  659MOL0     C88848  -1.393   9.186  10.366 -0.3327 -0.6028  0.1719
  659MOL0     C88849  -1.370   9.228  10.240  0.9421 -0.2602  0.0372
  659MOL0     C88850  -1.402   9.156  10.119  0.6221  0.8586  0.0774
  659MOL0     C88851  -1.310   9.032  10.122  0.3153 -0.5555 -0.2680
  659MOL0     C88852  -1.166   9.064  10.130 -0.6266 -0.4244  0.6161
  659MOL0     C88853  -1.091   8.932  10.155  0.1909  0.3228 -0.6883
  659MOL0     O88854  -0.956   8.973  10.163 -0.2565 -0.1727  0.0149
  659MOL0     C88855  -0.866   8.883  10.204  0.5670  1.8452  0.1262
  659MOL0     C88856  -0.814   8.811  10.101 -0.3266 -0.0899  0.3528
  659MOL0     C88857  -0.706   8.724  10.122 -0.4195  0.3025  0.7933
  659MOL0     C88858  -0.648   8.677   9.987 -0.0734 -0.8524 -0.3553
  659MOL0     C88859  -0.667   8.692  10.258 -0.4466  1.5113  0.0932
  659MOL0     C88860  -0.563   8.585  10.279  0.3466 -0.5204 -0.4782
  659MOL0     O88861  -0.495   8.584  10.401 -0.3154  0.1316  0.9052
  659MOL0     C88862  -0.391   8.485  10.405 -0.2589 -0.1308  0.0241
  659MOL0     C88863  -0.280   8.491  10.318  0.0128 -0.3543  0.3576
  659MOL0     C88864  -0.183   8.390  10.306 -0.3430 -0.0123  0.2225
  659MOL0     C88865  -0.196   8.277  10.385 -0.4822  0.0414 -0.2585
  659MOL0     O88866  -0.106   8.176  10.388 -0.4892  0.1001  0.0786
  659MOL0     C88867  -0.075   8.106  10.510  0.4686  0.2121 -0.2581
  659MOL0     C88868   0.059   8.027  10.496  0.1202 -0.3305  0.2759
  659MOL0     C88869   0.039   7.896  10.419 -0.5405  0.2452  0.5532
  659MOL0     C88870   0.167   7.838  10.363  0.4277  0.4694  0.1049
  659MOL0     C88871   0.158   7.697  10.300  0.2822 -0.1090  0.2184
  659MOL0     C88872   0.285   7.645  10.230  0.7336 -0.4025 -0.2239
  659MOL0     C88873   0.412   7.681  10.307  0.3253  0.0398 -0.4143
  659MOL0     C88874   0.535   7.627  10.250 -0.3137 -0.7671 -0.1463
  659MOL0    Cl88875   0.546   7.446  10.243  0.2305  0.0027  0.1960
  659MOL0     C88876  -0.310   8.265  10.474 -0.7212 -1.2862  0.5582
  659MOL0     C88877  -0.408   8.370  10.484 -0.6551 -0.7077 -0.4885
  659MOL0     O88878  -0.563   8.493  10.200 -0.2071  0.1737 -0.2261
  659MOL0     C88879  -0.733   8.765  10.358  0.3384 -0.7366 -0.4426
  659MOL0     C88880  -0.828   8.865  10.341 -0.0356  0.4731  0.2243
  659MOL0     N88881  -1.313   9.352  10.240 -0.2663  0.3040  0.9523
  659MOL0     N88882  -1.292   9.390  10.360  0.1162 -0.4004 -0.4929
  659MOL0     C88883  -0.264   8.845  10.499 -0.7663  0.9928  0.5965
  659MOL0     C88884  -0.142   8.776  10.505  0.9300 -0.2840 -0.7458
  659MOL0     C88885   0.261   8.683  10.395  0.9400 -0.1812  0.3842
  659MOL0     C88886   0.330   8.662  10.273 -0.1710 -0.0495 -0.7445
  659MOL0     C88887   0.440   8.575  10.258 -0.0260  0.0386 -0.2051
  659MOL0     C88888   0.483   8.511  10.380  0.5599 -0.1733 -0.8415
  659MOL0     O88889   0.576   8.405  10.362 -0.2251 -0.0273 -0.7628
  659MOL0     C88890   0.637   8.325  10.468  0.4106 -0.8673  0.2117
  659MOL0     C88891   0.588   8.175  10.444 -0.4877  0.0520  0.4540
  659MOL0     C88892   0.432   8.151  10.420 -0.5800  0.0462 -0.5050
  659MOL0     C88893   0.407   8.162  10.266 -0.4110 -0.9656 -0.5566
  659MOL0     C88894   0.282   8.236  10.231 -1.2263  0.2676 -0.0407
  659MOL0     C88895   0.188   8.293  10.191 -0.6089 -0.3795  0.1175
  659MOL0     C88896   0.413   8.532  10.501  0.0617  0.3067  0.6857
  659MOL0     C88897   0.306   8.620  10.507 -0.5370  0.0819 -0.3434
  659MOL0     H88898   0.059   9.032  10.615 -0.1270  0.9441 -0.5627
  659MOL0     H88899  -0.169   9.158  10.583  1.8473  0.7333 -0.9243
  659MOL0     H88900  -0.457   8.960  10.368  0.8850  1.7053 -1.1991
  659MOL0     H88901  -0.536   8.917  10.524 -0.3930 -0.7691 -0.7698
  659MOL0     H88902  -0.546   9.204  10.405  2.7150 -1.2715 -0.8139
  659MOL0     H88903  -0.661   9.085  10.355  0.9240 -2.3369  1.1157
  659MOL0     H88904  -0.738   9.017  10.570  0.9552 -0.0349  1.7646
  659MOL0     H88905  -0.644   9.131  10.658  0.6613 -1.9669 -0.5516
  659MOL0     H88906  -0.782   9.325  10.570 -2.6892  0.4322  1.6275
  659MOL0     H88907  -0.830   9.230  10.429 -1.1102 -3.3402  0.0842
  659MOL0     H88908  -0.956   9.053  10.573 -3.0343 -0.2891 -2.0343
  659MOL0     H88909  -0.927   9.160  10.708 -2.2212 -0.0724 -0.5705
  659MOL0     H88910  -1.042   9.345  10.603  0.3707 -0.2145 -0.6126
  659MOL0     H88911  -1.055   9.263  10.447 -0.4860  1.8380  0.0258
  659MOL0     H88912  -1.205   9.096  10.550 -1.8279  0.1277 -0.9101
  659MOL0     H88913  -1.183   9.171  10.710 -1.0600  1.4082 -0.3041
  659MOL0     H88914  -1.292   9.360  10.632  1.4200 -1.0205  2.0481
  659MOL0     H88915  -1.395   9.221  10.629 -1.5340  0.3715 -0.2391
  659MOL0     H88916  -1.427   9.091  10.405  1.0291 -0.7792  0.9854
  659MOL0     H88917  -1.508   9.128  10.117  0.8877 -0.1584 -1.7019
  659MOL0     H88918  -1.375   9.210  10.028 -0.1083  2.2363  0.6494
  659MOL0     H88919  -1.333   8.966  10.038  2.5913 -1.3003 -0.3769
  659MOL0     H88920  -1.342   8.966  10.204  3.7067 -1.8126  0.2148
  659MOL0     H88921  -1.146   9.136  10.210 -1.8991  0.8218 -0.1345
  659MOL0     H88922  -1.135   9.106  10.033  2.3219 -0.7004  1.3459
  659MOL0     H88923  -1.104   8.865  10.070 -0.3375 -4.0064  2.4641
  659MOL0     H88924  -1.128   8.878  10.243  2.3586  0.5620  0.4489
  659MOL0     H88925  -0.847   8.832  10.000  0.0549 -2.3000 -0.2812
  659MOL0     H88926  -0.545   8.642  10.001 -0.7974 -2.3643  1.6641
  659MOL0     H88927  -0.704   8.592   9.947 -0.3304 -1.5682  1.4020
  659MOL0     H88928  -0.640   8.756   9.912  0.3405  1.6440  2.1549
  659MOL0     H88929  -0.277   8.581  10.259  0.1923 -0.7036 -0.1723
  659MOL0     H88930  -0.103   8.395  10.232 -1.6973  0.8776 -1.2486
  659MOL0     H88931  -0.070   8.172  10.597  1.3583 -1.6263  1.1254
  659MOL0     H88932  -0.145   8.027  10.536  0.9121  0.0001  0.3062
  659MOL0     H88933   0.126   8.080  10.429 -0.2695 -1.0254 -0.6918
  659MOL0     H88934   0.096   8.001  10.596 -0.8110 -0.8050  0.5150
  659MOL0     H88935  -0.008   7.925  10.324  3.7811  0.5404 -1.7669
  659MOL0     H88936  -0.016   7.813  10.466  2.0769 -0.5170  2.5196
  659MOL0     H88937   0.205   7.911  10.292 -1.4961  0.4530 -1.0072
  659MOL0     H88938   0.231   7.822  10.451  0.8443  1.5677  0.0200
  659MOL0     H88939   0.089   7.705  10.215  1.6396  0.2439 -0.9065
  659MOL0     H88940   0.133   7.624  10.377  3.5851 -2.5703 -0.7712
  659MOL0     H88941   0.269   7.537  10.222 -1.1955 -0.2796  1.2297
  659MOL0     H88942   0.293   7.700  10.136 -1.8972 -1.4303 -1.1262
  659MOL0     H88943   0.408   7.650  10.412  2.1466  3.1154  0.7035
  659MOL0     H88944   0.416   7.790  10.309  0.2780  0.0390  1.0075
  659MOL0     H88945   0.624   7.665  10.300 -2.1652 -1.3389  4.0289
  659MOL0     H88946   0.535   7.659  10.145 -0.1656 -1.0515 -0.2330
  659MOL0     H88947  -0.318   8.176  10.535  1.8577 -1.3792  0.8337
  659MOL0     H88948  -0.497   8.350  10.544  1.1369 -2.4799  1.7682
  659MOL0     H88949  -0.715   8.739  10.462 -1.9967  0.6813  0.3797
  659MOL0     H88950  -0.872   8.916  10.426  1.3330  0.6239  0.8722
  659MOL0     H88951  -0.351   8.787  10.467  0.1846  0.1286 -0.5454
  659MOL0     H88952  -0.131   8.672  10.479 -0.3265 -0.3372 -1.1276
  659MOL0     H88953   0.287   8.710  10.185 -0.8544  0.6140 -0.0618
  659MOL0     H88954   0.487   8.544  10.165 -1.2281 -0.7549 -0.5692
  659MOL0     H88955   0.744   8.343  10.478 -0.1190  1.5850  2.6465
  659MOL0     H88956   0.600   8.361  10.565  0.5879 -1.4132  0.4862
  659MOL0     H88957   0.622   8.115  10.529  1.0666  0.0146 -0.1486
  659MOL0     H88958   0.644   8.142  10.356 -2.5097 -0.5314 -0.6697
  659MOL0     H88959   0.375   8.226  10.476 -0.2029 -1.9343  2.8308
  659MOL0     H88960   0.401   8.054  10.460 -1.7526 -1.4072 -4.5576
  659MOL0     H88961   0.378   8.063  10.228  2.7394 -1.8848 -0.8394
  659MOL0     H88962   0.498   8.202  10.221 -1.2364  0.4642 -1.0084
  659MOL0     H88963   0.107   8.352  10.156  1.5338  3.0134  0.3723
  659MOL0     H88964   0.446   8.491  10.596  1.1289  2.0494  1.1209
  659MOL0     H88965   0.271   8.640  10.608  2.9745  2.4019  0.6260
  660MOL0     O88966   1.477   3.525   1.296 -0.8164 -0.2069  0.6995
  660MOL0     C88967   1.579   3.452   1.276 -0.2472 -0.5984 -0.0253
  660MOL0     O88968   1.591   3.315   1.306  0.1605 -0.8891  0.7063
  660MOL0     C88969   1.485   3.252   1.369 -0.2724  1.0474 -0.0316
  660MOL0     C88970   1.432   3.130   1.313  0.4265 -0.3488 -0.4637
  660MOL0     C88971   1.323   3.072   1.369  1.0002  0.5954  1.0248
  660MOL0     C88972   1.274   3.118   1.485  0.0167  0.5285 -0.0859
  660MOL0     O88973   1.158   3.056   1.539  0.5447 -0.0230 -0.3692
  660MOL0     C88974   1.084   3.117   1.647  0.6185  0.6606 -0.3568
  660MOL0     C88975   0.934   3.076   1.633  0.1798 -0.1845 -0.6772
  660MOL0     C88976   0.856   3.151   1.521 -0.5598  0.2655 -0.3193
  660MOL0     C88977   0.710   3.104   1.513  0.1552  0.7401 -0.3223
  660MOL0     C88978   0.644   3.193   1.409 -0.4016 -0.5191  0.4110
  660MOL0     C88979   0.653   3.134   1.266 -0.1977  0.0012 -0.7393
  660MOL0     C88980   0.597   3.215   1.142  0.4408 -0.2917 -1.1457
  660MOL0     C88981   0.633   3.144   1.025 -0.1039  0.6475  0.5747
  660MOL0     N88982   0.563   3.217   0.918  0.3108  0.3173 -0.4222
  660MOL0     C88983   0.429   3.199   0.874 -0.4390  0.3370 -0.4203
  660MOL0     C88984   0.423   3.261   0.758  0.3641 -1.0216 -0.5678
  660MOL0     C88985   0.299   3.286   0.670 -0.1428 -0.4281  0.1118
  660MOL0     C88986   0.245   3.427   0.698  0.2695 -0.1398  1.0648
  660MOL0     C88987   0.196   3.497   0.573  0.1228 -0.4279  0.4043
  660MOL0     C88988   0.146   3.638   0.601 -0.1792  0.5252 -0.1903
  660MOL0     O88989   0.017   3.619   0.668 -0.2683  0.5819 -0.0439
  660MOL0     C88990  -0.101   3.643   0.600  0.1180 -0.1063 -0.9669
  660MOL0     C88991  -0.119   3.627   0.463  0.4750 -0.2634  0.1422
  660MOL0     C88992  -0.235   3.658   0.401 -0.9191 -0.6109  0.2122
  660MOL0     C88993  -0.234   3.644   0.253  0.4287 -0.7241 -0.0657
  660MOL0     C88994  -0.348   3.704   0.472 -0.6112  0.5619 -0.1733
  660MOL0     C88995  -0.477   3.748   0.417  0.3155  0.7661 -0.4288
  660MOL0     O88996  -0.584   3.716   0.497  0.2536  0.0364 -0.8279
  660MOL0     C88997  -0.708   3.761   0.459 -0.2539 -0.1969  0.1949
  660MOL0     C88998  -0.752   3.772   0.322 -0.6374 -0.1104 -0.2493
  660MOL0     C88999  -0.862   3.847   0.292 -0.7370 -0.3000  0.0317
  660MOL0     C89000  -0.934   3.917   0.394  0.1943 -0.1825  0.2063
  660MOL0     O89001  -1.042   3.994   0.357  0.2063  0.1058 -0.3051
  660MOL0     C89002  -1.051   4.110   0.440 -0.9320 -0.1604 -0.3852
  660MOL0     C89003  -1.162   4.211   0.390 -0.1570 -0.0814  0.4354
  660MOL0     C89004  -1.308   4.157   0.404 -0.6605 -0.3546  1.0797
  660MOL0     C89005  -1.350   4.094   0.270 -0.1143  0.1957 -0.1169
  660MOL0     C89006  -1.460   3.993   0.277 -0.0025  0.5953 -0.9327
  660MOL0     C89007  -1.593   4.043   0.339 -0.2680  0.0679  0.1170
  660MOL0     C89008  -1.691   3.927   0.344 -0.0163 -0.6334  0.1370
  660MOL0     C89009  -1.834   3.987   0.363  0.1596 -0.5662  0.5359
  660MOL0    Cl89010  -1.884   3.996   0.536  0.1962  0.1209 -0.3463
  660MOL0     C89011  -0.896   3.896   0.529  0.6782 -0.2327 -0.2977
  660MOL0     C89012  -0.784   3.822   0.558  0.3070 -0.6570  0.1084
  660MOL0     O89013  -0.483   3.802   0.307  0.4556  0.4459  0.5707
  660MOL0     C89014  -0.330   3.709   0.609 -0.1025 -0.3998 -0.2208
  660MOL0     C89015  -0.214   3.677   0.675  0.2176 -0.2452 -0.2298
  660MOL0     N89016   0.549   3.318   0.734  0.1941 -0.7125 -0.0227
  660MOL0     N89017   0.630   3.297   0.836  0.2723 -0.4532  0.1660
  660MOL0     C89018   1.342   3.216   1.558 -0.5208 -0.3167  1.0168
  660MOL0     C89019   1.448   3.288   1.500 -0.8840  0.9721 -0.1109
  660MOL0     C89020   1.690   3.521   1.203  0.3321 -0.0197  0.0573
  660MOL0     C89021   1.658   3.633   1.121  0.0544  0.8755  0.1789
  660MOL0     C89022   1.756   3.679   1.032 -0.0748 -0.4859  0.3584
  660MOL0     C89023   1.888   3.633   1.028  0.5777 -0.8375  0.1226
  660MOL0     O89024   1.990   3.665   0.942 -0.2239  0.6057 -0.8944
  660MOL0     C89025   1.945   3.684   0.815  1.4544 -0.1950 -0.0936
  660MOL0     C89026   2.052   3.745   0.722  0.0904 -0.3057 -0.3649
  660MOL0     C89027   2.007   3.745   0.579  0.6566  0.8158  0.4111
  660MOL0     C89028   2.072   3.858   0.500  0.2822  0.1882  1.0812
  660MOL0     C89029   2.222   3.856   0.497 -0.1177 -0.5795  0.2982
  660MOL0     C89030   2.345   3.849   0.491 -0.6318  0.2028 -0.3080
  660MOL0     C89031   1.918   3.530   1.121  0.4531  0.3460 -1.5624
  660MOL0     C89032   1.821   3.472   1.204 -0.0132 -0.5103  0.0463
  660MOL0     H89033   1.482   3.092   1.225  0.6104 -3.0727  0.7126
  660MOL0     H89034   1.270   2.995   1.315 -0.3097  3.3518 -1.9455
  660MOL0     H89035   1.129   3.089   1.742 -2.0151 -0.6584  0.5886
  660MOL0     H89036   1.080   3.226   1.640 -0.9119  0.9513  3.0515
  660MOL0     H89037   0.929   2.968   1.616  3.3452 -0.3693 -0.9781
  660MOL0     H89038   0.895   3.102   1.732  2.5220  1.5663 -0.1233
  660MOL0     H89039   0.850   3.255   1.555 -1.5447  0.1668 -0.1632
  660MOL0     H89040   0.912   3.131   1.430 -0.6944  1.1328 -0.6083
  660MOL0     H89041   0.706   2.997   1.488  1.4100 -0.0215  2.3474
  660MOL0     H89042   0.660   3.122   1.608 -1.4653 -2.9577 -0.2894
  660MOL0     H89043   0.539   3.215   1.426 -1.5471 -0.7698 -4.8518
  660MOL0     H89044   0.695   3.289   1.397 -1.0027 -0.3160 -0.6018
  660MOL0     H89045   0.755   3.104   1.237 -1.1446 -1.2670 -2.9895
  660MOL0     H89046   0.602   3.037   1.269 -0.9375  0.2788 -2.7792
  660MOL0     H89047   0.489   3.217   1.155 -0.0028 -3.1848 -3.1614
  660MOL0     H89048   0.630   3.319   1.142 -3.3055  1.1268  1.9150
  660MOL0     H89049   0.609   3.038   1.037  2.1543  0.2393  2.2430
  660MOL0     H89050   0.741   3.145   1.008 -0.4042  2.3741 -1.6506
  660MOL0     H89051   0.346   3.152   0.926 -0.8445 -1.6085 -2.6454
  660MOL0     H89052   0.331   3.283   0.566 -2.1174 -1.3397 -0.5162
  660MOL0     H89053   0.224   3.211   0.698 -0.7034  0.6739  1.7051
  660MOL0     H89054   0.317   3.489   0.751 -0.8106  0.0056  2.4301
  660MOL0     H89055   0.162   3.419   0.769  0.2316  0.8615  1.1485
  660MOL0     H89056   0.114   3.446   0.522  0.8627  1.8386 -3.4274
  660MOL0     H89057   0.266   3.507   0.490 -0.5929 -1.9610 -0.4217
  660MOL0     H89058   0.138   3.689   0.505  0.1657 -3.2562 -2.4254
  660MOL0     H89059   0.221   3.692   0.660  0.6680 -4.4162  3.9231
  660MOL0     H89060  -0.032   3.593   0.408  1.5731  0.7744  1.1872
  660MOL0     H89061  -0.173   3.558   0.224 -0.4422 -1.9401  1.4814
  660MOL0     H89062  -0.333   3.620   0.214  0.6851 -0.4721 -0.8823
  660MOL0     H89063  -0.194   3.737   0.212  0.1990 -0.6814 -0.1952
  660MOL0     H89064  -0.698   3.723   0.241 -0.3266  1.2518 -0.8973
  660MOL0     H89065  -0.893   3.840   0.189  0.1779  0.1121 -0.2862
  660MOL0     H89066  -1.075   4.077   0.541 -1.5941  0.6689 -0.2658
  660MOL0     H89067  -0.953   4.157   0.429 -1.0154  0.0061 -0.4157
  660MOL0     H89068  -1.152   4.294   0.461 -0.8498 -0.1100  0.5720
  660MOL0     H89069  -1.139   4.244   0.288  0.6206 -1.2163  0.2286
  660MOL0     H89070  -1.378   4.237   0.429  1.5700  1.7503  1.0208
  660MOL0     H89071  -1.297   4.094   0.493 -0.2740  1.6210  2.5001
  660MOL0     H89072  -1.407   4.175   0.223 -0.3110  2.1083  3.1274
  660MOL0     H89073  -1.269   4.052   0.210 -0.6367 -1.0985  0.0591
  660MOL0     H89074  -1.437   3.898   0.327 -1.6350 -0.6085 -2.3099
  660MOL0     H89075  -1.479   3.971   0.172 -0.1214  2.9464 -1.4440
  660MOL0     H89076  -1.570   4.073   0.441 -1.5426  0.0357  0.4240
  660MOL0     H89077  -1.638   4.130   0.289 -1.6869 -0.9429 -0.4041
  660MOL0     H89078  -1.678   3.859   0.429  1.0261 -0.0650  0.4621
  660MOL0     H89079  -1.687   3.856   0.261  1.2298 -1.1104  0.5739
  660MOL0     H89080  -1.907   3.919   0.318  0.4370  1.2019 -2.9123
  660MOL0     H89081  -1.851   4.083   0.313 -0.1341 -0.0599  1.5626
  660MOL0     H89082  -0.945   3.934   0.618  2.4568  0.3576  0.4899
  660MOL0     H89083  -0.764   3.811   0.664 -0.4520 -1.3241  0.1945
  660MOL0     H89084  -0.420   3.727   0.667 -0.0283  0.8951 -0.4925
  660MOL0     H89085  -0.197   3.672   0.782  1.6892 -0.7304 -0.4655
  660MOL0     H89086   1.310   3.259   1.652 -0.2961 -1.0161  1.4260
  660MOL0     H89087   1.505   3.363   1.554 -0.6626  2.8648 -2.8154
  660MOL0     H89088   1.554   3.664   1.124 -0.2734  0.3303 -2.4577
  660MOL0     H89089   1.732   3.764   0.970  0.9959 -0.8591 -0.5993
  660MOL0     H89090   1.911   3.590   0.770  0.6385  0.4827 -0.9332
  660MOL0     H89091   1.860   3.753   0.807  0.7748 -0.9717  0.2685
  660MOL0     H89092   2.135   3.675   0.729  0.0013 -0.3053  0.9435
  660MOL0     H89093   2.081   3.845   0.757  0.2919  0.1536 -1.7720
  660MOL0     H89094   1.899   3.757   0.578  0.7544  1.7243  0.2698
  660MOL0     H89095   2.022   3.646   0.533  1.7562  0.3374  1.7211
  660MOL0     H89096   2.058   3.957   0.546  1.4321  1.5994 -1.3677
  660MOL0     H89097   2.037   3.863   0.397 -1.1829 -1.3822  1.4704
  660MOL0     H89098   2.451   3.855   0.483 -0.3581 -1.8801  1.0036
  660MOL0     H89099   2.025   3.514   1.123  0.7227  1.9754 -1.4444
  660MOL0     H89100   1.847   3.388   1.269 -0.3232 -1.7497 -1.3802
  661MOL0     O89101   0.792   4.751   6.561 -0.4686 -0.8132  0.5164
  661MOL0     C89102   0.838   4.824   6.648 -0.0263  0.3014 -0.0916
  661MOL0     O89103   0.761   4.877   6.746 -0.4856 -0.6055 -0.6711
  661MOL0     C89104   0.630   4.837   6.754  0.3290  0.2857 -0.1095
  661MOL0     C89105   0.598   4.751   6.855 -0.1600  0.3650 -0.4423
  661MOL0     C89106   0.467   4.690   6.859  0.1480  0.0382 -0.3681
  661MOL0     C89107   0.374   4.723   6.762  0.5111 -0.1646 -0.0212
  661MOL0     O89108   0.247   4.661   6.756  0.1013 -0.5271 -0.2115
  661MOL0     C89109   0.257   4.540   6.678  0.1816  0.3316 -0.7961
  661MOL0     C89110   0.114   4.467   6.673 -0.1626  0.6351 -0.5643
  661MOL0     C89111   0.119   4.315   6.652  0.1735 -0.1280 -0.2654
  661MOL0     C89112  -0.029   4.267   6.666 -0.5745  0.5361  0.4743
  661MOL0     C89113  -0.021   4.118   6.703  0.5550 -0.6581 -0.2728
  661MOL0     C89114  -0.151   4.044   6.697 -0.4382 -1.0654  0.7956
  661MOL0     C89115  -0.138   3.905   6.756 -0.1392 -0.6433  0.2385
  661MOL0     C89116  -0.233   3.809   6.684 -0.4607 -0.1416 -0.4575
  661MOL0     N89117  -0.367   3.791   6.740  0.1687  0.7498 -1.0520
  661MOL0     C89118  -0.477   3.763   6.670  0.3076 -0.6720  0.4847
  661MOL0     C89119  -0.569   3.735   6.761  0.1002  0.2831  0.2510
  661MOL0     C89120  -0.702   3.683   6.721 -0.3245  0.1442  0.3552
  661MOL0     C89121  -0.800   3.803   6.735 -0.2726 -0.3518 -0.0010
  661MOL0     C89122  -0.848   3.826   6.882 -0.4697 -0.3813  0.8738
  661MOL0     C89123  -0.948   3.712   6.922 -0.1170  0.1117  0.1302
  661MOL0     O89124  -1.018   3.748   7.036  0.3753 -0.3629  0.1524
  661MOL0     C89125  -1.149   3.729   7.033  0.1960 -0.7915 -0.7786
  661MOL0     C89126  -1.209   3.606   7.069 -0.0985 -0.9877 -0.0031
  661MOL0     C89127  -1.344   3.593   7.072  0.4208  0.9979 -0.3093
  661MOL0     C89128  -1.399   3.457   7.115  0.9755 -0.8460 -0.8757
  661MOL0     C89129  -1.432   3.702   7.046 -0.1256 -0.4273 -0.7207
  661MOL0     C89130  -1.586   3.699   7.064 -0.2481 -0.4573  0.0576
  661MOL0     O89131  -1.657   3.818   7.095 -0.1832 -0.0476 -0.4827
  661MOL0     C89132  -1.792   3.820   7.105  0.7104  0.3874  0.0554
  661MOL0     C89133  -1.865   3.887   7.002 -0.1362 -0.1350 -0.2938
  661MOL0     C89134  -2.008   3.905   7.010  0.2017 -0.1485 -0.8001
  661MOL0     C89135  -2.077   3.842   7.109  0.1580  1.0059 -0.1681
  661MOL0     O89136  -2.212   3.850   7.125 -0.5529 -0.0224  0.0801
  661MOL0     C89137  -2.288   3.886   7.012  0.2772 -0.2333  0.2792
  661MOL0     C89138  -2.434   3.879   7.069  0.6483 -0.5260  0.3295
  661MOL0     C89139  -2.535   3.919   6.957  0.0563 -0.0175  0.0850
  661MOL0     C89140  -2.676   3.887   7.006 -0.1407 -0.2980  0.7920
  661MOL0     C89141  -2.773   3.992   6.972 -0.6933  0.4764  0.6662
  661MOL0     C89142  -2.901   3.940   7.034  0.3839  0.2473  0.2752
  661MOL0     C89143  -3.024   4.020   6.995  0.6748 -0.9651  0.5817
  661MOL0     C89144  -3.073   4.025   6.846  0.3815  0.5581 -0.2825
  661MOL0    Cl89145  -3.216   4.127   6.816  0.1916  0.2031  0.4398
  661MOL0     C89146  -2.007   3.779   7.212  0.0781  0.5510 -0.0548
  661MOL0     C89147  -1.869   3.765   7.210 -0.5858 -0.3381  0.9006
  661MOL0     O89148  -1.641   3.594   7.043  0.5159 -0.2097  0.5561
  661MOL0     C89149  -1.364   3.825   7.026  0.0319 -1.0545  0.0370
  661MOL0     C89150  -1.228   3.841   7.006 -0.8564  0.6110  0.6900
  661MOL0     N89151  -0.516   3.752   6.890  0.8933 -1.0005  0.3305
  661MOL0     N89152  -0.391   3.784   6.874  0.2894 -0.1496  0.1725
  661MOL0     C89153   0.401   4.817   6.661 -0.6916  0.0287  0.7224
  661MOL0     C89154   0.536   4.871   6.655  0.2495  0.3567 -0.4950
  661MOL0     C89155   0.979   4.859   6.649  0.0769 -0.7045  0.4992
  661MOL0     C89156   1.046   4.879   6.532 -0.1402 -0.8153  0.7646
  661MOL0     C89157   1.173   4.920   6.526 -0.2581 -0.6903  0.6188
  661MOL0     C89158   1.249   4.941   6.644  0.0586 -0.0222  0.4059
  661MOL0     O89159   1.376   4.980   6.631  0.3105 -0.8571  0.6228
  661MOL0     C89160   1.463   4.923   6.725 -0.0924  0.2294  0.4395
  661MOL0     C89161   1.607   4.962   6.695  0.2228  0.1175 -0.3572
  661MOL0     C89162   1.673   4.884   6.591 -0.3002  0.1150 -0.2099
  661MOL0     C89163   1.792   4.959   6.543  0.5561  0.5235 -0.2880
  661MOL0     C89164   1.889   4.981   6.656  0.1051  0.2472 -0.6388
  661MOL0     C89165   1.966   4.981   6.750 -1.0535  0.2984  0.6223
  661MOL0     C89166   1.184   4.914   6.766 -0.1758 -0.2474 -0.1676
  661MOL0     C89167   1.049   4.886   6.770  1.1852  0.1406  0.0480
  661MOL0     H89168   0.675   4.731   6.928  0.4081 -0.6893 -1.2992
  661MOL0     H89169   0.443   4.617   6.936  0.6502 -0.0445 -0.2858
  661MOL0     H89170   0.298   4.559   6.579  3.0807  0.0203  0.2585
  661MOL0     H89171   0.327   4.470   6.725 -0.1943  0.0422 -0.6612
  661MOL0     H89172   0.077   4.478   6.776  2.3024  0.0453  0.4501
  661MOL0     H89173   0.040   4.514   6.608 -0.8824  3.1286  1.8517
  661MOL0     H89174   0.150   4.306   6.548 -0.9147  1.6629 -0.7804
  661MOL0     H89175   0.191   4.269   6.721 -1.3981  0.9546  2.2558
  661MOL0     H89176  -0.079   4.318   6.749 -0.3995 -0.8047  1.4306
  661MOL0     H89177  -0.075   4.270   6.567 -0.3931  0.0078  0.3702
  661MOL0     H89178   0.057   4.075   6.639  0.6845 -2.5480  1.0935
  661MOL0     H89179   0.019   4.113   6.805 -1.4017  0.5833  0.6072
  661MOL0     H89180  -0.235   4.094   6.747 -0.2427  1.3917 -1.1272
  661MOL0     H89181  -0.174   4.052   6.590 -1.0115  4.3802  1.0181
  661MOL0     H89182  -0.031   3.882   6.745  0.3932  2.1213 -1.1940
  661MOL0     H89183  -0.157   3.905   6.864 -1.3297  1.1716  0.0575
  661MOL0     H89184  -0.189   3.709   6.693 -0.9433 -0.1776  2.5159
  661MOL0     H89185  -0.248   3.829   6.578  1.0865  4.3428 -0.0846
  661MOL0     H89186  -0.490   3.762   6.563  1.8813 -0.1958  0.2621
  661MOL0     H89187  -0.692   3.663   6.614  1.5853  0.0834  0.4986
  661MOL0     H89188  -0.739   3.603   6.786  0.6438  1.3628  2.5120
  661MOL0     H89189  -0.887   3.795   6.669  1.2253  2.3013 -2.5588
  661MOL0     H89190  -0.743   3.887   6.695  0.4493  0.3649  2.3737
  661MOL0     H89191  -0.902   3.921   6.887  0.6221  0.1982  2.2105
  661MOL0     H89192  -0.761   3.840   6.946  0.7561 -1.1164 -0.5780
  661MOL0     H89193  -0.897   3.616   6.937 -1.7024 -1.2553 -2.5487
  661MOL0     H89194  -1.017   3.690   6.840 -2.6850 -1.5780  2.5813
  661MOL0     H89195  -1.160   3.518   7.109  0.6399 -0.5590  0.0524
  661MOL0     H89196  -1.325   3.379   7.099  1.9168  0.4355 -3.2018
  661MOL0     H89197  -1.408   3.466   7.224 -0.3544 -0.6748 -0.9863
  661MOL0     H89198  -1.491   3.422   7.067 -0.4563 -0.3096  1.3296
  661MOL0     H89199  -1.804   3.930   6.923  1.9369 -1.0481  0.7446
  661MOL0     H89200  -2.047   3.965   6.929 -1.0931 -0.0822 -0.1536
  661MOL0     H89201  -2.250   3.987   6.992  3.5148 -0.7672  2.6835
  661MOL0     H89202  -2.266   3.820   6.928  1.6275  1.5757 -0.8676
  661MOL0     H89203  -2.458   3.777   7.102 -0.8818 -0.4630 -0.4958
  661MOL0     H89204  -2.440   3.947   7.155  1.3381 -0.4337  0.3048
  661MOL0     H89205  -2.521   3.866   6.863 -1.8929 -2.2670  0.9677
  661MOL0     H89206  -2.519   4.027   6.954 -0.6867  0.1628  1.6436
  661MOL0     H89207  -2.701   3.797   6.949 -0.2051  0.6788 -0.7817
  661MOL0     H89208  -2.679   3.874   7.114 -1.0137 -1.1678  0.6700
  661MOL0     H89209  -2.780   3.993   6.863  0.8611  2.0649  0.5415
  661MOL0     H89210  -2.743   4.088   7.014  1.7118  0.3000 -0.5072
  661MOL0     H89211  -2.926   3.834   7.025  1.6009  0.0232 -0.7169
  661MOL0     H89212  -2.895   3.966   7.140 -0.1158  2.8866 -0.2691
  661MOL0     H89213  -3.001   4.123   7.023  0.6791 -0.7133 -0.3214
  661MOL0     H89214  -3.105   3.983   7.058 -1.5946 -1.1510 -2.2487
  661MOL0     H89215  -3.091   3.925   6.806 -0.7993  0.4708  0.4270
  661MOL0     H89216  -2.988   4.062   6.788 -0.8179  0.5849 -2.1063
  661MOL0     H89217  -2.065   3.747   7.298  0.3894  0.1123 -0.0076
  661MOL0     H89218  -1.812   3.729   7.295 -0.4851 -0.6146  0.7156
  661MOL0     H89219  -1.436   3.906   7.021  0.2178 -0.9423 -0.8271
  661MOL0     H89220  -1.179   3.932   6.972 -2.1934  1.0435 -0.2085
  661MOL0     H89221   0.319   4.851   6.598 -1.2684 -2.6656 -0.0749
  661MOL0     H89222   0.573   4.941   6.581 -0.7876  0.7868 -0.6282
  661MOL0     H89223   0.992   4.866   6.438  0.7886 -1.8365  0.3485
  661MOL0     H89224   1.230   4.943   6.437  1.3412 -0.3693  1.6790
  661MOL0     H89225   1.442   4.954   6.828  0.6097  1.3499  0.2709
  661MOL0     H89226   1.455   4.814   6.716 -1.9146  0.4881 -2.2636
  661MOL0     H89227   1.671   4.952   6.783  0.8172  0.5559 -0.7295
  661MOL0     H89228   1.611   5.067   6.663 -0.8870  0.0968 -0.5759
  661MOL0     H89229   1.606   4.877   6.505  1.1366  1.8664 -1.5678
  661MOL0     H89230   1.702   4.782   6.616  1.0273  0.2536 -1.0521
  661MOL0     H89231   1.768   5.051   6.490  1.3469  0.9866  0.1345
  661MOL0     H89232   1.845   4.899   6.469  0.2890  2.9265 -2.5961
  661MOL0     H89233   2.039   4.986   6.828  1.0529  0.5857 -1.2645
  661MOL0     H89234   1.228   4.929   6.865 -0.9514 -0.3209  0.1947
  661MOL0     H89235   0.997   4.875   6.864 -0.1742  2.4130 -0.3563
  662MOL0     O89236   7.396   9.964   9.187  0.1695 -0.1199  0.2515
  662MOL0     C89237   7.449   9.857   9.162 -0.6098 -0.8351  0.0320
  662MOL0     O89238   7.388   9.733   9.162  0.3600  0.0212  0.1341
  662MOL0     C89239   7.259   9.725   9.191 -0.6122  0.8656 -0.1795
  662MOL0     C89240   7.228   9.608   9.260  0.2562 -1.0240 -0.0988
  662MOL0     C89241   7.098   9.573   9.294  0.3763  1.0658 -0.5768
  662MOL0     C89242   6.990   9.665   9.253  0.2697  0.0696 -0.4050
  662MOL0     O89243   6.864   9.642   9.300 -0.1686  0.7907  0.0971
  662MOL0     C89244   6.746   9.701   9.235  0.3031  0.5052  0.0783
  662MOL0     C89245   6.624   9.646   9.317  0.8324 -0.5695  0.3386
  662MOL0     C89246   6.492   9.682   9.266  0.1284 -0.5372  0.2854
  662MOL0     C89247   6.451   9.825   9.303  0.1108  0.3523  0.2104
  662MOL0     C89248   6.396   9.829   9.444 -0.0697  0.1796  0.0480
  662MOL0     C89249   6.374   9.970   9.495  0.5684  0.3247 -1.3650
  662MOL0     C89250   6.316   9.980   9.643  0.1367  0.4814 -0.3712
  662MOL0     C89251   6.304  10.136   9.673  0.1258 -0.1816  0.0068
  662MOL0     N89252   6.421  10.218   9.672  0.5910 -0.1866 -0.0305
  662MOL0     C89253   6.548  10.186   9.718 -0.4263  0.4125 -0.9254
  662MOL0     C89254   6.628  10.295   9.693  0.0826 -0.1703  0.7917
  662MOL0     C89255   6.769  10.299   9.720  0.0062  0.1109 -0.2006
  662MOL0     C89256   6.786  10.380   9.856  0.4718 -0.2244 -0.1763
  662MOL0     C89257   6.714  10.311   9.974  0.7671 -0.5599  0.3348
  662MOL0     C89258   6.774  10.349  10.106  0.4757 -0.3170 -0.2581
  662MOL0     O89259   6.675  10.311  10.205 -0.0196 -0.2124 -0.2922
  662MOL0     C89260   6.642  10.174  10.228  0.6901 -0.4712 -0.3832
  662MOL0     C89261   6.739  10.072  10.254  0.1723 -0.2639 -0.6232
  662MOL0     C89262   6.697   9.951  10.309 -0.9383  1.2682 -0.4264
  662MOL0     C89263   6.809   9.853  10.341 -0.4963 -0.4014  0.7900
  662MOL0     C89264   6.559   9.921  10.324  0.2736  0.0139  1.2654
  662MOL0     C89265   6.501   9.793  10.358  0.4196  0.1411 -0.5158
  662MOL0     O89266   6.368   9.785  10.366  0.3445 -0.2532  0.0212
  662MOL0     C89267   6.318   9.656  10.378 -0.2950 -0.4200  1.2606
  662MOL0     C89268   6.288   9.593  10.501  0.1844  0.9863  0.6721
  662MOL0     C89269   6.254   9.456  10.512  0.0657 -0.0405 -1.2341
  662MOL0     C89270   6.240   9.385  10.394 -0.4517 -0.0046  0.0468
  662MOL0     O89271   6.193   9.258  10.403  0.1173  0.8594 -0.3398
  662MOL0     C89272   6.242   9.179  10.517  0.6867 -1.4386 -0.2465
  662MOL0     C89273   6.255   9.026  10.487  0.3205 -0.4056 -0.1051
  662MOL0     C89274   6.397   8.957  10.488  0.9239  0.2461 -0.2975
  662MOL0     C89275   6.461   8.939  10.622 -0.1176  0.0498  0.3024
  662MOL0     C89276   6.608   8.897  10.614  0.2328 -0.5784 -0.0642
  662MOL0     C89277   6.642   8.841  10.748 -0.0441 -0.1340 -0.5291
  662MOL0     C89278   6.790   8.842  10.790 -0.3041  0.8423  0.1592
  662MOL0     C89279   6.796   8.820  10.939  0.1199 -0.8054 -0.1068
  662MOL0    Cl89280   6.717   8.951  11.036  0.4835 -0.4542  0.0208
  662MOL0     C89281   6.253   9.450  10.269  0.3079 -0.0747 -0.3108
  662MOL0     C89282   6.292   9.589  10.259 -0.0902 -1.0430 -0.1199
  662MOL0     O89283   6.580   9.700  10.376  0.1461 -0.2599  0.1979
  662MOL0     C89284   6.469  10.035  10.309  0.1025 -0.3590 -0.7493
  662MOL0     C89285   6.516  10.156  10.257 -0.4307 -0.1699 -0.6455
  662MOL0     N89286   6.545  10.386   9.624  0.8942 -0.3892  0.2047
  662MOL0     N89287   6.426  10.333   9.613  0.8571 -0.1430  0.5095
  662MOL0     C89288   7.015   9.782   9.184 -0.2709 -0.1289  0.0637
  662MOL0     C89289   7.151   9.813   9.155  0.1166 -0.0227  0.7802
  662MOL0     C89290   7.595   9.858   9.156 -0.2026 -0.1126 -0.6991
  662MOL0     C89291   7.663   9.752   9.103  0.3637 -0.1644 -0.1681
  662MOL0     C89292   7.798   9.743   9.119 -0.4125 -1.0071  0.1361
  662MOL0     C89293   7.874   9.849   9.165  0.0289 -1.0037 -0.7137
  662MOL0     O89294   8.013   9.835   9.160 -0.2712  0.5435 -0.3727
  662MOL0     C89295   8.090   9.949   9.175 -0.0425 -0.7637  0.5650
  662MOL0     C89296   8.126   9.989   9.312  0.4873 -0.4589 -0.6256
  662MOL0     C89297   8.150   9.861   9.407 -0.2198  0.2149  1.8101
  662MOL0     C89298   8.263   9.766   9.347 -0.5545  0.1093  0.1095
  662MOL0     C89299   8.396   9.835   9.308 -0.0148  0.2018 -0.3779
  662MOL0     C89300   8.499   9.888   9.272 -0.6581  0.5548 -0.4276
  662MOL0     C89301   7.802   9.958   9.211 -0.1493 -0.8093 -0.3084
  662MOL0     C89302   7.661   9.966   9.213 -0.6426 -0.2413 -0.5080
  662MOL0     H89303   7.316   9.554   9.296 -0.4417 -1.3811  1.1427
  662MOL0     H89304   7.081   9.488   9.359  4.2298  1.3484  1.0491
  662MOL0     H89305   6.759   9.809   9.248  2.4640  0.3565 -0.3409
  662MOL0     H89306   6.734   9.677   9.129  0.3297  0.7045  0.0290
  662MOL0     H89307   6.606   9.538   9.319 -2.2465 -0.1250  0.9343
  662MOL0     H89308   6.642   9.680   9.420 -1.0265  3.4854 -0.4783
  662MOL0     H89309   6.487   9.676   9.157 -0.0512 -1.2401  0.3305
  662MOL0     H89310   6.411   9.617   9.301 -2.1685  0.9521 -1.9191
  662MOL0     H89311   6.527   9.904   9.294 -1.2327  1.9193  1.7454
  662MOL0     H89312   6.368   9.849   9.236  0.2117 -2.3196 -0.9804
  662MOL0     H89313   6.305   9.768   9.449  0.1202 -0.0597  0.6145
  662MOL0     H89314   6.463   9.784   9.517 -1.1489  0.7676  1.4364
  662MOL0     H89315   6.464  10.032   9.493  0.1451  0.9325 -1.7551
  662MOL0     H89316   6.303  10.018   9.428 -0.7683  0.3200 -0.0209
  662MOL0     H89317   6.222   9.924   9.646  0.6720 -0.4092  0.5015
  662MOL0     H89318   6.386   9.931   9.711 -0.2408 -0.4838 -0.6524
  662MOL0     H89319   6.267  10.145   9.776 -3.6048  2.2106 -1.3639
  662MOL0     H89320   6.227  10.186   9.614 -1.2016 -0.1774  1.6458
  662MOL0     H89321   6.579  10.104   9.782  2.2743  2.8480  1.1887
  662MOL0     H89322   6.817  10.201   9.708 -0.2612 -0.2056  1.1485
  662MOL0     H89323   6.817  10.361   9.644  0.8605 -1.4719 -1.0050
  662MOL0     H89324   6.745  10.479   9.832  2.7182  0.8138  0.0099
  662MOL0     H89325   6.890  10.390   9.888  0.3556 -1.8136  0.7757
  662MOL0     H89326   6.721  10.203   9.962 -3.0530 -0.9707  0.7178
  662MOL0     H89327   6.612  10.350   9.972  0.4816 -1.1713  2.0521
  662MOL0     H89328   6.800  10.455  10.114  2.6708 -0.8359  0.2446
  662MOL0     H89329   6.868  10.295  10.116  0.0607 -0.9305  0.4396
  662MOL0     H89330   6.839  10.095  10.220  0.8887  1.0224  2.1271
  662MOL0     H89331   6.825   9.772  10.270 -0.1416  0.4372 -0.1175
  662MOL0     H89332   6.904   9.907  10.351 -0.7937  1.3781 -3.6222
  662MOL0     H89333   6.788   9.809  10.439 -1.4030  0.8666  1.1923
  662MOL0     H89334   6.298   9.653  10.591 -3.5505 -0.7819  2.4689
  662MOL0     H89335   6.236   9.420  10.613  0.5213  0.4383 -0.9788
  662MOL0     H89336   6.336   9.222  10.553 -0.4089 -0.4224  1.5687
  662MOL0     H89337   6.171   9.212  10.594 -0.4797  3.2781 -2.9470
  662MOL0     H89338   6.198   8.969  10.561 -2.4939  0.7927 -1.2297
  662MOL0     H89339   6.210   9.020  10.388 -0.0802  0.4084  0.0179
  662MOL0     H89340   6.473   9.015  10.435  3.0086 -0.0331  2.2279
  662MOL0     H89341   6.383   8.858  10.445  1.1161 -1.3244  2.9901
  662MOL0     H89342   6.464   9.038  10.669 -1.7810 -0.0569  0.6610
  662MOL0     H89343   6.396   8.882  10.689 -0.9401  3.6375  2.8361
  662MOL0     H89344   6.665   8.985  10.581  0.5882 -1.0526 -0.7307
  662MOL0     H89345   6.633   8.821  10.540  0.1464 -1.2148  0.5449
  662MOL0     H89346   6.587   8.897  10.824 -0.5894 -0.0087 -1.0132
  662MOL0     H89347   6.621   8.734  10.758  2.7453 -0.5940  2.1128
  662MOL0     H89348   6.851   8.929  10.764  2.3480 -0.7243  0.8453
  662MOL0     H89349   6.835   8.761  10.734 -0.1720  2.5017 -2.2804
  662MOL0     H89350   6.898   8.803  10.976  0.4014  4.5430  2.6724
  662MOL0     H89351   6.747   8.725  10.960  0.9436 -1.1766  0.2028
  662MOL0     H89352   6.225   9.397  10.178 -1.3899  1.0168 -0.4720
  662MOL0     H89353   6.305   9.628  10.159  2.5983 -1.8869 -0.1974
  662MOL0     H89354   6.363  10.031  10.332  0.9595 -1.9186  3.9053
  662MOL0     H89355   6.442  10.235  10.254 -2.4532 -2.0017 -1.6666
  662MOL0     H89356   6.948   9.863   9.157  1.7095  1.0585 -1.5756
  662MOL0     H89357   7.189   9.902   9.105  1.8564 -0.1429  1.8186
  662MOL0     H89358   7.615   9.675   9.043  1.3235  0.0647 -1.2566
  662MOL0     H89359   7.843   9.650   9.086 -0.1290 -2.0927  3.2013
  662MOL0     H89360   8.184   9.936   9.121  0.1491 -3.4030  1.4013
  662MOL0     H89361   8.035  10.026   9.120 -1.7528 -4.7204 -3.9162
  662MOL0     H89362   8.048  10.055   9.351  4.2817  2.0308  3.7949
  662MOL0     H89363   8.215  10.052   9.320 -0.3697  0.6980  0.3043
  662MOL0     H89364   8.064   9.793   9.416  1.8991 -2.4630  3.5051
  662MOL0     H89365   8.170   9.887   9.512  0.1546  0.6136  1.6426
  662MOL0     H89366   8.219   9.722   9.257 -1.3695  2.7050 -0.8808
  662MOL0     H89367   8.288   9.693   9.424 -2.8560  0.5785  1.4075
  662MOL0     H89368   8.590   9.935   9.243  0.0851  0.7527  1.9681
  662MOL0     H89369   7.842  10.048   9.256 -1.2829 -0.5911  0.2811
  662MOL0     H89370   7.610  10.054   9.252 -0.1675 -0.6166  1.0129
  663MOL0     O89371   6.732  10.220  11.246 -0.5609 -0.9081  0.3798
  663MOL0     C89372   6.674  10.255  11.147 -0.0276  0.4007  0.7715
  663MOL0     O89373   6.543  10.295  11.139  0.1965 -0.3967  0.0515
  663MOL0     C89374   6.472  10.324  11.252 -0.3303  0.7405  0.0610
  663MOL0     C89375   6.462  10.231  11.354 -0.0651 -0.7841  0.1709
  663MOL0     C89376   6.364  10.257  11.457 -0.8861  0.1335  0.1232
  663MOL0     C89377   6.280  10.358  11.451  1.1840 -0.5847 -0.2839
  663MOL0     O89378   6.175  10.390  11.541  1.2232 -0.1767  0.1424
  663MOL0     C89379   6.085  10.286  11.585 -0.8722 -0.4345  0.7064
  663MOL0     C89380   5.975  10.366  11.656  1.0354  0.2547 -0.0610
  663MOL0     C89381   5.881  10.444  11.559  0.1465 -0.2707  0.3456
  663MOL0     C89382   5.766  10.500  11.638  0.0102 -0.7546  0.0005
  663MOL0     C89383   5.681  10.585  11.545 -0.8639  0.7455  0.8520
  663MOL0     C89384   5.543  10.622  11.601  0.3812 -1.0825  0.5283
  663MOL0     C89385   5.553  10.735  11.698 -0.4801  0.4553 -0.1178
  663MOL0     C89386   5.632  10.861  11.658  0.2474 -0.2328  0.6732
  663MOL0     N89387   5.556  10.924  11.542  0.2828  0.3262 -0.6237
  663MOL0     C89388   5.441  10.993  11.557  0.2485 -0.5380 -0.4315
  663MOL0     C89389   5.386  11.011  11.427  0.0352 -0.4891 -0.6465
  663MOL0     C89390   5.262  11.071  11.372 -0.0593 -0.1829  0.6744
  663MOL0     C89391   5.208  11.190  11.465 -0.0723  0.1821  0.1025
  663MOL0     C89392   5.061  11.209  11.461  0.8826  0.4629 -0.0833
  663MOL0     C89393   4.992  11.253  11.332  0.3765  0.2040  0.7497
  663MOL0     O89394   4.987  11.136  11.251 -0.4880  0.2002  0.3168
  663MOL0     C89395   4.861  11.109  11.209 -0.3971 -0.8765 -0.4970
  663MOL0     C89396   4.771  11.056  11.303  0.1815 -1.1464 -1.0155
  663MOL0     C89397   4.640  11.026  11.277 -0.5573 -0.2147  0.2947
  663MOL0     C89398   4.561  10.980  11.390 -0.1671  0.6899 -1.1884
  663MOL0     C89399   4.588  11.051  11.142  0.1646 -0.2044 -1.2914
  663MOL0     C89400   4.454  11.017  11.095  0.2589  0.2693  0.6184
  663MOL0     O89401   4.433  11.009  10.959 -0.3742 -0.8964  0.5231
  663MOL0     C89402   4.320  10.945  10.919  0.3606 -0.0902  0.2771
  663MOL0     C89403   4.201  11.009  10.907  1.3134  0.3556 -0.1023
  663MOL0     C89404   4.082  10.948  10.866  0.1657  0.0033 -0.0060
  663MOL0     C89405   4.086  10.813  10.825 -0.3003  0.1322 -0.1046
  663MOL0     O89406   3.967  10.749  10.793  0.3673  0.1901  0.2991
  663MOL0     C89407   3.960  10.621  10.733 -1.1202 -0.3740  0.6235
  663MOL0     C89408   3.941  10.508  10.826 -0.3851 -0.2548 -0.1816
  663MOL0     C89409   3.789  10.479  10.854  0.3923 -0.4737  0.2846
  663MOL0     C89410   3.751  10.335  10.888 -0.7449  0.1545  0.1316
  663MOL0     C89411   3.601  10.343  10.903  0.4434  0.6980  0.0113
  663MOL0     C89412   3.535  10.203  10.926  0.6694  0.0455  0.0085
  663MOL0     C89413   3.405  10.205  10.861 -0.2325 -0.3499 -0.1716
  663MOL0     C89414   3.324  10.093  10.916  0.0263  0.5101  0.4961
  663MOL0    Cl89415   3.189  10.062  10.808 -0.0885 -0.4936 -0.0759
  663MOL0     C89416   4.210  10.753  10.832 -0.1232 -0.1554  0.2521
  663MOL0     C89417   4.324  10.812  10.884 -0.2789 -0.1275  1.0097
  663MOL0     O89418   4.362  10.994  11.181 -0.6909 -0.1471  0.2037
  663MOL0     C89419   4.682  11.108  11.055  0.4092  0.5698 -0.4111
  663MOL0     C89420   4.810  11.143  11.084 -1.1548 -0.1080  0.6603
  663MOL0     N89421   5.487  10.960  11.345 -0.1022  0.5402 -0.7448
  663MOL0     N89422   5.582  10.900  11.410 -0.2707  0.6210  0.1700
  663MOL0     C89423   6.295  10.454  11.347  0.2348  0.1980 -0.2662
  663MOL0     C89424   6.388  10.436  11.252  0.1435 -0.5027  0.6232
  663MOL0     C89425   6.750  10.245  11.017 -0.5242  1.4349 -0.0098
  663MOL0     C89426   6.685  10.264  10.893 -0.9044  1.2096  0.0136
  663MOL0     C89427   6.764  10.247  10.780 -0.8411 -0.0152 -0.1680
  663MOL0     C89428   6.902  10.231  10.785  0.3082 -0.3114 -0.2398
  663MOL0     O89429   6.966  10.183  10.672 -0.1589 -0.4483 -0.4153
  663MOL0     C89430   6.948  10.245  10.550 -0.3481 -0.1110 -0.0389
  663MOL0     C89431   6.966  10.397  10.564 -0.1603  0.6294 -0.1698
  663MOL0     C89432   6.938  10.448  10.426  0.1519 -0.7949  1.0368
  663MOL0     C89433   6.992  10.588  10.406 -0.6183  0.8081 -0.2434
  663MOL0     C89434   6.963  10.647  10.280  1.2870  0.4941 -0.1511
  663MOL0     C89435   6.929  10.700  10.184  0.6475  0.9615  0.1410
  663MOL0     C89436   6.962  10.233  10.914 -0.0620  0.4399 -0.4433
  663MOL0     C89437   6.884  10.239  11.027 -0.4791 -0.4908 -0.4683
  663MOL0     H89438   6.518  10.138  11.346 -1.1342 -1.3456 -1.2490
  663MOL0     H89439   6.365  10.185  11.539  0.8248 -0.8158 -0.6830
  663MOL0     H89440   6.036  10.245  11.496 -1.1178  1.9886 -0.3452
  663MOL0     H89441   6.141  10.215  11.647  0.6312 -0.1124 -0.2319
  663MOL0     H89442   5.919  10.292  11.714  1.2952  0.1082  0.0082
  663MOL0     H89443   6.015  10.435  11.731  1.7532  0.9153 -1.0173
  663MOL0     H89444   5.937  10.523  11.508 -0.0124 -1.0061 -1.0041
  663MOL0     H89445   5.839  10.380  11.481 -1.4467  1.5776 -0.3836
  663MOL0     H89446   5.718  10.415  11.687  0.6711 -1.4610 -0.5442
  663MOL0     H89447   5.816  10.572  11.703  4.0036  1.0341 -4.4450
  663MOL0     H89448   5.742  10.663  11.497 -0.9267  0.7326  0.7506
  663MOL0     H89449   5.646  10.523  11.462 -2.2657  3.2119 -0.5304
  663MOL0     H89450   5.482  10.661  11.519  1.1596 -0.4622  0.2346
  663MOL0     H89451   5.491  10.536  11.644 -2.6790 -0.7215 -2.0407
  663MOL0     H89452   5.453  10.760  11.735 -0.6402  1.4154 -1.1467
  663MOL0     H89453   5.595  10.698  11.792  2.2185  2.5617 -0.3821
  663MOL0     H89454   5.734  10.843  11.625 -0.3122 -0.0364 -1.2733
  663MOL0     H89455   5.629  10.928  11.745  0.5206 -0.0154  0.5159
  663MOL0     H89456   5.394  11.016  11.652  1.2773  2.3564 -0.5448
  663MOL0     H89457   5.282  11.116  11.274 -0.1098  1.4519  1.3817
  663MOL0     H89458   5.187  10.992  11.362 -0.3456 -0.0235  1.4858
  663MOL0     H89459   5.260  11.284  11.444 -1.3324  0.4959 -1.9261
  663MOL0     H89460   5.236  11.158  11.565  0.6253  3.8073  1.2091
  663MOL0     H89461   5.041  11.290  11.532  2.1598 -0.4325  1.3636
  663MOL0     H89462   5.016  11.120  11.506  0.3622  0.8730  0.2269
  663MOL0     H89463   5.048  11.335  11.286  2.9860 -0.6394  2.1866
  663MOL0     H89464   4.893  11.291  11.358  0.0144 -0.0839 -0.1716
  663MOL0     H89465   4.801  11.048  11.407 -0.9090 -0.7680 -0.6622
  663MOL0     H89466   4.619  10.952  11.478 -4.3222 -0.1023  1.6185
  663MOL0     H89467   4.485  11.052  11.424 -1.7919 -0.5691 -2.0053
  663MOL0     H89468   4.514  10.883  11.373  1.8314 -0.5795  0.0710
  663MOL0     H89469   4.201  11.115  10.930  3.4283 -0.0352  2.0735
  663MOL0     H89470   3.991  11.005  10.853 -0.8530 -1.9996 -2.5163
  663MOL0     H89471   3.872  10.615  10.668 -0.9381 -1.5874  0.4649
  663MOL0     H89472   4.051  10.601  10.676  1.9730  3.0318  3.8008
  663MOL0     H89473   3.977  10.418  10.776 -0.9805 -0.0628 -0.9787
  663MOL0     H89474   4.007  10.525  10.912 -0.5867  0.8702 -0.2337
  663MOL0     H89475   3.728  10.517  10.771  0.0567  1.8106  1.4829
  663MOL0     H89476   3.770  10.546  10.939  0.7003  0.6962 -0.5529
  663MOL0     H89477   3.771  10.266  10.805 -0.1259 -0.2984  0.6488
  663MOL0     H89478   3.807  10.294  10.972 -0.2235  0.9865  0.1996
  663MOL0     H89479   3.551  10.385  10.815 -2.2674 -1.0039  0.5800
  663MOL0     H89480   3.577  10.404  10.990 -2.0078  1.4945 -1.1368
  663MOL0     H89481   3.599  10.129  10.879  1.2271  0.9979 -0.7603
  663MOL0     H89482   3.528  10.186  11.034 -0.8006 -1.2643 -0.2607
  663MOL0     H89483   3.421  10.198  10.753 -1.9090  4.0766 -0.8785
  663MOL0     H89484   3.360  10.302  10.882  3.4201  1.8693 -1.6947
  663MOL0     H89485   3.280  10.113  11.014 -3.0025  0.8913 -0.8349
  663MOL0     H89486   3.391  10.006  10.910  0.3013  0.6889  0.9633
  663MOL0     H89487   4.213  10.650  10.798 -1.2504 -0.1890  0.2061
  663MOL0     H89488   4.418  10.760  10.899  1.2091  2.2396  0.5233
  663MOL0     H89489   4.644  11.119  10.954 -0.8935  1.2794  0.1443
  663MOL0     H89490   4.869  11.192  11.007 -0.5971 -0.1835  1.0372
  663MOL0     H89491   6.219  10.531  11.346 -0.0653 -0.0827  0.5739
  663MOL0     H89492   6.397  10.498  11.163 -1.4520 -0.6094  0.3589
  663MOL0     H89493   6.579  10.283  10.884 -1.3903 -1.8583 -4.2741
  663MOL0     H89494   6.712  10.226  10.687 -0.6758 -3.2985  0.3328
  663MOL0     H89495   6.992  10.185  10.469 -4.7415 -1.4648 -1.7762
  663MOL0     H89496   6.846  10.220  10.518 -0.9189  2.0738 -0.0841
  663MOL0     H89497   7.065  10.418  10.604 -0.7924  0.6727  1.4657
  663MOL0     H89498   6.895  10.450  10.629 -1.6631 -1.4137 -0.0208
  663MOL0     H89499   6.832  10.468  10.411  0.5875  1.8421  0.9800
  663MOL0     H89500   6.975  10.388  10.342 -0.8287  4.4231 -3.7258
  663MOL0     H89501   7.099  10.598  10.425 -0.4474  0.7392 -1.1138
  663MOL0     H89502   6.938  10.642  10.484  0.6622 -0.6749  1.7450
  663MOL0     H89503   6.893  10.743  10.093 -0.0921  1.2934  0.5840
  663MOL0     H89504   7.070  10.224  10.918 -0.1919 -1.0233  0.7826
  663MOL0     H89505   6.942  10.236  11.119 -0.1253 -1.4790 -0.7192
  664MOL0     O89506   5.766   0.725   0.449 -0.6294 -0.5657 -0.7536
  664MOL0     C89507   5.833   0.773   0.357  0.9765  0.1777  0.6211
  664MOL0     O89508   5.781   0.852   0.257 -0.1752  0.6871 -0.5367
  664MOL0     C89509   5.650   0.891   0.252  0.2040  0.5092 -0.1236
  664MOL0     C89510   5.544   0.798   0.261 -0.3388 -0.2182  0.3975
  664MOL0     C89511   5.416   0.839   0.252  0.1409  0.5841  0.6602
  664MOL0     C89512   5.376   0.966   0.213  0.4278 -0.8032  0.8617
  664MOL0     O89513   5.248   1.012   0.197 -0.1341  0.3617  0.1313
  664MOL0     C89514   5.159   0.912   0.155 -1.0242 -0.0084 -0.1846
  664MOL0     C89515   5.019   0.970   0.175  0.2464  0.5314  0.1903
  664MOL0     C89516   4.902   0.890   0.113 -0.1887 -0.4464  0.3313
  664MOL0     C89517   4.769   0.961   0.160 -0.6533 -0.9229  0.3193
  664MOL0     C89518   4.653   0.895   0.098  0.5114 -0.3185  0.4082
  664MOL0     C89519   4.520   0.936   0.166  0.6638  0.0558  0.2180
  664MOL0     C89520   4.392   0.888   0.087 -0.3970  0.6582 -0.3389
  664MOL0     C89521   4.270   0.912   0.177  0.1649  0.5911  0.7479
  664MOL0     N89522   4.145   0.870   0.114  0.3253  0.2227 -0.2050
  664MOL0     C89523   4.021   0.884   0.171  0.5899  0.1394 -1.1165
  664MOL0     C89524   3.926   0.881   0.077  0.5123 -0.6115 -0.1457
  664MOL0     C89525   3.771   0.898   0.103  0.3149  0.3672  0.6766
  664MOL0     C89526   3.712   0.788   0.191 -0.2602  0.2758  0.1672
  664MOL0     C89527   3.562   0.781   0.185  0.3794  0.1512 -0.1564
  664MOL0     C89528   3.501   0.657   0.241  0.1643 -0.3645  0.4829
  664MOL0     O89529   3.359   0.665   0.235 -0.0822 -0.5088 -1.0306
  664MOL0     C89530   3.295   0.554   0.271  0.5061 -0.4927 -0.0228
  664MOL0     C89531   3.346   0.425   0.244  0.2296  0.4873 -0.3803
  664MOL0     C89532   3.264   0.319   0.285 -0.7119  0.2086  0.6326
  664MOL0     C89533   3.318   0.185   0.242  0.6572 -0.2439  0.2448
  664MOL0     C89534   3.146   0.342   0.353  0.0402  0.0797 -0.0506
  664MOL0     C89535   3.053   0.232   0.391  1.0362 -0.5467 -0.3345
  664MOL0     O89536   2.956   0.270   0.473 -0.0453 -0.2774 -0.5400
  664MOL0     C89537   2.843   0.198   0.514 -0.4987  0.1217  0.7839
  664MOL0     C89538   2.816   0.069   0.473 -0.8383  0.2573 -0.6692
  664MOL0     C89539   2.698   0.003   0.508 -0.4352  0.3938 -0.0486
  664MOL0     C89540   2.611   0.068   0.600 -0.9174 -0.2623 -0.4718
  664MOL0     O89541   2.490   0.015   0.641  0.4330 -0.9138  0.4070
  664MOL0     C89542   2.444  -0.110   0.590  0.4652  0.1501  0.1279
  664MOL0     C89543   2.308  -0.150   0.648  0.8049 -0.1161  0.9826
  664MOL0     C89544   2.296  -0.202   0.792 -0.8521  0.0109  0.7051
  664MOL0     C89545   2.147  -0.195   0.840 -0.2521 -0.0213  0.3240
  664MOL0     C89546   2.145  -0.227   0.986  0.2275  0.1412 -0.2791
  664MOL0     C89547   1.996  -0.213   1.037  0.0830 -0.1526 -0.2487
  664MOL0     C89548   1.992  -0.280   1.180  0.4690 -0.2692  0.6331
  664MOL0     C89549   1.871  -0.227   1.255 -0.4986  0.6063 -0.0230
  664MOL0    Cl89550   1.724  -0.277   1.164  0.0524  0.1333  0.0819
  664MOL0     C89551   2.639   0.189   0.645 -0.4689  0.4150 -0.4948
  664MOL0     C89552   2.747   0.260   0.592 -0.6441  0.1163 -0.2534
  664MOL0     O89553   3.067   0.118   0.347 -0.4771  0.4641  0.6243
  664MOL0     C89554   3.102   0.478   0.376  1.0744  0.2743  0.1648
  664MOL0     C89555   3.174   0.581   0.338  0.2783 -0.1944  0.0446
  664MOL0     N89556   3.996   0.877  -0.041 -0.5914  0.8969  0.8401
  664MOL0     N89557   4.123   0.870  -0.020 -0.2580 -0.4557 -0.1905
  664MOL0     C89558   5.479   1.062   0.199 -0.3082 -0.5817  0.3706
  664MOL0     C89559   5.612   1.020   0.224 -0.4736  0.0902 -0.0835
  664MOL0     C89560   5.974   0.746   0.349  0.3589  0.8237 -0.3776
  664MOL0     C89561   6.024   0.643   0.428 -0.7181  0.0414  0.1678
  664MOL0     C89562   6.159   0.617   0.418 -0.0497  0.1933 -0.5563
  664MOL0     C89563   6.251   0.686   0.328  0.5592 -0.4317  0.0967
  664MOL0     O89564   6.391   0.660   0.311  0.1522  0.5403 -0.1400
  664MOL0     C89565   6.447   0.563   0.400 -0.2516 -0.1890 -0.1332
  664MOL0     C89566   6.593   0.548   0.391 -0.3640 -0.1012 -0.3869
  664MOL0     C89567   6.629   0.492   0.250  0.9427 -0.6019 -0.2213
  664MOL0     C89568   6.780   0.444   0.227  0.1186 -0.1654  0.6710
  664MOL0     C89569   6.870   0.536   0.277 -0.1183 -0.0898 -0.5867
  664MOL0     C89570   6.943   0.615   0.328 -0.1194 -0.0057  0.7644
  664MOL0     C89571   6.187   0.777   0.242 -0.1044  0.3893 -0.2470
  664MOL0     C89572   6.053   0.806   0.251  0.3042  0.0659 -0.6266
  664MOL0     H89573   5.574   0.694   0.268 -2.9558 -0.9521  1.9753
  664MOL0     H89574   5.340   0.763   0.265 -0.7228  1.3022 -0.0421
  664MOL0     H89575   5.180   0.892   0.049 -1.5328 -0.4779 -0.2030
  664MOL0     H89576   5.156   0.818   0.210 -0.0883 -1.5737 -2.6237
  664MOL0     H89577   5.008   0.990   0.282 -0.6767  0.8367  0.0399
  664MOL0     H89578   5.008   1.072   0.140 -3.0386  0.3525  0.4555
  664MOL0     H89579   4.917   0.896   0.005  1.1450  2.2999  0.5807
  664MOL0     H89580   4.887   0.791   0.158 -3.4878  0.5703  1.8320
  664MOL0     H89581   4.766   0.960   0.270  0.4027 -0.7914  0.3640
  664MOL0     H89582   4.769   1.067   0.135 -2.2363 -1.3571 -1.8171
  664MOL0     H89583   4.646   0.910  -0.010  0.2645  3.3016  0.7857
  664MOL0     H89584   4.657   0.788   0.121  1.3701  0.0914  2.3742
  664MOL0     H89585   4.515   0.886   0.263  3.6725  2.8325  2.0286
  664MOL0     H89586   4.517   1.045   0.181 -2.5016 -0.0533  0.8883
  664MOL0     H89587   4.382   0.951  -0.002 -0.1136  3.4094  1.4301
  664MOL0     H89588   4.405   0.780   0.074 -4.0728  0.1376 -0.7188
  664MOL0     H89589   4.257   1.017   0.206  0.8490  0.6769  0.7587
  664MOL0     H89590   4.278   0.853   0.269  0.7606  0.4886  0.6352
  664MOL0     H89591   4.011   0.898   0.278  0.8484 -0.4344 -1.0131
  664MOL0     H89592   3.760   0.987   0.166  1.1506 -0.7157  2.4575
  664MOL0     H89593   3.711   0.910   0.012 -2.4154  2.7178  2.5871
  664MOL0     H89594   3.745   0.793   0.295 -1.9893  2.2393  0.7057
  664MOL0     H89595   3.740   0.689   0.155  0.5018  0.7434 -0.5543
  664MOL0     H89596   3.538   0.786   0.078  2.0723 -0.0726 -0.5721
  664MOL0     H89597   3.527   0.863   0.248  1.4249  0.0082  0.6336
  664MOL0     H89598   3.535   0.639   0.344  1.3063  1.1114  0.3936
  664MOL0     H89599   3.540   0.576   0.178 -0.3470  1.5073 -2.4178
  664MOL0     H89600   3.443   0.411   0.197 -0.3241 -2.0230 -0.9014
  664MOL0     H89601   3.322   0.115   0.326 -0.7128 -0.5017  0.1244
  664MOL0     H89602   3.238   0.139   0.182 -1.8008 -0.1716  3.1879
  664MOL0     H89603   3.413   0.190   0.189  1.3062 -0.8433  1.3098
  664MOL0     H89604   2.879   0.017   0.401 -0.3825 -0.6114  0.3315
  664MOL0     H89605   2.678  -0.099   0.479  3.4458 -0.4905 -0.2360
  664MOL0     H89606   2.426  -0.094   0.484  0.2656 -3.2969 -0.4656
  664MOL0     H89607   2.521  -0.188   0.598  1.9139  1.6470  1.7445
  664MOL0     H89608   2.248  -0.059   0.647  0.7954  0.0736 -3.7583
  664MOL0     H89609   2.261  -0.214   0.573  1.5833  1.5835 -1.0313
  664MOL0     H89610   2.366  -0.144   0.853 -0.9404 -0.3454  1.1467
  664MOL0     H89611   2.311  -0.310   0.793 -2.0174 -0.3358 -2.8762
  664MOL0     H89612   2.122  -0.089   0.828  0.2165 -0.0432 -1.0304
  664MOL0     H89613   2.081  -0.266   0.789  1.1639 -1.8032  0.8312
  664MOL0     H89614   2.214  -0.158   1.036 -0.8614 -0.0077  1.5528
  664MOL0     H89615   2.179  -0.330   1.002 -1.0506 -0.4374 -1.1315
  664MOL0     H89616   1.971  -0.107   1.052 -0.1712 -0.1777 -0.4727
  664MOL0     H89617   1.923  -0.253   0.966 -1.3362  1.9742 -0.0813
  664MOL0     H89618   2.084  -0.265   1.236  0.9283  0.7714 -0.3632
  664MOL0     H89619   1.980  -0.388   1.166  1.2251 -0.0251 -2.6243
  664MOL0     H89620   1.869  -0.120   1.277 -0.2972  0.6596 -0.2641
  664MOL0     H89621   1.864  -0.281   1.350 -0.6958 -1.1969 -1.0223
  664MOL0     H89622   2.569   0.228   0.719 -1.9160  0.5662 -1.8844
  664MOL0     H89623   2.768   0.361   0.628 -1.7421 -0.2970  1.7266
  664MOL0     H89624   3.001   0.486   0.414 -0.5044  1.0308 -3.6630
  664MOL0     H89625   3.139   0.683   0.354  2.0343  0.5063 -0.3575
  664MOL0     H89626   5.465   1.167   0.179 -1.2685 -0.8990 -0.7663
  664MOL0     H89627   5.690   1.094   0.229  1.4726 -1.4113 -3.8762
  664MOL0     H89628   5.957   0.594   0.498 -0.1820  0.2451  0.8348
  664MOL0     H89629   6.195   0.547   0.493  3.4073  0.5818 -1.6685
  664MOL0     H89630   6.419   0.591   0.502  1.3149  0.7819  0.0562
  664MOL0     H89631   6.403   0.469   0.363  1.5575 -0.3827 -1.9378
  664MOL0     H89632   6.636   0.479   0.464 -0.2647 -1.4522 -1.6807
  664MOL0     H89633   6.641   0.645   0.411  0.0143 -0.0984 -1.2639
  664MOL0     H89634   6.598   0.574   0.184  2.8208  0.2407 -0.1160
  664MOL0     H89635   6.567   0.407   0.219  1.1254  0.4309 -3.8310
  664MOL0     H89636   6.794   0.424   0.120 -1.2843 -0.2838  0.4920
  664MOL0     H89637   6.805   0.350   0.277 -2.1813 -0.6523  1.0190
  664MOL0     H89638   7.033   0.658   0.366 -0.3006  0.0957  1.0901
  664MOL0     H89639   6.247   0.813   0.159  0.1099 -0.2261 -0.3582
  664MOL0     H89640   6.013   0.880   0.183  1.5117  1.1640 -0.1800
  665MOL0     O89641   7.923   8.249  11.195 -0.2865  0.3903  0.3409
  665MOL0     C89642   7.960   8.362  11.230  1.2135 -0.0216  0.1221
  665MOL0     O89643   7.876   8.465  11.264 -0.1347 -0.1669 -0.3549
  665MOL0     C89644   7.740   8.441  11.259  0.6890  0.2792  0.4847
  665MOL0     C89645   7.676   8.389  11.141  0.2794 -0.1396  0.3204
  665MOL0     C89646   7.539   8.374  11.137  0.4891  0.2406 -0.4389
  665MOL0     C89647   7.455   8.410  11.243 -0.0655 -1.0276 -0.8120
  665MOL0     O89648   7.311   8.400  11.240  0.4894  0.4190 -0.4691
  665MOL0     C89649   7.262   8.322  11.132  0.5991 -0.2047 -0.7515
  665MOL0     C89650   7.117   8.272  11.152 -0.6044 -0.5520  0.3607
  665MOL0     C89651   7.093   8.160  11.055 -0.6210  0.0744  0.1214
  665MOL0     C89652   6.954   8.130  11.039  0.4973  0.1103  0.4938
  665MOL0     C89653   6.937   8.032  10.926 -0.5881 -0.4771 -0.3606
  665MOL0     C89654   6.792   8.000  10.907  0.6237 -0.1935  0.0179
  665MOL0     C89655   6.774   7.914  10.778 -0.4734 -1.2859 -0.3194
  665MOL0     C89656   6.634   7.890  10.750  0.5981  0.1235  0.5847
  665MOL0     N89657   6.561   7.805  10.847 -0.3112 -0.0053 -0.1490
  665MOL0     C89658   6.550   7.666  10.848  0.6225 -0.1867  0.6778
  665MOL0     C89659   6.482   7.636  10.966 -0.8569 -0.3500 -0.5463
  665MOL0     C89660   6.477   7.497  11.026  0.2184 -0.7759 -0.7943
  665MOL0     C89661   6.515   7.519  11.176 -0.4065  0.2205  0.2070
  665MOL0     C89662   6.559   7.397  11.249  0.0837  0.1161  0.1918
  665MOL0     C89663   6.444   7.295  11.264  0.5746 -0.7278 -0.1444
  665MOL0     O89664   6.346   7.344  11.354 -0.3686 -0.0341  0.6801
  665MOL0     C89665   6.220   7.307  11.321  0.1900  0.2549 -0.8456
  665MOL0     C89666   6.128   7.414  11.318  0.7201 -0.5442  0.6151
  665MOL0     C89667   5.997   7.400  11.269 -0.1457 -0.6387  0.3660
  665MOL0     C89668   5.903   7.522  11.269  0.4114  0.4224  0.5613
  665MOL0     C89669   5.967   7.266  11.230 -0.0115 -0.3336  0.0976
  665MOL0     C89670   5.828   7.232  11.175 -0.0378  0.0832  0.1484
  665MOL0     O89671   5.808   7.103  11.166  0.0895  0.0694  0.6436
  665MOL0     C89672   5.690   7.037  11.192  0.1022  0.0302  0.0020
  665MOL0     C89673   5.560   7.096  11.217 -0.0809  0.1680 -0.4668
  665MOL0     C89674   5.450   7.022  11.237  0.5571 -0.1186  0.3055
  665MOL0     C89675   5.448   6.883  11.224  0.0296  0.9017 -0.8966
  665MOL0     O89676   5.337   6.806  11.232 -0.3480 -0.0164 -0.1797
  665MOL0     C89677   5.215   6.876  11.221 -0.3615  0.0502  0.2551
  665MOL0     C89678   5.102   6.772  11.199 -0.6048 -0.2588 -0.4785
  665MOL0     C89679   4.959   6.832  11.198 -0.6824 -0.0953  0.4915
  665MOL0     C89680   4.862   6.722  11.196 -0.2258  0.3111  0.1806
  665MOL0     C89681   4.713   6.775  11.203 -0.1307  0.6729  0.7095
  665MOL0     C89682   4.626   6.654  11.165 -0.0295  0.0946 -1.2129
  665MOL0     C89683   4.480   6.691  11.182  0.6297 -0.0781  0.0280
  665MOL0     C89684   4.394   6.585  11.122  0.8121  0.6736 -0.4714
  665MOL0    Cl89685   4.346   6.475  11.253  0.0253  0.0751 -0.0721
  665MOL0     C89686   5.571   6.823  11.180  0.7913 -0.0315  0.0480
  665MOL0     C89687   5.687   6.895  11.176 -1.1952 -1.5442  0.0278
  665MOL0     O89688   5.738   7.316  11.163  0.7065  0.3572 -0.8729
  665MOL0     C89689   6.056   7.155  11.250  0.3928  0.5225 -0.2753
  665MOL0     C89690   6.190   7.178  11.289 -0.6148  0.6895 -0.5945
  665MOL0     N89691   6.438   7.750  11.026  0.2618  0.3052 -0.2737
  665MOL0     N89692   6.496   7.849  10.955  0.0753  0.7121 -0.0707
  665MOL0     C89693   7.520   8.474  11.347 -0.6234  0.1892  0.2937
  665MOL0     C89694   7.658   8.484  11.357  0.2358  0.3942 -0.1806
  665MOL0     C89695   8.104   8.395  11.215  0.7318 -0.5619 -0.4259
  665MOL0     C89696   8.201   8.300  11.163  0.1956  0.8430  0.0853
  665MOL0     C89697   8.334   8.332  11.162 -0.8385  0.3111  0.6240
  665MOL0     C89698   8.381   8.460  11.197 -1.1648  0.4313 -0.3192
  665MOL0     O89699   8.518   8.480  11.179 -0.1407 -0.3317  0.4281
  665MOL0     C89700   8.580   8.601  11.221  0.0661 -0.3970 -0.1092
  665MOL0     C89701   8.729   8.594  11.216  0.1303 -0.3623 -0.2955
  665MOL0     C89702   8.775   8.577  11.074 -0.3318  0.5266  0.6291
  665MOL0     C89703   8.922   8.598  11.064  0.0719  0.2609  0.0267
  665MOL0     C89704   8.979   8.481  11.123 -0.1638 -0.0286 -0.2140
  665MOL0     C89705   9.012   8.382  11.184  0.1330  0.4737  0.7095
  665MOL0     C89706   8.287   8.552  11.240  0.3361 -0.1190  0.0523
  665MOL0     C89707   8.150   8.519  11.261 -0.5020 -0.5944  0.8320
  665MOL0     H89708   7.730   8.366  11.050 -1.1942  0.1859 -0.6733
  665MOL0     H89709   7.510   8.335  11.039  0.7377  1.1382 -0.8804
  665MOL0     H89710   7.266   8.384  11.042  2.8637 -0.8562 -1.1572
  665MOL0     H89711   7.324   8.237  11.104 -1.9565 -2.5818  0.3666
  665MOL0     H89712   7.103   8.241  11.256  3.3094  2.9914  2.2598
  665MOL0     H89713   7.062   8.362  11.121  1.2732  0.0898 -1.3376
  665MOL0     H89714   7.130   8.203  10.961  0.2191  2.9085  1.6332
  665MOL0     H89715   7.143   8.066  11.079 -1.5251 -0.5770 -0.4984
  665MOL0     H89716   6.915   8.091  11.134  0.9707 -2.8592 -0.4377
  665MOL0     H89717   6.907   8.225  11.015  1.8682  0.3928 -1.2232
  665MOL0     H89718   6.978   8.087  10.841 -1.1483  0.1793 -0.2147
  665MOL0     H89719   6.995   7.940  10.941 -0.6507 -0.1640  2.2693
  665MOL0     H89720   6.757   7.936  10.988  1.9561 -3.4770 -1.8415
  665MOL0     H89721   6.728   8.089  10.900 -1.4172 -1.4900  1.1748
  665MOL0     H89722   6.820   7.975  10.700 -0.6758  0.6735  1.0242
  665MOL0     H89723   6.817   7.815  10.797 -0.3487 -0.6715  3.2580
  665MOL0     H89724   6.639   7.831  10.658 -0.7204 -0.3315  0.7919
  665MOL0     H89725   6.593   7.991  10.739  1.1084  0.5844  2.6014
  665MOL0     H89726   6.599   7.592  10.786  2.9513  0.2261  1.8996
  665MOL0     H89727   6.379   7.449  11.024  0.1320 -0.7495  1.0465
  665MOL0     H89728   6.548   7.428  10.979 -0.0238 -1.6213  0.0757
  665MOL0     H89729   6.439   7.561  11.242 -0.1010  1.4783 -0.2086
  665MOL0     H89730   6.606   7.579  11.173  0.9105 -1.6856 -1.5551
  665MOL0     H89731   6.598   7.429  11.346  0.3618  0.2539  0.0374
  665MOL0     H89732   6.645   7.353  11.197 -1.8663 -1.1992 -2.1659
  665MOL0     H89733   6.496   7.210  11.308  0.9078  0.1429  1.2045
  665MOL0     H89734   6.406   7.263  11.167  0.4844 -4.9954  1.1107
  665MOL0     H89735   6.177   7.506  11.349  1.4911 -0.0888 -1.7314
  665MOL0     H89736   5.883   7.559  11.168  0.7038  1.4467  0.8643
  665MOL0     H89737   5.805   7.508  11.315 -0.3304  1.0758 -0.7688
  665MOL0     H89738   5.950   7.608  11.318 -0.5737  0.5827  1.2481
  665MOL0     H89739   5.552   7.200  11.246  1.7414  0.2152  0.0104
  665MOL0     H89740   5.366   7.088  11.253  1.1181  0.3518  1.4320
  665MOL0     H89741   5.209   6.938  11.311  2.7072  0.3638  0.3556
  665MOL0     H89742   5.226   6.937  11.130  1.9169 -1.6715 -0.7229
  665MOL0     H89743   5.115   6.731  11.099  0.4183 -3.1221  0.7385
  665MOL0     H89744   5.104   6.697  11.278 -0.9616  0.4598  0.2285
  665MOL0     H89745   4.952   6.893  11.107 -2.3251  0.1121  0.7330
  665MOL0     H89746   4.940   6.898  11.283  0.5013  0.0511  0.6657
  665MOL0     H89747   4.869   6.664  11.103 -4.0579 -0.5428  0.2265
  665MOL0     H89748   4.886   6.655  11.279  1.1983 -0.7850 -1.0481
  665MOL0     H89749   4.693   6.860  11.137 -1.7246 -0.4954 -0.4106
  665MOL0     H89750   4.682   6.815  11.300  1.5937  2.2088  0.6695
  665MOL0     H89751   4.656   6.632  11.062 -0.0308 -3.5079 -0.5690
  665MOL0     H89752   4.643   6.565  11.225 -1.1127  0.3217 -0.5577
  665MOL0     H89753   4.457   6.783  11.127  0.8771 -0.4258 -0.6749
  665MOL0     H89754   4.454   6.710  11.286 -0.2380  0.8717 -0.3508
  665MOL0     H89755   4.453   6.536  11.044  2.3135 -1.4332  1.8321
  665MOL0     H89756   4.311   6.628  11.065  0.7192 -0.6154 -1.3704
  665MOL0     H89757   5.579   6.717  11.155 -0.6111 -1.0213  3.2496
  665MOL0     H89758   5.780   6.842  11.155 -1.0797 -2.0825  1.6799
  665MOL0     H89759   6.031   7.056  11.213 -0.5412  1.1350 -1.3589
  665MOL0     H89760   6.263   7.098  11.291 -2.9799 -1.6195 -0.2407
  665MOL0     H89761   7.461   8.503  11.433 -1.4023  1.7475 -0.7087
  665MOL0     H89762   7.697   8.533  11.446  0.1424  1.1565 -0.5596
  665MOL0     H89763   8.174   8.197  11.140 -2.7906  1.8133 -1.2349
  665MOL0     H89764   8.407   8.258  11.131 -1.3783 -0.2845  0.7395
  665MOL0     H89765   8.540   8.687  11.166  1.4898  0.4989  0.1998
  665MOL0     H89766   8.553   8.617  11.326  0.9345 -0.0932  0.0798
  665MOL0     H89767   8.760   8.511  11.280  4.1799  2.0989  1.3372
  665MOL0     H89768   8.764   8.690  11.256 -4.2627  1.6629 -0.7085
  665MOL0     H89769   8.722   8.654  11.017 -1.7517 -0.3952  0.6492
  665MOL0     H89770   8.747   8.477  11.041  2.3110 -0.0637 -0.0363
  665MOL0     H89771   8.956   8.686  11.120  1.5236 -0.0582 -0.3186
  665MOL0     H89772   8.952   8.597  10.959  1.4737 -4.0403  0.2405
  665MOL0     H89773   9.036   8.290  11.233 -0.0019 -0.1598 -0.3833
  665MOL0     H89774   8.331   8.640  11.286  0.8879 -0.1956 -0.3191
  665MOL0     H89775   8.074   8.584  11.302 -0.1620 -0.0946  0.6787
  666MOL0     O89776  10.432   0.669   5.861  0.1123 -0.5467 -0.3867
  666MOL0     C89777  10.532   0.717   5.813 -0.4665  0.3321  0.0389
  666MOL0     O89778  10.541   0.770   5.690 -0.2880 -0.1445 -0.1075
  666MOL0     C89779  10.418   0.799   5.629 -1.4709  0.1523  0.3327
  666MOL0     C89780  10.322   0.889   5.668  0.2495  0.2023 -0.1560
  666MOL0     C89781  10.208   0.918   5.601  0.0040 -0.1044  0.4143
  666MOL0     C89782  10.192   0.886   5.466 -0.1528  0.1451 -0.0914
  666MOL0     O89783  10.081   0.935   5.404  0.5211 -0.6622 -0.2901
  666MOL0     C89784  10.008   0.837   5.332  0.1628 -0.8073 -0.0544
  666MOL0     C89785   9.892   0.911   5.265 -0.0302  0.1490 -0.0296
  666MOL0     C89786   9.769   0.826   5.248 -1.0035 -0.5361  0.4572
  666MOL0     C89787   9.657   0.926   5.222  0.2247  0.0963  0.0717
  666MOL0     C89788   9.527   0.839   5.199 -0.7474  1.5119  0.2613
  666MOL0     C89789   9.437   0.914   5.104  0.3836  0.4332 -0.5234
  666MOL0     C89790   9.292   0.854   5.106  0.5481  0.5327 -0.0184
  666MOL0     C89791   9.201   0.949   5.019 -0.7645 -1.1496 -0.0853
  666MOL0     N89792   9.073   0.892   5.012 -0.7172  0.3748 -0.4319
  666MOL0     C89793   8.959   0.964   5.004 -0.7471  0.1479 -0.1319
  666MOL0     C89794   8.856   0.874   5.020  0.4662 -0.7839  0.3673
  666MOL0     C89795   8.714   0.908   5.008 -0.4945 -1.0409  0.0167
  666MOL0     C89796   8.637   0.846   4.903  0.7795  0.1981 -0.3841
  666MOL0     C89797   8.488   0.899   4.901  0.2531  0.4300 -0.8796
  666MOL0     C89798   8.412   0.793   4.829  0.1688  0.6574  1.0818
  666MOL0     O89799   8.271   0.808   4.840  0.4298 -0.6071  0.6288
  666MOL0     C89800   8.191   0.731   4.760  0.6518  0.2412 -0.2259
  666MOL0     C89801   8.233   0.610   4.708 -0.3948 -0.1017  0.3777
  666MOL0     C89802   8.148   0.521   4.636 -0.4482  0.2787 -0.4720
  666MOL0     C89803   8.222   0.402   4.569  0.0558 -0.0925 -0.9721
  666MOL0     C89804   8.011   0.551   4.621 -0.8610  1.6802  0.4930
  666MOL0     C89805   7.905   0.464   4.551  0.1214 -0.3872 -0.2523
  666MOL0     O89806   7.796   0.538   4.500  0.3218  0.9192 -0.0097
  666MOL0     C89807   7.710   0.469   4.409 -0.7071 -0.2722 -1.6085
  666MOL0     C89808   7.747   0.390   4.304 -0.3438  0.0353  0.3180
  666MOL0     C89809   7.656   0.312   4.238  0.2573 -0.4074 -0.0548
  666MOL0     C89810   7.526   0.323   4.269 -0.6571  0.5378  0.4334
  666MOL0     O89811   7.431   0.247   4.197 -0.2564  0.0241  0.7911
  666MOL0     C89812   7.290   0.287   4.210  0.7893  0.5976  1.6310
  666MOL0     C89813   7.196   0.201   4.114  0.1792  0.2458 -0.4746
  666MOL0     C89814   7.048   0.238   4.123  0.2945  0.9021 -0.4666
  666MOL0     C89815   6.973   0.115   4.061 -0.1657 -0.1901  0.3666
  666MOL0     C89816   6.825   0.103   4.073 -0.7250 -0.4572 -0.2238
  666MOL0     C89817   6.746   0.232   4.045  0.3790  0.0642 -0.1762
  666MOL0     C89818   6.599   0.199   4.047 -0.8197  0.3018  0.0443
  666MOL0     C89819   6.520   0.316   4.002  1.1054  0.1650 -1.0948
  666MOL0    Cl89820   6.508   0.318   3.820 -0.1183 -0.2917  0.3975
  666MOL0     C89821   7.480   0.407   4.372 -0.2759  0.2381  0.5606
  666MOL0     C89822   7.576   0.485   4.434 -0.8823 -0.0520 -0.0957
  666MOL0     O89823   7.929   0.346   4.536  0.0390 -0.2500  0.1113
  666MOL0     C89824   7.976   0.672   4.676  0.2678 -0.3034  0.2753
  666MOL0     C89825   8.060   0.764   4.742  0.0261  0.8570  0.6185
  666MOL0     N89826   8.902   0.742   5.041  0.0712 -0.9974  0.2030
  666MOL0     N89827   9.032   0.762   5.023  0.3666  0.5466 -0.1060
  666MOL0     C89828  10.286   0.794   5.418  0.2064  0.2678  0.0354
  666MOL0     C89829  10.393   0.754   5.498  0.0228  0.7971 -0.6576
  666MOL0     C89830  10.655   0.711   5.885  0.5995 -0.5201  0.1117
  666MOL0     C89831  10.676   0.616   5.990  0.2823 -0.4166  0.6487
  666MOL0     C89832  10.798   0.606   6.067  0.7608 -0.5036  0.2186
  666MOL0     C89833  10.883   0.716   6.067  0.3090  0.3801  0.0121
  666MOL0     O89834  10.979   0.735   6.167 -0.3419 -0.0223 -0.4031
  666MOL0     C89835  11.006   0.628   6.247  0.4682  0.0575  0.4608
  666MOL0     C89836  11.117   0.683   6.342 -0.0347 -0.2495 -0.3593
  666MOL0     C89837  11.071   0.797   6.435 -0.0824  0.2865  0.7635
  666MOL0     C89838  11.182   0.824   6.531 -0.2422 -0.8270  0.2870
  666MOL0     C89839  11.314   0.841   6.462 -0.6500 -0.6388  0.2959
  666MOL0     C89840  11.421   0.868   6.413 -0.8952  0.3347  0.3839
  666MOL0     C89841  10.873   0.805   5.961  0.0037 -0.0853  0.3064
  666MOL0     C89842  10.762   0.813   5.877  0.1236 -0.3625  0.2778
  666MOL0     H89843  10.348   0.944   5.758 -0.7474  0.1142  0.2053
  666MOL0     H89844  10.132   0.989   5.632  0.5208  0.3888  0.5529
  666MOL0     H89845  10.068   0.779   5.261  1.5279 -0.1810  0.5322
  666MOL0     H89846   9.970   0.767   5.406  0.4890 -0.3035  0.6035
  666MOL0     H89847   9.859   0.995   5.326 -0.0105 -0.3962  0.7437
  666MOL0     H89848   9.924   0.961   5.173  1.0018 -1.8008 -0.8035
  666MOL0     H89849   9.775   0.758   5.162  0.9056 -0.7043  0.6828
  666MOL0     H89850   9.740   0.775   5.340  1.3077  1.5288  2.4524
  666MOL0     H89851   9.632   1.003   5.295 -4.4951 -0.5410 -0.4865
  666MOL0     H89852   9.672   0.976   5.127 -2.0865 -0.2084 -0.5156
  666MOL0     H89853   9.545   0.737   5.164 -0.5448  0.9670  1.8819
  666MOL0     H89854   9.477   0.819   5.294  0.1035  2.2222  0.8705
  666MOL0     H89855   9.426   1.016   5.142  0.2317  0.8105 -1.5560
  666MOL0     H89856   9.475   0.917   5.002  1.5665  0.5045 -0.0901
  666MOL0     H89857   9.295   0.754   5.061  2.7132  0.5297  0.0454
  666MOL0     H89858   9.250   0.835   5.206 -0.0474 -0.3567 -0.4188
  666MOL0     H89859   9.243   0.958   4.918  2.0234 -0.2475  1.0526
  666MOL0     H89860   9.194   1.036   5.084  1.2825 -2.2856  1.7989
  666MOL0     H89861   8.958   1.071   4.989 -1.1584  0.1819  0.1141
  666MOL0     H89862   8.657   0.896   5.101 -2.0987 -1.1161 -0.9335
  666MOL0     H89863   8.715   1.014   4.985  1.1594 -1.4410 -2.0668
  666MOL0     H89864   8.645   0.739   4.924 -0.5207  0.3625  1.0960
  666MOL0     H89865   8.687   0.868   4.808  1.7612 -0.8020 -0.1236
  666MOL0     H89866   8.485   0.997   4.851  1.3396  1.2993  0.6872
  666MOL0     H89867   8.440   0.914   4.998 -0.0884 -1.8396 -0.6330
  666MOL0     H89868   8.443   0.699   4.875 -0.6844  0.0538  0.4390
  666MOL0     H89869   8.443   0.775   4.726  1.0539 -0.7686  1.5719
  666MOL0     H89870   8.334   0.578   4.731 -0.8260 -0.2206  2.2801
  666MOL0     H89871   8.157   0.345   4.502  2.2865 -3.1910 -0.7203
  666MOL0     H89872   8.293   0.456   4.505  3.8954 -0.9889  2.1992
  666MOL0     H89873   8.275   0.334   4.635 -1.3533  0.0572  0.3680
  666MOL0     H89874   7.848   0.414   4.273 -1.0948  1.5195 -1.1420
  666MOL0     H89875   7.690   0.255   4.152  2.1381  0.0401  0.3285
  666MOL0     H89876   7.247   0.252   4.304 -2.1630  0.7976  0.4567
  666MOL0     H89877   7.273   0.391   4.183  0.1191  0.0906 -0.0640
  666MOL0     H89878   7.230   0.220   4.012 -1.3389 -2.1859 -1.5049
  666MOL0     H89879   7.203   0.098   4.149  0.3061  0.7016  0.9235
  666MOL0     H89880   7.023   0.330   4.070 -0.7448  1.3852  0.8206
  666MOL0     H89881   7.012   0.257   4.225  2.2130  1.5137  0.1287
  666MOL0     H89882   7.007   0.115   3.957 -0.9178  1.3303  0.0931
  666MOL0     H89883   7.023   0.025   4.098  3.1275  1.1141 -0.5186
  666MOL0     H89884   6.797   0.080   4.177 -1.3875 -1.9971 -0.7129
  666MOL0     H89885   6.803   0.020   4.005  2.6172 -1.6629 -0.0147
  666MOL0     H89886   6.755   0.310   4.121 -1.6689  2.3242 -2.0898
  666MOL0     H89887   6.774   0.279   3.951 -2.4832  0.0694 -1.1258
  666MOL0     H89888   6.581   0.184   4.153 -1.0417  1.8119  0.2340
  666MOL0     H89889   6.575   0.106   3.993 -1.5972 -0.1587  1.1640
  666MOL0     H89890   6.548   0.415   4.040  0.0245  0.4631 -1.0418
  666MOL0     H89891   6.418   0.290   4.033  1.3011 -0.6846 -1.1559
  666MOL0     H89892   7.377   0.413   4.404 -0.3747  0.4383  0.2058
  666MOL0     H89893   7.542   0.552   4.512  1.9664 -0.2302  1.4124
  666MOL0     H89894   7.870   0.694   4.680  0.5515  1.5938 -1.3241
  666MOL0     H89895   8.019   0.852   4.791  0.4493 -0.0016  2.6249
  666MOL0     H89896  10.280   0.747   5.320  0.1278 -2.5520  1.2955
  666MOL0     H89897  10.456   0.684   5.444 -0.1952  0.9542 -1.1159
  666MOL0     H89898  10.599   0.546   6.021  0.7151 -0.2259  2.2150
  666MOL0     H89899  10.797   0.535   6.149 -2.1017 -0.4698  0.3339
  666MOL0     H89900  10.921   0.602   6.312  1.5282 -3.1188  0.7231
  666MOL0     H89901  11.035   0.544   6.185 -1.4295 -0.7889  0.6555
  666MOL0     H89902  11.204   0.710   6.282 -0.2872 -1.7333 -1.4468
  666MOL0     H89903  11.140   0.600   6.409  0.4137  0.7722  0.7863
  666MOL0     H89904  10.969   0.783   6.472 -0.8960 -0.1229 -1.4952
  666MOL0     H89905  11.069   0.890   6.377  4.1596 -1.6542 -3.0773
  666MOL0     H89906  11.189   0.740   6.602  0.5561 -1.5015 -0.5779
  666MOL0     H89907  11.170   0.914   6.593 -0.5649 -2.0669  2.1300
  666MOL0     H89908  11.520   0.873   6.374 -0.8739 -2.2674 -0.0649
  666MOL0     H89909  10.945   0.884   5.941  0.3220 -0.6416 -0.7929
  666MOL0     H89910  10.748   0.885   5.798  0.6262 -0.3907  0.1599
  667MOL0     O89911   0.203  10.223  10.120 -0.2017 -0.5048  0.1380
  667MOL0     C89912   0.245  10.291  10.214 -0.1050 -0.2693 -0.4725
  667MOL0     O89913   0.174  10.371  10.303 -0.3392 -0.3824 -0.4506
  667MOL0     C89914   0.034  10.347  10.324 -0.5173  0.3661  0.1239
  667MOL0     C89915  -0.007  10.219  10.355  0.2906  0.7659  0.9251
  667MOL0     C89916  -0.143  10.192  10.384 -0.3865 -0.1140  0.9136
  667MOL0     C89917  -0.236  10.296  10.386  0.2628  0.4021 -0.6808
  667MOL0     O89918  -0.370  10.269  10.425  0.1076 -0.0451 -0.1156
  667MOL0     C89919  -0.389  10.297  10.559  0.5419  0.1227 -0.2529
  667MOL0     C89920  -0.527  10.248  10.594 -0.4934 -0.0133 -0.5002
  667MOL0     C89921  -0.643  10.287  10.510 -0.0061  0.0370  0.0912
  667MOL0     C89922  -0.761  10.184  10.547  0.0354 -0.0377 -0.1171
  667MOL0     C89923  -0.896  10.217  10.496  0.5633 -0.3188 -0.1505
  667MOL0     C89924  -0.992  10.099  10.490  0.5534  0.5674  0.7286
  667MOL0     C89925  -1.142  10.151  10.484 -0.0455 -0.9706 -1.0018
  667MOL0     C89926  -1.226  10.036  10.476  0.4279  0.2427  0.4369
  667MOL0     N89927  -1.366  10.072  10.464 -0.0630  0.3131  0.4692
  667MOL0     C89928  -1.441  10.100  10.354  1.0352 -0.8468 -0.1774
  667MOL0     C89929  -1.567  10.123  10.408 -0.1824 -0.5779  1.0445
  667MOL0     C89930  -1.698  10.147  10.334 -0.3163  0.2057 -0.3925
  667MOL0     C89931  -1.803  10.046  10.353  0.0458 -0.3766 -0.2212
  667MOL0     C89932  -1.867  10.069  10.490  0.7431 -0.5826  0.0563
  667MOL0     C89933  -2.003   9.994  10.481  0.1861 -0.6907  0.3007
  667MOL0     O89934  -2.071  10.020  10.604 -0.0473 -0.4277 -0.5434
  667MOL0     C89935  -2.208  10.002  10.592 -0.2122  1.3456 -0.1203
  667MOL0     C89936  -2.281  10.053  10.478  0.6640  0.4931  0.4957
  667MOL0     C89937  -2.406  10.026  10.459  0.9203 -0.6847  0.6166
  667MOL0     C89938  -2.460  10.094  10.336 -0.7103 -0.5715  0.7107
  667MOL0     C89939  -2.486   9.938  10.539 -0.5080 -1.1171 -0.9747
  667MOL0     C89940  -2.640   9.908  10.528 -0.1223  0.3333  0.3771
  667MOL0     O89941  -2.676   9.800  10.598  0.0488 -0.4199  0.0486
  667MOL0     C89942  -2.813   9.769  10.584 -0.4329 -0.7060  0.2143
  667MOL0     C89943  -2.913   9.833  10.657 -0.2027 -0.0368 -0.3710
  667MOL0     C89944  -3.047   9.805  10.636  0.4727 -0.2005  0.1834
  667MOL0     C89945  -3.089   9.714  10.541 -0.0943 -0.2445  0.5805
  667MOL0     O89946  -3.222   9.689  10.516  0.1947  0.4742  0.1848
  667MOL0     C89947  -3.260   9.550  10.525  0.3551 -0.0314 -0.4468
  667MOL0     C89948  -3.410   9.540  10.518  1.9741 -0.0794  0.5700
  667MOL0     C89949  -3.492   9.540  10.658  0.0417  0.1558 -0.5176
  667MOL0     C89950  -3.644   9.560  10.637  0.1549 -0.0276  0.2494
  667MOL0     C89951  -3.736   9.537  10.761 -0.8691 -1.3121 -0.0198
  667MOL0     C89952  -3.730   9.651  10.861  0.1280  0.8065 -0.5071
  667MOL0     C89953  -3.803   9.783  10.813  0.4309  0.3711  0.4170
  667MOL0     C89954  -3.833   9.884  10.928 -0.1710  0.4624  1.0819
  667MOL0    Cl89955  -3.892  10.035  10.862 -0.0764  0.5260  0.0277
  667MOL0     C89956  -2.988   9.653  10.469 -0.1064 -0.0148  0.7303
  667MOL0     C89957  -2.847   9.676  10.486  0.6372 -0.3538  0.1117
  667MOL0     O89958  -2.708   9.961  10.443  0.7199 -0.3697  0.1160
  667MOL0     C89959  -2.415   9.885  10.653 -0.5988  0.4217 -1.5562
  667MOL0     C89960  -2.282   9.917  10.680 -0.7155 -0.2946 -0.9199
  667MOL0     N89961  -1.565  10.099  10.551 -0.1149  0.1602  0.4527
  667MOL0     N89962  -1.447  10.064  10.584 -0.3473  0.1561  0.7103
  667MOL0     C89963  -0.188  10.429  10.361  0.3020 -0.0861 -0.3779
  667MOL0     C89964  -0.054  10.456  10.329  0.8067 -0.0612 -0.1004
  667MOL0     C89965   0.391  10.297  10.245 -0.3796  0.4061 -0.0535
  667MOL0     C89966   0.444  10.350  10.366 -0.7787 -0.4520 -0.1094
  667MOL0     C89967   0.583  10.340  10.395 -0.2571  0.2836  0.4166
  667MOL0     C89968   0.674  10.273  10.312 -0.1456 -0.0298 -0.9862
  667MOL0     O89969   0.808  10.259  10.341 -0.2328  0.0133  0.3658
  667MOL0     C89970   0.855  10.300  10.466  0.1221  0.3594 -1.2331
  667MOL0     C89971   1.011  10.278  10.469 -0.0657 -0.3621 -0.1621
  667MOL0     C89972   1.090  10.400  10.427  1.0965  0.5620 -1.3237
  667MOL0     C89973   1.231  10.405  10.497  1.2773  0.7241 -1.0486
  667MOL0     C89974   1.299  10.273  10.466 -0.4784 -0.3565 -0.2272
  667MOL0     C89975   1.349  10.165  10.444  0.8244  0.5787  1.0537
  667MOL0     C89976   0.615  10.220  10.194 -0.5950 -0.1833 -0.1262
  667MOL0     C89977   0.481  10.232  10.173  0.3274  0.7464 -0.4324
  667MOL0     H89978   0.061  10.135  10.355 -0.8394 -0.2627 -1.6972
  667MOL0     H89979  -0.191  10.096  10.405 -2.5713  1.2221  2.4008
  667MOL0     H89980  -0.319  10.244  10.624  0.2299  0.0448  0.0250
  667MOL0     H89981  -0.387  10.406  10.571  0.2334  0.2506 -1.2806
  667MOL0     H89982  -0.517  10.140  10.611  0.5043 -0.0010 -0.9233
  667MOL0     H89983  -0.541  10.295  10.692  0.4413  0.3965 -0.5521
  667MOL0     H89984  -0.672  10.390  10.533 -2.7071 -1.1562  2.6566
  667MOL0     H89985  -0.631  10.277  10.402 -0.0958 -0.9555  0.1575
  667MOL0     H89986  -0.736  10.087  10.504  0.3073  0.1638 -0.4162
  667MOL0     H89987  -0.758  10.186  10.657 -0.9984 -1.8304 -0.0247
  667MOL0     H89988  -0.947  10.282  10.569  0.6682 -1.3565  0.8741
  667MOL0     H89989  -0.889  10.264  10.397  0.7606  1.7864  0.8086
  667MOL0     H89990  -0.966  10.024  10.414  0.0656  1.5151 -0.4125
  667MOL0     H89991  -0.987  10.037  10.580 -1.8884 -1.0319 -0.1255
  667MOL0     H89992  -1.170  10.210  10.572 -1.4659 -0.7116 -1.5949
  667MOL0     H89993  -1.153  10.206  10.390  3.8514 -0.7316 -1.4575
  667MOL0     H89994  -1.210   9.980  10.569 -0.1732  1.4814  1.3198
  667MOL0     H89995  -1.186   9.967  10.402  4.2858 -0.5695  2.9827
  667MOL0     H89996  -1.409  10.113  10.251 -0.0649 -0.5671 -0.4972
  667MOL0     H89997  -1.740  10.243  10.367  0.1511 -0.1305  1.2404
  667MOL0     H89998  -1.671  10.155  10.228 -2.6552 -1.4226 -1.1853
  667MOL0     H89999  -1.760   9.945  10.358  0.2336 -0.2283  3.4197
  667MOL0     H90000  -1.874  10.046  10.269 -1.7680 -1.9100  1.2264
  667MOL0     H90001  -1.884  10.172  10.522  2.2814 -0.9458  2.2576
  667MOL0     H90002  -1.800  10.029  10.568  0.6300 -3.6012 -1.2339
  667MOL0     H90003  -1.991   9.886  10.472 -1.6478 -0.8861 -0.1514
  667MOL0     H90004  -2.046  10.032  10.388  1.8547  1.9679  0.4839
  667MOL0     H90005  -2.235  10.126  10.413  2.4262  0.9688  2.1670
  667MOL0     H90006  -2.545  10.150  10.374 -0.8801 -1.8312  2.3258
  667MOL0     H90007  -2.390  10.165  10.291  0.5665 -1.5904  1.0069
  667MOL0     H90008  -2.477  10.018  10.259  2.6384  0.4070 -1.2176
  667MOL0     H90009  -2.884   9.912  10.726  0.3052 -0.0781 -0.5300
  667MOL0     H90010  -3.119   9.864  10.692 -0.4923 -1.4507  0.3007
  667MOL0     H90011  -3.212   9.492  10.446 -0.2986 -2.7434  1.0484
  667MOL0     H90012  -3.228   9.515  10.623  2.6522  2.2327 -0.2686
  667MOL0     H90013  -3.437   9.624  10.454  1.9675 -3.0900 -3.8541
  667MOL0     H90014  -3.446   9.458  10.454 -1.8188  3.1443 -1.9959
  667MOL0     H90015  -3.467   9.624  10.723 -1.0276 -1.4799  2.1587
  667MOL0     H90016  -3.470   9.445  10.708 -1.1570  0.0534 -0.1446
  667MOL0     H90017  -3.660   9.659  10.594  1.7233  1.1366  2.1986
  667MOL0     H90018  -3.672   9.475  10.574  3.8007 -1.2282  0.0389
  667MOL0     H90019  -3.716   9.438  10.802 -2.6796 -1.1155  1.4671
  667MOL0     H90020  -3.842   9.533  10.733 -0.9365 -0.3297  0.0489
  667MOL0     H90021  -3.782   9.621  10.953  1.3059  2.2210  0.6759
  667MOL0     H90022  -3.626   9.675  10.885  0.3489 -1.9615  2.0331
  667MOL0     H90023  -3.897   9.766  10.759  0.6268 -0.5367  0.3536
  667MOL0     H90024  -3.731   9.825  10.742 -0.7890 -0.0001 -1.1015
  667MOL0     H90025  -3.741   9.892  10.987  0.6579 -5.1921  1.0704
  667MOL0     H90026  -3.901   9.851  11.008 -0.2683  3.2178  2.2528
  667MOL0     H90027  -3.001   9.583  10.387  2.6934  0.6330 -0.3907
  667MOL0     H90028  -2.766   9.629  10.431 -0.1261 -0.2261 -1.1726
  667MOL0     H90029  -2.475   9.820  10.716 -0.1158  0.4502 -1.0608
  667MOL0     H90030  -2.229   9.886  10.770 -3.7382  1.5036  1.7101
  667MOL0     H90031  -0.262  10.507  10.370 -2.0521 -1.9958 -1.9192
  667MOL0     H90032  -0.022  10.559  10.316  0.5209 -0.0470 -0.7096
  667MOL0     H90033   0.383  10.412  10.431 -1.1790 -0.2726 -0.6531
  667MOL0     H90034   0.621  10.381  10.488  3.8650  0.3561 -1.0544
  667MOL0     H90035   0.828  10.405  10.480  2.1166  0.8658 -0.8675
  667MOL0     H90036   0.806  10.247  10.548 -0.8048  2.6644 -0.2124
  667MOL0     H90037   1.041  10.199  10.399  1.6907  2.0227 -2.3161
  667MOL0     H90038   1.036  10.248  10.571  0.0131 -0.9895 -0.3621
  667MOL0     H90039   1.029  10.488  10.451 -0.6833 -0.6376 -1.2890
  667MOL0     H90040   1.099  10.401  10.318 -3.4323 -3.3333 -2.1020
  667MOL0     H90041   1.218  10.413  10.606  0.8720 -0.0883 -1.0314
  667MOL0     H90042   1.292  10.487  10.459  1.1270  1.9248  1.1005
  667MOL0     H90043   1.387  10.072  10.408 -1.0987  1.0027 -2.5617
  667MOL0     H90044   0.682  10.174  10.122 -0.4723 -1.5815  0.8494
  667MOL0     H90045   0.434  10.178  10.091  2.1630  0.9372 -1.6829
  668MOL0     O90046  11.265   8.505  11.246  0.0730 -0.8121  0.4119
  668MOL0     C90047  11.381   8.529  11.213  0.0258 -0.5119 -0.7968
  668MOL0     O90048  11.431   8.651  11.174  0.0323  0.3304  0.1443
  668MOL0     C90049  11.339   8.750  11.153 -0.7565 -0.1494 -0.8546
  668MOL0     C90050  11.268   8.813  11.261  0.0338  0.4674  0.5496
  668MOL0     C90051  11.167   8.901  11.231 -0.4363 -0.0354 -0.4675
  668MOL0     C90052  11.151   8.948  11.099 -0.1281  0.6095 -0.6047
  668MOL0     O90053  11.050   9.041  11.075  0.1834  0.0514  0.1165
  668MOL0     C90054  10.930   8.972  11.033  0.6068  0.3121  0.5602
  668MOL0     C90055  10.794   9.039  11.070 -0.9286  0.3640  0.4767
  668MOL0     C90056  10.777   9.034  11.222  0.3127  0.0938  0.0310
  668MOL0     C90057  10.660   9.133  11.249 -0.6807  0.8820  0.9043
  668MOL0     C90058  10.604   9.139  11.388 -0.4088 -0.0737 -0.0588
  668MOL0     C90059  10.530   9.012  11.434  1.2306 -0.1715 -0.1439
  668MOL0     C90060  10.482   9.013  11.578 -0.3499 -0.8289  0.1583
  668MOL0     C90061  10.598   9.031  11.675  0.2953  0.4311 -0.1688
  668MOL0     N90062  10.694   8.924  11.653 -0.3316  0.2405 -0.3435
  668MOL0     C90063  10.815   8.939  11.601 -0.2055 -0.4186  0.5741
  668MOL0     C90064  10.866   8.817  11.596 -0.0611 -0.0564  0.0826
  668MOL0     C90065  11.005   8.769  11.553 -0.4809 -0.6192  0.2595
  668MOL0     C90066  11.097   8.752  11.670 -0.3356 -0.5854 -0.8777
  668MOL0     C90067  11.237   8.708  11.638  0.2948 -0.5030  1.3232
  668MOL0     C90068  11.233   8.578  11.574  0.9163  0.7099  0.8359
  668MOL0     O90069  11.160   8.475  11.651 -0.5076  0.6779 -0.2517
  668MOL0     C90070  11.200   8.350  11.612  0.9732  0.2483 -0.3655
  668MOL0     C90071  11.100   8.255  11.589  1.2768  0.2833 -0.8112
  668MOL0     C90072  11.123   8.117  11.573 -0.7332 -0.3826  0.7399
  668MOL0     C90073  10.998   8.034  11.548  0.1656  0.0077  0.2748
  668MOL0     C90074  11.258   8.064  11.582 -0.2558 -0.4851  0.3632
  668MOL0     C90075  11.292   7.914  11.574  0.0201  0.2201 -0.2424
  668MOL0     O90076  11.415   7.875  11.526  0.0104 -0.1448  0.3798
  668MOL0     C90077  11.452   7.750  11.547  0.2449  0.2597 -0.0953
  668MOL0     C90078  11.558   7.722  11.629 -0.4092 -0.2840  0.5079
  668MOL0     C90079  11.608   7.590  11.642 -0.1270  1.8391  0.3621
  668MOL0     C90080  11.538   7.486  11.583  0.6189 -0.3444  0.2469
  668MOL0     O90081  11.574   7.353  11.591  0.6018 -0.4529  0.1986
  668MOL0     C90082  11.702   7.317  11.645  0.6096 -0.2093 -0.8535
  668MOL0     C90083  11.740   7.173  11.603 -0.6121 -0.8860  0.6832
  668MOL0     C90084  11.788   7.181  11.455 -0.1602 -0.3746  0.4068
  668MOL0     C90085  11.799   7.038  11.381 -0.8188 -0.8239 -0.0927
  668MOL0     C90086  11.675   6.966  11.394 -0.4613 -0.1795  0.6331
  668MOL0     C90087  11.682   6.848  11.302 -0.4143  0.6763 -0.2486
  668MOL0     C90088  11.554   6.770  11.278  1.2762  0.0278  0.1367
  668MOL0     C90089  11.539   6.643  11.363 -0.5586 -0.5468  0.3175
  668MOL0    Cl90090  11.522   6.692  11.530  0.3880 -0.0932 -0.3372
  668MOL0     C90091  11.428   7.506  11.495 -0.1102 -0.6908 -0.5488
  668MOL0     C90092  11.389   7.643  11.478  0.5293 -0.2154  0.3317
  668MOL0     O90093  11.205   7.835  11.614  0.3185  0.1195 -0.1086
  668MOL0     C90094  11.359   8.163  11.602  0.5145 -0.1327 -0.5071
  668MOL0     C90095  11.328   8.303  11.620 -0.1548 -0.1237  0.5171
  668MOL0     N90096  10.774   8.726  11.654  0.6021 -0.7310 -0.2958
  668MOL0     N90097  10.664   8.792  11.684  0.1372  0.1217 -0.1595
  668MOL0     C90098  11.219   8.887  10.995  0.8844 -0.7312 -0.3709
  668MOL0     C90099  11.316   8.795  11.022 -0.4577 -0.0332  0.1226
  668MOL0     C90100  11.477   8.416  11.222  1.0063 -0.0825 -0.1890
  668MOL0     C90101  11.603   8.429  11.162  0.1596 -0.1449  0.1760
  668MOL0     C90102  11.693   8.330  11.178 -0.1114  0.3026 -0.5753
  668MOL0     C90103  11.649   8.209  11.245 -0.4395  0.3911  0.1356
  668MOL0     O90104  11.741   8.107  11.234 -0.4850  0.5708  0.9409
  668MOL0     C90105  11.725   7.975  11.302 -0.4698  0.1976 -0.2482
  668MOL0     C90106  11.774   7.994  11.458  0.1896 -0.1568  0.6582
  668MOL0     C90107  11.925   8.002  11.467 -0.7849 -0.8678 -0.9898
  668MOL0     C90108  11.973   7.965  11.607 -0.3217 -0.1913 -0.0315
  668MOL0     C90109  11.953   7.826  11.642 -0.2982  0.2187  1.3848
  668MOL0     C90110  11.937   7.707  11.642 -0.0049  0.1298 -1.2036
  668MOL0     C90111  11.522   8.194  11.301  0.0989  0.1953 -0.5205
  668MOL0     C90112  11.434   8.298  11.285  0.5283  0.7162  1.3003
  668MOL0     H90113  11.299   8.780  11.360  0.1204  0.3091  0.4699
  668MOL0     H90114  11.098   8.947  11.301 -0.5965 -1.2854  0.2141
  668MOL0     H90115  10.936   8.978  10.924 -0.2438  0.6039  0.5218
  668MOL0     H90116  10.924   8.869  11.071 -2.4206  0.8011  1.6901
  668MOL0     H90117  10.801   9.141  11.030  2.5850 -0.3401 -1.1164
  668MOL0     H90118  10.710   8.992  11.017 -0.9408  3.5961 -2.7694
  668MOL0     H90119  10.741   8.934  11.248  1.1332 -0.1675  0.2117
  668MOL0     H90120  10.867   9.046  11.284 -1.7505 -0.1827  3.3287
  668MOL0     H90121  10.691   9.234  11.220  0.2841  0.5706  0.8409
  668MOL0     H90122  10.575   9.104  11.187  0.4570 -2.1691  0.6416
  668MOL0     H90123  10.687   9.178  11.447 -0.5631  2.2749 -1.2728
  668MOL0     H90124  10.531   9.221  11.390  1.8224  2.0597 -1.4864
  668MOL0     H90125  10.446   9.004  11.365  0.6889  1.2702  0.3022
  668MOL0     H90126  10.598   8.928  11.419  1.0636  0.2642 -4.4589
  668MOL0     H90127  10.406   9.092  11.589  0.5435 -0.1884  2.5359
  668MOL0     H90128  10.434   8.915  11.586  3.2615 -2.6560  1.7942
  668MOL0     H90129  10.553   9.020  11.774 -0.1489  2.7658 -0.0704
  668MOL0     H90130  10.630   9.135  11.667 -0.8815  1.3289  4.1971
  668MOL0     H90131  10.858   9.034  11.569  0.9326 -0.5783  1.5377
  668MOL0     H90132  10.993   8.672  11.502  2.7387 -0.7171 -0.5097
  668MOL0     H90133  11.048   8.836  11.478  0.8630 -1.8150 -0.0750
  668MOL0     H90134  11.060   8.669  11.732  2.2926 -2.5367 -1.7503
  668MOL0     H90135  11.111   8.846  11.723  1.2722 -1.3791  0.1779
  668MOL0     H90136  11.294   8.708  11.731  2.8545 -2.4623 -0.1070
  668MOL0     H90137  11.284   8.775  11.565 -1.8128 -0.0457  0.2982
  668MOL0     H90138  11.337   8.555  11.548  0.0706 -2.7300  0.0055
  668MOL0     H90139  11.182   8.576  11.477  0.0451 -3.7126  1.1584
  668MOL0     H90140  10.995   8.280  11.581  1.2575  0.7083  0.5958
  668MOL0     H90141  10.945   8.007  11.640 -0.2689 -2.7220 -0.6954
  668MOL0     H90142  10.938   8.078  11.468 -1.2472 -3.2533 -0.6024
  668MOL0     H90143  11.027   7.945  11.492  0.8251  0.7987 -0.6715
  668MOL0     H90144  11.612   7.799  11.684 -0.7539 -0.7371  1.5004
  668MOL0     H90145  11.695   7.570  11.703 -0.8630 -1.2613  0.5754
  668MOL0     H90146  11.780   7.387  11.613 -0.9914  1.8917 -0.3939
  668MOL0     H90147  11.692   7.323  11.753  1.3608 -1.3540 -0.7023
  668MOL0     H90148  11.831   7.150  11.659  0.7142 -1.1476 -1.4541
  668MOL0     H90149  11.652   7.115  11.630 -0.5619 -1.4161 -0.2736
  668MOL0     H90150  11.878   7.243  11.447 -0.3516 -0.2104 -0.5585
  668MOL0     H90151  11.713   7.237  11.399  0.1521  0.2276  0.5772
  668MOL0     H90152  11.827   7.056  11.277 -1.5971  6.0652  0.4145
  668MOL0     H90153  11.876   6.981  11.435 -0.8779 -0.0073  0.8744
  668MOL0     H90154  11.584   7.024  11.374  0.1358  1.0333  1.2828
  668MOL0     H90155  11.658   6.928  11.495  0.5210  0.2955  0.9948
  668MOL0     H90156  11.712   6.892  11.206 -1.2150  0.6619 -0.5108
  668MOL0     H90157  11.766   6.781  11.323  2.3338  3.9402 -0.0632
  668MOL0     H90158  11.542   6.733  11.176 -2.1079  1.8732 -0.2900
  668MOL0     H90159  11.464   6.832  11.272  1.0098 -0.4982 -2.5103
  668MOL0     H90160  11.631   6.586  11.369 -0.9473 -1.0697  1.5100
  668MOL0     H90161  11.457   6.579  11.330  0.4344 -0.8732 -1.6800
  668MOL0     H90162  11.359   7.430  11.461 -0.1635 -1.1892  0.6259
  668MOL0     H90163  11.301   7.665  11.418  1.0214  0.5419 -0.1277
  668MOL0     H90164  11.464   8.140  11.593  0.5586  0.2980 -1.1447
  668MOL0     H90165  11.410   8.368  11.648  0.0994  0.9054 -2.3143
  668MOL0     H90166  11.196   8.919  10.894  0.2043  0.8334  0.2441
  668MOL0     H90167  11.368   8.745  10.941 -1.0207 -3.1164  1.5554
  668MOL0     H90168  11.624   8.524  11.112  1.2058 -0.4974 -0.0876
  668MOL0     H90169  11.789   8.335  11.127  0.9160  2.7643  1.4113
  668MOL0     H90170  11.622   7.942  11.286 -0.7271  0.1822  1.3014
  668MOL0     H90171  11.791   7.900  11.257 -0.4023  0.8411 -1.2389
  668MOL0     H90172  11.740   7.901  11.506  0.8404 -1.1897 -0.8129
  668MOL0     H90173  11.720   8.082  11.494  1.4727  1.9198 -2.2009
  668MOL0     H90174  11.962   8.104  11.450  3.9395 -2.1490  0.2725
  668MOL0     H90175  11.968   7.931  11.396  2.2783  0.8131 -0.9844
  668MOL0     H90176  11.920   8.018  11.686 -1.4250 -1.6760  0.2671
  668MOL0     H90177  12.081   7.977  11.618  0.2593 -3.4545 -0.9979
  668MOL0     H90178  11.922   7.601  11.649  0.8835  0.1128  1.9408
  668MOL0     H90179  11.492   8.096  11.336  4.7136 -1.1461  0.3369
  668MOL0     H90180  11.334   8.284  11.326  0.9182 -0.2574  1.9335
  669MOL0     O90181  10.384   1.119   8.167  0.1986 -0.3121 -0.6546
  669MOL0     C90182  10.423   1.101   8.054  0.2540  0.5022 -0.1577
  669MOL0     O90183  10.341   1.091   7.946  0.2525  0.4229 -0.4368
  669MOL0     C90184  10.201   1.103   7.962 -0.5628  0.5948 -0.5066
  669MOL0     C90185  10.116   0.996   7.947 -1.4542  0.0300  0.7155
  669MOL0     C90186   9.978   1.021   7.967 -0.4487  0.2568  0.2255
  669MOL0     C90187   9.934   1.151   7.993 -1.0568  0.7723  0.0249
  669MOL0     O90188   9.797   1.160   7.990 -0.4582  0.1383 -0.6281
  669MOL0     C90189   9.721   1.281   7.994 -0.8772  0.6159 -0.5851
  669MOL0     C90190   9.576   1.252   7.950  0.5236 -0.3065  0.4673
  669MOL0     C90191   9.566   1.293   7.798  0.8126  0.4392  0.5371
  669MOL0     C90192   9.423   1.267   7.737 -0.6957  0.0349 -0.7462
  669MOL0     C90193   9.316   1.370   7.773  0.8119  0.1216  0.4905
  669MOL0     C90194   9.183   1.302   7.759  0.7650  0.2877  0.1255
  669MOL0     C90195   9.058   1.394   7.792  0.2790  0.3056  0.2078
  669MOL0     C90196   9.021   1.481   7.669 -0.8592  0.5013  0.1708
  669MOL0     N90197   8.881   1.524   7.671 -0.4563 -1.0230  0.4487
  669MOL0     C90198   8.794   1.530   7.560 -0.0594 -0.0069 -0.1635
  669MOL0     C90199   8.682   1.589   7.604  0.2266  0.0721 -1.1990
  669MOL0     C90200   8.553   1.601   7.527 -1.1552  0.1890  0.4761
  669MOL0     C90201   8.431   1.656   7.596 -0.2341 -0.7128 -0.4169
  669MOL0     C90202   8.315   1.653   7.497  0.3294 -0.2397 -0.5828
  669MOL0     C90203   8.206   1.744   7.552 -0.0851 -0.5390  0.7296
  669MOL0     O90204   8.165   1.685   7.675 -0.1051  0.4578  0.1337
  669MOL0     C90205   8.046   1.704   7.728  0.4239 -1.0753 -0.2103
  669MOL0     C90206   7.951   1.798   7.685 -0.2035 -0.0572 -0.1063
  669MOL0     C90207   7.833   1.819   7.757  0.9118 -0.1405 -0.5758
  669MOL0     C90208   7.749   1.930   7.710  0.2085 -0.1558  0.0018
  669MOL0     C90209   7.803   1.746   7.871  0.3620  0.1575  0.7554
  669MOL0     C90210   7.675   1.747   7.940  0.7170 -0.5878  0.2683
  669MOL0     O90211   7.670   1.680   8.059  0.0345 -0.4794 -0.2774
  669MOL0     C90212   7.559   1.681   8.140  0.8476  0.0369  0.5146
  669MOL0     C90213   7.580   1.722   8.270 -0.0224  0.4978 -1.3196
  669MOL0     C90214   7.475   1.712   8.368  0.0196 -0.2276 -0.4000
  669MOL0     C90215   7.351   1.673   8.326  0.2420  0.2902  0.8644
  669MOL0     O90216   7.266   1.644   8.429  0.4295 -0.2143  0.1596
  669MOL0     C90217   7.165   1.744   8.473  0.3132 -0.1380  0.0538
  669MOL0     C90218   7.047   1.737   8.378  0.2896 -0.9004  0.3016
  669MOL0     C90219   6.995   1.588   8.356 -0.5395 -0.6332  0.2056
  669MOL0     C90220   6.842   1.591   8.344 -0.3137  0.2436  0.4487
  669MOL0     C90221   6.781   1.459   8.301  0.2857 -0.4427  0.1257
  669MOL0     C90222   6.623   1.458   8.313  0.1906  0.3740 -0.2602
  669MOL0     C90223   6.565   1.331   8.271 -1.6639  0.4430  0.0043
  669MOL0     C90224   6.427   1.314   8.333 -0.2788  0.4977 -0.8408
  669MOL0    Cl90225   6.361   1.161   8.268 -0.2144 -0.0142  0.0709
  669MOL0     C90226   7.324   1.625   8.199  0.3452  0.1856 -0.2210
  669MOL0     C90227   7.425   1.644   8.105  0.6544  0.8610 -0.2778
  669MOL0     O90228   7.576   1.802   7.888  0.4759  0.1402 -0.0543
  669MOL0     C90229   7.900   1.647   7.905  0.2157  0.3002 -0.9526
  669MOL0     C90230   8.023   1.632   7.839  0.8790  0.5743  0.2761
  669MOL0     N90231   8.695   1.611   7.739 -0.0251  0.8189  0.2102
  669MOL0     N90232   8.814   1.567   7.779 -0.0123 -0.4363 -0.2762
  669MOL0     C90233  10.016   1.257   8.006  0.0976  0.3368  0.2289
  669MOL0     C90234  10.154   1.240   7.988  0.3791  0.8926 -0.0253
  669MOL0     C90235  10.570   1.089   8.034  1.1096 -0.5262  0.5919
  669MOL0     C90236  10.662   1.147   8.122 -0.6903  1.0521  0.2372
  669MOL0     C90237  10.800   1.125   8.110  0.7265 -0.4674  0.1943
  669MOL0     C90238  10.850   1.037   8.012  0.1745 -0.6416  0.5468
  669MOL0     O90239  10.983   1.013   7.989  0.2818 -0.5878  0.3968
  669MOL0     C90240  11.080   1.065   8.081  0.1882  0.7213 -0.1586
  669MOL0     C90241  11.224   1.019   8.029 -0.6563  0.0685 -0.1103
  669MOL0     C90242  11.251   0.874   8.052  0.6088  0.1294  0.5905
  669MOL0     C90243  11.399   0.834   8.027 -0.2566 -0.0332  0.5903
  669MOL0     C90244  11.466   0.894   7.910  0.3139 -0.0778  0.1818
  669MOL0     C90245  11.518   0.948   7.816  0.1211 -0.0166  0.0892
  669MOL0     C90246  10.758   0.974   7.928  0.0020  0.1719 -0.1264
  669MOL0     C90247  10.618   1.001   7.937  0.5397  0.8677 -0.7094
  669MOL0     H90248  10.147   0.894   7.932 -1.8724  0.2950 -2.5081
  669MOL0     H90249   9.918   0.932   7.951  0.9774 -0.4658 -1.3854
  669MOL0     H90250   9.717   1.323   8.095  0.7240  1.4910 -0.8482
  669MOL0     H90251   9.774   1.353   7.932 -0.4540  0.7617 -0.0648
  669MOL0     H90252   9.560   1.144   7.951  0.3620 -0.3343 -1.4921
  669MOL0     H90253   9.493   1.299   8.003 -2.1685  1.2852 -4.5231
  669MOL0     H90254   9.584   1.400   7.781  2.4280  0.4411  1.9546
  669MOL0     H90255   9.641   1.242   7.737  0.8317  0.7513  0.2978
  669MOL0     H90256   9.430   1.256   7.629  3.5865  0.7931 -0.6940
  669MOL0     H90257   9.392   1.171   7.780  0.2282  0.2225  0.3696
  669MOL0     H90258   9.345   1.419   7.867  0.8846 -1.8416  1.5484
  669MOL0     H90259   9.311   1.448   7.697  1.0760 -2.8583 -2.8084
  669MOL0     H90260   9.166   1.260   7.659 -0.4965  1.1681 -0.0442
  669MOL0     H90261   9.191   1.219   7.830  1.3538 -0.9648 -1.3456
  669MOL0     H90262   8.966   1.337   7.807  0.8921 -0.9559 -0.6912
  669MOL0     H90263   9.075   1.463   7.876 -0.5692  1.1079 -0.2571
  669MOL0     H90264   9.041   1.425   7.577 -1.0960 -1.5979  1.3421
  669MOL0     H90265   9.083   1.571   7.668  0.1526 -0.1729  0.1396
  669MOL0     H90266   8.799   1.499   7.457 -1.9035 -0.6984 -0.0885
  669MOL0     H90267   8.587   1.663   7.443 -1.8317 -1.5667 -1.1633
  669MOL0     H90268   8.528   1.501   7.490 -0.2440 -0.3124  1.1720
  669MOL0     H90269   8.451   1.759   7.624 -1.1381 -0.1712 -1.6449
  669MOL0     H90270   8.415   1.591   7.682  0.3647 -1.5441 -0.9036
  669MOL0     H90271   8.277   1.552   7.477  0.8480 -0.9475  1.6763
  669MOL0     H90272   8.346   1.686   7.397  2.0590  0.7168  0.2241
  669MOL0     H90273   8.118   1.742   7.486  0.0804 -5.4005  0.2824
  669MOL0     H90274   8.253   1.843   7.550  0.6150 -0.8651  1.1799
  669MOL0     H90275   7.964   1.857   7.595  3.4286 -0.5800 -0.0601
  669MOL0     H90276   7.801   1.982   7.630 -1.6233  3.7684  1.0953
  669MOL0     H90277   7.650   1.906   7.670  0.2728 -0.0479 -0.2232
  669MOL0     H90278   7.747   2.008   7.788  0.3797  0.2703 -0.4131
  669MOL0     H90279   7.682   1.750   8.295  0.9954 -3.1007 -0.8527
  669MOL0     H90280   7.491   1.741   8.472  1.7110 -1.8931 -0.1517
  669MOL0     H90281   7.121   1.715   8.569 -3.5726 -0.1473 -1.5597
  669MOL0     H90282   7.223   1.837   8.472  2.1446 -1.2295  0.1088
  669MOL0     H90283   6.971   1.800   8.426  1.1129 -1.8474  2.9892
  669MOL0     H90284   7.076   1.784   8.283  1.3984 -2.5754 -0.2340
  669MOL0     H90285   7.026   1.534   8.446  1.3267 -0.4633 -0.2964
  669MOL0     H90286   7.038   1.535   8.270 -0.7140 -1.0908  0.3928
  669MOL0     H90287   6.808   1.623   8.443  0.5618  1.2793  0.4209
  669MOL0     H90288   6.806   1.666   8.272 -1.9843  0.0228  0.9946
  669MOL0     H90289   6.822   1.384   8.370  0.4933 -2.8779 -2.4424
  669MOL0     H90290   6.811   1.438   8.198  3.2406  2.0956  0.2935
  669MOL0     H90291   6.598   1.476   8.418  2.4090 -3.7285  1.2163
  669MOL0     H90292   6.579   1.532   8.246  3.7578  2.4043 -0.5875
  669MOL0     H90293   6.621   1.248   8.315  1.1646  1.1396 -1.9311
  669MOL0     H90294   6.569   1.318   8.162 -1.2660  0.6041 -0.0044
  669MOL0     H90295   6.364   1.403   8.321 -1.4732  0.3412  2.8415
  669MOL0     H90296   6.445   1.308   8.441  1.0558 -0.0684 -1.0762
  669MOL0     H90297   7.224   1.587   8.179  0.3588 -1.0278  1.7606
  669MOL0     H90298   7.407   1.625   8.000  1.7483 -0.0812 -0.3124
  669MOL0     H90299   7.885   1.589   7.996  1.6488 -1.8848 -2.0226
  669MOL0     H90300   8.086   1.553   7.877 -0.3400  0.3475  1.9313
  669MOL0     H90301   9.980   1.355   8.037  2.1518  0.0965  3.8702
  669MOL0     H90302  10.225   1.321   7.993  0.0322  1.6609 -4.0867
  669MOL0     H90303  10.637   1.225   8.193  0.1214  0.7837  0.8277
  669MOL0     H90304  10.874   1.168   8.177 -0.5725  0.6689  0.9248
  669MOL0     H90305  11.078   1.174   8.076  1.2256  0.7049 -1.5178
  669MOL0     H90306  11.048   1.027   8.178 -1.3235  0.2974 -0.7957
  669MOL0     H90307  11.307   1.062   8.086  0.5620 -1.2356 -0.8602
  669MOL0     H90308  11.239   1.052   7.926  0.4746 -0.3142 -0.0777
  669MOL0     H90309  11.197   0.823   7.972  1.4218 -0.4667  0.4133
  669MOL0     H90310  11.207   0.838   8.146 -0.9062 -2.2573 -0.9129
  669MOL0     H90311  11.398   0.725   8.013 -1.6334  0.1327 -0.8941
  669MOL0     H90312  11.444   0.863   8.123 -0.9183 -0.3495  0.9970
  669MOL0     H90313  11.573   0.996   7.738  0.9512 -1.7506 -0.4405
  669MOL0     H90314  10.787   0.887   7.869  2.0794 -0.5836  1.8613
  669MOL0     H90315  10.546   0.942   7.881  0.7057  1.6122 -1.7370
  670MOL0     O90316   9.855   3.255   8.308 -0.0944  0.1054 -0.4403
  670MOL0     C90317   9.791   3.236   8.417 -0.0626 -0.2050 -0.6923
  670MOL0     O90318   9.828   3.259   8.545 -0.4497  0.3737  0.2593
  670MOL0     C90319   9.949   3.316   8.574 -0.0319  0.1228 -0.6760
  670MOL0     C90320  10.026   3.402   8.493 -0.5186 -0.0514  0.5634
  670MOL0     C90321  10.145   3.461   8.527  0.6364 -0.5878 -0.0031
  670MOL0     C90322  10.206   3.427   8.649 -0.0340  0.2676 -0.4346
  670MOL0     O90323  10.335   3.480   8.682  0.8314  0.0504 -0.1892
  670MOL0     C90324  10.410   3.547   8.577 -0.4283 -0.0809 -0.3840
  670MOL0     C90325  10.551   3.569   8.634 -0.0858  0.0079  0.6961
  670MOL0     C90326  10.633   3.637   8.524 -0.6528  0.1129 -0.6374
  670MOL0     C90327  10.783   3.599   8.514  0.3898  0.3259  0.3223
  670MOL0     C90328  10.865   3.627   8.640  0.0580  0.0079  0.5368
  670MOL0     C90329  11.019   3.627   8.599  0.4792 -0.0938 -0.9011
  670MOL0     C90330  11.101   3.635   8.731  0.7039  0.0927  0.3453
  670MOL0     C90331  11.132   3.502   8.792 -0.0298 -0.1015 -0.7261
  670MOL0     N90332  11.183   3.394   8.704 -0.8130 -0.1508  0.3416
  670MOL0     C90333  11.311   3.402   8.646 -0.5747 -0.2859  0.3402
  670MOL0     C90334  11.310   3.283   8.582 -0.9956 -0.0771  0.1408
  670MOL0     C90335  11.426   3.234   8.501  0.7194  0.3770  1.3558
  670MOL0     C90336  11.421   3.261   8.348  0.0569 -0.7033  0.7019
  670MOL0     C90337  11.296   3.190   8.286  0.8308 -0.6187 -0.6438
  670MOL0     C90338  11.305   3.034   8.295  0.1297  0.0077  0.4297
  670MOL0     O90339  11.250   2.962   8.185  0.3048 -0.2468  0.0571
  670MOL0     C90340  11.117   2.937   8.163  0.9257 -0.5524  0.0122
  670MOL0     C90341  11.006   2.993   8.227 -0.3722 -0.2223  0.5317
  670MOL0     C90342  10.881   2.978   8.176  0.2701  0.0644  0.0124
  670MOL0     C90343  10.776   3.039   8.258 -0.7422 -0.2828 -0.6822
  670MOL0     C90344  10.857   2.909   8.047  0.2517 -1.1844 -0.4408
  670MOL0     C90345  10.721   2.896   7.985 -0.0547 -0.5736  0.0916
  670MOL0     O90346  10.624   2.981   8.028 -0.0906  0.2872 -0.3028
  670MOL0     C90347  10.498   2.973   7.971 -0.3342 -0.7546 -0.6398
  670MOL0     C90348  10.467   3.016   7.839 -0.2605  0.1060 -0.0785
  670MOL0     C90349  10.338   2.993   7.786 -0.2149  0.3022 -0.2323
  670MOL0     C90350  10.237   2.943   7.872  0.1424 -0.3441  0.5468
  670MOL0     O90351  10.110   2.934   7.813 -0.1873  0.1947  0.8487
  670MOL0     C90352   9.989   2.933   7.891 -0.2514  0.1249  0.1858
  670MOL0     C90353   9.887   3.018   7.813  0.0735 -0.3757  0.3102
  670MOL0     C90354   9.750   2.993   7.874 -0.1305  0.2691 -0.0918
  670MOL0     C90355   9.644   3.043   7.777  0.3073 -0.0329 -0.7024
  670MOL0     C90356   9.514   3.062   7.867 -0.3057  0.6587 -0.9018
  670MOL0     C90357   9.395   3.109   7.786  0.1906 -0.1324  0.3151
  670MOL0     C90358   9.283   3.174   7.876 -0.0887  0.9558 -0.1196
  670MOL0     C90359   9.181   3.223   7.784 -0.4796  0.0592  0.7282
  670MOL0    Cl90360   9.039   3.261   7.885 -0.0243 -0.1122  0.2185
  670MOL0     C90361  10.266   2.902   7.998 -0.2406  0.1844  0.2779
  670MOL0     C90362  10.401   2.916   8.048  0.7200 -0.3505 -0.8163
  670MOL0     O90363  10.707   2.828   7.884  0.0901  0.3028  0.6028
  670MOL0     C90364  10.971   2.860   7.977  0.2283  0.3673 -1.4435
  670MOL0     C90365  11.097   2.865   8.045  0.1299  0.7560  0.8925
  670MOL0     N90366  11.192   3.209   8.595 -0.1252  0.5125 -0.8008
  670MOL0     N90367  11.116   3.281   8.668  0.0619 -0.2916  0.1256
  670MOL0     C90368  10.142   3.332   8.726  0.3055  0.0772  0.0452
  670MOL0     C90369  10.015   3.279   8.691  0.0226 -0.5855  0.8122
  670MOL0     C90370   9.649   3.199   8.386 -0.6464 -0.8021  0.3963
  670MOL0     C90371   9.627   3.115   8.273  0.0189  0.1525  0.2060
  670MOL0     C90372   9.500   3.070   8.238 -0.1591 -0.2803 -0.8736
  670MOL0     C90373   9.390   3.106   8.322 -0.9955 -0.5126  0.2339
  670MOL0     O90374   9.261   3.060   8.311  0.4183 -0.2500  0.7744
  670MOL0     C90375   9.231   2.958   8.215  0.1811  0.0196  0.2454
  670MOL0     C90376   9.087   2.895   8.244  0.6167 -0.9073  0.2214
  670MOL0     C90377   8.982   2.999   8.286 -0.4342  0.6866 -0.5531
  670MOL0     C90378   8.973   3.114   8.189  0.3521 -0.2769  0.1804
  670MOL0     C90379   8.884   3.221   8.246 -0.3933  0.2080 -0.6628
  670MOL0     C90380   8.814   3.311   8.296 -0.2324 -0.3686  0.5950
  670MOL0     C90381   9.413   3.194   8.430  0.3548 -0.0927 -0.0270
  670MOL0     C90382   9.543   3.240   8.469  0.0278  0.1322 -0.8678
  670MOL0     H90383   9.989   3.423   8.393 -0.1987  1.5776  0.7499
  670MOL0     H90384  10.190   3.535   8.461  2.4155  0.2540  2.0287
  670MOL0     H90385  10.419   3.480   8.491  0.3798 -1.8511  1.0090
  670MOL0     H90386  10.361   3.641   8.550  0.3750  0.1076 -1.2617
  670MOL0     H90387  10.536   3.635   8.720  1.3206  1.9697 -0.4965
  670MOL0     H90388  10.594   3.473   8.665 -0.9384 -0.9054 -0.7881
  670MOL0     H90389  10.590   3.615   8.426 -1.8322 -0.6798  0.0310
  670MOL0     H90390  10.623   3.746   8.528 -0.9349  0.0517  1.7692
  670MOL0     H90391  10.788   3.493   8.488 -0.5504  0.4082 -0.2401
  670MOL0     H90392  10.828   3.656   8.433 -0.5504 -0.5930 -0.8751
  670MOL0     H90393  10.847   3.725   8.684  0.1803 -0.4524  1.6497
  670MOL0     H90394  10.840   3.550   8.714 -0.7108  0.5076  0.8056
  670MOL0     H90395  11.059   3.544   8.539  0.8056 -1.2753  0.8826
  670MOL0     H90396  11.029   3.721   8.543  2.4832  0.5865  0.4895
  670MOL0     H90397  11.197   3.686   8.725  2.3633 -2.7472  0.8664
  670MOL0     H90398  11.054   3.687   8.815  1.6858 -0.7780  1.4707
  670MOL0     H90399  11.042   3.467   8.843 -1.9219  2.5938 -1.9768
  670MOL0     H90400  11.195   3.507   8.881 -0.6181 -3.7873  0.0812
  670MOL0     H90401  11.389   3.476   8.662 -2.1110  1.5944 -0.3851
  670MOL0     H90402  11.519   3.279   8.538  0.4275  0.8234  1.5480
  670MOL0     H90403  11.435   3.127   8.520  0.0067 -0.1298 -0.9148
  670MOL0     H90404  11.511   3.225   8.299  0.6475  1.0666  0.4310
  670MOL0     H90405  11.418   3.368   8.327  0.9811 -0.9899 -1.0044
  670MOL0     H90406  11.272   3.222   8.184 -1.0410  0.1698 -0.0055
  670MOL0     H90407  11.209   3.221   8.345  2.4477 -1.0366  2.1558
  670MOL0     H90408  11.244   3.008   8.382  0.7876  2.2532  1.6356
  670MOL0     H90409  11.409   3.003   8.308 -0.0025 -0.6279  0.0531
  670MOL0     H90410  11.035   3.056   8.310 -0.6532  0.2583  0.2738
  670MOL0     H90411  10.697   2.970   8.287 -1.0023 -0.1486 -1.0619
  670MOL0     H90412  10.825   3.075   8.348  0.9131 -1.2194 -1.1510
  670MOL0     H90413  10.739   3.124   8.200 -3.4620 -1.4929 -0.8852
  670MOL0     H90414  10.533   3.076   7.777  0.5784  0.2185  0.8875
  670MOL0     H90415  10.317   3.005   7.680 -1.8023 -2.2328 -0.2892
  670MOL0     H90416   9.946   2.832   7.895  1.3238 -0.5515  1.8932
  670MOL0     H90417  10.004   2.970   7.993  1.3342 -0.8311  0.3461
  670MOL0     H90418   9.905   3.126   7.803 -2.2215  0.0479  0.2085
  670MOL0     H90419   9.876   2.992   7.707 -2.3744 -1.0037  0.6584
  670MOL0     H90420   9.749   3.063   7.959 -0.0690 -1.9565  1.8427
  670MOL0     H90421   9.735   2.888   7.899  1.4622 -0.2552 -1.1696
  670MOL0     H90422   9.676   3.144   7.752 -0.0887  0.4245  0.5813
  670MOL0     H90423   9.630   2.988   7.683 -1.0395  2.5307 -2.0941
  670MOL0     H90424   9.526   3.136   7.946  2.8322 -0.7425  0.1063
  670MOL0     H90425   9.497   2.965   7.916 -0.4603  1.6557  1.1037
  670MOL0     H90426   9.418   3.185   7.711  0.7215 -2.2718 -1.8499
  670MOL0     H90427   9.348   3.025   7.733  2.4976 -0.7959 -0.8260
  670MOL0     H90428   9.319   3.260   7.933  1.1813  1.4208 -1.5781
  670MOL0     H90429   9.243   3.103   7.949  2.3016  0.7988  1.1142
  670MOL0     H90430   9.156   3.153   7.704 -0.8112  1.5195 -0.4990
  670MOL0     H90431   9.225   3.312   7.738  1.6062 -1.0102  0.5477
  670MOL0     H90432  10.192   2.861   8.065  2.3170 -0.5902  2.8249
  670MOL0     H90433  10.423   2.884   8.150  0.5318 -2.3126 -1.3536
  670MOL0     H90434  10.962   2.826   7.875  1.3004 -0.5913 -1.2294
  670MOL0     H90435  11.186   2.830   7.994 -1.4558  0.2505 -1.7194
  670MOL0     H90436  10.190   3.305   8.820 -0.7861 -0.6420  0.4083
  670MOL0     H90437   9.961   3.209   8.755 -1.5674  0.0030  0.1638
  670MOL0     H90438   9.703   3.080   8.204  0.2537  0.5028  0.2822
  670MOL0     H90439   9.483   3.007   8.151  1.0213 -0.6748 -0.8372
  670MOL0     H90440   9.232   3.002   8.115  2.2683  2.5688  1.2711
  670MOL0     H90441   9.300   2.874   8.213 -0.9539 -0.9912  1.5268
  670MOL0     H90442   9.102   2.837   8.336  1.2468 -1.4775 -0.2355
  670MOL0     H90443   9.052   2.823   8.170  0.8195 -0.8116  0.0337
  670MOL0     H90444   9.008   3.040   8.384 -0.5235  3.4548 -1.6113
  670MOL0     H90445   8.888   2.942   8.291  0.2165 -0.6638 -2.5089
  670MOL0     H90446   8.939   3.084   8.090  2.1714 -0.0201 -0.5486
  670MOL0     H90447   9.072   3.158   8.174 -0.9987  3.1451  0.1812
  670MOL0     H90448   8.762   3.387   8.351 -2.1328 -2.4798  1.9343
  670MOL0     H90449   9.328   3.237   8.482  0.4122 -1.1715  0.9964
  670MOL0     H90450   9.553   3.306   8.554 -2.2599 -1.8038  1.0505
  671MOL0     O90451   3.834   5.752   3.773  0.4273  0.2987 -0.0683
  671MOL0     C90452   3.873   5.859   3.730 -0.4808  0.4765 -0.6888
  671MOL0     O90453   3.793   5.962   3.686 -0.0907  0.3534 -0.0899
  671MOL0     C90454   3.654   5.947   3.692  1.0215  0.4738  0.3576
  671MOL0     C90455   3.571   5.981   3.584  0.0922 -0.3639 -0.0519
  671MOL0     C90456   3.431   5.968   3.597 -0.2444  0.9208 -0.7837
  671MOL0     C90457   3.368   5.932   3.723 -0.4348 -0.4782  0.1625
  671MOL0     O90458   3.235   5.910   3.738 -0.5362  0.3415 -0.0211
  671MOL0     C90459   3.150   6.021   3.707 -0.2601  0.0326  0.2458
  671MOL0     C90460   3.038   6.035   3.807 -0.5696 -0.9225 -0.6993
  671MOL0     C90461   2.937   5.923   3.816  0.5467 -0.6564 -0.3101
  671MOL0     C90462   2.904   5.892   3.960 -0.0770  0.2228 -0.9310
  671MOL0     C90463   2.772   5.811   3.959  0.7645  0.0307 -0.1378
  671MOL0     C90464   2.724   5.775   4.095 -0.0797  0.0853 -0.7658
  671MOL0     C90465   2.674   5.884   4.185  0.2521 -0.4858 -0.4010
  671MOL0     C90466   2.623   5.842   4.320 -0.4877 -0.0368 -0.5883
  671MOL0     N90467   2.514   5.749   4.317 -0.3240 -0.1135  0.2525
  671MOL0     C90468   2.373   5.768   4.322 -0.1611 -0.1249 -0.4247
  671MOL0     C90469   2.324   5.641   4.299  0.1747  0.4451 -0.0949
  671MOL0     C90470   2.186   5.600   4.276 -0.1404 -0.8915  0.0368
  671MOL0     C90471   2.088   5.643   4.390 -0.2942 -0.4148  0.1271
  671MOL0     C90472   1.947   5.604   4.342  0.1158 -0.0009  0.2393
  671MOL0     C90473   1.841   5.663   4.445 -0.7697 -0.1744  0.1999
  671MOL0     O90474   1.706   5.652   4.385 -0.3613  0.3779  0.1994
  671MOL0     C90475   1.598   5.688   4.452 -0.1625  0.0489 -0.0168
  671MOL0     C90476   1.482   5.634   4.399  0.6419  1.0757  0.4511
  671MOL0     C90477   1.350   5.667   4.456 -0.2881 -0.3925 -0.5256
  671MOL0     C90478   1.220   5.618   4.398  1.1186 -0.4929  0.4167
  671MOL0     C90479   1.348   5.739   4.577  0.6494  0.3317 -0.3513
  671MOL0     C90480   1.224   5.793   4.643  0.7252  1.2336 -0.4771
  671MOL0     O90481   1.227   5.912   4.703  0.8650 -0.3771  0.3462
  671MOL0     C90482   1.120   5.955   4.772  0.3376 -0.1317 -0.8368
  671MOL0     C90483   1.055   5.888   4.879 -0.3377  0.6775  0.5304
  671MOL0     C90484   0.957   5.953   4.940 -0.8695 -0.5076 -0.2724
  671MOL0     C90485   0.927   6.092   4.917  0.2372  0.8474 -0.0174
  671MOL0     O90486   0.847   6.170   4.993  0.6289  0.0309  0.0330
  671MOL0     C90487   0.853   6.159   5.135  0.2991  0.2728  0.3522
  671MOL0     C90488   0.735   6.097   5.196  0.0904  0.2793 -0.5525
  671MOL0     C90489   0.617   6.188   5.193 -0.0047  0.3649 -0.6481
  671MOL0     C90490   0.635   6.288   5.314  0.4844  0.0651  0.8538
  671MOL0     C90491   0.515   6.382   5.323 -0.4802 -0.2937 -0.7335
  671MOL0     C90492   0.498   6.473   5.444 -0.4029 -0.3572 -0.4206
  671MOL0     C90493   0.613   6.581   5.437 -0.0683  0.0405 -0.3432
  671MOL0     C90494   0.601   6.668   5.566 -0.9315 -0.6700 -0.7009
  671MOL0    Cl90495   0.439   6.747   5.582 -0.1095  0.4803  0.0927
  671MOL0     C90496   1.003   6.165   4.828  0.2636  0.8268 -0.3594
  671MOL0     C90497   1.097   6.092   4.751  0.4684  0.1151  0.2802
  671MOL0     O90498   1.126   5.716   4.636  0.2406 -0.6248 -0.4938
  671MOL0     C90499   1.469   5.792   4.632 -0.8126  0.1834  0.2877
  671MOL0     C90500   1.585   5.770   4.561 -0.7146 -0.0056 -0.2820
  671MOL0     N90501   2.434   5.552   4.277  0.3245 -0.2793  0.6445
  671MOL0     N90502   2.537   5.621   4.284 -0.2227 -0.6863  0.7148
  671MOL0     C90503   3.454   5.898   3.826  0.2759 -0.4222  0.8969
  671MOL0     C90504   3.587   5.909   3.812  0.1793 -1.0035 -0.3655
  671MOL0     C90505   4.022   5.876   3.711  0.6609 -0.8328  0.4009
  671MOL0     C90506   4.068   5.982   3.636 -0.7131  0.1001  0.1483
  671MOL0     C90507   4.208   6.002   3.624  0.2223  0.2366  0.0592
  671MOL0     C90508   4.298   5.918   3.685  0.1911 -0.6641 -0.5822
  671MOL0     O90509   4.424   5.957   3.672 -0.5606  0.4287 -0.2200
  671MOL0     C90510   4.536   5.867   3.703 -0.0466 -0.3309  0.0244
  671MOL0     C90511   4.674   5.920   3.648 -0.4804  0.4315  0.0112
  671MOL0     C90512   4.672   5.924   3.495 -0.4211 -0.2956  0.5037
  671MOL0     C90513   4.625   6.064   3.440 -0.5076  0.0978 -0.3915
  671MOL0     C90514   4.583   6.041   3.305  0.3943  0.3631  0.2351
  671MOL0     C90515   4.533   6.047   3.192  0.4307 -1.0199 -0.3122
  671MOL0     C90516   4.254   5.799   3.746 -0.2157 -0.3465  0.2181
  671MOL0     C90517   4.112   5.784   3.769  0.2996  0.5248 -0.4084
  671MOL0     H90518   3.615   6.011   3.489 -0.6350 -1.1887 -0.6641
  671MOL0     H90519   3.369   5.976   3.509  0.9358 -0.6723 -1.8168
  671MOL0     H90520   3.203   6.116   3.700 -0.7294  0.3206  0.5150
  671MOL0     H90521   3.108   6.002   3.608  0.6361 -0.2343 -0.0864
  671MOL0     H90522   3.091   6.035   3.902 -0.8683 -0.5850 -0.5298
  671MOL0     H90523   2.993   6.135   3.803  1.9153  0.3152  0.3471
  671MOL0     H90524   2.842   5.966   3.783 -1.1857 -1.3739  3.2106
  671MOL0     H90525   2.967   5.836   3.758  3.4766 -0.6357  0.9609
  671MOL0     H90526   2.989   5.838   4.002 -0.6069 -0.4866 -0.7524
  671MOL0     H90527   2.884   5.973   4.031 -1.1408 -1.6641  1.0357
  671MOL0     H90528   2.697   5.862   3.896  0.9004  0.5424  0.1116
  671MOL0     H90529   2.785   5.719   3.901 -0.6577 -0.0454 -0.3807
  671MOL0     H90530   2.636   5.715   4.073  0.4934 -1.4136  0.8275
  671MOL0     H90531   2.806   5.720   4.142 -0.1640  0.2167 -0.4594
  671MOL0     H90532   2.746   5.964   4.201 -0.5899  0.0104  1.1593
  671MOL0     H90533   2.596   5.941   4.134  1.8945  2.0207 -0.2570
  671MOL0     H90534   2.574   5.933   4.354 -0.0683  0.7221 -1.9567
  671MOL0     H90535   2.701   5.804   4.387 -1.7064  1.5050  1.8157
  671MOL0     H90536   2.320   5.861   4.337 -0.6915 -0.5674  0.5267
  671MOL0     H90537   2.144   5.651   4.189 -1.3144 -3.2169 -0.8557
  671MOL0     H90538   2.181   5.495   4.244 -2.8297 -1.6614  2.4847
  671MOL0     H90539   2.084   5.750   4.410 -0.3247 -0.3606 -0.1665
  671MOL0     H90540   2.103   5.597   4.488 -0.7424 -1.4368 -0.2705
  671MOL0     H90541   1.935   5.495   4.332 -0.1499 -0.2082  2.3645
  671MOL0     H90542   1.921   5.648   4.245 -2.6645 -1.5020  0.2081
  671MOL0     H90543   1.854   5.772   4.451  1.4187 -0.3949  0.2313
  671MOL0     H90544   1.852   5.607   4.538 -0.0217 -0.5111 -0.0906
  671MOL0     H90545   1.501   5.593   4.300 -0.1906  2.3771 -0.2700
  671MOL0     H90546   1.167   5.555   4.470 -1.4641 -1.4587 -2.1458
  671MOL0     H90547   1.154   5.700   4.369 -0.1281 -1.5602  0.1888
  671MOL0     H90548   1.242   5.560   4.307 -3.2231  0.7338 -1.6605
  671MOL0     H90549   1.063   5.784   4.910 -0.6183  0.9400  1.5100
  671MOL0     H90550   0.904   5.900   5.018 -2.9876  0.9060 -0.6557
  671MOL0     H90551   0.941   6.097   5.155  1.7894  0.8229 -3.6431
  671MOL0     H90552   0.873   6.260   5.173 -0.4830  0.7413 -0.4462
  671MOL0     H90553   0.697   6.007   5.148 -0.9845 -0.6423  1.8650
  671MOL0     H90554   0.763   6.072   5.299 -1.2554  0.0910 -0.2206
  671MOL0     H90555   0.528   6.125   5.202 -0.7170  1.2925 -1.0104
  671MOL0     H90556   0.614   6.246   5.101  0.3960  1.3055 -0.0873
  671MOL0     H90557   0.642   6.233   5.408  1.3452 -0.0666  0.7166
  671MOL0     H90558   0.725   6.347   5.299  0.2284  0.8302  2.1907
  671MOL0     H90559   0.422   6.324   5.319 -0.2590 -0.7061 -0.0282
  671MOL0     H90560   0.524   6.448   5.236  3.1201  0.0650 -0.2419
  671MOL0     H90561   0.404   6.529   5.442  1.7091  3.7242  1.3254
  671MOL0     H90562   0.502   6.422   5.541 -2.8012 -1.6145 -0.9056
  671MOL0     H90563   0.587   6.641   5.349 -1.8997 -2.3375 -1.5230
  671MOL0     H90564   0.712   6.539   5.419 -0.8596 -1.9693 -0.2624
  671MOL0     H90565   0.682   6.741   5.560 -1.7793  0.4537  0.7820
  671MOL0     H90566   0.616   6.607   5.655 -1.5022 -1.9917 -1.4759
  671MOL0     H90567   0.984   6.272   4.824  2.6097  1.3758  1.1225
  671MOL0     H90568   1.168   6.146   4.689  0.9311  1.1162  1.6450
  671MOL0     H90569   1.465   5.851   4.723  1.9314 -0.4920  0.9513
  671MOL0     H90570   1.676   5.793   4.616 -0.5138 -1.5073  0.0855
  671MOL0     H90571   3.408   5.862   3.918 -0.2110  0.5438  1.0511
  671MOL0     H90572   3.639   5.878   3.902  0.6835  0.4644 -0.1211
  671MOL0     H90573   3.998   6.053   3.594 -0.3580  1.4265  1.7207
  671MOL0     H90574   4.240   6.089   3.566  1.2067  0.2398  0.5772
  671MOL0     H90575   4.545   5.849   3.810  2.1953 -2.5270 -0.4084
  671MOL0     H90576   4.524   5.771   3.650  1.6786  1.0307 -3.1587
  671MOL0     H90577   4.755   5.857   3.685 -0.1621  1.3790  0.9671
  671MOL0     H90578   4.695   6.018   3.690  0.2002 -1.2644  4.0860
  671MOL0     H90579   4.596   5.851   3.465  1.1231 -2.0979  0.8100
  671MOL0     H90580   4.767   5.901   3.447 -0.4146  2.2040 -0.8784
  671MOL0     H90581   4.709   6.132   3.452 -0.4884 -0.2758  1.9723
  671MOL0     H90582   4.535   6.097   3.493 -0.1546  0.4514 -0.0122
  671MOL0     H90583   4.477   6.066   3.103 -1.3371  1.4368  1.1959
  671MOL0     H90584   4.313   5.722   3.793 -3.4492 -2.9026  0.4773
  671MOL0     H90585   4.077   5.701   3.829 -2.7585  0.2825 -2.2967
  672MOL0     O90586   4.094   6.000  10.601  0.5253  0.2732 -0.3011
  672MOL0     C90587   4.063   6.106  10.548 -0.1715  0.9489 -0.1869
  672MOL0     O90588   3.940   6.173  10.551 -0.0785  0.0653 -0.0803
  672MOL0     C90589   3.834   6.130  10.635  0.9612  0.1845  0.4742
  672MOL0     C90590   3.792   6.217  10.736 -0.5646  0.9878 -0.0357
  672MOL0     C90591   3.696   6.170  10.824  0.4203  0.5346 -0.2141
  672MOL0     C90592   3.636   6.042  10.810  0.8080 -0.2209  0.5461
  672MOL0     O90593   3.540   5.987  10.890  0.2856 -0.5423 -0.0164
  672MOL0     C90594   3.501   6.062  11.001 -0.4053 -0.3001  0.6242
  672MOL0     C90595   3.398   5.973  11.065  0.1562  0.1175 -0.0276
  672MOL0     C90596   3.273   5.938  10.969 -0.2476 -0.3965 -0.0155
  672MOL0     C90597   3.157   5.888  11.065 -0.4594  0.0379  0.3866
  672MOL0     C90598   3.038   5.870  10.978  0.3014  0.6485  0.2046
  672MOL0     C90599   2.911   5.839  11.060  0.0326  0.5270 -0.0318
  672MOL0     C90600   2.797   5.796  10.964  0.0974  0.3778 -0.0833
  672MOL0     C90601   2.674   5.764  11.043 -0.1632  0.0797 -0.0575
  672MOL0     N90602   2.619   5.854  11.152  0.1107 -0.5801 -0.2686
  672MOL0     C90603   2.569   5.979  11.126 -1.1227  0.2289  0.2052
  672MOL0     C90604   2.533   6.025  11.249  0.1989 -0.3422 -1.1037
  672MOL0     C90605   2.492   6.167  11.274  0.1906  0.7333  0.1172
  672MOL0     C90606   2.341   6.191  11.277 -0.5746 -0.3621  0.6751
  672MOL0     C90607   2.319   6.334  11.302  0.1079 -0.0505 -0.1682
  672MOL0     C90608   2.174   6.376  11.310 -0.5774 -0.9796 -0.3478
  672MOL0     O90609   2.114   6.321  11.427  0.4441  0.1615 -0.5760
  672MOL0     C90610   1.989   6.361  11.469  0.5859  0.4861  0.7319
  672MOL0     C90611   1.941   6.314  11.590  0.0402 -0.0278  0.2346
  672MOL0     C90612   1.816   6.344  11.640  0.5016 -0.6934  0.5552
  672MOL0     C90613   1.774   6.283  11.772 -0.2245 -0.1810  0.1232
  672MOL0     C90614   1.727   6.425  11.564  0.1552 -0.5015 -0.1463
  672MOL0     C90615   1.592   6.465  11.607  0.0225 -0.0801  0.4324
  672MOL0     O90616   1.570   6.472  11.738  0.9160 -0.6014 -0.6581
  672MOL0     C90617   1.442   6.504  11.781 -0.6336  0.4913 -1.0605
  672MOL0     C90618   1.369   6.619  11.741  0.0632  0.2040  0.1247
  672MOL0     C90619   1.236   6.630  11.763 -0.3638 -0.0383 -0.2213
  672MOL0     C90620   1.176   6.533  11.845  0.5429  0.0221 -0.2242
  672MOL0     O90621   1.044   6.539  11.872 -0.5503  0.0656 -0.5737
  672MOL0     C90622   1.018   6.612  11.986 -0.1879  0.5230 -0.1863
  672MOL0     C90623   0.865   6.611  11.995  0.2403 -0.4761  0.3201
  672MOL0     C90624   0.817   6.708  12.103  0.7220  0.4962 -0.2276
  672MOL0     C90625   0.690   6.660  12.178 -0.6644  0.4124 -0.4358
  672MOL0     C90626   0.659   6.763  12.286  0.3105  0.0879  1.1354
  672MOL0     C90627   0.551   6.714  12.391  0.0394 -0.1761  0.0289
  672MOL0     C90628   0.514   6.838  12.476 -0.5814 -0.0323  0.1434
  672MOL0     C90629   0.398   6.810  12.574  0.9821  0.1885  0.2923
  672MOL0    Cl90630   0.243   6.777  12.481  0.3468 -0.1013 -0.2236
  672MOL0     C90631   1.235   6.423  11.894 -0.5411 -0.1261 -0.4256
  672MOL0     C90632   1.374   6.409  11.860  0.5370  0.1224 -0.0198
  672MOL0     O90633   1.510   6.493  11.523  0.1153  0.1138  0.3577
  672MOL0     C90634   1.766   6.459  11.433 -0.6389 -0.2282 -0.5348
  672MOL0     C90635   1.900   6.438  11.387 -0.6777  1.1662 -0.3289
  672MOL0     N90636   2.554   5.927  11.348 -0.2127 -0.2047 -0.1939
  672MOL0     N90637   2.602   5.825  11.283 -0.3673 -0.6538 -0.3308
  672MOL0     C90638   3.684   5.966  10.709 -0.2277  0.6113  0.2852
  672MOL0     C90639   3.781   6.006  10.622 -0.1817 -0.8185  0.2716
  672MOL0     C90640   4.180   6.158  10.473 -0.3506 -0.2224 -0.1017
  672MOL0     C90641   4.302   6.090  10.451  0.4146  0.2977  0.7453
  672MOL0     C90642   4.409   6.157  10.396 -0.0077  0.8365  0.9826
  672MOL0     C90643   4.389   6.282  10.339  0.6696  0.4458  0.1733
  672MOL0     O90644   4.495   6.338  10.276 -0.3036  0.2991 -0.3683
  672MOL0     C90645   4.469   6.414  10.155  0.6644 -0.2420 -0.2979
  672MOL0     C90646   4.606   6.445  10.086  0.5726  0.8228 -0.0953
  672MOL0     C90647   4.598   6.465   9.933  0.2596 -0.0967 -0.7015
  672MOL0     C90648   4.739   6.492   9.877  0.3940 -0.2511 -0.0891
  672MOL0     C90649   4.794   6.620   9.910  0.1636  0.0974  0.3060
  672MOL0     C90650   4.828   6.730   9.939  0.7109  0.4636 -0.0546
  672MOL0     C90651   4.269   6.349  10.342  0.2844 -0.3956 -0.6729
  672MOL0     C90652   4.169   6.285  10.418 -0.5514 -0.2894 -0.4968
  672MOL0     H90653   3.827   6.319  10.737 -0.9545  1.1683 -2.0053
  672MOL0     H90654   3.671   6.237  10.905  0.2559  0.1198  0.0838
  672MOL0     H90655   3.591   6.071  11.063  0.5399 -2.2369 -0.3945
  672MOL0     H90656   3.467   6.165  10.982  1.3194  0.4935  1.5384
  672MOL0     H90657   3.440   5.877  11.095 -0.1325 -0.6482 -1.9295
  672MOL0     H90658   3.362   6.035  11.147 -0.3745 -1.5206  1.0209
  672MOL0     H90659   3.240   6.030  10.919 -0.4104 -0.5885 -0.2638
  672MOL0     H90660   3.299   5.868  10.889 -0.3173  0.5033 -0.8609
  672MOL0     H90661   3.178   5.789  11.105 -0.0001 -0.1605 -0.3164
  672MOL0     H90662   3.128   5.958  11.144 -0.7984  2.0954 -1.4491
  672MOL0     H90663   3.016   5.960  10.920  2.8006  0.4057 -1.2772
  672MOL0     H90664   3.056   5.789  10.906 -0.7924  0.4483  0.1372
  672MOL0     H90665   2.939   5.757  11.128  1.4753  0.5516 -0.5482
  672MOL0     H90666   2.876   5.923  11.120 -2.1717  0.5794 -1.2740
  672MOL0     H90667   2.786   5.871  10.885  2.5253 -1.0728 -1.9632
  672MOL0     H90668   2.830   5.706  10.912  3.5001  1.3548  0.1059
  672MOL0     H90669   2.692   5.667  11.090  0.5120  1.1081  1.9283
  672MOL0     H90670   2.594   5.737  10.973  1.5475  1.7074 -2.8479
  672MOL0     H90671   2.574   6.036  11.034 -1.1979 -0.3678 -0.1759
  672MOL0     H90672   2.533   6.201  11.370 -0.6347 -0.1934  0.8087
  672MOL0     H90673   2.542   6.217  11.190  1.6262 -1.4695 -0.4074
  672MOL0     H90674   2.303   6.133  11.361 -0.3563  1.3781  2.0538
  672MOL0     H90675   2.299   6.166  11.179  0.7355 -0.0424  0.0056
  672MOL0     H90676   2.368   6.401  11.231  0.5501  0.0749  0.2546
  672MOL0     H90677   2.370   6.347  11.397 -0.6030 -2.7905  0.6791
  672MOL0     H90678   2.117   6.342  11.223 -2.9662 -0.5685  0.9824
  672MOL0     H90679   2.155   6.484  11.301  0.8679 -0.5995  0.7265
  672MOL0     H90680   2.010   6.254  11.649  3.6953  1.6011 -2.0698
  672MOL0     H90681   1.668   6.254  11.770 -0.6514  1.3033 -0.7511
  672MOL0     H90682   1.839   6.201  11.801 -0.0739 -0.1963 -0.2472
  672MOL0     H90683   1.794   6.358  11.849  1.8410  0.6790 -1.1594
  672MOL0     H90684   1.420   6.690  11.676  0.2359 -0.2112 -0.1945
  672MOL0     H90685   1.177   6.717  11.734 -0.8007 -0.3203 -0.1762
  672MOL0     H90686   1.052   6.544  12.065 -2.2229 -0.6024 -0.1852
  672MOL0     H90687   1.064   6.711  11.988 -0.4911  0.6990 -1.2324
  672MOL0     H90688   0.825   6.642  11.898 -1.5240 -3.0849  0.0940
  672MOL0     H90689   0.841   6.505  12.006  1.0942 -0.9764 -1.9915
  672MOL0     H90690   0.800   6.806  12.057  0.6135  0.5834 -0.0048
  672MOL0     H90691   0.889   6.728  12.183  0.3181  0.8906  0.0478
  672MOL0     H90692   0.606   6.651  12.109  0.1464  0.3562 -1.4371
  672MOL0     H90693   0.711   6.565  12.230  1.1490  1.8673  1.6963
  672MOL0     H90694   0.638   6.852  12.226  3.8061 -1.2128 -2.5114
  672MOL0     H90695   0.751   6.779  12.343  1.9734 -2.8216 -0.4412
  672MOL0     H90696   0.459   6.689  12.337  1.4898 -1.2272 -2.1006
  672MOL0     H90697   0.582   6.623  12.442 -1.4570 -0.8977 -0.3074
  672MOL0     H90698   0.500   6.924  12.411  2.7605 -0.3214 -1.1731
  672MOL0     H90699   0.605   6.848  12.537 -0.8039 -0.6021  0.5870
  672MOL0     H90700   0.377   6.894  12.640 -3.2134 -1.9777  2.0949
  672MOL0     H90701   0.426   6.721  12.630 -0.7842 -0.3212  0.4408
  672MOL0     H90702   1.194   6.351  11.963 -0.2262  1.6750  1.7466
  672MOL0     H90703   1.424   6.319  11.894 -0.5515  0.0774  1.5675
  672MOL0     H90704   1.707   6.527  11.373  1.3570 -0.3188 -2.7271
  672MOL0     H90705   1.932   6.482  11.293  1.9657  0.5465  0.2042
  672MOL0     H90706   3.649   5.864  10.696  1.2598  0.1916 -0.6797
  672MOL0     H90707   3.821   5.933  10.552 -0.8535 -1.3020  0.3793
  672MOL0     H90708   4.318   5.992  10.494 -1.3720 -1.3282 -1.9701
  672MOL0     H90709   4.503   6.108  10.377 -0.5157  0.1087  0.2862
  672MOL0     H90710   4.396   6.356  10.100  0.2682 -0.0078 -0.0233
  672MOL0     H90711   4.427   6.513  10.175 -0.4228 -0.3499 -1.9077
  672MOL0     H90712   4.681   6.366  10.098 -1.0923 -0.6195  1.2870
  672MOL0     H90713   4.650   6.540  10.117  1.5006  0.0600  1.0124
  672MOL0     H90714   4.532   6.550   9.911 -1.4069 -1.1360  0.0164
  672MOL0     H90715   4.556   6.377   9.883 -0.6621  0.6724 -1.3328
  672MOL0     H90716   4.726   6.486   9.769  0.5991 -2.5079 -0.0277
  672MOL0     H90717   4.795   6.408   9.918 -0.2401 -0.2956  0.7021
  672MOL0     H90718   4.867   6.824   9.972 -1.1723  1.0311  0.7019
  672MOL0     H90719   4.246   6.447  10.301  3.0104  1.5632  2.0369
  672MOL0     H90720   4.077   6.342  10.424 -0.0909  0.5132 -0.8739
  673MOL0     O90721   4.519   9.619   1.848 -0.1664  0.2488  0.4997
  673MOL0     C90722   4.535   9.726   1.905  0.4716 -0.8495  0.0885
  673MOL0     O90723   4.435   9.799   1.962 -0.1387  0.9794 -0.2400
  673MOL0     C90724   4.307   9.747   1.947 -0.0244  0.0286 -0.5136
  673MOL0     C90725   4.231   9.741   2.058  0.1332 -0.3466  0.6045
  673MOL0     C90726   4.101   9.681   2.048  0.1118  0.0886 -0.3513
  673MOL0     C90727   4.052   9.632   1.924 -0.0409  0.9116 -0.3412
  673MOL0     O90728   3.928   9.584   1.920 -0.3483 -0.4010 -0.3163
  673MOL0     C90729   3.895   9.480   1.824  0.5749 -0.5025 -0.1440
  673MOL0     C90730   3.761   9.435   1.859 -0.1587  0.2423 -0.6960
  673MOL0     C90731   3.697   9.363   1.733  0.8169 -0.4567  0.6334
  673MOL0     C90732   3.786   9.242   1.708 -0.8952 -0.5212  1.1773
  673MOL0     C90733   3.724   9.137   1.619 -0.8701 -0.5294  0.6757
  673MOL0     C90734   3.630   9.042   1.699 -0.3650 -0.1724  0.2802
  673MOL0     C90735   3.576   8.926   1.620  0.6182 -0.4926 -0.2593
  673MOL0     C90736   3.490   8.842   1.710  0.2539 -0.0467  0.8766
  673MOL0     N90737   3.367   8.912   1.740  0.2655  0.5590 -1.0132
  673MOL0     C90738   3.302   8.894   1.862  0.2670  0.4323  0.4154
  673MOL0     C90739   3.185   8.958   1.850  0.0373  0.5003  0.1684
  673MOL0     C90740   3.064   8.967   1.942  0.0219  0.0186  0.0968
  673MOL0     C90741   3.012   8.827   1.977  0.7383  0.7374  0.4014
  673MOL0     C90742   2.893   8.825   2.077  0.2178 -0.1263  1.3590
  673MOL0     C90743   2.766   8.920   2.037 -0.7432  0.3203  0.3140
  673MOL0     O90744   2.747   8.925   1.895  0.1926 -0.0342 -0.4300
  673MOL0     C90745   2.643   9.000   1.854 -0.3486  0.4072 -0.9002
  673MOL0     C90746   2.572   8.956   1.735  0.8465  0.3725 -0.1291
  673MOL0     C90747   2.454   9.017   1.688 -0.9765 -0.4368  0.3725
  673MOL0     C90748   2.395   8.949   1.569 -0.5709  0.6109  0.3110
  673MOL0     C90749   2.397   9.131   1.762  0.1900 -0.0489 -0.2959
  673MOL0     C90750   2.269   9.200   1.727 -0.6126 -0.3749  0.0149
  673MOL0     O90751   2.232   9.288   1.819 -0.7303  0.5279 -0.0889
  673MOL0     C90752   2.112   9.348   1.795  0.1421  0.0944 -0.4476
  673MOL0     C90753   1.993   9.305   1.856  0.3697  0.7674 -0.8348
  673MOL0     C90754   1.872   9.373   1.836 -0.5873 -0.1043  0.9919
  673MOL0     C90755   1.863   9.482   1.744 -0.4533  1.0194  0.3429
  673MOL0     O90756   1.740   9.557   1.738  0.3244 -0.1108 -0.1992
  673MOL0     C90757   1.733   9.648   1.621  1.0601 -0.1029  0.6384
  673MOL0     C90758   1.592   9.724   1.632 -0.6389 -0.2255  1.0312
  673MOL0     C90759   1.596   9.823   1.751 -0.2801  0.2027 -0.0485
  673MOL0     C90760   1.442   9.866   1.750 -0.1355  0.3204 -0.0065
  673MOL0     C90761   1.421   9.976   1.869  0.3050  0.1738  0.1818
  673MOL0     C90762   1.278   9.976   1.924 -1.5478  0.0658  0.1922
  673MOL0     C90763   1.185  10.010   1.810  0.3439  0.3128 -0.3538
  673MOL0     C90764   1.046  10.010   1.877 -0.3961  0.4043 -0.1825
  673MOL0    Cl90765   0.936  10.086   1.764 -0.0819  0.0539  0.1857
  673MOL0     C90766   1.982   9.522   1.688  0.3531 -0.3537  0.0769
  673MOL0     C90767   2.102   9.454   1.703 -0.4113  0.0721 -0.2592
  673MOL0     O90768   2.216   9.187   1.615 -0.1722  0.3198  0.0661
  673MOL0     C90769   2.469   9.172   1.875 -0.6571 -0.6496 -0.3748
  673MOL0     C90770   2.592   9.115   1.916  0.0167  0.1897 -0.6691
  673MOL0     N90771   3.186   9.014   1.723  0.3824  1.0256 -0.3400
  673MOL0     N90772   3.294   8.975   1.657  0.4347 -0.1010 -0.3485
  673MOL0     C90773   4.134   9.639   1.810  0.1838  0.6258  0.0148
  673MOL0     C90774   4.255   9.700   1.815 -0.6847 -0.5104  0.1753
  673MOL0     C90775   4.674   9.772   1.906 -0.5882 -0.6050 -0.2767
  673MOL0     C90776   4.718   9.870   2.004 -0.4772  0.3502  0.2423
  673MOL0     C90777   4.852   9.911   2.012  0.2618 -0.7356 -0.5878
  673MOL0     C90778   4.946   9.869   1.912 -0.0881  0.0150 -0.8169
  673MOL0     O90779   5.077   9.898   1.922 -0.1003 -0.2303  0.1455
  673MOL0     C90780   5.121   9.991   2.019  0.0061  0.3598  0.5739
  673MOL0     C90781   5.274  10.031   1.998  0.0843 -0.2739 -0.4134
  673MOL0     C90782   5.373   9.931   2.058 -0.2163 -0.2424  0.5149
  673MOL0     C90783   5.514  10.000   2.058  0.3407  0.4811 -0.1986
  673MOL0     C90784   5.602   9.921   2.139 -0.2922  0.9593 -1.0077
  673MOL0     C90785   5.668   9.849   2.212  0.9154 -0.1825 -0.6166
  673MOL0     C90786   4.894   9.788   1.811 -0.0880  0.2386 -0.6089
  673MOL0     C90787   4.765   9.734   1.812 -1.0269 -0.0451  0.1115
  673MOL0     H90788   4.259   9.787   2.152 -0.0743  0.2463  0.3851
  673MOL0     H90789   4.048   9.675   2.143  0.8009 -2.2127 -0.0578
  673MOL0     H90790   3.882   9.525   1.725 -0.4869  0.5522  0.4554
  673MOL0     H90791   3.973   9.404   1.829  2.2580  1.2322  1.4434
  673MOL0     H90792   3.773   9.372   1.948 -1.7826 -1.3876 -1.5559
  673MOL0     H90793   3.689   9.513   1.885  0.2040  0.2855  0.2134
  673MOL0     H90794   3.592   9.340   1.753  1.0424 -2.0734  0.0959
  673MOL0     H90795   3.691   9.436   1.651  0.8263 -0.2966  0.7743
  673MOL0     H90796   3.873   9.283   1.657 -1.4843  0.0173  0.5851
  673MOL0     H90797   3.823   9.192   1.798  1.4115  0.6431  0.9402
  673MOL0     H90798   3.666   9.188   1.541 -0.0001 -0.3135  0.1600
  673MOL0     H90799   3.804   9.083   1.568 -0.2345  0.5126  0.5483
  673MOL0     H90800   3.678   8.996   1.786  0.7055 -2.0190 -1.2149
  673MOL0     H90801   3.541   9.094   1.735 -1.0018  0.0828 -1.5400
  673MOL0     H90802   3.521   8.957   1.531 -0.3248  1.7330  1.0278
  673MOL0     H90803   3.655   8.856   1.590  1.2487  0.0242  0.1707
  673MOL0     H90804   3.541   8.812   1.803 -3.5985  0.7771  3.4905
  673MOL0     H90805   3.466   8.745   1.664  0.3515  0.6822 -0.7508
  673MOL0     H90806   3.345   8.837   1.943  0.1685 -1.6834 -0.9324
  673MOL0     H90807   3.084   9.008   2.041  1.1110 -1.3020  0.4591
  673MOL0     H90808   2.990   9.031   1.893 -0.5276 -0.5424  0.1726
  673MOL0     H90809   3.088   8.765   2.027  0.2366 -0.5426 -0.3533
  673MOL0     H90810   2.977   8.776   1.886  1.0313  0.6939  0.3123
  673MOL0     H90811   2.930   8.844   2.178  0.6388 -4.3516  2.1954
  673MOL0     H90812   2.859   8.722   2.095 -0.3667 -0.5044 -1.3305
  673MOL0     H90813   2.811   9.015   2.068  1.5997 -0.6954  0.2938
  673MOL0     H90814   2.676   8.903   2.096 -0.3105 -2.6130  0.2643
  673MOL0     H90815   2.614   8.872   1.680  0.0756 -0.6958  0.8597
  673MOL0     H90816   2.426   8.844   1.560 -2.7536 -0.0451 -0.2263
  673MOL0     H90817   2.287   8.943   1.581 -0.3741 -1.1844  1.5614
  673MOL0     H90818   2.423   8.993   1.472 -0.8098  1.5091  0.6424
  673MOL0     H90819   1.988   9.216   1.918 -0.4710  2.0090  0.9638
  673MOL0     H90820   1.787   9.333   1.890 -1.3739 -0.1623 -0.2518
  673MOL0     H90821   1.807   9.728   1.634  0.4344  0.5514  0.2859
  673MOL0     H90822   1.738   9.598   1.524 -3.2735 -2.2044  1.2547
  673MOL0     H90823   1.580   9.782   1.540 -1.4835 -0.2834  1.1057
  673MOL0     H90824   1.511   9.651   1.634 -0.0492 -0.8946  1.2209
  673MOL0     H90825   1.666   9.905   1.737 -0.1384 -0.2004 -2.1111
  673MOL0     H90826   1.625   9.774   1.844 -0.5896  1.2508  0.6124
  673MOL0     H90827   1.409   9.918   1.660 -0.7461 -0.9706 -0.5631
  673MOL0     H90828   1.382   9.774   1.756  0.1912  0.1917  1.7897
  673MOL0     H90829   1.451  10.079   1.847 -2.1753  0.9757  0.2192
  673MOL0     H90830   1.475   9.952   1.961 -1.6511 -2.4452  0.7836
  673MOL0     H90831   1.250   9.883   1.976  1.0784 -2.0023 -1.7959
  673MOL0     H90832   1.264  10.043   2.009  0.7354 -0.7290  1.2779
  673MOL0     H90833   1.192   9.960   1.713  1.1137  1.7836 -1.0865
  673MOL0     H90834   1.218  10.108   1.777  0.8808 -0.3700 -1.9423
  673MOL0     H90835   1.039  10.068   1.970 -0.5496 -3.2168  2.2969
  673MOL0     H90836   1.022   9.907   1.904 -0.6893  0.9294  1.7202
  673MOL0     H90837   1.992   9.601   1.614 -0.2937  0.2893  0.6612
  673MOL0     H90838   2.187   9.477   1.639  0.3541 -0.3111  0.5965
  673MOL0     H90839   2.437   9.258   1.934  1.4469  0.7852 -1.1736
  673MOL0     H90840   2.635   9.159   2.005 -1.5342  0.5197 -0.0497
  673MOL0     H90841   4.091   9.605   1.716  1.1677 -0.3742 -0.0889
  673MOL0     H90842   4.321   9.702   1.729 -0.6231 -3.8740  0.0304
  673MOL0     H90843   4.647   9.910   2.075 -1.8413 -0.9695 -0.3189
  673MOL0     H90844   4.877   9.971   2.100  3.0107 -3.5609  0.7505
  673MOL0     H90845   5.047  10.071   2.010 -1.3677 -0.7136  1.8835
  673MOL0     H90846   5.111   9.953   2.121  5.4018 -2.9136  0.2331
  673MOL0     H90847   5.281  10.126   2.052 -3.8565 -0.6209  1.0533
  673MOL0     H90848   5.296  10.040   1.891 -2.2835 -0.1125 -0.9346
  673MOL0     H90849   5.383   9.851   1.984  0.5019 -1.4612  1.8637
  673MOL0     H90850   5.343   9.893   2.156  3.1993  2.4473  2.8378
  673MOL0     H90851   5.510  10.095   2.112 -2.7651  0.2838  0.0512
  673MOL0     H90852   5.547  10.010   1.954 -0.0182  1.1486 -0.2498
  673MOL0     H90853   5.736   9.802   2.280 -0.2855 -1.2379 -0.1104
  673MOL0     H90854   4.958   9.747   1.733 -0.0932  2.9972 -2.1990
  673MOL0     H90855   4.743   9.661   1.735  0.9956 -1.7711  1.0790
  674MOL0     O90856  10.679   3.767   0.897 -0.6553 -0.6523 -0.4037
  674MOL0     C90857  10.670   3.650   0.915  0.0593 -0.4599  0.1021
  674MOL0     O90858  10.560   3.578   0.919 -0.3164  0.2374 -0.0657
  674MOL0     C90859  10.436   3.636   0.887 -0.0150  0.4583  0.1906
  674MOL0     C90860  10.365   3.709   0.981  0.5171  0.0240  0.1806
  674MOL0     C90861  10.237   3.758   0.954  0.2010  0.0604  0.5271
  674MOL0     C90862  10.184   3.747   0.826  0.0489  0.9926 -0.3511
  674MOL0     O90863  10.052   3.785   0.801 -0.6144  0.3353 -0.2568
  674MOL0     C90864  10.008   3.780   0.672  0.6260 -0.0631 -0.1685
  674MOL0     C90865   9.860   3.827   0.666 -0.2578  0.0105 -0.2798
  674MOL0     C90866   9.765   3.770   0.779 -0.1362  0.0713  0.6292
  674MOL0     C90867   9.629   3.826   0.784  0.3261  0.5227  0.0022
  674MOL0     C90868   9.529   3.749   0.881 -0.9072  0.1129 -0.0160
  674MOL0     C90869   9.396   3.823   0.882 -0.4923 -0.5042 -0.9223
  674MOL0     C90870   9.271   3.750   0.945 -0.4954  0.2158  0.2393
  674MOL0     C90871   9.290   3.695   1.081 -0.4813  0.4407 -0.0400
  674MOL0     N90872   9.163   3.711   1.151 -0.0869  0.1404  0.1458
  674MOL0     C90873   9.123   3.817   1.233  0.5847  0.2481  0.3682
  674MOL0     C90874   9.002   3.770   1.279  0.4938 -0.5487  0.5012
  674MOL0     C90875   8.913   3.843   1.379 -0.1638 -0.8074  0.3307
  674MOL0     C90876   8.813   3.944   1.317 -0.8610  0.4593  0.0187
  674MOL0     C90877   8.710   3.885   1.210  0.2022  0.3474 -0.1182
  674MOL0     C90878   8.623   3.770   1.266  0.1069  0.3928  0.5895
  674MOL0     O90879   8.533   3.842   1.347  0.0604 -0.3456  0.0708
  674MOL0     C90880   8.422   3.895   1.274  0.4669  0.2343 -0.1879
  674MOL0     C90881   8.322   3.954   1.355 -0.3403 -0.3843 -0.8636
  674MOL0     C90882   8.207   4.012   1.308 -0.5854 -0.8365  0.3120
  674MOL0     C90883   8.125   4.082   1.406 -0.3919  0.2404  0.5964
  674MOL0     C90884   8.177   4.013   1.168 -0.0184 -0.0548 -0.5651
  674MOL0     C90885   8.048   4.053   1.110 -0.9656  0.2769 -0.2578
  674MOL0     O90886   8.053   4.098   0.980 -0.0016  0.1582  0.2155
  674MOL0     C90887   7.947   4.110   0.892  0.5731 -0.4124 -0.0548
  674MOL0     C90888   7.807   4.113   0.930 -0.0545  0.2131 -0.2623
  674MOL0     C90889   7.710   4.134   0.833  0.5705  0.8722  0.4109
  674MOL0     C90890   7.746   4.163   0.704  0.6410  0.4687  0.6340
  674MOL0     O90891   7.650   4.192   0.605 -0.0327 -0.2140 -0.2006
  674MOL0     C90892   7.509   4.169   0.626  0.0875 -0.9531  0.6098
  674MOL0     C90893   7.412   4.234   0.529 -0.4091 -0.0600  0.0073
  674MOL0     C90894   7.383   4.387   0.580 -0.6408 -0.5918  0.8598
  674MOL0     C90895   7.334   4.466   0.457  0.0911  0.2215  0.1885
  674MOL0     C90896   7.285   4.600   0.503  0.0213  0.8631 -0.1627
  674MOL0     C90897   7.244   4.703   0.393 -0.7688 -0.1521 -0.0428
  674MOL0     C90898   7.365   4.781   0.334 -0.0622 -0.3999 -0.5861
  674MOL0     C90899   7.320   4.886   0.231  0.5984  0.3571  1.1051
  674MOL0    Cl90900   7.269   5.029   0.325 -0.0853 -0.0466 -0.1844
  674MOL0     C90901   7.887   4.153   0.666  1.2494 -0.7719  0.1836
  674MOL0     C90902   7.982   4.136   0.759  0.0783 -0.0671 -0.4950
  674MOL0     O90903   7.947   4.028   1.169 -0.0217  0.3310  0.2683
  674MOL0     C90904   8.280   3.961   1.086 -0.1367  0.0400 -0.1446
  674MOL0     C90905   8.397   3.901   1.134  0.1240 -0.8004 -0.2168
  674MOL0     N90906   8.975   3.643   1.230 -0.2133  0.5031  0.3072
  674MOL0     N90907   9.074   3.614   1.154 -0.5035  0.0569  0.1812
  674MOL0     C90908  10.264   3.679   0.729  0.1082  0.2059 -0.0728
  674MOL0     C90909  10.385   3.619   0.762  0.3187 -0.3811 -0.0680
  674MOL0     C90910  10.792   3.582   0.954  0.3720 -0.9654  0.6496
  674MOL0     C90911  10.802   3.446   0.949 -0.2793  0.2886 -1.3044
  674MOL0     C90912  10.913   3.380   1.000 -0.3758 -0.8910  0.3655
  674MOL0     C90913  11.022   3.456   1.046  0.3419  0.1180  0.4224
  674MOL0     O90914  11.133   3.393   1.088  0.2136 -0.6576 -0.3090
  674MOL0     C90915  11.252   3.417   1.023 -0.2138 -0.2441 -0.5553
  674MOL0     C90916  11.360   3.334   1.085  0.5427  0.0025 -0.7656
  674MOL0     C90917  11.386   3.377   1.228 -0.1469  0.8879 -1.0163
  674MOL0     C90918  11.519   3.296   1.275 -1.0943  0.3280 -0.8983
  674MOL0     C90919  11.514   3.276   1.424 -0.2045 -0.3952 -0.2605
  674MOL0     C90920  11.528   3.240   1.538 -0.1774  0.5382 -0.1132
  674MOL0     C90921  11.007   3.592   1.066  0.1931 -0.9567  0.8300
  674MOL0     C90922  10.891   3.654   1.020 -0.1505 -0.2500 -0.7420
  674MOL0     H90923  10.398   3.739   1.080  2.7962  0.2919 -0.6058
  674MOL0     H90924  10.191   3.816   1.033  2.1622  2.2381  0.2034
  674MOL0     H90925  10.078   3.850   0.623  1.2635 -0.6192 -0.0677
  674MOL0     H90926  10.013   3.680   0.629 -0.4734 -0.4672  0.6039
  674MOL0     H90927   9.859   3.937   0.668  0.0147  0.0234  1.6797
  674MOL0     H90928   9.804   3.797   0.577 -1.7915  0.3486  0.5388
  674MOL0     H90929   9.763   3.661   0.773 -0.0440  0.1543 -1.6385
  674MOL0     H90930   9.808   3.785   0.878  3.3393  2.3042 -1.0183
  674MOL0     H90931   9.645   3.934   0.797  2.2004  0.5637 -1.9752
  674MOL0     H90932   9.587   3.812   0.683  0.6916 -0.2847 -0.0441
  674MOL0     H90933   9.514   3.644   0.855  1.7469 -0.2073 -0.4808
  674MOL0     H90934   9.578   3.755   0.979  0.9341  1.1499 -0.9540
  674MOL0     H90935   9.402   3.921   0.931 -0.3431 -1.2596  0.6376
  674MOL0     H90936   9.379   3.843   0.776 -1.0054  4.0472 -0.2124
  674MOL0     H90937   9.193   3.827   0.950 -0.8779 -0.1380 -0.1774
  674MOL0     H90938   9.244   3.672   0.873 -0.6297  0.3793  0.1109
  674MOL0     H90939   9.375   3.751   1.124  0.0982 -1.9542  2.2071
  674MOL0     H90940   9.326   3.592   1.081 -0.7023  0.3351 -1.9004
  674MOL0     H90941   9.167   3.905   1.278  1.2445  0.0202  0.1751
  674MOL0     H90942   8.855   3.767   1.432  0.4227 -2.9760 -1.9377
  674MOL0     H90943   8.982   3.903   1.439  0.6840 -2.7360  1.3707
  674MOL0     H90944   8.864   4.026   1.264  0.7525  0.3177  1.2853
  674MOL0     H90945   8.758   4.002   1.392  1.5253  2.1266  0.5970
  674MOL0     H90946   8.767   3.842   1.127  1.1584  2.4153 -0.5855
  674MOL0     H90947   8.663   3.970   1.161  0.1969  1.1167  1.1885
  674MOL0     H90948   8.666   3.696   1.334  1.0752  0.9609  0.6156
  674MOL0     H90949   8.565   3.711   1.194  0.4298  1.2430 -0.3969
  674MOL0     H90950   8.338   3.956   1.462  0.8283  2.0325 -1.0042
  674MOL0     H90951   8.182   4.104   1.497  0.8799 -2.9487  0.6854
  674MOL0     H90952   8.081   4.173   1.363 -0.3077  0.6160  1.2867
  674MOL0     H90953   8.046   4.018   1.446  1.7514 -2.0939  1.3416
  674MOL0     H90954   7.767   4.096   1.030  0.6463 -3.8700 -0.5156
  674MOL0     H90955   7.606   4.130   0.867  0.1178  0.2084 -0.9873
  674MOL0     H90956   7.494   4.061   0.623  2.1642 -1.2765  0.2756
  674MOL0     H90957   7.481   4.210   0.724  2.9386 -1.2700  1.6437
  674MOL0     H90958   7.453   4.229   0.427  0.7380  2.7595  0.2311
  674MOL0     H90959   7.323   4.172   0.524 -0.5171  0.1487 -1.1020
  674MOL0     H90960   7.471   4.442   0.616 -0.5279  0.7173 -1.2488
  674MOL0     H90961   7.311   4.384   0.662 -1.8444  0.6813 -0.0994
  674MOL0     H90962   7.419   4.475   0.388  2.3495  0.0523  2.7810
  674MOL0     H90963   7.251   4.416   0.407  0.0179  1.7466 -1.3094
  674MOL0     H90964   7.361   4.646   0.566  1.4623 -0.4663 -0.8355
  674MOL0     H90965   7.191   4.573   0.552  0.2666 -0.7893 -0.5202
  674MOL0     H90966   7.198   4.651   0.309 -2.5421  1.6291 -0.2488
  674MOL0     H90967   7.175   4.767   0.448 -1.2351  0.2545 -1.0935
  674MOL0     H90968   7.429   4.709   0.282  1.4697  1.6378 -1.6721
  674MOL0     H90969   7.421   4.830   0.414  1.0463 -0.9854 -0.9882
  674MOL0     H90970   7.246   4.867   0.153 -0.4875  4.0727  1.0579
  674MOL0     H90971   7.402   4.917   0.165 -1.3663 -0.0831 -1.6928
  674MOL0     H90972   7.901   4.173   0.560 -3.5295  0.0136 -0.4922
  674MOL0     H90973   8.089   4.138   0.742  0.1557  1.5484  0.0272
  674MOL0     H90974   8.259   3.952   0.979 -0.9776  3.0611 -0.3387
  674MOL0     H90975   8.477   3.868   1.069  2.3570 -0.0298  2.0005
  674MOL0     H90976  10.228   3.677   0.626  0.6543  0.9798 -0.2869
  674MOL0     H90977  10.434   3.556   0.689  0.6116  0.2174 -0.4001
  674MOL0     H90978  10.719   3.395   0.900 -1.5026  1.3569 -0.4347
  674MOL0     H90979  10.924   3.272   1.007 -1.3777 -0.9476  1.1792
  674MOL0     H90980  11.251   3.389   0.917  3.2062 -1.5359 -0.3512
  674MOL0     H90981  11.271   3.525   1.025  1.0106 -0.4586  0.2573
  674MOL0     H90982  11.452   3.327   1.027  1.6604 -0.8273  1.0131
  674MOL0     H90983  11.313   3.235   1.086 -2.2518  1.2053 -1.4948
  674MOL0     H90984  11.299   3.364   1.293  1.9689  2.8537  2.5245
  674MOL0     H90985  11.409   3.483   1.244  0.9418  0.5379 -0.1228
  674MOL0     H90986  11.610   3.345   1.239  0.1248  0.5199  2.1889
  674MOL0     H90987  11.518   3.200   1.223 -0.0617  0.9864 -2.1978
  674MOL0     H90988  11.547   3.198   1.635  1.3562  0.8700 -0.2455
  674MOL0     H90989  11.084   3.659   1.103  0.3534 -0.0246 -1.1071
  674MOL0     H90990  10.875   3.761   1.032 -3.2685 -0.6151 -0.7943
  675MOL0     O90991   1.020   3.299   5.830  0.0922 -0.2233  0.4224
  675MOL0     C90992   1.091   3.377   5.777  0.4612 -0.6423 -0.8421
  675MOL0     O90993   1.040   3.481   5.703  0.1229 -0.3101 -0.0022
  675MOL0     C90994   0.914   3.535   5.711 -0.3850  0.3372 -0.0592
  675MOL0     C90995   0.876   3.616   5.599  0.2546 -0.0049 -0.4512
  675MOL0     C90996   0.752   3.672   5.605  0.0597  1.1217 -0.0304
  675MOL0     C90997   0.662   3.648   5.711  0.3705  0.2359 -0.8560
  675MOL0     O90998   0.534   3.696   5.717  0.2127 -0.8655 -0.5266
  675MOL0     C90999   0.511   3.832   5.682  0.6552 -0.7040 -1.3866
  675MOL0     C91000   0.368   3.868   5.734 -0.1434 -0.3278 -0.2759
  675MOL0     C91001   0.340   4.011   5.692 -0.2094  0.0042 -0.6611
  675MOL0     C91002   0.206   4.054   5.747 -0.4819 -0.8823 -0.3848
  675MOL0     C91003   0.148   4.183   5.675 -1.1828 -0.7092 -0.7552
  675MOL0     C91004   0.082   4.147   5.539  0.1170 -0.1772  0.1372
  675MOL0     C91005  -0.032   4.240   5.501 -0.1592  0.1727 -0.5386
  675MOL0     C91006   0.020   4.382   5.468  0.2366  0.9597 -0.6593
  675MOL0     N91007  -0.083   4.467   5.427  0.6180 -0.3571 -0.6879
  675MOL0     C91008  -0.063   4.585   5.372 -0.4825 -1.6264  0.2255
  675MOL0     C91009  -0.182   4.645   5.359 -0.1945  0.1153  0.7803
  675MOL0     C91010  -0.203   4.781   5.298  0.1511  0.1036  0.0057
  675MOL0     C91011  -0.148   4.898   5.380  0.1501  0.4887 -0.2707
  675MOL0     C91012  -0.164   5.028   5.305  0.1598  0.8822  0.4973
  675MOL0     C91013  -0.050   5.128   5.328  0.2470 -0.6768  1.2070
  675MOL0     O91014  -0.006   5.134   5.462  0.1809 -0.9045  0.3689
  675MOL0     C91015  -0.081   5.207   5.546  0.5074 -0.4883  0.4136
  675MOL0     C91016  -0.142   5.329   5.513  0.3278  0.6134 -0.5905
  675MOL0     C91017  -0.234   5.392   5.601  0.5191 -0.0697 -0.1752
  675MOL0     C91018  -0.291   5.525   5.554  0.3116  0.1496 -0.7787
  675MOL0     C91019  -0.256   5.339   5.726  0.6728 -0.2530  0.6528
  675MOL0     C91020  -0.358   5.394   5.830 -0.1796  0.7885 -0.1996
  675MOL0     O91021  -0.379   5.322   5.947  0.6318  0.0164  0.0282
  675MOL0     C91022  -0.502   5.300   6.005 -0.4184 -0.2195 -0.1773
  675MOL0     C91023  -0.499   5.292   6.149 -0.1770 -0.2566 -0.3612
  675MOL0     C91024  -0.610   5.272   6.226  0.7969  0.3026 -0.1234
  675MOL0     C91025  -0.731   5.245   6.161 -0.6090 -0.6988  0.5052
  675MOL0     O91026  -0.848   5.201   6.216 -1.1741 -0.4160  0.1524
  675MOL0     C91027  -0.886   5.250   6.349  0.3925  0.2896  0.0445
  675MOL0     C91028  -1.027   5.295   6.338 -0.4057  0.0399 -0.1556
  675MOL0     C91029  -1.083   5.378   6.452 -0.0881  0.0472 -0.1149
  675MOL0     C91030  -1.164   5.490   6.397 -0.5266  0.2734 -0.2544
  675MOL0     C91031  -1.243   5.540   6.516 -0.3235  0.4166 -0.1272
  675MOL0     C91032  -1.291   5.678   6.502  0.1653  0.1157  0.0644
  675MOL0     C91033  -1.378   5.695   6.374 -0.5271  0.5021 -0.0650
  675MOL0     C91034  -1.438   5.824   6.342  0.5690 -0.0799 -0.2298
  675MOL0    Cl91035  -1.300   5.940   6.325 -0.2876  0.3304  0.2915
  675MOL0     C91036  -0.730   5.258   6.016 -0.2707 -0.3226 -1.0790
  675MOL0     C91037  -0.616   5.296   5.943 -0.0181 -0.1359  0.0766
  675MOL0     O91038  -0.425   5.489   5.800  0.0924  0.4175  0.2724
  675MOL0     C91039  -0.181   5.228   5.765  0.3290 -0.4047 -0.0470
  675MOL0     C91040  -0.089   5.172   5.678 -0.3797 -0.5640  0.6453
  675MOL0     N91041  -0.279   4.561   5.417 -0.2957  0.6982 -1.1307
  675MOL0     N91042  -0.216   4.449   5.441  0.4761 -0.6324  0.0126
  675MOL0     C91043   0.701   3.568   5.823 -0.7591  0.1359 -0.5995
  675MOL0     C91044   0.830   3.517   5.825 -0.0870  0.0836  0.3193
  675MOL0     C91045   1.240   3.372   5.797  0.2094 -0.1737  0.7237
  675MOL0     C91046   1.327   3.474   5.778 -0.8858 -0.1022 -0.0990
  675MOL0     C91047   1.468   3.460   5.793 -0.2962  0.0795  0.3541
  675MOL0     C91048   1.519   3.332   5.833 -1.1160  0.2980  0.5137
  675MOL0     O91049   1.650   3.304   5.848 -0.0618 -0.0857 -0.0434
  675MOL0     C91050   1.748   3.394   5.797 -0.0869  0.0925  0.3685
  675MOL0     C91051   1.882   3.325   5.783 -0.2325  0.1260 -0.1117
  675MOL0     C91052   1.921   3.258   5.918 -0.4904  0.4399  0.0649
  675MOL0     C91053   1.965   3.365   6.016  0.4271 -0.1349  0.5178
  675MOL0     C91054   1.971   3.320   6.154 -0.2229  0.4672 -0.4543
  675MOL0     C91055   1.988   3.280   6.268 -0.7803 -0.1447 -0.1552
  675MOL0     C91056   1.429   3.234   5.865  0.0781 -0.2669 -0.4662
  675MOL0     C91057   1.294   3.253   5.839  0.7401  0.1894  0.1020
  675MOL0     H91058   0.942   3.640   5.516 -1.4757 -0.4007 -2.0080
  675MOL0     H91059   0.734   3.754   5.536 -0.3699  0.3948 -0.8113
  675MOL0     H91060   0.579   3.901   5.732 -1.6687  2.0295 -1.7825
  675MOL0     H91061   0.519   3.844   5.574  1.1430  0.3846 -1.2391
  675MOL0     H91062   0.298   3.794   5.693 -1.1551  1.5133 -2.0621
  675MOL0     H91063   0.346   3.854   5.840 -3.5398  2.0123 -0.4999
  675MOL0     H91064   0.421   4.075   5.730 -0.5981  0.8009 -1.1567
  675MOL0     H91065   0.350   4.021   5.584  2.1452 -1.3381 -0.6362
  675MOL0     H91066   0.128   3.977   5.745 -1.7574  0.1057  3.1874
  675MOL0     H91067   0.219   4.082   5.852 -0.4861  2.3047 -1.1314
  675MOL0     H91068   0.075   4.230   5.741  0.6998  1.1907  0.1118
  675MOL0     H91069   0.229   4.255   5.656 -0.7114 -1.7007 -2.8039
  675MOL0     H91070   0.161   4.128   5.465  0.7389  0.2345  0.6876
  675MOL0     H91071   0.029   4.052   5.545  0.4881 -0.5450 -1.8148
  675MOL0     H91072  -0.090   4.203   5.416 -0.5896  2.0969 -1.1217
  675MOL0     H91073  -0.105   4.242   5.582  0.6959 -1.0813  0.3033
  675MOL0     H91074   0.095   4.370   5.390  0.8872 -0.9568  0.2007
  675MOL0     H91075   0.073   4.416   5.558 -3.4281 -0.0626  2.1168
  675MOL0     H91076   0.030   4.635   5.347 -1.1883 -0.0713  0.5331
  675MOL0     H91077  -0.173   4.790   5.193 -0.7429  0.2082 -0.2518
  675MOL0     H91078  -0.311   4.801   5.298  0.5960  3.2778 -2.0587
  675MOL0     H91079  -0.041   4.885   5.399 -0.1656 -0.4355  1.0807
  675MOL0     H91080  -0.199   4.899   5.477  0.1010 -1.1723 -0.2454
  675MOL0     H91081  -0.256   5.080   5.331  0.5583  1.6131  0.4703
  675MOL0     H91082  -0.168   5.005   5.198  1.1463 -0.9300  0.8027
  675MOL0     H91083  -0.090   5.221   5.288  1.4911  0.3673  2.3187
  675MOL0     H91084   0.032   5.104   5.260 -1.7654 -4.8342 -0.1038
  675MOL0     H91085  -0.100   5.364   5.419 -1.0614  1.0855 -1.0655
  675MOL0     H91086  -0.258   5.543   5.451 -0.0148 -1.8277 -1.2545
  675MOL0     H91087  -0.400   5.523   5.561  0.3906  0.8544  1.5021
  675MOL0     H91088  -0.241   5.603   5.614  2.7655 -1.3669 -0.7180
  675MOL0     H91089  -0.399   5.309   6.188 -0.3309 -0.5463  0.1659
  675MOL0     H91090  -0.612   5.264   6.335  1.8388  1.0441 -0.0457
  675MOL0     H91091  -0.881   5.182   6.435  2.6359 -1.6150 -1.5024
  675MOL0     H91092  -0.828   5.339   6.376  3.5527 -1.9026  0.9328
  675MOL0     H91093  -1.033   5.337   6.237 -0.6518  2.1362  0.6706
  675MOL0     H91094  -1.087   5.204   6.340  0.3871 -0.4988 -0.6186
  675MOL0     H91095  -1.005   5.425   6.513  0.2309  2.4577 -2.2404
  675MOL0     H91096  -1.142   5.309   6.514  0.1765  0.7143  0.8932
  675MOL0     H91097  -1.100   5.560   6.342  0.8447 -1.3208 -0.7490
  675MOL0     H91098  -1.234   5.459   6.319  2.0864 -1.3907 -2.0914
  675MOL0     H91099  -1.173   5.554   6.599  1.2712 -3.6351 -0.6151
  675MOL0     H91100  -1.315   5.465   6.551  0.5671  0.0869  1.0660
  675MOL0     H91101  -1.346   5.712   6.590 -0.4777  0.3386 -0.4180
  675MOL0     H91102  -1.201   5.741   6.495  0.0744  0.3801  1.1981
  675MOL0     H91103  -1.454   5.617   6.380 -0.5671  0.2788 -2.6064
  675MOL0     H91104  -1.319   5.674   6.285 -0.0971  1.7533 -0.0960
  675MOL0     H91105  -1.511   5.850   6.419  1.1716  0.4499  0.1704
  675MOL0     H91106  -1.493   5.832   6.248 -0.8853 -0.0312  0.5899
  675MOL0     H91107  -0.825   5.246   5.966 -0.8966 -2.5952  0.5022
  675MOL0     H91108  -0.623   5.303   5.835 -0.6078 -0.8406  0.0604
  675MOL0     H91109  -0.177   5.174   5.859  1.9056  0.1743  0.2451
  675MOL0     H91110  -0.029   5.085   5.702 -0.1607 -0.3905  0.7316
  675MOL0     H91111   0.634   3.566   5.909 -0.2567  0.3170 -0.1984
  675MOL0     H91112   0.873   3.460   5.906 -0.6103 -0.5632  0.1541
  675MOL0     H91113   1.282   3.570   5.754  1.5362  0.6703 -1.9764
  675MOL0     H91114   1.523   3.553   5.779 -1.9065  1.4363  2.4253
  675MOL0     H91115   1.712   3.418   5.696 -2.4908 -0.8018  0.9582
  675MOL0     H91116   1.756   3.487   5.854  1.8382  0.9009 -1.1172
  675MOL0     H91117   1.959   3.395   5.751  1.1127 -0.7122  1.1523
  675MOL0     H91118   1.879   3.247   5.706  1.4785 -1.5423  1.4146
  675MOL0     H91119   2.009   3.195   5.901  1.1407  3.3505 -3.9307
  675MOL0     H91120   1.839   3.195   5.953 -1.3086  1.2726 -0.2991
  675MOL0     H91121   1.898   3.451   6.011 -1.6053 -1.5651  1.9062
  675MOL0     H91122   2.067   3.398   5.993 -0.1740  0.7638 -1.0255
  675MOL0     H91123   1.997   3.257   6.372  0.2365 -0.7982 -0.3801
  675MOL0     H91124   1.464   3.134   5.889 -0.9771 -0.6289 -0.3944
  675MOL0     H91125   1.226   3.170   5.857 -0.8124  1.3319 -0.2519
  676MOL0     O91126   3.267   1.955   3.660 -0.2300 -0.4405 -0.3968
  676MOL0     C91127   3.380   1.948   3.691 -0.3324  0.3045 -0.0302
  676MOL0     O91128   3.442   2.006   3.799  0.8967  0.2683 -0.1756
  676MOL0     C91129   3.365   2.086   3.876  0.0481  0.2887 -0.3109
  676MOL0     C91130   3.382   2.226   3.889 -0.1237  1.0763  0.2261
  676MOL0     C91131   3.297   2.299   3.974 -0.8946  0.9979 -0.0231
  676MOL0     C91132   3.218   2.237   4.069 -0.5785 -0.1368  0.3437
  676MOL0     O91133   3.155   2.322   4.160  0.1525 -0.1595  0.4645
  676MOL0     C91134   3.057   2.280   4.254 -0.2173  0.0385 -0.7392
  676MOL0     C91135   2.982   2.406   4.312  0.0841  0.5913  0.2030
  676MOL0     C91136   2.879   2.471   4.226  0.1489  0.1623 -0.3334
  676MOL0     C91137   2.751   2.395   4.201 -0.4301 -0.9294  0.1165
  676MOL0     C91138   2.666   2.443   4.083 -1.2088 -0.8573 -0.4851
  676MOL0     C91139   2.550   2.342   4.056  0.5991 -0.2018  0.5622
  676MOL0     C91140   2.432   2.357   4.159  0.0865 -0.0542 -0.3444
  676MOL0     C91141   2.306   2.285   4.117  0.6011  0.6277  0.3229
  676MOL0     N91142   2.320   2.141   4.099 -0.5967  0.3779  0.4270
  676MOL0     C91143   2.212   2.058   4.103  0.2914 -1.1123 -0.3572
  676MOL0     C91144   2.246   1.948   4.038  0.1154  0.0902  0.0268
  676MOL0     C91145   2.150   1.849   3.982  0.2652 -0.0858 -0.8169
  676MOL0     C91146   2.120   1.854   3.830  0.0330  0.0352  0.2776
  676MOL0     C91147   2.051   1.987   3.795 -0.1207 -0.6579  0.6031
  676MOL0     C91148   1.920   2.009   3.860 -0.3066  0.6502  0.2190
  676MOL0     O91149   1.869   2.124   3.798 -0.0825  0.2212  0.0795
  676MOL0     C91150   1.741   2.162   3.830  0.3420 -0.9496  0.3598
  676MOL0     C91151   1.654   2.101   3.918  0.7419  0.5853  0.5306
  676MOL0     C91152   1.533   2.146   3.957  0.0032  0.3058  0.2736
  676MOL0     C91153   1.463   2.064   4.066 -0.0350  0.9657 -0.3580
  676MOL0     C91154   1.481   2.258   3.891 -0.4708  0.3582 -0.8114
  676MOL0     C91155   1.343   2.301   3.910  0.2099 -0.4513 -0.5976
  676MOL0     O91156   1.298   2.409   3.832 -0.0049 -0.1850 -0.1113
  676MOL0     C91157   1.159   2.398   3.801 -0.4341 -0.3714  0.5795
  676MOL0     C91158   1.082   2.516   3.805  0.0992 -0.0183 -0.1693
  676MOL0     C91159   0.949   2.506   3.773 -0.4462 -0.7862  0.7034
  676MOL0     C91160   0.882   2.390   3.755 -0.3587  0.4826  0.5785
  676MOL0     O91161   0.742   2.386   3.728 -0.0826 -0.1705  0.3500
  676MOL0     C91162   0.658   2.452   3.833  0.6009  0.2524  0.2332
  676MOL0     C91163   0.616   2.581   3.773 -0.3251 -0.0189  0.5768
  676MOL0     C91164   0.536   2.586   3.634  0.5713 -0.3010 -1.0627
  676MOL0     C91165   0.398   2.629   3.651  0.1901  0.7978  0.0792
  676MOL0     C91166   0.340   2.644   3.508 -0.8086 -0.6101 -0.1147
  676MOL0     C91167   0.195   2.691   3.512  0.4358  0.4952  0.2208
  676MOL0     C91168   0.193   2.844   3.501  0.0310  0.6778 -1.0487
  676MOL0     C91169   0.048   2.900   3.480  0.2127  0.1691 -0.0747
  676MOL0    Cl91170  -0.042   2.814   3.349 -0.2160 -0.0738  0.2936
  676MOL0     C91171   0.955   2.276   3.746 -0.3986  0.6963 -0.5356
  676MOL0     C91172   1.092   2.278   3.766 -0.2518  0.0302  0.0615
  676MOL0     O91173   1.274   2.249   3.998 -0.5019  0.3580  0.3472
  676MOL0     C91174   1.570   2.324   3.802  0.4391  0.0409 -0.4318
  676MOL0     C91175   1.688   2.272   3.758 -0.5732  0.5813  0.5725
  676MOL0     N91176   2.374   1.962   3.994 -0.9876  0.4902 -0.7681
  676MOL0     N91177   2.413   2.076   4.026  0.3775 -0.3627 -0.0059
  676MOL0     C91178   3.210   2.096   4.066  0.3397  0.5181  0.6207
  676MOL0     C91179   3.286   2.026   3.969 -0.1022  0.7146 -0.7792
  676MOL0     C91180   3.479   1.868   3.621  0.3889  0.7583  0.6715
  676MOL0     C91181   3.445   1.808   3.492  0.1607 -0.4244 -0.0597
  676MOL0     C91182   3.542   1.734   3.421  0.0593  0.0073 -0.0339
  676MOL0     C91183   3.669   1.706   3.476  0.4564  0.1792 -0.7073
  676MOL0     O91184   3.755   1.627   3.410  0.1136  0.7417  1.2588
  676MOL0     C91185   3.897   1.626   3.447  0.6493 -0.6045  1.2835
  676MOL0     C91186   3.980   1.537   3.350  0.9108  0.8854  0.4357
  676MOL0     C91187   4.125   1.520   3.390 -0.0651 -0.1454 -0.0159
  676MOL0     C91188   4.182   1.414   3.306 -0.1420 -0.4710 -0.3756
  676MOL0     C91189   4.324   1.379   3.356 -0.5201  1.0502 -0.1920
  676MOL0     C91190   4.425   1.352   3.412  0.1505 -0.1404 -0.5531
  676MOL0     C91191   3.687   1.755   3.604 -1.1533 -0.6610  0.6925
  676MOL0     C91192   3.599   1.832   3.670  0.2145 -0.6194  0.1170
  676MOL0     H91193   3.448   2.277   3.820  0.0373  0.1785 -0.3041
  676MOL0     H91194   3.289   2.406   3.991 -7.3449  0.9207 -0.1532
  676MOL0     H91195   2.984   2.209   4.213  0.6140 -2.4310  1.7749
  676MOL0     H91196   3.113   2.232   4.334 -2.6357  0.2936  1.2409
  676MOL0     H91197   2.940   2.376   4.408  1.3242  0.7384  0.8043
  676MOL0     H91198   3.061   2.481   4.322 -0.0949  0.7627  0.3414
  676MOL0     H91199   2.855   2.571   4.263  3.5988  0.7537  0.6986
  676MOL0     H91200   2.927   2.493   4.130  3.2520 -1.3913  0.6984
  676MOL0     H91201   2.779   2.294   4.172 -0.7263 -1.0189  0.1366
  676MOL0     H91202   2.690   2.386   4.292 -0.7793 -0.3507 -0.0530
  676MOL0     H91203   2.618   2.534   4.120  0.3620 -0.0736 -0.3069
  676MOL0     H91204   2.732   2.449   3.996  1.0097 -0.8364  1.1073
  676MOL0     H91205   2.518   2.355   3.952 -2.4306 -1.7359  1.2109
  676MOL0     H91206   2.593   2.241   4.063 -0.2389 -0.8679 -2.3691
  676MOL0     H91207   2.463   2.305   4.249 -2.9478 -1.8977 -0.2278
  676MOL0     H91208   2.418   2.462   4.185  3.5357  0.3463  0.3424
  676MOL0     H91209   2.282   2.333   4.021  0.9889 -0.7437 -0.4919
  676MOL0     H91210   2.223   2.300   4.186 -2.1046  2.8114 -3.0272
  676MOL0     H91211   2.117   2.075   4.153 -0.1236  0.3326 -1.5712
  676MOL0     H91212   2.196   1.753   4.008  0.7556  0.1148 -0.9269
  676MOL0     H91213   2.059   1.858   4.042  1.9853 -0.1793  1.9952
  676MOL0     H91214   2.057   1.770   3.799 -1.4689  2.3179 -3.6001
  676MOL0     H91215   2.219   1.855   3.783  0.3326  0.1565  0.9031
  676MOL0     H91216   2.035   1.987   3.686 -0.5841  4.1569  0.4572
  676MOL0     H91217   2.124   2.062   3.825 -0.0155 -1.3450  2.1634
  676MOL0     H91218   1.925   2.018   3.969 -1.7316  0.1828  0.3360
  676MOL0     H91219   1.861   1.918   3.847  1.3310 -0.1489 -2.4322
  676MOL0     H91220   1.693   2.020   3.978  0.4551  0.0569  0.0103
  676MOL0     H91221   1.516   1.972   4.093 -3.7473 -1.5565 -0.9382
  676MOL0     H91222   1.449   2.121   4.159 -0.6335  3.4259 -1.8678
  676MOL0     H91223   1.367   2.027   4.028 -0.1410  0.8330  0.0261
  676MOL0     H91224   1.139   2.607   3.821  3.2505 -2.1106  1.2451
  676MOL0     H91225   0.897   2.601   3.788 -1.3063 -0.9571 -0.9411
  676MOL0     H91226   0.570   2.388   3.843  1.1922 -0.6228 -0.0523
  676MOL0     H91227   0.708   2.448   3.930  0.4910  0.4853  0.2995
  676MOL0     H91228   0.549   2.636   3.841 -1.8768 -0.3036 -0.6817
  676MOL0     H91229   0.704   2.645   3.758 -0.1474 -0.5738 -0.8573
  676MOL0     H91230   0.538   2.484   3.594 -1.1922 -0.0426 -1.9067
  676MOL0     H91231   0.591   2.650   3.564 -0.5306  0.8271 -0.9429
  676MOL0     H91232   0.341   2.557   3.711  1.4381 -0.6822 -0.4329
  676MOL0     H91233   0.392   2.718   3.714  0.8857 -0.3565  1.8780
  676MOL0     H91234   0.342   2.549   3.453 -0.2076 -0.8769  0.3599
  676MOL0     H91235   0.412   2.712   3.461 -1.4681 -1.2773 -2.2044
  676MOL0     H91236   0.140   2.645   3.429  0.1667  3.3314 -1.2727
  676MOL0     H91237   0.149   2.653   3.604  0.3006  1.8332  0.7211
  676MOL0     H91238   0.254   2.869   3.414  0.3998 -1.5588 -1.4842
  676MOL0     H91239   0.235   2.896   3.588 -0.3192 -1.1184  0.2584
  676MOL0     H91240   0.058   3.007   3.460  4.8383  0.2547  1.5560
  676MOL0     H91241   0.000   2.883   3.577  0.7348 -2.7845 -0.2302
  676MOL0     H91242   0.902   2.190   3.706  0.0453  0.9082 -1.6249
  676MOL0     H91243   1.147   2.188   3.742 -0.0608 -0.7190  2.9102
  676MOL0     H91244   1.540   2.417   3.756 -0.1597 -0.5260 -1.2095
  676MOL0     H91245   1.745   2.311   3.674  0.2189 -1.4013  0.1456
  676MOL0     H91246   3.162   2.046   4.149  0.5195  1.6182  1.4151
  676MOL0     H91247   3.285   1.918   3.975  1.0060  0.7528  0.7185
  676MOL0     H91248   3.349   1.816   3.441  1.0326  1.0986 -1.5939
  676MOL0     H91249   3.498   1.693   3.331 -1.1183 -1.1000  0.9905
  676MOL0     H91250   3.935   1.729   3.445  0.0910 -0.4020  0.0110
  676MOL0     H91251   3.901   1.583   3.548  0.4932 -3.7345  0.0802
  676MOL0     H91252   3.975   1.574   3.247 -0.5412 -1.6019 -0.4707
  676MOL0     H91253   3.929   1.441   3.346 -2.4071  2.5339 -1.5882
  676MOL0     H91254   4.140   1.484   3.492  1.4313 -1.5942 -0.6974
  676MOL0     H91255   4.188   1.609   3.376 -0.1562 -0.2024 -0.8000
  676MOL0     H91256   4.178   1.442   3.201 -1.1855 -2.6685 -0.9953
  676MOL0     H91257   4.113   1.329   3.312 -1.4342  0.3155 -2.6725
  676MOL0     H91258   4.509   1.327   3.474 -0.1516  0.2052  0.0039
  676MOL0     H91259   3.778   1.728   3.657 -1.4101 -0.3346  1.3094
  676MOL0     H91260   3.621   1.874   3.768 -1.3512  1.8754 -0.5185
  677MOL0     O91261  10.009   9.961  11.152 -0.2045 -0.5081  0.5437
  677MOL0     C91262   9.992   9.872  11.081  0.0264  0.2293  0.0518
  677MOL0     O91263   9.898   9.880  10.984  0.0956  1.0149  0.1615
  677MOL0     C91264   9.782   9.954  11.008  0.2489 -0.5725 -1.4416
  677MOL0     C91265   9.724   9.999  11.134 -0.9875  0.2344 -1.0309
  677MOL0     C91266   9.606  10.073  11.131  0.0894  1.5499 -0.6285
  677MOL0     C91267   9.541  10.089  11.012  0.8685  0.1562  0.5447
  677MOL0     O91268   9.428  10.161  10.996 -0.0514  0.9075  0.4685
  677MOL0     C91269   9.310  10.100  11.052 -0.0234  1.1375 -0.3457
  677MOL0     C91270   9.190  10.130  10.967  0.6539  0.0757 -0.4473
  677MOL0     C91271   9.070  10.083  11.047  0.1503  0.1317  0.0225
  677MOL0     C91272   8.950  10.135  10.975 -0.0769  0.0251  0.7949
  677MOL0     C91273   8.824  10.054  11.011 -0.3596  0.5084 -0.2053
  677MOL0     C91274   8.693  10.106  10.953 -0.2618 -0.6724  0.5542
  677MOL0     C91275   8.584  10.010  10.966 -0.4315  0.3157  0.1984
  677MOL0     C91276   8.553   9.978  11.115  0.5831  0.1666 -0.0552
  677MOL0     N91277   8.402   9.991  11.131  0.8491  0.4152 -0.2028
  677MOL0     C91278   8.338  10.105  11.173  0.4754 -0.0017 -0.2278
  677MOL0     C91279   8.206  10.075  11.169  0.3488 -0.3923  1.1513
  677MOL0     C91280   8.082  10.151  11.208  0.3046  1.1181 -0.6969
  677MOL0     C91281   7.967  10.143  11.112  0.1001 -0.3367 -0.3373
  677MOL0     C91282   7.849  10.235  11.154  0.1382 -0.1918  0.3617
  677MOL0     C91283   7.767  10.290  11.040  0.3675  0.4320 -0.0444
  677MOL0     O91284   7.633  10.284  11.084  0.3441 -0.1520 -0.2279
  677MOL0     C91285   7.553  10.400  11.108  0.4523 -0.3480 -0.9589
  677MOL0     C91286   7.603  10.523  11.158  0.5863  0.2248  0.3136
  677MOL0     C91287   7.523  10.639  11.182 -0.3141  0.4101 -0.6089
  677MOL0     C91288   7.595  10.752  11.258 -0.4443 -0.4828  0.5174
  677MOL0     C91289   7.382  10.629  11.158  0.1095  0.3034 -0.5444
  677MOL0     C91290   7.271  10.732  11.188  0.3797  0.2929 -0.5998
  677MOL0     O91291   7.142  10.703  11.158 -0.1182 -0.2387 -0.0074
  677MOL0     C91292   7.049  10.802  11.164 -0.1994  0.3741 -0.0551
  677MOL0     C91293   7.053  10.906  11.072 -0.6052 -0.4038 -0.3999
  677MOL0     C91294   6.962  11.012  11.070  0.2351 -0.4244 -0.3359
  677MOL0     C91295   6.861  11.008  11.170 -0.5782  0.3552  0.3029
  677MOL0     O91296   6.761  11.098  11.186  0.1642  0.0165 -0.0874
  677MOL0     C91297   6.784  11.244  11.175  1.4218 -0.4190 -0.8366
  677MOL0     C91298   6.854  11.276  11.304  0.1032  1.3204  0.2195
  677MOL0     C91299   6.910  11.421  11.289 -0.8590 -0.0065 -0.7210
  677MOL0     C91300   7.034  11.447  11.373 -0.2300  0.4925 -0.7326
  677MOL0     C91301   7.092  11.593  11.370 -1.4266 -0.3609 -0.2556
  677MOL0     C91302   7.231  11.599  11.424  0.0918 -0.4551  0.2990
  677MOL0     C91303   7.263  11.752  11.437  0.0376 -0.3999  0.1329
  677MOL0     C91304   7.402  11.752  11.507 -0.7022 -0.8986  0.1508
  677MOL0    Cl91305   7.455  11.922  11.524 -0.5021 -0.6104  0.1187
  677MOL0     C91306   6.858  10.892  11.255 -0.4584 -0.3438 -0.6454
  677MOL0     C91307   6.961  10.798  11.267 -0.4830  0.1239  0.0191
  677MOL0     O91308   7.311  10.837  11.243 -0.1919 -0.4258 -0.9244
  677MOL0     C91309   7.338  10.503  11.104 -0.3527  1.2224 -0.3193
  677MOL0     C91310   7.423  10.401  11.078  0.2693  0.2378 -0.0138
  677MOL0     N91311   8.194   9.941  11.129 -0.3679 -0.4270  0.1493
  677MOL0     N91312   8.314   9.892  11.104  1.0349  0.0989  0.7032
  677MOL0     C91313   9.596  10.050  10.890  0.3530  0.5478 -0.4992
  677MOL0     C91314   9.716   9.986  10.889 -0.1103  0.1342 -0.3518
  677MOL0     C91315  10.078   9.756  11.069 -1.1079  1.0521 -0.1369
  677MOL0     C91316  10.076   9.666  10.955 -0.7816  0.2413 -1.0189
  677MOL0     C91317  10.175   9.564  10.940 -0.5558 -0.1633 -0.4550
  677MOL0     C91318  10.283   9.550  11.030  0.1092 -0.0692 -0.2864
  677MOL0     O91319  10.380   9.467  10.989 -0.0282  0.6789  0.7997
  677MOL0     C91320  10.514   9.496  11.039 -0.7238  0.1660  0.4083
  677MOL0     C91321  10.603   9.380  11.006  0.2720  0.2282 -1.0941
  677MOL0     C91322  10.619   9.344  10.859 -0.3525  0.8889 -0.3361
  677MOL0     C91323  10.742   9.410  10.801  0.5597  0.2670  0.1238
  677MOL0     C91324  10.867   9.327  10.803 -0.2226  0.4509 -0.6441
  677MOL0     C91325  10.951   9.246  10.808  0.2090 -0.1334  0.0563
  677MOL0     C91326  10.282   9.634  11.144  0.3166 -0.3424  1.0934
  677MOL0     C91327  10.189   9.737  11.157 -0.3067  0.0865 -0.2060
  677MOL0     H91328   9.783   9.990  11.225 -2.3960 -0.6044 -0.1709
  677MOL0     H91329   9.551  10.115  11.214 -1.6728 -2.3233  0.3816
  677MOL0     H91330   9.305   9.992  11.067  1.0082  1.0698 -0.4525
  677MOL0     H91331   9.301  10.145  11.151 -2.6393 -1.8191  0.9278
  677MOL0     H91332   9.176  10.238  10.965  0.3580  0.0471 -0.0564
  677MOL0     H91333   9.196  10.097  10.863  0.7809  4.4225 -2.0265
  677MOL0     H91334   9.075   9.974  11.053  1.1274  0.2240  1.2595
  677MOL0     H91335   9.089  10.122  11.147  0.7815 -1.5386  0.5749
  677MOL0     H91336   8.930  10.242  10.990 -0.7213  0.0585 -0.2227
  677MOL0     H91337   8.952  10.117  10.867  1.2546  3.0098  0.1988
  677MOL0     H91338   8.838   9.952  10.975  0.2576  0.6112 -0.2635
  677MOL0     H91339   8.830  10.066  11.119  0.8704  2.1444 -0.4196
  677MOL0     H91340   8.673  10.205  10.996 -0.1704 -1.4576  2.5096
  677MOL0     H91341   8.719  10.112  10.847 -2.4773 -2.0333 -0.1427
  677MOL0     H91342   8.493  10.054  10.924 -1.6797 -2.2835 -0.0275
  677MOL0     H91343   8.595   9.921  10.903  1.4044  0.7493 -0.1349
  677MOL0     H91344   8.610  10.032  11.191  1.6021 -2.6855  1.3517
  677MOL0     H91345   8.572   9.876  11.148  2.5366  0.6355  0.3829
  677MOL0     H91346   8.389  10.193  11.210  3.9831 -0.5995 -2.9975
  677MOL0     H91347   8.059  10.119  11.311  1.6166  3.8945  0.5667
  677MOL0     H91348   8.106  10.257  11.208 -0.4722  1.3053 -0.3347
  677MOL0     H91349   7.928  10.041  11.118 -0.3239 -0.1056  0.9916
  677MOL0     H91350   8.003  10.167  11.011 -1.3005  1.3082 -0.5040
  677MOL0     H91351   7.889  10.321  11.210  0.6603  0.3336 -0.7904
  677MOL0     H91352   7.785  10.176  11.220 -1.1885 -0.5570 -1.2114
  677MOL0     H91353   7.774  10.235  10.946  0.6910  1.9695 -0.9408
  677MOL0     H91354   7.794  10.392  11.011  1.4687 -0.2461 -1.5265
  677MOL0     H91355   7.706  10.530  11.189  0.9708  0.8330 -1.0370
  677MOL0     H91356   7.547  10.850  11.249 -1.5528 -1.0467  0.0692
  677MOL0     H91357   7.613  10.727  11.362  2.0106  0.9051  0.5009
  677MOL0     H91358   7.696  10.763  11.216 -0.6228  0.0865  0.2200
  677MOL0     H91359   7.130  10.902  10.995 -1.1998  0.4836 -1.0681
  677MOL0     H91360   6.972  11.091  10.996  2.1632 -0.7742 -0.5058
  677MOL0     H91361   6.845  11.266  11.087  0.0898  1.2580 -1.4014
  677MOL0     H91362   6.692  11.302  11.165  1.4502 -0.3355 -0.6232
  677MOL0     H91363   6.779  11.269  11.385 -0.9190 -1.4775 -0.8310
  677MOL0     H91364   6.942  11.213  11.320 -1.3367 -0.8907 -0.0231
  677MOL0     H91365   6.830  11.486  11.326  1.0650  0.6970  2.6532
  677MOL0     H91366   6.939  11.439  11.185  3.6141  0.2760  0.3835
  677MOL0     H91367   7.019  11.425  11.479 -0.5370  0.4263 -0.7916
  677MOL0     H91368   7.115  11.379  11.343  0.1733  0.2172  0.8717
  677MOL0     H91369   7.019  11.663  11.409  0.4543  1.5038  0.0558
  677MOL0     H91370   7.102  11.627  11.266 -0.0735 -0.0194 -0.0273
  677MOL0     H91371   7.225  11.563  11.527 -0.2506  0.9541  0.7895
  677MOL0     H91372   7.308  11.535  11.379 -1.3772 -3.4434  1.7690
  677MOL0     H91373   7.192  11.806  11.499 -1.1182 -0.0373 -1.4269
  677MOL0     H91374   7.273  11.792  11.335  0.6976 -3.2221 -1.0093
  677MOL0     H91375   7.477  11.697  11.450 -1.0570  0.0966 -1.3297
  677MOL0     H91376   7.413  11.703  11.605  1.5592 -1.0527 -0.1294
  677MOL0     H91377   6.774  10.890  11.323 -1.5627  0.6563 -1.9281
  677MOL0     H91378   6.969  10.710  11.330  0.8839  0.4803  0.3965
  677MOL0     H91379   7.231  10.481  11.104 -0.0148 -0.5906 -1.1635
  677MOL0     H91380   7.390  10.310  11.031  1.2082 -0.5586  0.8262
  677MOL0     H91381   9.545  10.065  10.795 -0.5957 -0.6304 -0.2008
  677MOL0     H91382   9.746   9.949  10.791  2.1490 -1.1174  0.7341
  677MOL0     H91383  10.002   9.675  10.876 -0.3736  0.8511 -1.3351
  677MOL0     H91384  10.177   9.509  10.846 -2.4676  0.5502 -0.9509
  677MOL0     H91385  10.548   9.586  10.986 -0.0225 -2.3456 -3.8841
  677MOL0     H91386  10.521   9.523  11.145  3.2679 -0.7036  0.5265
  677MOL0     H91387  10.559   9.297  11.061 -0.3281  0.6821 -0.8772
  677MOL0     H91388  10.700   9.403  11.050  0.6406 -0.1190 -1.7227
  677MOL0     H91389  10.528   9.366  10.802  0.0159  0.1916 -1.2313
  677MOL0     H91390  10.622   9.235  10.856 -0.5995  0.7984  1.5693
  677MOL0     H91391  10.762   9.502  10.856  0.7418  0.5322 -0.3730
  677MOL0     H91392  10.731   9.423  10.693  1.1091 -2.0518 -0.2657
  677MOL0     H91393  11.036   9.181  10.797  0.1541 -0.1962  0.0019
  677MOL0     H91394  10.346   9.619  11.230  0.2200  2.9359  1.8928
  677MOL0     H91395  10.197   9.809  11.237 -1.3340  0.4786 -0.4416
  678MOL0     O91396   3.319   4.426   8.806 -0.3083 -0.5972  0.2390
  678MOL0     C91397   3.294   4.323   8.747 -0.0249  0.2158  0.7012
  678MOL0     O91398   3.165   4.281   8.726 -0.4368 -0.2294 -0.2847
  678MOL0     C91399   3.060   4.360   8.770 -1.2426 -0.4392 -0.0930
  678MOL0     C91400   3.040   4.481   8.702  0.1461 -0.6035 -0.1674
  678MOL0     C91401   2.913   4.551   8.703  0.2996  0.1962 -0.2206
  678MOL0     C91402   2.819   4.504   8.793 -0.1454 -0.5131 -0.5811
  678MOL0     O91403   2.696   4.567   8.811  0.3260 -0.0600  0.4361
  678MOL0     C91404   2.581   4.500   8.750  0.8990 -0.0055  0.3390
  678MOL0     C91405   2.508   4.587   8.648  0.2242  0.3884  0.1483
  678MOL0     C91406   2.366   4.543   8.609  0.7172 -0.8871  1.5534
  678MOL0     C91407   2.261   4.532   8.720  0.1558 -0.2331  0.5807
  678MOL0     C91408   2.109   4.521   8.673  0.2652 -0.7347  0.4971
  678MOL0     C91409   2.014   4.496   8.786 -0.0222 -0.0957  0.5885
  678MOL0     C91410   1.874   4.458   8.734 -0.1898 -0.5973 -0.0648
  678MOL0     C91411   1.799   4.401   8.855  0.0956 -0.5217 -0.0775
  678MOL0     N91412   1.654   4.412   8.841 -0.3275  0.1754  0.2219
  678MOL0     C91413   1.594   4.344   8.735  0.5479 -0.1035  0.4028
  678MOL0     C91414   1.466   4.394   8.748 -0.1226  0.1603  0.9517
  678MOL0     C91415   1.343   4.387   8.653  0.2850  0.2890 -0.7944
  678MOL0     C91416   1.212   4.423   8.716  0.3765 -0.9349  0.9859
  678MOL0     C91417   1.095   4.423   8.614  0.1502  0.5426 -0.2439
  678MOL0     C91418   1.050   4.289   8.551 -0.2510 -0.2192  0.5525
  678MOL0     O91419   0.926   4.304   8.493  0.6240  0.1356  0.1985
  678MOL0     C91420   0.828   4.212   8.476  0.1117  0.6855 -0.0484
  678MOL0     C91421   0.709   4.250   8.406 -0.2127  0.2882  0.0716
  678MOL0     C91422   0.617   4.159   8.367 -0.6568  0.3467  0.2733
  678MOL0     C91423   0.506   4.219   8.280 -0.4025 -0.2698 -0.3474
  678MOL0     C91424   0.627   4.025   8.399  0.1751  0.5485  0.5647
  678MOL0     C91425   0.513   3.929   8.383 -0.0042  0.3873  0.1670
  678MOL0     O91426   0.391   3.980   8.357  0.4310  0.3431 -0.1075
  678MOL0     C91427   0.290   3.882   8.348 -0.9612 -0.0228 -0.7564
  678MOL0     C91428   0.246   3.841   8.223  0.5492 -0.8933 -0.5001
  678MOL0     C91429   0.148   3.741   8.213  0.1406  0.4049  0.8920
  678MOL0     C91430   0.086   3.700   8.331 -0.6438  0.1790 -0.0035
  678MOL0     O91431  -0.031   3.620   8.333 -0.1358 -0.1289 -0.1485
  678MOL0     C91432  -0.098   3.592   8.212  0.4267 -0.2413 -0.3266
  678MOL0     C91433  -0.216   3.503   8.241 -0.0297  0.2427 -0.1131
  678MOL0     C91434  -0.257   3.420   8.119 -0.0982  0.9276  0.8406
  678MOL0     C91435  -0.352   3.489   8.018  0.0891 -0.6095 -0.2670
  678MOL0     C91436  -0.413   3.389   7.927  0.2413  0.2325  0.5303
  678MOL0     C91437  -0.522   3.451   7.836 -0.0602  0.0391 -0.1723
  678MOL0     C91438  -0.570   3.351   7.735  0.1793 -0.6493  0.9401
  678MOL0     C91439  -0.692   3.388   7.666  0.1266  0.1155  0.1361
  678MOL0    Cl91440  -0.837   3.370   7.774  0.1873 -0.1102  0.6872
  678MOL0     C91441   0.124   3.753   8.457 -0.0808  0.5168  0.3963
  678MOL0     C91442   0.236   3.842   8.465  0.0758 -0.0708 -0.0849
  678MOL0     O91443   0.542   3.812   8.403 -0.0821 -0.0584 -0.0511
  678MOL0     C91444   0.749   3.979   8.454  0.0404  0.1802 -1.0662
  678MOL0     C91445   0.852   4.073   8.492 -0.8814  0.8063  0.7677
  678MOL0     N91446   1.464   4.480   8.861  0.1892 -0.0781 -0.2975
  678MOL0     N91447   1.569   4.471   8.930  0.1614 -0.0264  0.1686
  678MOL0     C91448   2.849   4.391   8.875  0.4364 -0.3544  1.0343
  678MOL0     C91449   2.963   4.316   8.859 -0.3620 -0.0667 -0.4117
  678MOL0     C91450   3.409   4.248   8.695  0.3761 -0.0775 -0.0587
  678MOL0     C91451   3.389   4.172   8.582 -1.3028  0.0533  0.6719
  678MOL0     C91452   3.494   4.114   8.510  0.1056  0.4627  0.4831
  678MOL0     C91453   3.629   4.120   8.560  0.1061 -0.1860 -1.0624
  678MOL0     O91454   3.729   4.058   8.489  0.2955  0.3469 -0.2839
  678MOL0     C91455   3.697   3.957   8.395  0.2474  0.3406  1.0100
  678MOL0     C91456   3.825   3.881   8.345  0.8055 -0.6585 -0.1638
  678MOL0     C91457   3.943   3.975   8.300  0.1917  0.3837  0.0774
  678MOL0     C91458   4.074   3.902   8.267  0.4142  0.4105 -0.0820
  678MOL0     C91459   4.048   3.803   8.154  0.4030  0.3987 -0.1681
  678MOL0     C91460   4.017   3.706   8.087  0.2903 -0.2425  0.5643
  678MOL0     C91461   3.650   4.194   8.676  0.1668  0.0186  0.4688
  678MOL0     C91462   3.541   4.254   8.746 -0.7904  0.0288 -0.1028
  678MOL0     H91463   3.125   4.520   8.647  0.2294 -0.4536  0.0659
  678MOL0     H91464   2.892   4.641   8.645  1.6325  0.2003 -0.7484
  678MOL0     H91465   2.616   4.410   8.699  1.6903 -0.0941  1.0168
  678MOL0     H91466   2.510   4.473   8.828 -0.1641  1.1090 -0.2087
  678MOL0     H91467   2.495   4.688   8.688 -2.8713 -0.5088  1.6722
  678MOL0     H91468   2.568   4.596   8.556  0.3260 -1.1929  0.0401
  678MOL0     H91469   2.321   4.612   8.537 -2.1188 -0.5855  3.4545
  678MOL0     H91470   2.372   4.446   8.559 -1.5462 -0.4780  0.3782
  678MOL0     H91471   2.282   4.447   8.786  1.5037  1.2235  2.1228
  678MOL0     H91472   2.280   4.621   8.780 -0.0185  0.9482 -1.0524
  678MOL0     H91473   2.079   4.608   8.614  0.2514 -1.9639 -1.4209
  678MOL0     H91474   2.095   4.436   8.605 -0.1485 -1.5382  1.5536
  678MOL0     H91475   2.047   4.412   8.848 -2.1112 -0.0784  1.8588
  678MOL0     H91476   2.020   4.590   8.841  2.3129  1.4492 -2.0743
  678MOL0     H91477   1.822   4.547   8.699  0.1236 -0.2144  0.4358
  678MOL0     H91478   1.889   4.376   8.663  4.2696 -1.0290  1.0813
  678MOL0     H91479   1.828   4.463   8.941 -1.4633  0.2252 -0.0593
  678MOL0     H91480   1.804   4.294   8.874 -2.3188 -0.2985  2.4724
  678MOL0     H91481   1.647   4.299   8.652 -0.9531  1.2133 -1.3421
  678MOL0     H91482   1.366   4.454   8.570  5.6922 -0.0121  0.0967
  678MOL0     H91483   1.345   4.285   8.612 -0.3359 -0.0548  0.0056
  678MOL0     H91484   1.206   4.518   8.770  0.1000 -0.3046 -0.1320
  678MOL0     H91485   1.183   4.354   8.797  3.1579 -1.0637  1.9833
  678MOL0     H91486   1.124   4.490   8.533  0.9845 -1.1068 -1.3522
  678MOL0     H91487   1.010   4.466   8.668 -0.5174 -1.3509  0.2830
  678MOL0     H91488   1.033   4.218   8.632 -3.6524 -0.5311 -0.2878
  678MOL0     H91489   1.119   4.255   8.473 -1.4427  2.5828 -1.8936
  678MOL0     H91490   0.699   4.355   8.382 -1.9915 -0.0280 -0.6926
  678MOL0     H91491   0.492   4.157   8.191 -1.7700 -0.4214 -0.0443
  678MOL0     H91492   0.409   4.225   8.331 -0.4503 -1.8053 -0.2103
  678MOL0     H91493   0.542   4.315   8.240 -1.6837  0.6539  0.6271
  678MOL0     H91494   0.270   3.880   8.125 -2.0742  1.3693 -0.3547
  678MOL0     H91495   0.114   3.713   8.114  0.8058 -0.5779  0.9351
  678MOL0     H91496  -0.132   3.690   8.180 -1.8538 -0.5743  0.8472
  678MOL0     H91497  -0.033   3.550   8.134 -1.1008  0.0916 -1.8318
  678MOL0     H91498  -0.199   3.429   8.320  1.3612  0.6759  0.0245
  678MOL0     H91499  -0.305   3.564   8.254  1.5400  2.5980  0.2693
  678MOL0     H91500  -0.309   3.332   8.157 -1.4374  2.3905  2.5837
  678MOL0     H91501  -0.171   3.380   8.065 -0.4819 -0.3908  1.1846
  678MOL0     H91502  -0.430   3.535   8.080 -0.2121 -1.3865 -0.0492
  678MOL0     H91503  -0.298   3.571   7.970 -0.2837 -0.4374 -0.3991
  678MOL0     H91504  -0.459   3.311   7.989 -0.8869 -0.3925 -1.0244
  678MOL0     H91505  -0.332   3.344   7.868 -0.0420  1.8805 -1.2375
  678MOL0     H91506  -0.604   3.490   7.897  0.1292  0.7399 -0.3661
  678MOL0     H91507  -0.467   3.517   7.769  0.7024 -2.3092 -2.0240
  678MOL0     H91508  -0.591   3.250   7.771  0.7031 -0.7289  1.0182
  678MOL0     H91509  -0.489   3.353   7.663  1.9507  1.7669  2.8380
  678MOL0     H91510  -0.704   3.326   7.576 -0.7251  0.3269  0.0980
  678MOL0     H91511  -0.674   3.490   7.629  0.1049 -0.0628 -0.3696
  678MOL0     H91512   0.055   3.727   8.536 -0.7523  0.1180 -0.3081
  678MOL0     H91513   0.273   3.878   8.560 -3.6009  0.6304  1.2594
  678MOL0     H91514   0.763   3.873   8.473 -1.9515 -0.2557 -1.7856
  678MOL0     H91515   0.938   4.032   8.544 -0.6278  0.0758 -0.1881
  678MOL0     H91516   2.774   4.361   8.948 -0.2284  1.6705  1.2365
  678MOL0     H91517   2.971   4.230   8.924 -0.7406  0.5891  0.5441
  678MOL0     H91518   3.289   4.152   8.544 -0.8191  0.5165 -0.9440
  678MOL0     H91519   3.456   4.064   8.422  1.9756  0.8817 -0.6108
  678MOL0     H91520   3.627   3.882   8.433 -0.4097  1.1383  1.3998
  678MOL0     H91521   3.649   4.008   8.311 -0.5689  0.3562  1.4732
  678MOL0     H91522   3.798   3.805   8.270 -1.8752 -0.8804  0.9145
  678MOL0     H91523   3.862   3.828   8.434 -2.2073 -2.6634  0.0522
  678MOL0     H91524   3.959   4.052   8.375 -0.0920 -1.4213  2.0984
  678MOL0     H91525   3.905   4.033   8.215 -3.1142  1.4043  2.0703
  678MOL0     H91526   4.118   3.839   8.345  1.9766  0.1882 -1.0964
  678MOL0     H91527   4.150   3.974   8.236  1.4432 -0.8900 -0.6810
  678MOL0     H91528   3.981   3.617   8.039  0.5507 -1.2345  2.1555
  678MOL0     H91529   3.752   4.216   8.705  0.5630  2.1888 -2.1202
  678MOL0     H91530   3.576   4.306   8.835  2.5893 -1.7485 -0.2244
  679MOL0     O91531   5.455   4.023  11.259  0.1930  0.6450  0.0266
  679MOL0     C91532   5.535   4.091  11.323 -0.1785 -0.2505 -0.6651
  679MOL0     O91533   5.509   4.169  11.436  0.2456 -0.3260  0.0374
  679MOL0     C91534   5.375   4.189  11.475  0.6991 -0.0803  0.4496
  679MOL0     C91535   5.280   4.091  11.482  1.3457  0.0665 -0.1244
  679MOL0     C91536   5.144   4.115  11.510 -0.1515 -0.6064 -0.1507
  679MOL0     C91537   5.105   4.244  11.528  0.5904  0.1753  1.3986
  679MOL0     O91538   4.968   4.260  11.550  0.3999  0.4858  0.1895
  679MOL0     C91539   4.924   4.335  11.663  0.4959 -0.1320 -0.7299
  679MOL0     C91540   4.811   4.257  11.722  0.6898  0.4165 -0.1676
  679MOL0     C91541   4.745   4.326  11.843 -0.0813  0.5313 -0.0396
  679MOL0     C91542   4.621   4.244  11.885 -0.2696  0.0724 -0.1833
  679MOL0     C91543   4.542   4.303  12.000  0.3382 -0.2250 -0.1942
  679MOL0     C91544   4.427   4.217  12.041 -0.2842 -0.7765  0.6507
  679MOL0     C91545   4.361   4.272  12.169  0.6179  0.2053  0.7769
  679MOL0     C91546   4.253   4.378  12.144  0.8332  0.0567 -0.0567
  679MOL0     N91547   4.124   4.320  12.106  0.0327  0.2730  1.3076
  679MOL0     C91548   4.100   4.276  11.978  0.0083 -0.6594  0.2832
  679MOL0     C91549   3.979   4.211  11.988  0.5455 -1.0026 -1.1310
  679MOL0     C91550   3.910   4.160  11.866 -0.4505 -0.3544 -0.1814
  679MOL0     C91551   3.791   4.249  11.832  0.2128 -0.1118  0.2204
  679MOL0     C91552   3.663   4.240  11.923  0.6403 -1.1156 -0.3780
  679MOL0     C91553   3.589   4.113  11.911  0.1919  0.3164  0.0109
  679MOL0     O91554   3.452   4.124  11.958 -0.2129 -0.5200 -0.7908
  679MOL0     C91555   3.430   4.130  12.090 -0.1779  0.4148  0.3307
  679MOL0     C91556   3.441   4.024  12.175 -0.2903  0.2689 -1.0322
  679MOL0     C91557   3.389   4.023  12.305 -1.1618 -0.6993  0.0965
  679MOL0     C91558   3.412   3.890  12.379 -0.0959 -0.3555 -0.2310
  679MOL0     C91559   3.328   4.139  12.350  0.4153 -0.4994  0.0771
  679MOL0     C91560   3.273   4.152  12.489  0.2866 -0.4976  0.7465
  679MOL0     O91561   3.318   4.055  12.574 -0.1573  0.2507  0.2658
  679MOL0     C91562   3.292   4.043  12.709 -0.7361  0.2970  0.1806
  679MOL0     C91563   3.399   3.985  12.772  0.6874  0.2400  0.1773
  679MOL0     C91564   3.393   3.962  12.905 -0.9672  0.1512 -0.4862
  679MOL0     C91565   3.278   3.983  12.983 -1.1528 -0.2586 -0.0357
  679MOL0     O91566   3.279   3.954  13.124  0.0483 -0.0159 -0.2232
  679MOL0     C91567   3.185   4.029  13.204  0.4347 -0.4583  0.0947
  679MOL0     C91568   3.257   4.042  13.337  0.0062 -0.0493 -0.4932
  679MOL0     C91569   3.183   4.140  13.421  0.0407 -0.3331 -0.1765
  679MOL0     C91570   3.244   4.121  13.565  0.1369 -0.5296 -0.5807
  679MOL0     C91571   3.169   4.218  13.657  0.2959  0.4154  0.8167
  679MOL0     C91572   3.214   4.206  13.801 -0.7401 -0.0481  0.1849
  679MOL0     C91573   3.127   4.287  13.892  0.0271  0.2975 -0.3516
  679MOL0     C91574   3.175   4.276  14.036  0.5020  0.0415 -0.0096
  679MOL0    Cl91575   3.332   4.368  14.064  0.2535 -0.1161 -0.1757
  679MOL0     C91576   3.167   4.041  12.918 -0.3440  0.1485  0.1107
  679MOL0     C91577   3.171   4.064  12.779  0.1805  1.0245 -0.8496
  679MOL0     O91578   3.184   4.235  12.519 -0.7003  0.3895 -0.1422
  679MOL0     C91579   3.312   4.249  12.272 -0.2176 -0.4176  0.5228
  679MOL0     C91580   3.369   4.244  12.140  0.2232 -0.1879  0.0129
  679MOL0     N91581   3.953   4.199  12.126  0.7273 -0.2555  0.9768
  679MOL0     N91582   4.031   4.274  12.196  0.3424 -0.0708  0.6563
  679MOL0     C91583   5.198   4.345  11.529  0.0118 -0.2090  0.6243
  679MOL0     C91584   5.331   4.316  11.519  0.4907 -0.5197 -0.1494
  679MOL0     C91585   5.678   4.113  11.263  0.0584 -1.0304 -0.2212
  679MOL0     C91586   5.770   4.208  11.315  0.2162  0.7968  0.6394
  679MOL0     C91587   5.892   4.230  11.243  0.0480  0.1930  0.1826
  679MOL0     C91588   5.919   4.149  11.136  0.0067  0.2701  0.1019
  679MOL0     O91589   6.036   4.177  11.069  0.1851  0.8130  0.5990
  679MOL0     C91590   6.161   4.144  11.132  0.8284  0.5663  0.7082
  679MOL0     C91591   6.191   3.999  11.092  0.8167  0.0930 -1.3009
  679MOL0     C91592   6.336   3.955  11.094 -0.0647  0.3177 -0.5937
  679MOL0     C91593   6.363   3.823  11.028  0.2851 -0.4802 -0.6198
  679MOL0     C91594   6.344   3.825  10.887  0.2016 -0.2631 -0.6266
  679MOL0     C91595   6.342   3.835  10.767  0.2342 -0.2407  0.3750
  679MOL0     C91596   5.835   4.053  11.087  0.3532 -0.6281 -0.1670
  679MOL0     C91597   5.712   4.037  11.144  0.1847 -0.5211  0.6605
  679MOL0     H91598   5.308   3.989  11.455  0.3369  0.0668 -1.2406
  679MOL0     H91599   5.073   4.033  11.520  0.8365 -1.4483  0.2517
  679MOL0     H91600   4.999   4.348  11.742 -1.0772  1.3251  0.6092
  679MOL0     H91601   4.907   4.438  11.631 -0.7492 -0.0366  0.1325
  679MOL0     H91602   4.726   4.250  11.652  1.9066 -1.2386 -1.5622
  679MOL0     H91603   4.838   4.153  11.741  0.2520  0.4096  0.4389
  679MOL0     H91604   4.813   4.319  11.928  1.5533  1.8940 -1.1706
  679MOL0     H91605   4.722   4.432  11.828  2.0769  1.0415 -0.0849
  679MOL0     H91606   4.560   4.222  11.797  2.5602 -0.4508 -2.1315
  679MOL0     H91607   4.656   4.145  11.915  1.7736  1.0242  0.7771
  679MOL0     H91608   4.615   4.302  12.081  0.5886 -1.0756 -0.4192
  679MOL0     H91609   4.510   4.407  11.989 -2.4461 -1.0989 -1.0747
  679MOL0     H91610   4.357   4.218  11.956  0.1334  1.2591  0.2764
  679MOL0     H91611   4.453   4.112  12.055  2.3401 -0.3876 -0.6408
  679MOL0     H91612   4.314   4.187  12.219  0.1929 -0.0277 -0.0026
  679MOL0     H91613   4.446   4.307  12.229  1.2516  1.7458 -0.9160
  679MOL0     H91614   4.277   4.461  12.076 -2.0767 -0.5868 -2.0505
  679MOL0     H91615   4.233   4.425  12.241  1.9446 -0.3601  0.3793
  679MOL0     H91616   4.152   4.292  11.884 -1.6991  0.6396 -0.4965
  679MOL0     H91617   3.979   4.178  11.783  0.2827  4.5501  1.1313
  679MOL0     H91618   3.881   4.055  11.874  0.9109 -0.7948 -0.7100
  679MOL0     H91619   3.757   4.235  11.729 -1.8998 -2.7441  1.1643
  679MOL0     H91620   3.838   4.348  11.836  3.0725 -1.4273  3.0280
  679MOL0     H91621   3.591   4.316  11.891  1.9444 -0.2260 -1.2861
  679MOL0     H91622   3.687   4.263  12.027 -5.1760  0.8081  0.8847
  679MOL0     H91623   3.639   4.043  11.979 -1.7821 -0.4908  0.7142
  679MOL0     H91624   3.599   4.077  11.808  2.4068 -2.1305  0.9422
  679MOL0     H91625   3.480   3.930  12.138  0.5306 -0.0977  0.6728
  679MOL0     H91626   3.330   3.861  12.446  1.2023  0.4815  1.8044
  679MOL0     H91627   3.441   3.809  12.310 -1.1905 -0.9589 -0.0078
  679MOL0     H91628   3.502   3.903  12.440 -0.8522  0.9352  0.6489
  679MOL0     H91629   3.485   3.965  12.708  0.3940 -2.0770  0.4227
  679MOL0     H91630   3.487   3.935  12.952 -2.0107 -2.2034  0.3733
  679MOL0     H91631   3.162   4.132  13.176 -0.6484  0.5366  4.0508
  679MOL0     H91632   3.090   3.977  13.216  0.5439 -0.6673  0.0618
  679MOL0     H91633   3.249   3.947  13.392  0.9556 -0.0522 -0.3545
  679MOL0     H91634   3.361   4.068  13.319 -0.2769  0.1437 -1.9412
  679MOL0     H91635   3.075   4.123  13.428  0.3012 -2.0915  0.0161
  679MOL0     H91636   3.204   4.238  13.377 -2.2425 -0.0130 -0.6574
  679MOL0     H91637   3.236   4.018  13.602  2.8952 -0.5445  0.2376
  679MOL0     H91638   3.348   4.155  13.578 -0.5491  1.6084 -0.3786
  679MOL0     H91639   3.061   4.204  13.644  0.4487  1.5456 -2.7214
  679MOL0     H91640   3.178   4.317  13.613 -0.8826 -0.9395 -2.9298
  679MOL0     H91641   3.226   4.105  13.841  1.3282  0.9652  2.3558
  679MOL0     H91642   3.316   4.242  13.816 -1.1976  1.8382 -0.8897
  679MOL0     H91643   3.021   4.257  13.889  0.2927 -0.6921 -0.3164
  679MOL0     H91644   3.129   4.393  13.865 -1.9703 -0.1391 -2.6412
  679MOL0     H91645   3.197   4.169  14.042  1.7188  0.2882  0.1586
  679MOL0     H91646   3.099   4.299  14.112  1.1084  3.4284 -0.2377
  679MOL0     H91647   3.074   4.054  12.973 -2.0724  0.7927 -2.7449
  679MOL0     H91648   3.084   4.105  12.728 -0.3506  0.8420 -0.0968
  679MOL0     H91649   3.266   4.335  12.320 -1.6725 -1.4288  1.0041
  679MOL0     H91650   3.360   4.336  12.083 -0.9338 -0.2769  0.0473
  679MOL0     H91651   5.167   4.446  11.550  0.1629 -0.9189  5.1522
  679MOL0     H91652   5.405   4.395  11.522  0.0816 -0.1438  0.2881
  679MOL0     H91653   5.760   4.261  11.409  0.4298 -1.3791  1.9495
  679MOL0     H91654   5.965   4.305  11.269  1.8655 -0.9156 -1.4680
  679MOL0     H91655   6.241   4.210  11.096 -0.3243  0.1701 -2.9049
  679MOL0     H91656   6.159   4.161  11.240 -2.1407 -2.8377  1.3984
  679MOL0     H91657   6.156   3.984  10.990 -1.7813  3.6554 -1.1378
  679MOL0     H91658   6.140   3.933  11.163  1.9652  2.0040  1.4854
  679MOL0     H91659   6.374   3.943  11.196  0.4843 -4.3961 -1.1158
  679MOL0     H91660   6.398   4.034  11.050  1.2733 -0.2095  0.2554
  679MOL0     H91661   6.293   3.748  11.066 -1.3870  0.5989 -1.4342
  679MOL0     H91662   6.464   3.785  11.043 -0.5468 -2.3913  0.6555
  679MOL0     H91663   6.349   3.854  10.662  1.1361 -1.2816  0.2276
  679MOL0     H91664   5.856   3.989  11.002  0.1035 -2.0001  0.7721
  679MOL0     H91665   5.644   3.967  11.096  1.0270 -0.3654 -0.8252
  680MOL0     O91666   0.701   1.810   9.354  0.0501 -0.6445 -0.1927
  680MOL0     C91667   0.690   1.702   9.413  0.9439 -0.2016  0.4690
  680MOL0     O91668   0.566   1.645   9.453 -0.1104 -0.0238 -0.1940
  680MOL0     C91669   0.451   1.719   9.430  1.4209  0.4206  0.9752
  680MOL0     C91670   0.378   1.676   9.308 -1.2311  0.0275  0.0529
  680MOL0     C91671   0.259   1.749   9.270 -0.1843  0.3887 -0.0053
  680MOL0     C91672   0.196   1.831   9.368 -0.7438 -0.7469  0.0963
  680MOL0     O91673   0.074   1.879   9.324  0.0624 -0.5085  0.3718
  680MOL0     C91674   0.004   1.957   9.419 -0.0398  0.0737 -0.6483
  680MOL0     C91675  -0.127   1.992   9.348  0.6668 -0.7332  0.0565
  680MOL0     C91676  -0.230   1.884   9.380 -0.6039  1.4236  0.3662
  680MOL0     C91677  -0.368   1.908   9.314  1.3447 -0.0565  0.1109
  680MOL0     C91678  -0.485   1.833   9.382 -0.2794 -0.0173  0.1378
  680MOL0     C91679  -0.612   1.852   9.295 -0.2376  0.9921  0.2108
  680MOL0     C91680  -0.721   1.785   9.372 -0.5505 -0.4112 -0.2000
  680MOL0     C91681  -0.853   1.793   9.308  0.6701  0.7582 -0.7505
  680MOL0     N91682  -0.963   1.726   9.385 -0.5722  0.1797  0.0804
  680MOL0     C91683  -0.988   1.727   9.520  0.0864 -0.6453  0.0949
  680MOL0     C91684  -1.096   1.649   9.537 -0.0071  0.5973  0.5174
  680MOL0     C91685  -1.152   1.612   9.675 -0.2230  0.6963  0.3322
  680MOL0     C91686  -1.286   1.685   9.701  0.4527  0.0939 -1.0543
  680MOL0     C91687  -1.409   1.630   9.620 -0.6053  0.0648 -0.4445
  680MOL0     C91688  -1.532   1.710   9.637 -0.4595 -0.0053 -0.5380
  680MOL0     O91689  -1.588   1.688   9.766  0.7726 -0.0097  0.5469
  680MOL0     C91690  -1.713   1.748   9.787 -0.1616  0.5974  0.8051
  680MOL0     C91691  -1.787   1.832   9.705  0.2952  0.5327  0.5227
  680MOL0     C91692  -1.912   1.880   9.735  0.6043 -0.9496  0.0073
  680MOL0     C91693  -1.987   1.966   9.640  0.5148 -0.0176 -0.8247
  680MOL0     C91694  -1.971   1.833   9.859  0.0544 -0.3109 -0.7553
  680MOL0     C91695  -2.106   1.869   9.912 -0.3898 -0.2617 -0.3296
  680MOL0     O91696  -2.113   1.907  10.038 -0.6200  0.0575 -0.5175
  680MOL0     C91697  -2.236   1.925  10.097  0.4173 -0.4694  1.3439
  680MOL0     C91698  -2.251   2.050  10.164  0.6563  0.2271  0.0280
  680MOL0     C91699  -2.378   2.084  10.211 -0.8527 -0.2550  0.9081
  680MOL0     C91700  -2.485   1.994  10.205 -0.2027  0.1730  0.5873
  680MOL0     O91701  -2.611   2.014  10.262 -0.5016  0.6142  0.0937
  680MOL0     C91702  -2.656   2.142  10.288  0.2272 -1.0381 -0.1607
  680MOL0     C91703  -2.621   2.188  10.440 -0.4714  0.6508 -0.2174
  680MOL0     C91704  -2.675   2.322  10.459 -0.6115 -0.8402 -0.3141
  680MOL0     C91705  -2.678   2.367  10.608 -0.3539  0.0117 -0.6156
  680MOL0     C91706  -2.795   2.454  10.633 -0.3694  0.3755 -0.1357
  680MOL0     C91707  -2.771   2.600  10.579  0.4012  0.5267  0.5203
  680MOL0     C91708  -2.895   2.679  10.603  0.1734 -0.0581 -0.6581
  680MOL0     C91709  -2.855   2.828  10.568  0.7381  0.7224 -0.6448
  680MOL0    Cl91710  -2.740   2.894  10.688 -0.2857  0.2622  0.4526
  680MOL0     C91711  -2.467   1.865  10.150  0.0209 -0.3238  0.0677
  680MOL0     C91712  -2.339   1.825  10.087  0.5173 -0.5024  0.6118
  680MOL0     O91713  -2.205   1.873   9.843 -0.0415  0.2966  0.2017
  680MOL0     C91714  -1.900   1.742   9.939  0.6720 -0.0625  0.2104
  680MOL0     C91715  -1.766   1.706   9.907  0.4752 -0.1713 -0.5307
  680MOL0     N91716  -1.123   1.598   9.415 -0.2910 -0.3655 -0.0528
  680MOL0     N91717  -1.053   1.647   9.326 -0.0333 -0.1125 -1.2219
  680MOL0     C91718   0.258   1.868   9.486 -0.3936  0.1371 -0.0285
  680MOL0     C91719   0.397   1.821   9.511  0.5885 -0.1328 -0.3643
  680MOL0     C91720   0.813   1.622   9.422  0.4413 -1.5661 -0.0330
  680MOL0     C91721   0.807   1.501   9.489 -0.3567  0.8859 -0.0465
  680MOL0     C91722   0.927   1.434   9.519 -1.0182 -0.0158  0.9773
  680MOL0     C91723   1.055   1.482   9.487  0.3553 -0.0143  0.4630
  680MOL0     O91724   1.164   1.424   9.547  0.3519  0.0107  0.2234
  680MOL0     C91725   1.295   1.487   9.557 -0.1078 -0.3273 -0.8765
  680MOL0     C91726   1.385   1.363   9.610  0.6175  0.5859 -0.3710
  680MOL0     C91727   1.522   1.410   9.637 -0.5857  0.1448 -0.3054
  680MOL0     C91728   1.592   1.416   9.497 -0.2287 -0.0380 -0.6349
  680MOL0     C91729   1.731   1.431   9.532  0.3329 -0.9791  0.2318
  680MOL0     C91730   1.848   1.457   9.545 -0.6219 -0.3556 -0.4418
  680MOL0     C91731   1.059   1.598   9.410 -0.4059  0.1160  0.2160
  680MOL0     C91732   0.937   1.668   9.378 -0.7520  0.0759 -0.0658
  680MOL0     H91733   0.407   1.587   9.253  3.1916  1.3693 -0.1819
  680MOL0     H91734   0.204   1.719   9.182  2.2696 -2.6153 -0.6921
  680MOL0     H91735  -0.017   1.903   9.513  2.2893 -0.8582 -0.5872
  680MOL0     H91736   0.062   2.048   9.437 -0.7237  0.8108 -1.9974
  680MOL0     H91737  -0.166   2.081   9.397  0.7929 -0.3511 -0.5361
  680MOL0     H91738  -0.116   2.009   9.241  0.3690 -1.1794 -0.0522
  680MOL0     H91739  -0.191   1.785   9.352 -1.7079  0.8247  0.8659
  680MOL0     H91740  -0.253   1.868   9.486 -0.1722 -3.2837 -0.0134
  680MOL0     H91741  -0.402   2.012   9.323 -1.5795 -1.0096  0.9108
  680MOL0     H91742  -0.359   1.889   9.207  0.2843 -1.3779  0.2361
  680MOL0     H91743  -0.461   1.727   9.392 -2.8860 -0.6534  0.2004
  680MOL0     H91744  -0.504   1.874   9.482 -2.2326  0.2563 -0.3056
  680MOL0     H91745  -0.625   1.958   9.271  3.1710  1.1653 -1.4712
  680MOL0     H91746  -0.592   1.810   9.196  2.4237 -0.7060  1.3701
  680MOL0     H91747  -0.690   1.682   9.388 -1.1444 -0.2855  2.2874
  680MOL0     H91748  -0.720   1.839   9.468 -0.5230 -0.9230  0.0899
  680MOL0     H91749  -0.850   1.736   9.214 -2.6941  2.1889 -1.8467
  680MOL0     H91750  -0.885   1.894   9.283  0.4180  0.9029  0.1384
  680MOL0     H91751  -0.934   1.783   9.595  1.4096  2.2858 -2.8032
  680MOL0     H91752  -1.165   1.503   9.681 -1.8738  0.6992 -1.8721
  680MOL0     H91753  -1.078   1.644   9.748 -0.7875  1.9263  0.3823
  680MOL0     H91754  -1.271   1.792   9.689 -0.6139  0.3899 -0.0142
  680MOL0     H91755  -1.326   1.660   9.800 -0.2324 -0.5020 -1.4656
  680MOL0     H91756  -1.424   1.523   9.637 -0.9690  0.2333  0.3029
  680MOL0     H91757  -1.382   1.650   9.516 -3.3567  1.0443 -1.0489
  680MOL0     H91758  -1.604   1.690   9.558 -1.2465  1.8282 -0.3451
  680MOL0     H91759  -1.502   1.815   9.646 -0.1532 -0.2154  1.3293
  680MOL0     H91760  -1.750   1.874   9.612 -0.8665  2.7161  0.9563
  680MOL0     H91761  -1.923   2.025   9.574 -0.6964  1.6185 -0.5949
  680MOL0     H91762  -2.046   1.896   9.582  1.7793 -2.4938  0.6872
  680MOL0     H91763  -2.050   2.036   9.696  1.3241 -0.2823  0.4623
  680MOL0     H91764  -2.168   2.120  10.170 -1.4150  2.7241  1.9973
  680MOL0     H91765  -2.373   2.181  10.259  2.5813  0.2418 -0.2173
  680MOL0     H91766  -2.630   2.224  10.220 -2.3496  1.7397  1.8983
  680MOL0     H91767  -2.764   2.127  10.285 -0.4574  2.3454  1.8404
  680MOL0     H91768  -2.673   2.119  10.508  2.3046 -1.0174  0.3608
  680MOL0     H91769  -2.512   2.188  10.451 -0.6967 -0.6683  3.2036
  680MOL0     H91770  -2.776   2.320  10.416  0.2950 -2.2721 -2.4931
  680MOL0     H91771  -2.614   2.392  10.401  4.2375 -3.3205  1.2385
  680MOL0     H91772  -2.691   2.281  10.674 -0.3017 -0.0897 -0.7406
  680MOL0     H91773  -2.586   2.420  10.633 -2.1788  2.2866  2.0543
  680MOL0     H91774  -2.807   2.463  10.741  1.0934  0.0042  0.0747
  680MOL0     H91775  -2.882   2.399  10.596  0.2206  0.0755 -1.1002
  680MOL0     H91776  -2.683   2.647  10.623  0.8247  1.4683 -1.2124
  680MOL0     H91777  -2.747   2.600  10.472 -5.2034 -1.4000 -1.1077
  680MOL0     H91778  -2.912   2.679  10.711  5.6372  3.9924  0.6205
  680MOL0     H91779  -2.977   2.636  10.545 -0.9398 -0.3334  1.0406
  680MOL0     H91780  -2.944   2.891  10.569  1.3037  1.5408  0.8869
  680MOL0     H91781  -2.811   2.852  10.471  1.1722  1.0563 -0.3704
  680MOL0     H91782  -2.553   1.798  10.150  0.2470 -0.6598  1.5705
  680MOL0     H91783  -2.326   1.723  10.051 -1.6162 -0.8718  0.7200
  680MOL0     H91784  -1.946   1.707  10.031 -1.6363  0.9791 -0.4827
  680MOL0     H91785  -1.706   1.647   9.976 -1.0768  0.3564  1.3455
  680MOL0     H91786   0.220   1.931   9.566 -0.2329  0.5397 -0.2644
  680MOL0     H91787   0.458   1.855   9.594  2.5351  2.3453 -2.6426
  680MOL0     H91788   0.709   1.459   9.507  0.3121 -0.3842  0.7349
  680MOL0     H91789   0.915   1.343   9.577 -1.3573  1.5064  3.4156
  680MOL0     H91790   1.339   1.511   9.460  0.8022 -3.0940 -1.2388
  680MOL0     H91791   1.287   1.570   9.627 -3.0443 -1.3444  0.1453
  680MOL0     H91792   1.380   1.280   9.540  1.4075  0.5560 -0.4040
  680MOL0     H91793   1.335   1.330   9.702 -1.5191  4.4437  0.0742
  680MOL0     H91794   1.583   1.353   9.707  1.5377  2.5365 -0.0503
  680MOL0     H91795   1.522   1.508   9.687 -2.1714 -0.6432  1.3749
  680MOL0     H91796   1.557   1.500   9.437 -1.3285 -0.6223 -0.8316
  680MOL0     H91797   1.568   1.330   9.434 -0.8184 -0.0402 -0.4146
  680MOL0     H91798   1.951   1.480   9.559 -1.0205  0.4089  1.5147
  680MOL0     H91799   1.157   1.640   9.392 -0.9943  1.9493  0.9422
  680MOL0     H91800   0.942   1.758   9.318  0.8720  1.2186  1.6719
  681MOL0     O91801   1.418   1.523   4.501  0.0369  0.3029  0.7240
  681MOL0     C91802   1.457   1.434   4.581 -0.6579  0.5124  0.4843
  681MOL0     O91803   1.383   1.340   4.641 -0.2927 -0.1294  0.0686
  681MOL0     C91804   1.243   1.337   4.651  0.0985 -0.6113 -0.6529
  681MOL0     C91805   1.193   1.251   4.744 -0.4602  0.0948  0.2515
  681MOL0     C91806   1.055   1.247   4.770 -0.3434  0.8942 -0.3846
  681MOL0     C91807   0.967   1.338   4.718 -0.2347 -0.2437  0.0268
  681MOL0     O91808   0.844   1.352   4.775 -0.2318 -0.6012 -0.3849
  681MOL0     C91809   0.736   1.411   4.699  0.5410 -0.7104 -0.3737
  681MOL0     C91810   0.610   1.388   4.775 -0.0179  0.3290  0.7089
  681MOL0     C91811   0.501   1.501   4.756 -0.1005 -0.2052  0.2172
  681MOL0     C91812   0.369   1.457   4.831  0.0194  0.1876  0.0229
  681MOL0     C91813   0.275   1.577   4.838  0.1218 -0.5324  0.5760
  681MOL0     C91814   0.153   1.548   4.919  0.3312  0.1004 -0.4856
  681MOL0     C91815   0.039   1.489   4.850 -0.4670  1.2560  0.0140
  681MOL0     C91816  -0.017   1.588   4.742  0.1746 -0.5616 -0.1626
  681MOL0     N91817  -0.144   1.546   4.689 -0.0157 -0.4124 -0.0176
  681MOL0     C91818  -0.158   1.460   4.583  0.4684 -0.5867 -0.7066
  681MOL0     C91819  -0.289   1.442   4.572 -0.6064 -0.6514 -0.2606
  681MOL0     C91820  -0.362   1.357   4.481 -1.4682 -0.1747  0.2919
  681MOL0     C91821  -0.495   1.418   4.436  0.2507 -0.3254 -0.3225
  681MOL0     C91822  -0.540   1.331   4.329  0.3223  0.8899 -0.2230
  681MOL0     C91823  -0.636   1.405   4.240 -0.3685 -0.4461  0.3267
  681MOL0     O91824  -0.753   1.449   4.311  0.3176 -0.8703 -0.3785
  681MOL0     C91825  -0.863   1.490   4.241 -0.3588 -0.2558  0.2852
  681MOL0     C91826  -0.873   1.519   4.101 -0.4544 -0.5046  0.0959
  681MOL0     C91827  -0.998   1.552   4.045  1.0537  0.7162  0.0211
  681MOL0     C91828  -0.995   1.576   3.888  0.4238  0.3397  0.3848
  681MOL0     C91829  -1.111   1.576   4.126  0.0474 -0.0688 -0.0406
  681MOL0     C91830  -1.248   1.620   4.078  0.5769  0.6606 -0.9754
  681MOL0     O91831  -1.330   1.669   4.179  0.2273 -0.8353  0.5582
  681MOL0     C91832  -1.461   1.682   4.134  0.1086 -0.3008  1.0314
  681MOL0     C91833  -1.508   1.809   4.164 -0.9358 -0.6557  0.4645
  681MOL0     C91834  -1.641   1.842   4.131 -0.3413 -0.4126 -0.2872
  681MOL0     C91835  -1.719   1.742   4.075  0.3872 -0.8453 -0.5930
  681MOL0     O91836  -1.857   1.759   4.041  0.3343 -0.4025  0.2457
  681MOL0     C91837  -1.889   1.883   3.974 -0.9427 -0.1659  0.6924
  681MOL0     C91838  -2.038   1.900   3.962  0.0274 -0.0068 -0.5152
  681MOL0     C91839  -2.095   1.796   3.869 -1.2557  0.2743 -0.1762
  681MOL0     C91840  -2.235   1.825   3.834 -0.0240 -0.3547 -0.4195
  681MOL0     C91841  -2.272   1.972   3.783  0.0706 -0.0476  0.5318
  681MOL0     C91842  -2.414   2.013   3.740 -0.7418 -0.0746 -0.1707
  681MOL0     C91843  -2.421   2.161   3.705 -0.0082 -0.0573 -0.5130
  681MOL0     C91844  -2.539   2.177   3.604 -0.2394  0.3523 -0.1305
  681MOL0    Cl91845  -2.596   2.351   3.593 -0.0055  0.1053 -0.4630
  681MOL0     C91846  -1.681   1.609   4.059 -0.2469  0.4427  0.7024
  681MOL0     C91847  -1.550   1.577   4.095 -0.5603 -0.5920  0.1587
  681MOL0     O91848  -1.281   1.602   3.960  0.3385  0.1645  0.7702
  681MOL0     C91849  -1.096   1.563   4.263 -0.0633 -0.1736 -0.4296
  681MOL0     C91850  -0.979   1.514   4.318 -0.7753  0.5275 -0.0161
  681MOL0     N91851  -0.353   1.515   4.666 -0.1717 -0.6386  0.5914
  681MOL0     N91852  -0.267   1.583   4.736  0.3860  0.1989 -1.2851
  681MOL0     C91853   1.020   1.427   4.623 -0.1408 -0.1438  0.6160
  681MOL0     C91854   1.150   1.423   4.585  0.4819  0.6601  0.0402
  681MOL0     C91855   1.605   1.422   4.603 -1.3140 -0.7193 -0.3822
  681MOL0     C91856   1.701   1.489   4.536 -0.9125 -0.6673  0.2593
  681MOL0     C91857   1.835   1.480   4.576 -0.2592  0.0765 -0.3564
  681MOL0     C91858   1.869   1.400   4.679 -0.4872  0.0214 -0.7798
  681MOL0     O91859   2.006   1.379   4.719  0.0126 -0.5181  0.3350
  681MOL0     C91860   2.103   1.481   4.704  0.3569 -0.3040 -0.2413
  681MOL0     C91861   2.190   1.474   4.578  0.0032 -0.0365 -0.7493
  681MOL0     C91862   2.307   1.576   4.592  0.1769  0.6541  0.3018
  681MOL0     C91863   2.429   1.516   4.660  0.6219  0.2137  0.3292
  681MOL0     C91864   2.542   1.616   4.657  0.5279  0.0103 -0.1149
  681MOL0     C91865   2.634   1.699   4.650 -0.2151  0.2992 -0.5138
  681MOL0     C91866   1.774   1.330   4.748  0.0660  0.3627 -0.2686
  681MOL0     C91867   1.644   1.340   4.714  0.5233 -0.6083 -0.3614
  681MOL0     H91868   1.249   1.169   4.789 -0.8682  0.1608  0.9015
  681MOL0     H91869   1.021   1.167   4.834 -1.3508 -0.1975 -2.1877
  681MOL0     H91870   0.752   1.519   4.700 -1.2560 -0.4193 -0.3914
  681MOL0     H91871   0.734   1.368   4.598  0.9328  0.5830 -0.9553
  681MOL0     H91872   0.564   1.294   4.743  1.5190  0.3155 -1.7795
  681MOL0     H91873   0.639   1.384   4.880  0.1449  3.9914  0.9307
  681MOL0     H91874   0.530   1.600   4.793  0.1887 -0.0214 -0.4918
  681MOL0     H91875   0.485   1.509   4.648  1.6925  0.7816 -0.0215
  681MOL0     H91876   0.329   1.359   4.802 -2.4594  0.7185  1.3491
  681MOL0     H91877   0.404   1.431   4.932  1.4302 -0.0163 -0.5015
  681MOL0     H91878   0.327   1.654   4.896 -0.7937  0.7612 -0.2587
  681MOL0     H91879   0.265   1.613   4.735  2.1327 -1.3446  0.0527
  681MOL0     H91880   0.183   1.494   5.009  3.1542  3.3118  0.6974
  681MOL0     H91881   0.114   1.641   4.961 -2.6711 -1.6140  0.8599
  681MOL0     H91882   0.067   1.389   4.815 -2.1689  0.3156  1.1927
  681MOL0     H91883  -0.030   1.473   4.934  1.5034  2.1045  1.8929
  681MOL0     H91884   0.059   1.599   4.664 -0.7967  1.1637 -0.8970
  681MOL0     H91885  -0.030   1.689   4.781  2.5987 -1.1096  2.4074
  681MOL0     H91886  -0.068   1.423   4.534  0.8055 -1.5362  0.5728
  681MOL0     H91887  -0.296   1.348   4.394 -2.2568 -1.5916 -0.1931
  681MOL0     H91888  -0.369   1.260   4.531  2.3908  0.4233  2.3618
  681MOL0     H91889  -0.484   1.521   4.400 -2.3906  0.4359  0.8275
  681MOL0     H91890  -0.568   1.425   4.517  0.3454  4.3257 -0.3402
  681MOL0     H91891  -0.584   1.241   4.372  3.8824 -0.6728  0.4943
  681MOL0     H91892  -0.459   1.295   4.265  0.2925 -1.7018  1.0680
  681MOL0     H91893  -0.656   1.336   4.157 -1.0863  2.0711 -1.7324
  681MOL0     H91894  -0.593   1.494   4.194 -0.1018 -1.3554 -1.2974
  681MOL0     H91895  -0.782   1.514   4.042 -0.1709  1.9690  0.2371
  681MOL0     H91896  -0.892   1.570   3.852  0.3690 -0.6464  0.3619
  681MOL0     H91897  -1.056   1.500   3.840  1.7602 -0.5510  0.0382
  681MOL0     H91898  -1.033   1.676   3.863 -1.2496 -0.6194 -1.1993
  681MOL0     H91899  -1.440   1.882   4.205  2.3332 -2.8306 -0.6586
  681MOL0     H91900  -1.682   1.938   4.162  1.6971  1.0132 -1.7028
  681MOL0     H91901  -1.853   1.959   4.045 -3.1159  1.6044  0.0161
  681MOL0     H91902  -1.838   1.899   3.879 -2.9403 -1.1418 -0.6061
  681MOL0     H91903  -2.072   1.877   4.063  1.2110 -1.6185 -0.4312
  681MOL0     H91904  -2.056   2.004   3.934 -3.6960 -0.0373  1.2367
  681MOL0     H91905  -2.083   1.694   3.908  2.3020  1.9404  3.7855
  681MOL0     H91906  -2.040   1.813   3.776 -0.9891  1.5863  0.2054
  681MOL0     H91907  -2.255   1.756   3.752 -1.2330 -1.4005  0.7018
  681MOL0     H91908  -2.296   1.797   3.920  0.3526  0.0544 -0.0116
  681MOL0     H91909  -2.206   1.989   3.697 -0.8297  0.1135 -0.1412
  681MOL0     H91910  -2.243   2.051   3.854  1.4365  0.1904 -0.2437
  681MOL0     H91911  -2.434   1.953   3.650 -1.1421  1.4172 -1.1183
  681MOL0     H91912  -2.475   1.991   3.827  0.9489  1.1392  1.4061
  681MOL0     H91913  -2.332   2.206   3.660 -0.6514  2.5555  0.5739
  681MOL0     H91914  -2.442   2.210   3.801  1.2779 -1.2687  0.4156
  681MOL0     H91915  -2.623   2.126   3.654  0.5220  0.1363  0.9741
  681MOL0     H91916  -2.515   2.135   3.506  0.3808  0.3441  0.0232
  681MOL0     H91917  -1.745   1.530   4.021  0.9815 -0.2026 -0.1232
  681MOL0     H91918  -1.514   1.476   4.079 -0.4946 -0.3389 -1.3790
  681MOL0     H91919  -1.184   1.574   4.325  1.5782 -0.0827  2.0418
  681MOL0     H91920  -0.974   1.492   4.424 -1.6726 -4.2737 -0.7550
  681MOL0     H91921   0.953   1.499   4.576 -0.3927 -2.3869 -2.7979
  681MOL0     H91922   1.175   1.490   4.503 -1.0481 -4.3631 -5.2157
  681MOL0     H91923   1.676   1.551   4.450  1.1291 -1.7642 -1.2078
  681MOL0     H91924   1.904   1.532   4.510 -1.0134 -0.0262 -1.2484
  681MOL0     H91925   2.056   1.579   4.714 -1.0615 -1.0813  1.1624
  681MOL0     H91926   2.164   1.458   4.793  0.1840  4.6962  1.4650
  681MOL0     H91927   2.132   1.499   4.489 -3.3698  1.5739  1.6741
  681MOL0     H91928   2.225   1.373   4.560 -1.2776 -0.8908  1.2006
  681MOL0     H91929   2.272   1.660   4.653 -1.1371 -1.9250  3.4136
  681MOL0     H91930   2.336   1.613   4.493 -0.1564  2.9815  1.0259
  681MOL0     H91931   2.457   1.420   4.616  3.0288  0.2192  1.6485
  681MOL0     H91932   2.408   1.484   4.762  1.1143 -0.2760  0.2844
  681MOL0     H91933   2.720   1.762   4.645  0.4333 -0.1216  2.9000
  681MOL0     H91934   1.800   1.269   4.834 -1.2019 -1.3210 -1.0276
  681MOL0     H91935   1.562   1.299   4.772  1.0115 -0.5387  0.4012
  682MOL0     O91936  11.103   7.666   2.852  0.1832  0.0055 -1.0189
  682MOL0     C91937  11.062   7.665   2.973  0.1728  0.4195 -1.5515
  682MOL0     O91938  10.931   7.685   3.006 -0.0170  0.4686  0.3289
  682MOL0     C91939  10.850   7.741   2.908 -0.2440 -0.7534  0.3079
  682MOL0     C91940  10.720   7.688   2.893 -0.8531  0.8193 -0.4474
  682MOL0     C91941  10.634   7.750   2.797 -0.3646  0.1611  0.3000
  682MOL0     C91942  10.672   7.862   2.720 -0.6165 -0.4881  0.3287
  682MOL0     O91943  10.596   7.905   2.612 -0.2290  0.7546 -0.7321
  682MOL0     C91944  10.459   7.945   2.611 -0.6265 -0.5539 -0.4518
  682MOL0     C91945  10.448   8.091   2.582  0.2772 -0.1715  0.1258
  682MOL0     C91946  10.301   8.132   2.572 -0.3148 -0.1852  0.5318
  682MOL0     C91947  10.224   8.085   2.442 -0.8591 -0.0328  0.0829
  682MOL0     C91948  10.077   8.118   2.451  1.2354 -0.5079 -0.0430
  682MOL0     C91949  10.050   8.270   2.473  0.4501 -0.8633  0.3655
  682MOL0     C91950   9.904   8.301   2.448 -0.5069 -0.1405  0.9795
  682MOL0     C91951   9.876   8.454   2.470  0.0290  0.0589 -0.4858
  682MOL0     N91952   9.846   8.484   2.608 -0.3967  0.3476 -0.2541
  682MOL0     C91953   9.944   8.518   2.697  0.0435  0.0736 -0.3537
  682MOL0     C91954   9.878   8.532   2.812 -0.8226  0.5711 -0.1969
  682MOL0     C91955   9.931   8.586   2.947 -0.6686  0.4080  0.8726
  682MOL0     C91956   9.955   8.733   2.952  0.5521 -0.4178 -0.2420
  682MOL0     C91957   9.844   8.833   2.983  0.4067 -0.3293  0.7302
  682MOL0     C91958   9.719   8.813   2.886 -0.2639 -1.2353  0.3869
  682MOL0     O91959   9.633   8.927   2.900 -0.0663 -0.2802  0.6251
  682MOL0     C91960   9.511   8.909   2.846  0.4402  0.7434 -0.5698
  682MOL0     C91961   9.439   8.783   2.836  0.1470  0.5883  0.2489
  682MOL0     C91962   9.318   8.772   2.769  0.1678  0.2141 -0.8652
  682MOL0     C91963   9.244   8.641   2.781 -0.2966  0.2554  0.6685
  682MOL0     C91964   9.253   8.894   2.718 -0.5023 -0.6671 -0.3071
  682MOL0     C91965   9.118   8.909   2.674  0.4401  0.7736 -0.0657
  682MOL0     O91966   9.102   8.908   2.540 -0.4078 -0.3382 -0.1115
  682MOL0     C91967   8.986   8.852   2.498 -0.0933  0.1378 -0.7085
  682MOL0     C91968   8.989   8.735   2.421 -0.3443 -0.6277 -0.2436
  682MOL0     C91969   8.872   8.686   2.371  0.1103  0.3339  0.4494
  682MOL0     C91970   8.753   8.749   2.389 -0.1745 -0.2788  0.4741
  682MOL0     O91971   8.648   8.698   2.314 -0.2836  0.8126  0.6417
  682MOL0     C91972   8.636   8.733   2.176 -0.0624  0.0013 -0.7296
  682MOL0     C91973   8.487   8.774   2.164 -1.1914 -0.1932 -0.1331
  682MOL0     C91974   8.460   8.795   2.019  0.0663  0.7383  1.5112
  682MOL0     C91975   8.313   8.815   2.012  0.2962 -0.0540  0.2684
  682MOL0     C91976   8.263   8.839   1.874  0.0167 -0.0469 -0.2274
  682MOL0     C91977   8.118   8.907   1.875 -0.7851  0.7359 -0.1711
  682MOL0     C91978   8.025   8.830   1.772 -0.7670 -0.2476  0.9932
  682MOL0     C91979   7.892   8.908   1.764  0.0850  0.0598  0.5080
  682MOL0    Cl91980   7.781   8.820   1.657 -0.6171  0.0448 -0.0594
  682MOL0     C91981   8.745   8.860   2.472  0.2565  0.3613  0.2357
  682MOL0     C91982   8.865   8.925   2.520  0.1919  0.6973  0.6915
  682MOL0     O91983   9.033   8.939   2.754  0.1982 -0.0285 -0.3741
  682MOL0     C91984   9.319   9.020   2.739  0.9586  0.6649  0.4120
  682MOL0     C91985   9.449   9.030   2.796  0.2949  0.6339  0.3936
  682MOL0     N91986   9.745   8.507   2.791  0.0309 -0.4449 -0.0966
  682MOL0     N91987   9.724   8.485   2.663  0.1419  1.1469  0.1134
  682MOL0     C91988  10.796   7.915   2.731 -0.9919  0.8480 -1.0130
  682MOL0     C91989  10.884   7.854   2.832  0.4729 -0.6714  0.4154
  682MOL0     C91990  11.155   7.606   3.076  0.4527  0.1793  0.6143
  682MOL0     C91991  11.134   7.623   3.213  0.2891  0.7111  0.4972
  682MOL0     C91992  11.225   7.573   3.312 -0.4325  0.2977  0.7800
  682MOL0     C91993  11.350   7.523   3.273  0.0267  1.4661 -0.5528
  682MOL0     O91994  11.457   7.497   3.355  0.5806 -0.0316 -0.2929
  682MOL0     C91995  11.424   7.466   3.489 -0.6168  0.3210  0.2212
  682MOL0     C91996  11.548   7.419   3.560 -0.7351 -0.3515  0.6998
  682MOL0     C91997  11.631   7.530   3.609  0.0546 -0.8069  1.1653
  682MOL0     C91998  11.738   7.476   3.709 -1.2530 -0.5274 -0.3204
  682MOL0     C91999  11.794   7.596   3.776 -0.6485  0.0283  0.3690
  682MOL0     C92000  11.832   7.691   3.840  0.1955  0.2505  0.0815
  682MOL0     C92001  11.373   7.514   3.137 -0.8994  0.7965 -0.1302
  682MOL0     C92002  11.276   7.552   3.039  0.2306  0.1843 -0.5171
  682MOL0     H92003  10.678   7.611   2.957  0.8279  1.0925  1.0651
  682MOL0     H92004  10.534   7.708   2.789 -0.3729  0.5263 -2.4617
  682MOL0     H92005  10.409   7.887   2.532  2.1526 -2.2288 -1.1528
  682MOL0     H92006  10.407   7.927   2.705 -1.8613 -0.4598 -1.0935
  682MOL0     H92007  10.487   8.155   2.662 -0.0473  0.1465  0.0319
  682MOL0     H92008  10.503   8.106   2.488  0.6486 -3.5158 -0.2969
  682MOL0     H92009  10.246   8.085   2.654  0.6571  1.9936  2.5427
  682MOL0     H92010  10.298   8.241   2.586  0.2799 -0.3659  2.1798
  682MOL0     H92011  10.272   8.132   2.355  0.9913  1.4662  1.8239
  682MOL0     H92012  10.228   7.977   2.428 -0.0139  0.2176 -1.9933
  682MOL0     H92013  10.028   8.092   2.357 -0.5164 -0.7823  0.8966
  682MOL0     H92014  10.036   8.048   2.525  1.2868 -1.5500 -0.9799
  682MOL0     H92015  10.071   8.303   2.575  0.3534  0.2351  0.0467
  682MOL0     H92016  10.113   8.329   2.405  1.8097  0.4131  2.6048
  682MOL0     H92017   9.877   8.279   2.345 -0.0588 -0.0147  0.8295
  682MOL0     H92018   9.838   8.246   2.516 -0.5851  0.9221  1.8045
  682MOL0     H92019   9.790   8.487   2.411 -1.0510  0.1839  1.0801
  682MOL0     H92020   9.961   8.516   2.441 -0.2841  2.6670  3.4131
  682MOL0     H92021  10.050   8.539   2.683 -0.1606  0.9846 -0.5783
  682MOL0     H92022   9.857   8.555   3.021 -0.5722 -3.4982 -0.4795
  682MOL0     H92023  10.024   8.533   2.970 -0.2469  0.7916  0.0760
  682MOL0     H92024  10.004   8.759   2.858 -0.8375 -1.0749 -1.1805
  682MOL0     H92025  10.023   8.763   3.033 -0.0348  0.7497 -0.1519
  682MOL0     H92026   9.881   8.934   2.967 -1.1035  0.0231 -0.9033
  682MOL0     H92027   9.805   8.829   3.085  0.4674  0.1515  0.7726
  682MOL0     H92028   9.661   8.728   2.924 -2.6841  0.5550  0.9689
  682MOL0     H92029   9.735   8.796   2.779 -0.2112  0.2214  0.1402
  682MOL0     H92030   9.474   8.695   2.888 -1.7815 -0.1639  0.3745
  682MOL0     H92031   9.195   8.645   2.878 -1.4336 -1.6134  0.2285
  682MOL0     H92032   9.169   8.644   2.700 -1.5459  3.1140  1.7802
  682MOL0     H92033   9.308   8.553   2.783 -0.9509 -0.2690 -0.3180
  682MOL0     H92034   9.079   8.676   2.405 -0.0515  0.3239 -2.5773
  682MOL0     H92035   8.877   8.586   2.330  0.2433  0.9878 -1.2410
  682MOL0     H92036   8.695   8.820   2.146 -1.0307  1.1853  0.6559
  682MOL0     H92037   8.676   8.651   2.116  1.7132  0.7513 -0.6340
  682MOL0     H92038   8.419   8.699   2.205  2.1314 -3.7686 -0.5709
  682MOL0     H92039   8.468   8.869   2.216 -0.6662 -0.8570  1.3386
  682MOL0     H92040   8.481   8.698   1.972 -0.7689 -0.6922  3.9054
  682MOL0     H92041   8.520   8.880   1.984  0.5698  0.9528  2.8421
  682MOL0     H92042   8.260   8.740   2.071  3.7169 -0.0860  3.7587
  682MOL0     H92043   8.296   8.912   2.060 -3.4120  1.1981 -3.0002
  682MOL0     H92044   8.259   8.750   1.810  0.8047  2.6840 -4.4695
  682MOL0     H92045   8.331   8.907   1.821 -1.5677  1.5669 -0.2679
  682MOL0     H92046   8.073   8.905   1.975 -0.0718 -0.7112  0.1504
  682MOL0     H92047   8.131   9.012   1.848  1.1428  0.1580 -1.6749
  682MOL0     H92048   8.003   8.725   1.791  1.8339 -1.2037 -0.7278
  682MOL0     H92049   8.066   8.844   1.671 -0.5779  2.6597  1.3916
  682MOL0     H92050   7.897   9.004   1.712 -3.0392 -0.0822 -0.2626
  682MOL0     H92051   7.852   8.933   1.863  0.7522  1.5527  0.4245
  682MOL0     H92052   8.647   8.905   2.483 -0.9186 -2.4213  2.7689
  682MOL0     H92053   8.858   9.019   2.574 -0.2093  2.1099 -1.6778
  682MOL0     H92054   9.267   9.113   2.719 -1.8568 -0.9635 -0.4323
  682MOL0     H92055   9.506   9.121   2.814 -0.3196  1.3126 -0.9758
  682MOL0     H92056  10.824   7.992   2.659 -1.7291  0.8671 -1.2944
  682MOL0     H92057  10.983   7.895   2.850  0.5801 -1.3982  1.5551
  682MOL0     H92058  11.051   7.685   3.245 -0.0570  0.6890 -0.3194
  682MOL0     H92059  11.206   7.578   3.419  1.5090 -4.4320  1.6045
  682MOL0     H92060  11.371   7.541   3.549 -2.2401 -2.1746  2.1164
  682MOL0     H92061  11.344   7.392   3.499 -0.0572 -0.2454  0.5710
  682MOL0     H92062  11.605   7.347   3.500 -0.8173  0.3051 -0.1932
  682MOL0     H92063  11.509   7.361   3.644 -0.0311  0.5307  1.6525
  682MOL0     H92064  11.556   7.592   3.660 -2.8265 -3.1014  0.0161
  682MOL0     H92065  11.670   7.574   3.517  0.5005 -2.6542  0.4168
  682MOL0     H92066  11.823   7.433   3.655  2.0589  3.2303  1.3776
  682MOL0     H92067  11.715   7.395   3.778  1.1546 -1.6698 -0.7722
  682MOL0     H92068  11.854   7.772   3.907  0.3884  0.5911 -0.3924
  682MOL0     H92069  11.466   7.464   3.111 -0.7825  0.9233  0.0396
  682MOL0     H92070  11.294   7.549   2.932 -0.8760  0.0518 -0.7061
  683MOL0     O92071   5.966   1.157   0.802 -0.3456  0.3726 -0.4225
  683MOL0     C92072   6.008   1.106   0.699  0.4283 -0.2097 -0.4133
  683MOL0     O92073   5.937   1.099   0.585  0.4052 -0.2454 -0.3595
  683MOL0     C92074   5.815   1.158   0.582  0.0631  0.0200  0.8082
  683MOL0     C92075   5.706   1.080   0.573  0.7934  0.3584 -0.0026
  683MOL0     C92076   5.578   1.141   0.545  0.9166 -0.1162 -0.8626
  683MOL0     C92077   5.559   1.285   0.543  0.1546  0.1663  0.3458
  683MOL0     O92078   5.438   1.354   0.527 -0.2767 -0.4072 -0.7193
  683MOL0     C92079   5.320   1.276   0.548 -0.0278  0.2112  0.0069
  683MOL0     C92080   5.197   1.370   0.523  0.6199  0.1549  0.8746
  683MOL0     C92081   5.076   1.292   0.468 -0.4774  0.2398 -0.2021
  683MOL0     C92082   4.959   1.372   0.415 -0.7889 -0.3765  0.4899
  683MOL0     C92083   4.838   1.277   0.392  0.4999  0.2228 -0.3195
  683MOL0     C92084   4.706   1.341   0.355 -0.4045 -0.1650 -0.0800
  683MOL0     C92085   4.709   1.392   0.204 -0.0805  0.6390 -0.6744
  683MOL0     C92086   4.592   1.483   0.190 -0.8363  0.5341 -0.2746
  683MOL0     N92087   4.473   1.397   0.186 -0.0058 -0.8319 -0.2593
  683MOL0     C92088   4.421   1.341   0.069 -0.2106 -0.5561 -0.1509
  683MOL0     C92089   4.302   1.287   0.106 -0.0104 -0.1456 -0.6608
  683MOL0     C92090   4.206   1.238  -0.001  0.5701  0.1217 -0.3879
  683MOL0     C92091   4.065   1.211   0.051 -0.5154 -0.3543 -0.0788
  683MOL0     C92092   3.976   1.340   0.071  0.3441 -0.4636  0.1254
  683MOL0     C92093   3.834   1.295   0.107  0.1406  0.7968  0.0823
  683MOL0     O92094   3.762   1.415   0.116 -0.4973 -1.3188  0.2341
  683MOL0     C92095   3.627   1.411   0.131  0.0020  0.5862  0.0007
  683MOL0     C92096   3.556   1.299   0.177  0.0657 -0.0156 -0.9549
  683MOL0     C92097   3.412   1.306   0.177  0.4226  0.5902 -0.5070
  683MOL0     C92098   3.350   1.175   0.211 -0.4509  0.3754 -0.6365
  683MOL0     C92099   3.337   1.422   0.148  0.0821 -0.2826 -0.3568
  683MOL0     C92100   3.190   1.436   0.105  0.0985 -0.0866 -0.2328
  683MOL0     O92101   3.146   1.566   0.073 -0.5382 -0.4173  1.3573
  683MOL0     C92102   3.016   1.592   0.085 -0.4239 -0.2676 -0.3857
  683MOL0     C92103   2.923   1.525   0.014  0.0462 -0.3802  0.5178
  683MOL0     C92104   2.793   1.560   0.029 -0.3418  0.5543  0.2201
  683MOL0     C92105   2.752   1.649   0.135  0.6165  0.0451 -0.6591
  683MOL0     O92106   2.619   1.674   0.151  0.3675 -0.1713 -0.1389
  683MOL0     C92107   2.566   1.764   0.248 -0.4483 -0.1739 -0.7425
  683MOL0     C92108   2.417   1.767   0.226  0.0716  0.5466 -0.6075
  683MOL0     C92109   2.340   1.638   0.225 -0.8131 -1.3227  0.2080
  683MOL0     C92110   2.322   1.582   0.082  0.0382 -0.1963  0.6333
  683MOL0     C92111   2.207   1.478   0.082 -0.5415  0.6576  0.1100
  683MOL0     C92112   2.192   1.419  -0.063 -0.1868 -0.2231 -0.3252
  683MOL0     C92113   2.097   1.300  -0.053  1.0194  0.0493  0.9543
  683MOL0     C92114   2.095   1.221  -0.182 -0.5993  0.2428  0.2628
  683MOL0    Cl92115   2.246   1.136  -0.216 -0.1578 -0.6124 -0.3814
  683MOL0     C92116   2.853   1.717   0.210  0.0671  1.2779 -0.4040
  683MOL0     C92117   2.991   1.686   0.180  0.4850 -0.6717  0.4409
  683MOL0     O92118   3.116   1.338   0.125 -0.6575 -0.4641 -0.3902
  683MOL0     C92119   3.413   1.535   0.115 -0.9576  0.6047 -0.5142
  683MOL0     C92120   3.559   1.523   0.102 -0.0892 -0.4154  0.0534
  683MOL0     N92121   4.291   1.300   0.243  0.3734  0.2268  0.2205
  683MOL0     N92122   4.387   1.373   0.289 -0.1788 -0.3116  0.4556
  683MOL0     C92123   5.674   1.356   0.545 -0.1809  0.2446 -0.4045
  683MOL0     C92124   5.801   1.292   0.571 -0.2000  0.7014  0.4902
  683MOL0     C92125   6.139   1.041   0.698 -0.2968 -0.1597  0.0216
  683MOL0     C92126   6.224   1.051   0.809 -0.7035 -0.3262  0.0087
  683MOL0     C92127   6.356   1.008   0.793 -0.6857  0.2561  0.0016
  683MOL0     C92128   6.411   0.942   0.674  0.4392  0.3563  0.4603
  683MOL0     O92129   6.540   0.897   0.666  0.2691 -0.8872  0.0715
  683MOL0     C92130   6.634   0.978   0.744 -0.3376 -0.0337 -0.4239
  683MOL0     C92131   6.647   1.134   0.703  0.5628  0.3221  0.0043
  683MOL0     C92132   6.765   1.211   0.772 -1.1214  0.5784 -0.9577
  683MOL0     C92133   6.793   1.351   0.710 -0.0642  0.0212 -0.0750
  683MOL0     C92134   6.670   1.434   0.692 -1.1178  0.4055 -0.4901
  683MOL0     C92135   6.565   1.499   0.684  0.0801 -0.1812 -0.2031
  683MOL0     C92136   6.319   0.923   0.576 -0.4261 -0.3690 -0.0370
  683MOL0     C92137   6.187   0.973   0.580  0.2182 -0.0045 -0.5350
  683MOL0     H92138   5.726   0.975   0.594 -0.0997  0.1981  0.0917
  683MOL0     H92139   5.495   1.074   0.532  1.5398 -0.6758 -2.1109
  683MOL0     H92140   5.316   1.197   0.472 -0.3011  0.5417 -0.3216
  683MOL0     H92141   5.307   1.234   0.648 -0.0003  0.7735  0.2498
  683MOL0     H92142   5.171   1.424   0.615  1.7974  3.9387 -0.8356
  683MOL0     H92143   5.214   1.438   0.440  0.1822 -0.1214  0.5553
  683MOL0     H92144   5.118   1.230   0.388  1.3697  1.3325 -0.1403
  683MOL0     H92145   5.039   1.232   0.552  1.7661  2.1416  2.3109
  683MOL0     H92146   4.932   1.440   0.496  1.3113 -0.6337  1.4827
  683MOL0     H92147   4.988   1.424   0.324  1.5268 -0.5578  1.0542
  683MOL0     H92148   4.863   1.196   0.322 -0.2744 -2.9287  2.7680
  683MOL0     H92149   4.823   1.231   0.490 -1.4010 -0.3136 -0.8058
  683MOL0     H92150   4.627   1.266   0.365 -2.1637  1.7595  1.3522
  683MOL0     H92151   4.679   1.421   0.424  0.0068  0.8303 -1.0314
  683MOL0     H92152   4.804   1.444   0.186  1.1055 -1.8874 -2.1367
  683MOL0     H92153   4.702   1.312   0.130  0.2229 -0.2402  0.2382
  683MOL0     H92154   4.603   1.540   0.097 -0.7651  1.1256  0.0956
  683MOL0     H92155   4.594   1.561   0.266  2.8751  0.0450  0.2992
  683MOL0     H92156   4.462   1.359  -0.030  0.4377 -0.7167  0.0799
  683MOL0     H92157   4.183   1.309  -0.082 -1.8330  0.6866  0.6895
  683MOL0     H92158   4.245   1.148  -0.050 -0.1698  1.6580 -4.1489
  683MOL0     H92159   4.064   1.148   0.140 -0.7545 -1.7550 -1.0308
  683MOL0     H92160   4.021   1.153  -0.031 -2.1106  0.5034  0.1337
  683MOL0     H92161   3.954   1.396  -0.019 -0.0985 -2.1780 -0.8775
  683MOL0     H92162   4.020   1.409   0.144  0.0348 -0.9619  0.7938
  683MOL0     H92163   3.830   1.231   0.195  1.9809  0.9512  0.3152
  683MOL0     H92164   3.797   1.237   0.022 -1.5745 -1.3417  2.1481
  683MOL0     H92165   3.598   1.210   0.224  1.0384  2.0822  2.5263
  683MOL0     H92166   3.419   1.090   0.199 -2.3092 -1.5968  1.6743
  683MOL0     H92167   3.314   1.170   0.314 -0.3942 -1.3015 -0.6642
  683MOL0     H92168   3.261   1.147   0.154 -0.8494 -1.7527  0.9128
  683MOL0     H92169   2.954   1.458  -0.066 -1.5331 -0.7796  0.2135
  683MOL0     H92170   2.718   1.512  -0.034  0.2461  0.1735 -0.2058
  683MOL0     H92171   2.582   1.732   0.351 -2.7467 -1.1604 -0.6430
  683MOL0     H92172   2.610   1.864   0.236 -0.9114 -0.1852 -3.2164
  683MOL0     H92173   2.373   1.832   0.301 -1.4356 -1.1533  0.0647
  683MOL0     H92174   2.403   1.818   0.130 -0.6017  2.4598  0.4495
  683MOL0     H92175   2.248   1.656   0.280  0.9717  0.6162  2.8301
  683MOL0     H92176   2.398   1.562   0.279  2.0459  0.9795  0.6695
  683MOL0     H92177   2.293   1.659   0.009 -0.2443 -0.6767  0.2309
  683MOL0     H92178   2.410   1.533   0.039 -1.7701 -5.0436  1.7522
  683MOL0     H92179   2.111   1.522   0.109 -0.8732  0.3757 -0.5654
  683MOL0     H92180   2.240   1.401   0.153 -0.3175  0.1753 -0.5046
  683MOL0     H92181   2.162   1.507  -0.122  1.6651 -1.2097 -2.8926
  683MOL0     H92182   2.279   1.377  -0.114 -2.2367 -2.9133 -1.9312
  683MOL0     H92183   1.991   1.327  -0.043  0.3374 -1.9753 -0.1817
  683MOL0     H92184   2.123   1.229   0.025 -0.7264 -1.0010  0.6392
  683MOL0     H92185   2.077   1.291  -0.264 -1.5187 -1.6418 -1.2513
  683MOL0     H92186   2.014   1.147  -0.185 -1.7959  1.5312 -0.5609
  683MOL0     H92187   2.821   1.794   0.280 -0.9200 -0.5209  1.2240
  683MOL0     H92188   3.059   1.737   0.247  2.6186 -0.5108 -1.7135
  683MOL0     H92189   3.370   1.628   0.081 -0.7738  1.2087  0.8473
  683MOL0     H92190   3.606   1.615   0.070 -1.1574 -0.8345 -3.0811
  683MOL0     H92191   5.679   1.463   0.527  1.7501  0.6097  1.7687
  683MOL0     H92192   5.888   1.356   0.583 -0.6930  0.9864  3.0349
  683MOL0     H92193   6.197   1.099   0.902 -0.7290  1.3310 -0.8140
  683MOL0     H92194   6.422   1.011   0.879  1.9828 -0.1188 -1.8850
  683MOL0     H92195   6.606   0.974   0.850  0.4449 -2.0828 -0.2411
  683MOL0     H92196   6.734   0.934   0.740  0.1683  0.9712  0.6611
  683MOL0     H92197   6.552   1.185   0.723 -0.0122 -1.2315  1.3555
  683MOL0     H92198   6.669   1.136   0.595  3.1812 -0.8935  0.4467
  683MOL0     H92199   6.856   1.150   0.769 -2.1841 -1.1292  0.2909
  683MOL0     H92200   6.745   1.217   0.879  0.4220  0.5770 -0.6502
  683MOL0     H92201   6.855   1.343   0.621 -0.8685  2.5788 -0.9363
  683MOL0     H92202   6.852   1.404   0.786 -0.7370 -0.0593  0.5195
  683MOL0     H92203   6.472   1.552   0.677  0.9761  1.9413  2.3717
  683MOL0     H92204   6.356   0.883   0.482 -0.3119  1.6908 -0.9178
  683MOL0     H92205   6.125   0.966   0.491 -2.2267  1.6975  0.9355
  684MOL0     O92206   4.572   3.714   7.675 -0.3451 -0.2036 -0.6291
  684MOL0     C92207   4.634   3.822   7.685  1.0301  0.2823 -0.0833
  684MOL0     O92208   4.580   3.949   7.709 -0.1931  0.2029  0.1178
  684MOL0     C92209   4.443   3.954   7.729  0.0994 -0.0520 -1.5366
  684MOL0     C92210   4.354   3.949   7.619  1.4673 -1.0458  0.1682
  684MOL0     C92211   4.220   3.946   7.635 -0.0242 -0.2680 -0.0453
  684MOL0     C92212   4.164   3.950   7.764 -0.8811 -0.9871  0.1401
  684MOL0     O92213   4.029   3.975   7.791  0.1798 -0.1900 -0.7453
  684MOL0     C92214   3.934   3.960   7.684 -0.1048 -0.1733 -0.4692
  684MOL0     C92215   3.794   3.989   7.743 -0.6469 -0.1033  0.5621
  684MOL0     C92216   3.770   3.879   7.848  0.8375 -0.4139  0.0675
  684MOL0     C92217   3.644   3.897   7.932 -0.5260 -0.3206 -0.3467
  684MOL0     C92218   3.520   3.907   7.845  0.3390 -0.0954  1.3089
  684MOL0     C92219   3.390   3.915   7.944 -1.6983 -0.1584  0.7607
  684MOL0     C92220   3.256   3.963   7.879  0.0744 -0.1587  0.3387
  684MOL0     C92221   3.132   3.907   7.950  0.3168 -0.0638  0.4630
  684MOL0     N92222   3.116   3.968   8.085 -1.3223  0.0635 -0.1564
  684MOL0     C92223   3.033   4.073   8.102  0.0515  0.0699 -0.5430
  684MOL0     C92224   3.044   4.095   8.237 -0.2234 -0.0331 -0.0291
  684MOL0     C92225   2.952   4.172   8.326 -0.3895 -0.7372 -0.1608
  684MOL0     C92226   2.943   4.324   8.291  0.4586 -0.3920  0.1735
  684MOL0     C92227   2.878   4.423   8.391  0.8306 -0.7732 -0.9758
  684MOL0     C92228   2.736   4.456   8.345  0.9254 -0.4105 -0.6148
  684MOL0     O92229   2.645   4.344   8.335  0.1267  0.1318 -1.0613
  684MOL0     C92230   2.512   4.379   8.323  0.0817  0.8175  0.3562
  684MOL0     C92231   2.473   4.506   8.276  0.6772 -0.3583  0.0778
  684MOL0     C92232   2.340   4.533   8.278 -0.1395 -0.4530  1.2451
  684MOL0     C92233   2.306   4.684   8.257  0.0530  0.1304  0.9800
  684MOL0     C92234   2.234   4.440   8.300 -0.5937 -0.7352  0.5013
  684MOL0     C92235   2.088   4.466   8.292 -0.0804 -0.4661 -0.1070
  684MOL0     O92236   2.004   4.400   8.374  0.6273 -0.5631 -0.2329
  684MOL0     C92237   1.874   4.438   8.355 -0.6190  0.3240  0.6783
  684MOL0     C92238   1.794   4.337   8.308  0.2102  0.1765 -0.1520
  684MOL0     C92239   1.659   4.362   8.283  0.2757  0.2737 -0.2579
  684MOL0     C92240   1.604   4.487   8.319 -0.2658 -0.6031  0.0782
  684MOL0     O92241   1.474   4.523   8.309  0.3050  0.5238 -0.0681
  684MOL0     C92242   1.385   4.429   8.237  0.2067  0.1431  0.3239
  684MOL0     C92243   1.248   4.482   8.245  0.0722  0.1522 -0.4327
  684MOL0     C92244   1.154   4.382   8.175  0.3710 -0.3718  0.1765
  684MOL0     C92245   1.020   4.459   8.129  0.3856  0.1765 -0.1427
  684MOL0     C92246   0.929   4.353   8.071 -0.7271 -0.5676  0.0051
  684MOL0     C92247   0.800   4.423   8.024  1.0610  0.5271 -0.4674
  684MOL0     C92248   0.701   4.315   7.986 -0.0028 -0.2734  1.0789
  684MOL0     C92249   0.578   4.370   7.914 -0.5775  0.9131  0.9711
  684MOL0    Cl92250   0.462   4.242   7.902  0.4646  0.3475 -0.6526
  684MOL0     C92251   1.690   4.589   8.365 -0.3663  0.3055 -0.7899
  684MOL0     C92252   1.828   4.568   8.383  0.7399  0.1739 -0.3523
  684MOL0     O92253   2.059   4.541   8.200 -0.9234  0.4164  0.0832
  684MOL0     C92254   2.272   4.315   8.340  0.7645  0.1848  0.3491
  684MOL0     C92255   2.411   4.282   8.347 -0.2966  0.4841 -1.0346
  684MOL0     N92256   3.138   4.006   8.292 -0.2207 -0.7547  0.4882
  684MOL0     N92257   3.188   3.938   8.195 -0.5912 -0.4993  0.1626
  684MOL0     C92258   4.257   3.954   7.883  0.5978  0.2245 -0.1772
  684MOL0     C92259   4.397   3.953   7.860  0.0590 -0.9571  0.0516
  684MOL0     C92260   4.774   3.807   7.664 -0.3953  0.8700  0.3191
  684MOL0     C92261   4.851   3.923   7.644  0.2058  0.1949  0.3325
  684MOL0     C92262   4.984   3.902   7.620 -0.5488  0.2450  0.2910
  684MOL0     C92263   5.040   3.776   7.599 -0.0212  0.2288 -0.5943
  684MOL0     O92264   5.171   3.774   7.563  0.2664 -0.9377  0.6116
  684MOL0     C92265   5.218   3.675   7.469 -0.0482 -0.4799 -1.0613
  684MOL0     C92266   5.353   3.728   7.425  0.5079 -0.1052  0.5711
  684MOL0     C92267   5.463   3.716   7.527  0.2907  0.3105  1.2435
  684MOL0     C92268   5.432   3.793   7.650 -0.3802  0.4486 -0.4090
  684MOL0     C92269   5.558   3.800   7.727  1.1248 -0.1585  0.1187
  684MOL0     C92270   5.648   3.788   7.794  0.3531 -0.2132 -0.5941
  684MOL0     C92271   4.959   3.662   7.596  0.0433  0.6652  0.2750
  684MOL0     C92272   4.829   3.680   7.634 -0.4750 -1.0597 -0.6332
  684MOL0     H92273   4.396   3.957   7.519 -1.2724  0.9478 -0.9686
  684MOL0     H92274   4.169   3.951   7.540 -0.5819 -2.3769  0.1017
  684MOL0     H92275   3.956   4.031   7.604 -0.4103  0.7616  0.2560
  684MOL0     H92276   3.941   3.856   7.650  0.1192 -1.0922  2.2052
  684MOL0     H92277   3.791   4.084   7.797 -2.3967 -1.0469  2.2788
  684MOL0     H92278   3.711   4.000   7.673 -0.4002 -0.9786  0.1206
  684MOL0     H92279   3.773   3.775   7.813  1.4882 -1.1483  2.1702
  684MOL0     H92280   3.849   3.891   7.923 -0.9008  1.6407  1.7115
  684MOL0     H92281   3.635   3.813   8.001  3.4378  1.3852  2.6137
  684MOL0     H92282   3.657   3.985   7.996 -2.4458  0.5268 -1.0528
  684MOL0     H92283   3.524   3.993   7.778  1.4285 -3.1587 -3.0570
  684MOL0     H92284   3.503   3.819   7.782  0.9978  0.2230  0.6696
  684MOL0     H92285   3.379   3.813   7.982 -0.7082 -0.8536 -0.6972
  684MOL0     H92286   3.424   3.976   8.027 -2.4738 -0.9073  1.6478
  684MOL0     H92287   3.245   4.072   7.881 -1.3027 -0.2617 -0.8166
  684MOL0     H92288   3.258   3.933   7.774  1.6383 -2.4896  0.9440
  684MOL0     H92289   3.131   3.798   7.952 -1.9429 -0.3034 -3.5278
  684MOL0     H92290   3.035   3.920   7.901 -0.1178 -0.1257  1.2933
  684MOL0     H92291   2.967   4.122   8.032 -1.5766 -2.2470 -0.7538
  684MOL0     H92292   2.850   4.136   8.310 -0.3461 -0.0384 -2.4850
  684MOL0     H92293   2.986   4.169   8.430 -3.6715 -1.8564  1.0012
  684MOL0     H92294   2.900   4.333   8.191 -0.1368 -1.2602  0.3388
  684MOL0     H92295   3.043   4.357   8.262 -0.7477  1.4321 -2.3126
  684MOL0     H92296   2.938   4.514   8.394  1.2180 -1.0381 -0.4946
  684MOL0     H92297   2.880   4.386   8.494  0.5228  1.4029 -0.1310
  684MOL0     H92298   2.728   4.511   8.251 -0.3804 -0.8747 -0.7925
  684MOL0     H92299   2.700   4.530   8.417 -0.4738  1.3848 -3.0111
  684MOL0     H92300   2.536   4.592   8.256 -1.8859  1.3038 -1.4457
  684MOL0     H92301   2.400   4.740   8.268 -0.3096  1.1507 -0.6749
  684MOL0     H92302   2.275   4.697   8.153  3.0817 -1.0737 -0.1950
  684MOL0     H92303   2.243   4.725   8.337 -0.2970  1.4807  0.0546
  684MOL0     H92304   1.830   4.235   8.300 -0.1163 -0.1160  1.7271
  684MOL0     H92305   1.596   4.283   8.242 -1.6664  1.5673  0.0894
  684MOL0     H92306   1.422   4.419   8.135  1.4872  1.5782  0.6050
  684MOL0     H92307   1.378   4.331   8.284  1.6020  0.7769  1.9652
  684MOL0     H92308   1.222   4.505   8.349  2.7665  2.2261 -0.1120
  684MOL0     H92309   1.235   4.576   8.190  1.2679 -0.1642 -1.2857
  684MOL0     H92310   1.124   4.302   8.243  2.4174 -2.7537 -1.5543
  684MOL0     H92311   1.196   4.330   8.089  1.2868  0.2056  0.2633
  684MOL0     H92312   0.971   4.501   8.218  2.6025 -0.3624  1.4169
  684MOL0     H92313   1.050   4.535   8.056 -0.0729  2.2487  1.7267
  684MOL0     H92314   0.906   4.282   8.151 -0.0165 -3.0104 -1.8736
  684MOL0     H92315   0.978   4.297   7.992  1.0075 -1.0218  1.3333
  684MOL0     H92316   0.757   4.480   8.107  2.1472  1.5298 -0.5631
  684MOL0     H92317   0.818   4.492   7.941  1.4532  1.1586  0.1267
  684MOL0     H92318   0.684   4.242   8.065  1.1448 -0.5279  1.1189
  684MOL0     H92319   0.750   4.249   7.913 -3.2422 -1.4252 -0.2213
  684MOL0     H92320   0.613   4.390   7.813 -2.0345 -0.0591  0.2408
  684MOL0     H92321   0.534   4.455   7.966 -0.1669  1.2682  0.7532
  684MOL0     H92322   1.646   4.681   8.403 -1.2878  0.4584 -2.1744
  684MOL0     H92323   1.890   4.642   8.433 -0.3406  0.3855  0.7327
  684MOL0     H92324   2.208   4.232   8.370 -0.0055  1.2313  1.7299
  684MOL0     H92325   2.428   4.179   8.377 -1.0864  0.9382  1.1049
  684MOL0     H92326   4.196   3.943   7.971 -0.5599 -1.9362 -1.1549
  684MOL0     H92327   4.465   3.952   7.945  0.9650  2.6794 -0.4959
  684MOL0     H92328   4.818   4.025   7.663 -1.4417 -0.3473  0.4761
  684MOL0     H92329   5.053   3.987   7.613  0.1609 -0.4542 -2.5494
  684MOL0     H92330   5.224   3.578   7.519 -0.8749  1.4123  3.1795
  684MOL0     H92331   5.163   3.661   7.375 -2.5995 -0.5021  0.3393
  684MOL0     H92332   5.328   3.832   7.399 -0.9031 -0.1073  1.7936
  684MOL0     H92333   5.383   3.665   7.341 -0.6829  0.2092 -0.1075
  684MOL0     H92334   5.559   3.747   7.483 -0.0278  0.9748  1.0082
  684MOL0     H92335   5.488   3.611   7.550  1.4217  0.1030 -0.7379
  684MOL0     H92336   5.369   3.750   7.728  2.8940  1.2610  2.9756
  684MOL0     H92337   5.402   3.894   7.622 -0.2268  0.0375 -2.2050
  684MOL0     H92338   5.736   3.790   7.855 -1.2825 -2.0302  2.0476
  684MOL0     H92339   4.988   3.559   7.576 -2.8990 -0.2044  0.0326
  684MOL0     H92340   4.765   3.593   7.644 -1.0205 -0.5455  0.6929
  685MOL0     O92341   6.397   2.106   2.494  0.0356  0.1048 -0.0379
  685MOL0     C92342   6.387   2.030   2.585  0.2674  0.7152 -0.0632
  685MOL0     O92343   6.274   2.002   2.656 -0.1925  0.2114  0.2789
  685MOL0     C92344   6.163   2.081   2.634 -0.1809  0.6154 -0.3216
  685MOL0     C92345   6.173   2.220   2.641  0.3944 -0.8169  0.6087
  685MOL0     C92346   6.055   2.289   2.629 -0.0236  0.0162  0.5368
  685MOL0     C92347   5.927   2.229   2.617 -0.0916 -1.1159  0.1681
  685MOL0     O92348   5.802   2.288   2.609  0.4797  0.0135 -0.3596
  685MOL0     C92349   5.793   2.426   2.628 -0.1627  0.6701 -0.0288
  685MOL0     C92350   5.809   2.503   2.505 -0.4556 -0.2437 -0.5563
  685MOL0     C92351   5.728   2.453   2.386 -0.5301 -0.1080 -0.0707
  685MOL0     C92352   5.580   2.467   2.416  0.5680 -0.3849  0.5756
  685MOL0     C92353   5.499   2.450   2.296 -0.4778  0.3546 -0.4377
  685MOL0     C92354   5.353   2.472   2.329  0.1870  0.7888 -0.0444
  685MOL0     C92355   5.273   2.432   2.211 -1.0849  0.0883  0.5529
  685MOL0     C92356   5.126   2.453   2.246  0.2934  0.3276 -0.0259
  685MOL0     N92357   5.069   2.384   2.363 -1.1836 -0.6010 -0.3144
  685MOL0     C92358   5.032   2.252   2.363 -0.3714 -0.6392  0.1024
  685MOL0     C92359   4.999   2.230   2.491  0.2938  0.3093  0.5857
  685MOL0     C92360   5.000   2.093   2.541 -0.1832 -0.9051 -0.8421
  685MOL0     C92361   4.970   2.075   2.687  0.9767  0.4692 -0.7583
  685MOL0     C92362   5.101   2.078   2.777 -0.5056  0.3493  0.1988
  685MOL0     C92363   5.159   1.937   2.778  0.6330  0.2038  0.3083
  685MOL0     O92364   5.269   1.924   2.872 -0.2133  0.6538  0.2370
  685MOL0     C92365   5.378   1.860   2.825  0.1129  0.0141  0.2863
  685MOL0     C92366   5.395   1.719   2.828 -0.5934 -0.5948 -0.8664
  685MOL0     C92367   5.510   1.655   2.794  1.1602  0.6991  0.8349
  685MOL0     C92368   5.518   1.503   2.791  0.2112 -0.1176 -0.2986
  685MOL0     C92369   5.619   1.734   2.751 -0.4064 -0.2401 -0.0393
  685MOL0     C92370   5.754   1.669   2.714 -0.1587 -0.2708  0.5054
  685MOL0     O92371   5.803   1.574   2.801  0.0901 -0.5110  0.1384
  685MOL0     C92372   5.935   1.540   2.792 -0.0711 -0.6395 -0.2041
  685MOL0     C92373   6.046   1.622   2.831  1.2349  0.1898 -0.3781
  685MOL0     C92374   6.173   1.566   2.849  0.3713 -0.2093 -0.5483
  685MOL0     C92375   6.198   1.431   2.815 -0.0028 -0.3641  1.2755
  685MOL0     O92376   6.327   1.385   2.835 -1.0098 -0.1578 -0.2566
  685MOL0     C92377   6.354   1.260   2.777  0.0198  0.4783  0.5838
  685MOL0     C92378   6.507   1.235   2.794 -0.2134 -0.2156 -0.2017
  685MOL0     C92379   6.559   1.238   2.928  0.5939 -0.1314  0.7186
  685MOL0     C92380   6.675   1.144   2.961  0.3632  0.1100  0.5147
  685MOL0     C92381   6.640   0.996   3.001  0.0434  0.2944 -0.1278
  685MOL0     C92382   6.763   0.905   3.020 -0.3317 -0.3818  0.7187
  685MOL0     C92383   6.826   0.931   3.156 -0.1738  0.6969  0.0265
  685MOL0     C92384   6.926   0.822   3.176 -0.8359  0.1463  0.2425
  685MOL0    Cl92385   7.089   0.860   3.086  0.5057 -0.1646  0.3918
  685MOL0     C92386   6.086   1.350   2.791  0.2949  0.3153 -0.1115
  685MOL0     C92387   5.957   1.404   2.782 -1.6927 -0.4049 -0.0377
  685MOL0     O92388   5.813   1.715   2.614  0.9595 -0.1796 -0.5680
  685MOL0     C92389   5.611   1.878   2.762  0.6563 -0.4388  0.0206
  685MOL0     C92390   5.492   1.941   2.783  0.4896  0.1689  0.3278
  685MOL0     N92391   5.004   2.348   2.556  0.0518  0.3879  0.1114
  685MOL0     N92392   5.044   2.439   2.482 -0.8052  0.1120  0.5302
  685MOL0     C92393   5.925   2.089   2.613 -0.3582 -0.6035  0.7483
  685MOL0     C92394   6.043   2.013   2.612 -0.0075 -0.6549 -0.9242
  685MOL0     C92395   6.519   1.948   2.618  0.7182 -0.5467 -0.1539
  685MOL0     C92396   6.514   1.827   2.687 -0.5595  0.0832 -0.4750
  685MOL0     C92397   6.633   1.759   2.707  0.4686  0.5795  0.1605
  685MOL0     C92398   6.759   1.813   2.683 -0.2837  0.5311  0.5704
  685MOL0     O92399   6.876   1.743   2.707  0.0127  0.8077 -0.3466
  685MOL0     C92400   6.979   1.825   2.763 -0.3608  0.1297  0.6073
  685MOL0     C92401   6.942   1.914   2.879 -0.4148  0.3833  0.0317
  685MOL0     C92402   7.060   2.004   2.928 -0.6516  0.1490  0.3273
  685MOL0     C92403   7.063   2.020   3.077  0.1402  0.3502 -0.3009
  685MOL0     C92404   6.934   2.061   3.125  0.7794  0.3749 -0.0026
  685MOL0     C92405   6.825   2.086   3.177  0.2787 -0.1203  0.9768
  685MOL0     C92406   6.762   1.935   2.624 -0.0747 -0.0746 -0.5113
  685MOL0     C92407   6.645   1.997   2.586  0.0213 -0.0731 -0.6979
  685MOL0     H92408   6.268   2.268   2.661  2.0535 -3.9652  0.8179
  685MOL0     H92409   6.057   2.397   2.634  1.7496  0.1619 -1.6779
  685MOL0     H92410   5.691   2.439   2.666 -1.3310  0.9065 -3.0273
  685MOL0     H92411   5.854   2.456   2.714 -0.0473 -1.0652  0.5411
  685MOL0     H92412   5.777   2.606   2.524  2.5212  1.2950 -2.8736
  685MOL0     H92413   5.912   2.513   2.469 -0.4014  2.7053  0.1433
  685MOL0     H92414   5.758   2.514   2.301  2.4150 -1.5556 -0.1908
  685MOL0     H92415   5.765   2.355   2.352  1.3416  0.5222  0.0191
  685MOL0     H92416   5.539   2.399   2.491 -1.0933  0.9014  0.8930
  685MOL0     H92417   5.557   2.564   2.461 -1.4889  0.9193 -2.8759
  685MOL0     H92418   5.535   2.516   2.217 -0.0642  0.5100 -0.1184
  685MOL0     H92419   5.521   2.347   2.264  0.2103  0.1501  0.6359
  685MOL0     H92420   5.321   2.408   2.411  2.1074  2.0353  1.7914
  685MOL0     H92421   5.343   2.575   2.364  0.6878  1.3506 -1.4756
  685MOL0     H92422   5.313   2.496   2.132  0.4655  0.7869  1.8232
  685MOL0     H92423   5.292   2.328   2.184  1.1018 -0.3175  3.1662
  685MOL0     H92424   5.073   2.415   2.159  0.4408 -2.5903  1.0612
  685MOL0     H92425   5.106   2.560   2.259  0.0605  0.5060 -1.7343
  685MOL0     H92426   5.056   2.182   2.283 -1.4160 -2.0555  0.9663
  685MOL0     H92427   4.933   2.034   2.477 -3.2487  2.5276 -1.1635
  685MOL0     H92428   5.102   2.058   2.526  0.2031 -0.5742  0.7689
  685MOL0     H92429   4.916   1.980   2.698  2.1250 -0.1934 -0.6627
  685MOL0     H92430   4.898   2.152   2.714  0.0609 -1.0801  1.6257
  685MOL0     H92431   5.090   2.116   2.879 -2.0459  0.2872  0.0716
  685MOL0     H92432   5.171   2.153   2.739  0.0702  0.6675  1.8091
  685MOL0     H92433   5.187   1.912   2.675 -2.1405 -0.1930 -0.4400
  685MOL0     H92434   5.075   1.878   2.816  0.6932  1.8356  3.2773
  685MOL0     H92435   5.308   1.667   2.867 -1.8250 -0.5539 -3.3761
  685MOL0     H92436   5.550   1.473   2.891 -0.1175  0.0953 -0.1285
  685MOL0     H92437   5.416   1.468   2.773 -1.0103  2.0140  1.8365
  685MOL0     H92438   5.585   1.465   2.714  1.2976  2.3146 -0.6322
  685MOL0     H92439   6.048   1.728   2.854  1.9607 -0.3414  2.3036
  685MOL0     H92440   6.252   1.637   2.872  0.7560 -0.7241 -0.2566
  685MOL0     H92441   6.304   1.180   2.832 -0.7318 -0.8530 -1.8921
  685MOL0     H92442   6.315   1.242   2.676  0.0908 -3.3214  1.1135
  685MOL0     H92443   6.540   1.142   2.747 -0.3020 -0.4332  0.1588
  685MOL0     H92444   6.553   1.316   2.737  0.6528 -0.7638 -0.3039
  685MOL0     H92445   6.470   1.224   2.990 -1.2046 -1.6558 -2.0150
  685MOL0     H92446   6.595   1.339   2.954 -1.3168  0.6492  0.4798
  685MOL0     H92447   6.739   1.135   2.873 -0.2916 -2.1182  0.1905
  685MOL0     H92448   6.732   1.179   3.047  0.7975 -0.8463  0.6315
  685MOL0     H92449   6.571   0.949   2.930 -0.0845 -1.2315  0.9590
  685MOL0     H92450   6.571   1.001   3.086 -0.3429 -0.2430 -0.4068
  685MOL0     H92451   6.726   0.803   3.007 -1.3994 -0.0829  1.2928
  685MOL0     H92452   6.833   0.930   2.940 -2.8585  0.4182 -1.3454
  685MOL0     H92453   6.748   0.913   3.230 -2.3117  0.7504 -2.0752
  685MOL0     H92454   6.870   1.030   3.168  0.0600  0.5646  0.2544
  685MOL0     H92455   6.897   0.721   3.145 -1.0460  0.0513  0.7446
  685MOL0     H92456   6.945   0.813   3.283 -3.7211 -3.3884  0.6478
  685MOL0     H92457   6.086   1.243   2.770 -0.0890  0.7873 -2.9357
  685MOL0     H92458   5.870   1.340   2.773  0.3628 -3.3974  0.3022
  685MOL0     H92459   5.699   1.937   2.740 -0.8936  1.9180 -0.1698
  685MOL0     H92460   5.481   2.049   2.781  2.8708  0.4658 -0.8819
  685MOL0     H92461   5.829   2.038   2.605 -0.3715 -0.4617 -0.0259
  685MOL0     H92462   6.034   1.905   2.602 -0.4142 -1.0075  2.3302
  685MOL0     H92463   6.419   1.782   2.715 -0.0617 -0.1497  0.9037
  685MOL0     H92464   6.641   1.655   2.738 -0.5574  0.3942 -0.1435
  685MOL0     H92465   7.048   1.746   2.796  2.0072  1.0776 -1.7225
  685MOL0     H92466   7.030   1.881   2.685  1.3452 -1.2633  0.6617
  685MOL0     H92467   6.910   1.852   2.963 -0.1327  0.8291  0.4664
  685MOL0     H92468   6.861   1.980   2.848 -1.1725  1.4116  3.7730
  685MOL0     H92469   7.069   2.099   2.875 -1.9233 -0.4535 -1.0500
  685MOL0     H92470   7.151   1.948   2.905 -1.0567 -0.3438 -0.1203
  685MOL0     H92471   7.132   2.102   3.100 -0.8986  1.3753 -0.7573
  685MOL0     H92472   7.095   1.923   3.116 -1.8334 -1.6366 -3.2783
  685MOL0     H92473   6.727   2.108   3.212 -0.9324 -3.5594  0.1399
  685MOL0     H92474   6.859   1.976   2.595 -0.2845  0.2394 -0.7686
  685MOL0     H92475   6.650   2.092   2.533  0.6783 -1.1423 -2.6465
  686MOL0     O92476   5.658   9.336   6.098  0.1851  0.0512  0.3436
  686MOL0     C92477   5.634   9.430   6.019  0.6933 -0.2006  0.4032
  686MOL0     O92478   5.712   9.465   5.909 -0.2791  0.4167  0.0921
  686MOL0     C92479   5.820   9.391   5.880 -0.0483  0.4570  0.7067
  686MOL0     C92480   5.826   9.309   5.775  0.5660 -0.4522  0.6944
  686MOL0     C92481   5.936   9.230   5.744  0.0731  0.6374  0.1589
  686MOL0     C92482   6.047   9.233   5.825  0.3753 -0.2816 -0.5736
  686MOL0     O92483   6.160   9.154   5.804  0.2635  0.4550  0.7584
  686MOL0     C92484   6.144   9.012   5.769 -0.7512 -0.5877  0.3876
  686MOL0     C92485   6.103   8.940   5.904 -0.0065  0.1723 -0.4842
  686MOL0     C92486   6.072   8.790   5.900  0.1820  0.6329 -0.4668
  686MOL0     C92487   6.124   8.708   5.778 -0.5131  0.7638  0.5181
  686MOL0     C92488   6.121   8.558   5.788  0.3782 -0.3920  0.4931
  686MOL0     C92489   5.972   8.519   5.809 -0.3977  0.4244  0.3968
  686MOL0     C92490   5.951   8.372   5.800 -0.0318  0.7489 -1.0010
  686MOL0     C92491   5.808   8.343   5.844  0.0551  0.9635  0.8960
  686MOL0     N92492   5.705   8.361   5.737 -0.8992  0.1784  0.1551
  686MOL0     C92493   5.651   8.483   5.698  0.0717  0.5536  0.1414
  686MOL0     C92494   5.574   8.463   5.594  0.8746  0.2223 -0.3650
  686MOL0     C92495   5.502   8.562   5.513 -0.0008 -0.9241 -0.6110
  686MOL0     C92496   5.351   8.587   5.561  0.4446  0.3503  0.1485
  686MOL0     C92497   5.285   8.453   5.560 -0.0827  1.0005  0.1305
  686MOL0     C92498   5.131   8.469   5.549 -0.0903  0.6180 -0.1962
  686MOL0     O92499   5.092   8.533   5.673  0.5285 -0.1054  0.2688
  686MOL0     C92500   4.961   8.563   5.697 -0.0682  0.5176  0.1928
  686MOL0     C92501   4.850   8.511   5.635 -0.2677 -0.2876  1.2583
  686MOL0     C92502   4.717   8.535   5.670  0.1368 -0.4549 -0.3368
  686MOL0     C92503   4.609   8.470   5.586  0.1071 -1.0784 -0.2455
  686MOL0     C92504   4.698   8.614   5.786 -0.7421  0.9702 -0.1946
  686MOL0     C92505   4.566   8.642   5.838 -0.1364  0.2470  0.0720
  686MOL0     O92506   4.561   8.759   5.907 -0.3873  0.7784  0.3982
  686MOL0     C92507   4.442   8.820   5.920  0.4797 -0.3867  0.0709
  686MOL0     C92508   4.373   8.822   6.045  0.3003 -0.1863 -0.0531
  686MOL0     C92509   4.233   8.869   6.057 -0.4428 -0.3724  0.0847
  686MOL0     C92510   4.174   8.931   5.950 -0.3428 -1.1227  0.6352
  686MOL0     O92511   4.048   8.983   5.942  0.4477  0.2365  0.3539
  686MOL0     C92512   4.001   9.061   6.060 -0.8294  0.3926  0.4609
  686MOL0     C92513   3.857   9.107   6.040  0.4106  0.1688  0.6264
  686MOL0     C92514   3.765   8.983   6.053  0.6951 -0.5214 -0.0642
  686MOL0     C92515   3.619   9.036   6.065  0.6171  0.8922 -0.1175
  686MOL0     C92516   3.519   8.921   6.068  1.4159  0.6866 -0.0633
  686MOL0     C92517   3.381   8.951   6.124  0.4063  1.3672  0.3568
  686MOL0     C92518   3.290   8.825   6.140  0.0664 -0.0743  1.4256
  686MOL0     C92519   3.137   8.867   6.136 -0.3961  0.7171  0.4198
  686MOL0    Cl92520   3.052   8.709   6.114  0.3286 -0.0252 -0.1638
  686MOL0     C92521   4.246   8.928   5.824  0.0148 -0.3238  0.2100
  686MOL0     C92522   4.376   8.872   5.810 -1.3344 -0.3137  0.2643
  686MOL0     O92523   4.472   8.563   5.824  0.0181  0.0893 -0.0341
  686MOL0     C92524   4.814   8.655   5.858  0.1654 -0.6004 -0.0823
  686MOL0     C92525   4.940   8.630   5.811  0.6984  0.5790  0.0619
  686MOL0     N92526   5.574   8.329   5.573  0.3107 -0.2517 -0.0679
  686MOL0     N92527   5.646   8.270   5.665  0.1350 -0.3966  0.1381
  686MOL0     C92528   6.041   9.304   5.943 -0.3786  0.2097 -0.4288
  686MOL0     C92529   5.934   9.390   5.964  0.7376 -0.0758 -0.0981
  686MOL0     C92530   5.514   9.508   6.019 -0.4341 -0.7005 -0.4225
  686MOL0     C92531   5.496   9.621   5.942  0.1100 -0.3690  0.3318
  686MOL0     C92532   5.381   9.694   5.949  0.8493 -0.4324  0.2129
  686MOL0     C92533   5.281   9.659   6.042  0.4025 -0.4635 -0.0992
  686MOL0     O92534   5.169   9.737   6.037  0.0306  0.2308 -0.2678
  686MOL0     C92535   5.035   9.699   6.071  0.1969  0.4807 -0.5633
  686MOL0     C92536   4.930   9.789   6.020 -0.6357 -0.6450  0.1880
  686MOL0     C92537   4.928   9.925   6.078 -0.7076 -0.0892  0.1029
  686MOL0     C92538   4.886   9.924   6.222  0.0822  0.2722  0.7713
  686MOL0     C92539   4.738   9.911   6.230 -0.5745  0.8918 -0.5071
  686MOL0     C92540   4.621   9.873   6.236  0.1044  0.1496  0.2921
  686MOL0     C92541   5.295   9.548   6.125 -0.4621  0.2825  0.7818
  686MOL0     C92542   5.414   9.466   6.112 -0.4523 -0.6332  0.2130
  686MOL0     H92543   5.738   9.319   5.712 -0.6566  1.2054  2.5190
  686MOL0     H92544   5.934   9.175   5.650  1.5931 -1.5806  1.3586
  686MOL0     H92545   6.072   9.001   5.687  0.1407  0.9579 -0.6354
  686MOL0     H92546   6.237   8.963   5.740  0.2656  0.8173  1.1540
  686MOL0     H92547   6.184   8.962   5.975  0.6008  0.2452 -1.1879
  686MOL0     H92548   6.011   8.983   5.946  2.0972  1.3543  3.4166
  686MOL0     H92549   6.114   8.744   5.990 -0.7321  0.3939 -0.1497
  686MOL0     H92550   5.965   8.771   5.907  0.2811  0.3025  0.3080
  686MOL0     H92551   6.052   8.739   5.701 -0.8079 -0.2126  0.3966
  686MOL0     H92552   6.221   8.742   5.740 -0.1286 -1.6614 -0.8707
  686MOL0     H92553   6.165   8.511   5.699  0.1396 -0.9203  0.6491
  686MOL0     H92554   6.189   8.539   5.872  1.3365  2.7602  0.5507
  686MOL0     H92555   5.932   8.559   5.903 -2.2618  0.8165 -0.5250
  686MOL0     H92556   5.911   8.554   5.725 -1.6654  1.1928  1.6025
  686MOL0     H92557   5.976   8.320   5.707  1.7142 -1.8871  0.7918
  686MOL0     H92558   6.025   8.331   5.869  2.0701  0.8091 -3.0877
  686MOL0     H92559   5.784   8.402   5.934 -1.2963  0.5624  0.8242
  686MOL0     H92560   5.802   8.237   5.869 -1.3295  0.5537 -0.9566
  686MOL0     H92561   5.670   8.577   5.749 -1.2177  0.3780  0.9925
  686MOL0     H92562   5.556   8.657   5.519 -2.1748  0.5082 -1.9590
  686MOL0     H92563   5.502   8.534   5.407 -0.5960  1.7910 -1.4260
  686MOL0     H92564   5.304   8.651   5.486  4.4068  2.6657 -0.6442
  686MOL0     H92565   5.350   8.629   5.662 -0.6724  2.8198 -0.8102
  686MOL0     H92566   5.322   8.391   5.643  0.6587 -1.1363 -1.6815
  686MOL0     H92567   5.322   8.412   5.466  0.8151 -0.2058  0.9723
  686MOL0     H92568   5.079   8.376   5.525  2.0398 -0.8285  0.5011
  686MOL0     H92569   5.115   8.544   5.470  0.6044  1.8537  0.7900
  686MOL0     H92570   4.880   8.460   5.544  1.4637  3.2250 -0.3326
  686MOL0     H92571   4.516   8.528   5.579 -0.2879 -1.7343 -0.5581
  686MOL0     H92572   4.641   8.434   5.488  1.0927 -1.5706  0.2378
  686MOL0     H92573   4.580   8.383   5.646 -1.9917 -1.3873 -1.6037
  686MOL0     H92574   4.416   8.761   6.124 -0.2041  0.5426  0.8019
  686MOL0     H92575   4.183   8.848   6.150  0.9999 -1.2503  0.6979
  686MOL0     H92576   4.027   9.013   6.154  0.3678 -2.5382 -1.2128
  686MOL0     H92577   4.055   9.156   6.061  1.7526 -0.9815  0.4299
  686MOL0     H92578   3.832   9.176   6.121 -2.8101 -1.3349  1.0846
  686MOL0     H92579   3.842   9.142   5.937  0.4014  0.8966  0.8665
  686MOL0     H92580   3.791   8.921   6.138 -3.0761 -0.2978  1.4424
  686MOL0     H92581   3.766   8.924   5.961 -0.2929 -1.3311  0.4264
  686MOL0     H92582   3.600   9.091   6.158  0.6375 -1.3647  1.3004
  686MOL0     H92583   3.597   9.105   5.983  1.1992  2.1787  0.7795
  686MOL0     H92584   3.557   8.840   6.131 -0.3924 -0.1746 -0.0171
  686MOL0     H92585   3.517   8.874   5.970 -0.2494 -0.5596  0.5251
  686MOL0     H92586   3.381   9.002   6.220 -3.6219  1.4268  0.4914
  686MOL0     H92587   3.334   9.023   6.055 -2.6665  0.8443  1.7230
  686MOL0     H92588   3.314   8.775   6.233 -3.0761  0.9714  2.9559
  686MOL0     H92589   3.297   8.762   6.051  0.4962  0.7826  0.8386
  686MOL0     H92590   3.112   8.928   6.049  1.7871  0.9932 -0.0668
  686MOL0     H92591   3.095   8.924   6.219 -4.5670 -0.8823 -0.3558
  686MOL0     H92592   4.196   8.962   5.734 -0.7447  0.0162  0.7534
  686MOL0     H92593   4.435   8.865   5.719  1.5082 -0.2833  1.9948
  686MOL0     H92594   4.810   8.712   5.950  1.7778 -2.9153  1.5301
  686MOL0     H92595   5.024   8.669   5.867  1.1081 -0.3192  0.1013
  686MOL0     H92596   6.125   9.291   6.011  0.3597 -2.8297 -1.7649
  686MOL0     H92597   5.935   9.468   6.040  1.0869  0.5207 -0.7003
  686MOL0     H92598   5.575   9.655   5.877  0.3823 -1.1629  0.2290
  686MOL0     H92599   5.364   9.780   5.885 -2.3294 -0.9989  0.1407
  686MOL0     H92600   5.009   9.595   6.046 -1.6885  0.2297  2.0018
  686MOL0     H92601   5.034   9.700   6.180 -0.3647  0.9054 -0.5677
  686MOL0     H92602   4.832   9.743   6.038 -0.9637  0.6335  1.9953
  686MOL0     H92603   4.953   9.796   5.913 -0.2492 -1.4902  0.2124
  686MOL0     H92604   4.861   9.986   6.017 -0.4736  1.8124  1.6589
  686MOL0     H92605   5.033   9.950   6.064 -0.3273 -1.8524 -0.4933
  686MOL0     H92606   4.923  10.012   6.277  2.4134 -0.4478  0.4678
  686MOL0     H92607   4.931   9.843   6.280  1.5196  1.2452  1.0936
  686MOL0     H92608   4.524   9.828   6.234  0.5809 -0.8828 -0.7839
  686MOL0     H92609   5.226   9.528   6.206  0.3503 -1.2972  1.1352
  686MOL0     H92610   5.423   9.378   6.175  1.0478 -1.7263 -1.4316
  687MOL0     O92611   6.394   5.847   4.492  0.1413  0.4873  0.2965
  687MOL0     C92612   6.456   5.753   4.443  0.0096 -0.0265  0.1116
  687MOL0     O92613   6.403   5.642   4.388 -0.5912  0.2067  0.5389
  687MOL0     C92614   6.265   5.655   4.370 -0.5186  0.3835 -0.3983
  687MOL0     C92615   6.184   5.653   4.484 -0.0717 -0.3326 -0.2728
  687MOL0     C92616   6.047   5.654   4.481  0.8175  0.2097 -0.6939
  687MOL0     C92617   5.994   5.675   4.347  0.1962 -0.0130 -0.3289
  687MOL0     O92618   5.858   5.693   4.351  0.1481  0.3171  0.1068
  687MOL0     C92619   5.785   5.794   4.281  0.4388  0.1532 -0.0944
  687MOL0     C92620   5.638   5.772   4.323  0.6707  0.0124  0.1872
  687MOL0     C92621   5.553   5.878   4.262 -0.0166 -0.0871 -0.5664
  687MOL0     C92622   5.552   6.006   4.346 -0.0680  1.0401  0.2628
  687MOL0     C92623   5.432   6.091   4.322 -0.0733 -0.2854  0.2022
  687MOL0     C92624   5.413   6.190   4.438  0.0335  0.6461 -0.0289
  687MOL0     C92625   5.284   6.267   4.424 -0.4232 -0.4093 -0.1160
  687MOL0     C92626   5.227   6.314   4.559  0.2894 -0.0108  1.3504
  687MOL0     N92627   5.088   6.358   4.553 -1.0691 -0.2572 -0.3093
  687MOL0     C92628   4.988   6.273   4.506  0.2566 -0.8600 -0.0570
  687MOL0     C92629   4.882   6.361   4.488 -1.0732  0.0294  0.4328
  687MOL0     C92630   4.747   6.319   4.426  0.4426 -1.4698 -1.0121
  687MOL0     C92631   4.630   6.337   4.518 -0.4584 -0.7162 -0.7204
  687MOL0     C92632   4.510   6.326   4.428 -0.6536 -0.1194  0.7234
  687MOL0     C92633   4.382   6.344   4.510  0.8717 -0.2103 -0.2411
  687MOL0     O92634   4.368   6.487   4.517 -0.2780  0.4862 -0.4193
  687MOL0     C92635   4.250   6.535   4.573  1.2654 -0.3638  0.3433
  687MOL0     C92636   4.225   6.670   4.556 -0.0396  0.8245  0.9478
  687MOL0     C92637   4.106   6.726   4.601 -0.9495  0.4195  0.3568
  687MOL0     C92638   4.092   6.873   4.588  0.5122  0.5806 -0.4462
  687MOL0     C92639   3.999   6.645   4.649  0.1880  0.4193 -1.0153
  687MOL0     C92640   3.869   6.699   4.693 -0.0438  0.2945 -0.5262
  687MOL0     O92641   3.822   6.651   4.806 -0.6148  0.0130  0.1086
  687MOL0     C92642   3.695   6.690   4.844 -0.2283  0.3297  0.0665
  687MOL0     C92643   3.681   6.813   4.905 -0.8675 -0.3614 -0.3773
  687MOL0     C92644   3.552   6.848   4.952 -0.3790 -0.8649  0.2603
  687MOL0     C92645   3.439   6.761   4.943 -0.9800 -0.2675  1.4624
  687MOL0     O92646   3.313   6.791   4.978 -0.0008  0.6774 -0.0068
  687MOL0     C92647   3.278   6.902   5.059  0.1378 -0.7820  0.2672
  687MOL0     C92648   3.129   6.940   5.030  0.0864  0.8333 -0.0836
  687MOL0     C92649   3.089   7.081   5.068  0.3101  0.0272 -0.4017
  687MOL0     C92650   2.933   7.091   5.046 -0.3735 -0.2677 -0.1587
  687MOL0     C92651   2.894   7.234   5.069 -0.0772 -0.4918  0.0945
  687MOL0     C92652   2.740   7.261   5.044  0.6673 -0.1905  0.3035
  687MOL0     C92653   2.645   7.226   5.169 -0.3240 -0.3008  0.2942
  687MOL0     C92654   2.518   7.168   5.118  0.4966 -0.7225 -0.2718
  687MOL0    Cl92655   2.392   7.301   5.102  0.1945 -0.2701 -0.1177
  687MOL0     C92656   3.457   6.644   4.876 -0.4576 -0.2774  0.3672
  687MOL0     C92657   3.582   6.603   4.842 -0.3790 -0.0614 -0.6069
  687MOL0     O92658   3.811   6.778   4.620  0.2214 -0.0590 -0.1774
  687MOL0     C92659   4.029   6.510   4.671 -0.1928 -0.6404  0.0854
  687MOL0     C92660   4.152   6.459   4.641  0.3850  0.5348  1.2183
  687MOL0     N92661   4.934   6.489   4.519  1.2943 -0.2498  1.1561
  687MOL0     N92662   5.054   6.493   4.551  0.0941  0.0876  0.2863
  687MOL0     C92663   6.070   5.672   4.229 -0.8461 -0.0983  0.1343
  687MOL0     C92664   6.209   5.663   4.241 -0.4406 -0.1683 -0.9580
  687MOL0     C92665   6.600   5.763   4.468  0.5603  0.1359  0.3926
  687MOL0     C92666   6.668   5.884   4.512  0.1520 -0.0494  0.6897
  687MOL0     C92667   6.805   5.903   4.530  0.2509  0.3542  0.0033
  687MOL0     C92668   6.886   5.796   4.482  0.0702 -0.4374  0.3532
  687MOL0     O92669   7.021   5.791   4.495 -0.2995 -0.4873 -0.0328
  687MOL0     C92670   7.064   5.809   4.633 -0.6748 -0.7570 -0.1950
  687MOL0     C92671   7.159   5.926   4.650 -0.0543 -0.0632  0.0245
  687MOL0     C92672   7.185   5.954   4.811 -0.2255  0.1139  0.7644
  687MOL0     C92673   7.334   5.971   4.817 -0.3980 -0.5960 -0.3022
  687MOL0     C92674   7.363   6.002   4.958 -0.0173  0.0372 -0.5315
  687MOL0     C92675   7.372   6.047   5.077 -0.1491  0.3740  0.5262
  687MOL0     C92676   6.829   5.679   4.441  0.4734  0.0392 -0.3604
  687MOL0     C92677   6.687   5.662   4.432 -0.1240  0.1542 -0.5933
  687MOL0     H92678   6.228   5.638   4.582  0.6612  3.2293  0.0824
  687MOL0     H92679   5.974   5.644   4.561  0.0569  3.9771 -0.7224
  687MOL0     H92680   5.820   5.896   4.298 -0.7119  0.7558 -1.1990
  687MOL0     H92681   5.795   5.777   4.173 -0.2529 -0.1276 -0.1157
  687MOL0     H92682   5.612   5.672   4.285 -0.4651  1.1644 -2.3352
  687MOL0     H92683   5.620   5.767   4.431 -0.4592  2.3343  0.1712
  687MOL0     H92684   5.584   5.906   4.161 -0.7710  1.5590 -0.3634
  687MOL0     H92685   5.452   5.839   4.249  0.3610 -1.1832 -0.3796
  687MOL0     H92686   5.548   5.986   4.454 -2.1578  1.6409  0.3355
  687MOL0     H92687   5.640   6.068   4.326  0.0585  0.3506 -1.4552
  687MOL0     H92688   5.437   6.146   4.228 -1.7838 -1.0464 -0.3583
  687MOL0     H92689   5.339   6.035   4.317 -1.1560  1.4713 -0.2914
  687MOL0     H92690   5.420   6.130   4.529  0.0394  1.1627  0.3123
  687MOL0     H92691   5.497   6.259   4.425  0.4508 -0.0074 -0.9452
  687MOL0     H92692   5.297   6.354   4.360  0.4140  0.1574  0.7936
  687MOL0     H92693   5.213   6.199   4.376  1.2455 -1.5142 -1.0948
  687MOL0     H92694   5.285   6.400   4.592  0.2902  1.1769 -1.4960
  687MOL0     H92695   5.224   6.235   4.635  2.0631 -0.7089  0.7333
  687MOL0     H92696   4.981   6.166   4.491 -1.7386 -0.8569  0.5165
  687MOL0     H92697   4.732   6.388   4.343 -0.8035 -1.5321 -0.8555
  687MOL0     H92698   4.745   6.220   4.380 -0.3864 -1.9415  0.0087
  687MOL0     H92699   4.632   6.436   4.564 -1.9837 -1.5087  1.2213
  687MOL0     H92700   4.622   6.257   4.592 -0.2536 -0.0884 -0.0051
  687MOL0     H92701   4.517   6.226   4.385  2.7002 -0.4560  1.7910
  687MOL0     H92702   4.519   6.395   4.344 -0.4522 -0.0301  0.8179
  687MOL0     H92703   4.385   6.285   4.602 -4.0565 -0.2222  0.1566
  687MOL0     H92704   4.293   6.306   4.460  1.7876 -0.6424 -1.5999
  687MOL0     H92705   4.300   6.731   4.507 -0.5815 -1.5016 -3.2156
  687MOL0     H92706   4.033   6.898   4.499 -0.7756  1.8212  0.6943
  687MOL0     H92707   4.047   6.913   4.679  2.8076 -2.6585  2.3624
  687MOL0     H92708   4.193   6.916   4.586  0.9932 -0.5340 -1.0837
  687MOL0     H92709   3.765   6.881   4.901  0.6856 -2.0945  1.3006
  687MOL0     H92710   3.539   6.940   5.007  0.5840 -1.0752  0.8662
  687MOL0     H92711   3.293   6.885   5.166  1.1330  2.7560  0.8155
  687MOL0     H92712   3.338   6.989   5.032 -0.8676  0.5936  2.2309
  687MOL0     H92713   3.109   6.918   4.925  0.5288 -0.0239  0.0067
  687MOL0     H92714   3.080   6.865   5.092  0.8589  0.7119  0.3875
  687MOL0     H92715   3.155   7.137   5.001  1.6789  1.1523  1.7715
  687MOL0     H92716   3.111   7.104   5.172  0.1488 -2.0930  0.1445
  687MOL0     H92717   2.919   7.060   4.942  3.1231  0.0802 -0.8501
  687MOL0     H92718   2.872   7.026   5.109 -1.4827 -1.8955 -2.7526
  687MOL0     H92719   2.955   7.294   5.001 -0.4698  1.2701  1.2206
  687MOL0     H92720   2.918   7.263   5.172 -0.7106 -0.6527  0.2926
  687MOL0     H92721   2.727   7.369   5.033 -0.7099 -0.0871  2.3373
  687MOL0     H92722   2.711   7.210   4.952 -1.2671 -0.9556  1.2735
  687MOL0     H92723   2.626   7.312   5.233  0.8043  0.8306 -0.8229
  687MOL0     H92724   2.687   7.146   5.231  1.2095  0.8452  0.8131
  687MOL0     H92725   2.483   7.088   5.185 -1.0563  0.3656  0.2777
  687MOL0     H92726   2.529   7.120   5.020 -0.0213  0.1855 -0.7882
  687MOL0     H92727   3.378   6.571   4.860 -2.2566  1.1112  2.4856
  687MOL0     H92728   3.585   6.502   4.803 -3.0666 -0.1074 -0.8427
  687MOL0     H92729   3.947   6.443   4.696  1.3102 -2.2947  0.7987
  687MOL0     H92730   4.158   6.352   4.656 -2.1246 -0.3812 -2.7664
  687MOL0     H92731   6.031   5.658   4.129 -0.7026 -1.7624  0.2795
  687MOL0     H92732   6.272   5.664   4.152 -0.9465 -2.8198 -1.4382
  687MOL0     H92733   6.611   5.970   4.544  1.7132  0.3019  2.7245
  687MOL0     H92734   6.849   5.990   4.576  0.2951  1.0465 -1.3108
  687MOL0     H92735   6.985   5.829   4.706  1.4964  3.3652  1.3505
  687MOL0     H92736   7.114   5.712   4.648 -1.6740 -1.2945 -0.3077
  687MOL0     H92737   7.119   6.011   4.595  2.5138  0.0029 -1.9292
  687MOL0     H92738   7.253   5.899   4.601  0.3089 -0.3693  0.8514
  687MOL0     H92739   7.146   5.871   4.871  0.9382 -1.6816 -0.8378
  687MOL0     H92740   7.133   6.046   4.838  0.6858  1.2009 -1.0138
  687MOL0     H92741   7.372   6.041   4.742  0.6591  0.6683  1.3464
  687MOL0     H92742   7.380   5.873   4.801 -0.1004 -0.3137 -1.2693
  687MOL0     H92743   7.382   6.063   5.183  0.1067  2.1145  0.2737
  687MOL0     H92744   6.903   5.601   4.424 -0.6024 -2.0770  3.3920
  687MOL0     H92745   6.653   5.571   4.384  0.8767 -0.3125 -0.4374
  688MOL0     O92746   6.343   7.610   1.333  0.1835 -0.0113 -0.1238
  688MOL0     C92747   6.421   7.518   1.337 -0.1505 -0.4632  1.2930
  688MOL0     O92748   6.384   7.390   1.374 -0.0634 -0.2819  0.3012
  688MOL0     C92749   6.254   7.341   1.341  0.1325  0.1175  0.0634
  688MOL0     C92750   6.197   7.236   1.417  0.4650 -0.3416 -0.1862
  688MOL0     C92751   6.062   7.194   1.386 -0.0801 -0.1335  0.4598
  688MOL0     C92752   6.002   7.246   1.269  0.0650  1.0195  0.4004
  688MOL0     O92753   5.876   7.192   1.243 -0.0387 -0.8019  0.0588
  688MOL0     C92754   5.792   7.278   1.154 -1.1841  0.3188 -0.4872
  688MOL0     C92755   5.648   7.249   1.188 -0.2786  0.0219  0.8954
  688MOL0     C92756   5.557   7.302   1.075 -0.5851 -0.4643  0.4774
  688MOL0     C92757   5.412   7.312   1.103  0.5705  0.3640 -0.1151
  688MOL0     C92758   5.396   7.403   1.221  0.5408  0.9316 -0.3647
  688MOL0     C92759   5.262   7.473   1.222 -0.3354 -0.1579  1.0228
  688MOL0     C92760   5.148   7.382   1.234  0.2293  0.4122  0.4769
  688MOL0     C92761   5.021   7.468   1.246  0.9089  0.2488 -0.3452
  688MOL0     N92762   5.023   7.593   1.331 -0.6829 -0.7029  0.5724
  688MOL0     C92763   4.970   7.606   1.457  0.1045  0.6301 -0.3298
  688MOL0     C92764   4.960   7.736   1.486  0.8674  0.1832  1.1074
  688MOL0     C92765   4.910   7.806   1.610  0.0014 -0.2956 -0.1554
  688MOL0     C92766   4.770   7.764   1.655 -0.8157 -0.6958 -0.1874
  688MOL0     C92767   4.651   7.814   1.580  0.8049  0.2243 -0.5400
  688MOL0     C92768   4.518   7.797   1.655 -0.2131  0.8681 -0.3214
  688MOL0     O92769   4.506   7.665   1.704 -0.3572  1.1576 -1.0947
  688MOL0     C92770   4.382   7.635   1.748  0.5776 -0.0044 -0.4089
  688MOL0     C92771   4.376   7.514   1.817  0.0638 -0.4514 -0.1715
  688MOL0     C92772   4.260   7.459   1.864  0.2257  0.4037 -0.1214
  688MOL0     C92773   4.277   7.327   1.937  0.2757 -0.6788  0.0544
  688MOL0     C92774   4.128   7.521   1.847  1.0028  0.6820  0.9494
  688MOL0     C92775   3.995   7.478   1.907  0.0109  0.1704 -0.3246
  688MOL0     O92776   3.888   7.534   1.846  0.2769  0.0311 -0.0317
  688MOL0     C92777   3.756   7.523   1.879  0.9233 -0.1535 -0.0668
  688MOL0     C92778   3.687   7.635   1.843  0.7914  0.7408 -0.2221
  688MOL0     C92779   3.549   7.655   1.878  0.4324  0.5531  0.2594
  688MOL0     C92780   3.488   7.556   1.952 -0.1348  0.4118 -1.1968
  688MOL0     O92781   3.366   7.586   1.987  0.1455 -0.3558 -0.4186
  688MOL0     C92782   3.285   7.483   2.049 -0.4849 -0.2033  0.5136
  688MOL0     C92783   3.152   7.538   2.105  0.8770  0.6225 -0.6216
  688MOL0     C92784   3.038   7.532   2.004  0.0656 -0.0343  0.1420
  688MOL0     C92785   2.903   7.574   2.050  0.2642 -0.1864  0.0180
  688MOL0     C92786   2.791   7.555   1.942 -0.4728  0.3654 -0.3662
  688MOL0     C92787   2.664   7.596   2.012  0.0055  0.3222  0.4377
  688MOL0     C92788   2.540   7.554   1.939  0.1615  0.3206  0.1727
  688MOL0     C92789   2.423   7.515   2.028  0.5031  0.9318 -0.2658
  688MOL0    Cl92790   2.356   7.656   2.114  0.0709 -0.1502  0.1476
  688MOL0     C92791   3.559   7.440   1.988 -0.1066 -0.1557 -0.4014
  688MOL0     C92792   3.694   7.429   1.955  0.7086  0.1925 -1.5663
  688MOL0     O92793   3.996   7.416   2.015  0.6198 -0.4266 -0.4737
  688MOL0     C92794   4.127   7.634   1.760  0.1455  0.7160  0.1073
  688MOL0     C92795   4.251   7.693   1.724 -0.4676  0.6566  0.6293
  688MOL0     N92796   4.997   7.796   1.361  0.7496 -0.2235  0.0155
  688MOL0     N92797   5.041   7.717   1.277  0.4882 -0.4158  0.1502
  688MOL0     C92798   6.068   7.335   1.189 -0.2914  0.8906 -0.3100
  688MOL0     C92799   6.196   7.385   1.220 -0.5026  1.2609  0.4395
  688MOL0     C92800   6.570   7.546   1.314 -0.2889 -0.0062  0.7264
  688MOL0     C92801   6.670   7.446   1.327  0.2138  0.7067 -0.0130
  688MOL0     C92802   6.799   7.460   1.301 -0.4969 -0.5050 -0.2041
  688MOL0     C92803   6.843   7.586   1.264 -0.5351 -1.3933  0.5644
  688MOL0     O92804   6.983   7.622   1.242  0.0159  0.0847  0.5984
  688MOL0     C92805   7.092   7.540   1.296 -0.0631 -0.0595 -0.3323
  688MOL0     C92806   7.125   7.429   1.192  0.6460 -0.9110  0.2094
  688MOL0     C92807   7.189   7.483   1.063  0.3358  1.0698  0.6790
  688MOL0     C92808   7.184   7.390   0.940 -0.4060 -0.3467 -0.0691
  688MOL0     C92809   7.252   7.261   0.975  0.6480  0.0551 -0.2864
  688MOL0     C92810   7.321   7.165   0.982 -0.5625 -0.2589  0.2678
  688MOL0     C92811   6.750   7.687   1.237  0.4597  0.2925  0.3989
  688MOL0     C92812   6.614   7.674   1.266  0.3068  0.0636  0.7150
  688MOL0     H92813   6.241   7.185   1.502 -0.0831 -1.0144 -0.2927
  688MOL0     H92814   6.021   7.116   1.450 -0.1487 -0.4492  0.0305
  688MOL0     H92815   5.810   7.383   1.179  0.7236 -0.3881  1.4054
  688MOL0     H92816   5.804   7.244   1.051  1.3977 -3.8477  0.9439
  688MOL0     H92817   5.633   7.140   1.192  0.1048 -0.0003  1.8829
  688MOL0     H92818   5.622   7.293   1.284  1.7450 -0.5193  1.7282
  688MOL0     H92819   5.587   7.399   1.035 -1.4860 -0.5047 -0.3451
  688MOL0     H92820   5.574   7.234   0.991  2.5005  3.1358 -2.1289
  688MOL0     H92821   5.362   7.348   1.012  0.5090 -2.5649 -1.3662
  688MOL0     H92822   5.365   7.216   1.129 -1.1342  1.1751 -0.0488
  688MOL0     H92823   5.403   7.338   1.308  1.2640 -0.0248 -1.1154
  688MOL0     H92824   5.474   7.480   1.227 -0.0279  1.4208  1.2909
  688MOL0     H92825   5.250   7.531   1.313 -2.4816  1.8687 -0.4485
  688MOL0     H92826   5.249   7.543   1.139 -0.6825 -2.1405 -0.7047
  688MOL0     H92827   5.142   7.308   1.154  2.9366  0.8663 -0.2191
  688MOL0     H92828   5.164   7.321   1.324  2.5921  0.6001  0.2491
  688MOL0     H92829   4.950   7.393   1.282 -1.9193  2.9317  0.0475
  688MOL0     H92830   5.000   7.498   1.143 -0.5129  0.9853  0.1362
  688MOL0     H92831   4.957   7.534   1.537 -1.3448  1.4572  0.2074
  688MOL0     H92832   4.992   7.784   1.679  0.6477 -2.8966 -1.6297
  688MOL0     H92833   4.903   7.912   1.583 -1.0890 -0.6191 -1.2488
  688MOL0     H92834   4.765   7.795   1.760 -1.6485  2.9866 -1.1538
  688MOL0     H92835   4.774   7.656   1.667 -1.7867 -0.5655  1.6598
  688MOL0     H92836   4.655   7.769   1.481  3.8163  0.0522 -0.4334
  688MOL0     H92837   4.660   7.922   1.565 -3.3863  0.8434  0.0056
  688MOL0     H92838   4.435   7.817   1.587 -0.1909  0.9148 -0.3342
  688MOL0     H92839   4.516   7.852   1.749 -0.1554 -3.4799  2.5201
  688MOL0     H92840   4.467   7.459   1.839  2.2622  2.7653 -0.6166
  688MOL0     H92841   4.268   7.342   2.045  2.4475 -0.6141  0.2775
  688MOL0     H92842   4.195   7.264   1.900  0.0514 -0.3536 -0.0032
  688MOL0     H92843   4.375   7.288   1.908  1.5101  3.3947 -1.8897
  688MOL0     H92844   3.741   7.714   1.792 -0.9714  3.9464  2.4677
  688MOL0     H92845   3.496   7.744   1.846  0.3147 -0.3528 -2.3151
  688MOL0     H92846   3.263   7.409   1.972  1.4081 -1.4994  1.1205
  688MOL0     H92847   3.341   7.436   2.131 -0.1760 -0.4692  0.1570
  688MOL0     H92848   3.127   7.462   2.180 -0.8255 -0.0540 -1.8081
  688MOL0     H92849   3.161   7.638   2.147 -0.2056  0.6421 -0.4008
  688MOL0     H92850   3.044   7.429   1.966 -1.8929 -0.1054 -0.0871
  688MOL0     H92851   3.058   7.595   1.916 -0.2813 -1.1726 -0.7785
  688MOL0     H92852   2.873   7.530   2.146  3.6384  3.2460  2.9449
  688MOL0     H92853   2.919   7.678   2.077  1.8288  0.1995 -2.1512
  688MOL0     H92854   2.788   7.448   1.923  1.9230 -0.2566  2.0759
  688MOL0     H92855   2.813   7.609   1.849 -3.2634  0.9241 -0.7677
  688MOL0     H92856   2.661   7.536   2.103 -3.1793  3.5195  2.6886
  688MOL0     H92857   2.663   7.698   2.050  0.8943  1.3747 -2.1338
  688MOL0     H92858   2.566   7.469   1.874 -0.5049 -0.0326  0.3543
  688MOL0     H92859   2.500   7.631   1.872 -2.0748 -0.2756  0.7273
  688MOL0     H92860   2.456   7.435   2.096 -0.7611 -0.9850 -1.7793
  688MOL0     H92861   2.356   7.465   1.957  2.4782 -1.0792 -0.8186
  688MOL0     H92862   3.523   7.366   2.058 -1.6569  2.4684  1.7933
  688MOL0     H92863   3.749   7.342   1.990 -1.1757 -0.0311  1.1926
  688MOL0     H92864   4.033   7.682   1.733 -0.1292  0.0207 -0.2067
  688MOL0     H92865   4.227   7.777   1.659 -1.1384 -1.6182 -2.3022
  688MOL0     H92866   6.036   7.355   1.087  2.5550  3.2060 -0.8724
  688MOL0     H92867   6.244   7.461   1.160  0.3390  0.4292  0.0529
  688MOL0     H92868   6.639   7.346   1.355 -1.6889  0.4882 -2.5288
  688MOL0     H92869   6.866   7.377   1.317 -0.4934 -0.2916  1.0323
  688MOL0     H92870   7.176   7.606   1.322 -2.9884  4.9578 -2.2104
  688MOL0     H92871   7.072   7.497   1.395  1.3635 -0.1416 -0.0504
  688MOL0     H92872   7.031   7.381   1.164 -0.5052  0.7473  1.0418
  688MOL0     H92873   7.197   7.355   1.228  1.2188 -0.5023 -0.0791
  688MOL0     H92874   7.294   7.502   1.091  0.3572 -0.8606  2.1746
  688MOL0     H92875   7.148   7.579   1.031  1.2304  1.0011 -0.7612
  688MOL0     H92876   7.243   7.432   0.859  3.0571 -2.7024  0.9879
  688MOL0     H92877   7.090   7.353   0.897 -0.3765  0.4597 -0.8544
  688MOL0     H92878   7.383   7.077   0.977 -1.7743 -1.1566  0.5412
  688MOL0     H92879   6.786   7.777   1.188 -2.0393 -0.2815 -2.7768
  688MOL0     H92880   6.541   7.750   1.239 -1.2400 -1.3853  0.6097
  689MOL0     O92881   6.570  10.919  10.315 -0.2152  0.2624  0.0543
  689MOL0     C92882   6.572  10.953  10.430 -0.6220 -0.0456 -0.2859
  689MOL0     O92883   6.465  10.995  10.509  0.3419 -0.2153  0.2520
  689MOL0     C92884   6.337  10.967  10.458  0.0019 -0.0038 -0.1156
  689MOL0     C92885   6.301  10.842  10.397  0.2611  0.0930  0.0603
  689MOL0     C92886   6.166  10.813  10.370 -0.1941 -0.4137  1.5378
  689MOL0     C92887   6.069  10.911  10.391 -0.1436  0.2043 -0.3053
  689MOL0     O92888   5.935  10.875  10.354 -0.9079 -0.5195 -0.4162
  689MOL0     C92889   5.862  10.977  10.289  0.0979  0.6698 -0.2034
  689MOL0     C92890   5.715  10.946  10.321  0.0186 -0.5159 -0.1681
  689MOL0     C92891   5.617  11.015  10.227 -0.2126  0.3160 -0.4920
  689MOL0     C92892   5.472  10.968  10.243 -0.4835 -0.0835 -0.4137
  689MOL0     C92893   5.405  11.030  10.365  0.3317  0.1407 -0.0142
  689MOL0     C92894   5.261  10.969  10.369  0.0930 -0.3113 -0.0887
  689MOL0     C92895   5.191  10.998  10.502  0.0356 -0.7894  0.7519
  689MOL0     C92896   5.213  11.139  10.553  0.1743  0.5231  0.5513
  689MOL0     N92897   5.134  11.236  10.478 -0.4291 -0.0234  0.3466
  689MOL0     C92898   5.064  11.335  10.542 -0.3713 -1.1895  0.2579
  689MOL0     C92899   5.044  11.430  10.445 -0.4560  0.8739 -0.2216
  689MOL0     C92900   4.976  11.560  10.481 -0.3828  1.1691  0.3700
  689MOL0     C92901   4.832  11.568  10.431 -0.1476  0.2888  0.9836
  689MOL0     C92902   4.751  11.454  10.492 -0.6900 -0.1382  0.3492
  689MOL0     C92903   4.613  11.440  10.424  1.2389 -0.5475 -0.5464
  689MOL0     O92904   4.549  11.328  10.490  0.0048 -0.4284  0.6092
  689MOL0     C92905   4.437  11.270  10.445 -0.3364 -0.2377 -0.5898
  689MOL0     C92906   4.412  11.145  10.494 -0.1806 -0.1555 -0.6620
  689MOL0     C92907   4.300  11.072  10.457 -0.4863  0.1350  0.2838
  689MOL0     C92908   4.286  10.939  10.530 -0.2743 -0.4540  0.3361
  689MOL0     C92909   4.203  11.124  10.368 -0.1647  0.2376  0.2610
  689MOL0     C92910   4.070  11.061  10.330 -0.2108 -0.2093  0.4726
  689MOL0     O92911   3.989  11.130  10.250 -0.5417  0.2419 -0.1387
  689MOL0     C92912   3.863  11.075  10.207 -0.5706 -1.4238  0.1633
  689MOL0     C92913   3.742  11.118  10.271 -0.3293 -0.9218  0.9267
  689MOL0     C92914   3.621  11.067  10.226  1.0492  0.4973  0.0004
  689MOL0     C92915   3.613  10.977  10.118 -0.7994 -0.1103  0.4793
  689MOL0     O92916   3.502  10.917  10.090 -0.3845  0.3488 -0.4233
  689MOL0     C92917   3.402  11.001  10.024 -0.1835  0.5406  0.1779
  689MOL0     C92918   3.280  10.920   9.969 -0.4498  0.4976 -0.4817
  689MOL0     C92919   3.208  11.010   9.871 -0.3987  0.0867 -0.0404
  689MOL0     C92920   3.089  10.925   9.834  0.0540 -0.0226  0.2305
  689MOL0     C92921   3.006  10.975   9.714 -0.1133  0.4900 -1.3197
  689MOL0     C92922   2.888  10.877   9.690 -0.7564 -0.2789  0.0015
  689MOL0     C92923   2.787  10.921   9.575 -0.7304 -0.0794 -0.0792
  689MOL0     C92924   2.832  10.880   9.435 -0.3979 -0.8080  0.1147
  689MOL0    Cl92925   2.798  10.702   9.399 -0.0081 -0.1718  0.2349
  689MOL0     C92926   3.740  10.924  10.065  0.5315 -0.7439  0.3980
  689MOL0     C92927   3.861  10.983  10.106 -0.3081 -0.2482  0.1611
  689MOL0     O92928   4.057  10.944  10.358  0.6378 -0.4967  0.5222
  689MOL0     C92929   4.228  11.251  10.314  0.9153  0.8002 -0.1423
  689MOL0     C92930   4.347  11.323  10.354  0.7892 -0.5429  0.5216
  689MOL0     N92931   5.109  11.395  10.328 -0.1058  1.0057  0.8730
  689MOL0     N92932   5.159  11.274  10.349 -0.5259  0.1542 -0.3913
  689MOL0     C92933   6.105  11.027  10.452 -0.2478 -0.1858  0.1493
  689MOL0     C92934   6.240  11.058  10.488  0.5816 -0.1547 -0.9090
  689MOL0     C92935   6.701  10.972  10.501  0.2909 -0.6109  0.4480
  689MOL0     C92936   6.828  10.939  10.448  0.3494  0.1861  0.9273
  689MOL0     C92937   6.948  10.977  10.518  0.3493  0.2809 -0.1563
  689MOL0     C92938   6.946  11.032  10.647  0.9593  0.2685 -0.4335
  689MOL0     O92939   7.055  11.056  10.724  0.0219 -0.3097 -0.0773
  689MOL0     C92940   7.184  11.073  10.656 -0.2559  1.0927 -1.0988
  689MOL0     C92941   7.291  11.080  10.761  0.5870 -0.4467 -0.0190
  689MOL0     C92942   7.402  11.162  10.699  0.9921 -0.3311  0.2140
  689MOL0     C92943   7.532  11.158  10.780 -0.5654  0.3953  0.0177
  689MOL0     C92944   7.584  11.027  10.826  0.8587 -1.0370  0.4974
  689MOL0     C92945   7.619  10.915  10.868  0.0710 -0.5782  0.5775
  689MOL0     C92946   6.815  11.072  10.697  0.3716  0.0158 -0.6075
  689MOL0     C92947   6.701  11.032  10.631 -0.2941 -0.2180  1.0558
  689MOL0     H92948   6.372  10.764  10.370 -0.4013 -0.4080 -0.2423
  689MOL0     H92949   6.133  10.723  10.319  0.5694  0.9896 -1.6886
  689MOL0     H92950   5.879  11.079  10.324 -3.6052  0.5435  2.5215
  689MOL0     H92951   5.888  10.975  10.183  1.6361 -0.6834  0.1482
  689MOL0     H92952   5.703  10.838  10.322 -2.1704 -0.3110  0.3342
  689MOL0     H92953   5.682  10.978  10.420 -1.9785  0.5390 -1.1259
  689MOL0     H92954   5.616  11.123  10.242 -0.9941  0.1028  1.2205
  689MOL0     H92955   5.647  10.992  10.124 -3.0575 -1.7296 -0.9821
  689MOL0     H92956   5.420  10.994  10.150 -0.0815  0.2107 -0.5572
  689MOL0     H92957   5.473  10.858  10.248  2.3417 -0.0965  3.1743
  689MOL0     H92958   5.461  11.009  10.457  1.7399 -2.6688 -1.3803
  689MOL0     H92959   5.400  11.138  10.351  1.9354  0.3039  0.4188
  689MOL0     H92960   5.196  11.008  10.290 -0.1675  3.6471  1.8117
  689MOL0     H92961   5.262  10.860  10.371  0.5582 -0.3638  3.5982
  689MOL0     H92962   5.084  10.972  10.499 -0.0974 -0.3496  1.4092
  689MOL0     H92963   5.227  10.930  10.580  0.1339 -0.2795  1.1573
  689MOL0     H92964   5.320  11.165  10.547 -0.0181  1.0204 -1.1314
  689MOL0     H92965   5.183  11.140  10.658  0.2138  2.1787  0.5634
  689MOL0     H92966   5.027  11.344  10.644  0.8613  1.1487  0.5692
  689MOL0     H92967   4.982  11.573  10.589 -0.5831 -1.3498  0.7398
  689MOL0     H92968   5.033  11.642  10.437  1.3973 -0.3950 -0.3498
  689MOL0     H92969   4.843  11.562  10.323  2.5274 -1.1351  1.2616
  689MOL0     H92970   4.786  11.666  10.443  0.6478  0.6875  0.8077
  689MOL0     H92971   4.736  11.473  10.599  1.6600 -2.4068  1.1839
  689MOL0     H92972   4.800  11.356  10.490  0.4334  0.2947  2.8619
  689MOL0     H92973   4.632  11.413  10.320 -1.6379  1.1892 -1.6635
  689MOL0     H92974   4.556  11.533  10.436  0.7736 -0.9013  0.0280
  689MOL0     H92975   4.486  11.111  10.565 -1.5417  0.1524  0.9685
  689MOL0     H92976   4.282  10.852  10.464 -1.7405  1.0631 -1.7212
  689MOL0     H92977   4.367  10.923  10.602  1.0870  1.0103 -0.8031
  689MOL0     H92978   4.192  10.927  10.586 -1.0997  0.3635 -0.8280
  689MOL0     H92979   3.756  11.193  10.348 -1.2376  1.9928 -1.5885
  689MOL0     H92980   3.536  11.110  10.278 -0.7701 -1.8801 -0.8415
  689MOL0     H92981   3.365  11.087  10.081 -1.9081 -0.6939  1.0194
  689MOL0     H92982   3.452  11.043   9.936  0.1956  1.3611  0.7602
  689MOL0     H92983   3.310  10.823   9.927  1.6566 -0.8116  3.4838
  689MOL0     H92984   3.219  10.888  10.054  0.8139  0.6011  0.4911
  689MOL0     H92985   3.265  11.020   9.778  0.2288 -3.4128 -0.1621
  689MOL0     H92986   3.186  11.105   9.921 -0.3300  0.7090 -1.1438
  689MOL0     H92987   3.130  10.828   9.805  1.9760  2.0867 -5.5815
  689MOL0     H92988   3.021  10.921   9.919 -0.5745  0.9296 -0.1966
  689MOL0     H92989   3.067  10.988   9.625 -0.2727 -0.3779 -1.5607
  689MOL0     H92990   2.965  11.072   9.744 -2.2104 -0.8718  0.5272
  689MOL0     H92991   2.942  10.784   9.671  0.4957  0.7890 -2.1045
  689MOL0     H92992   2.838  10.861   9.786 -0.0488  0.9871  0.6068
  689MOL0     H92993   2.793  11.030   9.575  0.5150 -0.1371  0.2973
  689MOL0     H92994   2.680  10.905   9.592 -2.0259  2.3477 -4.4151
  689MOL0     H92995   2.938  10.901   9.419 -0.2169 -2.2618 -0.8336
  689MOL0     H92996   2.767  10.944   9.373  0.2658 -0.5241 -0.3024
  689MOL0     H92997   3.726  10.843   9.993 -1.8106 -0.6853  0.7066
  689MOL0     H92998   3.948  10.957  10.048 -1.3929  0.9779 -2.1411
  689MOL0     H92999   4.154  11.298  10.250  1.3773  1.2308 -0.3667
  689MOL0     H93000   4.359  11.420  10.306 -0.2879 -0.2353  0.8489
  689MOL0     H93001   6.033  11.098  10.492  1.9592  1.3681  1.6883
  689MOL0     H93002   6.263  11.145  10.548 -0.9006 -1.1266  1.2184
  689MOL0     H93003   6.830  10.906  10.344  0.5429  1.1445  0.6157
  689MOL0     H93004   7.043  10.948  10.474  1.9433 -0.8081  3.5575
  689MOL0     H93005   7.209  10.992  10.587 -1.8134 -0.5422  0.1758
  689MOL0     H93006   7.182  11.171  10.606  0.7169  1.4093 -0.5473
  689MOL0     H93007   7.321  10.979  10.789 -4.6760 -2.2431  0.2910
  689MOL0     H93008   7.258  11.138  10.848  2.8771 -0.0872  0.6705
  689MOL0     H93009   7.376  11.267  10.685  0.6968 -0.1827  1.7193
  689MOL0     H93010   7.423  11.117  10.601  0.5481 -4.6246  1.8479
  689MOL0     H93011   7.531  11.228  10.865 -3.0098  2.5518 -1.5940
  689MOL0     H93012   7.615  11.188  10.715 -0.4978 -0.6120 -0.3677
  689MOL0     H93013   7.663  10.822  10.896  1.7532  0.2366  0.7099
  689MOL0     H93014   6.803  11.118  10.794 -0.8461 -1.7977  0.1764
  689MOL0     H93015   6.606  11.072  10.666 -0.2650 -0.2758  1.2017
  690MOL0     O93016   6.972   1.575   3.427  0.0260  0.0966 -0.0012
  690MOL0     C93017   6.980   1.692   3.396  0.1850  0.3279  0.1506
  690MOL0     O93018   6.875   1.772   3.355 -0.8086  0.4690 -0.0339
  690MOL0     C93019   6.753   1.714   3.334  0.7607  0.6157 -0.2989
  690MOL0     C93020   6.725   1.597   3.257 -0.2394  0.5868 -0.9526
  690MOL0     C93021   6.593   1.580   3.211 -0.1060  0.2591  0.1675
  690MOL0     C93022   6.488   1.662   3.240  0.0189  0.4996 -0.4485
  690MOL0     O93023   6.367   1.632   3.182 -0.3239  0.5001 -0.3632
  690MOL0     C93024   6.252   1.711   3.227  0.3160 -0.1340  0.0297
  690MOL0     C93025   6.140   1.605   3.239  0.6853 -0.8790  0.8391
  690MOL0     C93026   5.996   1.668   3.236 -0.3200  0.5645 -0.0836
  690MOL0     C93027   5.884   1.562   3.224  0.5847 -0.2481  0.3955
  690MOL0     C93028   5.751   1.621   3.258 -0.9626  0.8653  0.5621
  690MOL0     C93029   5.713   1.739   3.169 -0.1463 -0.0590  0.0375
  690MOL0     C93030   5.590   1.809   3.212  0.1941  0.2908 -0.9055
  690MOL0     C93031   5.462   1.724   3.204  0.8848 -0.8972 -0.2424
  690MOL0     N93032   5.343   1.806   3.250 -0.5196  0.8335 -0.3516
  690MOL0     C93033   5.301   1.928   3.197 -0.8228  0.8559  0.5869
  690MOL0     C93034   5.183   1.957   3.261  0.3164  0.7461  0.7413
  690MOL0     C93035   5.093   2.070   3.236  0.8870  0.6285 -0.4832
  690MOL0     C93036   4.936   2.040   3.216  0.3423 -0.4801  0.1543
  690MOL0     C93037   4.901   2.007   3.069  0.1653 -0.6853  0.3457
  690MOL0     C93038   4.755   1.985   3.042 -0.3266  0.2047  0.1002
  690MOL0     O93039   4.683   2.093   3.113 -0.4768 -0.3818  0.3876
  690MOL0     C93040   4.550   2.072   3.145  0.0562  0.0192 -0.0837
  690MOL0     C93041   4.469   1.968   3.100  0.3135 -0.2205 -1.3400
  690MOL0     C93042   4.334   1.957   3.144  0.9071 -0.2550  0.1041
  690MOL0     C93043   4.269   1.831   3.098 -0.0047  0.4543 -0.4291
  690MOL0     C93044   4.281   2.051   3.243  0.4615 -0.0434 -0.3958
  690MOL0     C93045   4.143   2.046   3.293 -0.5695  1.0160  0.5518
  690MOL0     O93046   4.092   2.174   3.323  0.6327  0.8428 -0.8800
  690MOL0     C93047   3.967   2.197   3.372 -0.1547  0.2831 -0.6894
  690MOL0     C93048   3.948   2.306   3.459 -0.1325 -0.1487  0.2168
  690MOL0     C93049   3.819   2.343   3.502 -0.8913  0.2966 -0.4485
  690MOL0     C93050   3.713   2.264   3.458 -0.4403 -0.0714  0.4112
  690MOL0     O93051   3.586   2.293   3.495  0.0824 -0.1396  0.2796
  690MOL0     C93052   3.556   2.429   3.522  0.3102 -0.6135 -0.1087
  690MOL0     C93053   3.407   2.440   3.486  0.3032 -1.1337  0.7298
  690MOL0     C93054   3.321   2.348   3.572 -0.0690  0.2327 -0.4635
  690MOL0     C93055   3.170   2.344   3.533  0.3149 -0.4440 -0.3600
  690MOL0     C93056   3.096   2.280   3.650 -0.6120 -0.4945  0.4019
  690MOL0     C93057   2.947   2.269   3.616 -0.3563  0.3008  1.2353
  690MOL0     C93058   2.870   2.174   3.710  0.0182  0.4822 -0.0216
  690MOL0     C93059   2.720   2.161   3.674 -0.4503 -0.5967 -0.6266
  690MOL0    Cl93060   2.692   2.076   3.519 -0.2871  0.0818 -0.3192
  690MOL0     C93061   3.731   2.150   3.376  0.0498 -0.5918  0.0019
  690MOL0     C93062   3.851   2.125   3.331 -0.6041  0.2875  0.6082
  690MOL0     O93063   4.085   1.939   3.304 -0.6105  0.3562 -0.9811
  690MOL0     C93064   4.364   2.158   3.259 -0.2190 -0.2022 -0.4443
  690MOL0     C93065   4.494   2.172   3.220  0.2787 -0.6195 -0.4451
  690MOL0     N93066   5.165   1.848   3.349 -0.6356  0.8213 -1.0644
  690MOL0     N93067   5.263   1.763   3.345 -0.1285 -0.2589 -0.0719
  690MOL0     C93068   6.513   1.770   3.319 -0.4782 -0.0797 -0.8039
  690MOL0     C93069   6.645   1.796   3.361  0.1749 -0.1849 -0.1194
  690MOL0     C93070   7.111   1.757   3.410  0.1070  0.1069  0.3335
  690MOL0     C93071   7.229   1.675   3.435  0.1653  0.5060  0.7710
  690MOL0     C93072   7.350   1.746   3.462  0.2093  0.0589 -0.6901
  690MOL0     C93073   7.367   1.880   3.455  0.4756  0.1541  0.1428
  690MOL0     O93074   7.497   1.923   3.464  0.1354  0.5812 -0.3051
  690MOL0     C93075   7.530   1.961   3.597 -0.7955 -0.6539 -0.3132
  690MOL0     C93076   7.677   1.955   3.622  0.6984 -0.6106 -0.1188
  690MOL0     C93077   7.706   1.972   3.766 -0.4515  0.3354  0.7499
  690MOL0     C93078   7.856   1.977   3.785  0.0981 -0.0258  0.5403
  690MOL0     C93079   7.885   1.965   3.927  0.5870  0.1522 -0.2450
  690MOL0     C93080   7.905   1.945   4.046 -0.3638  0.0717  1.0045
  690MOL0     C93081   7.253   1.966   3.421 -0.4122  0.3093 -0.2820
  690MOL0     C93082   7.126   1.900   3.401 -0.1554 -0.1594  0.4484
  690MOL0     H93083   6.798   1.521   3.234  0.2132  0.5114  0.6238
  690MOL0     H93084   6.567   1.500   3.143 -1.2977 -0.3459  1.2955
  690MOL0     H93085   6.259   1.764   3.323  0.7414  0.1475 -0.1585
  690MOL0     H93086   6.223   1.788   3.155  0.3422 -1.3620 -1.3164
  690MOL0     H93087   6.129   1.534   3.157 -2.3557 -1.3567  1.5148
  690MOL0     H93088   6.151   1.545   3.330 -2.3761 -1.4997  0.9152
  690MOL0     H93089   5.981   1.727   3.327 -2.0867 -0.2354  0.1934
  690MOL0     H93090   5.994   1.735   3.150 -1.2367  0.8975  0.1841
  690MOL0     H93091   5.893   1.512   3.127 -1.4798  0.5912 -0.2877
  690MOL0     H93092   5.898   1.489   3.303  1.1910 -2.2111 -1.4257
  690MOL0     H93093   5.678   1.542   3.242  0.1163  0.0362 -0.4460
  690MOL0     H93094   5.760   1.648   3.363  2.6336 -1.1276  0.9465
  690MOL0     H93095   5.796   1.810   3.174 -1.0241  0.9841  0.1203
  690MOL0     H93096   5.696   1.704   3.067 -3.4795 -0.7612  0.7442
  690MOL0     H93097   5.606   1.827   3.319 -2.1390 -1.5324 -0.1631
  690MOL0     H93098   5.580   1.903   3.156  1.7126 -0.0711 -1.8376
  690MOL0     H93099   5.470   1.635   3.267  2.0248 -1.5076 -1.2158
  690MOL0     H93100   5.447   1.695   3.099  3.2173  0.6384 -1.0684
  690MOL0     H93101   5.345   1.975   3.110 -0.3444 -1.8423 -0.7358
  690MOL0     H93102   5.095   2.145   3.315 -0.9333  2.9060 -2.4470
  690MOL0     H93103   5.121   2.114   3.140 -0.6543 -1.4787 -1.9858
  690MOL0     H93104   4.887   2.129   3.258  1.0932 -0.3918  0.8788
  690MOL0     H93105   4.901   1.957   3.277 -1.2634  0.4000  0.4753
  690MOL0     H93106   4.959   1.922   3.032 -1.1500 -0.8617 -1.4793
  690MOL0     H93107   4.926   2.092   3.005 -0.0284 -0.6891  0.2635
  690MOL0     H93108   4.727   1.888   3.084 -2.4588  1.3217  1.4397
  690MOL0     H93109   4.732   1.988   2.935  0.9294  0.1852 -0.1865
  690MOL0     H93110   4.506   1.882   3.045 -1.7178  0.3049 -3.7068
  690MOL0     H93111   4.283   1.753   3.173 -2.6389  1.0767  0.8509
  690MOL0     H93112   4.161   1.846   3.111 -0.3131 -2.4334  1.2289
  690MOL0     H93113   4.288   1.812   2.992 -0.5735  0.6357 -0.5676
  690MOL0     H93114   4.033   2.366   3.490  0.4879 -1.8514  1.9434
  690MOL0     H93115   3.810   2.434   3.560 -2.7340 -1.3509  2.0762
  690MOL0     H93116   3.572   2.435   3.630  1.1889 -5.7259  0.2987
  690MOL0     H93117   3.604   2.502   3.456 -1.1092  1.3534  0.9172
  690MOL0     H93118   3.377   2.544   3.501 -2.0687 -1.3600 -1.6522
  690MOL0     H93119   3.392   2.417   3.380 -1.1737  1.4093  0.2989
  690MOL0     H93120   3.328   2.385   3.675 -2.6919 -1.7349  0.5311
  690MOL0     H93121   3.357   2.245   3.573 -1.6334 -0.3732  1.9867
  690MOL0     H93122   3.149   2.450   3.517  2.2668 -0.0387 -0.5733
  690MOL0     H93123   3.152   2.290   3.439  0.9730  0.3715 -0.9783
  690MOL0     H93124   3.106   2.338   3.742 -1.5118 -1.8091  1.3623
  690MOL0     H93125   3.128   2.177   3.666  2.1455  0.2877  0.4951
  690MOL0     H93126   2.900   2.367   3.631  1.7672  1.5775 -0.0256
  690MOL0     H93127   2.929   2.255   3.509  0.0706  0.0516  1.1978
  690MOL0     H93128   2.882   2.221   3.808 -0.9790  2.3493 -0.7440
  690MOL0     H93129   2.917   2.075   3.713  0.0009  0.4936  2.0701
  690MOL0     H93130   2.663   2.254   3.675 -0.9246 -0.8708  0.9071
  690MOL0     H93131   2.679   2.098   3.753 -0.4303  2.0849  1.6821
  690MOL0     H93132   3.651   2.081   3.348 -3.6860  3.3121  0.0499
  690MOL0     H93133   3.862   2.037   3.268 -1.8049  0.2532  0.4309
  690MOL0     H93134   4.336   2.243   3.322 -0.2343 -0.3357 -0.2697
  690MOL0     H93135   4.545   2.262   3.253 -3.3320  0.8063  1.8641
  690MOL0     H93136   6.440   1.843   3.354  0.8122  0.3389  1.1988
  690MOL0     H93137   6.664   1.878   3.430  4.4833 -0.9028 -0.2078
  690MOL0     H93138   7.226   1.569   3.457  1.7086  0.5920  1.5429
  690MOL0     H93139   7.432   1.690   3.505 -1.1811 -1.5926 -0.0719
  690MOL0     H93140   7.492   2.059   3.627 -1.0966 -0.7859 -0.2562
  690MOL0     H93141   7.483   1.890   3.666 -0.2196  0.1731  0.9735
  690MOL0     H93142   7.712   2.034   3.556  0.1349 -0.7057 -0.5398
  690MOL0     H93143   7.720   1.860   3.588  1.3726 -0.0347 -0.8879
  690MOL0     H93144   7.668   1.886   3.822 -0.9207  1.0573  1.5478
  690MOL0     H93145   7.655   2.056   3.812 -0.0986  1.1240 -0.2443
  690MOL0     H93146   7.886   2.072   3.740  0.6094 -0.5532 -0.2644
  690MOL0     H93147   7.911   1.896   3.737  0.3470 -2.1430  4.0809
  690MOL0     H93148   7.935   1.939   4.149  3.7228  0.6222  0.0458
  690MOL0     H93149   7.271   2.071   3.401 -2.2629  0.4647 -1.2721
  690MOL0     H93150   7.049   1.968   3.367 -0.8729  0.1549  2.5472
  691MOL0     O93151   5.136   5.544   8.018  0.1184  0.1962  0.2264
  691MOL0     C93152   5.200   5.601   7.922  0.0537 -0.8450  0.1976
  691MOL0     O93153   5.159   5.714   7.860 -0.1637  1.0999  0.0586
  691MOL0     C93154   5.023   5.749   7.874 -0.2459  0.5501  0.4947
  691MOL0     C93155   4.931   5.662   7.820 -0.4937 -0.4413 -0.0405
  691MOL0     C93156   4.789   5.697   7.834  0.5202  0.7312  0.6432
  691MOL0     C93157   4.750   5.804   7.911  0.7929 -0.4672  0.1364
  691MOL0     O93158   4.619   5.835   7.932 -0.9452  0.0422  0.6987
  691MOL0     C93159   4.555   5.871   7.815 -0.4241 -0.6014  0.2658
  691MOL0     C93160   4.404   5.862   7.830  0.2992  0.8135  0.4021
  691MOL0     C93161   4.340   5.722   7.847 -0.8883 -0.6617 -0.9765
  691MOL0     C93162   4.190   5.739   7.831 -0.2687 -0.4137 -0.1659
  691MOL0     C93163   4.106   5.619   7.875 -0.5071  0.6510  0.1320
  691MOL0     C93164   3.968   5.653   7.851  1.2651  0.6933 -0.9887
  691MOL0     C93165   3.869   5.567   7.936  0.1161  0.5522  1.0963
  691MOL0     C93166   3.857   5.417   7.889  0.2927  0.1108 -0.0730
  691MOL0     N93167   3.759   5.351   7.973 -0.8036  0.6281 -0.3523
  691MOL0     C93168   3.779   5.260   8.079  0.0416 -0.8046  0.7086
  691MOL0     C93169   3.651   5.256   8.135 -0.0271  0.3928 -0.3941
  691MOL0     C93170   3.611   5.188   8.260 -0.0508 -0.2611 -0.2088
  691MOL0     C93171   3.531   5.061   8.226 -0.7572 -0.2371  0.1615
  691MOL0     C93172   3.401   5.050   8.298 -0.6305  0.3800 -1.1605
  691MOL0     C93173   3.301   5.140   8.245 -0.2762  0.3706  0.9499
  691MOL0     O93174   3.187   5.128   8.323 -0.4332  0.6674 -0.0046
  691MOL0     C93175   3.069   5.177   8.283 -0.2790 -0.2679  0.4317
  691MOL0     C93176   3.042   5.222   8.147  0.4557 -1.2566 -0.6429
  691MOL0     C93177   2.923   5.295   8.128  0.3306  1.2289  0.2475
  691MOL0     C93178   2.904   5.350   7.989 -0.3287 -0.3271  0.7668
  691MOL0     C93179   2.816   5.299   8.225 -0.1219 -0.3546 -0.0157
  691MOL0     C93180   2.678   5.346   8.206  0.1269 -0.6158 -0.5382
  691MOL0     O93181   2.588   5.333   8.312 -0.0226  0.1833 -0.1199
  691MOL0     C93182   2.452   5.371   8.293  0.0677  0.5932  0.3790
  691MOL0     C93183   2.362   5.295   8.209 -0.0499  0.4165 -0.3504
  691MOL0     C93184   2.227   5.345   8.197  0.2311 -0.0544 -0.1313
  691MOL0     C93185   2.195   5.469   8.234  0.6849  0.0996  0.7301
  691MOL0     O93186   2.066   5.522   8.203  0.1591  1.2831 -0.3029
  691MOL0     C93187   1.988   5.468   8.094  0.0594  0.0898  0.2739
  691MOL0     C93188   1.862   5.570   8.073  0.6533 -0.2710 -0.0689
  691MOL0     C93189   1.736   5.495   8.052 -0.0402  0.0738  0.1733
  691MOL0     C93190   1.628   5.598   8.012  0.2431 -0.7155  0.4026
  691MOL0     C93191   1.495   5.513   8.011 -0.8139  0.1575 -0.3588
  691MOL0     C93192   1.381   5.609   7.997  0.9734  0.2327  0.3887
  691MOL0     C93193   1.244   5.556   7.959  0.9024  0.3294 -0.4474
  691MOL0     C93194   1.244   5.429   7.878 -0.4447 -0.2151  0.7635
  691MOL0    Cl93195   1.077   5.414   7.821  0.3355  0.0942 -0.0599
  691MOL0     C93196   2.277   5.534   8.327 -0.9660 -0.7154  0.0940
  691MOL0     C93197   2.408   5.483   8.360  0.8565 -0.9183 -0.6835
  691MOL0     O93198   2.648   5.394   8.093 -0.8093 -0.1929  0.8067
  691MOL0     C93199   2.855   5.252   8.348 -0.4924  0.4912 -0.4536
  691MOL0     C93200   2.973   5.192   8.382 -0.8370 -1.0016  0.9642
  691MOL0     N93201   3.564   5.329   8.062  0.5505  0.4703 -0.0591
  691MOL0     N93202   3.628   5.370   7.958 -0.4962 -0.0938  0.8821
  691MOL0     C93203   4.841   5.890   7.958 -0.4338 -0.7112  0.3582
  691MOL0     C93204   4.978   5.860   7.946 -0.5707  0.3233  0.2647
  691MOL0     C93205   5.334   5.545   7.882 -0.0673  0.5116  0.0460
  691MOL0     C93206   5.408   5.598   7.779  0.1669 -0.2821  0.0582
  691MOL0     C93207   5.522   5.531   7.729 -0.3534  0.4064 -0.0483
  691MOL0     C93208   5.572   5.413   7.794 -0.0559 -0.1222 -0.5815
  691MOL0     O93209   5.689   5.345   7.751  0.5185 -0.2568 -0.5089
  691MOL0     C93210   5.761   5.382   7.635 -0.5334  1.1748  0.7092
  691MOL0     C93211   5.876   5.276   7.614  0.1376  0.4605 -0.6722
  691MOL0     C93212   5.956   5.314   7.489 -0.0887  0.0068 -0.2728
  691MOL0     C93213   6.083   5.234   7.481 -0.0035  0.2246  0.5444
  691MOL0     C93214   6.152   5.257   7.352 -0.5640  0.4007 -0.3308
  691MOL0     C93215   6.219   5.279   7.253 -0.6365  0.0533 -0.2346
  691MOL0     C93216   5.498   5.360   7.903  0.3693 -0.1851  0.4389
  691MOL0     C93217   5.379   5.423   7.946 -0.3126  0.0704  0.1515
  691MOL0     H93218   4.955   5.574   7.762 -1.0985 -1.2562  0.9157
  691MOL0     H93219   4.722   5.641   7.770  2.6267 -1.0101 -0.1514
  691MOL0     H93220   4.589   5.971   7.787 -1.7186 -0.1990  0.0788
  691MOL0     H93221   4.588   5.807   7.733  2.1151  2.1781 -1.1142
  691MOL0     H93222   4.366   5.927   7.909  1.6791 -1.0935  2.7436
  691MOL0     H93223   4.366   5.898   7.733  0.1589 -1.5080 -0.4607
  691MOL0     H93224   4.366   5.654   7.765  1.4605 -1.7144  0.5441
  691MOL0     H93225   4.373   5.682   7.943 -1.8883 -0.1631 -0.4150
  691MOL0     H93226   4.151   5.824   7.887 -0.5343  1.2624 -2.7430
  691MOL0     H93227   4.161   5.756   7.727 -0.7931  1.6453  0.2683
  691MOL0     H93228   4.133   5.522   7.832 -0.3602  0.8997 -0.3470
  691MOL0     H93229   4.114   5.607   7.983  0.8072 -0.5434 -0.0641
  691MOL0     H93230   3.961   5.756   7.887 -0.0960  0.4580 -0.5627
  691MOL0     H93231   3.938   5.653   7.746  0.6963  1.4588 -0.8307
  691MOL0     H93232   3.910   5.562   8.037  1.6187  2.7498  0.6717
  691MOL0     H93233   3.768   5.611   7.939  0.2768  0.8434  2.6173
  691MOL0     H93234   3.957   5.374   7.898  0.7195  1.0836 -0.0618
  691MOL0     H93235   3.826   5.417   7.784 -0.7097  2.6054  0.1585
  691MOL0     H93236   3.868   5.229   8.132  0.5213 -0.2740  0.2269
  691MOL0     H93237   3.699   5.168   8.322  0.9469  0.3067 -1.3946
  691MOL0     H93238   3.557   5.260   8.323 -0.8382 -2.0856  1.2925
  691MOL0     H93239   3.601   4.983   8.258 -0.7895  0.2369  1.4452
  691MOL0     H93240   3.522   5.042   8.119  1.3566  0.0161 -0.0905
  691MOL0     H93241   3.426   5.076   8.401  1.0120  0.5615 -1.5754
  691MOL0     H93242   3.365   4.947   8.290  0.1920  0.0578 -0.7965
  691MOL0     H93243   3.273   5.124   8.141 -4.0939 -0.7776  2.0111
  691MOL0     H93244   3.337   5.244   8.248  1.5569 -0.0229 -2.4526
  691MOL0     H93245   3.120   5.226   8.071  0.7526  0.4359 -0.2913
  691MOL0     H93246   2.881   5.457   7.995 -0.9244 -0.2560 -1.5796
  691MOL0     H93247   2.991   5.347   7.922 -1.8374 -0.0396 -1.3058
  691MOL0     H93248   2.820   5.301   7.939  2.3643 -2.2369 -2.3105
  691MOL0     H93249   2.409   5.200   8.185  0.1910  0.9511 -2.1269
  691MOL0     H93250   2.148   5.283   8.155  0.7359 -1.4993  0.9358
  691MOL0     H93251   2.036   5.464   7.996 -0.0381  0.4919  0.2078
  691MOL0     H93252   1.951   5.370   8.124 -2.1044  0.5111 -0.7841
  691MOL0     H93253   1.853   5.632   8.162 -0.9928  3.1698 -2.4114
  691MOL0     H93254   1.872   5.636   7.987 -1.4680  0.4831  0.1948
  691MOL0     H93255   1.713   5.460   8.153  0.0689 -2.3036 -0.5800
  691MOL0     H93256   1.735   5.410   7.984  1.6663  0.7604 -0.7867
  691MOL0     H93257   1.622   5.680   8.083 -2.0143 -1.2417  0.8841
  691MOL0     H93258   1.662   5.643   7.918 -0.6455 -0.8434  0.0131
  691MOL0     H93259   1.485   5.455   8.103  3.5991 -1.4306 -0.6530
  691MOL0     H93260   1.502   5.443   7.927  4.6649 -1.2399  0.8247
  691MOL0     H93261   1.369   5.669   8.088 -0.5682 -0.1768  0.4845
  691MOL0     H93262   1.398   5.677   7.913  1.0568 -0.5768 -0.2663
  691MOL0     H93263   1.183   5.634   7.912 -2.9037 -0.7323  2.2354
  691MOL0     H93264   1.180   5.517   8.038  2.5259 -0.1816  0.6763
  691MOL0     H93265   1.276   5.343   7.937  4.5646  1.0443  0.3553
  691MOL0     H93266   1.314   5.441   7.794  1.6615  1.2454  2.5980
  691MOL0     H93267   2.237   5.628   8.363 -0.7037 -0.1145 -1.1329
  691MOL0     H93268   2.479   5.519   8.434  0.0679 -2.2576  0.8000
  691MOL0     H93269   2.790   5.255   8.435 -0.9354 -3.6499 -0.4275
  691MOL0     H93270   3.000   5.153   8.480  0.3021 -0.8122  0.7398
  691MOL0     H93271   4.805   5.978   8.010 -0.1429 -0.2852 -0.1541
  691MOL0     H93272   5.047   5.937   7.980  1.1326 -0.7562 -0.5910
  691MOL0     H93273   5.368   5.690   7.738 -1.6517  1.3899  4.8301
  691MOL0     H93274   5.576   5.562   7.639 -0.2688 -1.0061 -0.5069
  691MOL0     H93275   5.698   5.379   7.546  0.8243 -0.1238 -0.2560
  691MOL0     H93276   5.807   5.479   7.657 -1.5089  1.1566  3.1257
  691MOL0     H93277   5.825   5.180   7.601  1.2511  0.0760 -2.5770
  691MOL0     H93278   5.943   5.266   7.700 -1.5860  0.3810  0.7174
  691MOL0     H93279   5.978   5.422   7.490  1.8093 -0.3542  0.3464
  691MOL0     H93280   5.893   5.290   7.403  1.3121  1.0847 -1.6462
  691MOL0     H93281   6.062   5.127   7.486  1.0952  0.0398  1.6279
  691MOL0     H93282   6.148   5.269   7.562  2.3535  2.2931 -2.0341
  691MOL0     H93283   6.279   5.291   7.165  0.3623  1.5667  0.6201
  691MOL0     H93284   5.549   5.276   7.948  0.9803  0.1091  0.3149
  691MOL0     H93285   5.309   5.381   8.019 -0.3159 -0.2381 -0.0259
  692MOL0     O93286   1.297   6.857   1.795  0.1861 -1.1312  0.1571
  692MOL0     C93287   1.369   6.916   1.872 -0.4264  0.0194 -0.4814
  692MOL0     O93288   1.326   7.011   1.969 -0.0604  0.0574 -0.0002
  692MOL0     C93289   1.199   7.053   1.965  0.3885  1.0179  0.7332
  692MOL0     C93290   1.165   7.188   2.014 -0.5075  0.3159  0.2751
  692MOL0     C93291   1.034   7.227   2.027  0.9488  0.4079  0.9892
  692MOL0     C93292   0.924   7.149   2.006 -0.2576  0.2611 -0.0414
  692MOL0     O93293   0.795   7.187   2.018 -0.5290  0.0121  0.2604
  692MOL0     C93294   0.758   7.224   2.155  0.1048  0.3692 -0.1813
  692MOL0     C93295   0.731   7.379   2.165 -0.2362 -0.5098 -0.0621
  692MOL0     C93296   0.596   7.428   2.126 -0.5911  1.0131  0.7775
  692MOL0     C93297   0.499   7.419   2.249  1.0683 -0.3364  0.1181
  692MOL0     C93298   0.352   7.453   2.219  0.1245  0.2236 -0.5644
  692MOL0     C93299   0.269   7.470   2.354 -0.5826 -0.3518 -0.0503
  692MOL0     C93300   0.134   7.512   2.313  0.1103  0.5703 -0.4492
  692MOL0     C93301   0.047   7.496   2.441  0.4016 -0.0891  0.3905
  692MOL0     N93302  -0.078   7.570   2.436  0.1479 -0.7285  0.3165
  692MOL0     C93303  -0.097   7.711   2.423 -0.8812  0.3025 -0.7145
  692MOL0     C93304  -0.229   7.723   2.447  0.8730  0.3589  0.6782
  692MOL0     C93305  -0.319   7.845   2.440 -0.0811  0.3556 -0.8601
  692MOL0     C93306  -0.463   7.817   2.384 -0.1388  0.5611  1.0801
  692MOL0     C93307  -0.544   7.942   2.346  0.6114 -0.7208  0.4219
  692MOL0     C93308  -0.654   7.915   2.247 -0.5653 -0.2237 -1.2864
  692MOL0     O93309  -0.725   8.033   2.216 -0.1429 -0.3583  0.3272
  692MOL0     C93310  -0.856   8.022   2.168  0.3164  0.0562  0.4822
  692MOL0     C93311  -0.915   8.144   2.137 -0.0201  0.3166 -0.0582
  692MOL0     C93312  -1.041   8.160   2.090  0.1080  0.4010 -0.1244
  692MOL0     C93313  -1.080   8.308   2.091  0.6344  0.1527 -0.1271
  692MOL0     C93314  -1.126   8.048   2.073 -0.0941  0.1075 -0.1486
  692MOL0     C93315  -1.270   8.048   2.053  0.1356 -0.4010 -0.4736
  692MOL0     O93316  -1.321   7.931   2.004 -0.4250 -0.2618  0.8633
  692MOL0     C93317  -1.446   7.924   1.944 -0.3217  0.9292  0.4063
  692MOL0     C93318  -1.527   8.029   1.890 -0.2540  0.7888 -0.1980
  692MOL0     C93319  -1.648   8.007   1.824 -0.4006 -0.1446 -0.2475
  692MOL0     C93320  -1.689   7.877   1.788 -0.7788 -0.1417  0.1505
  692MOL0     O93321  -1.796   7.857   1.713 -0.1308 -0.2679  0.5341
  692MOL0     C93322  -1.888   7.764   1.768 -0.2390 -0.4056  0.0673
  692MOL0     C93323  -2.030   7.817   1.718 -0.8401  0.8888  0.8501
  692MOL0     C93324  -2.133   7.709   1.693 -0.6224 -0.1427  0.2771
  692MOL0     C93325  -2.129   7.640   1.553  0.8436 -0.2812  0.0294
  692MOL0     C93326  -2.165   7.494   1.549 -0.1932  0.1676 -0.2229
  692MOL0     C93327  -2.307   7.451   1.574  0.2366 -0.1954 -0.2625
  692MOL0     C93328  -2.346   7.454   1.719 -0.2628  0.5100  0.5097
  692MOL0     C93329  -2.469   7.370   1.747  0.0303 -0.4198 -1.3198
  692MOL0    Cl93330  -2.501   7.390   1.920  0.1667 -0.2034  0.3791
  692MOL0     C93331  -1.613   7.768   1.832 -1.2112 -0.7703 -0.4590
  692MOL0     C93332  -1.498   7.795   1.918  0.6532  0.1399 -0.9576
  692MOL0     O93333  -1.326   8.158   2.074 -0.5207 -0.4595 -0.2870
  692MOL0     C93334  -1.062   7.924   2.088 -0.2356  0.3205  0.0142
  692MOL0     C93335  -0.927   7.911   2.130 -0.8148 -0.0376 -0.2245
  692MOL0     N93336  -0.275   7.604   2.503  0.0069  0.2554 -0.0896
  692MOL0     N93337  -0.186   7.518   2.495  0.2649  0.1641  0.1033
  692MOL0     C93338   0.954   7.011   1.963  0.0370 -0.5401 -0.3719
  692MOL0     C93339   1.088   6.964   1.949  0.5930  0.2685 -0.0706
  692MOL0     C93340   1.514   6.894   1.860 -0.0254  0.5148  0.8741
  692MOL0     C93341   1.602   6.956   1.950 -0.3143 -0.1974  0.1134
  692MOL0     C93342   1.744   6.949   1.922  0.3922 -0.0665 -0.0095
  692MOL0     C93343   1.793   6.864   1.821 -0.5377  0.3850  0.0305
  692MOL0     O93344   1.929   6.862   1.815 -0.2455 -0.5265  0.7131
  692MOL0     C93345   1.992   6.800   1.706 -0.1811  0.8032 -0.5086
  692MOL0     C93346   2.143   6.778   1.730  0.0638 -0.6491  0.7404
  692MOL0     C93347   2.163   6.686   1.844  0.2391 -0.1700 -0.9832
  692MOL0     C93348   2.292   6.737   1.915 -0.2593  0.3412 -0.5658
  692MOL0     C93349   2.313   6.677   2.050 -0.1605  0.4664  0.1188
  692MOL0     C93350   2.329   6.614   2.149  0.3258  0.7588 -0.4043
  692MOL0     C93351   1.701   6.795   1.732  0.1682  0.1091 -0.0415
  692MOL0     C93352   1.562   6.815   1.752 -0.5318  0.6949  0.2800
  692MOL0     H93353   1.249   7.253   2.035  0.4984 -0.3774 -1.3539
  692MOL0     H93354   1.017   7.329   2.059 -1.6750  0.0931  0.8195
  692MOL0     H93355   0.674   7.158   2.178 -2.2893  2.8658 -1.2165
  692MOL0     H93356   0.840   7.189   2.218  2.8090 -0.2392 -3.7149
  692MOL0     H93357   0.754   7.415   2.266  0.6091  1.2532 -0.8462
  692MOL0     H93358   0.808   7.419   2.099 -0.6957 -1.3282 -1.1169
  692MOL0     H93359   0.600   7.530   2.085  0.3259  1.3184  1.5767
  692MOL0     H93360   0.569   7.356   2.048 -0.1884  1.7257 -0.0423
  692MOL0     H93361   0.492   7.316   2.284 -0.2902 -0.6863 -1.0823
  692MOL0     H93362   0.535   7.488   2.325  0.8455  0.0927 -0.1618
  692MOL0     H93363   0.349   7.549   2.167 -3.6067  0.4461 -0.1915
  692MOL0     H93364   0.304   7.369   2.167  0.2619  0.4909 -1.1249
  692MOL0     H93365   0.260   7.371   2.400  0.8315 -1.3848 -1.8652
  692MOL0     H93366   0.312   7.550   2.416 -1.6712  1.9297 -2.0841
  692MOL0     H93367   0.143   7.617   2.285 -1.1269  1.2142  1.3698
  692MOL0     H93368   0.101   7.439   2.238  2.1426  0.1915 -1.0391
  692MOL0     H93369   0.110   7.541   2.519  0.9780 -2.2857  1.2644
  692MOL0     H93370   0.034   7.390   2.463 -1.1417  0.1809  0.8496
  692MOL0     H93371  -0.023   7.785   2.396 -2.1242  2.0013  0.2938
  692MOL0     H93372  -0.321   7.901   2.534 -2.0621  2.9841 -2.3082
  692MOL0     H93373  -0.264   7.904   2.366  2.4743  2.2227  2.2538
  692MOL0     H93374  -0.526   7.769   2.460 -2.5426  1.1348 -0.4374
  692MOL0     H93375  -0.448   7.751   2.298 -0.3315  0.8132  0.8484
  692MOL0     H93376  -0.474   8.016   2.305  0.3489 -0.4289  0.4912
  692MOL0     H93377  -0.586   7.981   2.440  0.5640 -2.4851  1.1638
  692MOL0     H93378  -0.717   7.844   2.301  0.2745  0.3575  0.5319
  692MOL0     H93379  -0.612   7.863   2.161 -1.2061 -1.3795 -0.9268
  692MOL0     H93380  -0.858   8.234   2.161  1.8850 -0.6622 -0.6692
  692MOL0     H93381  -1.152   8.328   2.011  2.1169 -1.0101 -1.8255
  692MOL0     H93382  -1.124   8.347   2.183  1.5842  0.6557  0.1235
  692MOL0     H93383  -0.993   8.373   2.073  1.4042 -0.6884  0.4853
  692MOL0     H93384  -1.496   8.132   1.903  1.4231 -0.0064  3.1410
  692MOL0     H93385  -1.699   8.095   1.785  1.5788  0.3034 -2.0316
  692MOL0     H93386  -1.864   7.660   1.741 -1.8622 -1.1544  1.3340
  692MOL0     H93387  -1.896   7.775   1.877 -0.3985  0.3983 -0.0229
  692MOL0     H93388  -2.070   7.886   1.792 -2.0456  2.1402 -0.8870
  692MOL0     H93389  -2.009   7.880   1.631 -0.5035 -1.3905 -0.8255
  692MOL0     H93390  -2.232   7.755   1.702 -1.9298 -2.9736  1.5809
  692MOL0     H93391  -2.127   7.640   1.777 -2.0782  1.5064  1.8333
  692MOL0     H93392  -2.193   7.691   1.481  0.0394  1.0026  1.5781
  692MOL0     H93393  -2.024   7.652   1.528  0.5665  1.7175 -0.3152
  692MOL0     H93394  -2.096   7.458   1.626 -0.5907  1.2493  0.6621
  692MOL0     H93395  -2.144   7.456   1.448 -0.1089  1.1650 -0.5875
  692MOL0     H93396  -2.379   7.519   1.529  0.0515 -1.4861 -2.0060
  692MOL0     H93397  -2.319   7.353   1.528  0.2720  0.5108 -1.8325
  692MOL0     H93398  -2.374   7.559   1.734  3.6071  1.8158 -0.2963
  692MOL0     H93399  -2.262   7.421   1.780  0.8535  1.6250 -0.3515
  692MOL0     H93400  -2.445   7.266   1.727 -0.2117 -0.4769 -1.3167
  692MOL0     H93401  -2.560   7.407   1.698 -1.9113 -2.4071  0.6072
  692MOL0     H93402  -1.640   7.668   1.801  2.1749 -1.8565 -0.3494
  692MOL0     H93403  -1.451   7.716   1.975  2.0830  0.3509 -1.7981
  692MOL0     H93404  -1.113   7.829   2.069 -0.3590  0.5220 -0.7035
  692MOL0     H93405  -0.886   7.810   2.121 -0.6229 -0.0242  0.4046
  692MOL0     H93406   0.870   6.942   1.968  0.4533 -0.9839  1.0348
  692MOL0     H93407   1.108   6.860   1.928 -0.6226 -0.3197  1.5258
  692MOL0     H93408   1.571   7.025   2.028 -0.6967  1.9522 -1.8374
  692MOL0     H93409   1.815   7.011   1.975  0.6732 -1.9774  1.9700
  692MOL0     H93410   1.938   6.705   1.701 -1.1776  0.9286  3.8075
  692MOL0     H93411   1.972   6.856   1.614 -0.1001  0.7575 -0.5543
  692MOL0     H93412   2.179   6.880   1.749 -0.4746 -0.6865  2.0501
  692MOL0     H93413   2.196   6.737   1.644  1.2852  2.7909 -0.3083
  692MOL0     H93414   2.166   6.583   1.806 -0.7881 -0.6363  0.1359
  692MOL0     H93415   2.084   6.689   1.919 -0.9609  1.1967 -2.2365
  692MOL0     H93416   2.288   6.846   1.921 -0.1344  0.2692  3.5423
  692MOL0     H93417   2.378   6.706   1.855  0.4170  0.5777  0.2660
  692MOL0     H93418   2.341   6.546   2.230  1.5230  1.4675  0.0452
  692MOL0     H93419   1.732   6.738   1.645  2.7906  1.0402  0.2056
  692MOL0     H93420   1.487   6.770   1.688  0.5736 -2.0441  0.7653
  693MOL0     O93421   0.260  11.154   0.738 -0.2912 -0.1304  0.6529
  693MOL0     C93422   0.347  11.095   0.674  0.3908 -0.2621  0.4872
  693MOL0     O93423   0.328  11.023   0.563 -0.2980  0.1934  0.4027
  693MOL0     C93424   0.201  11.005   0.509 -0.6207 -1.3435  0.0574
  693MOL0     C93425   0.100  11.099   0.507  0.4470  0.1492 -0.5295
  693MOL0     C93426  -0.018  11.074   0.435  0.2746 -0.7324 -0.5087
  693MOL0     C93427  -0.044  10.961   0.357 -0.4787 -0.2044 -0.2703
  693MOL0     O93428  -0.159  10.948   0.281 -0.0023  0.1005  0.1813
  693MOL0     C93429  -0.179  10.827   0.206  0.6944  0.1274 -0.1290
  693MOL0     C93430  -0.325  10.826   0.159  0.1596 -0.3289  0.1509
  693MOL0     C93431  -0.340  10.744   0.036  0.3335  0.5213 -0.6048
  693MOL0     C93432  -0.468  10.763  -0.044  0.7012 -0.1367  0.5578
  693MOL0     C93433  -0.599  10.750   0.036 -0.1788 -0.2943 -0.2242
  693MOL0     C93434  -0.732  10.772  -0.032 -0.7860  0.1754 -0.0361
  693MOL0     C93435  -0.740  10.727  -0.180  0.1410  0.7402  0.4642
  693MOL0     C93436  -0.776  10.579  -0.200 -0.3333  0.5022  0.4226
  693MOL0     N93437  -0.809  10.545  -0.339  0.1379 -0.4190  0.2087
  693MOL0     C93438  -0.930  10.579  -0.391  0.6918 -0.2639  0.2529
  693MOL0     C93439  -0.927  10.543  -0.524 -0.4471  1.0950  0.5926
  693MOL0     C93440  -1.022  10.570  -0.635 -0.1263  0.3000 -0.2055
  693MOL0     C93441  -1.162  10.512  -0.605 -0.2156 -0.0589  0.3704
  693MOL0     C93442  -1.239  10.501  -0.737 -0.3413  0.3701 -0.8838
  693MOL0     C93443  -1.386  10.474  -0.701  0.4093 -0.2608 -0.1138
  693MOL0     O93444  -1.469  10.484  -0.819 -0.3181  0.3315 -0.0660
  693MOL0     C93445  -1.604  10.470  -0.797 -1.1459 -0.9190 -0.3347
  693MOL0     C93446  -1.669  10.415  -0.689  0.4372  0.1729  0.0469
  693MOL0     C93447  -1.811  10.414  -0.684 -0.3716 -0.4314  0.4390
  693MOL0     C93448  -1.882  10.367  -0.560  0.3255  0.8069  0.4643
  693MOL0     C93449  -1.888  10.469  -0.791 -0.0629  0.8392  1.1998
  693MOL0     C93450  -2.038  10.472  -0.790  0.1112 -0.6103  0.0297
  693MOL0     O93451  -2.110  10.380  -0.717 -0.4954  0.2676  0.0471
  693MOL0     C93452  -2.246  10.374  -0.714  0.1614 -0.4290 -0.6821
  693MOL0     C93453  -2.316  10.394  -0.832  0.1137  0.9665 -0.0716
  693MOL0     C93454  -2.453  10.391  -0.826  0.4393  0.2487  0.1555
  693MOL0     C93455  -2.525  10.386  -0.704  0.0675 -0.0706  0.5346
  693MOL0     O93456  -2.659  10.412  -0.683  0.1835 -0.6200  0.0285
  693MOL0     C93457  -2.744  10.388  -0.797 -0.1593 -1.0842 -0.4448
  693MOL0     C93458  -2.884  10.395  -0.736 -0.1075  0.3278 -0.4592
  693MOL0     C93459  -2.903  10.295  -0.625  0.2929  0.4871 -0.2562
  693MOL0     C93460  -3.048  10.297  -0.572  0.2065  0.7504  0.5344
  693MOL0     C93461  -3.131  10.206  -0.664 -1.6281  0.2046  0.6257
  693MOL0     C93462  -3.268  10.168  -0.608 -1.1519  0.7144 -0.6699
  693MOL0     C93463  -3.359  10.114  -0.721  0.3841 -0.5460  0.4391
  693MOL0     C93464  -3.487  10.063  -0.661  0.7326  0.7165  0.3721
  693MOL0    Cl93465  -3.465   9.890  -0.619 -0.4291 -0.0879  0.8242
  693MOL0     C93466  -2.452  10.367  -0.588 -0.1288 -0.6004 -0.2634
  693MOL0     C93467  -2.313  10.366  -0.593 -0.0253  0.2729  0.8009
  693MOL0     O93468  -2.092  10.567  -0.848 -0.7617  0.0765 -0.1461
  693MOL0     C93469  -1.815  10.513  -0.903 -0.0252  0.2045  0.0833
  693MOL0     C93470  -1.677  10.512  -0.906  0.2578 -0.5829  0.3765
  693MOL0     N93471  -0.805  10.477  -0.536  0.1544 -0.8502  0.1329
  693MOL0     N93472  -0.743  10.468  -0.422  0.2139  0.0445  0.5693
  693MOL0     C93473   0.063  10.878   0.351  0.0946 -0.2550 -0.0730
  693MOL0     C93474   0.180  10.896   0.427  0.0745  0.1626  0.5534
  693MOL0     C93475   0.480  11.101   0.737 -0.1856 -0.0704 -0.7323
  693MOL0     C93476   0.503  11.172   0.858  0.5096  0.5611  0.2402
  693MOL0     C93477   0.635  11.173   0.915 -0.1085 -0.3221  0.2640
  693MOL0     C93478   0.735  11.107   0.842 -0.1005 -0.1953 -0.5006
  693MOL0     O93479   0.865  11.092   0.886  0.1991  0.5864 -0.3004
  693MOL0     C93480   0.938  11.210   0.928  0.3461 -0.1750  0.7054
  693MOL0     C93481   1.083  11.191   0.943  0.0916 -0.1963 -0.2067
  693MOL0     C93482   1.122  11.075   1.036 -1.1532  0.3904 -0.6622
  693MOL0     C93483   1.273  11.057   1.070  1.2702  0.4475  0.2424
  693MOL0     C93484   1.295  10.915   1.088  0.2177  0.2622 -0.0974
  693MOL0     C93485   1.308  10.806   1.145  0.6475 -0.5698  0.5354
  693MOL0     C93486   0.708  11.040   0.727  0.2486 -0.1355  0.4245
  693MOL0     C93487   0.584  11.038   0.674  0.4768  0.3477  0.6084
  693MOL0     H93488   0.119  11.195   0.554  2.5082  0.5053 -1.9380
  693MOL0     H93489  -0.103  11.142   0.436 -1.2075 -2.4436 -2.3577
  693MOL0     H93490  -0.110  10.820   0.122  0.7750  1.0230 -0.1559
  693MOL0     H93491  -0.171  10.737   0.268 -1.5509  0.2634  0.4411
  693MOL0     H93492  -0.379  10.796   0.249  1.4375 -0.6701  0.8326
  693MOL0     H93493  -0.355  10.928   0.131  0.1106 -1.0240 -2.7072
  693MOL0     H93494  -0.251  10.765  -0.025  3.3173 -3.0664  2.0089
  693MOL0     H93495  -0.335  10.640   0.070 -0.7172  0.6020 -0.1573
  693MOL0     H93496  -0.480  10.863  -0.087 -1.3023  0.4784  2.3389
  693MOL0     H93497  -0.472  10.684  -0.119  0.4767  0.9286 -0.5749
  693MOL0     H93498  -0.588  10.648   0.074  3.2441 -0.3887 -1.1365
  693MOL0     H93499  -0.586  10.817   0.121  0.1563 -1.2353  0.4837
  693MOL0     H93500  -0.811  10.727   0.029 -1.5638  1.5578  0.0359
  693MOL0     H93501  -0.756  10.879  -0.026 -3.9685 -0.4486  0.6466
  693MOL0     H93502  -0.819  10.788  -0.225 -1.2959 -2.3263 -1.5791
  693MOL0     H93503  -0.646  10.753  -0.231 -0.3575  1.5401 -0.0785
  693MOL0     H93504  -0.866  10.551  -0.144  0.5854 -5.9130 -0.5039
  693MOL0     H93505  -0.690  10.516  -0.177 -1.2365 -1.4744 -1.3185
  693MOL0     H93506  -1.008  10.629  -0.335  1.6647  2.2047 -0.4841
  693MOL0     H93507  -1.022  10.678  -0.654 -1.5573  0.4949  0.7564
  693MOL0     H93508  -0.976  10.535  -0.728 -0.9299  1.2903 -1.0126
  693MOL0     H93509  -1.209  10.580  -0.533  2.3793  2.2684  0.0630
  693MOL0     H93510  -1.154  10.410  -0.566 -0.2898  0.2984  1.3623
  693MOL0     H93511  -1.192  10.423  -0.797  2.6310 -0.1507  1.8456
  693MOL0     H93512  -1.228  10.595  -0.793 -0.5435 -0.8860 -3.1589
  693MOL0     H93513  -1.424  10.554  -0.637 -1.0917  0.1386 -1.4362
  693MOL0     H93514  -1.409  10.383  -0.645 -0.5103 -0.0176 -0.0795
  693MOL0     H93515  -1.612  10.366  -0.610  3.2375  1.9032 -0.7674
  693MOL0     H93516  -1.945  10.438  -0.505  0.2247  0.4477  0.8182
  693MOL0     H93517  -1.930  10.272  -0.585  1.5706  0.6906 -1.6949
  693MOL0     H93518  -1.808  10.331  -0.488  1.0545  1.6959  0.1829
  693MOL0     H93519  -2.271  10.410  -0.929 -1.4867 -0.8970 -1.1926
  693MOL0     H93520  -2.508  10.399  -0.919 -1.5767 -3.7669  0.7689
  693MOL0     H93521  -2.731  10.459  -0.880  2.5874 -1.0033 -0.0682
  693MOL0     H93522  -2.730  10.291  -0.844  2.1736 -1.5633  1.0567
  693MOL0     H93523  -2.909  10.491  -0.690  1.3579 -0.5722  2.4559
  693MOL0     H93524  -2.957  10.373  -0.815 -0.8892  1.3296 -0.0378
  693MOL0     H93525  -2.830  10.316  -0.546  1.9816 -0.5035 -1.4892
  693MOL0     H93526  -2.865  10.198  -0.656  1.5767  0.6728  0.6643
  693MOL0     H93527  -3.049  10.266  -0.467  2.2566 -0.2354  0.3124
  693MOL0     H93528  -3.083  10.401  -0.569  1.6122  1.2309  1.5110
  693MOL0     H93529  -3.078  10.111  -0.680 -2.4036 -0.0447 -0.6437
  693MOL0     H93530  -3.147  10.255  -0.761  2.5364  2.6431  0.9249
  693MOL0     H93531  -3.246  10.094  -0.531  1.2585  0.1298 -1.8192
  693MOL0     H93532  -3.308  10.256  -0.558 -0.7579  1.2666 -1.3212
  693MOL0     H93533  -3.309  10.036  -0.779  2.6268  0.2980  1.0957
  693MOL0     H93534  -3.380  10.201  -0.785  2.7939  0.1754  0.5277
  693MOL0     H93535  -3.563  10.070  -0.739  0.3347  1.5802  0.8293
  693MOL0     H93536  -3.508  10.115  -0.567 -1.9173  1.2087 -0.4111
  693MOL0     H93537  -2.495  10.365  -0.489 -1.6838  0.4959 -0.8858
  693MOL0     H93538  -2.256  10.371  -0.501  1.7686  2.9385 -0.3306
  693MOL0     H93539  -1.860  10.541  -0.998  2.0381 -4.7255 -2.7068
  693MOL0     H93540  -1.637  10.551  -0.999 -0.5678  0.2890  0.3753
  693MOL0     H93541   0.057  10.787   0.293 -1.5416  1.2243 -2.3997
  693MOL0     H93542   0.256  10.819   0.417  1.6895  1.8827 -1.4152
  693MOL0     H93543   0.416  11.211   0.910  0.2746  1.1981 -0.6106
  693MOL0     H93544   0.662  11.216   1.011  0.6003  0.7602 -0.3968
  693MOL0     H93545   0.926  11.291   0.855  4.5513  0.0167 -0.0121
  693MOL0     H93546   0.910  11.243   1.029  0.9474 -1.7762  1.4215
  693MOL0     H93547   1.128  11.283   0.982  0.9182  0.4982 -2.6046
  693MOL0     H93548   1.135  11.171   0.849 -1.4362 -1.4162 -0.8311
  693MOL0     H93549   1.095  10.979   0.991  1.2831 -1.5377  1.6456
  693MOL0     H93550   1.077  11.078   1.136  1.8305  1.2950  0.7774
  693MOL0     H93551   1.306  11.123   1.150  0.7513  1.3950 -0.2977
  693MOL0     H93552   1.329  11.090   0.982  0.3312  1.4132 -0.0301
  693MOL0     H93553   1.312  10.714   1.199  1.0187 -0.9350 -0.1121
  693MOL0     H93554   0.787  10.989   0.673  0.6736  0.0444  0.8708
  693MOL0     H93555   0.578  10.999   0.573  1.5834  0.5702  0.4467
  694MOL0     O93556   5.524   9.431   0.204  0.1859  0.0914  0.2023
  694MOL0     C93557   5.508   9.310   0.200  0.3866  0.9428  0.3986
  694MOL0     O93558   5.394   9.244   0.207  0.2310 -0.2093 -0.1022
  694MOL0     C93559   5.276   9.298   0.255 -1.3295  0.6271  1.1601
  694MOL0     C93560   5.240   9.431   0.248 -0.0705 -0.2260  0.2198
  694MOL0     C93561   5.109   9.457   0.294 -0.4356  0.1509  0.0097
  694MOL0     C93562   5.032   9.357   0.347  1.0497  0.6500 -0.3297
  694MOL0     O93563   4.904   9.376   0.394  0.0677 -0.3733  0.7109
  694MOL0     C93564   4.824   9.488   0.342 -0.0047  0.4470 -0.1756
  694MOL0     C93565   4.680   9.482   0.395  0.1579  0.1701  0.2251
  694MOL0     C93566   4.630   9.338   0.369 -0.2272 -0.6310  0.2534
  694MOL0     C93567   4.493   9.311   0.422 -0.1091  0.1771  0.7402
  694MOL0     C93568   4.389   9.356   0.321  0.0004 -0.6528  0.2127
  694MOL0     C93569   4.259   9.288   0.362 -0.4474 -0.1342 -0.2036
  694MOL0     C93570   4.156   9.334   0.260 -0.3928 -0.4740 -0.7813
  694MOL0     C93571   4.026   9.271   0.274 -0.1327  0.1968 -0.2637
  694MOL0     N93572   3.972   9.291   0.413  0.2673 -0.3718  0.8048
  694MOL0     C93573   3.934   9.414   0.467  0.3321  0.0340  1.0859
  694MOL0     C93574   3.871   9.394   0.580  0.0333  1.3661 -1.0956
  694MOL0     C93575   3.801   9.478   0.682 -0.4289 -0.4646 -0.7975
  694MOL0     C93576   3.644   9.467   0.665  0.5931  0.7764 -0.5093
  694MOL0     C93577   3.570   9.572   0.757  0.5157 -0.8579  0.7759
  694MOL0     C93578   3.422   9.565   0.748  0.2031 -0.5781  0.2692
  694MOL0     O93579   3.367   9.534   0.880  0.4202  0.1553 -0.1137
  694MOL0     C93580   3.231   9.512   0.897  0.1935 -0.5495 -0.1042
  694MOL0     C93581   3.191   9.481   1.031 -0.0328  0.1944  1.0609
  694MOL0     C93582   3.056   9.474   1.071  0.3034  0.7135 -0.0063
  694MOL0     C93583   3.026   9.428   1.213  0.5618  0.3332  0.4471
  694MOL0     C93584   2.957   9.490   0.975  0.8688  0.6096 -0.5066
  694MOL0     C93585   2.813   9.462   0.994 -0.0519  1.3146 -0.8538
  694MOL0     O93586   2.792   9.343   1.060 -0.0538  0.4124 -0.0416
  694MOL0     C93587   2.667   9.317   1.088  0.2764  0.1123  1.2088
  694MOL0     C93588   2.610   9.394   1.196 -0.2641  0.6257 -0.3304
  694MOL0     C93589   2.473   9.372   1.217  0.3620 -0.1342  0.9538
  694MOL0     C93590   2.399   9.282   1.139 -0.3836 -0.3147 -0.9350
  694MOL0     O93591   2.264   9.261   1.183  0.2619 -0.9217  0.0731
  694MOL0     C93592   2.180   9.178   1.097  0.0351 -0.0136  0.4229
  694MOL0     C93593   2.037   9.237   1.105  0.5626 -0.3847 -0.0848
  694MOL0     C93594   1.928   9.163   1.032  0.1542  0.3531  0.6250
  694MOL0     C93595   1.945   9.180   0.877  0.5891  0.7790 -0.0945
  694MOL0     C93596   1.825   9.114   0.807 -1.0074 -0.6689  0.4154
  694MOL0     C93597   1.812   9.137   0.656  0.7546 -0.2879 -0.4650
  694MOL0     C93598   1.926   9.071   0.573  0.5568 -0.6239  0.3323
  694MOL0     C93599   1.938   9.129   0.424  0.2714  1.0193  0.1642
  694MOL0    Cl93600   1.776   9.114   0.338  0.1806 -0.1231 -0.2507
  694MOL0     C93601   2.465   9.208   1.036 -0.4978 -0.5634 -0.0373
  694MOL0     C93602   2.604   9.220   1.020 -0.2595 -0.1220 -0.0550
  694MOL0     O93603   2.722   9.528   0.941 -0.5433 -0.0165  0.1019
  694MOL0     C93604   3.000   9.530   0.851 -0.2670  0.6781  0.1805
  694MOL0     C93605   3.132   9.531   0.801 -0.0200  0.4315 -0.0424
  694MOL0     N93606   3.866   9.254   0.602  0.2735  0.0919 -0.7592
  694MOL0     N93607   3.943   9.200   0.506  0.1325  0.0347 -0.3284
  694MOL0     C93608   5.072   9.226   0.358 -0.2102 -0.5165  0.3943
  694MOL0     C93609   5.202   9.200   0.307  0.4346  0.9147 -0.1846
  694MOL0     C93610   5.630   9.229   0.162 -0.5884 -0.3532  0.4121
  694MOL0     C93611   5.627   9.088   0.131 -0.1404 -0.3907 -1.0468
  694MOL0     C93612   5.743   9.017   0.116 -0.3144 -0.6025 -0.4359
  694MOL0     C93613   5.870   9.081   0.107 -0.3612  0.8452 -0.0176
  694MOL0     O93614   5.988   9.017   0.073 -0.4363  0.2800 -0.8412
  694MOL0     C93615   6.020   8.880   0.127  0.9724 -0.1289 -0.3950
  694MOL0     C93616   6.054   8.882   0.284  0.8489  0.1380 -0.1874
  694MOL0     C93617   6.046   8.742   0.347 -0.0486  0.4567 -0.7576
  694MOL0     C93618   6.156   8.643   0.297  0.3705  0.1822  0.8947
  694MOL0     C93619   6.208   8.563   0.409 -0.2157 -0.2137  0.6906
  694MOL0     C93620   6.263   8.492   0.496  0.3227  0.9914  0.2871
  694MOL0     C93621   5.874   9.216   0.126  0.2045  0.2563 -0.4114
  694MOL0     C93622   5.756   9.290   0.166  0.3119 -0.0778  0.0292
  694MOL0     H93623   5.302   9.515   0.217 -2.8393  2.1610  0.7028
  694MOL0     H93624   5.077   9.561   0.296  0.6153  0.4710  0.7328
  694MOL0     H93625   4.868   9.583   0.375  0.2831  0.1353  0.3444
  694MOL0     H93626   4.819   9.493   0.233 -1.3681 -2.4490 -0.3246
  694MOL0     H93627   4.674   9.514   0.499  1.3213 -3.7332  1.6784
  694MOL0     H93628   4.606   9.538   0.338  0.1113 -1.7935 -1.7582
  694MOL0     H93629   4.640   9.314   0.263  3.9309 -0.9003  0.5217
  694MOL0     H93630   4.697   9.263   0.414 -3.6697 -2.7193  2.3393
  694MOL0     H93631   4.475   9.204   0.435  1.3364 -0.5486 -2.3541
  694MOL0     H93632   4.483   9.355   0.522  1.1997  0.0559  0.9372
  694MOL0     H93633   4.382   9.465   0.318  0.1904 -0.6516 -3.1724
  694MOL0     H93634   4.424   9.322   0.224  0.0014  2.5575 -1.0406
  694MOL0     H93635   4.263   9.179   0.356  2.8670 -0.0048 -2.1983
  694MOL0     H93636   4.239   9.312   0.467  0.1927 -0.4400 -0.0135
  694MOL0     H93637   4.136   9.442   0.258 -2.9034 -0.7444  1.9996
  694MOL0     H93638   4.188   9.295   0.163 -0.5678 -0.3127 -0.9039
  694MOL0     H93639   4.044   9.164   0.260  2.7381  0.1598  2.5103
  694MOL0     H93640   3.954   9.307   0.200 -0.2623  2.1813  0.7435
  694MOL0     H93641   3.937   9.509   0.415  2.7586  0.5616  2.0375
  694MOL0     H93642   3.831   9.440   0.780  0.5205 -0.1221 -0.9444
  694MOL0     H93643   3.850   9.575   0.669  0.9122 -1.0411 -0.3023
  694MOL0     H93644   3.599   9.368   0.680  2.2112  0.1506  0.4675
  694MOL0     H93645   3.630   9.502   0.562  2.4176 -2.0623 -1.8390
  694MOL0     H93646   3.592   9.669   0.712 -1.3587 -0.0388  1.5181
  694MOL0     H93647   3.612   9.585   0.858  1.0641  1.0168  0.3456
  694MOL0     H93648   3.394   9.478   0.689 -1.6372 -0.1215  0.4138
  694MOL0     H93649   3.383   9.657   0.703 -0.6247 -0.5433  1.0508
  694MOL0     H93650   3.273   9.467   1.100  0.4147 -1.1883  0.2885
  694MOL0     H93651   3.033   9.323   1.243 -2.2921 -0.5703 -1.6323
  694MOL0     H93652   3.088   9.482   1.284  1.2628 -1.3419  1.1775
  694MOL0     H93653   2.929   9.463   1.249  0.3876  2.0344 -1.4991
  694MOL0     H93654   2.676   9.441   1.268 -2.4159  2.6804  0.4230
  694MOL0     H93655   2.417   9.415   1.300  1.6569  1.8380  0.8838
  694MOL0     H93656   2.213   9.185   0.993  2.2963 -2.0790  0.8950
  694MOL0     H93657   2.183   9.078   1.141 -0.3924 -0.6246 -0.8730
  694MOL0     H93658   2.022   9.234   1.213  2.6869 -0.6316  0.2464
  694MOL0     H93659   2.030   9.344   1.082 -1.2469 -0.3839  0.3351
  694MOL0     H93660   1.830   9.204   1.058 -0.9426 -1.6720 -0.0474
  694MOL0     H93661   1.925   9.056   1.055  0.5907 -0.6398 -3.1578
  694MOL0     H93662   1.953   9.285   0.851  1.2927  0.4058 -1.4638
  694MOL0     H93663   2.032   9.120   0.848  2.4337  1.6096  3.1873
  694MOL0     H93664   1.734   9.148   0.858  0.5031 -0.0849  2.8986
  694MOL0     H93665   1.827   9.007   0.830 -1.3417 -0.1618  3.1122
  694MOL0     H93666   1.719   9.088   0.624  0.4028  0.6874 -0.9815
  694MOL0     H93667   1.802   9.245   0.645 -1.4329 -0.0485  2.5058
  694MOL0     H93668   1.919   8.962   0.565  1.4706 -0.7449  1.0344
  694MOL0     H93669   2.021   9.088   0.624  0.8142  0.3683 -0.4434
  694MOL0     H93670   2.023   9.088   0.369 -0.2009  1.5463 -0.9919
  694MOL0     H93671   1.965   9.234   0.436 -3.5501  2.3824 -1.6501
  694MOL0     H93672   2.411   9.139   0.972 -1.4700  0.4197 -0.3166
  694MOL0     H93673   2.647   9.154   0.945 -3.0794 -0.9072 -1.1144
  694MOL0     H93674   2.918   9.546   0.782 -0.8579 -1.4039  0.3449
  694MOL0     H93675   3.153   9.559   0.698 -1.5149  0.1859 -0.4408
  694MOL0     H93676   5.006   9.150   0.400 -1.9658  1.0662  0.6196
  694MOL0     H93677   5.236   9.097   0.303 -0.9468  0.2775  2.3297
  694MOL0     H93678   5.529   9.042   0.124 -0.1176 -0.7165  0.4808
  694MOL0     H93679   5.737   8.912   0.092 -0.0358 -0.8212  0.4105
  694MOL0     H93680   5.939   8.810   0.102 -0.4451  0.6037  1.8273
  694MOL0     H93681   6.107   8.840   0.075  1.2852 -0.6889  0.5252
  694MOL0     H93682   5.981   8.953   0.324  0.2006 -0.2441 -0.6744
  694MOL0     H93683   6.153   8.929   0.283  1.2904 -0.7520  0.0918
  694MOL0     H93684   5.948   8.695   0.336  0.2307 -0.3587  0.1201
  694MOL0     H93685   6.063   8.774   0.451  2.6662  0.5054 -1.1377
  694MOL0     H93686   6.231   8.704   0.247  2.4013 -0.2912  3.1486
  694MOL0     H93687   6.109   8.570   0.231  2.7976 -0.7406  0.0641
  694MOL0     H93688   6.314   8.412   0.546  2.1538  1.2124 -1.1188
  694MOL0     H93689   5.963   9.277   0.121  0.7319 -0.6099 -2.1905
  694MOL0     H93690   5.775   9.389   0.206 -1.8558 -0.0343  1.0764
  695MOL0     O93691   7.093   5.199   1.847 -0.7218 -0.3853  0.6340
  695MOL0     C93692   7.032   5.193   1.955 -0.1993  0.8090 -0.6267
  695MOL0     O93693   6.916   5.115   1.975 -0.2526 -0.0436  0.2729
  695MOL0     C93694   6.893   5.024   1.874  0.5283 -0.1475  0.8833
  695MOL0     C93695   6.762   5.016   1.832  0.9971 -0.2612  0.3322
  695MOL0     C93696   6.723   4.925   1.727 -0.0925  0.3043 -0.3092
  695MOL0     C93697   6.819   4.835   1.679  0.7463  0.8465  0.9056
  695MOL0     O93698   6.775   4.739   1.590  0.1065 -0.3068  0.2931
  695MOL0     C93699   6.851   4.613   1.588 -0.0281  0.2336  0.6187
  695MOL0     C93700   6.773   4.481   1.548 -0.6758 -0.2364 -0.2900
  695MOL0     C93701   6.627   4.481   1.526 -0.7174  0.4100 -0.0834
  695MOL0     C93702   6.586   4.555   1.398 -0.9449 -0.4706 -0.1647
  695MOL0     C93703   6.439   4.554   1.374  0.0834 -0.2944  0.3241
  695MOL0     C93704   6.374   4.418   1.367 -0.2478  0.1101  0.0657
  695MOL0     C93705   6.232   4.424   1.306 -0.4620  0.1106  0.4333
  695MOL0     C93706   6.197   4.293   1.220 -0.5034 -1.2580 -0.4182
  695MOL0     N93707   6.052   4.299   1.191  0.4155  0.8414 -0.1959
  695MOL0     C93708   5.974   4.408   1.171 -0.6311 -1.0177 -0.4251
  695MOL0     C93709   5.850   4.361   1.137  0.4526 -0.9733 -0.5288
  695MOL0     C93710   5.731   4.444   1.097 -0.4258 -0.8880 -0.0970
  695MOL0     C93711   5.614   4.395   1.180  0.2398 -0.3527 -0.1286
  695MOL0     C93712   5.529   4.509   1.214 -0.4771 -0.6195 -0.4435
  695MOL0     C93713   5.387   4.480   1.262 -0.5365 -0.3236  0.6061
  695MOL0     O93714   5.304   4.483   1.149  0.2535 -0.3233  0.1248
  695MOL0     C93715   5.170   4.485   1.162  0.1086  0.5215 -0.0962
  695MOL0     C93716   5.090   4.476   1.045 -0.3341  0.6054 -0.7926
  695MOL0     C93717   4.953   4.489   1.059  0.4388  0.7960  0.7995
  695MOL0     C93718   4.880   4.483   0.926  0.0698 -0.5939  0.2823
  695MOL0     C93719   4.880   4.487   1.179  0.5408  0.1812 -0.1447
  695MOL0     C93720   4.732   4.480   1.187  0.1377  0.8547 -0.6728
  695MOL0     O93721   4.679   4.506   1.312  0.2532 -0.2135  0.8230
  695MOL0     C93722   4.537   4.514   1.321  0.3477  0.3682  0.1851
  695MOL0     C93723   4.451   4.415   1.292 -0.7102 -0.4586 -0.3542
  695MOL0     C93724   4.313   4.426   1.308 -0.0872  1.4936 -0.5851
  695MOL0     C93725   4.254   4.542   1.362 -0.4112  0.1974  0.2437
  695MOL0     O93726   4.121   4.538   1.378 -0.2075 -0.0882  0.3542
  695MOL0     C93727   4.054   4.638   1.305  0.3057 -1.0179 -0.5726
  695MOL0     C93728   3.994   4.736   1.409  0.6160  0.6815  0.3810
  695MOL0     C93729   3.920   4.847   1.333  0.3223 -0.6469 -0.3536
  695MOL0     C93730   3.826   4.925   1.425  0.1972 -1.1049 -0.2555
  695MOL0     C93731   3.709   4.846   1.465 -0.3363 -0.3891  0.0078
  695MOL0     C93732   3.636   4.905   1.585 -0.5185 -0.1632 -0.0064
  695MOL0     C93733   3.587   5.049   1.569 -0.2892  0.4842  0.1378
  695MOL0     C93734   3.487   5.088   1.686  0.1262 -0.5194  0.2695
  695MOL0    Cl93735   3.447   5.254   1.637 -0.2332  0.5618  0.2230
  695MOL0     C93736   4.345   4.645   1.393  0.4146 -0.7670  0.2469
  695MOL0     C93737   4.479   4.632   1.368  1.3881 -1.0332 -0.4152
  695MOL0     O93738   4.661   4.469   1.090 -0.8421 -0.6389  0.2625
  695MOL0     C93739   4.961   4.485   1.292 -0.2768 -0.7219  0.0605
  695MOL0     C93740   5.095   4.485   1.279  0.0865 -0.7260 -0.6104
  695MOL0     N93741   5.851   4.219   1.148  0.0358  0.2805  0.1762
  695MOL0     N93742   5.972   4.184   1.178 -1.2720  0.3392  0.0369
  695MOL0     C93743   6.952   4.853   1.721 -0.2155  0.0784  0.8083
  695MOL0     C93744   6.994   4.944   1.813 -0.1440 -0.0861 -1.2903
  695MOL0     C93745   7.073   5.282   2.065  0.2458 -0.5558  0.7283
  695MOL0     C93746   7.205   5.333   2.067  0.0963  0.3929  0.0368
  695MOL0     C93747   7.248   5.411   2.174 -0.4437 -0.4496 -0.0995
  695MOL0     C93748   7.160   5.438   2.274 -0.5642  0.1580  0.0324
  695MOL0     O93749   7.188   5.522   2.381  0.4216 -0.0463  0.2967
  695MOL0     C93750   7.326   5.562   2.403  0.3515  0.6074 -0.9398
  695MOL0     C93751   7.332   5.644   2.533 -0.4435  0.2067 -0.3649
  695MOL0     C93752   7.480   5.688   2.561 -0.3488  0.0517  0.1425
  695MOL0     C93753   7.480   5.793   2.682 -0.0657 -0.2751  0.0761
  695MOL0     C93754   7.612   5.823   2.737 -0.5081  0.5825 -0.2533
  695MOL0     C93755   7.720   5.849   2.774 -0.5429 -0.1881 -1.0089
  695MOL0     C93756   7.032   5.389   2.277  0.7226 -0.0688  0.2116
  695MOL0     C93757   6.985   5.327   2.164 -0.2645  0.9386 -0.5013
  695MOL0     H93758   6.687   5.084   1.869  2.0444  2.0488 -1.5392
  695MOL0     H93759   6.621   4.916   1.693 -0.6166 -0.6293  1.4138
  695MOL0     H93760   6.936   4.627   1.521 -0.1993 -0.6709  0.2026
  695MOL0     H93761   6.901   4.586   1.681  1.8444 -2.6485 -1.0795
  695MOL0     H93762   6.834   4.437   1.468 -1.0307 -1.0681 -0.1161
  695MOL0     H93763   6.783   4.399   1.619 -0.7683 -1.9324 -2.1366
  695MOL0     H93764   6.600   4.375   1.520 -1.2225  0.5751 -0.9523
  695MOL0     H93765   6.575   4.533   1.607 -1.0489  1.0654 -0.7047
  695MOL0     H93766   6.625   4.657   1.395  2.5992 -1.6725  0.9428
  695MOL0     H93767   6.637   4.494   1.323  0.6215 -0.5497  0.9187
  695MOL0     H93768   6.402   4.617   1.455  4.8108  1.5765  1.3621
  695MOL0     H93769   6.418   4.608   1.281  0.3779 -0.1276  0.3528
  695MOL0     H93770   6.432   4.350   1.304 -0.8281 -3.0797  2.6807
  695MOL0     H93771   6.368   4.380   1.470 -1.1715 -2.2875 -0.8152
  695MOL0     H93772   6.160   4.438   1.388  0.6184  2.5754  1.0621
  695MOL0     H93773   6.228   4.520   1.254  2.6085  0.5800  0.9041
  695MOL0     H93774   6.229   4.200   1.268  0.1706 -0.2655  1.1549
  695MOL0     H93775   6.248   4.300   1.123 -1.8815 -2.3986 -1.2578
  695MOL0     H93776   6.006   4.512   1.169  0.1059 -1.2426 -0.7675
  695MOL0     H93777   5.753   4.549   1.118  1.7874 -1.5001  0.9214
  695MOL0     H93778   5.716   4.441   0.989  2.5375  2.1031 -0.7276
  695MOL0     H93779   5.645   4.349   1.274  0.6692  1.5566  0.6996
  695MOL0     H93780   5.561   4.319   1.122  0.8843 -0.2398 -0.8919
  695MOL0     H93781   5.532   4.582   1.133  0.7772  0.3203  0.4163
  695MOL0     H93782   5.578   4.558   1.299  0.7111 -1.1731 -0.8001
  695MOL0     H93783   5.347   4.555   1.331 -0.5813  0.5552 -0.3485
  695MOL0     H93784   5.385   4.385   1.316  2.3961 -1.2528 -0.7218
  695MOL0     H93785   5.146   4.476   0.952  0.5105  1.8226 -0.3127
  695MOL0     H93786   4.825   4.388   0.929  0.1019 -0.5933  1.1734
  695MOL0     H93787   4.812   4.567   0.910  0.2359 -0.1980  1.5163
  695MOL0     H93788   4.952   4.488   0.844  1.3095  0.4528  1.3812
  695MOL0     H93789   4.498   4.331   1.241 -1.7540 -0.8656 -0.6914
  695MOL0     H93790   4.254   4.337   1.289 -1.3216  2.0297  0.5835
  695MOL0     H93791   4.119   4.691   1.234 -0.9393 -1.7108 -2.3295
  695MOL0     H93792   3.979   4.599   1.235 -0.8139  1.7149 -0.9893
  695MOL0     H93793   3.931   4.685   1.482  1.3796  0.0518  0.6177
  695MOL0     H93794   4.074   4.780   1.470 -0.6165  1.2610  1.6407
  695MOL0     H93795   3.867   4.805   1.247  1.8523 -1.5756 -0.8929
  695MOL0     H93796   3.996   4.911   1.289  1.5139 -2.9700 -1.9012
  695MOL0     H93797   3.884   4.958   1.510 -0.8232 -1.4828  0.6114
  695MOL0     H93798   3.790   5.013   1.370  0.9426 -0.6989 -0.0989
  695MOL0     H93799   3.731   4.741   1.488  1.0532 -0.0215  0.4503
  695MOL0     H93800   3.644   4.839   1.378  0.7578  3.5698 -1.3282
  695MOL0     H93801   3.543   4.853   1.613 -1.1546  1.6216  1.4518
  695MOL0     H93802   3.707   4.901   1.669 -1.4922  1.0414  0.9181
  695MOL0     H93803   3.561   5.068   1.464  4.5449 -1.4964 -1.7685
  695MOL0     H93804   3.671   5.119   1.566  1.2032 -1.1631  1.0105
  695MOL0     H93805   3.537   5.084   1.783 -1.4142 -0.8281  1.0800
  695MOL0     H93806   3.399   5.024   1.684 -0.9412  0.8827 -2.1131
  695MOL0     H93807   4.296   4.731   1.436 -0.7520 -3.4862  5.0534
  695MOL0     H93808   4.558   4.704   1.387  4.2146 -3.7301 -1.0988
  695MOL0     H93809   4.910   4.470   1.387  0.2458 -3.1963  0.0049
  695MOL0     H93810   5.145   4.471   1.375 -1.7162  1.1343  0.7040
  695MOL0     H93811   7.031   4.790   1.681 -1.1982 -0.7073  0.0538
  695MOL0     H93812   7.100   4.950   1.834 -0.4826  2.4080  0.1639
  695MOL0     H93813   7.270   5.298   1.988  1.8810 -1.2709  2.0904
  695MOL0     H93814   7.350   5.444   2.186 -0.3932 -0.1909 -1.1873
  695MOL0     H93815   7.381   5.467   2.405  0.1038  0.3414 -3.3544
  695MOL0     H93816   7.353   5.620   2.314  0.1364 -0.3957 -1.6840
  695MOL0     H93817   7.287   5.584   2.613  1.1606  0.3579  0.6999
  695MOL0     H93818   7.273   5.735   2.519 -3.9672 -1.1743  3.4743
  695MOL0     H93819   7.519   5.743   2.474 -3.2184  1.5864 -0.2861
  695MOL0     H93820   7.546   5.603   2.578  0.5087  0.9821  1.7456
  695MOL0     H93821   7.418   5.770   2.769 -0.5678 -0.3503 -0.2931
  695MOL0     H93822   7.454   5.894   2.648  0.3681  0.0426  0.6749
  695MOL0     H93823   7.820   5.874   2.804 -1.2143  0.8827  0.4115
  695MOL0     H93824   6.972   5.419   2.362 -1.1064 -1.5505 -0.4825
  695MOL0     H93825   6.884   5.285   2.158  0.0664  0.2071 -1.1528
  696MOL0     O93826   4.871   9.663   5.159 -0.4985 -0.0134 -0.0934
  696MOL0     C93827   4.925   9.756   5.111  0.0882 -0.1404 -0.5010
  696MOL0     O93828   4.862   9.865   5.062  0.1763 -0.2799 -0.3280
  696MOL0     C93829   4.727   9.903   5.062  0.1003  0.0307  0.1935
  696MOL0     C93830   4.717  10.033   5.026  0.7230 -0.6214  0.0252
  696MOL0     C93831   4.586  10.086   5.017  0.1925 -0.2324 -0.7144
  696MOL0     C93832   4.472  10.023   5.070 -0.2193 -0.1113 -0.8281
  696MOL0     O93833   4.341  10.063   5.043 -0.0090  0.9130 -0.6948
  696MOL0     C93834   4.297  10.029   4.909 -0.8662 -0.6393  0.4015
  696MOL0     C93835   4.193   9.915   4.900 -0.0679  0.4474 -0.6356
  696MOL0     C93836   4.073   9.906   4.996 -0.8789 -0.3670  0.2652
  696MOL0     C93837   3.980   9.792   4.969  0.0119 -0.0000 -0.6261
  696MOL0     C93838   3.860   9.809   5.069  0.4397 -0.0359 -0.3497
  696MOL0     C93839   3.769   9.684   5.043 -0.3749 -1.0531  0.5424
  696MOL0     C93840   3.651   9.671   5.135  1.6923 -0.5208 -0.4442
  696MOL0     C93841   3.669   9.705   5.285 -0.6687  0.5830 -0.1791
  696MOL0     N93842   3.546   9.688   5.367 -0.6082 -0.4899 -1.4429
  696MOL0     C93843   3.468   9.574   5.391 -0.6273 -0.1053  0.4785
  696MOL0     C93844   3.353   9.611   5.446  0.4008 -0.5900  0.4006
  696MOL0     C93845   3.239   9.518   5.490  0.0429  0.0771  0.2360
  696MOL0     C93846   3.100   9.580   5.473  0.0171  0.3880 -0.7450
  696MOL0     C93847   2.998   9.468   5.512 -0.8812 -0.3219  0.2273
  696MOL0     C93848   2.859   9.511   5.485 -0.9337  0.2690  0.4862
  696MOL0     O93849   2.778   9.399   5.526 -0.1176 -0.4410  0.1618
  696MOL0     C93850   2.640   9.404   5.532  0.1295 -0.2743 -0.8456
  696MOL0     C93851   2.580   9.289   5.575  0.4798  0.2357 -0.5342
  696MOL0     C93852   2.443   9.283   5.596  1.7041  0.2886 -0.2306
  696MOL0     C93853   2.388   9.152   5.646 -0.0539  0.4583  0.8318
  696MOL0     C93854   2.360   9.392   5.558 -0.6696  0.5932  0.3570
  696MOL0     C93855   2.215   9.394   5.559 -0.2211  0.9109 -0.0545
  696MOL0     O93856   2.148   9.280   5.591 -0.3908 -0.0532  0.1863
  696MOL0     C93857   2.011   9.297   5.607  0.1961  0.4302  0.7727
  696MOL0     C93858   1.966   9.329   5.727  0.6139  0.1056 -0.7101
  696MOL0     C93859   1.824   9.328   5.763 -0.5801 -0.2488 -0.9556
  696MOL0     C93860   1.740   9.269   5.679  1.5320  0.3330 -0.2623
  696MOL0     O93861   1.616   9.260   5.737 -0.4485  0.3217  0.5941
  696MOL0     C93862   1.503   9.200   5.671 -0.5139  0.6530 -0.6041
  696MOL0     C93863   1.522   9.047   5.685  0.1172 -0.9198  0.0436
  696MOL0     C93864   1.457   8.960   5.592 -0.4094 -0.1952  0.1900
  696MOL0     C93865   1.308   8.972   5.596 -0.0768 -0.6477 -0.3892
  696MOL0     C93866   1.239   8.859   5.519  0.3571 -0.0960 -0.0857
  696MOL0     C93867   1.090   8.833   5.574 -0.0594 -0.1645  1.1350
  696MOL0     C93868   1.007   8.727   5.506 -0.2378  0.1249  0.6089
  696MOL0     C93869   0.911   8.656   5.611 -0.4172  0.6760  1.0543
  696MOL0    Cl93870   0.827   8.522   5.539  0.7395 -0.0248 -0.1675
  696MOL0     C93871   1.782   9.237   5.550  0.0102 -0.6945 -0.4595
  696MOL0     C93872   1.921   9.244   5.513  0.2938  0.0697 -0.6830
  696MOL0     O93873   2.171   9.509   5.559 -1.0215  0.3244  0.1173
  696MOL0     C93874   2.422   9.511   5.504 -0.2842  0.7576  0.1082
  696MOL0     C93875   2.562   9.511   5.499 -0.2934  0.2936 -0.9055
  696MOL0     N93876   3.360   9.751   5.451  0.0639  0.5851  0.3685
  696MOL0     N93877   3.470   9.793   5.407 -0.2067  0.1326 -0.2690
  696MOL0     C93878   4.489   9.899   5.125  0.8942 -0.0311  1.0219
  696MOL0     C93879   4.618   9.831   5.113  0.1168 -0.4677  0.2416
  696MOL0     C93880   5.070   9.748   5.093 -0.4342  0.4372  1.1070
  696MOL0     C93881   5.146   9.858   5.035 -0.2810  0.4749  0.0213
  696MOL0     C93882   5.283   9.840   5.018  0.7537 -0.5014 -0.6748
  696MOL0     C93883   5.347   9.717   5.042  0.2466 -0.0699 -0.0895
  696MOL0     O93884   5.475   9.701   4.995  0.8689 -0.3223  1.0080
  696MOL0     C93885   5.564   9.613   5.060  0.5016 -0.6214 -0.7675
  696MOL0     C93886   5.699   9.621   5.007 -0.4517 -0.4340  1.3875
  696MOL0     C93887   5.749   9.481   4.966  0.4003  0.3307 -0.3886
  696MOL0     C93888   5.889   9.494   4.918  1.0184 -0.2397 -0.4076
  696MOL0     C93889   5.977   9.492   5.038  1.1240  0.8166 -0.2551
  696MOL0     C93890   6.061   9.499   5.129  0.5705 -0.2451  0.6841
  696MOL0     C93891   5.277   9.610   5.101 -0.1753 -0.4386  0.1249
  696MOL0     C93892   5.138   9.631   5.124 -0.0081 -0.2279  0.4800
  696MOL0     H93893   4.803  10.079   4.979  0.1696  0.8540  0.4292
  696MOL0     H93894   4.582  10.190   4.986  0.5045  1.6752  4.5542
  696MOL0     H93895   4.248  10.122   4.879  0.1013 -0.7936 -1.7881
  696MOL0     H93896   4.369  10.007   4.830 -4.8271 -0.1063 -3.7953
  696MOL0     H93897   4.155   9.914   4.797 -1.5763  3.1118 -0.2073
  696MOL0     H93898   4.250   9.822   4.903  0.3184  0.6728 -0.8267
  696MOL0     H93899   4.106   9.902   5.100 -1.1280 -0.9475  0.3270
  696MOL0     H93900   4.020  10.000   4.983  1.7652  0.8415 -3.4529
  696MOL0     H93901   3.942   9.777   4.868 -1.0396  0.7950 -0.3691
  696MOL0     H93902   4.028   9.695   4.989  0.2737  0.2459 -0.0205
  696MOL0     H93903   3.903   9.806   5.170 -0.5060 -4.2122  0.0994
  696MOL0     H93904   3.801   9.899   5.050 -2.1330 -2.0177 -2.5585
  696MOL0     H93905   3.727   9.690   4.942  1.0571  0.8762 -0.0238
  696MOL0     H93906   3.828   9.593   5.055 -0.6077 -1.4210 -0.9630
  696MOL0     H93907   3.585   9.747   5.090  1.0096 -0.1839  1.0758
  696MOL0     H93908   3.602   9.575   5.116 -0.6293  0.7916 -1.5911
  696MOL0     H93909   3.682   9.814   5.291  0.6915  0.4346 -0.2755
  696MOL0     H93910   3.762   9.662   5.322 -0.3326 -1.1972 -2.8237
  696MOL0     H93911   3.485   9.471   5.362  1.8293 -0.0390  1.4399
  696MOL0     H93912   3.241   9.444   5.409 -1.8427  1.3038 -1.0382
  696MOL0     H93913   3.257   9.455   5.578  2.0961 -0.2495 -0.3713
  696MOL0     H93914   3.080   9.617   5.372 -1.4428  2.0727  0.0945
  696MOL0     H93915   3.097   9.660   5.548  0.6796  0.6053 -0.9435
  696MOL0     H93916   3.012   9.454   5.619 -0.3531 -0.4700  0.1383
  696MOL0     H93917   3.022   9.371   5.467  2.8474  0.0822  1.0489
  696MOL0     H93918   2.845   9.515   5.377  0.4630 -1.5369  0.1948
  696MOL0     H93919   2.847   9.604   5.542  0.8373  0.9322 -0.1598
  696MOL0     H93920   2.649   9.208   5.596 -2.2469 -1.6948  1.6606
  696MOL0     H93921   2.346   9.098   5.560 -1.3281  2.0168  0.4230
  696MOL0     H93922   2.462   9.084   5.690 -0.9987 -1.3453 -0.2218
  696MOL0     H93923   2.311   9.175   5.720  0.9055  1.3292  1.5718
  696MOL0     H93924   2.031   9.371   5.803  0.2257 -0.1675 -0.2214
  696MOL0     H93925   1.787   9.354   5.862  0.1924 -3.0064  0.1402
  696MOL0     H93926   1.413   9.234   5.723 -0.4220  0.0671 -0.0440
  696MOL0     H93927   1.500   9.234   5.567 -2.2742  0.4120 -0.6647
  696MOL0     H93928   1.628   9.027   5.668  0.4407 -1.1980  2.1032
  696MOL0     H93929   1.494   9.016   5.786 -0.1746  0.7882  0.5019
  696MOL0     H93930   1.475   8.857   5.622 -3.8481 -0.2196  2.7664
  696MOL0     H93931   1.497   8.981   5.492 -0.7221  0.7207  0.2462
  696MOL0     H93932   1.281   8.973   5.702  1.6462  1.7629  0.1114
  696MOL0     H93933   1.268   9.065   5.553  2.0474 -0.9248 -3.2844
  696MOL0     H93934   1.287   8.760   5.523 -1.9704 -1.2640  2.6603
  696MOL0     H93935   1.249   8.901   5.419  0.2682 -0.5002 -0.2698
  696MOL0     H93936   1.094   8.800   5.678 -2.6529 -0.5929  1.1661
  696MOL0     H93937   1.032   8.925   5.565 -4.1843 -2.6971 -1.6502
  696MOL0     H93938   1.077   8.650   5.471 -2.2654 -1.3826 -0.2863
  696MOL0     H93939   0.941   8.766   5.428 -2.2952 -1.9950  1.1673
  696MOL0     H93940   0.843   8.736   5.645 -1.4797 -0.3838  1.4812
  696MOL0     H93941   0.962   8.623   5.702 -3.3958 -1.7104  1.9955
  696MOL0     H93942   1.726   9.203   5.463  2.2300 -2.1485 -1.4210
  696MOL0     H93943   1.942   9.202   5.415  2.6838 -0.3428 -0.0635
  696MOL0     H93944   2.367   9.594   5.459 -1.7985  1.2228  2.5896
  696MOL0     H93945   2.604   9.591   5.438 -0.8272 -1.9447 -4.4929
  696MOL0     H93946   4.404   9.846   5.167 -1.4362 -0.9855 -4.0812
  696MOL0     H93947   4.634   9.730   5.151  0.2587 -0.6422 -0.2773
  696MOL0     H93948   5.096   9.952   5.013  0.5020  1.1845  1.1826
  696MOL0     H93949   5.335   9.928   4.981 -2.7438  1.4061 -1.4963
  696MOL0     H93950   5.576   9.635   5.167  1.0647 -1.4084 -0.6589
  696MOL0     H93951   5.538   9.508   5.043  1.1383 -0.5437 -2.3433
  696MOL0     H93952   5.761   9.666   5.085 -1.1783 -0.0648  1.7648
  696MOL0     H93953   5.694   9.691   4.924  1.7372 -0.0033  1.5559
  696MOL0     H93954   5.692   9.432   4.887  1.7684 -0.3966 -0.9681
  696MOL0     H93955   5.753   9.411   5.050  4.8298  1.8458  0.9892
  696MOL0     H93956   5.912   9.585   4.862  1.0824  0.1776  0.2842
  696MOL0     H93957   5.915   9.416   4.846 -1.0593  0.2332 -1.7362
  696MOL0     H93958   6.136   9.522   5.201  1.3237 -1.6973  0.4138
  696MOL0     H93959   5.327   9.522   5.138 -1.5694 -0.4314  2.2409
  696MOL0     H93960   5.086   9.555   5.180 -0.2362 -0.5043 -0.0942
  697MOL0     O93961   0.869   9.712   9.218 -0.4507  0.5885  0.4929
  697MOL0     C93962   0.876   9.611   9.285  0.1330  0.5437 -0.5787
  697MOL0     O93963   0.990   9.541   9.322 -0.4317  0.1601  0.4710
  697MOL0     C93964   1.101   9.569   9.250  0.8074  0.6258 -0.3373
  697MOL0     C93965   1.194   9.654   9.310  0.1295 -0.5020  1.0354
  697MOL0     C93966   1.308   9.701   9.237 -0.0735  0.2480  0.7804
  697MOL0     C93967   1.330   9.651   9.111 -1.0163  0.3374  0.7857
  697MOL0     O93968   1.441   9.677   9.032  0.1710 -0.6634 -0.1213
  697MOL0     C93969   1.550   9.762   9.097 -0.0910  1.0576  0.3444
  697MOL0     C93970   1.660   9.774   8.987 -0.7062 -0.2999 -0.5145
  697MOL0     C93971   1.784   9.840   9.059  0.6403  0.2918  0.5949
  697MOL0     C93972   1.889   9.865   8.951 -0.0713 -0.2297  0.6125
  697MOL0     C93973   2.015   9.922   9.020 -0.2989 -0.2416 -0.4590
  697MOL0     C93974   2.124   9.965   8.929 -0.1676 -0.1432 -0.1531
  697MOL0     C93975   2.232  10.026   9.010  0.0433  0.0263 -0.4741
  697MOL0     C93976   2.362  10.061   8.927 -0.1577 -0.1097  0.0379
  697MOL0     N93977   2.434   9.945   8.873 -1.0331  0.6532  0.3403
  697MOL0     C93978   2.445   9.817   8.922 -0.2321  0.4928  0.8067
  697MOL0     C93979   2.513   9.748   8.829  0.9326  1.3150 -0.0288
  697MOL0     C93980   2.560   9.607   8.834  0.5507  0.2998 -0.0745
  697MOL0     C93981   2.444   9.504   8.849  0.8217  0.5428  0.3374
  697MOL0     C93982   2.337   9.509   8.740 -0.1101  0.6144 -0.2751
  697MOL0     C93983   2.211   9.416   8.779 -0.5977 -1.0438 -0.1597
  697MOL0     O93984   2.129   9.483   8.870  0.1524  0.3005 -0.9476
  697MOL0     C93985   2.007   9.421   8.899 -0.8435 -0.5088 -0.6773
  697MOL0     C93986   1.978   9.292   8.849  0.1972  0.3632 -0.0851
  697MOL0     C93987   1.852   9.234   8.848  0.7117  0.3940 -0.5108
  697MOL0     C93988   1.840   9.100   8.775 -0.1390 -0.6890 -0.1884
  697MOL0     C93989   1.748   9.309   8.913  0.2612  0.0836  0.1083
  697MOL0     C93990   1.606   9.270   8.907 -0.4538 -0.1707 -0.3464
  697MOL0     O93991   1.584   9.153   8.846 -0.3872  0.2902 -0.2597
  697MOL0     C93992   1.458   9.118   8.819  0.6313 -0.0925  0.2395
  697MOL0     C93993   1.390   9.012   8.892  0.3075 -0.2972 -0.1129
  697MOL0     C93994   1.253   8.988   8.883 -0.4670  0.5205 -1.1697
  697MOL0     C93995   1.175   9.070   8.799  0.0683 -0.3663  0.0689
  697MOL0     O93996   1.040   9.054   8.787 -0.3652 -0.2071 -0.0259
  697MOL0     C93997   0.956   9.156   8.826 -0.3445  0.0539  0.4326
  697MOL0     C93998   0.894   9.115   8.965 -0.0251  0.0810  0.0939
  697MOL0     C93999   0.791   9.225   9.005 -0.7293  0.2592 -0.2368
  697MOL0     C94000   0.704   9.167   9.114 -0.3467  0.3136 -0.2801
  697MOL0     C94001   0.612   9.285   9.148 -0.5131 -0.5691  0.0026
  697MOL0     C94002   0.513   9.242   9.254  0.0201 -0.2909  0.3170
  697MOL0     C94003   0.381   9.322   9.250 -0.0813  0.7411 -0.4089
  697MOL0     C94004   0.286   9.263   9.352 -0.9073 -0.2099  0.3814
  697MOL0    Cl94005   0.160   9.390   9.390  0.4256 -0.0493  0.3462
  697MOL0     C94006   1.240   9.160   8.717 -0.5094  0.0224  0.4082
  697MOL0     C94007   1.379   9.180   8.719 -0.1198 -0.1180  0.8577
  697MOL0     O94008   1.519   9.339   8.956  0.1115 -0.7542 -0.2981
  697MOL0     C94009   1.788   9.425   8.982  0.8496  0.5030 -0.8011
  697MOL0     C94010   1.915   9.477   8.980  0.5937  0.0855 -0.2038
  697MOL0     N94011   2.536   9.828   8.723  0.0411 -0.1941  0.3907
  697MOL0     N94012   2.485   9.943   8.748  0.4073 -0.2407  0.8743
  697MOL0     C94013   1.234   9.569   9.050 -0.7810  0.0114  0.4500
  697MOL0     C94014   1.122   9.524   9.119  0.4410 -0.1732 -0.0807
  697MOL0     C94015   0.753   9.559   9.357 -1.0257 -0.1638 -0.6437
  697MOL0     C94016   0.769   9.451   9.446  0.3033 -0.1148 -0.4909
  697MOL0     C94017   0.659   9.420   9.533 -0.0366 -0.5794  0.2515
  697MOL0     C94018   0.541   9.494   9.531  0.2820  0.5370  0.0764
  697MOL0     O94019   0.421   9.478   9.604 -0.7686  0.3598  0.3281
  697MOL0     C94020   0.427   9.388   9.720  0.0689 -0.1807 -0.1383
  697MOL0     C94021   0.286   9.355   9.753 -0.1761  0.5636  0.4278
  697MOL0     C94022   0.218   9.458   9.850 -0.5671  0.0019  0.4635
  697MOL0     C94023   0.070   9.420   9.881  0.1573  0.8427  0.2630
  697MOL0     C94024   0.064   9.274   9.913 -0.5086 -0.5106  0.5600
  697MOL0     C94025   0.049   9.153   9.930  0.1066  0.6441  0.9653
  697MOL0     C94026   0.531   9.595   9.438  0.3190  0.2314  1.4480
  697MOL0     C94027   0.630   9.636   9.349 -0.0114  0.0660  0.1953
  697MOL0     H94028   1.179   9.696   9.409 -0.6181  0.9956  0.3257
  697MOL0     H94029   1.371   9.778   9.278  2.7364 -1.8707  0.7424
  697MOL0     H94030   1.503   9.858   9.122 -0.8933  0.8352 -0.2781
  697MOL0     H94031   1.594   9.720   9.188  0.0409  0.1219 -0.1381
  697MOL0     H94032   1.672   9.672   8.948 -0.9522 -1.1791  1.5578
  697MOL0     H94033   1.614   9.841   8.914 -1.6838 -1.5844 -1.1184
  697MOL0     H94034   1.759   9.925   9.123  4.5007  0.3734  2.3248
  697MOL0     H94035   1.841   9.769   9.120  1.6712 -0.5200 -1.2319
  697MOL0     H94036   1.921   9.777   8.895 -0.8723 -1.3908  1.9071
  697MOL0     H94037   1.857   9.940   8.877  0.5682  0.3312  0.8920
  697MOL0     H94038   1.981  10.011   9.074 -2.0299 -1.5157  0.6335
  697MOL0     H94039   2.056   9.849   9.090  3.2067 -0.2858 -2.3109
  697MOL0     H94040   2.169   9.877   8.881  3.1588  1.3168 -0.0224
  697MOL0     H94041   2.089  10.043   8.860 -0.8839  0.5843  0.9992
  697MOL0     H94042   2.201  10.120   9.056  0.0355 -0.9754  1.6683
  697MOL0     H94043   2.259   9.957   9.090  2.4837  2.5581  1.0859
  697MOL0     H94044   2.432  10.115   8.990 -1.4852  0.7348  0.8398
  697MOL0     H94045   2.341  10.136   8.850 -0.4615 -0.6773 -0.4525
  697MOL0     H94046   2.398   9.784   9.014 -1.6007  1.5693  0.5300
  697MOL0     H94047   2.626   9.580   8.751  1.6484  0.2429  0.7856
  697MOL0     H94048   2.629   9.619   8.919 -0.3082  0.3552  0.6290
  697MOL0     H94049   2.393   9.524   8.944 -1.9929  0.0279 -0.9679
  697MOL0     H94050   2.501   9.411   8.862  1.7957  0.9456 -0.8594
  697MOL0     H94051   2.381   9.485   8.643 -0.8530  0.3814 -0.5627
  697MOL0     H94052   2.298   9.611   8.738 -0.1347  0.5981 -1.4750
  697MOL0     H94053   2.257   9.323   8.813  3.1713  0.4021 -0.7926
  697MOL0     H94054   2.157   9.403   8.684  1.3220 -1.3539 -1.2494
  697MOL0     H94055   2.060   9.243   8.798  0.2114 -0.4783  0.7226
  697MOL0     H94056   1.778   9.121   8.688 -1.6197 -1.2026  0.7064
  697MOL0     H94057   1.937   9.070   8.733  0.3725 -1.4086  1.4200
  697MOL0     H94058   1.793   9.019   8.833 -0.0395 -2.4065 -2.3727
  697MOL0     H94059   1.450   8.951   8.959  2.3814 -2.0899 -3.3407
  697MOL0     H94060   1.215   8.912   8.951 -1.2518  1.9687  0.0581
  697MOL0     H94061   1.008   9.251   8.838  2.9188 -1.5528  0.1078
  697MOL0     H94062   0.881   9.186   8.753  0.1286  0.7168  0.2041
  697MOL0     H94063   0.845   9.018   8.950  0.3258 -0.3292  1.4658
  697MOL0     H94064   0.974   9.108   9.040 -0.4323  2.1153  0.7947
  697MOL0     H94065   0.737   9.268   8.920 -0.1490  0.8465 -0.3124
  697MOL0     H94066   0.858   9.300   9.046 -2.4914  1.3153  0.8482
  697MOL0     H94067   0.648   9.078   9.082 -0.1707 -0.2322  0.8755
  697MOL0     H94068   0.760   9.142   9.205 -0.3391 -1.6785 -0.7969
  697MOL0     H94069   0.563   9.303   9.051 -0.4389 -1.6936 -0.2609
  697MOL0     H94070   0.660   9.378   9.181  0.5966 -1.4325  0.8683
  697MOL0     H94071   0.480   9.138   9.239 -4.0657  0.7331  0.7967
  697MOL0     H94072   0.559   9.245   9.353 -1.0651 -2.0001  0.9306
  697MOL0     H94073   0.330   9.310   9.154  0.5229  1.8525 -0.8765
  697MOL0     H94074   0.404   9.425   9.279  2.6763  0.1225 -0.1792
  697MOL0     H94075   0.339   9.241   9.445 -2.8026 -1.6179  1.1842
  697MOL0     H94076   0.238   9.172   9.316  0.7087 -0.8783 -0.1898
  697MOL0     H94077   1.174   9.221   8.656 -1.1796  0.5185  1.5864
  697MOL0     H94078   1.417   9.249   8.645 -0.1059 -3.2189 -2.2933
  697MOL0     H94079   1.722   9.463   9.059  1.9698 -1.1544  1.0709
  697MOL0     H94080   1.939   9.568   9.034 -0.9226 -0.6791  1.8649
  697MOL0     H94081   1.252   9.538   8.948 -3.3285  3.3242 -1.2014
  697MOL0     H94082   1.065   9.451   9.062 -0.2505 -0.6934  1.2263
  697MOL0     H94083   0.862   9.398   9.463  1.1992  0.3850 -3.3129
  697MOL0     H94084   0.664   9.337   9.603  0.2000 -1.0254 -0.2825
  697MOL0     H94085   0.470   9.295   9.683  0.6242 -0.5938  1.5043
  697MOL0     H94086   0.479   9.438   9.802 -3.5067 -1.4193  3.1771
  697MOL0     H94087   0.283   9.250   9.785 -0.4471  0.8111  1.2255
  697MOL0     H94088   0.235   9.335   9.658  0.9748  1.1407 -0.3276
  697MOL0     H94089   0.214   9.559   9.808  1.2101 -0.3658 -0.7219
  697MOL0     H94090   0.278   9.462   9.941 -0.1483  1.1138  0.1555
  697MOL0     H94091   0.004   9.447   9.799  0.9546  0.5253 -0.4980
  697MOL0     H94092   0.036   9.475   9.970  1.3005 -0.6651  1.7048
  697MOL0     H94093   0.040   9.047   9.942  2.7870  0.1229 -0.7688
  697MOL0     H94094   0.443   9.656   9.416 -0.2642  0.0473  3.1668
  697MOL0     H94095   0.628   9.730   9.295 -3.4583 -0.1089 -0.2448
  698MOL0     O94096   2.800   9.786   6.287  0.3463 -0.4238 -0.3755
  698MOL0     C94097   2.865   9.891   6.252 -0.2398 -1.0393  0.1374
  698MOL0     O94098   2.818  10.013   6.215 -0.0041 -0.0592 -0.0169
  698MOL0     C94099   2.679  10.037   6.202 -0.2989  0.1161  0.5381
  698MOL0     C94100   2.578   9.945   6.178 -0.1854 -0.4053 -0.3267
  698MOL0     C94101   2.444   9.978   6.160  0.3752 -0.2371  0.2185
  698MOL0     C94102   2.412  10.117   6.151 -0.2065  0.2414  0.0961
  698MOL0     O94103   2.283  10.157   6.118  0.2333 -0.5548 -0.2055
  698MOL0     C94104   2.187  10.055   6.113 -0.1924  0.9730  0.6805
  698MOL0     C94105   2.061  10.128   6.064  0.1606  1.1003 -0.8113
  698MOL0     C94106   1.988  10.193   6.182 -0.4578 -0.4875 -0.5207
  698MOL0     C94107   1.856  10.118   6.197  0.8865 -0.5391 -0.2813
  698MOL0     C94108   1.760  10.198   6.294 -0.0929 -0.4695 -0.0247
  698MOL0     C94109   1.719  10.343   6.242  0.4592 -0.4534 -0.0512
  698MOL0     C94110   1.603  10.405   6.323  0.0677 -0.2061 -0.4174
  698MOL0     C94111   1.618  10.558   6.359  0.4013  0.8332  0.0936
  698MOL0     N94112   1.595  10.637   6.234 -0.4460 -0.2654 -0.7598
  698MOL0     C94113   1.690  10.712   6.172  0.1733  0.1406 -0.1775
  698MOL0     C94114   1.625  10.779   6.073 -0.3672 -0.0346 -0.2041
  698MOL0     C94115   1.687  10.866   5.963 -0.1371  0.1982 -0.4760
  698MOL0     C94116   1.600  10.903   5.846 -0.1822  0.5211  0.2600
  698MOL0     C94117   1.502  11.016   5.886 -0.6972  0.5509  0.3580
  698MOL0     C94118   1.380  11.028   5.787 -0.7450 -0.4190  0.3038
  698MOL0     O94119   1.301  10.907   5.784 -0.1699  0.2728  0.2149
  698MOL0     C94120   1.168  10.912   5.739  0.2234 -0.1274 -0.3334
  698MOL0     C94121   1.123  11.009   5.654  0.4630  0.4321 -0.6873
  698MOL0     C94122   0.998  11.003   5.599 -0.5051  0.1707 -0.2959
  698MOL0     C94123   0.967  11.121   5.500 -0.9358  0.3267 -0.4970
  698MOL0     C94124   0.907  10.907   5.636  1.2911 -0.3673  0.7322
  698MOL0     C94125   0.768  10.904   5.584 -0.1639 -0.6381 -0.3441
  698MOL0     O94126   0.665  10.870   5.667  0.6616  0.6640 -0.6835
  698MOL0     C94127   0.549  10.840   5.598  0.4540 -0.5764  0.3427
  698MOL0     C94128   0.448  10.928   5.582  0.8055  0.1433 -0.8798
  698MOL0     C94129   0.330  10.880   5.517  0.1086  0.3167 -0.2389
  698MOL0     C94130   0.317  10.753   5.477 -0.1224 -0.1246 -0.7926
  698MOL0     O94131   0.186  10.714   5.431  0.5407  0.1153  0.2062
  698MOL0     C94132   0.171  10.577   5.390  0.6489  0.0214 -0.0541
  698MOL0     C94133   0.031  10.525   5.396  0.5035  0.4217  0.2405
  698MOL0     C94134  -0.069  10.621   5.323  0.4922  0.3126 -0.6338
  698MOL0     C94135  -0.213  10.559   5.349  0.5405  0.0873 -0.4757
  698MOL0     C94136  -0.329  10.644   5.302 -0.8580  0.2741  0.0747
  698MOL0     C94137  -0.462  10.575   5.303  0.1084  0.1365 -0.0894
  698MOL0     C94138  -0.520  10.558   5.445 -0.8060 -0.6154  0.6453
  698MOL0     C94139  -0.669  10.531   5.425 -0.4939 -1.3148 -0.0755
  698MOL0    Cl94140  -0.737  10.530   5.588 -0.4467 -0.0447  0.0450
  698MOL0     C94141   0.427  10.665   5.486  0.0108 -0.3167  0.8300
  698MOL0     C94142   0.540  10.709   5.552 -0.0062  0.0933  0.0783
  698MOL0     O94143   0.749  10.936   5.457 -0.1444 -0.9851 -0.8473
  698MOL0     C94144   0.939  10.817   5.744 -1.0766 -1.0733  1.0139
  698MOL0     C94145   1.074  10.816   5.788  0.4418 -0.5872  0.1931
  698MOL0     N94146   1.498  10.731   6.063 -0.0321  0.2835 -0.0895
  698MOL0     N94147   1.474  10.648   6.159 -0.6303  0.0719 -0.1559
  698MOL0     C94148   2.510  10.214   6.179 -0.1244  0.5283 -0.3883
  698MOL0     C94149   2.641  10.174   6.201  0.1595  0.4116 -0.5819
  698MOL0     C94150   3.015   9.882   6.277 -0.0236  0.5076  0.5418
  698MOL0     C94151   3.068   9.771   6.332 -0.5448  0.3098 -0.6877
  698MOL0     C94152   3.204   9.757   6.362 -0.6481 -0.4053 -0.2939
  698MOL0     C94153   3.293   9.861   6.333 -0.0208 -0.0472  0.2853
  698MOL0     O94154   3.429   9.864   6.351  0.0432 -1.1548  0.4917
  698MOL0     C94155   3.501   9.744   6.400  0.8476  0.1509 -0.0125
  698MOL0     C94156   3.656   9.769   6.410  0.6377 -0.1591 -0.0391
  698MOL0     C94157   3.704   9.799   6.270 -0.4114 -0.5352  0.3984
  698MOL0     C94158   3.858   9.790   6.252  0.3698  0.4809 -0.4449
  698MOL0     C94159   3.924   9.892   6.330 -0.2228  0.3272 -0.2239
  698MOL0     C94160   3.978   9.978   6.390 -0.6704 -0.1548 -0.5545
  698MOL0     C94161   3.248   9.969   6.269  0.0961 -0.1321  0.9468
  698MOL0     C94162   3.112   9.972   6.227 -0.0664 -0.1278  0.2541
  698MOL0     H94163   2.591   9.838   6.172 -1.1628 -0.6856  1.8698
  698MOL0     H94164   2.387   9.893   6.126 -0.9689  0.2619  1.1509
  698MOL0     H94165   2.205   9.982   6.033 -1.3651  2.5503 -1.1047
  698MOL0     H94166   2.166  10.000   6.205  0.4776  0.8884  0.7944
  698MOL0     H94167   2.086  10.202   5.988 -2.3583  0.8477 -1.9935
  698MOL0     H94168   1.997  10.053   6.016 -0.7506  1.8734 -0.8313
  698MOL0     H94169   2.039  10.173   6.277 -2.9786 -2.1545  0.5662
  698MOL0     H94170   1.983  10.300   6.159 -0.5491 -1.1961 -4.4953
  698MOL0     H94171   1.807  10.082   6.106 -0.4481 -1.6655  0.8219
  698MOL0     H94172   1.872  10.027   6.257 -2.1236 -1.2083 -0.3345
  698MOL0     H94173   1.677  10.129   6.316 -0.4212  0.5801  2.3363
  698MOL0     H94174   1.814  10.218   6.387  0.0103  1.6221 -0.5064
  698MOL0     H94175   1.801  10.415   6.244  1.1547 -1.2450  1.1013
  698MOL0     H94176   1.691  10.330   6.137 -2.2033  3.0859  0.0445
  698MOL0     H94177   1.506  10.395   6.273  0.2782 -0.3794 -0.8002
  698MOL0     H94178   1.624  10.360   6.420  3.4053  1.5461 -0.1870
  698MOL0     H94179   1.714  10.572   6.409  1.5095 -1.3314 -1.2540
  698MOL0     H94180   1.538  10.593   6.425  0.5594  2.1708 -0.3969
  698MOL0     H94181   1.792  10.735   6.203  0.0846 -0.6921  0.8108
  698MOL0     H94182   1.738  10.953   6.006 -0.5333 -1.3914  3.7163
  698MOL0     H94183   1.769  10.807   5.921  0.1888  1.1682 -1.2564
  698MOL0     H94184   1.549  10.809   5.820  0.2925  0.4850 -0.5523
  698MOL0     H94185   1.668  10.937   5.768  0.0943  1.6592  0.9801
  698MOL0     H94186   1.553  11.112   5.891  1.5391 -0.4360 -1.3325
  698MOL0     H94187   1.460  10.994   5.984 -1.4893  2.5644  0.5122
  698MOL0     H94188   1.416  11.050   5.686 -0.1459 -1.4883  0.2680
  698MOL0     H94189   1.315  11.108   5.823 -1.6596  0.0057 -2.1083
  698MOL0     H94190   1.189  11.089   5.621 -1.8731  2.4620 -0.7133
  698MOL0     H94191   0.864  11.159   5.505  0.1370  3.4518 -0.4333
  698MOL0     H94192   1.036  11.202   5.524 -1.1365  0.5279 -0.5990
  698MOL0     H94193   0.991  11.096   5.397 -1.2462 -1.7219 -0.1107
  698MOL0     H94194   0.459  11.031   5.615  1.0860  1.0625 -3.6064
  698MOL0     H94195   0.247  10.949   5.506  1.1357  1.3112 -2.4720
  698MOL0     H94196   0.213  10.569   5.289  1.0743  1.5862 -0.0341
  698MOL0     H94197   0.228  10.515   5.459 -0.4356 -0.3038  0.5745
  698MOL0     H94198   0.037  10.431   5.340  1.2335 -0.8108  2.2772
  698MOL0     H94199  -0.010  10.531   5.497 -0.1567  1.8463 -0.0739
  698MOL0     H94200  -0.051  10.619   5.215  0.3189 -0.9305 -0.6596
  698MOL0     H94201  -0.064  10.725   5.358  0.0635 -0.6597  2.6898
  698MOL0     H94202  -0.210  10.463   5.297  1.6929  0.3361 -0.8878
  698MOL0     H94203  -0.236  10.533   5.453  0.8472 -2.7574 -1.0485
  698MOL0     H94204  -0.317  10.681   5.199 -2.0608  1.2430  0.2549
  698MOL0     H94205  -0.324  10.735   5.362  2.1187  2.1417 -2.6505
  698MOL0     H94206  -0.526  10.635   5.237  0.8287  1.9522  0.7842
  698MOL0     H94207  -0.450  10.475   5.262 -1.2337  0.8787 -2.4919
  698MOL0     H94208  -0.515  10.649   5.505 -1.0102 -1.5469  2.1150
  698MOL0     H94209  -0.455  10.486   5.495  2.0716 -1.0696 -3.2825
  698MOL0     H94210  -0.676  10.436   5.373  1.7277 -1.8811  0.5490
  698MOL0     H94211  -0.714  10.615   5.371  1.2089  0.0153  0.4842
  698MOL0     H94212   0.432  10.565   5.444  2.9418  0.1332 -0.0543
  698MOL0     H94213   0.619  10.638   5.577 -0.8788 -0.3485  1.6756
  698MOL0     H94214   0.868  10.744   5.782 -0.3814 -0.9499  2.6451
  698MOL0     H94215   1.105  10.742   5.861  1.2493 -0.0437  0.4219
  698MOL0     H94216   2.477  10.317   6.193 -0.2862  0.5966 -1.1921
  698MOL0     H94217   2.714  10.253   6.211 -0.5339  1.2200 -1.6804
  698MOL0     H94218   3.001   9.687   6.347 -1.8639  1.2561 -1.0772
  698MOL0     H94219   3.243   9.667   6.408  5.1872  2.5625  1.5658
  698MOL0     H94220   3.462   9.730   6.501 -1.8046  3.2479 -0.4464
  698MOL0     H94221   3.468   9.657   6.343  1.0707  0.0992 -0.0660
  698MOL0     H94222   3.699   9.683   6.462 -0.0074  0.3033  1.2993
  698MOL0     H94223   3.678   9.856   6.472 -0.5702 -0.3035  0.6155
  698MOL0     H94224   3.666   9.895   6.233 -0.0705 -0.8874 -0.9260
  698MOL0     H94225   3.674   9.718   6.204 -1.0992  0.8532 -1.0769
  698MOL0     H94226   3.892   9.794   6.148  0.1712 -1.5115 -0.6288
  698MOL0     H94227   3.886   9.692   6.293 -3.8873  0.8178  4.1831
  698MOL0     H94228   4.028  10.065   6.427 -2.0439  0.0634  0.8824
  698MOL0     H94229   3.319  10.050   6.255  2.6589 -2.4549 -0.4046
  698MOL0     H94230   3.088  10.056   6.163  0.0783  1.2224  1.8932
  699MOL0     O94231   9.108   3.288   9.686 -0.2615 -0.3061  0.3618
  699MOL0     C94232   9.185   3.327   9.593  0.2039 -0.6931  0.7506
  699MOL0     O94233   9.147   3.345   9.468  1.1920 -0.4102  0.4159
  699MOL0     C94234   9.015   3.337   9.428 -0.1807  0.8710  1.4329
  699MOL0     C94235   8.989   3.282   9.297 -1.3937 -0.0922  0.5222
  699MOL0     C94236   8.850   3.263   9.255  0.3438  0.5592 -0.8854
  699MOL0     C94237   8.744   3.306   9.335 -0.1496  0.1411  0.3992
  699MOL0     O94238   8.621   3.277   9.284 -0.6436  0.3383 -0.8834
  699MOL0     C94239   8.509   3.332   9.362  0.2013  0.3621  0.1332
  699MOL0     C94240   8.375   3.303   9.285 -0.1885  0.2081  0.2291
  699MOL0     C94241   8.243   3.346   9.360  0.1527  0.4996  0.0345
  699MOL0     C94242   8.118   3.336   9.288  0.6044  0.5338  0.4382
  699MOL0     C94243   7.989   3.361   9.365 -0.6150  0.4253 -0.4638
  699MOL0     C94244   7.862   3.336   9.272 -0.1254 -0.4677 -0.2406
  699MOL0     C94245   7.730   3.352   9.354  0.9335  0.5992  0.1859
  699MOL0     C94246   7.604   3.370   9.267 -0.1108  0.0250  0.1444
  699MOL0     N94247   7.482   3.376   9.350 -0.1606  0.6125 -0.1931
  699MOL0     C94248   7.411   3.268   9.396  0.8640 -0.7653 -0.0369
  699MOL0     C94249   7.313   3.327   9.471  0.4162  0.8476  0.3980
  699MOL0     C94250   7.190   3.258   9.537 -0.3773 -0.0292 -0.0251
  699MOL0     C94251   7.055   3.315   9.491 -0.7961  0.3631 -0.4698
  699MOL0     C94252   7.011   3.257   9.361  0.3100  0.7353  0.8729
  699MOL0     C94253   6.881   3.321   9.336  0.5068 -0.1934  0.1223
  699MOL0     O94254   6.787   3.261   9.423  0.3887  0.1020 -0.1535
  699MOL0     C94255   6.657   3.271   9.387  0.2533  0.3227 -0.0900
  699MOL0     C94256   6.589   3.389   9.361  0.6671  0.2239  0.5738
  699MOL0     C94257   6.446   3.391   9.339  0.2240 -0.3736 -0.2690
  699MOL0     C94258   6.371   3.524   9.307 -0.0980  0.9706  0.6280
  699MOL0     C94259   6.376   3.266   9.348 -0.6924  0.7671 -0.3693
  699MOL0     C94260   6.223   3.253   9.331 -0.2824 -0.0765  0.9647
  699MOL0     O94261   6.167   3.123   9.297 -0.0565 -0.3954 -0.1167
  699MOL0     C94262   6.028   3.109   9.290 -1.1535  0.2078 -0.5037
  699MOL0     C94263   5.961   3.111   9.413  0.0457 -0.4001 -0.2218
  699MOL0     C94264   5.821   3.088   9.411 -0.4869  0.0368  0.2679
  699MOL0     C94265   5.758   3.052   9.294 -0.4455 -0.2567 -0.1659
  699MOL0     O94266   5.620   3.031   9.309  0.8698  0.1458  0.8411
  699MOL0     C94267   5.551   3.161   9.311 -0.3633 -0.3860 -0.2691
  699MOL0     C94268   5.410   3.143   9.261 -0.2427 -0.3197  0.2611
  699MOL0     C94269   5.315   3.090   9.364 -0.4116 -0.0695  0.3582
  699MOL0     C94270   5.187   3.059   9.291 -0.6486  0.4972  0.1967
  699MOL0     C94271   5.075   3.038   9.394 -0.8044 -0.2146 -0.0079
  699MOL0     C94272   4.935   3.062   9.332 -0.1468 -0.6037  0.2829
  699MOL0     C94273   4.836   3.065   9.456  0.8022  0.1225 -0.5710
  699MOL0     C94274   4.691   3.104   9.414  0.5843  0.0065 -0.3553
  699MOL0    Cl94275   4.605   2.981   9.302  0.0922 -0.3353 -0.0983
  699MOL0     C94276   5.832   3.041   9.174  1.2757 -0.1649  0.0709
  699MOL0     C94277   5.968   3.067   9.171  0.5098 -0.4450  0.7379
  699MOL0     O94278   6.154   3.353   9.342  0.4542 -0.0821  0.3823
  699MOL0     C94279   6.449   3.149   9.381 -0.4158 -0.4278  0.1315
  699MOL0     C94280   6.585   3.149   9.406 -0.2580  0.5028  0.4452
  699MOL0     N94281   7.327   3.467   9.467  0.1198  1.1227  0.9385
  699MOL0     N94282   7.435   3.492   9.397 -0.2439 -0.0627  0.4808
  699MOL0     C94283   8.782   3.367   9.455  0.4012  0.2202 -1.0885
  699MOL0     C94284   8.913   3.389   9.503  0.4785 -0.4775 -0.1533
  699MOL0     C94285   9.330   3.365   9.625  0.0591  1.4943 -1.0298
  699MOL0     C94286   9.414   3.412   9.526 -0.0422  0.2162 -0.5680
  699MOL0     C94287   9.548   3.465   9.556 -0.4942  0.0789  0.3846
  699MOL0     C94288   9.600   3.449   9.684 -0.4980  0.3655 -0.3761
  699MOL0     O94289   9.723   3.503   9.712 -0.0710  0.2955  0.1646
  699MOL0     C94290   9.723   3.625   9.795  0.0443  0.3623 -0.2140
  699MOL0     C94291   9.776   3.615   9.937 -0.3588  0.0089 -0.2816
  699MOL0     C94292   9.932   3.626   9.936 -0.3042  0.0629 -0.2941
  699MOL0     C94293   9.996   3.594  10.071  0.5596 -0.3702  0.4998
  699MOL0     C94294  10.144   3.587  10.056  0.6691  0.3220 -0.5014
  699MOL0     C94295  10.268   3.586  10.052  0.1328  0.6041  0.0798
  699MOL0     C94296   9.523   3.393   9.785 -0.0328  0.0246 -0.2260
  699MOL0     C94297   9.386   3.353   9.756  0.3483  0.3360 -0.3387
  699MOL0     H94298   9.064   3.244   9.229 -0.7349  2.6333 -0.3952
  699MOL0     H94299   8.831   3.228   9.154  0.6862 -0.4560 -0.6097
  699MOL0     H94300   8.508   3.292   9.464 -1.3476  0.0650  0.0381
  699MOL0     H94301   8.516   3.439   9.381 -0.0795  0.2316  1.0405
  699MOL0     H94302   8.381   3.351   9.187 -0.5216  1.5901  0.8563
  699MOL0     H94303   8.356   3.197   9.269  1.6773 -0.0014 -0.8899
  699MOL0     H94304   8.244   3.297   9.458  3.8457  1.8262  0.8221
  699MOL0     H94305   8.263   3.448   9.392 -1.8374  0.5776  1.1789
  699MOL0     H94306   8.120   3.405   9.203  1.4121  0.5842  0.4897
  699MOL0     H94307   8.113   3.234   9.250  0.6933  0.7275 -0.1072
  699MOL0     H94308   7.998   3.274   9.431 -0.2629  2.4952  2.4559
  699MOL0     H94309   7.987   3.445   9.435  1.4154  0.5773 -0.5140
  699MOL0     H94310   7.868   3.417   9.198 -0.6685  0.4717  0.7096
  699MOL0     H94311   7.867   3.237   9.225 -1.3485 -0.9933  0.6760
  699MOL0     H94312   7.721   3.263   9.418  1.4775 -0.8054 -1.5994
  699MOL0     H94313   7.741   3.438   9.421  1.2131  0.3050  0.5202
  699MOL0     H94314   7.594   3.290   9.192  1.3328  1.4904 -1.7019
  699MOL0     H94315   7.616   3.468   9.221  1.0731  0.0400  0.4516
  699MOL0     H94316   7.442   3.168   9.367  0.2522 -1.1634  0.6589
  699MOL0     H94317   7.189   3.152   9.507  0.4921 -0.6838  2.0505
  699MOL0     H94318   7.198   3.256   9.646  0.6769 -1.2496 -0.0942
  699MOL0     H94319   7.068   3.422   9.473  2.0533  0.7461  2.7822
  699MOL0     H94320   6.981   3.300   9.570 -1.2350 -1.3402 -1.1560
  699MOL0     H94321   6.998   3.148   9.364 -0.4954  0.7228 -1.3249
  699MOL0     H94322   7.081   3.286   9.283 -0.0808  0.0292  0.2437
  699MOL0     H94323   6.856   3.309   9.230  0.5851 -0.4916  0.1366
  699MOL0     H94324   6.883   3.429   9.354 -3.0902  0.6725 -3.3114
  699MOL0     H94325   6.647   3.480   9.362 -1.0079  1.3346  0.7031
  699MOL0     H94326   6.303   3.512   9.221  1.2469 -0.8266 -0.2471
  699MOL0     H94327   6.315   3.567   9.390 -2.9960 -0.4396 -0.4529
  699MOL0     H94328   6.441   3.599   9.270  2.5023 -1.4443  0.3222
  699MOL0     H94329   6.019   3.139   9.500  2.3462 -3.1100 -0.7389
  699MOL0     H94330   5.767   3.100   9.504  2.2120 -0.5103  2.0135
  699MOL0     H94331   5.560   3.200   9.413 -0.4081  2.2921 -1.2141
  699MOL0     H94332   5.610   3.227   9.246 -1.4834  1.2702  0.3132
  699MOL0     H94333   5.380   3.246   9.245  0.8380  0.1378  1.0351
  699MOL0     H94334   5.401   3.082   9.170 -1.1317  0.4305 -0.1651
  699MOL0     H94335   5.305   3.165   9.443  0.2221  0.1230  0.2591
  699MOL0     H94336   5.360   2.999   9.404 -1.0227  0.4162  2.2380
  699MOL0     H94337   5.174   3.138   9.216  0.6485  0.2361 -0.3241
  699MOL0     H94338   5.199   2.963   9.241 -0.5693  1.1874 -1.1791
  699MOL0     H94339   5.095   3.103   9.479 -0.7422 -0.7338  0.3711
  699MOL0     H94340   5.067   2.935   9.430 -1.8000 -0.2179 -0.1973
  699MOL0     H94341   4.933   3.155   9.276 -1.4361 -1.2762 -0.8265
  699MOL0     H94342   4.923   2.975   9.267  1.2318 -1.4398  1.0869
  699MOL0     H94343   4.869   3.138   9.530 -0.5545 -0.0608  0.2600
  699MOL0     H94344   4.830   2.972   9.514  2.2789  0.3335 -0.0436
  699MOL0     H94345   4.686   3.196   9.356 -1.2219  0.6555  0.7603
  699MOL0     H94346   4.629   3.115   9.503 -1.3817  0.8252 -1.7555
  699MOL0     H94347   5.782   3.006   9.084  0.8333  4.2745 -1.6804
  699MOL0     H94348   6.024   3.043   9.081 -2.2841  0.2562 -1.3417
  699MOL0     H94349   6.398   3.054   9.390  1.4475 -1.4013  1.0566
  699MOL0     H94350   6.631   3.058   9.444 -1.0317  0.1773  0.6257
  699MOL0     H94351   8.705   3.406   9.521  0.3828  0.9841 -1.5519
  699MOL0     H94352   8.935   3.434   9.600  1.0666 -2.6068  0.7569
  699MOL0     H94353   9.370   3.404   9.427 -0.1639 -1.7233 -0.3935
  699MOL0     H94354   9.599   3.506   9.469  1.1421 -0.6254  0.9757
  699MOL0     H94355   9.769   3.711   9.747 -2.2127  2.2889  0.8584
  699MOL0     H94356   9.622   3.666   9.801  0.3295  0.9912  0.3657
  699MOL0     H94357   9.738   3.522   9.980 -2.4433  1.0404  0.2455
  699MOL0     H94358   9.744   3.699  10.000  1.6647 -0.2226  1.1480
  699MOL0     H94359   9.961   3.726   9.900 -2.2687  1.2652  1.2538
  699MOL0     H94360   9.963   3.541   9.874  0.5203 -0.2549  0.5395
  699MOL0     H94361   9.955   3.505  10.120 -1.4341  0.1956 -0.0540
  699MOL0     H94362   9.981   3.678  10.138 -1.1545 -1.7290  1.9201
  699MOL0     H94363  10.374   3.578  10.041  0.4731  4.0458 -0.2823
  699MOL0     H94364   9.565   3.383   9.885 -2.6793 -0.0240  0.9728
  699MOL0     H94365   9.334   3.312   9.842  0.4179  0.1583 -0.3832
  700MOL0     O94366   1.468   5.881  10.254 -0.5997  0.1561  0.0235
  700MOL0     C94367   1.571   5.821  10.293 -0.5738 -0.1904 -0.0122
  700MOL0     O94368   1.629   5.821  10.419  0.3317 -0.6916 -0.7846
  700MOL0     C94369   1.567   5.883  10.533  0.1217 -0.4027 -0.2590
  700MOL0     C94370   1.441   5.931  10.545  0.2140  0.2097  0.1570
  700MOL0     C94371   1.404   5.975  10.669 -0.2455 -0.7517 -0.2503
  700MOL0     C94372   1.490   5.995  10.778 -0.4742 -1.0179 -0.7862
  700MOL0     O94373   1.440   6.042  10.895  0.1751 -0.6717 -0.1040
  700MOL0     C94374   1.460   5.972  11.017  0.3838 -0.6623 -0.7484
  700MOL0     C94375   1.357   6.025  11.115  0.6936 -0.3982 -0.5660
  700MOL0     C94376   1.217   5.992  11.074 -0.7536 -0.2207 -0.1838
  700MOL0     C94377   1.102   6.074  11.147  0.3658  0.1876  0.9691
  700MOL0     C94378   0.977   5.985  11.181 -0.2153 -0.4084  0.3933
  700MOL0     C94379   0.916   5.939  11.048 -0.3713  0.1064 -0.2221
  700MOL0     C94380   0.773   5.870  11.043 -1.1295  0.3170 -0.8182
  700MOL0     C94381   0.767   5.783  10.914  0.3124 -0.0290 -0.0222
  700MOL0     N94382   0.633   5.729  10.913  0.2491 -0.2970  0.2844
  700MOL0     C94383   0.526   5.764  10.835  0.0344  0.9288 -0.2227
  700MOL0     C94384   0.409   5.711  10.890  0.0287 -0.1625  0.3913
  700MOL0     C94385   0.272   5.727  10.836 -0.0166 -1.0762 -0.1473
  700MOL0     C94386   0.225   5.880  10.846  0.0210  0.7015  0.0794
  700MOL0     C94387   0.091   5.895  10.779  1.2877  0.4042  0.8726
  700MOL0     C94388   0.042   6.043  10.772  0.1596  0.0467 -1.0355
  700MOL0     O94389  -0.068   6.067  10.685 -0.2355  0.3123  0.6175
  700MOL0     C94390  -0.190   6.028  10.745 -0.2980  1.2889  0.1746
  700MOL0     C94391  -0.252   6.103  10.844 -0.1613 -0.1161 -0.7285
  700MOL0     C94392  -0.370   6.073  10.903  0.3321  0.2277 -0.0774
  700MOL0     C94393  -0.427   6.178  10.998  0.2640 -0.6310 -0.3030
  700MOL0     C94394  -0.442   5.955  10.869 -0.4396  0.9467 -0.2494
  700MOL0     C94395  -0.578   5.918  10.920  0.6517  0.2746 -0.0707
  700MOL0     O94396  -0.614   5.934  11.044  0.5847 -0.6305 -0.1349
  700MOL0     C94397  -0.728   5.889  11.101 -0.3194 -0.2179 -0.8473
  700MOL0     C94398  -0.721   5.833  11.232 -0.5841 -0.0633  0.2671
  700MOL0     C94399  -0.838   5.786  11.289  0.0272 -0.6452  0.5768
  700MOL0     C94400  -0.962   5.788  11.235  0.7469  0.0151 -1.3710
  700MOL0     O94401  -1.070   5.738  11.313 -0.0850 -0.3605  0.4106
  700MOL0     C94402  -1.201   5.758  11.259 -0.4436 -0.5856  0.6048
  700MOL0     C94403  -1.305   5.672  11.327  0.2345  0.0242 -0.0032
  700MOL0     C94404  -1.444   5.681  11.262  0.3422 -0.4451  0.0455
  700MOL0     C94405  -1.553   5.602  11.333 -0.0432 -0.0614 -1.4949
  700MOL0     C94406  -1.703   5.627  11.275  0.6809 -0.0291 -0.5867
  700MOL0     C94407  -1.801   5.543  11.349  0.0510  0.6182  0.0026
  700MOL0     C94408  -1.930   5.524  11.263  0.1536 -1.0026 -0.1370
  700MOL0     C94409  -1.948   5.380  11.226  0.1678 -0.0462  1.0218
  700MOL0    Cl94410  -2.118   5.334  11.183  0.0098 -0.6864  0.2960
  700MOL0     C94411  -0.970   5.855  11.111 -0.1930 -0.1725 -0.3686
  700MOL0     C94412  -0.856   5.901  11.039 -0.0334  0.5630 -0.2587
  700MOL0     O94413  -0.649   5.888  10.823  0.3832 -0.3756 -0.3240
  700MOL0     C94414  -0.377   5.869  10.768 -0.1178 -0.5456  0.2997
  700MOL0     C94415  -0.252   5.906  10.710 -0.1215 -0.3765 -0.2248
  700MOL0     N94416   0.449   5.643  10.991 -0.3019 -0.1059  0.0541
  700MOL0     N94417   0.579   5.651  11.007 -0.0397  0.0757  0.0363
  700MOL0     C94418   1.615   5.954  10.761 -0.2424 -0.4284  0.3994
  700MOL0     C94419   1.653   5.892  10.643 -0.2044  0.2540  0.5135
  700MOL0     C94420   1.660   5.744  10.201  0.1015 -0.1296 -0.3167
  700MOL0     C94421   1.762   5.659  10.243 -0.2733  0.2576 -0.8940
  700MOL0     C94422   1.839   5.583  10.150  1.1294 -0.9553  0.2177
  700MOL0     C94423   1.821   5.603  10.012 -0.5370  0.0491 -0.6729
  700MOL0     O94424   1.908   5.533   9.932 -0.3193 -0.1014 -0.1347
  700MOL0     C94425   1.902   5.534   9.789  0.2284  0.5708  0.0887
  700MOL0     C94426   1.781   5.450   9.736  0.4558  0.3402 -0.0305
  700MOL0     C94427   1.809   5.301   9.732 -0.4515 -0.3260  0.0870
  700MOL0     C94428   1.760   5.244   9.860 -0.3285  0.1779 -0.0477
  700MOL0     C94429   1.798   5.105   9.864 -0.0570  0.8172  0.1833
  700MOL0     C94430   1.812   4.983   9.862  0.1929 -0.1250  0.2875
  700MOL0     C94431   1.711   5.687   9.968  0.6646  0.2808 -0.0750
  700MOL0     C94432   1.631   5.749  10.067  0.5228 -0.1529  0.4007
  700MOL0     H94433   1.369   5.941  10.465 -1.5201  2.3914  1.8439
  700MOL0     H94434   1.308   6.017  10.697  0.8512  1.3790  0.4830
  700MOL0     H94435   1.450   5.863  11.008  2.9580 -1.2628  1.9028
  700MOL0     H94436   1.561   5.999  11.049 -0.1850  1.2841 -0.4876
  700MOL0     H94437   1.371   5.985  11.217  0.8859 -0.2895 -0.5486
  700MOL0     H94438   1.371   6.133  11.121 -0.1447 -0.3645  2.2378
  700MOL0     H94439   1.205   6.010  10.967  0.5564 -0.0381 -0.3121
  700MOL0     H94440   1.195   5.885  11.086  1.4113 -0.5526  1.4391
  700MOL0     H94441   1.146   6.109  11.240 -1.8588  4.1972  0.7486
  700MOL0     H94442   1.067   6.165  11.096 -0.9848  1.3880  3.8168
  700MOL0     H94443   0.994   5.895  11.242  0.0357 -1.5044 -1.2085
  700MOL0     H94444   0.902   6.048  11.228 -2.3581 -2.2640 -0.3802
  700MOL0     H94445   0.910   6.024  10.978 -1.1123 -0.1284 -0.4541
  700MOL0     H94446   0.989   5.867  11.010  0.1685 -0.3366  1.5778
  700MOL0     H94447   0.766   5.804  11.131  0.7776 -0.5294 -1.2369
  700MOL0     H94448   0.698   5.949  11.039 -0.8042  0.6106 -1.0812
  700MOL0     H94449   0.841   5.703  10.913  0.3277 -0.0129 -0.4719
  700MOL0     H94450   0.786   5.847  10.828  1.5784  0.0758  0.3273
  700MOL0     H94451   0.531   5.830  10.749  1.0984  0.5027 -0.5058
  700MOL0     H94452   0.271   5.722  10.727 -1.0552  2.9513 -0.4795
  700MOL0     H94453   0.201   5.654  10.877  0.6289 -2.7783 -1.9193
  700MOL0     H94454   0.290   5.960  10.809 -2.3214  2.0795 -1.3138
  700MOL0     H94455   0.210   5.901  10.952  1.3663  1.2631  0.1733
  700MOL0     H94456   0.012   5.836  10.827 -1.4149  1.9478 -1.3707
  700MOL0     H94457   0.097   5.851  10.679 -0.3013  0.7368  0.5947
  700MOL0     H94458   0.121   6.116  10.754  0.9507 -0.0633  1.5161
  700MOL0     H94459   0.016   6.058  10.878  0.6287 -2.3791 -0.5091
  700MOL0     H94460  -0.211   6.197  10.879  1.5393 -0.8955 -0.5524
  700MOL0     H94461  -0.356   6.185  11.081  2.4387 -3.6562 -1.7137
  700MOL0     H94462  -0.441   6.274  10.946  0.8638 -0.5286 -0.2761
  700MOL0     H94463  -0.522   6.145  11.041  1.0216 -2.7668 -0.1652
  700MOL0     H94464  -0.622   5.833  11.277  0.1696 -1.1067 -1.3062
  700MOL0     H94465  -0.844   5.745  11.390 -0.3298 -0.7382  0.5178
  700MOL0     H94466  -1.226   5.864  11.266  0.0560 -0.4200 -0.0264
  700MOL0     H94467  -1.204   5.741  11.151 -3.2370  4.2585 -0.3675
  700MOL0     H94468  -1.275   5.566  11.322 -3.9991 -1.5805  2.7896
  700MOL0     H94469  -1.313   5.701  11.432 -1.0547  3.3909 -0.8987
  700MOL0     H94470  -1.440   5.652  11.157  0.1578 -2.1785  0.4991
  700MOL0     H94471  -1.469   5.787  11.253  0.5048 -0.3493  0.7149
  700MOL0     H94472  -1.544   5.494  11.341 -3.2689 -0.3185  0.3235
  700MOL0     H94473  -1.544   5.641  11.434 -1.6595 -0.1995 -1.2677
  700MOL0     H94474  -1.698   5.597  11.170  2.2800  0.5067 -0.6987
  700MOL0     H94475  -1.734   5.732  11.280 -0.1848 -0.2912 -0.3293
  700MOL0     H94476  -1.748   5.449  11.365  1.3586  1.2722 -0.4103
  700MOL0     H94477  -1.814   5.589  11.447  1.5288  0.6561  0.1904
  700MOL0     H94478  -1.928   5.572  11.164  1.9220  1.1419  0.8533
  700MOL0     H94479  -2.016   5.544  11.327  0.6637 -0.7563  0.4851
  700MOL0     H94480  -1.920   5.317  11.311  1.0975  0.2572  0.9498
  700MOL0     H94481  -1.889   5.362  11.136 -2.2102 -2.8686 -0.1597
  700MOL0     H94482  -1.069   5.865  11.068 -0.7255  0.0746  0.8875
  700MOL0     H94483  -0.878   5.948  10.943 -0.4793  2.6269  0.7923
  700MOL0     H94484  -0.420   5.775  10.734  0.0714 -0.2210 -0.8978
  700MOL0     H94485  -0.211   5.842  10.633  1.8692  0.0572  0.4307
  700MOL0     H94486   1.682   5.974  10.844  0.0138  0.9509 -0.1198
  700MOL0     H94487   1.752   5.854  10.618  1.1749  4.9740 -2.7977
  700MOL0     H94488   1.783   5.642  10.348  1.9040 -2.6388 -1.6967
  700MOL0     H94489   1.920   5.527  10.196  3.1869  2.0410  0.5582
  700MOL0     H94490   1.908   5.637   9.752  0.8864  0.3771 -0.3594
  700MOL0     H94491   1.994   5.491   9.749 -0.0393 -0.9610  1.0439
  700MOL0     H94492   1.764   5.492   9.636 -0.4225  1.3535  0.5228
  700MOL0     H94493   1.686   5.465   9.789  0.5463  0.3146  0.1386
  700MOL0     H94494   1.916   5.288   9.717  0.0209  2.0376  1.0014
  700MOL0     H94495   1.751   5.259   9.649 -3.2490  0.5755  1.4343
  700MOL0     H94496   1.651   5.247   9.863 -0.3203  1.8712 -0.4138
  700MOL0     H94497   1.798   5.287   9.954 -2.3636  0.2757  0.7749
  700MOL0     H94498   1.832   4.878   9.872 -2.9608 -0.7090  1.5698
  700MOL0     H94499   1.671   5.690   9.867  0.3711 -2.1297 -0.1078
  700MOL0     H94500   1.543   5.802  10.032 -0.6594 -2.5448 -0.4521
  701MOL0     O94501   1.221   6.650   9.969  0.1964 -0.2498  0.0305
  701MOL0     C94502   1.254   6.746   9.898 -0.0482  0.0738 -0.7986
  701MOL0     O94503   1.172   6.838   9.858  0.1365 -0.4026 -0.1241
  701MOL0     C94504   1.034   6.807   9.867 -0.7959 -0.2956  0.0670
  701MOL0     C94505   0.960   6.767   9.756  0.2699 -0.2749  0.2190
  701MOL0     C94506   0.821   6.755   9.762 -0.9765  0.0037  0.8024
  701MOL0     C94507   0.759   6.765   9.881 -0.0416  0.5855 -0.7345
  701MOL0     O94508   0.625   6.746   9.879  0.7058 -0.2529 -0.0888
  701MOL0     C94509   0.555   6.773  10.004  0.4998  0.9547  0.6217
  701MOL0     C94510   0.409   6.735  10.002 -0.4606  0.2286 -0.0052
  701MOL0     C94511   0.352   6.811   9.879  0.4607 -0.7732  0.4562
  701MOL0     C94512   0.205   6.837   9.884  0.6816  0.7365  0.3615
  701MOL0     C94513   0.172   6.940   9.776 -0.2085  0.2428  0.0023
  701MOL0     C94514   0.024   6.980   9.768  0.3899  0.2910  0.2664
  701MOL0     C94515   0.007   7.107   9.679 -0.4119 -0.5788  0.6786
  701MOL0     C94516   0.046   7.089   9.528  0.1082 -0.6794  0.2277
  701MOL0     N94517  -0.043   7.007   9.452 -1.0281  0.0289  0.2808
  701MOL0     C94518  -0.101   7.039   9.333  1.6323 -0.7447 -0.0883
  701MOL0     C94519  -0.203   6.955   9.313 -0.3230 -0.8926  0.7915
  701MOL0     C94520  -0.293   6.947   9.193 -0.5881 -0.0360  0.6291
  701MOL0     C94521  -0.247   6.976   9.053  0.5904 -0.4587  0.8933
  701MOL0     C94522  -0.104   6.919   9.025 -0.5723 -0.2151  0.2953
  701MOL0     C94523  -0.064   6.911   8.878 -0.0327 -0.4289  0.0314
  701MOL0     O94524   0.034   6.813   8.850 -0.2554  0.1154  0.2894
  701MOL0     C94525   0.083   6.789   8.722  0.3760 -0.4287  0.5010
  701MOL0     C94526   0.078   6.872   8.613 -0.5285 -0.2221 -1.1424
  701MOL0     C94527   0.152   6.834   8.503 -0.9668 -0.6371 -0.3299
  701MOL0     C94528   0.155   6.939   8.389  0.7179  0.2298  0.6064
  701MOL0     C94529   0.220   6.706   8.487  0.1840 -0.1161 -1.0745
  701MOL0     C94530   0.300   6.663   8.374  0.0430  0.4128  0.1745
  701MOL0     O94531   0.374   6.546   8.385  0.4816 -0.4468  0.2879
  701MOL0     C94532   0.480   6.509   8.302 -0.7426  0.2833 -0.0273
  701MOL0     C94533   0.560   6.606   8.239 -0.3217  0.2369  0.3151
  701MOL0     C94534   0.663   6.568   8.149  0.1574  0.7567  0.4112
  701MOL0     C94535   0.702   6.429   8.142  0.3909  0.1336 -0.7614
  701MOL0     O94536   0.813   6.396   8.061  0.4389  0.5231  0.1814
  701MOL0     C94537   0.830   6.258   8.019 -0.6088 -0.0473  0.0982
  701MOL0     C94538   0.958   6.242   7.933  0.3775  0.1791 -0.2834
  701MOL0     C94539   0.973   6.089   7.892  0.3849 -0.8290  0.4996
  701MOL0     C94540   1.100   6.062   7.810  0.6561  1.1893 -0.1357
  701MOL0     C94541   1.224   6.031   7.905 -0.2917 -0.3145  0.3181
  701MOL0     C94542   1.345   5.982   7.825  0.3912 -0.0832 -0.1595
  701MOL0     C94543   1.454   5.938   7.923 -0.2300 -0.3207  0.2529
  701MOL0     C94544   1.535   6.057   7.973  0.4365  0.1452 -0.1257
  701MOL0    Cl94545   1.653   5.997   8.100 -0.2617  0.0572  0.0831
  701MOL0     C94546   0.630   6.333   8.219  0.4963  0.2582 -0.1104
  701MOL0     C94547   0.525   6.373   8.294 -0.1785 -0.1486  0.5382
  701MOL0     O94548   0.281   6.731   8.266  0.0257  0.8783  0.3803
  701MOL0     C94549   0.202   6.622   8.594  0.7700  0.2332  0.8534
  701MOL0     C94550   0.138   6.663   8.707 -0.6290  0.2351  0.2482
  701MOL0     N94551  -0.190   6.856   9.409 -0.8904  0.2277  0.8105
  701MOL0     N94552  -0.093   6.880   9.485 -0.0894 -0.4653  0.0891
  701MOL0     C94553   0.836   6.804   9.996  0.2594 -0.7922  0.5861
  701MOL0     C94554   0.972   6.824   9.990 -0.4951 -0.1408  0.7466
  701MOL0     C94555   1.403   6.750   9.875  0.2889 -1.5577  1.0202
  701MOL0     C94556   1.446   6.848   9.787 -0.6867 -0.4952  0.4683
  701MOL0     C94557   1.586   6.863   9.763 -0.2382  0.5242  0.5203
  701MOL0     C94558   1.677   6.776   9.825 -0.5776 -0.5439 -0.1275
  701MOL0     O94559   1.810   6.802   9.802  0.1694 -0.3676  0.0882
  701MOL0     C94560   1.911   6.706   9.856 -0.6615 -0.2749  0.3177
  701MOL0     C94561   2.033   6.758   9.781 -0.0837  1.1794 -0.5177
  701MOL0     C94562   2.159   6.689   9.831 -0.1163  0.3468 -0.2818
  701MOL0     C94563   2.269   6.701   9.722 -0.1989  0.3073  0.3015
  701MOL0     C94564   2.371   6.600   9.755 -0.0357  0.2919  0.2566
  701MOL0     C94565   2.423   6.492   9.753  0.1546  0.4927  0.2407
  701MOL0     C94566   1.624   6.673   9.909  0.0808  0.6756 -0.5468
  701MOL0     C94567   1.490   6.663   9.935  0.6227  0.0270  0.5975
  701MOL0     H94568   1.002   6.746   9.658 -3.1883  0.0411 -1.4788
  701MOL0     H94569   0.765   6.739   9.670  0.9723  0.2832 -0.5081
  701MOL0     H94570   0.598   6.714  10.085 -3.8929 -1.8084  1.2557
  701MOL0     H94571   0.551   6.881  10.021 -1.8751  1.2290 -1.1786
  701MOL0     H94572   0.406   6.626   9.994  0.5430  0.2722 -1.2310
  701MOL0     H94573   0.363   6.769  10.095  0.0836  1.4889 -0.1766
  701MOL0     H94574   0.399   6.906   9.854 -1.2425 -0.3896 -1.5483
  701MOL0     H94575   0.375   6.746   9.794 -1.1520 -1.2999  0.3979
  701MOL0     H94576   0.150   6.744   9.869 -1.1284  1.8595 -0.3197
  701MOL0     H94577   0.169   6.867   9.983 -4.2534  0.3553 -1.0488
  701MOL0     H94578   0.229   7.031   9.799  0.6971 -0.0161 -1.1203
  701MOL0     H94579   0.199   6.911   9.674 -0.9520  1.2295 -0.4929
  701MOL0     H94580  -0.039   6.897   9.734  0.2884  0.2178  0.6234
  701MOL0     H94581  -0.010   7.002   9.870 -0.2553  1.4515 -0.1833
  701MOL0     H94582  -0.095   7.146   9.687 -0.2707  0.9254 -2.7919
  701MOL0     H94583   0.086   7.174   9.715  0.9407 -0.9033 -1.4534
  701MOL0     H94584   0.152   7.061   9.524  0.3692  0.0112  1.5053
  701MOL0     H94585   0.037   7.183   9.473 -0.8140 -0.7648  0.2164
  701MOL0     H94586  -0.081   7.128   9.274  0.6461  0.7937  1.7788
  701MOL0     H94587  -0.327   6.843   9.190 -1.2058  0.1718 -2.0058
  701MOL0     H94588  -0.374   7.018   9.211  0.7549  2.8386 -3.1290
  701MOL0     H94589  -0.254   7.082   9.027 -1.8894 -1.1975 -2.1420
  701MOL0     H94590  -0.316   6.933   8.980  0.4244  2.1942 -0.6495
  701MOL0     H94591  -0.111   6.824   9.079 -1.7626 -0.1806  0.2250
  701MOL0     H94592  -0.022   6.977   9.068 -0.0200  0.5724 -1.7128
  701MOL0     H94593  -0.026   7.007   8.844 -2.7235  1.1223  1.0838
  701MOL0     H94594  -0.149   6.884   8.814  0.3813  1.4642 -1.4002
  701MOL0     H94595   0.032   6.969   8.623  0.1476  0.2557 -2.3269
  701MOL0     H94596   0.079   7.016   8.408  1.7052  1.7760 -1.4226
  701MOL0     H94597   0.246   6.999   8.383 -1.0118  2.8721 -1.3739
  701MOL0     H94598   0.126   6.893   8.294  1.7500 -0.8505  0.7961
  701MOL0     H94599   0.538   6.712   8.248  1.2906  0.4556  2.3097
  701MOL0     H94600   0.709   6.644   8.086 -2.3790  0.9817 -1.3257
  701MOL0     H94601   0.838   6.192   8.106  0.4708  0.3064  0.2862
  701MOL0     H94602   0.755   6.218   7.950  0.8227 -2.3697 -0.2185
  701MOL0     H94603   0.957   6.308   7.845 -3.1870  1.0598  0.2641
  701MOL0     H94604   1.033   6.281   8.002 -1.5396  1.3442  1.2584
  701MOL0     H94605   0.882   6.056   7.841 -0.8192  1.6687  0.8622
  701MOL0     H94606   0.981   6.024   7.979 -1.6792 -2.7793 -0.6524
  701MOL0     H94607   1.083   5.968   7.757 -2.2662  0.6571  1.5378
  701MOL0     H94608   1.112   6.137   7.732 -1.2710  2.4312  0.6941
  701MOL0     H94609   1.202   5.944   7.967 -1.5056 -1.1904 -1.2859
  701MOL0     H94610   1.249   6.120   7.963  0.7977 -0.4287  0.0517
  701MOL0     H94611   1.298   5.896   7.776 -1.4986  1.2520 -0.7886
  701MOL0     H94612   1.384   6.052   7.750  0.1860  1.7875  1.4108
  701MOL0     H94613   1.528   5.879   7.869 -1.4435 -2.6169  0.9939
  701MOL0     H94614   1.404   5.881   8.001 -0.6994 -1.5395 -0.9004
  701MOL0     H94615   1.467   6.133   8.013 -0.1874 -0.2213 -0.4822
  701MOL0     H94616   1.584   6.097   7.884 -1.0966  0.4779 -0.8513
  701MOL0     H94617   0.679   6.237   8.231  2.2995  1.0420 -0.8340
  701MOL0     H94618   0.477   6.302   8.361  0.6638  1.8168  3.3977
  701MOL0     H94619   0.229   6.517   8.604 -3.1239 -0.7661  3.1672
  701MOL0     H94620   0.132   6.594   8.791 -1.3368  2.7408  2.3915
  701MOL0     H94621   0.798   6.812  10.097 -2.8516  1.9463 -0.6316
  701MOL0     H94622   1.029   6.852  10.078  1.2535  0.0239 -0.3966
  701MOL0     H94623   1.386   6.922   9.735  1.4496  2.8660  2.3990
  701MOL0     H94624   1.618   6.947   9.703  2.2425 -1.4392 -1.1231
  701MOL0     H94625   1.929   6.703   9.964 -3.1993  1.2713  0.8644
  701MOL0     H94626   1.882   6.605   9.825  0.8537 -0.3390 -0.9986
  701MOL0     H94627   2.043   6.867   9.792  1.8698  1.0264 -0.4066
  701MOL0     H94628   2.008   6.726   9.680 -3.1390 -0.9371  0.7597
  701MOL0     H94629   2.135   6.583   9.840 -0.9298  0.4502 -1.0501
  701MOL0     H94630   2.194   6.728   9.927  1.1822  1.7669 -1.2862
  701MOL0     H94631   2.309   6.803   9.713  0.1385  0.0109 -2.3535
  701MOL0     H94632   2.232   6.675   9.623  0.7620  1.3477 -0.3638
  701MOL0     H94633   2.444   6.388   9.769 -3.1917 -0.0098  2.4935
  701MOL0     H94634   1.690   6.601   9.958 -0.0716  1.0703  0.2643
  701MOL0     H94635   1.458   6.588  10.007 -1.1494  0.8597  0.7484
  702MOL0     O94636   4.634   4.885  10.604  0.0012  0.1610  0.6654
  702MOL0     C94637   4.647   5.004  10.624  0.2632 -0.9128 -0.2524
  702MOL0     O94638   4.553   5.089  10.682 -0.1988  0.2197  0.3214
  702MOL0     C94639   4.428   5.039  10.698 -0.2111 -0.7812  0.5283
  702MOL0     C94640   4.374   5.052  10.827  0.1034  0.6850 -0.3212
  702MOL0     C94641   4.256   4.980  10.855 -0.6074 -0.0091 -0.7526
  702MOL0     C94642   4.193   4.899  10.770  0.5009 -0.2591  0.6732
  702MOL0     O94643   4.080   4.834  10.811 -0.5547 -0.0715 -0.0210
  702MOL0     C94644   3.955   4.903  10.799  0.3227  0.1586  0.1632
  702MOL0     C94645   3.920   4.916  10.654  0.2554  0.1706  0.3078
  702MOL0     C94646   3.772   4.944  10.627  0.4130 -0.1038  0.0833
  702MOL0     C94647   3.749   4.945  10.476 -1.2584  0.1819 -0.8976
  702MOL0     C94648   3.599   4.966  10.448  0.0396 -0.0328 -0.1491
  702MOL0     C94649   3.556   5.110  10.475  0.0073 -0.2047 -0.0360
  702MOL0     C94650   3.405   5.125  10.442 -0.3345 -0.1019 -0.3786
  702MOL0     C94651   3.330   5.082  10.558 -1.0516 -0.5633  0.0429
  702MOL0     N94652   3.187   5.078  10.519 -0.0033 -0.0692 -0.1677
  702MOL0     C94653   3.102   4.982  10.459 -0.0593  0.5823 -0.4351
  702MOL0     C94654   2.983   5.044  10.438 -0.1320  0.8431 -0.3687
  702MOL0     C94655   2.853   4.978  10.424  0.8176  0.4634 -1.0507
  702MOL0     C94656   2.805   4.975  10.278  0.1299  0.2287  0.4028
  702MOL0     C94657   2.715   5.081  10.230 -0.2744  0.3078  0.1351
  702MOL0     C94658   2.583   5.090  10.309 -0.3940  0.2477 -0.4838
  702MOL0     O94659   2.516   4.963  10.301  0.8837  0.2166 -0.1125
  702MOL0     C94660   2.381   4.960  10.297  0.0611 -0.4458  1.0934
  702MOL0     C94661   2.312   5.006  10.188  0.7392  0.7709  0.0417
  702MOL0     C94662   2.174   4.988  10.180 -0.0144  1.0201 -0.4193
  702MOL0     C94663   2.112   5.033  10.049 -0.8408 -0.1981 -0.1127
  702MOL0     C94664   2.096   4.935  10.293 -0.2458 -0.1826 -0.5560
  702MOL0     C94665   1.945   4.906  10.293 -0.0950  0.3242 -0.1252
  702MOL0     O94666   1.895   4.841  10.404  0.6295  0.0443 -0.8727
  702MOL0     C94667   1.768   4.782  10.403  0.4098  0.0188 -0.3073
  702MOL0     C94668   1.717   4.716  10.296  0.1665  0.3093 -0.3971
  702MOL0     C94669   1.588   4.657  10.307  0.0533  0.5379  0.4995
  702MOL0     C94670   1.512   4.665  10.434  1.0255  0.2046  1.0120
  702MOL0     O94671   1.381   4.614  10.451  0.1486  0.3391  0.3826
  702MOL0     C94672   1.307   4.559  10.337  0.2799 -0.1894  0.5668
  702MOL0     C94673   1.201   4.462  10.383 -0.1439 -0.2377 -0.1421
  702MOL0     C94674   1.263   4.320  10.438  0.7669  0.0071  0.3565
  702MOL0     C94675   1.323   4.225  10.334 -0.0775  0.7798  0.0100
  702MOL0     C94676   1.415   4.123  10.407 -0.2427 -0.0133  0.0344
  702MOL0     C94677   1.497   4.041  10.313  0.0732  1.0624  0.3752
  702MOL0     C94678   1.581   3.935  10.379  0.6780  0.5765 -0.2695
  702MOL0     C94679   1.656   3.863  10.275  0.4850  0.9590 -0.1297
  702MOL0    Cl94680   1.539   3.787  10.156 -0.1570 -0.1628 -0.1480
  702MOL0     C94681   1.567   4.746  10.533  0.4550 -0.6991 -0.8777
  702MOL0     C94682   1.692   4.797  10.524  0.1424 -0.8144 -0.3779
  702MOL0     O94683   1.876   4.939  10.194 -0.7633  0.4841  0.0262
  702MOL0     C94684   2.172   4.876  10.399  0.1769 -0.0919 -0.3091
  702MOL0     C94685   2.311   4.900  10.401 -1.1794 -0.0609  0.2629
  702MOL0     N94686   2.988   5.172  10.487 -0.4019 -0.1735  0.4191
  702MOL0     N94687   3.107   5.190  10.532 -0.1161  0.3785  0.3678
  702MOL0     C94688   4.241   4.896  10.635  0.2646  0.7461  0.3398
  702MOL0     C94689   4.358   4.953  10.603  0.5464 -0.6072 -0.6937
  702MOL0     C94690   4.772   5.059  10.591 -0.0029  0.2102 -0.4943
  702MOL0     C94691   4.838   5.030  10.473  0.5568  0.0501 -0.0015
  702MOL0     C94692   4.961   5.087  10.438  0.6378  1.0220  0.0437
  702MOL0     C94693   5.011   5.189  10.521 -0.1306 -0.1359  0.1611
  702MOL0     O94694   5.117   5.262  10.496  0.1597  0.2140 -0.2328
  702MOL0     C94695   5.197   5.249  10.383 -0.0638  1.2578 -0.1167
  702MOL0     C94696   5.134   5.331  10.275  0.3810 -0.8262 -0.0793
  702MOL0     C94697   5.206   5.329  10.137  0.4923  0.1752 -0.2456
  702MOL0     C94698   5.119   5.400  10.032  0.5462 -0.0182 -0.4861
  702MOL0     C94699   5.097   5.544  10.073 -0.2290  0.3911 -0.0018
  702MOL0     C94700   5.089   5.665  10.079 -0.0879 -0.1946  0.4773
  702MOL0     C94701   4.944   5.219  10.645  0.3336  0.2948 -0.7668
  702MOL0     C94702   4.821   5.154  10.682 -0.5601 -0.4099 -0.4260
  702MOL0     H94703   4.430   5.102  10.905 -0.0862 -2.1319  1.7426
  702MOL0     H94704   4.209   4.987  10.952  0.3414 -1.5716 -0.1552
  702MOL0     H94705   3.877   4.850  10.854  1.5784 -1.6127  0.3022
  702MOL0     H94706   3.964   4.997  10.856 -0.3842 -0.5963  1.5761
  702MOL0     H94707   3.981   5.004  10.631  1.6525 -1.1930 -1.5024
  702MOL0     H94708   3.955   4.827  10.603  0.4077 -0.6640  1.8088
  702MOL0     H94709   3.705   4.870  10.673  0.2510  1.8046  3.1785
  702MOL0     H94710   3.741   5.039  10.672 -1.3208 -0.8180  0.4706
  702MOL0     H94711   3.821   5.018  10.436 -0.7784  2.3598  3.3438
  702MOL0     H94712   3.788   4.852  10.434 -1.1243 -0.5471  0.7648
  702MOL0     H94713   3.588   4.939  10.343 -0.1481 -0.2031 -0.0873
  702MOL0     H94714   3.537   4.895  10.504 -0.6586 -0.3993 -1.3458
  702MOL0     H94715   3.579   5.131  10.580 -1.3428 -1.5131  0.5596
  702MOL0     H94716   3.614   5.181  10.415 -1.1103  0.4852 -0.3384
  702MOL0     H94717   3.391   5.229  10.409  0.8916  0.5556  1.0522
  702MOL0     H94718   3.365   5.062  10.363 -2.0975 -0.7777  0.9765
  702MOL0     H94719   3.349   5.157  10.635 -0.6885  0.0856 -0.6665
  702MOL0     H94720   3.374   4.988  10.593  2.5509  0.4256 -1.4106
  702MOL0     H94721   3.125   4.884  10.418  1.1504  1.9960 -3.3979
  702MOL0     H94722   2.869   4.876  10.460 -1.9240 -0.4943 -2.2673
  702MOL0     H94723   2.777   5.015  10.494  1.4806  1.4776 -0.8514
  702MOL0     H94724   2.757   4.877  10.272  2.2663 -1.1990  3.6247
  702MOL0     H94725   2.891   4.977  10.210 -1.3630 -0.7313 -1.5952
  702MOL0     H94726   2.676   5.061  10.130  0.0386 -1.6772  0.3741
  702MOL0     H94727   2.770   5.175  10.236 -1.2500  1.0269 -1.5681
  702MOL0     H94728   2.522   5.164  10.256  1.7552 -0.6586 -4.6968
  702MOL0     H94729   2.611   5.120  10.410  0.4099  2.4645 -1.2922
  702MOL0     H94730   2.356   5.046  10.098  0.9080 -0.7923 -0.5943
  702MOL0     H94731   2.030   5.103  10.070 -1.2405 -1.2627  2.2055
  702MOL0     H94732   2.181   5.081   9.979  0.9956 -1.6232  0.6496
  702MOL0     H94733   2.061   4.946  10.007 -0.8963 -0.5390  0.6386
  702MOL0     H94734   1.770   4.701  10.202  2.2325  0.5501  0.6589
  702MOL0     H94735   1.553   4.610  10.216  0.9182  2.0118 -0.6281
  702MOL0     H94736   1.255   4.644  10.291 -3.0237 -2.3735 -0.0752
  702MOL0     H94737   1.371   4.511  10.263  0.0511 -3.1006  2.1220
  702MOL0     H94738   1.132   4.510  10.453  0.3923 -1.1921  1.0966
  702MOL0     H94739   1.144   4.436  10.294  1.1402  0.6390 -1.2684
  702MOL0     H94740   1.183   4.258  10.478  1.1787 -0.4646  0.4512
  702MOL0     H94741   1.336   4.340  10.517 -0.2711  0.6423  1.1966
  702MOL0     H94742   1.253   4.174  10.267  0.5101  1.1591 -0.9151
  702MOL0     H94743   1.378   4.287  10.263  0.6635 -3.1649 -3.2599
  702MOL0     H94744   1.354   4.057  10.469  2.0148 -0.7639  1.5990
  702MOL0     H94745   1.485   4.177  10.472 -1.4911  0.0250  1.3973
  702MOL0     H94746   1.421   4.001  10.244  0.0145  1.8076 -0.0049
  702MOL0     H94747   1.569   4.102  10.258 -1.3941  1.3620 -1.3339
  702MOL0     H94748   1.518   3.856  10.420 -0.2453  1.7952  0.7461
  702MOL0     H94749   1.632   3.982  10.464 -0.2387 -5.1254  4.0652
  702MOL0     H94750   1.706   3.781  10.326 -1.8560 -2.3973 -2.7779
  702MOL0     H94751   1.737   3.914  10.222  1.6956 -1.5744 -0.8424
  702MOL0     H94752   1.502   4.772  10.615  1.3277 -2.6412  0.5043
  702MOL0     H94753   1.732   4.850  10.610  1.4808 -2.1062 -0.1493
  702MOL0     H94754   2.134   4.820  10.483 -0.0553  0.4251 -0.0680
  702MOL0     H94755   2.365   4.859  10.487 -0.3329 -1.9151 -1.0694
  702MOL0     H94756   4.183   4.839  10.563  1.6248  0.6561 -0.7458
  702MOL0     H94757   4.399   4.956  10.503  0.7489  3.7932 -0.6879
  702MOL0     H94758   4.801   4.961  10.398  4.9674 -0.0392 -2.4208
  702MOL0     H94759   4.998   5.059  10.340 -0.9021  1.9288 -0.8384
  702MOL0     H94760   5.302   5.274  10.395  0.1520 -0.1475  1.3244
  702MOL0     H94761   5.204   5.141  10.365  0.9037  0.9664  1.7487
  702MOL0     H94762   5.157   5.433  10.309 -0.0382 -1.2878  1.7249
  702MOL0     H94763   5.028   5.316  10.253  0.0370  0.4575  0.5967
  702MOL0     H94764   5.214   5.223  10.111  1.1608  0.2216 -0.2673
  702MOL0     H94765   5.306   5.374  10.144  0.9922 -0.9085 -0.3032
  702MOL0     H94766   5.015   5.366  10.029  1.0599 -1.6100 -2.0544
  702MOL0     H94767   5.160   5.395   9.931  0.6691 -3.0825 -0.3697
  702MOL0     H94768   5.081   5.772  10.088  0.6966 -0.0476 -0.3947
  702MOL0     H94769   4.989   5.299  10.703  1.0500 -1.2334  0.8897
  702MOL0     H94770   4.765   5.184  10.770 -2.0374 -0.1375 -1.4168
  703MOL0     O94771   4.680   7.064   3.099 -0.4346  0.2189  0.8014
  703MOL0     C94772   4.743   6.985   3.026 -0.2670  1.0530  0.5497
  703MOL0     O94773   4.695   6.925   2.915  0.2817  0.4185  1.0449
  703MOL0     C94774   4.560   6.910   2.888 -0.2408 -0.4935 -0.0526
  703MOL0     C94775   4.461   6.925   2.986 -0.6592 -0.6203  0.5908
  703MOL0     C94776   4.330   6.908   2.947 -0.0238  0.5755 -0.4943
  703MOL0     C94777   4.298   6.880   2.817 -0.2412 -0.6032  0.8828
  703MOL0     O94778   4.169   6.882   2.775  0.2293 -0.4432  0.4294
  703MOL0     C94779   4.131   6.886   2.635 -0.3505 -0.2452  0.7072
  703MOL0     C94780   4.001   6.966   2.612  0.3662 -0.6292 -0.2917
  703MOL0     C94781   3.885   6.921   2.703  0.7733  0.1065 -0.4868
  703MOL0     C94782   3.827   7.038   2.776 -0.2842 -0.3527  0.8186
  703MOL0     C94783   3.719   7.007   2.879  0.4661  0.5627 -0.3531
  703MOL0     C94784   3.638   7.127   2.923 -0.2092 -0.0654  0.4403
  703MOL0     C94785   3.513   7.083   2.995 -0.1097 -0.3016 -0.5687
  703MOL0     C94786   3.541   7.054   3.133 -0.5430  0.1790 -0.7012
  703MOL0     N94787   3.424   7.021   3.210  0.0929  0.7623  0.4137
  703MOL0     C94788   3.370   6.900   3.224 -0.0260  0.1756 -0.1988
  703MOL0     C94789   3.258   6.919   3.301  0.3143  0.2612 -0.1736
  703MOL0     C94790   3.168   6.805   3.347 -0.1163 -0.4470 -0.2030
  703MOL0     C94791   3.015   6.828   3.330  0.1813  0.1658 -0.3307
  703MOL0     C94792   2.927   6.742   3.414 -0.5145 -0.1620 -0.6952
  703MOL0     C94793   2.941   6.749   3.566 -0.4920 -0.3932 -0.6806
  703MOL0     O94794   2.856   6.653   3.632  0.3463 -0.0946 -0.3120
  703MOL0     C94795   2.723   6.683   3.662 -0.0177  0.2614  0.3205
  703MOL0     C94796   2.660   6.577   3.728  0.0760 -0.2747  0.0955
  703MOL0     C94797   2.531   6.600   3.776  0.1381  0.8016  0.1513
  703MOL0     C94798   2.477   6.485   3.857  0.6977 -0.5327 -1.0743
  703MOL0     C94799   2.459   6.711   3.740  1.1033 -0.5548  0.4275
  703MOL0     C94800   2.326   6.740   3.799  0.1519 -1.0946  0.2984
  703MOL0     O94801   2.293   6.875   3.831 -0.3287 -0.5340  0.1707
  703MOL0     C94802   2.169   6.900   3.886  0.5985 -0.0574 -0.3676
  703MOL0     C94803   2.130   6.863   4.010  0.7224 -0.2565  0.8466
  703MOL0     C94804   2.000   6.894   4.067 -0.0462  0.9616  0.0732
  703MOL0     C94805   1.906   6.971   3.984 -0.2804  0.3754  1.0534
  703MOL0     O94806   1.777   7.009   4.019  0.8303 -0.5926  0.2120
  703MOL0     C94807   1.715   6.987   4.146 -0.5542  0.4066 -0.1086
  703MOL0     C94808   1.589   7.072   4.165  0.2057 -0.3375  0.6260
  703MOL0     C94809   1.605   7.221   4.116 -0.5151  0.3163  0.2802
  703MOL0     C94810   1.746   7.276   4.157 -0.1312  0.3657  0.0540
  703MOL0     C94811   1.737   7.423   4.174  0.0797 -0.4270  0.6679
  703MOL0     C94812   1.718   7.486   4.032  0.0223 -0.3449 -0.3649
  703MOL0     C94813   1.709   7.637   4.060  0.3314  0.7835  0.6271
  703MOL0     C94814   1.641   7.703   3.936 -0.0830 -1.0202  0.5218
  703MOL0    Cl94815   1.578   7.877   3.950  0.3254  0.4372  0.4530
  703MOL0     C94816   1.952   7.005   3.853 -0.0167 -0.0295  0.3977
  703MOL0     C94817   2.076   6.971   3.805 -0.0234 -0.6097 -0.1052
  703MOL0     O94818   2.248   6.648   3.817 -0.2644 -0.4273 -0.8583
  703MOL0     C94819   2.524   6.807   3.667 -0.1863 -0.0193  0.1829
  703MOL0     C94820   2.657   6.805   3.640 -0.0512  0.5341  0.5033
  703MOL0     N94821   3.242   7.056   3.313  0.0701  0.1531 -0.5229
  703MOL0     N94822   3.339   7.114   3.257  0.8225  0.4496 -0.8681
  703MOL0     C94823   4.403   6.857   2.720  0.1641 -0.1491 -0.4923
  703MOL0     C94824   4.533   6.866   2.757 -0.5565 -0.2960 -0.2141
  703MOL0     C94825   4.889   6.975   3.041  0.0220 -0.4441  0.1039
  703MOL0     C94826   4.962   7.059   3.122 -0.6833  0.4619 -0.2268
  703MOL0     C94827   5.102   7.040   3.146  0.5034 -0.5730 -0.1432
  703MOL0     C94828   5.167   6.940   3.067 -0.0906  0.1418 -0.0393
  703MOL0     O94829   5.301   6.935   3.091  0.2233 -0.0951  0.3661
  703MOL0     C94830   5.375   6.851   3.003 -0.8709  0.1499  0.5814
  703MOL0     C94831   5.391   6.711   3.073 -0.1720 -0.4042 -0.9673
  703MOL0     C94832   5.505   6.704   3.171  0.2601 -0.0569  0.4307
  703MOL0     C94833   5.548   6.563   3.191 -0.4062 -0.0122 -0.2602
  703MOL0     C94834   5.451   6.475   3.262 -0.3522 -0.2758  0.0951
  703MOL0     C94835   5.369   6.409   3.329  0.5546  0.2955  0.4988
  703MOL0     C94836   5.093   6.850   2.985  0.3873 -0.2325 -0.4439
  703MOL0     C94837   4.959   6.877   2.966 -0.8780  0.3161  0.0497
  703MOL0     H94838   4.474   6.944   3.093 -1.1418 -2.5513  1.0299
  703MOL0     H94839   4.253   6.914   3.022 -0.2899  0.0351 -0.7253
  703MOL0     H94840   4.205   6.936   2.572 -0.9929  0.0333  0.1708
  703MOL0     H94841   4.114   6.784   2.600  0.7562 -0.2795  0.2260
  703MOL0     H94842   4.028   7.071   2.622 -1.8965 -0.0024 -0.2843
  703MOL0     H94843   3.978   6.961   2.505  1.7475  2.5673 -0.8546
  703MOL0     H94844   3.812   6.877   2.634 -0.5160  0.8106  0.3854
  703MOL0     H94845   3.919   6.842   2.771 -3.4426 -0.3791  1.3994
  703MOL0     H94846   3.909   7.092   2.825 -0.4631  0.9312 -0.2452
  703MOL0     H94847   3.784   7.103   2.699 -0.0344  0.2300  1.1616
  703MOL0     H94848   3.652   6.931   2.838  1.2506 -0.6722  0.5569
  703MOL0     H94849   3.765   6.951   2.962 -0.7602 -0.8685 -0.5923
  703MOL0     H94850   3.700   7.184   2.993  2.1568 -0.3656 -1.2895
  703MOL0     H94851   3.611   7.179   2.831  2.7288 -0.3593 -0.7060
  703MOL0     H94852   3.438   7.162   2.989 -1.0489 -1.1383 -0.2078
  703MOL0     H94853   3.472   6.991   2.953  3.4931 -1.2283 -2.4908
  703MOL0     H94854   3.571   7.150   3.178  0.0451  0.1481 -1.0201
  703MOL0     H94855   3.616   6.976   3.148  0.1140  1.2719  2.4358
  703MOL0     H94856   3.415   6.805   3.195 -1.9608 -0.4065 -1.4630
  703MOL0     H94857   3.187   6.717   3.285 -1.2237 -0.6103 -0.3250
  703MOL0     H94858   3.181   6.779   3.452  2.2429 -2.8194 -0.9705
  703MOL0     H94859   2.986   6.820   3.225 -0.3515  0.3334 -0.1970
  703MOL0     H94860   2.993   6.930   3.365  0.5155 -0.4490  1.8456
  703MOL0     H94861   2.920   6.640   3.374 -2.3153 -0.0779 -0.6839
  703MOL0     H94862   2.827   6.782   3.391 -0.1270  0.6947 -0.9054
  703MOL0     H94863   2.927   6.855   3.591 -2.9325  0.1571 -3.8038
  703MOL0     H94864   3.043   6.722   3.596 -0.5234  1.4861  1.4231
  703MOL0     H94865   2.722   6.491   3.748  1.6642  1.0587  1.1698
  703MOL0     H94866   2.453   6.536   3.951  0.7897  0.8401 -1.7646
  703MOL0     H94867   2.388   6.442   3.810 -0.3396  1.0297 -0.6212
  703MOL0     H94868   2.551   6.413   3.893  3.2089  1.6655 -1.5213
  703MOL0     H94869   2.202   6.801   4.063  0.4919  2.0756  4.1756
  703MOL0     H94870   1.968   6.855   4.163 -0.3436  2.6897  0.7045
  703MOL0     H94871   1.697   6.879   4.151 -1.7247  0.4711 -1.9529
  703MOL0     H94872   1.786   7.016   4.224 -0.8095 -0.8678  0.6398
  703MOL0     H94873   1.505   7.026   4.111  1.2856 -0.8998 -0.6511
  703MOL0     H94874   1.567   7.062   4.271 -1.3222 -0.8900  0.2843
  703MOL0     H94875   1.540   7.284   4.178 -1.1816 -1.0281  0.9874
  703MOL0     H94876   1.580   7.236   4.010  3.2301  1.5325 -0.5697
  703MOL0     H94877   1.774   7.219   4.246  1.4909  0.6633 -0.2360
  703MOL0     H94878   1.816   7.237   4.082  1.4324  0.8061  1.2143
  703MOL0     H94879   1.831   7.455   4.220  0.1396 -2.9789  2.5505
  703MOL0     H94880   1.660   7.454   4.246 -1.7261  0.6527 -1.5871
  703MOL0     H94881   1.803   7.455   3.972  0.9763  1.4438 -0.0103
  703MOL0     H94882   1.627   7.453   3.981 -0.1282 -1.2651  0.4654
  703MOL0     H94883   1.809   7.676   4.085  0.7788  0.8628 -1.1319
  703MOL0     H94884   1.638   7.649   4.142  0.1371 -0.3046  0.6267
  703MOL0     H94885   1.556   7.646   3.897 -0.4135  0.8809 -1.7974
  703MOL0     H94886   1.716   7.709   3.856  0.7608 -0.3383  1.3420
  703MOL0     H94887   1.886   7.056   3.783 -1.2991 -1.3177  0.6193
  703MOL0     H94888   2.103   7.003   3.705  0.3760  2.0409  0.7749
  703MOL0     H94889   2.478   6.904   3.651  1.1345  0.5824 -0.1123
  703MOL0     H94890   2.701   6.890   3.588  0.0367 -1.3365 -2.7379
  703MOL0     H94891   4.370   6.835   2.619  1.5522  2.2549 -1.5470
  703MOL0     H94892   4.612   6.847   2.684 -0.0632  0.5251  0.0942
  703MOL0     H94893   4.910   7.140   3.172 -0.7983  2.2380 -3.0505
  703MOL0     H94894   5.145   7.113   3.214  0.0153 -0.4607  0.0500
  703MOL0     H94895   5.339   6.842   2.900  1.5494  0.0648 -0.3336
  703MOL0     H94896   5.477   6.887   2.985 -0.1667 -1.2877  1.4886
  703MOL0     H94897   5.413   6.642   2.991  0.7124  0.4123 -1.4350
  703MOL0     H94898   5.296   6.684   3.120 -0.2557  2.6067  0.8316
  703MOL0     H94899   5.464   6.749   3.262 -2.4130  4.0219 -2.4241
  703MOL0     H94900   5.594   6.761   3.141 -1.2585  2.0449 -0.3796
  703MOL0     H94901   5.639   6.563   3.252 -0.7695  1.3841  0.3260
  703MOL0     H94902   5.571   6.510   3.099 -1.4174 -0.1209 -0.4636
  703MOL0     H94903   5.289   6.361   3.383  0.3040 -1.2788 -1.2044
  703MOL0     H94904   5.130   6.773   2.919 -0.0585  0.4001 -1.4743
  703MOL0     H94905   4.922   6.798   2.901  1.5398  0.1496 -1.2092
  704MOL0     O94906   0.256  10.418   4.039  0.5453 -0.8831  0.3911
  704MOL0     C94907   0.328  10.496   4.100  0.5302 -0.3280  1.0227
  704MOL0     O94908   0.310  10.520   4.235  0.0787 -0.0124 -0.4626
  704MOL0     C94909   0.243  10.428   4.310  0.4180 -0.3703 -0.6555
  704MOL0     C94910   0.111  10.453   4.339 -0.3069  0.0856 -0.2921
  704MOL0     C94911   0.037  10.364   4.416  0.7098  0.1435 -0.6326
  704MOL0     C94912   0.098  10.250   4.461 -0.4656  0.8548  0.3909
  704MOL0     O94913   0.022  10.157   4.529  0.5883 -0.0572 -0.4397
  704MOL0     C94914   0.052  10.019   4.523 -0.8610  1.0390 -0.4603
  704MOL0     C94915  -0.071   9.925   4.502  0.0224  0.9098  0.2937
  704MOL0     C94916  -0.200   9.974   4.571  0.4043  0.4060  0.0149
  704MOL0     C94917  -0.316   9.899   4.510  0.2025  0.0230  1.2381
  704MOL0     C94918  -0.456   9.921   4.577  0.9967 -0.2106  0.4189
  704MOL0     C94919  -0.562   9.821   4.522  0.2156 -0.3620 -0.0752
  704MOL0     C94920  -0.706   9.816   4.595 -0.3156 -0.1295 -0.6198
  704MOL0     C94921  -0.782   9.939   4.563  0.5545  0.0823  0.1731
  704MOL0     N94922  -0.923   9.932   4.620 -1.2158  0.5260 -0.0831
  704MOL0     C94923  -0.953   9.894   4.747 -0.7090  0.7762  0.4555
  704MOL0     C94924  -1.088   9.887   4.746 -0.5903  0.7683 -0.8296
  704MOL0     C94925  -1.179   9.853   4.866  0.1936 -1.0776 -0.0758
  704MOL0     C94926  -1.322   9.835   4.819  0.1806 -0.2810 -0.0801
  704MOL0     C94927  -1.407   9.775   4.931 -0.2179  0.5341 -0.1911
  704MOL0     C94928  -1.558   9.781   4.910  1.1457  0.0103 -0.8206
  704MOL0     O94929  -1.611   9.708   5.018  0.5285 -0.2858  0.0457
  704MOL0     C94930  -1.746   9.685   5.016  0.2495 -0.0191  0.1947
  704MOL0     C94931  -1.796   9.601   5.120  0.6503 -0.1355 -0.0594
  704MOL0     C94932  -1.932   9.579   5.146 -0.1634 -0.2880  0.4873
  704MOL0     C94933  -1.965   9.483   5.256 -0.1623  0.0934  0.5176
  704MOL0     C94934  -2.030   9.646   5.059 -0.0867  0.6713  0.2444
  704MOL0     C94935  -2.174   9.636   5.097 -0.3578  0.7624  0.5353
  704MOL0     O94936  -2.217   9.582   5.215  0.2363  1.1002 -0.2127
  704MOL0     C94937  -2.339   9.531   5.246 -0.2118 -0.5309 -0.1468
  704MOL0     C94938  -2.431   9.477   5.167  0.7044  0.1621 -0.8035
  704MOL0     C94939  -2.541   9.401   5.217  0.1479  0.0783 -0.6435
  704MOL0     C94940  -2.557   9.389   5.352  1.4856  0.7898  0.7455
  704MOL0     O94941  -2.659   9.310   5.417  0.0588 -0.0038 -0.4503
  704MOL0     C94942  -2.743   9.220   5.340 -0.8875 -0.2516  0.7619
  704MOL0     C94943  -2.838   9.143   5.432  0.2856  0.2309 -0.1818
  704MOL0     C94944  -2.934   9.049   5.358  0.0199 -0.7193  0.5726
  704MOL0     C94945  -3.010   8.964   5.464 -0.9229  0.1595 -0.1789
  704MOL0     C94946  -3.115   8.880   5.399  0.6736  0.5041 -0.7617
  704MOL0     C94947  -3.251   8.965   5.379 -0.4641 -0.6914  0.0439
  704MOL0     C94948  -3.347   8.871   5.304  0.6233  0.8284  0.8705
  704MOL0     C94949  -3.415   8.762   5.391 -0.1732 -0.4837 -0.6684
  704MOL0    Cl94950  -3.491   8.635   5.288 -0.1899 -0.1778 -0.1724
  704MOL0     C94951  -2.474   9.466   5.433  0.1070  0.3536 -0.6404
  704MOL0     C94952  -2.360   9.522   5.382 -0.1143 -0.8530  0.4183
  704MOL0     O94953  -2.250   9.680   5.012  0.2916  0.4718  0.0511
  704MOL0     C94954  -1.979   9.727   4.961 -0.3687 -0.9368 -0.1403
  704MOL0     C94955  -1.844   9.753   4.939  0.0316  0.8828  0.4026
  704MOL0     N94956  -1.135   9.921   4.619 -0.6297  0.5736 -0.4438
  704MOL0     N94957  -1.034   9.947   4.546  0.4932  0.1749 -0.1471
  704MOL0     C94958   0.239  10.226   4.440 -0.2320 -0.2316  0.0968
  704MOL0     C94959   0.311  10.318   4.363 -0.1989 -0.6873 -0.6190
  704MOL0     C94960   0.424  10.567   4.018 -0.6008 -0.2669 -0.3587
  704MOL0     C94961   0.403  10.605   3.886  0.5903  0.1329 -1.0838
  704MOL0     C94962   0.508  10.663   3.816  0.5618  0.5657  1.1737
  704MOL0     C94963   0.630  10.674   3.873  0.4692 -0.4638 -0.6478
  704MOL0     O94964   0.718  10.733   3.794  0.4928 -0.4440 -0.1520
  704MOL0     C94965   0.843  10.772   3.853 -0.6909 -0.1953  0.4870
  704MOL0     C94966   0.831  10.901   3.938 -0.0330  0.4312 -0.3220
  704MOL0     C94967   0.850  11.013   3.840  0.6247 -0.6204  0.1662
  704MOL0     C94968   0.835  11.146   3.923 -0.4615  0.6283  0.6696
  704MOL0     C94969   0.947  11.162   4.019 -0.4161 -0.2886  0.0296
  704MOL0     C94970   1.037  11.193   4.097  0.5900 -0.4282 -0.1939
  704MOL0     C94971   0.646  10.644   4.010 -0.0790  0.4806 -0.9493
  704MOL0     C94972   0.547  10.586   4.078 -0.0519  0.4063 -0.4982
  704MOL0     H94973   0.071  10.544   4.295  3.2063  2.4878  1.1019
  704MOL0     H94974  -0.070  10.379   4.427  0.6376 -0.9347  0.3678
  704MOL0     H94975   0.125  10.004   4.443 -1.9446  0.3015 -1.3321
  704MOL0     H94976   0.093   9.991   4.621  1.6527  0.4588 -1.6103
  704MOL0     H94977  -0.089   9.905   4.396  0.9424  1.9778 -0.0814
  704MOL0     H94978  -0.048   9.831   4.553 -0.0527  0.7798  0.0895
  704MOL0     H94979  -0.207   9.935   4.673 -0.4349 -1.2634 -0.6425
  704MOL0     H94980  -0.209  10.082   4.564  0.5768  0.4717  0.7379
  704MOL0     H94981  -0.325   9.924   4.404 -0.4319 -1.2457  0.9659
  704MOL0     H94982  -0.292   9.792   4.510 -0.7430 -0.2053  0.0516
  704MOL0     H94983  -0.451   9.922   4.686 -0.3724 -0.9829  0.5140
  704MOL0     H94984  -0.485  10.022   4.547 -1.9743  0.0064  3.4726
  704MOL0     H94985  -0.575   9.823   4.413 -2.7142  3.0845  0.1322
  704MOL0     H94986  -0.513   9.725   4.543  3.1415  1.4773  2.3720
  704MOL0     H94987  -0.757   9.726   4.561  0.8046 -2.3149  2.8840
  704MOL0     H94988  -0.686   9.792   4.700 -0.7753  0.3148 -0.4262
  704MOL0     H94989  -0.799   9.947   4.455 -0.4068  0.2500  0.3295
  704MOL0     H94990  -0.726  10.022   4.606 -1.2035  1.0458  0.7068
  704MOL0     H94991  -0.887   9.859   4.826 -2.0970  1.5179  2.0096
  704MOL0     H94992  -1.147   9.759   4.911  2.1753 -0.4087 -0.0056
  704MOL0     H94993  -1.172   9.942   4.929  0.6369 -0.2424 -1.2761
  704MOL0     H94994  -1.324   9.774   4.728  1.4434 -2.1561  1.0907
  704MOL0     H94995  -1.370   9.931   4.796 -2.0058 -0.8809  1.6424
  704MOL0     H94996  -1.381   9.831   5.021  0.5924 -0.6974  0.3603
  704MOL0     H94997  -1.384   9.669   4.943 -1.9729 -0.0430 -1.5945
  704MOL0     H94998  -1.584   9.722   4.822 -0.3911 -1.7033  0.6723
  704MOL0     H94999  -1.594   9.884   4.907  0.1283 -0.3563 -1.6920
  704MOL0     H95000  -1.718   9.565   5.186  2.5746  2.9830 -0.3735
  704MOL0     H95001  -1.878   9.419   5.271 -0.1890  0.0333  0.4124
  704MOL0     H95002  -1.976   9.538   5.350 -0.2518 -0.5000  0.8587
  704MOL0     H95003  -2.054   9.422   5.241 -0.8966  1.2500 -0.0098
  704MOL0     H95004  -2.422   9.490   5.060  1.1779 -0.0279 -0.7877
  704MOL0     H95005  -2.604   9.347   5.147 -1.0733  0.3689  0.2039
  704MOL0     H95006  -2.794   9.282   5.265  0.6610  0.9719  0.6676
  704MOL0     H95007  -2.689   9.143   5.285 -0.6762  0.6701 -0.3589
  704MOL0     H95008  -2.782   9.087   5.508 -0.1367  0.5583  0.3774
  704MOL0     H95009  -2.897   9.220   5.482 -0.0860 -0.7137  0.8778
  704MOL0     H95010  -2.884   8.976   5.294 -2.1829 -1.6114 -0.2327
  704MOL0     H95011  -3.002   9.109   5.297  2.1961 -0.2744 -1.5269
  704MOL0     H95012  -2.936   8.903   5.517  0.7579  1.2360 -1.1931
  704MOL0     H95013  -3.060   9.026   5.539  0.6158  2.4903 -0.9871
  704MOL0     H95014  -3.120   8.792   5.463  3.8267  0.6510 -0.1455
  704MOL0     H95015  -3.078   8.840   5.304 -2.2387  1.6260 -2.4987
  704MOL0     H95016  -3.298   8.993   5.473 -0.7257  2.6565 -0.9661
  704MOL0     H95017  -3.233   9.055   5.320 -1.5012  0.8062  1.9005
  704MOL0     H95018  -3.302   8.830   5.213 -2.3451 -0.0671 -0.3213
  704MOL0     H95019  -3.425   8.936   5.264  1.2403  0.4001 -1.1284
  704MOL0     H95020  -3.496   8.805   5.450  2.1843 -0.2828  2.7127
  704MOL0     H95021  -3.348   8.721   5.467  0.4443  0.5102 -0.6591
  704MOL0     H95022  -2.470   9.458   5.541  1.2179 -2.0722 -0.8006
  704MOL0     H95023  -2.277   9.572   5.431  1.3506  0.4626 -3.0640
  704MOL0     H95024  -2.048   9.783   4.898  0.2454  0.3157  0.2851
  704MOL0     H95025  -1.816   9.824   4.861 -0.1512  2.2530  1.5359
  704MOL0     H95026   0.285  10.140   4.487 -0.7441 -0.1845  0.6986
  704MOL0     H95027   0.417  10.298   4.353  0.1362  1.4905 -2.3380
  704MOL0     H95028   0.309  10.575   3.841 -0.8052  1.3075  0.8761
  704MOL0     H95029   0.488  10.695   3.714  1.2261  0.8821  1.1430
  704MOL0     H95030   0.894  10.691   3.907  3.2371 -0.1668 -2.6931
  704MOL0     H95031   0.910  10.789   3.768  1.9986 -0.9190  2.3296
  704MOL0     H95032   0.918  10.900   4.003  0.0742  1.6168 -0.4288
  704MOL0     H95033   0.730  10.900   3.979 -0.2139  2.4191 -0.6175
  704MOL0     H95034   0.779  11.008   3.757  0.2279  4.4351 -0.0839
  704MOL0     H95035   0.950  11.019   3.796  0.6022  1.8271  0.3392
  704MOL0     H95036   0.741  11.154   3.979 -0.2965  2.0735  0.7788
  704MOL0     H95037   0.828  11.238   3.864 -0.7291 -0.3719 -0.9075
  704MOL0     H95038   1.121  11.217   4.158  0.6512  1.8362 -1.0343
  704MOL0     H95039   0.744  10.656   4.055 -0.0592 -0.1327 -0.8244
  704MOL0     H95040   0.556  10.546   4.179 -0.5708  0.4676 -0.4246
  705MOL0     O95041  10.478   1.157  10.677 -0.3649 -0.7870 -0.7411
  705MOL0     C95042  10.415   1.157  10.570 -0.0229 -0.5551  0.4479
  705MOL0     O95043  10.465   1.111  10.446  0.1566 -0.3549 -0.6627
  705MOL0     C95044  10.599   1.072  10.429  0.0171  0.6556 -0.1651
  705MOL0     C95045  10.689   1.173  10.430 -0.3737 -0.4300 -0.0071
  705MOL0     C95046  10.823   1.147  10.408 -0.0505  0.8262  0.0477
  705MOL0     C95047  10.864   1.016  10.377 -0.5025  0.0383  0.0385
  705MOL0     O95048  10.995   0.982  10.364 -0.1227 -0.8028 -0.1376
  705MOL0     C95049  11.038   0.927  10.487 -0.6837 -0.2238  0.1679
  705MOL0     C95050  11.190   0.941  10.486 -0.3231  0.3283 -0.5354
  705MOL0     C95051  11.248   0.860  10.604  0.3390 -0.0025  0.0850
  705MOL0     C95052  11.382   0.918  10.649 -0.8376 -0.7465  0.3043
  705MOL0     C95053  11.466   0.833  10.736 -0.3218 -0.0043 -0.5643
  705MOL0     C95054  11.587   0.919  10.784 -0.6986 -0.1293  1.2700
  705MOL0     C95055  11.634   0.876  10.915 -0.0367  0.6573 -0.0021
  705MOL0     C95056  11.776   0.906  10.953  0.5508  0.7603  0.0214
  705MOL0     N95057  11.810   0.910  11.092 -0.1196  0.9136 -0.1846
  705MOL0     C95058  11.778   0.811  11.190 -0.5022 -0.5848  0.9611
  705MOL0     C95059  11.813   0.871  11.304  0.0504  0.7698 -0.5551
  705MOL0     C95060  11.791   0.816  11.451  0.8394 -0.0384  0.0958
  705MOL0     C95061  11.647   0.787  11.490 -0.3803 -0.8058  0.6243
  705MOL0     C95062  11.645   0.748  11.638 -0.7061  0.2079  0.5539
  705MOL0     C95063  11.513   0.683  11.674 -0.4925 -0.1740 -1.2163
  705MOL0     O95064  11.401   0.777  11.655 -0.6228  0.0000 -0.2658
  705MOL0     C95065  11.271   0.725  11.657 -0.2659  0.4836  0.3130
  705MOL0     C95066  11.243   0.607  11.719 -0.0805  0.2425 -0.1244
  705MOL0     C95067  11.110   0.558  11.710  0.5336  0.8494  0.1175
  705MOL0     C95068  11.084   0.418  11.760 -0.2097 -0.1150  0.5641
  705MOL0     C95069  11.014   0.635  11.648 -0.3313 -0.2752 -0.0605
  705MOL0     C95070  10.867   0.605  11.635 -0.4716 -0.1854 -0.1687
  705MOL0     O95071  10.815   0.502  11.715 -0.3307 -0.6643 -1.5223
  705MOL0     C95072  10.696   0.447  11.674  0.7455 -0.0706 -0.3373
  705MOL0     C95073  10.681   0.308  11.665  0.5034 -0.6299 -0.3006
  705MOL0     C95074  10.556   0.253  11.624 -0.4731  0.0029 -0.0575
  705MOL0     C95075  10.449   0.336  11.597  0.0982  0.0409 -0.4979
  705MOL0     O95076  10.325   0.281  11.566 -0.1169  0.0547  0.1347
  705MOL0     C95077  10.231   0.358  11.493  0.5607 -0.6542 -0.1266
  705MOL0     C95078  10.136   0.275  11.418  0.2318  0.1878 -0.3156
  705MOL0     C95079  10.028   0.224  11.520  0.2966  0.7084 -0.3750
  705MOL0     C95080   9.911   0.161  11.443  0.5231 -0.2393 -0.9619
  705MOL0     C95081   9.782   0.154  11.517  0.2347  0.2121 -0.2347
  705MOL0     C95082   9.788   0.105  11.664  0.3244 -0.6434  0.9304
  705MOL0     C95083   9.802  -0.044  11.688  0.0431  0.0114 -1.4744
  705MOL0     C95084   9.811  -0.083  11.834  0.4093 -0.2515  0.0657
  705MOL0    Cl95085   9.938  -0.009  11.923 -0.0523  0.2859 -0.7051
  705MOL0     C95086  10.459   0.475  11.622 -0.2094 -0.0628  0.5697
  705MOL0     C95087  10.581   0.526  11.659  0.5034  0.5907  0.4158
  705MOL0     O95088  10.794   0.673  11.557 -0.1116 -0.4700 -0.0614
  705MOL0     C95089  11.049   0.757  11.585  0.3010  0.9361  0.1846
  705MOL0     C95090  11.177   0.799  11.588 -0.3295  0.0295  0.2483
  705MOL0     N95091  11.866   0.995  11.282  0.5654  0.1089  0.2885
  705MOL0     N95092  11.852   1.021  11.158 -0.2649 -0.3444 -0.4440
  705MOL0     C95093  10.769   0.913  10.378 -0.4688  0.3254  1.0090
  705MOL0     C95094  10.636   0.943  10.405  0.4986 -0.4418 -0.3329
  705MOL0     C95095  10.283   1.224  10.572 -0.3766  0.3442 -0.1349
  705MOL0     C95096  10.227   1.253  10.450 -0.1363  0.4650 -0.9869
  705MOL0     C95097  10.104   1.323  10.446 -0.0226 -0.0394 -0.1816
  705MOL0     C95098  10.051   1.390  10.558  0.3670 -0.4972 -0.7168
  705MOL0     O95099   9.945   1.471  10.543 -0.6237 -0.6030  0.4119
  705MOL0     C95100   9.871   1.529  10.652 -0.0317 -0.1519  0.1898
  705MOL0     C95101   9.739   1.582  10.596  0.5879 -0.5156 -0.4239
  705MOL0     C95102   9.625   1.588  10.699 -0.5400 -0.6807  0.0201
  705MOL0     C95103   9.508   1.660  10.649 -0.2957 -0.1117  0.1520
  705MOL0     C95104   9.391   1.628  10.721  0.1848  0.3720 -0.3821
  705MOL0     C95105   9.290   1.574  10.768 -1.3504  0.5519  0.6138
  705MOL0     C95106  10.100   1.354  10.680  1.0090  1.5568  0.4438
  705MOL0     C95107  10.209   1.261  10.687  0.0672 -0.1145  0.4038
  705MOL0     H95108  10.667   1.276  10.456  0.7850  0.0904 -0.9942
  705MOL0     H95109  10.897   1.226  10.398  0.8095 -0.1562 -1.8892
  705MOL0     H95110  10.996   0.993  10.563 -1.5717 -0.0401 -0.4594
  705MOL0     H95111  11.012   0.822  10.499  2.5294 -0.8131  3.7131
  705MOL0     H95112  11.231   0.904  10.391  2.5537  0.0694  0.6937
  705MOL0     H95113  11.201   1.049  10.502  1.2010  0.1031  0.0596
  705MOL0     H95114  11.170   0.848  10.680 -0.5878 -1.0648 -1.0122
  705MOL0     H95115  11.259   0.762  10.558  0.6083  0.1574 -0.1994
  705MOL0     H95116  11.436   0.920  10.554 -0.2297 -1.6107  0.6166
  705MOL0     H95117  11.377   1.021  10.686  1.1923 -0.4006 -0.2256
  705MOL0     H95118  11.406   0.793  10.819  1.6443  1.5365  1.7487
  705MOL0     H95119  11.494   0.746  10.677 -2.5151  0.0036 -1.7212
  705MOL0     H95120  11.668   0.902  10.713 -0.4636  1.5952  1.0705
  705MOL0     H95121  11.563   1.026  10.785  2.1886  0.8011 -2.7928
  705MOL0     H95122  11.575   0.913  10.999 -0.9845 -2.5404  0.8502
  705MOL0     H95123  11.624   0.768  10.927  0.0320  0.7421  0.8947
  705MOL0     H95124  11.800   1.004  10.911  0.2566 -0.5256 -3.5529
  705MOL0     H95125  11.839   0.837  10.896 -1.7466  0.9864 -3.0992
  705MOL0     H95126  11.723   0.718  11.176 -0.8738 -0.0786 -1.4298
  705MOL0     H95127  11.863   0.736  11.469  1.8719  1.2942  2.2614
  705MOL0     H95128  11.819   0.897  11.518  1.3172  1.1905 -1.5288
  705MOL0     H95129  11.603   0.713  11.423  0.9743  0.5498 -1.8899
  705MOL0     H95130  11.596   0.884  11.481  1.6403  0.1622 -1.1871
  705MOL0     H95131  11.654   0.838  11.699 -0.7678  0.8064 -0.3026
  705MOL0     H95132  11.727   0.677  11.650 -0.9758 -0.4120 -1.0335
  705MOL0     H95133  11.521   0.656  11.779 -1.4767 -1.6683 -1.5059
  705MOL0     H95134  11.513   0.586  11.623  0.7097 -0.4204 -0.7904
  705MOL0     H95135  11.319   0.547  11.769  0.6011  0.0866 -1.3119
  705MOL0     H95136  11.028   0.415  11.854 -0.9532 -1.2686  0.1009
  705MOL0     H95137  11.032   0.370  11.676  0.0790  1.6838 -0.6959
  705MOL0     H95138  11.182   0.371  11.768 -0.0892  0.0474  0.0789
  705MOL0     H95139  10.766   0.242  11.681  0.7164 -1.0791 -2.9509
  705MOL0     H95140  10.542   0.145  11.626  0.0685 -0.1481 -2.1237
  705MOL0     H95141  10.184   0.429  11.563 -1.8552 -0.5970 -1.6852
  705MOL0     H95142  10.284   0.422  11.422  0.1709  1.0571  1.0725
  705MOL0     H95143  10.091   0.342  11.344  1.0516  2.6580  1.2756
  705MOL0     H95144  10.194   0.196  11.370  0.7226  1.6720 -2.2529
  705MOL0     H95145   9.992   0.307  11.580  1.7040  0.4723  0.8512
  705MOL0     H95146  10.062   0.152  11.595  2.3696  2.2696  0.2550
  705MOL0     H95147   9.898   0.229  11.359  0.7774 -1.1118 -1.7173
  705MOL0     H95148   9.930   0.060  11.404  0.1481 -1.9215  2.7428
  705MOL0     H95149   9.719   0.084  11.461  0.8783  1.6540 -2.8836
  705MOL0     H95150   9.723   0.245  11.500  0.6195  0.0647 -2.7397
  705MOL0     H95151   9.871   0.156  11.714 -0.5228  3.6082 -1.5463
  705MOL0     H95152   9.693   0.131  11.711 -0.2529 -0.9897 -0.0109
  705MOL0     H95153   9.890  -0.085  11.638  0.9960 -0.5516  0.5553
  705MOL0     H95154   9.711  -0.095  11.655 -0.2629  0.9049 -2.0251
  705MOL0     H95155   9.827  -0.190  11.848 -0.1486 -0.7326 -2.4787
  705MOL0     H95156   9.713  -0.060  11.875  0.7670 -0.8763  1.3094
  705MOL0     H95157  10.367   0.533  11.622 -0.6808 -0.7991  0.3224
  705MOL0     H95158  10.593   0.632  11.678  0.1462  0.8782 -0.8761
  705MOL0     H95159  10.963   0.807  11.541 -0.2032  2.0248  2.2618
  705MOL0     H95160  11.208   0.891  11.541 -1.3260  1.2975  1.9533
  705MOL0     H95161  10.790   0.807  10.367 -2.4723  0.1337 -3.1352
  705MOL0     H95162  10.558   0.869  10.393 -3.9765  3.6927  0.0835
  705MOL0     H95163  10.266   1.218  10.356 -2.6056  1.2659 -2.4025
  705MOL0     H95164  10.054   1.326  10.349  0.6218 -2.0899 -0.6182
  705MOL0     H95165   9.850   1.445  10.719 -2.4244  1.2188  1.2882
  705MOL0     H95166   9.922   1.601  10.717 -1.1681  2.2486 -1.4593
  705MOL0     H95167   9.710   1.516  10.514  1.7299 -1.4474 -0.1029
  705MOL0     H95168   9.755   1.688  10.573  0.7184 -0.7405 -1.3961
  705MOL0     H95169   9.661   1.632  10.793 -1.9729 -0.6166  0.5604
  705MOL0     H95170   9.596   1.486  10.724  0.7220 -1.5164 -1.7095
  705MOL0     H95171   9.487   1.630  10.546 -2.7731 -2.6446  1.2542
  705MOL0     H95172   9.520   1.768  10.648 -1.6069  0.0574 -2.0159
  705MOL0     H95173   9.205   1.512  10.786 -0.3104 -1.0414  0.2577
  705MOL0     H95174  10.051   1.390  10.769 -1.4138  0.9365 -0.5685
  705MOL0     H95175  10.243   1.222  10.782 -0.7056 -1.8224  0.0284
  706MOL0     O95176   3.418   7.363   1.311  0.2797 -0.0015  0.0056
  706MOL0     C95177   3.473   7.373   1.426  0.4359  0.4691  0.5470
  706MOL0     O95178   3.402   7.378   1.542 -0.4596  0.5817  0.6113
  706MOL0     C95179   3.272   7.419   1.553 -0.2235 -0.3954 -0.4556
  706MOL0     C95180   3.236   7.551   1.514  0.3385 -0.2486 -0.4812
  706MOL0     C95181   3.102   7.592   1.521  0.2155  0.5682 -0.8213
  706MOL0     C95182   3.010   7.508   1.584  1.2193 -0.5613  0.3212
  706MOL0     O95183   2.880   7.540   1.611 -0.1656  0.3179 -0.5706
  706MOL0     C95184   2.809   7.633   1.532  0.6487 -0.3626 -0.4901
  706MOL0     C95185   2.665   7.603   1.563 -0.2145  0.3106 -0.6795
  706MOL0     C95186   2.569   7.662   1.459 -0.8219  0.3742 -0.0806
  706MOL0     C95187   2.430   7.602   1.467 -0.1838  0.0098  0.3419
  706MOL0     C95188   2.336   7.692   1.548 -0.4327 -0.0275  0.2958
  706MOL0     C95189   2.208   7.601   1.569  0.3849 -0.0800  0.6422
  706MOL0     C95190   2.109   7.675   1.660 -0.6689  0.3211  1.1036
  706MOL0     C95191   2.162   7.669   1.806  0.2985 -0.5315  0.0633
  706MOL0     N95192   2.082   7.751   1.897 -1.1812 -0.5525  0.7585
  706MOL0     C95193   2.093   7.890   1.891  0.5999 -0.4101 -0.2867
  706MOL0     C95194   1.987   7.931   1.963  0.5676 -0.7551 -0.2294
  706MOL0     C95195   1.950   8.065   2.025 -0.5427 -0.4457  0.8345
  706MOL0     C95196   2.029   8.172   1.973  0.0449 -0.4924  0.1466
  706MOL0     C95197   2.011   8.302   2.051  0.0049 -0.4615 -0.1604
  706MOL0     C95198   1.866   8.334   2.088 -0.0920  0.2159  0.3765
  706MOL0     O95199   1.791   8.339   1.968 -0.2973  0.2750  0.3644
  706MOL0     C95200   1.651   8.346   1.968 -0.4783  0.1680  0.1029
  706MOL0     C95201   1.582   8.353   1.845 -0.1142  0.5089 -0.3253
  706MOL0     C95202   1.448   8.385   1.830 -0.3316  0.1865 -1.3582
  706MOL0     C95203   1.404   8.393   1.690  0.3748 -0.0641  0.0057
  706MOL0     C95204   1.369   8.387   1.948 -0.8907 -0.5189 -0.0447
  706MOL0     C95205   1.227   8.397   1.955 -0.3207 -0.2357 -0.5379
  706MOL0     O95206   1.161   8.448   1.852 -0.0204  0.3600  0.3618
  706MOL0     C95207   1.026   8.485   1.861 -0.6247 -0.0991 -0.8105
  706MOL0     C95208   0.938   8.444   1.759 -0.1005  0.5887 -0.5416
  706MOL0     C95209   0.807   8.495   1.749  0.3931 -0.4356 -0.2788
  706MOL0     C95210   0.762   8.587   1.841 -0.1798  0.1035 -0.2996
  706MOL0     O95211   0.644   8.667   1.840  0.0107  0.3193  0.3349
  706MOL0     C95212   0.599   8.690   1.698 -0.6312  0.1723 -0.2751
  706MOL0     C95213   0.510   8.806   1.673 -0.8276  0.4919 -0.4794
  706MOL0     C95214   0.384   8.799   1.766 -0.0534  0.8494 -0.2743
  706MOL0     C95215   0.310   8.920   1.741 -0.4211 -0.5107  0.3991
  706MOL0     C95216   0.213   8.942   1.856 -0.0199 -0.1639 -0.3912
  706MOL0     C95217   0.117   9.061   1.814  0.0094 -0.0631 -0.4519
  706MOL0     C95218   0.031   9.103   1.935 -1.0567 -1.4618 -0.2142
  706MOL0     C95219   0.112   9.187   2.042 -0.3079 -0.3944  0.1528
  706MOL0    Cl95220   0.029   9.208   2.196  0.0738  0.0295 -0.2140
  706MOL0     C95221   0.849   8.632   1.942 -0.4088 -0.2933 -0.2977
  706MOL0     C95222   0.981   8.583   1.948  0.1636 -0.5404  0.8919
  706MOL0     O95223   1.176   8.369   2.066  0.3804 -0.1329  0.2005
  706MOL0     C95224   1.441   8.390   2.069 -0.2102 -0.7206  0.4611
  706MOL0     C95225   1.574   8.349   2.080 -0.6773 -0.5038 -0.4002
  706MOL0     N95226   1.916   7.820   1.998  0.0463  0.5439 -0.5573
  706MOL0     N95227   1.970   7.709   1.956  0.6114  0.2044 -0.1701
  706MOL0     C95228   3.048   7.374   1.628  0.3323  0.0086  1.0112
  706MOL0     C95229   3.177   7.338   1.623 -1.0176  0.0786  0.1581
  706MOL0     C95230   3.626   7.395   1.426 -0.0997 -0.0423 -0.2353
  706MOL0     C95231   3.702   7.371   1.302  0.0041 -0.2468 -0.0594
  706MOL0     C95232   3.844   7.407   1.295  0.4280 -0.7519 -0.4982
  706MOL0     C95233   3.905   7.457   1.419 -0.4968 -1.0422  0.4318
  706MOL0     O95234   4.043   7.489   1.427  0.3376  0.1270  0.5653
  706MOL0     C95235   4.115   7.480   1.305  0.6612  1.1961 -0.1336
  706MOL0     C95236   4.262   7.505   1.323 -0.0370 -0.6869  0.6606
  706MOL0     C95237   4.315   7.415   1.430 -0.3918 -0.5779 -0.4179
  706MOL0     C95238   4.469   7.423   1.450  0.0936  0.2111 -0.2260
  706MOL0     C95239   4.541   7.378   1.329 -0.4065  0.0678  0.1562
  706MOL0     C95240   4.588   7.357   1.219  0.0499 -1.0715  0.1233
  706MOL0     C95241   3.827   7.465   1.533  0.1858  0.5914 -0.3947
  706MOL0     C95242   3.687   7.435   1.544 -0.5185 -0.6376  0.5477
  706MOL0     H95243   3.304   7.621   1.468 -0.4043  0.4867 -0.4926
  706MOL0     H95244   3.083   7.690   1.478 -1.8949 -0.0030 -1.3167
  706MOL0     H95245   2.822   7.738   1.557  1.1615 -0.4891 -0.2185
  706MOL0     H95246   2.827   7.627   1.424 -0.9580  0.8192 -0.8602
  706MOL0     H95247   2.655   7.495   1.577  2.2943  0.1754  0.5758
  706MOL0     H95248   2.647   7.649   1.661  2.0083  0.2357 -0.2024
  706MOL0     H95249   2.562   7.768   1.485 -0.3256  0.7662 -1.4244
  706MOL0     H95250   2.619   7.657   1.362  0.7131  2.2667  0.5468
  706MOL0     H95251   2.383   7.589   1.369  0.0508 -2.2277  0.4714
  706MOL0     H95252   2.432   7.508   1.524 -0.1349  1.9091  3.7629
  706MOL0     H95253   2.389   7.719   1.639  0.6970 -1.2787  0.0294
  706MOL0     H95254   2.318   7.793   1.509 -1.6659 -1.1485 -2.3660
  706MOL0     H95255   2.159   7.595   1.471  0.3509  0.0721  0.6491
  706MOL0     H95256   2.227   7.501   1.607  0.8775  1.1294  3.8610
  706MOL0     H95257   2.109   7.775   1.615 -0.3282 -0.9096 -1.8232
  706MOL0     H95258   2.012   7.627   1.644  0.2875 -2.2792  2.5910
  706MOL0     H95259   2.266   7.701   1.816  0.4359 -1.4227  1.9781
  706MOL0     H95260   2.158   7.561   1.826  1.8687 -0.7169 -0.4617
  706MOL0     H95261   2.171   7.952   1.847  0.3105 -0.2176 -0.5264
  706MOL0     H95262   1.843   8.084   2.018 -1.2006 -3.1041  2.0824
  706MOL0     H95263   1.970   8.050   2.132  1.8700  4.0071  1.2340
  706MOL0     H95264   2.012   8.185   1.866  1.4167  0.2170 -0.0072
  706MOL0     H95265   2.134   8.152   1.992  0.7727  1.7384 -1.1297
  706MOL0     H95266   2.054   8.392   2.004  1.2077 -0.1799  1.4029
  706MOL0     H95267   2.071   8.300   2.142  0.4778 -1.4168 -0.4831
  706MOL0     H95268   1.865   8.433   2.134 -0.9091  0.4322 -0.0755
  706MOL0     H95269   1.822   8.256   2.150 -0.7915 -0.7962 -1.3267
  706MOL0     H95270   1.638   8.344   1.752 -1.3593  0.0186 -1.0600
  706MOL0     H95271   1.481   8.365   1.617  0.7448 -0.2603  0.4706
  706MOL0     H95272   1.329   8.314   1.680  0.8556 -0.6120  0.6375
  706MOL0     H95273   1.366   8.493   1.670 -0.2013 -0.2644  0.0771
  706MOL0     H95274   0.971   8.369   1.688 -0.1800 -1.4669  1.4702
  706MOL0     H95275   0.741   8.456   1.671 -0.4110 -0.3403  0.3411
  706MOL0     H95276   0.678   8.697   1.622  0.0166 -0.6921  0.2993
  706MOL0     H95277   0.547   8.599   1.668 -0.4922 -0.3946  1.1567
  706MOL0     H95278   0.572   8.895   1.673  0.2501 -0.1809 -2.7416
  706MOL0     H95279   0.477   8.781   1.572 -2.3148  0.6181 -0.0607
  706MOL0     H95280   0.412   8.793   1.872  0.4119 -1.5416 -0.4921
  706MOL0     H95281   0.322   8.711   1.747 -0.3464  1.1503 -0.7311
  706MOL0     H95282   0.385   8.999   1.734 -0.3634 -0.6236 -0.3583
  706MOL0     H95283   0.266   8.921   1.641 -0.8678  1.0944  0.5794
  706MOL0     H95284   0.256   8.977   1.950 -1.7575  3.0921 -0.6297
  706MOL0     H95285   0.158   8.849   1.874  0.6816 -0.4519  0.3299
  706MOL0     H95286   0.178   9.147   1.788  2.1800 -0.3535  2.9531
  706MOL0     H95287   0.061   9.034   1.724 -0.3094  1.5926 -0.7778
  706MOL0     H95288  -0.015   9.021   1.990 -0.1405 -1.9463 -0.1397
  706MOL0     H95289  -0.046   9.172   1.900  1.0479  2.2495  1.8002
  706MOL0     H95290   0.137   9.285   1.999 -3.7186  0.1757 -0.8189
  706MOL0     H95291   0.206   9.133   2.059  0.4500 -0.0092 -2.4209
  706MOL0     H95292   0.828   8.712   2.012  2.3046  0.6311 -0.4262
  706MOL0     H95293   1.040   8.637   2.021 -1.9612  1.4819  1.2203
  706MOL0     H95294   1.396   8.410   2.165 -0.1573 -0.4889  0.4389
  706MOL0     H95295   1.619   8.340   2.179  1.4586  0.3610 -1.2456
  706MOL0     H95296   2.983   7.305   1.680  1.8650  0.1599  3.2708
  706MOL0     H95297   3.196   7.239   1.663 -2.9891 -0.6589 -0.5754
  706MOL0     H95298   3.656   7.339   1.209 -2.9687  1.7119  0.6074
  706MOL0     H95299   3.903   7.393   1.205 -1.4097  0.5510 -1.9853
  706MOL0     H95300   4.106   7.374   1.282 -0.2525  1.1365  0.4520
  706MOL0     H95301   4.065   7.539   1.228 -0.0538 -0.2736 -0.8246
  706MOL0     H95302   4.275   7.611   1.350 -3.1354  1.2308 -4.0170
  706MOL0     H95303   4.309   7.491   1.226 -1.5952 -4.5446  0.2839
  706MOL0     H95304   4.277   7.314   1.411 -2.4558  0.0222  0.2841
  706MOL0     H95305   4.270   7.446   1.525  1.5419  2.6845 -0.4253
  706MOL0     H95306   4.504   7.359   1.531  2.2521  0.9797 -0.4786
  706MOL0     H95307   4.501   7.527   1.462 -2.2026  0.8188  1.2566
  706MOL0     H95308   4.642   7.329   1.131 -1.5812 -2.2822 -0.5280
  706MOL0     H95309   3.872   7.500   1.625 -2.5766  1.3414  0.8049
  706MOL0     H95310   3.636   7.455   1.637 -0.6246  3.3211 -0.1909
  707MOL0     O95311   1.004   5.706   6.028  0.3927 -0.9409 -0.0194
  707MOL0     C95312   1.084   5.738   6.122 -0.0574 -0.3105  0.0858
  707MOL0     O95313   1.040   5.782   6.251  0.3277 -0.1799  0.6834
  707MOL0     C95314   0.914   5.772   6.296 -0.0836  0.1433 -0.6173
  707MOL0     C95315   0.850   5.657   6.284 -0.2998  0.5121  0.2977
  707MOL0     C95316   0.723   5.637   6.334  0.4298  0.0234 -0.3648
  707MOL0     C95317   0.644   5.739   6.393  0.0443 -0.0310  0.2124
  707MOL0     O95318   0.522   5.712   6.442 -0.8534  0.2746 -0.5069
  707MOL0     C95319   0.439   5.826   6.454  0.2550 -0.7136  0.0617
  707MOL0     C95320   0.307   5.787   6.507 -0.3069 -0.2243 -0.4126
  707MOL0     C95321   0.236   5.679   6.434 -0.1562 -0.2857 -0.2674
  707MOL0     C95322   0.151   5.729   6.315 -0.4686  0.0787  0.4440
  707MOL0     C95323   0.107   5.609   6.226 -0.5578 -0.5347 -0.2211
  707MOL0     C95324   0.029   5.657   6.101 -0.4478 -0.9486  0.3702
  707MOL0     C95325  -0.116   5.592   6.085 -0.0113 -0.7498 -0.8517
  707MOL0     C95326  -0.230   5.678   6.144  0.1711  0.8658  0.2620
  707MOL0     N95327  -0.246   5.801   6.071  0.1044 -0.6341  0.7387
  707MOL0     C95328  -0.326   5.793   5.958  0.4308 -0.2159 -0.8938
  707MOL0     C95329  -0.312   5.925   5.910 -0.0442  0.7751  0.0107
  707MOL0     C95330  -0.382   5.992   5.793 -0.2997  0.1078 -0.8635
  707MOL0     C95331  -0.365   5.916   5.659  0.0122 -0.4264 -0.9632
  707MOL0     C95332  -0.431   5.990   5.543  0.4852 -0.1784  0.1036
  707MOL0     C95333  -0.419   5.907   5.426 -1.5691  0.1591  0.6615
  707MOL0     O95334  -0.408   5.980   5.307  0.6852 -0.4960  0.2455
  707MOL0     C95335  -0.293   5.982   5.233 -0.8075 -0.0146  0.0988
  707MOL0     C95336  -0.303   5.943   5.099  0.2501 -0.7811 -0.0195
  707MOL0     C95337  -0.193   5.946   5.015 -1.0233 -0.2070  0.8087
  707MOL0     C95338  -0.225   5.922   4.866 -0.4856 -0.1950 -0.8858
  707MOL0     C95339  -0.062   5.980   5.070 -0.3195 -0.1221 -0.0227
  707MOL0     C95340   0.060   5.978   4.991  0.2192 -0.7159  0.2737
  707MOL0     O95341   0.170   6.063   5.027 -0.2412  0.5573  0.2521
  707MOL0     C95342   0.277   6.073   4.940  0.8100 -0.1942 -0.0338
  707MOL0     C95343   0.398   6.029   4.979 -0.6254 -0.2153 -0.5370
  707MOL0     C95344   0.505   6.040   4.890 -0.2005  0.3913 -0.6399
  707MOL0     C95345   0.489   6.085   4.754  0.3595 -0.7115 -0.3183
  707MOL0     O95346   0.588   6.096   4.658  0.6938  0.3875 -0.2567
  707MOL0     C95347   0.668   5.973   4.649 -0.5266  0.7530  0.1286
  707MOL0     C95348   0.755   5.980   4.526  0.2035  0.8913  0.6207
  707MOL0     C95349   0.862   5.870   4.528  0.2776  1.0390 -0.6155
  707MOL0     C95350   0.816   5.725   4.483 -0.7023  0.5784  0.2583
  707MOL0     C95351   0.756   5.709   4.343  0.6396  0.0468 -0.3317
  707MOL0     C95352   0.770   5.571   4.283 -0.1005 -0.0210 -0.2349
  707MOL0     C95353   0.675   5.473   4.355  0.3603  0.5975 -0.6321
  707MOL0     C95354   0.679   5.334   4.292 -0.5510  0.1721 -0.4908
  707MOL0    Cl95355   0.616   5.219   4.412 -0.2773  0.5606  0.2378
  707MOL0     C95356   0.354   6.128   4.716  0.3341 -0.0997 -0.0121
  707MOL0     C95357   0.255   6.135   4.813 -0.0325 -0.4142  0.4116
  707MOL0     O95358   0.053   5.895   4.892  0.2413 -0.0673 -0.0119
  707MOL0     C95359  -0.050   6.020   5.205 -0.1503  0.3298  0.1513
  707MOL0     C95360  -0.170   6.026   5.288  0.1117  0.0825 -0.3354
  707MOL0     N95361  -0.234   6.001   5.995 -0.4230 -0.2054 -0.5624
  707MOL0     N95362  -0.193   5.930   6.089  0.1076  0.2081 -0.4099
  707MOL0     C95363   0.716   5.863   6.409  0.5017  1.2062 -0.6420
  707MOL0     C95364   0.850   5.878   6.362 -0.1890  0.4578 -0.4930
  707MOL0     C95365   1.227   5.738   6.102 -0.2191 -0.2333  0.2225
  707MOL0     C95366   1.310   5.837   6.163  0.4410  0.3374  0.1749
  707MOL0     C95367   1.447   5.847   6.143 -1.1776  0.0754 -0.0244
  707MOL0     C95368   1.512   5.761   6.059  0.5015  0.8048  0.5701
  707MOL0     O95369   1.647   5.771   6.029  0.5079 -0.0858  0.7758
  707MOL0     C95370   1.720   5.661   5.983 -1.3900 -0.0014 -0.6606
  707MOL0     C95371   1.862   5.684   6.038 -0.9479  0.4936 -0.4463
  707MOL0     C95372   1.976   5.574   6.021 -0.1601  0.1745  0.4914
  707MOL0     C95373   2.117   5.635   6.003  0.2350 -0.4179 -0.3564
  707MOL0     C95374   2.168   5.699   6.132  1.0909 -0.1424 -0.8077
  707MOL0     C95375   2.209   5.746   6.238  0.4588  0.9747  0.5574
  707MOL0     C95376   1.432   5.664   5.994  0.0879 -0.6489  0.4288
  707MOL0     C95377   1.291   5.657   6.015 -0.3294  0.3123 -0.0912
  707MOL0     H95378   0.913   5.572   6.259 -0.8486  0.2899 -0.3574
  707MOL0     H95379   0.682   5.538   6.315  1.2204 -0.0661 -1.7696
  707MOL0     H95380   0.474   5.899   6.527 -1.1711 -0.7400  0.8031
  707MOL0     H95381   0.419   5.871   6.356 -0.9841 -1.5698 -0.1084
  707MOL0     H95382   0.333   5.746   6.605  1.6642 -3.0455 -1.9682
  707MOL0     H95383   0.251   5.879   6.521  0.6246  0.0689  1.8477
  707MOL0     H95384   0.293   5.591   6.403 -1.3164 -1.6508  1.2769
  707MOL0     H95385   0.160   5.638   6.501 -1.4210  0.2850 -1.2990
  707MOL0     H95386   0.070   5.797   6.343  1.3712  2.2346  0.7737
  707MOL0     H95387   0.220   5.792   6.259  0.7526  1.0382  2.9073
  707MOL0     H95388   0.188   5.544   6.191 -1.2781  0.0409 -3.2317
  707MOL0     H95389   0.038   5.553   6.290 -1.3430 -1.4950 -1.8220
  707MOL0     H95390   0.012   5.764   6.114 -0.6076 -1.0165  0.7545
  707MOL0     H95391   0.085   5.640   6.009  0.7462  0.7552  0.7392
  707MOL0     H95392  -0.128   5.557   5.982 -2.4175 -2.6622 -0.0197
  707MOL0     H95393  -0.117   5.493   6.130 -2.1895 -1.1558 -1.6669
  707MOL0     H95394  -0.188   5.704   6.242 -0.2435 -0.1756  0.7256
  707MOL0     H95395  -0.324   5.625   6.161  0.2723  1.0235  1.4565
  707MOL0     H95396  -0.372   5.705   5.914  1.5543 -2.3095  1.8467
  707MOL0     H95397  -0.488   5.984   5.822  0.2062 -0.2824  1.0782
  707MOL0     H95398  -0.353   6.096   5.783  0.8948 -0.1110  0.0900
  707MOL0     H95399  -0.404   5.814   5.670  1.2788 -0.7715  0.8488
  707MOL0     H95400  -0.258   5.918   5.636  0.5281 -1.3081  1.0404
  707MOL0     H95401  -0.389   6.088   5.520 -1.5821  1.0533  1.2875
  707MOL0     H95402  -0.536   6.012   5.560  0.8029 -1.3188  5.2849
  707MOL0     H95403  -0.497   5.829   5.426  1.1192 -2.7652  2.1541
  707MOL0     H95404  -0.325   5.851   5.433 -2.4696 -1.9746 -2.0877
  707MOL0     H95405  -0.404   5.919   5.067  0.6194 -0.8615 -1.1558
  707MOL0     H95406  -0.331   5.905   4.844  0.0637 -2.4720 -2.1559
  707MOL0     H95407  -0.194   6.009   4.807 -0.7061  0.7497  0.3501
  707MOL0     H95408  -0.181   5.826   4.835 -0.3549 -0.3310 -0.2940
  707MOL0     H95409   0.390   5.983   5.076 -1.4700  2.5440  0.8217
  707MOL0     H95410   0.597   6.002   4.934 -0.3605 -0.3680 -0.9544
  707MOL0     H95411   0.730   5.970   4.739  1.0681  1.4017 -0.9161
  707MOL0     H95412   0.600   5.887   4.652 -2.2717  2.0925  1.4434
  707MOL0     H95413   0.686   5.979   4.442  1.0935  2.3887 -0.1736
  707MOL0     H95414   0.803   6.078   4.512 -0.5604  1.0130 -1.3736
  707MOL0     H95415   0.881   5.854   4.634 -4.8636  1.7283  0.6701
  707MOL0     H95416   0.940   5.902   4.458  1.3530 -0.2138 -0.0314
  707MOL0     H95417   0.908   5.671   4.506 -0.9026  0.2082  0.1966
  707MOL0     H95418   0.744   5.685   4.554 -1.5895 -0.8759 -1.3731
  707MOL0     H95419   0.810   5.772   4.272 -0.8939  0.4201 -1.1998
  707MOL0     H95420   0.653   5.744   4.352  1.0080  0.8451  1.0512
  707MOL0     H95421   0.744   5.571   4.177 -0.1790 -0.4856 -0.2174
  707MOL0     H95422   0.873   5.539   4.300  0.3653  0.3715 -2.1556
  707MOL0     H95423   0.570   5.501   4.343 -0.4140 -1.8226 -0.1117
  707MOL0     H95424   0.692   5.471   4.463  0.4208  1.2598 -0.6286
  707MOL0     H95425   0.782   5.302   4.278 -0.2447  0.3682  1.1068
  707MOL0     H95426   0.617   5.316   4.204 -1.4784  0.7727  0.0152
  707MOL0     H95427   0.341   6.165   4.615  1.5120  1.3377  0.3350
  707MOL0     H95428   0.152   6.159   4.788  0.3044  0.4723 -0.1692
  707MOL0     H95429   0.045   6.044   5.250  0.3295 -2.0644  0.5230
  707MOL0     H95430  -0.180   6.050   5.393  0.1838 -1.7027  0.1198
  707MOL0     H95431   0.675   5.954   6.454  0.1212  0.4185  0.6513
  707MOL0     H95432   0.903   5.971   6.380 -0.6148  0.6315 -0.1272
  707MOL0     H95433   1.258   5.916   6.216  1.2990  1.1902 -0.2448
  707MOL0     H95434   1.498   5.932   6.187 -3.0718  1.0176  0.4073
  707MOL0     H95435   1.694   5.569   6.037  2.8636 -0.3737  1.0999
  707MOL0     H95436   1.726   5.662   5.874 -1.2779 -0.1678 -0.6568
  707MOL0     H95437   1.854   5.703   6.146  1.8342 -0.4031 -0.0070
  707MOL0     H95438   1.908   5.774   5.996 -0.8684  1.0729  0.8271
  707MOL0     H95439   1.951   5.507   5.938  2.6522  1.6538 -1.7383
  707MOL0     H95440   1.984   5.503   6.103  1.5784  0.2833  0.4551
  707MOL0     H95441   2.117   5.710   5.922 -0.0587  0.3333  0.3234
  707MOL0     H95442   2.183   5.554   5.973  0.6954  0.3975 -1.6428
  707MOL0     H95443   2.236   5.797   6.328 -2.4178  1.6525  1.1591
  707MOL0     H95444   1.476   5.602   5.917  1.2467  0.5869  0.0779
  707MOL0     H95445   1.234   5.583   5.959 -1.1787 -0.8758  2.2068
  708MOL0     O95446   0.338   1.220   8.639 -0.2892 -0.1564  0.4768
  708MOL0     C95447   0.367   1.120   8.577  0.3825  1.4589 -0.3092
  708MOL0     O95448   0.284   1.063   8.484 -0.1392  0.0884  0.5777
  708MOL0     C95449   0.152   1.091   8.492  0.7928  0.2710  1.4161
  708MOL0     C95450   0.083   1.056   8.608  0.5124 -0.0621 -0.0070
  708MOL0     C95451  -0.053   1.064   8.597  0.2067  0.4573  0.0840
  708MOL0     C95452  -0.123   1.123   8.484  0.6134 -0.5085 -0.1656
  708MOL0     O95453  -0.261   1.138   8.470 -0.9749  0.0867  0.3004
  708MOL0     C95454  -0.354   1.057   8.547  0.1587  0.3311 -0.3446
  708MOL0     C95455  -0.487   1.061   8.475  0.8405  0.4696  0.1526
  708MOL0     C95456  -0.601   0.999   8.555  0.1986  0.1101 -0.7884
  708MOL0     C95457  -0.735   1.023   8.493 -0.4871  0.0031 -0.8875
  708MOL0     C95458  -0.851   0.936   8.563  0.3937  0.4071 -0.0627
  708MOL0     C95459  -0.990   0.988   8.508 -0.6986 -0.1723  0.5324
  708MOL0     C95460  -1.109   0.942   8.594 -0.2624 -0.3228 -0.4069
  708MOL0     C95461  -1.231   1.004   8.525  0.7155  0.3581 -0.2190
  708MOL0     N95462  -1.334   1.049   8.619  0.1396  0.6054 -0.1904
  708MOL0     C95463  -1.330   1.167   8.686  0.6215 -0.1690 -0.0404
  708MOL0     C95464  -1.455   1.185   8.731  0.6676  0.2918  0.5899
  708MOL0     C95465  -1.504   1.308   8.803  0.0437  0.9148  0.3213
  708MOL0     C95466  -1.518   1.291   8.957  0.5257 -0.7086  0.4851
  708MOL0     C95467  -1.640   1.204   9.004 -1.0133 -0.0806 -0.5155
  708MOL0     C95468  -1.764   1.297   9.038 -0.2638 -0.0136  0.2354
  708MOL0     O95469  -1.865   1.217   9.102 -0.4993  0.2427 -0.6367
  708MOL0     C95470  -1.994   1.270   9.108  0.5431 -0.0155  0.1602
  708MOL0     C95471  -2.101   1.183   9.118  0.2094 -0.3592 -0.5923
  708MOL0     C95472  -2.229   1.228   9.136 -0.0468 -0.1016  0.1514
  708MOL0     C95473  -2.345   1.122   9.121  0.0715  1.1905  0.0794
  708MOL0     C95474  -2.256   1.359   9.154  0.0523 -0.2177  0.5032
  708MOL0     C95475  -2.391   1.418   9.165  0.1888  0.0164  0.4078
  708MOL0     O95476  -2.395   1.555   9.158  0.5877  0.4629  0.3589
  708MOL0     C95477  -2.519   1.610   9.179  0.6762  0.0699 -0.6112
  708MOL0     C95478  -2.558   1.626   9.312 -0.9081 -0.4807  0.0315
  708MOL0     C95479  -2.677   1.680   9.343  0.0971 -0.7611  0.0342
  708MOL0     C95480  -2.760   1.740   9.243  0.5607  0.7023 -0.3345
  708MOL0     O95481  -2.885   1.792   9.260  0.2833  0.1137 -0.6974
  708MOL0     C95482  -2.937   1.810   9.387  0.2472  0.0326 -0.5322
  708MOL0     C95483  -2.995   1.951   9.371  0.2438 -0.2224 -0.3086
  708MOL0     C95484  -3.102   1.985   9.482  0.6255 -0.3192  0.8594
  708MOL0     C95485  -3.248   1.946   9.435  0.1379  0.2748 -0.4734
  708MOL0     C95486  -3.346   1.981   9.541  0.4465  0.2013  0.0888
  708MOL0     C95487  -3.486   1.930   9.505 -0.4987 -0.3329  0.6269
  708MOL0     C95488  -3.592   1.949   9.621 -0.0648 -0.5560 -0.0160
  708MOL0     C95489  -3.656   2.094   9.616 -0.9921 -0.3572 -0.2241
  708MOL0    Cl95490  -3.777   2.116   9.749  0.1953 -0.2054  0.4434
  708MOL0     C95491  -2.726   1.712   9.112 -0.2304 -0.7533 -0.2181
  708MOL0     C95492  -2.602   1.658   9.082 -0.4985 -0.1857  0.3601
  708MOL0     O95493  -2.491   1.345   9.185 -0.0179  0.7491 -0.2579
  708MOL0     C95494  -2.145   1.452   9.152 -0.0719  0.5659  0.0515
  708MOL0     C95495  -2.013   1.410   9.129  0.4743 -0.7672 -0.8232
  708MOL0     N95496  -1.533   1.076   8.692 -0.3514  0.6343  0.0537
  708MOL0     N95497  -1.458   0.993   8.623  0.0314  0.1114 -0.1071
  708MOL0     C95498  -0.054   1.165   8.376 -0.1541  0.0973 -0.3423
  708MOL0     C95499   0.083   1.153   8.384 -0.4990  0.5553  0.2712
  708MOL0     C95500   0.499   1.055   8.597 -0.1486 -0.1197  0.3132
  708MOL0     C95501   0.524   0.925   8.566  0.2099  0.1526  0.6041
  708MOL0     C95502   0.644   0.860   8.590  0.5386  0.3427 -0.6852
  708MOL0     C95503   0.755   0.936   8.626  0.3585 -0.0239 -0.8946
  708MOL0     O95504   0.874   0.867   8.641  0.4952  0.4450  1.0216
  708MOL0     C95505   0.993   0.942   8.656  0.2425 -0.1961  0.5096
  708MOL0     C95506   1.105   0.854   8.696  0.6907 -0.0071  0.0501
  708MOL0     C95507   1.154   0.764   8.570 -0.2855 -0.2241 -0.6504
  708MOL0     C95508   1.273   0.685   8.604 -1.0145 -0.2672  0.9316
  708MOL0     C95509   1.376   0.765   8.677 -0.0016  0.7797 -0.0354
  708MOL0     C95510   1.461   0.825   8.742 -1.4082  0.1235  0.1578
  708MOL0     C95511   0.733   1.070   8.658 -0.4594 -0.8039 -0.3021
  708MOL0     C95512   0.603   1.126   8.656  0.1303  0.0474  1.1919
  708MOL0     H95513   0.138   1.018   8.693 -2.9432  1.6560  3.2684
  708MOL0     H95514  -0.108   1.037   8.687 -0.5339  2.3760  0.2558
  708MOL0     H95515  -0.316   0.955   8.547  1.8087  0.9199 -0.6591
  708MOL0     H95516  -0.363   1.098   8.649  0.5525  1.6773 -0.8297
  708MOL0     H95517  -0.519   1.163   8.458 -2.5366 -0.2974  1.2508
  708MOL0     H95518  -0.475   1.016   8.376  1.4397 -2.3859  1.3899
  708MOL0     H95519  -0.587   0.890   8.560  0.1309  0.0909 -1.0430
  708MOL0     H95520  -0.600   1.043   8.656  1.6742 -1.7009  0.0548
  708MOL0     H95521  -0.746   1.130   8.515 -1.8979 -0.0799 -1.1358
  708MOL0     H95522  -0.732   1.002   8.386  0.7178 -3.0264 -0.3636
  708MOL0     H95523  -0.834   0.833   8.531 -3.0682 -0.9859  2.0092
  708MOL0     H95524  -0.849   0.939   8.672  1.1617 -0.9014 -0.0208
  708MOL0     H95525  -0.986   1.097   8.510  1.2845 -0.1866  0.2539
  708MOL0     H95526  -1.000   0.957   8.404  0.8053 -2.8147  1.0729
  708MOL0     H95527  -1.115   0.835   8.614  0.3384 -0.5269 -1.2654
  708MOL0     H95528  -1.088   0.986   8.692  1.2501 -0.2927 -0.7231
  708MOL0     H95529  -1.252   0.925   8.453  5.3931 -1.1469 -0.2876
  708MOL0     H95530  -1.195   1.089   8.467  1.6774  0.5711  0.6456
  708MOL0     H95531  -1.245   1.231   8.705  1.4245 -0.8424 -1.2513
  708MOL0     H95532  -1.437   1.394   8.795  0.1149  0.8649  0.3820
  708MOL0     H95533  -1.599   1.340   8.759  0.2015  3.7072  1.7675
  708MOL0     H95534  -1.526   1.390   9.003  1.3289 -0.5819  0.3711
  708MOL0     H95535  -1.423   1.247   8.988  1.6951  1.0078 -0.4886
  708MOL0     H95536  -1.618   1.153   9.099 -1.4817  1.3421  0.3953
  708MOL0     H95537  -1.657   1.122   8.934 -0.2909  0.2151 -1.0375
  708MOL0     H95538  -1.795   1.353   8.950 -1.5579 -1.2763 -0.1247
  708MOL0     H95539  -1.740   1.364   9.122 -2.1612  0.4588  0.4371
  708MOL0     H95540  -2.077   1.077   9.114  1.6514 -0.0714 -0.2803
  708MOL0     H95541  -2.395   1.135   9.025 -2.1140  1.8456  1.2369
  708MOL0     H95542  -2.289   1.028   9.129  0.9923  1.8015  1.2524
  708MOL0     H95543  -2.417   1.124   9.204 -0.0936 -1.0828  0.0797
  708MOL0     H95544  -2.500   1.585   9.394  0.8725 -1.7023 -1.7575
  708MOL0     H95545  -2.704   1.678   9.448  1.6294  0.1144  0.4651
  708MOL0     H95546  -3.019   1.743   9.410  0.0838  0.5188  0.3511
  708MOL0     H95547  -2.864   1.817   9.469  0.6134 -1.2778 -0.7352
  708MOL0     H95548  -2.916   2.027   9.368 -1.6161  1.8262 -0.1004
  708MOL0     H95549  -3.047   1.963   9.275 -0.3913 -1.1121 -0.0929
  708MOL0     H95550  -3.102   2.094   9.488 -2.7788  0.2673 -3.8156
  708MOL0     H95551  -3.093   1.948   9.584 -3.2884  0.9612  1.8457
  708MOL0     H95552  -3.274   1.991   9.339 -0.4534  0.5984 -0.1629
  708MOL0     H95553  -3.249   1.837   9.437  0.8979  0.2627  0.2360
  708MOL0     H95554  -3.353   2.090   9.548 -2.4481 -0.0125  1.5389
  708MOL0     H95555  -3.321   1.939   9.639  0.5544 -1.5662 -0.6576
  708MOL0     H95556  -3.530   1.983   9.419 -1.5868 -1.3511  0.5301
  708MOL0     H95557  -3.478   1.824   9.482  0.9645  0.2827 -2.2755
  708MOL0     H95558  -3.540   1.938   9.717 -2.6858  0.8828  1.7138
  708MOL0     H95559  -3.675   1.878   9.619 -2.5229  2.1128  1.0348
  708MOL0     H95560  -3.700   2.103   9.516  2.3370 -3.1260 -2.1590
  708MOL0     H95561  -3.576   2.168   9.613 -1.7258  0.4437 -0.4281
  708MOL0     H95562  -2.784   1.754   9.031  0.2244  1.7887  0.6879
  708MOL0     H95563  -2.555   1.664   8.984  1.5443  2.1814  1.3740
  708MOL0     H95564  -2.164   1.558   9.165  0.5163  0.6675  0.1034
  708MOL0     H95565  -1.927   1.474   9.116  1.1680 -1.0701  1.6494
  708MOL0     H95566  -0.089   1.217   8.288 -3.1474 -2.1830 -0.6685
  708MOL0     H95567   0.138   1.175   8.293  0.6076 -0.3131  0.7136
  708MOL0     H95568   0.437   0.877   8.521 -1.4338  3.3995  0.0057
  708MOL0     H95569   0.653   0.752   8.593  0.5706  0.3662  1.0922
  708MOL0     H95570   1.010   1.003   8.567  0.6359  1.0922  1.4312
  708MOL0     H95571   0.982   1.018   8.735 -1.5666 -0.2115  0.3035
  708MOL0     H95572   1.081   0.785   8.778 -0.9236  0.4536 -0.0063
  708MOL0     H95573   1.178   0.922   8.740 -0.0124  2.0685 -1.8071
  708MOL0     H95574   1.168   0.830   8.483  3.4702  0.7909  0.5414
  708MOL0     H95575   1.071   0.693   8.568 -0.6559  0.0870  1.4964
  708MOL0     H95576   1.314   0.659   8.506 -0.9683  1.0315  0.5747
  708MOL0     H95577   1.249   0.595   8.661 -3.0263 -1.6971 -1.9617
  708MOL0     H95578   1.517   0.891   8.807 -0.2640  2.0628 -2.5896
  708MOL0     H95579   0.818   1.126   8.693  1.1101 -3.4903  0.4864
  708MOL0     H95580   0.584   1.220   8.707 -0.9898  0.2114  0.5163
  709MOL0     O95581   6.112   6.376   4.552  0.2081  0.4185 -0.2720
  709MOL0     C95582   6.202   6.389   4.630  0.1239  0.0235 -0.5494
  709MOL0     O95583   6.191   6.392   4.769 -0.0764  0.3828 -0.7062
  709MOL0     C95584   6.067   6.380   4.831  0.2188  0.2957  0.1608
  709MOL0     C95585   5.970   6.478   4.809 -0.2030 -0.0125 -0.0062
  709MOL0     C95586   5.845   6.478   4.863 -0.0009  0.6179 -0.1725
  709MOL0     C95587   5.810   6.361   4.930  0.4793  0.2792 -0.2417
  709MOL0     O95588   5.688   6.359   4.989  0.0473  0.3380  0.0265
  709MOL0     C95589   5.687   6.303   5.123  0.1234 -0.2796  0.3848
  709MOL0     C95590   5.597   6.187   5.148 -0.9198 -0.1385  0.5079
  709MOL0     C95591   5.565   6.177   5.300  0.3807  0.1768 -0.4230
  709MOL0     C95592   5.464   6.064   5.317  1.0467  0.1974  0.5003
  709MOL0     C95593   5.393   6.067   5.450 -0.4834 -0.4059 -0.4521
  709MOL0     C95594   5.294   6.193   5.456  1.0574  0.5479 -0.7556
  709MOL0     C95595   5.210   6.198   5.585 -0.5856 -0.2855  0.3245
  709MOL0     C95596   5.122   6.068   5.596  0.5989 -0.4242 -0.0855
  709MOL0     N95597   4.999   6.113   5.666  0.2392 -0.1147 -0.2451
  709MOL0     C95598   4.981   6.102   5.800  0.3884  0.7248 -1.7505
  709MOL0     C95599   4.853   6.149   5.815 -0.1903 -0.0118 -0.2327
  709MOL0     C95600   4.786   6.157   5.949 -0.2414  0.2049  0.6624
  709MOL0     C95601   4.631   6.184   5.938 -0.8711 -0.2689  0.0157
  709MOL0     C95602   4.554   6.185   6.072  0.5119 -0.2966  0.1505
  709MOL0     C95603   4.402   6.150   6.063 -0.7012  0.2831  0.5134
  709MOL0     O95604   4.385   6.003   6.070  0.5876 -0.2266  0.6801
  709MOL0     C95605   4.261   5.955   6.100 -0.4092 -0.4209 -0.6590
  709MOL0     C95606   4.269   5.849   6.183  0.4836  0.0354 -0.6083
  709MOL0     C95607   4.146   5.792   6.233  0.0830  0.5390  0.5718
  709MOL0     C95608   4.163   5.670   6.326 -0.1135 -0.5895 -0.1222
  709MOL0     C95609   4.023   5.848   6.196 -0.5536 -0.1261 -0.2899
  709MOL0     C95610   3.893   5.828   6.275 -0.1794  0.1377  0.2680
  709MOL0     O95611   3.779   5.864   6.215 -0.6378  0.4318  0.0805
  709MOL0     C95612   3.666   5.884   6.293 -0.5425  0.2020 -0.0686
  709MOL0     C95613   3.661   5.926   6.427  0.9916 -0.0411  0.6451
  709MOL0     C95614   3.537   5.938   6.493 -0.1003 -0.3503  1.1740
  709MOL0     C95615   3.417   5.910   6.434 -0.3060 -0.0807 -0.1564
  709MOL0     O95616   3.300   5.918   6.506 -0.6954 -0.4981 -0.0621
  709MOL0     C95617   3.276   6.027   6.594  0.5572 -0.8919  0.3596
  709MOL0     C95618   3.133   6.044   6.636 -0.0888 -0.0919 -0.6786
  709MOL0     C95619   3.115   6.137   6.759 -0.4497  0.0993  0.2771
  709MOL0     C95620   2.977   6.136   6.819 -0.6007 -0.2328  0.0808
  709MOL0     C95621   2.864   6.187   6.724  0.4273  0.3721  0.5733
  709MOL0     C95622   2.734   6.215   6.807 -0.0486  0.9412 -0.2978
  709MOL0     C95623   2.676   6.087   6.867  0.4516 -0.4265  0.4736
  709MOL0     C95624   2.562   6.108   6.970  0.2872  0.7704  0.6502
  709MOL0    Cl95625   2.432   6.165   6.863 -0.5073 -0.0647 -0.1429
  709MOL0     C95626   3.418   5.883   6.298 -0.6696  0.6721 -0.2791
  709MOL0     C95627   3.543   5.864   6.226  0.2823  0.1055 -0.2965
  709MOL0     O95628   3.908   5.805   6.389  0.1838  0.1285 -0.5039
  709MOL0     C95629   4.017   5.955   6.110  0.4944  1.1307  0.3321
  709MOL0     C95630   4.136   6.013   6.064 -0.0409 -0.1347  0.8788
  709MOL0     N95631   4.797   6.200   5.693  0.1224  0.7535 -0.3138
  709MOL0     N95632   4.889   6.169   5.604  0.1896 -1.0110 -0.4544
  709MOL0     C95633   5.903   6.253   4.941 -0.5189 -0.3574  0.3242
  709MOL0     C95634   6.032   6.271   4.892 -0.7495  0.3527 -0.5664
  709MOL0     C95635   6.340   6.393   4.574 -0.1224 -0.1305 -0.1036
  709MOL0     C95636   6.367   6.417   4.440 -0.8131  0.2396 -0.2349
  709MOL0     C95637   6.495   6.419   4.388 -0.3129  0.5361  0.1363
  709MOL0     C95638   6.598   6.412   4.479  0.1276  0.3052  0.6620
  709MOL0     O95639   6.725   6.424   4.428  0.6142  0.2882  0.0216
  709MOL0     C95640   6.825   6.470   4.519 -0.3556  0.3227 -0.7474
  709MOL0     C95641   6.965   6.488   4.467 -0.7516 -0.6851 -0.1401
  709MOL0     C95642   7.052   6.358   4.484  0.6232 -0.1951  0.4600
  709MOL0     C95643   7.191   6.397   4.435 -0.2379 -0.1655  0.1172
  709MOL0     C95644   7.279   6.276   4.457 -0.0318  0.7046  0.0351
  709MOL0     C95645   7.342   6.168   4.486 -0.4862  0.0314  0.2282
  709MOL0     C95646   6.577   6.386   4.616  0.1166 -0.3595 -0.0437
  709MOL0     C95647   6.448   6.374   4.661 -0.0142  0.6502  0.2531
  709MOL0     H95648   5.978   6.572   4.755 -1.0788 -0.7638 -1.5374
  709MOL0     H95649   5.776   6.561   4.871 -0.3177  0.1838  2.6138
  709MOL0     H95650   5.784   6.269   5.161 -0.1989 -1.8195 -0.1234
  709MOL0     H95651   5.648   6.381   5.189 -2.1394 -1.2674  0.3063
  709MOL0     H95652   5.512   6.210   5.083 -1.6317 -2.5274  0.4761
  709MOL0     H95653   5.653   6.096   5.122 -3.0293 -1.4115  0.1444
  709MOL0     H95654   5.649   6.149   5.365 -1.5000 -1.0547  1.6396
  709MOL0     H95655   5.521   6.269   5.339  0.2571  0.1905 -0.5951
  709MOL0     H95656   5.377   6.065   5.252 -0.6512  3.6997  2.4838
  709MOL0     H95657   5.508   5.965   5.302 -0.4519 -0.3543 -0.4432
  709MOL0     H95658   5.340   5.977   5.482  0.4581 -0.9013 -0.2225
  709MOL0     H95659   5.463   6.070   5.534  0.6573 -0.4389 -1.3757
  709MOL0     H95660   5.339   6.291   5.441  0.6110  0.7410 -0.8427
  709MOL0     H95661   5.208   6.183   5.389 -0.8144  2.1398  1.2779
  709MOL0     H95662   5.275   6.197   5.673 -1.1306 -2.0676  0.7455
  709MOL0     H95663   5.146   6.287   5.580 -0.8410 -0.5233 -2.0452
  709MOL0     H95664   5.164   5.971   5.626 -0.5297 -0.7951  0.3924
  709MOL0     H95665   5.084   6.052   5.494  0.0508  1.8447 -0.2849
  709MOL0     H95666   5.055   6.065   5.870  0.4787 -0.9303 -2.6862
  709MOL0     H95667   4.805   6.074   6.018  0.4839  0.5838  0.9241
  709MOL0     H95668   4.833   6.247   5.990 -2.6885  2.3867 -1.0053
  709MOL0     H95669   4.594   6.101   5.877 -1.2043 -0.2588  0.2058
  709MOL0     H95670   4.628   6.282   5.888 -1.8439  1.2662  2.8800
  709MOL0     H95671   4.564   6.286   6.111 -1.7413  0.2746 -0.5928
  709MOL0     H95672   4.603   6.113   6.138 -0.3096 -2.6706 -1.6786
  709MOL0     H95673   4.355   6.184   5.971 -2.6085 -1.4270  0.7830
  709MOL0     H95674   4.341   6.206   6.135  0.8241  2.5477  0.1492
  709MOL0     H95675   4.367   5.813   6.213  1.1734 -0.0808 -2.8403
  709MOL0     H95676   4.254   5.615   6.304  0.3831  0.8705 -2.0906
  709MOL0     H95677   4.162   5.690   6.433 -0.3624 -0.8400 -0.0757
  709MOL0     H95678   4.084   5.602   6.292  0.4069 -1.1653 -0.1816
  709MOL0     H95679   3.755   5.958   6.471  0.2888  1.5017  1.0920
  709MOL0     H95680   3.534   5.983   6.592 -0.9447  2.5424 -0.0642
  709MOL0     H95681   3.330   6.015   6.689  0.2103  1.4144  0.9161
  709MOL0     H95682   3.314   6.123   6.556 -2.9320  0.5250  0.0522
  709MOL0     H95683   3.087   6.102   6.557 -0.8835 -0.1269 -0.2545
  709MOL0     H95684   3.088   5.945   6.654  1.3575 -0.5264  0.8430
  709MOL0     H95685   3.135   6.241   6.731 -3.3954  0.3210 -1.4360
  709MOL0     H95686   3.178   6.105   6.842 -1.0776  0.0433  0.7446
  709MOL0     H95687   2.956   6.032   6.847  0.4568 -0.1646  1.1939
  709MOL0     H95688   2.984   6.195   6.911  2.6676  1.0918 -0.9014
  709MOL0     H95689   2.844   6.111   6.648 -1.5570 -0.1687  1.5741
  709MOL0     H95690   2.894   6.276   6.667  2.3910 -2.0414 -2.5130
  709MOL0     H95691   2.761   6.283   6.889 -0.1383 -0.6629  1.1093
  709MOL0     H95692   2.664   6.264   6.738  1.1227  0.9875 -1.5068
  709MOL0     H95693   2.751   6.039   6.930  0.3734 -2.5854 -0.9666
  709MOL0     H95694   2.645   6.014   6.791 -0.6634 -0.4315  0.9171
  709MOL0     H95695   2.600   6.171   7.051  1.0769  0.7755  0.2772
  709MOL0     H95696   2.531   6.011   7.011  0.2887 -0.3587 -1.8488
  709MOL0     H95697   3.326   5.860   6.244 -0.4197  3.9003 -2.3719
  709MOL0     H95698   3.546   5.827   6.124 -1.1183 -1.0616  0.0470
  709MOL0     H95699   3.924   6.010   6.096 -0.9162 -1.7425 -2.7288
  709MOL0     H95700   4.133   6.104   6.006  0.1158  1.7321  3.6358
  709MOL0     H95701   5.886   6.164   5.001  2.9465  0.9478  3.6746
  709MOL0     H95702   6.098   6.188   4.914  1.1343  1.6422 -1.1487
  709MOL0     H95703   6.285   6.422   4.369 -0.1932  0.7871 -0.9286
  709MOL0     H95704   6.518   6.439   4.284  0.2226  2.4632  0.5901
  709MOL0     H95705   6.793   6.567   4.557  0.6433  0.0650  0.8408
  709MOL0     H95706   6.835   6.408   4.609  0.7128 -1.8413 -2.2644
  709MOL0     H95707   7.009   6.576   4.515  0.6617 -1.3285 -0.1987
  709MOL0     H95708   6.956   6.519   4.362 -2.5043  0.9353  0.4436
  709MOL0     H95709   7.004   6.273   4.435  1.1404 -0.8662  1.0923
  709MOL0     H95710   7.059   6.339   4.591 -2.8723 -1.8095  0.5371
  709MOL0     H95711   7.235   6.478   4.493 -0.8664 -0.5666  1.1703
  709MOL0     H95712   7.193   6.418   4.327  3.5375 -2.0023 -0.3275
  709MOL0     H95713   7.384   6.069   4.491 -0.7350 -0.1038 -0.3099
  709MOL0     H95714   6.655   6.380   4.691 -1.2820 -0.2577  1.4841
  709MOL0     H95715   6.439   6.363   4.769  0.0839 -0.8596  0.1331
  710MOL0     O95716   2.452  11.120   3.154  0.1679  0.0736  0.3763
  710MOL0     C95717   2.499  11.196   3.077  0.6600  0.6708 -0.1331
  710MOL0     O95718   2.453  11.321   3.058 -0.3438 -0.1766  0.0482
  710MOL0     C95719   2.343  11.362   3.125 -0.0897 -0.4912 -0.1336
  710MOL0     C95720   2.217  11.327   3.077 -0.3460  0.2242  0.3044
  710MOL0     C95721   2.098  11.353   3.134  0.7842  0.1584 -0.6051
  710MOL0     C95722   2.094  11.449   3.242 -0.2674  0.1565 -0.1057
  710MOL0     O95723   1.968  11.462   3.292 -0.2172  0.0288 -1.4225
  710MOL0     C95724   1.955  11.550   3.403  0.6771 -0.7387  0.1202
  710MOL0     C95725   1.819  11.518   3.475  0.1013  0.4453  0.5640
  710MOL0     C95726   1.707  11.538   3.373 -0.6929  0.4085 -0.1867
  710MOL0     C95727   1.581  11.550   3.464 -0.1162  0.3808  0.3160
  710MOL0     C95728   1.460  11.593   3.371  0.1539  0.3900 -0.3302
  710MOL0     C95729   1.430  11.742   3.397  0.1293 -0.2321  1.0061
  710MOL0     C95730   1.283  11.774   3.377  0.4629 -0.4085  0.0308
  710MOL0     C95731   1.205  11.751   3.507 -0.3631 -0.1090  0.0202
  710MOL0     N95732   1.069  11.803   3.499  0.6552 -0.4221 -0.0989
  710MOL0     C95733   1.046  11.938   3.507  0.2914 -0.1253 -0.3434
  710MOL0     C95734   0.909  11.935   3.506  0.2732  0.4153 -0.1975
  710MOL0     C95735   0.818  12.050   3.495  0.0102  0.6327 -0.2111
  710MOL0     C95736   0.801  12.123   3.629  0.4449 -0.5938  0.2617
  710MOL0     C95737   0.691  12.220   3.611 -0.1334  0.6640 -0.2553
  710MOL0     C95738   0.635  12.275   3.739  0.6310  0.2989  0.2376
  710MOL0     O95739   0.539  12.191   3.806 -0.1193  0.4973 -0.5807
  710MOL0     C95740   0.413  12.175   3.758  0.1696 -0.0053 -0.2845
  710MOL0     C95741   0.365  12.241   3.643  0.4683 -0.9015 -0.1303
  710MOL0     C95742   0.235  12.219   3.588  0.0182  0.2043 -0.7961
  710MOL0     C95743   0.202  12.287   3.460 -0.2793 -0.0486  0.5827
  710MOL0     C95744   0.146  12.137   3.671 -0.0791 -0.0380  0.4371
  710MOL0     C95745  -0.001  12.115   3.642 -1.2637  0.0385  0.2790
  710MOL0     O95746  -0.072  12.030   3.732 -0.6316  0.2746  0.3715
  710MOL0     C95747  -0.202  12.007   3.707  0.6340 -0.0786  0.0693
  710MOL0     C95748  -0.232  11.908   3.608  1.1672  0.4383  0.1077
  710MOL0     C95749  -0.367  11.878   3.581  0.0992 -0.1250 -0.0196
  710MOL0     C95750  -0.469  11.945   3.656  0.8262  0.9654 -0.9107
  710MOL0     O95751  -0.600  11.892   3.629 -0.4275 -0.0527 -0.2728
  710MOL0     C95752  -0.686  11.859   3.747  0.1235 -1.0949 -0.7362
  710MOL0     C95753  -0.834  11.903   3.728 -0.1265 -0.2521 -0.4049
  710MOL0     C95754  -0.842  12.057   3.722  0.2855  0.0621  0.4151
  710MOL0     C95755  -0.990  12.110   3.726  0.0596  0.3904  0.1612
  710MOL0     C95756  -1.070  12.054   3.596 -0.7255 -0.0168  0.2030
  710MOL0     C95757  -1.175  12.142   3.524  0.0447 -0.0553 -0.0628
  710MOL0     C95758  -1.281  12.208   3.609  0.0500  0.2133 -0.6953
  710MOL0     C95759  -1.370  12.104   3.687  0.0542 -0.2087  0.1402
  710MOL0    Cl95760  -1.496  12.023   3.585 -0.2934  0.3122 -0.0082
  710MOL0     C95761  -0.435  12.047   3.745 -0.2108 -0.1234 -0.4259
  710MOL0     C95762  -0.308  12.079   3.773 -0.1801 -0.1625 -0.1627
  710MOL0     O95763  -0.052  12.196   3.568 -0.3391  0.0030  0.1521
  710MOL0     C95764   0.210  12.071   3.776 -0.1349 -0.3204 -0.4441
  710MOL0     C95765   0.331  12.097   3.839  0.2929 -0.2020 -0.3924
  710MOL0     N95766   0.862  11.812   3.510  0.6524 -0.1566 -0.2092
  710MOL0     N95767   0.960  11.726   3.520  1.1836 -0.1113 -0.6715
  710MOL0     C95768   2.227  11.492   3.287 -0.7504  0.5528 -0.0730
  710MOL0     C95769   2.345  11.456   3.228 -0.6126 -0.4002 -0.3884
  710MOL0     C95770   2.620  11.161   3.003  0.0382  0.3256 -0.1748
  710MOL0     C95771   2.647  11.027   2.963 -1.9252  0.5396  0.3509
  710MOL0     C95772   2.766  10.995   2.893  0.4241  1.4111  0.9454
  710MOL0     C95773   2.863  11.083   2.866  0.6481 -0.6208  0.4617
  710MOL0     O95774   2.971  11.030   2.796  0.2520 -0.4997  0.2347
  710MOL0     C95775   3.071  11.117   2.745  0.8643 -0.2300  0.0454
  710MOL0     C95776   3.024  11.180   2.613  0.2015 -1.3022  0.8359
  710MOL0     C95777   3.123  11.286   2.559 -0.4745 -0.5498 -0.6856
  710MOL0     C95778   3.260  11.234   2.520  0.2736 -0.3082  0.5680
  710MOL0     C95779   3.349  11.343   2.472  0.1665  0.4165  0.3775
  710MOL0     C95780   3.412  11.433   2.414 -0.0568  0.4862  0.2198
  710MOL0     C95781   2.835  11.219   2.901  0.2609  0.3246 -0.1860
  710MOL0     C95782   2.723  11.261   2.976  0.6231  0.3622 -0.0072
  710MOL0     H95783   2.214  11.263   2.990 -1.3550 -2.7769  2.4127
  710MOL0     H95784   2.004  11.314   3.096 -0.2340 -0.1394  2.0529
  710MOL0     H95785   2.037  11.523   3.470 -0.9170  0.3988  2.6959
  710MOL0     H95786   1.964  11.656   3.375  2.5789 -1.1307 -0.8690
  710MOL0     H95787   1.816  11.418   3.519  2.0166  1.3293  2.8828
  710MOL0     H95788   1.800  11.593   3.551  0.0761  0.4668  0.5363
  710MOL0     H95789   1.731  11.626   3.313  1.3571 -2.0174 -3.3040
  710MOL0     H95790   1.701  11.464   3.292  0.6823  2.0467 -1.8944
  710MOL0     H95791   1.565  11.449   3.503  1.0160 -0.1193 -0.4581
  710MOL0     H95792   1.600  11.614   3.550  0.0386 -0.7386  1.1394
  710MOL0     H95793   1.481  11.582   3.264 -3.8451  1.2397 -1.3898
  710MOL0     H95794   1.373  11.537   3.408  1.7513 -2.3771 -0.4788
  710MOL0     H95795   1.460  11.767   3.499  1.7391  0.0284  0.5103
  710MOL0     H95796   1.487  11.798   3.322 -1.6146 -2.5181 -2.2783
  710MOL0     H95797   1.265  11.881   3.368 -1.4779 -0.8087 -1.8104
  710MOL0     H95798   1.244  11.730   3.284 -0.1871  0.4112 -0.0998
  710MOL0     H95799   1.256  11.796   3.592  0.5212 -2.3169  0.7313
  710MOL0     H95800   1.211  11.646   3.537  3.3895  0.1821  0.7199
  710MOL0     H95801   1.116  12.021   3.504  1.0301 -0.7603 -2.1330
  710MOL0     H95802   0.852  12.117   3.415  0.3254 -0.3608 -0.9260
  710MOL0     H95803   0.724  12.008   3.459 -1.8524  3.1507  1.3996
  710MOL0     H95804   0.889  12.184   3.648 -0.7282  2.0490 -2.1270
  710MOL0     H95805   0.789  12.040   3.700 -0.3004 -1.1908 -0.5359
  710MOL0     H95806   0.608  12.158   3.576  0.8884 -0.6909 -0.3768
  710MOL0     H95807   0.716  12.294   3.534  4.4730 -2.2312 -1.9698
  710MOL0     H95808   0.593  12.373   3.716  1.0439  0.1641 -1.1821
  710MOL0     H95809   0.725  12.297   3.797  2.3357 -2.4752 -1.1209
  710MOL0     H95810   0.426  12.312   3.587 -2.5507  2.8046  0.9256
  710MOL0     H95811   0.110  12.346   3.471  1.5849  2.8858  1.4827
  710MOL0     H95812   0.283  12.348   3.420  2.3979 -1.5124  3.4020
  710MOL0     H95813   0.192  12.206   3.388  1.0766  0.1425  0.1483
  710MOL0     H95814  -0.153  11.852   3.560  0.2500 -1.1117  0.3536
  710MOL0     H95815  -0.390  11.800   3.509  1.7819 -0.9987  0.3363
  710MOL0     H95816  -0.687  11.751   3.761 -2.3062 -1.1429 -0.8479
  710MOL0     H95817  -0.645  11.893   3.842  1.9217  0.1266 -1.8848
  710MOL0     H95818  -0.876  11.859   3.637 -1.5499 -0.0857  0.1332
  710MOL0     H95819  -0.891  11.859   3.811  1.1672  0.2868  0.8107
  710MOL0     H95820  -0.781  12.095   3.639 -0.3304  1.4737  0.5948
  710MOL0     H95821  -0.790  12.100   3.808  3.9143 -2.9959  0.0447
  710MOL0     H95822  -1.038  12.089   3.822 -2.2708  1.8642 -0.5924
  710MOL0     H95823  -0.994  12.220   3.725  0.6953  0.4928  2.5443
  710MOL0     H95824  -1.116  11.956   3.612 -0.3229 -0.5815 -1.8561
  710MOL0     H95825  -0.993  12.051   3.519  1.2007  1.4226  1.9763
  710MOL0     H95826  -1.135  12.230   3.472 -2.6042  0.4744 -1.3659
  710MOL0     H95827  -1.222  12.075   3.451 -2.5904 -0.3908  1.8119
  710MOL0     H95828  -1.348  12.263   3.543 -0.1296 -2.3208 -2.8134
  710MOL0     H95829  -1.235  12.278   3.679  0.2286  2.2314 -2.7458
  710MOL0     H95830  -1.422  12.159   3.766  0.6131  0.8719 -0.2370
  710MOL0     H95831  -1.308  12.020   3.719  1.2845 -0.3208 -2.2863
  710MOL0     H95832  -0.519  12.088   3.801 -0.2052 -0.5810 -0.0837
  710MOL0     H95833  -0.281  12.154   3.846  0.4936 -0.9085  0.3699
  710MOL0     H95834   0.148  11.992   3.817  0.4531 -0.2676  0.5690
  710MOL0     H95835   0.346  12.031   3.923 -2.4202 -0.0464  0.3190
  710MOL0     H95836   2.242  11.573   3.357 -0.7634  1.2431 -0.8508
  710MOL0     H95837   2.434  11.512   3.259 -0.9682  0.5402 -1.0227
  710MOL0     H95838   2.566  10.956   2.979 -2.3746  0.5373 -1.6612
  710MOL0     H95839   2.790  10.892   2.866  0.1545  1.8759 -1.3233
  710MOL0     H95840   3.092  11.199   2.814 -0.3890  0.2290 -0.1082
  710MOL0     H95841   3.162  11.059   2.726  0.5495 -0.7335  0.0662
  710MOL0     H95842   2.929  11.233   2.629  0.9804  1.1776 -1.9507
  710MOL0     H95843   3.002  11.099   2.543  1.1301 -0.8152 -0.0404
  710MOL0     H95844   3.135  11.364   2.634 -2.8021  1.2297 -2.0332
  710MOL0     H95845   3.080  11.341   2.475 -0.0247 -0.8788 -1.1436
  710MOL0     H95846   3.246  11.159   2.442  1.4949  0.1623 -0.1363
  710MOL0     H95847   3.307  11.176   2.600  0.8736  0.6664  0.9446
  710MOL0     H95848   3.470  11.504   2.359  0.3560  0.3353  0.4578
  710MOL0     H95849   2.907  11.290   2.862 -0.4257  1.6145  0.7730
  710MOL0     H95850   2.704  11.364   3.006 -1.3670  0.2063 -0.5577
  711MOL0     O95851   2.033   1.334   2.453 -0.0875 -0.3647 -0.1139
  711MOL0     C95852   1.992   1.352   2.568 -0.2062  0.7679 -0.0964
  711MOL0     O95853   1.879   1.287   2.616 -0.1427  0.8490 -0.3953
  711MOL0     C95854   1.791   1.243   2.516 -0.0793  1.0675  0.2085
  711MOL0     C95855   1.779   1.105   2.479 -1.3580  0.6470 -0.6535
  711MOL0     C95856   1.682   1.065   2.385  1.0254 -0.1709  0.1188
  711MOL0     C95857   1.592   1.156   2.330  0.2029  0.4757 -0.2137
  711MOL0     O95858   1.488   1.104   2.250  0.7051  0.0995  0.5422
  711MOL0     C95859   1.420   0.995   2.301 -0.4692  0.3440 -0.1594
  711MOL0     C95860   1.273   1.001   2.263  0.4858  0.1125 -0.1245
  711MOL0     C95861   1.190   0.887   2.333 -0.5389 -0.3452  0.4947
  711MOL0     C95862   1.250   0.745   2.335  0.4057  0.2159 -0.5416
  711MOL0     C95863   1.294   0.687   2.207 -0.2944 -0.3896  0.2253
  711MOL0     C95864   1.386   0.576   2.231 -0.4477  0.7304  1.1877
  711MOL0     C95865   1.424   0.505   2.098 -0.5400  0.1795  0.0199
  711MOL0     C95866   1.498   0.372   2.106  0.0792  0.4483 -0.1340
  711MOL0     N95867   1.628   0.392   2.175 -0.8543 -0.0810 -0.2256
  711MOL0     C95868   1.740   0.461   2.129 -0.8208  0.1355 -1.0661
  711MOL0     C95869   1.833   0.439   2.235  0.3813  0.9651  0.3233
  711MOL0     C95870   1.966   0.502   2.224 -0.2354  0.5670 -0.2976
  711MOL0     C95871   2.003   0.564   2.366 -0.1620 -0.4017  0.8419
  711MOL0     C95872   1.914   0.683   2.406  0.1474 -0.3812  0.9743
  711MOL0     C95873   1.929   0.711   2.560  0.1488 -0.3297 -0.4747
  711MOL0     O95874   1.822   0.801   2.607 -0.0166 -0.0768 -0.3221
  711MOL0     C95875   1.698   0.751   2.632 -0.5630  0.6997 -0.0979
  711MOL0     C95876   1.660   0.621   2.598  0.0499 -0.1578 -0.4417
  711MOL0     C95877   1.522   0.577   2.615 -0.1707  0.3586  0.0870
  711MOL0     C95878   1.503   0.427   2.605  0.4751  0.1408  0.8582
  711MOL0     C95879   1.426   0.662   2.663 -0.1618 -0.7600 -0.0878
  711MOL0     C95880   1.279   0.628   2.678 -0.9176  0.0897  0.1295
  711MOL0     O95881   1.200   0.741   2.686 -0.9054 -0.6556  0.1065
  711MOL0     C95882   1.060   0.717   2.681  0.4105 -1.3644 -0.5034
  711MOL0     C95883   0.997   0.630   2.595  0.1925 -0.3100  0.1000
  711MOL0     C95884   0.857   0.607   2.603 -0.0843 -0.0731  0.1723
  711MOL0     C95885   0.777   0.670   2.698  0.0609  0.5203  0.3942
  711MOL0     O95886   0.649   0.653   2.732  0.8387 -0.0856  0.1598
  711MOL0     C95887   0.578   0.568   2.654  0.8157  0.6330  0.4756
  711MOL0     C95888   0.436   0.567   2.700 -0.0236  0.3018  0.3390
  711MOL0     C95889   0.368   0.702   2.660 -0.1407 -0.3857  0.0971
  711MOL0     C95890   0.226   0.690   2.626  1.5070 -0.6029  0.7832
  711MOL0     C95891   0.122   0.681   2.742  0.0877 -0.9575 -0.3793
  711MOL0     C95892   0.001   0.588   2.716 -0.6343  0.0885 -0.0011
  711MOL0     C95893  -0.068   0.594   2.590 -0.2287  0.5835  0.5700
  711MOL0     C95894  -0.186   0.690   2.591 -0.2518  0.6480  0.4744
  711MOL0    Cl95895  -0.316   0.627   2.698  0.1597  0.2396  0.4139
  711MOL0     C95896   0.845   0.755   2.780  0.4558  0.4159  0.2392
  711MOL0     C95897   0.985   0.783   2.774 -0.2628 -0.6479  0.1532
  711MOL0     O95898   1.239   0.514   2.670  0.2948  0.0635 -0.0408
  711MOL0     C95899   1.468   0.795   2.695 -0.3795 -0.0228 -0.0563
  711MOL0     C95900   1.600   0.832   2.681  0.0433  0.7036 -0.2316
  711MOL0     N95901   1.782   0.357   2.339  0.0311 -0.4400  0.4541
  711MOL0     N95902   1.655   0.345   2.310 -0.7139  0.4656 -0.0549
  711MOL0     C95903   1.612   1.295   2.362 -0.9856 -0.3742 -0.2001
  711MOL0     C95904   1.718   1.333   2.440 -0.3280  0.5315  0.5575
  711MOL0     C95905   2.067   1.439   2.656 -0.4907 -0.0734  0.3127
  711MOL0     C95906   2.139   1.540   2.593 -0.0349  0.6452 -0.1454
  711MOL0     C95907   2.220   1.627   2.670  1.6040  0.1584 -0.0510
  711MOL0     C95908   2.229   1.603   2.808 -0.0651  0.5502 -0.1995
  711MOL0     O95909   2.317   1.672   2.890  0.9233 -0.9589 -0.2778
  711MOL0     C95910   2.409   1.768   2.829 -0.0358 -0.5315 -0.4428
  711MOL0     C95911   2.496   1.827   2.934 -1.1452  0.3945 -0.5238
  711MOL0     C95912   2.577   1.711   3.001  0.1588  0.5290  0.0531
  711MOL0     C95913   2.724   1.754   3.034  0.4042 -0.4819  0.4883
  711MOL0     C95914   2.793   1.642   3.097  0.1309  0.1444  0.0514
  711MOL0     C95915   2.855   1.562   3.160 -0.8761  0.4143  0.2306
  711MOL0     C95916   2.155   1.503   2.863  0.4662  0.4203  0.2913
  711MOL0     C95917   2.071   1.412   2.792 -1.5441 -0.4253  0.5614
  711MOL0     H95918   1.854   1.037   2.519 -1.7125  0.7463  0.2021
  711MOL0     H95919   1.682   0.958   2.367 -1.1623  0.0345 -1.5047
  711MOL0     H95920   1.467   0.902   2.268 -0.3206  0.1346  0.6203
  711MOL0     H95921   1.416   0.999   2.410 -1.2151  0.6259 -0.1955
  711MOL0     H95922   1.247   1.098   2.308  2.7164  1.0101 -0.6078
  711MOL0     H95923   1.255   1.010   2.155  2.2530 -1.8822 -0.6405
  711MOL0     H95924   1.181   0.915   2.438  2.1198 -1.7608  1.1974
  711MOL0     H95925   1.091   0.866   2.291 -0.8831 -0.5518  1.3876
  711MOL0     H95926   1.336   0.746   2.402 -0.4129 -1.4569  0.6189
  711MOL0     H95927   1.184   0.678   2.391  1.4474  1.0203  1.7624
  711MOL0     H95928   1.212   0.658   2.140  1.1532 -2.5342 -0.7471
  711MOL0     H95929   1.341   0.762   2.142 -1.3183  0.2000  0.1519
  711MOL0     H95930   1.479   0.602   2.282 -0.7265  1.5012  1.3229
  711MOL0     H95931   1.332   0.508   2.298 -0.4377  2.3851  2.9511
  711MOL0     H95932   1.336   0.498   2.033 -0.4152  0.1696 -0.1505
  711MOL0     H95933   1.492   0.570   2.041 -1.9662  0.4291 -1.4829
  711MOL0     H95934   1.508   0.330   2.006 -1.0428  0.3860 -0.2354
  711MOL0     H95935   1.437   0.302   2.165  1.5616  0.0402  0.9691
  711MOL0     H95936   1.742   0.535   2.050  1.6622 -0.6419 -1.8254
  711MOL0     H95937   2.042   0.426   2.205 -1.0775 -0.2298 -0.5711
  711MOL0     H95938   1.967   0.572   2.140 -0.6778 -2.5656 -3.1012
  711MOL0     H95939   2.103   0.608   2.354  0.6380 -2.0485  1.2061
  711MOL0     H95940   2.018   0.489   2.444  1.8124 -0.3923  0.5278
  711MOL0     H95941   1.810   0.652   2.394 -1.1695  3.6579  0.5497
  711MOL0     H95942   1.915   0.766   2.335 -2.0784 -1.0898  0.0245
  711MOL0     H95943   2.022   0.763   2.584 -1.1586  0.9994  2.2331
  711MOL0     H95944   1.941   0.616   2.612 -1.7736 -1.0300 -1.2277
  711MOL0     H95945   1.731   0.552   2.553 -0.7497  0.2109 -2.3872
  711MOL0     H95946   1.470   0.379   2.697 -0.8918 -1.6337 -0.4876
  711MOL0     H95947   1.424   0.410   2.531  3.2822 -0.2936 -2.3271
  711MOL0     H95948   1.597   0.381   2.573  1.7722  1.4625  2.5428
  711MOL0     H95949   1.046   0.569   2.520 -0.6653 -2.0673  0.9106
  711MOL0     H95950   0.810   0.540   2.532 -1.4957  0.4741  0.5430
  711MOL0     H95951   0.581   0.608   2.552  0.0631  2.0795  0.9849
  711MOL0     H95952   0.626   0.470   2.662 -0.8446 -0.2548 -0.1231
  711MOL0     H95953   0.386   0.483   2.652  0.2709 -0.5288  1.4648
  711MOL0     H95954   0.424   0.545   2.806 -0.7698 -1.0289  0.0009
  711MOL0     H95955   0.412   0.744   2.569  3.1119  0.6216  1.9807
  711MOL0     H95956   0.375   0.765   2.749 -0.4481 -2.6319  1.8230
  711MOL0     H95957   0.190   0.776   2.569  3.6350 -0.4008 -0.3411
  711MOL0     H95958   0.213   0.602   2.562 -0.3661  0.4402 -0.3516
  711MOL0     H95959   0.087   0.780   2.772  1.1160 -1.1027  1.4666
  711MOL0     H95960   0.169   0.646   2.835 -0.2290 -0.1685  0.0839
  711MOL0     H95961   0.050   0.490   2.711  0.2002  0.5444 -2.8386
  711MOL0     H95962  -0.065   0.593   2.803 -0.3806 -2.2438  0.3952
  711MOL0     H95963  -0.111   0.495   2.573  0.5375  0.6865 -2.8291
  711MOL0     H95964  -0.003   0.614   2.504  0.0540 -3.2027 -0.2628
  711MOL0     H95965  -0.217   0.683   2.486  0.2479 -2.3994  0.4384
  711MOL0     H95966  -0.164   0.796   2.608  1.4798  0.8653 -2.3977
  711MOL0     H95967   0.798   0.798   2.868 -2.0265 -0.3539 -0.6267
  711MOL0     H95968   1.036   0.853   2.840  1.0311  1.7381 -3.1038
  711MOL0     H95969   1.395   0.861   2.742 -0.3201  0.3738 -0.5228
  711MOL0     H95970   1.628   0.931   2.718 -2.3952  2.7844 -3.3687
  711MOL0     H95971   1.541   1.359   2.309 -2.7859 -2.1950 -0.1286
  711MOL0     H95972   1.738   1.440   2.445 -0.1902  0.5061  0.5530
  711MOL0     H95973   2.129   1.569   2.488 -0.6197  0.2436 -0.2026
  711MOL0     H95974   2.281   1.703   2.623  1.4872  0.9727  1.0521
  711MOL0     H95975   2.472   1.716   2.757  0.4424 -2.1555  1.0708
  711MOL0     H95976   2.350   1.847   2.781 -0.5536 -0.2213  0.6634
  711MOL0     H95977   2.431   1.870   3.011 -0.5345  1.3746 -0.5371
  711MOL0     H95978   2.562   1.907   2.898 -2.2580  3.2814  3.2509
  711MOL0     H95979   2.598   1.631   2.929  2.3069  1.7677 -0.7875
  711MOL0     H95980   2.512   1.683   3.084 -1.2913  0.1676 -1.1662
  711MOL0     H95981   2.726   1.842   3.099 -1.3806  0.2808 -0.4038
  711MOL0     H95982   2.765   1.796   2.942 -2.3694  0.1711 -0.5498
  711MOL0     H95983   2.918   1.502   3.221  0.1698  0.6615 -0.5815
  711MOL0     H95984   2.158   1.482   2.970 -2.5103  1.2742  0.6347
  711MOL0     H95985   2.023   1.324   2.831 -2.5568 -0.0630  0.1675
  712MOL0     O95986   9.825  10.798   3.621 -0.3518  0.1652 -0.5899
  712MOL0     C95987   9.866  10.679   3.615  0.8728 -0.1951  0.2252
  712MOL0     O95988   9.782  10.572   3.631 -0.2616  0.5155  0.0818
  712MOL0     C95989   9.659  10.575   3.693 -0.7203 -1.0732 -0.2571
  712MOL0     C95990   9.620  10.668   3.797 -0.9320  0.7529  0.1903
  712MOL0     C95991   9.486  10.671   3.839 -0.1729  0.0779  0.4240
  712MOL0     C95992   9.387  10.592   3.772 -0.8833 -0.2584 -0.1577
  712MOL0     O95993   9.255  10.585   3.793 -0.4227 -0.1520 -0.6193
  712MOL0     C95994   9.181  10.696   3.850 -0.8329 -0.8923 -0.4188
  712MOL0     C95995   9.042  10.653   3.886 -0.5086  0.1059  0.0978
  712MOL0     C95996   8.974  10.624   3.758 -0.2896 -0.2221  0.7016
  712MOL0     C95997   8.830  10.584   3.782 -0.1386  1.2862  0.3101
  712MOL0     C95998   8.761  10.526   3.661  0.1938  1.2290  0.0478
  712MOL0     C95999   8.648  10.445   3.712  0.7789 -0.4796  0.9341
  712MOL0     C96000   8.567  10.398   3.587  0.2135  0.1291  0.9841
  712MOL0     C96001   8.412  10.409   3.599 -1.0717  0.1266  0.2052
  712MOL0     N96002   8.345  10.359   3.478  0.4015 -0.1453  0.0270
  712MOL0     C96003   8.354  10.239   3.422  0.2340  0.8270 -0.0545
  712MOL0     C96004   8.315  10.251   3.298  1.3989 -0.0954 -0.2444
  712MOL0     C96005   8.321  10.146   3.199  0.5799  1.0075 -0.2345
  712MOL0     C96006   8.413  10.152   3.090  0.0552 -0.4004 -0.9152
  712MOL0     C96007   8.447  10.024   3.014  0.6234 -0.3641 -0.6246
  712MOL0     C96008   8.569  10.057   2.925  0.6613 -0.3465  0.3995
  712MOL0     O96009   8.683  10.089   3.012  0.5060  0.7712 -0.2502
  712MOL0     C96010   8.803  10.073   2.947 -0.5157 -0.1059 -0.7768
  712MOL0     C96011   8.832  10.093   2.811 -0.7252  0.6571  0.3493
  712MOL0     C96012   8.955  10.066   2.759 -0.8044  0.9234 -0.3381
  712MOL0     C96013   8.969  10.114   2.616 -0.2371  0.0903  0.7155
  712MOL0     C96014   9.064  10.033   2.842  0.1325  0.0813 -0.1048
  712MOL0     C96015   9.198  10.010   2.789  0.5737 -0.6649  0.3754
  712MOL0     O96016   9.297  10.020   2.883 -0.3325 -0.2071  0.3464
  712MOL0     C96017   9.419   9.948   2.870  0.5845 -0.7542  0.3542
  712MOL0     C96018   9.457   9.870   2.763 -1.0848  0.6213  0.0680
  712MOL0     C96019   9.590   9.817   2.763 -0.7274  0.0262 -0.3737
  712MOL0     C96020   9.676   9.843   2.868  0.4195  0.2842 -0.8329
  712MOL0     O96021   9.808   9.810   2.872  0.3144  0.2423  0.1192
  712MOL0     C96022   9.832   9.672   2.858 -0.6540  0.2385  1.1585
  712MOL0     C96023   9.964   9.663   2.939  0.2418  0.0549 -0.1119
  712MOL0     C96024  10.032   9.527   2.927  0.5966 -0.1510 -0.5775
  712MOL0     C96025  10.167   9.509   2.993  0.4915  0.1513  0.3340
  712MOL0     C96026  10.209   9.366   3.016 -0.3398  0.2795 -0.1491
  712MOL0     C96027  10.359   9.366   3.063 -0.3982 -0.2850 -0.2160
  712MOL0     C96028  10.406   9.228   3.070  0.0159  0.2520 -0.6283
  712MOL0     C96029  10.558   9.213   3.093 -0.7365  0.3239 -0.7574
  712MOL0    Cl96030  10.596   9.046   3.155  0.2976 -0.4407 -0.6432
  712MOL0     C96031   9.633   9.906   2.982 -0.0352 -0.1707 -0.1215
  712MOL0     C96032   9.507   9.969   2.979  0.5895  1.4466 -0.3989
  712MOL0     O96033   9.210   9.968   2.675  0.5589  0.7997 -0.8219
  712MOL0     C96034   9.044  10.028   2.982  0.4049 -0.1942  0.1754
  712MOL0     C96035   8.912  10.050   3.031 -0.0384  0.6079  0.4590
  712MOL0     N96036   8.280  10.388   3.269 -0.1891  0.8950  0.0129
  712MOL0     N96037   8.304  10.449   3.379 -0.0395 -0.0170 -1.1079
  712MOL0     C96038   9.435  10.502   3.671 -0.2452 -0.1800  0.1552
  712MOL0     C96039   9.566  10.489   3.638 -0.5881 -0.2904 -0.2448
  712MOL0     C96040   9.999  10.658   3.567 -0.4066 -0.2049 -0.3486
  712MOL0     C96041  10.090  10.768   3.562  0.0707  0.1708  0.9281
  712MOL0     C96042  10.223  10.747   3.521 -0.1243 -0.2336 -0.3921
  712MOL0     C96043  10.271  10.618   3.485 -0.0531  0.4867 -0.4829
  712MOL0     O96044  10.397  10.585   3.457 -0.0268 -0.3844  0.0878
  712MOL0     C96045  10.469  10.682   3.384  0.0633  0.1874  0.5923
  712MOL0     C96046  10.617  10.649   3.362  0.6188 -0.1507  1.7872
  712MOL0     C96047  10.620  10.505   3.295 -0.2779 -0.7460 -0.9004
  712MOL0     C96048  10.772  10.468   3.270 -0.4340 -0.3628 -0.4564
  712MOL0     C96049  10.790  10.331   3.218 -0.7004  0.1898  1.3948
  712MOL0     C96050  10.821  10.222   3.188  0.1320 -0.0366  0.2690
  712MOL0     C96051  10.177  10.509   3.494  0.3955 -0.4806  0.4467
  712MOL0     C96052  10.050  10.532   3.547  0.4884 -0.1255 -0.5743
  712MOL0     H96053   9.695  10.739   3.832 -1.5881  2.3632 -1.4936
  712MOL0     H96054   9.465  10.731   3.927 -1.2622 -1.8991  1.5976
  712MOL0     H96055   9.236  10.747   3.930  1.6699  0.3734 -2.7772
  712MOL0     H96056   9.180  10.782   3.783 -1.3563  0.6740  1.4929
  712MOL0     H96057   9.037  10.577   3.964  1.0375 -0.7708 -0.6031
  712MOL0     H96058   8.989  10.741   3.923 -1.4789 -1.1770  1.8929
  712MOL0     H96059   8.976  10.703   3.682  0.7717 -0.1792  0.7593
  712MOL0     H96060   9.020  10.541   3.704 -1.1595  0.5681 -1.3780
  712MOL0     H96061   8.836  10.503   3.855 -1.1756 -0.1824 -1.1709
  712MOL0     H96062   8.770  10.663   3.828 -0.7010  1.1628 -0.2069
  712MOL0     H96063   8.714  10.609   3.607 -0.7203 -0.0022 -1.1214
  712MOL0     H96064   8.818  10.472   3.585 -0.1325  0.6062  0.2372
  712MOL0     H96065   8.672  10.354   3.768 -0.2019 -0.9740  0.5814
  712MOL0     H96066   8.586  10.503   3.780 -0.2420  1.1861 -1.2764
  712MOL0     H96067   8.595  10.459   3.500 -0.7891  0.6820  1.0267
  712MOL0     H96068   8.598  10.295   3.567  1.4229  0.5285  0.7597
  712MOL0     H96069   8.391  10.516   3.608  1.0052  0.9492 -2.9278
  712MOL0     H96070   8.379  10.353   3.687 -2.5625  0.8340  0.1257
  712MOL0     H96071   8.393  10.149   3.469 -0.5309  0.4157 -0.1745
  712MOL0     H96072   8.333  10.053   3.254 -1.6623  0.7140 -0.1350
  712MOL0     H96073   8.224  10.140   3.148  0.6898 -0.4918 -0.2983
  712MOL0     H96074   8.506  10.191   3.133  0.1702 -0.4707 -1.0999
  712MOL0     H96075   8.378  10.224   3.016 -0.2533  0.8208  0.3785
  712MOL0     H96076   8.361   9.994   2.954  1.1645 -0.8091 -1.1826
  712MOL0     H96077   8.486   9.949   3.084 -0.7160  2.2172  3.2341
  712MOL0     H96078   8.538  10.145   2.867  0.1732  0.4126  1.7483
  712MOL0     H96079   8.583   9.977   2.852 -1.4037 -0.7386  0.3804
  712MOL0     H96080   8.758  10.125   2.738 -0.0809  0.6279 -0.3233
  712MOL0     H96081   9.057  10.178   2.611 -1.5654  1.9349 -0.1466
  712MOL0     H96082   8.975  10.029   2.548 -3.2681 -0.0230  0.4471
  712MOL0     H96083   8.891  10.183   2.584  0.0155  0.9904  1.9324
  712MOL0     H96084   9.401   9.848   2.672 -1.3369 -3.8694  1.0742
  712MOL0     H96085   9.629   9.769   2.674  0.2907 -1.8833  1.0403
  712MOL0     H96086   9.753   9.615   2.907 -0.2025 -0.0478  1.5670
  712MOL0     H96087   9.848   9.655   2.751 -0.7167 -0.1102  1.2028
  712MOL0     H96088  10.036   9.736   2.902 -1.7920  1.9182 -0.5206
  712MOL0     H96089   9.938   9.677   3.045  1.1265 -0.7806  0.2310
  712MOL0     H96090  10.042   9.517   2.818 -0.6843  1.1357 -0.8378
  712MOL0     H96091   9.961   9.452   2.964 -1.6037  2.0505 -0.0763
  712MOL0     H96092  10.248   9.558   2.938 -1.6261  1.4347 -1.8576
  712MOL0     H96093  10.150   9.559   3.089  2.4775  0.3782  0.6020
  712MOL0     H96094  10.201   9.308   2.924  0.3599  0.6200 -0.4249
  712MOL0     H96095  10.143   9.320   3.091 -0.3164  2.6892  1.4528
  712MOL0     H96096  10.421   9.425   2.994  0.1233 -1.6894 -0.9844
  712MOL0     H96097  10.371   9.421   3.157 -2.4518 -0.3025  0.1132
  712MOL0     H96098  10.387   9.187   2.971 -0.0764  1.3243 -1.0642
  712MOL0     H96099  10.342   9.181   3.145  1.9265  1.0092  1.6045
  712MOL0     H96100  10.585   9.275   3.179 -2.0209  1.6576 -1.2698
  712MOL0     H96101  10.620   9.247   3.010 -0.2651  0.9565 -0.1541
  712MOL0     H96102   9.700   9.940   3.061  0.1707  3.4518 -1.6339
  712MOL0     H96103   9.480  10.025   3.068  1.6132 -2.0100  2.3326
  712MOL0     H96104   9.117  10.017   3.061 -2.4880 -0.3691  3.0328
  712MOL0     H96105   8.903  10.060   3.139 -2.8140 -1.6844  0.5602
  712MOL0     H96106   9.363  10.441   3.617  0.0190  0.6334 -1.1271
  712MOL0     H96107   9.596  10.425   3.556 -0.4066  2.3437 -2.3414
  712MOL0     H96108  10.062  10.871   3.582 -1.2261  0.3697 -1.5271
  712MOL0     H96109  10.281  10.837   3.536 -0.9420  0.3860 -0.8550
  712MOL0     H96110  10.431  10.707   3.284  0.1970 -0.8276  0.2789
  712MOL0     H96111  10.465  10.782   3.428 -0.4640  0.3654  0.1606
  712MOL0     H96112  10.676  10.641   3.454  1.6932  0.2606  1.1533
  712MOL0     H96113  10.665  10.724   3.298 -1.5674  1.4173  1.8823
  712MOL0     H96114  10.566  10.487   3.202 -1.4819 -1.8275 -0.0360
  712MOL0     H96115  10.571  10.442   3.370 -3.1271  1.3159 -0.9044
  712MOL0     H96116  10.823  10.482   3.365 -1.0687 -4.1164  0.5995
  712MOL0     H96117  10.805  10.536   3.190 -0.8964  2.3384  1.5255
  712MOL0     H96118  10.844  10.123   3.153 -0.1351 -0.1452  0.3987
  712MOL0     H96119  10.208  10.409   3.467 -0.0106 -0.3674 -0.4703
  712MOL0     H96120   9.981  10.448   3.551 -0.9033  0.8790 -2.1936
  713MOL0     O96121  11.047  11.203   1.922 -0.3604  0.1678  0.4253
  713MOL0     C96122  11.093  11.315   1.926  0.2676  0.6607 -0.2863
  713MOL0     O96123  11.025  11.432   1.904 -0.3849 -1.0189 -0.0737
  713MOL0     C96124  10.897  11.419   1.860 -0.1050 -0.2704  0.0699
  713MOL0     C96125  10.788  11.458   1.942 -0.1841 -0.3967 -0.8597
  713MOL0     C96126  10.656  11.441   1.901 -0.4412 -0.5308  0.5568
  713MOL0     C96127  10.626  11.393   1.775  0.3106 -0.5753 -0.8944
  713MOL0     O96128  10.503  11.356   1.731  0.2972  0.5455 -0.0746
  713MOL0     C96129  10.407  11.318   1.830  0.9571  0.2117 -0.6075
  713MOL0     C96130  10.299  11.277   1.740  0.3562  0.2177 -0.2808
  713MOL0     C96131  10.183  11.241   1.833  0.9600  0.0425 -0.3336
  713MOL0     C96132  10.068  11.153   1.777  0.5350 -0.1050 -0.3097
  713MOL0     C96133   9.995  11.215   1.648  0.2254 -0.1143 -0.5653
  713MOL0     C96134   9.854  11.158   1.629 -0.1769 -0.6862 -0.5005
  713MOL0     C96135   9.760  11.226   1.533 -0.5653  0.3660  0.1865
  713MOL0     C96136   9.623  11.156   1.531  0.1117  0.9346 -0.5291
  713MOL0     N96137   9.637  11.010   1.491  0.3433 -1.1383  0.5245
  713MOL0     C96138   9.636  10.888   1.558  0.0723  0.6125  0.3627
  713MOL0     C96139   9.661  10.792   1.466 -0.2246  0.0603 -0.4542
  713MOL0     C96140   9.660  10.641   1.484  0.1670  0.7373 -0.7041
  713MOL0     C96141   9.802  10.586   1.453 -0.5312 -0.2957 -0.2286
  713MOL0     C96142   9.823  10.442   1.485 -0.6499  0.0090 -0.7701
  713MOL0     C96143   9.951  10.397   1.421 -0.7377 -0.4608 -0.4959
  713MOL0     O96144  10.057  10.450   1.499  0.1122  0.0938 -0.3741
  713MOL0     C96145  10.184  10.410   1.472 -0.0098 -0.6099 -0.6289
  713MOL0     C96146  10.214  10.276   1.490 -0.2297 -0.3839  0.6037
  713MOL0     C96147  10.342  10.232   1.461  0.6570 -0.6315  0.3008
  713MOL0     C96148  10.367  10.084   1.463  0.0099  0.2794  0.3219
  713MOL0     C96149  10.452  10.335   1.444 -0.2902 -0.0325  0.0880
  713MOL0     C96150  10.597  10.307   1.429  0.2622  0.9779  0.8056
  713MOL0     O96151  10.678  10.405   1.403  0.7676 -0.1728 -0.0669
  713MOL0     C96152  10.810  10.375   1.413 -0.4887  0.1325  0.4606
  713MOL0     C96153  10.866  10.348   1.534 -0.3638 -0.2093  0.1446
  713MOL0     C96154  11.000  10.319   1.544  0.0767 -0.2260 -0.2085
  713MOL0     C96155  11.085  10.322   1.433  0.2660  0.2138  0.2091
  713MOL0     O96156  11.211  10.275   1.429 -0.3580  0.2881  0.1639
  713MOL0     C96157  11.259  10.191   1.537 -0.0440  0.0898  0.4446
  713MOL0     C96158  11.196  10.050   1.548 -0.0861  0.5634  0.5788
  713MOL0     C96159  11.229   9.983   1.682 -0.4752  0.7396 -0.0802
  713MOL0     C96160  11.369   9.925   1.687  0.4998 -0.0314 -0.0447
  713MOL0     C96161  11.386   9.821   1.800 -0.2658  0.0896  0.2064
  713MOL0     C96162  11.359   9.877   1.934 -0.6618  0.6133  0.2212
  713MOL0     C96163  11.469   9.963   1.992 -0.2496 -0.2687  0.0362
  713MOL0     C96164  11.432  10.033   2.131  1.0532  1.2152 -0.1628
  713MOL0    Cl96165  11.406   9.908   2.247 -0.2209 -0.4533 -0.4090
  713MOL0     C96166  11.030  10.349   1.310  0.3584 -0.0518 -1.0273
  713MOL0     C96167  10.887  10.376   1.300 -0.2067 -0.4090 -0.1344
  713MOL0     O96168  10.639  10.189   1.444  0.6448  0.0497 -0.1727
  713MOL0     C96169  10.417  10.474   1.451  0.0513 -0.1736 -0.5431
  713MOL0     C96170  10.281  10.506   1.461 -0.1050  0.6797 -0.1247
  713MOL0     N96171   9.676  10.856   1.348  0.0475 -0.4893  0.5864
  713MOL0     N96172   9.668  10.984   1.361 -0.8669 -0.0408 -0.0926
  713MOL0     C96173  10.735  11.372   1.692  0.1219  0.0612  0.3040
  713MOL0     C96174  10.865  11.379   1.735 -0.4568  0.1737  0.7197
  713MOL0     C96175  11.238  11.326   1.958  0.1235  0.3533  0.2688
  713MOL0     C96176  11.316  11.208   1.968 -0.4186 -0.3906  0.3560
  713MOL0     C96177  11.450  11.209   2.010 -0.0787  0.3966 -0.3778
  713MOL0     C96178  11.517  11.329   2.039 -0.6290 -0.2404 -0.0082
  713MOL0     O96179  11.642  11.345   2.092 -0.5763  0.3764 -0.0514
  713MOL0     C96180  11.733  11.225   2.104  0.6375 -0.8164 -0.2064
  713MOL0     C96181  11.861  11.277   2.167  0.0532 -0.2204 -0.0311
  713MOL0     C96182  11.945  11.358   2.061  0.9237  0.3662 -0.1095
  713MOL0     C96183  12.068  11.407   2.135  0.4375  0.0260 -0.2917
  713MOL0     C96184  12.127  11.504   2.043  0.1778  0.1375  1.1851
  713MOL0     C96185  12.185  11.581   1.979 -0.6196 -0.0123 -0.7050
  713MOL0     C96186  11.433  11.446   2.038 -0.1193  0.0319 -0.6578
  713MOL0     C96187  11.302  11.446   1.989  0.1117 -0.3184  0.2844
  713MOL0     H96188  10.804  11.485   2.046 -0.8248 -2.8771 -0.0483
  713MOL0     H96189  10.573  11.473   1.963  0.9538  0.7212  1.8787
  713MOL0     H96190  10.445  11.242   1.899 -0.4003  0.5853  0.5954
  713MOL0     H96191  10.371  11.405   1.885  0.8773  0.6587 -1.3536
  713MOL0     H96192  10.266  11.356   1.671 -0.0187 -1.7536 -2.4759
  713MOL0     H96193  10.337  11.200   1.673 -1.5149  1.1070 -2.5364
  713MOL0     H96194  10.217  11.190   1.924 -1.1092  3.9124  3.0116
  713MOL0     H96195  10.137  11.337   1.860 -3.0138 -1.6851 -0.1952
  713MOL0     H96196  10.109  11.055   1.752  1.8701  0.2431  0.4558
  713MOL0     H96197   9.987  11.141   1.850  2.7381  1.0304  2.4792
  713MOL0     H96198   9.987  11.322   1.671  0.8387  0.3162 -2.1954
  713MOL0     H96199  10.058  11.206   1.559  1.7093 -1.6756  0.5830
  713MOL0     H96200   9.858  11.054   1.597 -4.5276 -1.0738 -0.3646
  713MOL0     H96201   9.801  11.165   1.725  1.4478  1.3029  0.3411
  713MOL0     H96202   9.744  11.331   1.561 -0.9074  0.0449  1.2467
  713MOL0     H96203   9.811  11.224   1.437  1.9915  1.7035  1.4087
  713MOL0     H96204   9.554  11.210   1.466  0.3478  0.7900 -0.9063
  713MOL0     H96205   9.585  11.155   1.634  1.3502  0.9770 -0.0483
  713MOL0     H96206   9.602  10.863   1.658  0.2353 -2.2663 -0.2055
  713MOL0     H96207   9.630  10.627   1.589 -3.9860  2.1668 -1.5041
  713MOL0     H96208   9.585  10.591   1.423  0.0032 -0.2435  0.2707
  713MOL0     H96209   9.875  10.644   1.509 -0.6068 -1.2230  0.8560
  713MOL0     H96210   9.822  10.606   1.347 -0.0227  0.8496  0.0702
  713MOL0     H96211   9.734  10.382   1.462 -0.6691 -0.1858 -0.2029
  713MOL0     H96212   9.828  10.436   1.594 -1.4661  3.6026 -0.4136
  713MOL0     H96213   9.956  10.436   1.319 -0.4428 -1.7209 -0.9740
  713MOL0     H96214   9.950  10.288   1.418 -1.6454 -0.5030  0.5734
  713MOL0     H96215  10.131  10.208   1.504  0.2692 -1.5088 -1.4057
  713MOL0     H96216  10.448  10.061   1.534  1.0501 -2.8805 -1.7114
  713MOL0     H96217  10.275  10.039   1.500 -2.2033  2.7778 -1.7536
  713MOL0     H96218  10.408  10.048   1.369  0.5939 -1.9700  1.3828
  713MOL0     H96219  10.802  10.342   1.622 -2.0985  1.1889 -0.9483
  713MOL0     H96220  11.037  10.297   1.643 -0.4367  1.9729  0.5305
  713MOL0     H96221  11.366  10.176   1.518 -0.2140 -0.5933 -0.0336
  713MOL0     H96222  11.250  10.236   1.636 -0.1730  1.4529 -0.1653
  713MOL0     H96223  11.087  10.061   1.539  0.0528  1.9985  0.3270
  713MOL0     H96224  11.235   9.985   1.470 -2.1205 -1.1515  0.8937
  713MOL0     H96225  11.161   9.897   1.688 -0.4272  0.7593  0.7466
  713MOL0     H96226  11.201  10.059   1.755  0.4931  0.8570  0.1862
  713MOL0     H96227  11.400   9.865   1.602  0.5481 -0.0631 -0.0050
  713MOL0     H96228  11.445  10.001   1.710  0.2638  0.7762 -1.7560
  713MOL0     H96229  11.487   9.782   1.806 -0.5577 -0.8555 -0.7262
  713MOL0     H96230  11.313   9.741   1.783  0.1612  0.0050 -1.4210
  713MOL0     H96231  11.269   9.938   1.926 -1.3385 -0.3120  0.6249
  713MOL0     H96232  11.353   9.800   2.012  0.9739  1.2679  1.0543
  713MOL0     H96233  11.497  10.032   1.912 -1.5455  1.2143  0.8019
  713MOL0     H96234  11.554   9.900   2.021 -0.9288 -0.1241  2.5657
  713MOL0     H96235  11.334  10.082   2.134  0.1787 -0.4662  0.2910
  713MOL0     H96236  11.513  10.103   2.151  1.8475  1.9504 -4.8739
  713MOL0     H96237  11.089  10.337   1.219 -0.4923 -0.2762 -1.5518
  713MOL0     H96238  10.837  10.392   1.205  0.3794  0.1480 -0.3541
  713MOL0     H96239  10.485  10.558   1.444 -0.7881  0.4404 -1.7498
  713MOL0     H96240  10.258  10.612   1.465 -2.4487  0.1775  1.1037
  713MOL0     H96241  10.726  11.346   1.587 -0.1371 -1.7665  0.7426
  713MOL0     H96242  10.941  11.359   1.660 -0.1340 -2.5698  1.6820
  713MOL0     H96243  11.279  11.113   1.931 -2.2978  0.6553 -0.6249
  713MOL0     H96244  11.505  11.116   2.005 -1.4055 -0.4493  0.2060
  713MOL0     H96245  11.684  11.144   2.159 -0.1537 -0.9345 -1.0781
  713MOL0     H96246  11.739  11.187   2.002 -4.5502  0.7310 -1.4058
  713MOL0     H96247  11.906  11.184   2.205  1.8112  0.1811 -0.9918
  713MOL0     H96248  11.840  11.334   2.258  1.0417 -0.6184  0.4570
  713MOL0     H96249  11.896  11.450   2.028  2.1972  0.9487 -0.4449
  713MOL0     H96250  11.956  11.294   1.974 -0.5362  1.5524 -1.2146
  713MOL0     H96251  12.141  11.331   2.164  1.5994  1.8600  1.8814
  713MOL0     H96252  12.042  11.464   2.224 -0.4448  0.8678 -1.0686
  713MOL0     H96253  12.232  11.655   1.917  1.2258  0.4469  1.1317
  713MOL0     H96254  11.477  11.544   2.051 -2.6346  1.4424 -1.9763
  713MOL0     H96255  11.257  11.542   1.967  1.5537 -0.2158 -2.6967
  714MOL0     O96256   7.237   8.800   2.394  0.5384 -0.1142  0.1091
  714MOL0     C96257   7.242   8.761   2.512  0.1764  0.6125  0.7172
  714MOL0     O96258   7.140   8.708   2.582 -0.2017  0.4158 -0.6080
  714MOL0     C96259   7.018   8.689   2.529  0.0292 -0.7824  0.4637
  714MOL0     C96260   6.907   8.724   2.614 -0.5354 -0.2630  0.2611
  714MOL0     C96261   6.783   8.712   2.556  0.0529 -0.0509 -0.7889
  714MOL0     C96262   6.759   8.640   2.432 -0.2888  0.0490 -0.5664
  714MOL0     O96263   6.634   8.626   2.384  0.8252  0.0992  0.8446
  714MOL0     C96264   6.524   8.668   2.459  0.4993 -0.1980 -0.0619
  714MOL0     C96265   6.482   8.815   2.437 -1.4750 -0.3321 -0.2805
  714MOL0     C96266   6.448   8.835   2.289  0.2924  0.8259 -0.6033
  714MOL0     C96267   6.418   8.977   2.250 -0.3565  0.9135 -0.0281
  714MOL0     C96268   6.328   8.976   2.128  0.3565 -0.3906  1.0613
  714MOL0     C96269   6.268   9.119   2.107 -0.0402  0.2301  0.1123
  714MOL0     C96270   6.194   9.137   1.977 -1.0184  0.0331 -0.0985
  714MOL0     C96271   6.048   9.095   1.998 -0.0446  0.6161 -0.3654
  714MOL0     N96272   5.966   9.169   2.097  0.0809 -0.0370  0.4643
  714MOL0     C96273   5.923   9.293   2.081 -0.4939  0.6057 -0.1458
  714MOL0     C96274   5.826   9.317   2.175  0.2479 -0.8816  0.3476
  714MOL0     C96275   5.737   9.440   2.178  0.0103  0.4181  0.3032
  714MOL0     C96276   5.614   9.431   2.267  0.2566 -0.1591 -0.8405
  714MOL0     C96277   5.497   9.521   2.196 -0.1211  0.8109 -0.8131
  714MOL0     C96278   5.376   9.557   2.296 -0.2118 -0.2471 -0.7895
  714MOL0     O96279   5.264   9.626   2.229  0.0504  0.1733  0.0907
  714MOL0     C96280   5.137   9.625   2.294 -1.1930 -0.7837  0.7954
  714MOL0     C96281   5.105   9.573   2.417  1.1521  0.5365 -0.2984
  714MOL0     C96282   4.975   9.575   2.477  0.0762 -0.2595 -0.2180
  714MOL0     C96283   4.959   9.542   2.619  1.8096  0.2713  0.0383
  714MOL0     C96284   4.867   9.607   2.395 -0.1417 -0.4107  0.0672
  714MOL0     C96285   4.717   9.608   2.430  0.2556  0.3189 -0.3841
  714MOL0     O96286   4.636   9.671   2.336 -0.0641  0.1368 -0.9509
  714MOL0     C96287   4.501   9.666   2.356  0.0886 -1.3295 -0.1425
  714MOL0     C96288   4.441   9.786   2.400  0.2013  0.2683  0.2662
  714MOL0     C96289   4.301   9.781   2.404 -0.1087  0.1097 -0.6786
  714MOL0     C96290   4.219   9.662   2.390  0.1043  0.3068  0.0060
  714MOL0     O96291   4.083   9.666   2.399 -0.4502 -0.0900 -0.0417
  714MOL0     C96292   4.018   9.748   2.489 -0.0712  0.5863  0.2670
  714MOL0     C96293   3.877   9.690   2.502  0.1344  0.3756 -0.0187
  714MOL0     C96294   3.805   9.661   2.363 -0.0673  0.0189 -0.2474
  714MOL0     C96295   3.673   9.606   2.408 -0.8048 -0.8810  0.0193
  714MOL0     C96296   3.588   9.573   2.277 -0.2583 -0.1121 -0.0573
  714MOL0     C96297   3.562   9.424   2.278 -0.4316 -0.7850  0.4597
  714MOL0     C96298   3.466   9.385   2.166  0.0307 -0.3045  0.3665
  714MOL0     C96299   3.438   9.234   2.168 -0.3056 -0.0738 -0.4568
  714MOL0    Cl96300   3.312   9.173   2.055 -0.3803 -0.4267  0.0707
  714MOL0     C96301   4.292   9.544   2.348 -0.2511  0.0895 -0.0252
  714MOL0     C96302   4.431   9.549   2.331  0.3777 -0.0623  0.0276
  714MOL0     O96303   4.677   9.568   2.536 -0.2836  0.8844 -0.2260
  714MOL0     C96304   4.897   9.658   2.268 -0.6776  0.6164 -1.0154
  714MOL0     C96305   5.028   9.670   2.221  0.1916  0.2528 -0.3716
  714MOL0     N96306   5.809   9.200   2.242  0.1444  0.2724  0.6987
  714MOL0     N96307   5.892   9.111   2.193 -0.3178  0.5145  0.6403
  714MOL0     C96308   6.871   8.603   2.359 -0.1067 -0.1656  0.2074
  714MOL0     C96309   7.005   8.632   2.407 -0.7482  0.7107  0.3874
  714MOL0     C96310   7.371   8.774   2.595 -0.2230 -0.3354 -0.1793
  714MOL0     C96311   7.502   8.763   2.540  1.1790 -0.5868  0.9113
  714MOL0     C96312   7.611   8.809   2.617 -0.5333 -0.5982 -0.0508
  714MOL0     C96313   7.593   8.848   2.745 -0.0358 -0.5360  0.3643
  714MOL0     O96314   7.699   8.889   2.829 -0.2565  0.0210  0.3622
  714MOL0     C96315   7.840   8.903   2.780 -1.0413  0.2353 -0.6492
  714MOL0     C96316   7.910   8.770   2.767 -0.4320  0.4184 -0.6910
  714MOL0     C96317   8.055   8.793   2.711 -0.3751 -0.2295  0.1230
  714MOL0     C96318   8.145   8.885   2.792  0.0547  0.1482 -0.2344
  714MOL0     C96319   8.289   8.873   2.752  0.6071  1.3466 -0.7715
  714MOL0     C96320   8.407   8.863   2.727 -0.0842  0.5335  0.1519
  714MOL0     C96321   7.471   8.859   2.790  0.5419  0.1323 -1.2999
  714MOL0     C96322   7.357   8.815   2.722 -0.3228 -0.1229 -0.0060
  714MOL0     H96323   6.922   8.768   2.713 -2.4462  2.0880 -0.3948
  714MOL0     H96324   6.694   8.750   2.606 -1.2894 -3.0456 -0.6360
  714MOL0     H96325   6.437   8.612   2.423 -3.2343  3.7287  1.9466
  714MOL0     H96326   6.543   8.658   2.566  2.4537 -2.3752 -0.5276
  714MOL0     H96327   6.399   8.833   2.506  0.7525  1.3359  2.1547
  714MOL0     H96328   6.556   8.889   2.467 -0.3718  0.2580 -3.9882
  714MOL0     H96329   6.521   8.784   2.225  0.7800 -2.0994  2.0514
  714MOL0     H96330   6.362   8.769   2.275  0.8010 -0.4094  1.6544
  714MOL0     H96331   6.368   9.021   2.337 -0.5605  0.2887  0.1720
  714MOL0     H96332   6.505   9.039   2.226  2.4104 -1.5205  2.7831
  714MOL0     H96333   6.374   8.950   2.032  0.2169 -0.6003  1.0485
  714MOL0     H96334   6.245   8.904   2.136 -0.0430  0.1015  1.3575
  714MOL0     H96335   6.211   9.131   2.200  2.1522 -0.1460  1.5859
  714MOL0     H96336   6.342   9.199   2.103 -0.5252  0.6597 -0.3738
  714MOL0     H96337   6.200   9.241   1.944 -1.8250 -0.1154 -0.7542
  714MOL0     H96338   6.250   9.082   1.901  2.3743 -1.1836  2.9991
  714MOL0     H96339   6.039   8.993   2.036 -2.0105  0.8275 -0.1167
  714MOL0     H96340   5.999   9.080   1.901  0.2928 -2.5844 -0.1295
  714MOL0     H96341   5.962   9.362   2.007 -0.9996  0.0484 -0.9533
  714MOL0     H96342   5.803   9.525   2.197  1.4119 -0.3821 -0.6971
  714MOL0     H96343   5.700   9.446   2.075 -0.1791  2.8362  0.4622
  714MOL0     H96344   5.644   9.477   2.361  1.8437 -5.2234  1.4821
  714MOL0     H96345   5.587   9.327   2.287 -1.0117  0.7098  2.5426
  714MOL0     H96346   5.456   9.477   2.104 -2.1038 -1.7163  1.1205
  714MOL0     H96347   5.541   9.617   2.169 -1.5379  1.5167 -0.6907
  714MOL0     H96348   5.409   9.629   2.372 -1.4930 -0.1820 -0.2700
  714MOL0     H96349   5.338   9.465   2.340  0.0387 -0.2390 -0.5506
  714MOL0     H96350   5.178   9.549   2.493  0.9196  2.9904  0.7953
  714MOL0     H96351   5.052   9.552   2.675  0.2146  0.8137  2.8057
  714MOL0     H96352   4.898   9.624   2.658  2.2359 -0.6753  2.9510
  714MOL0     H96353   4.912   9.444   2.635 -0.9564  1.6927  1.4241
  714MOL0     H96354   4.499   9.874   2.425  1.7912 -0.4963 -0.5803
  714MOL0     H96355   4.269   9.884   2.419  1.3447  0.8444 -2.3344
  714MOL0     H96356   4.060   9.750   2.590  1.8339  3.3065 -0.4804
  714MOL0     H96357   4.018   9.851   2.451  0.3992 -0.0017 -1.3960
  714MOL0     H96358   3.888   9.597   2.559 -2.9651  0.2176  0.4960
  714MOL0     H96359   3.822   9.750   2.575  1.8399 -0.1887  1.8458
  714MOL0     H96360   3.868   9.590   2.308  1.5326 -0.2472  1.7888
  714MOL0     H96361   3.780   9.746   2.299 -0.5945 -1.3978 -2.0010
  714MOL0     H96362   3.688   9.520   2.474  1.4816  0.2840  1.1614
  714MOL0     H96363   3.615   9.672   2.474  0.3326  1.2306 -0.9724
  714MOL0     H96364   3.653   9.601   2.193 -1.4959  1.2309 -0.6255
  714MOL0     H96365   3.499   9.637   2.268 -0.4951 -0.4067  0.1692
  714MOL0     H96366   3.661   9.377   2.280  0.8135  1.6641 -0.1311
  714MOL0     H96367   3.516   9.394   2.373 -0.0539  1.1935  1.3351
  714MOL0     H96368   3.502   9.413   2.066  0.2110 -0.6605  0.3320
  714MOL0     H96369   3.366   9.427   2.179  1.0024  3.2518 -1.9943
  714MOL0     H96370   3.388   9.218   2.265 -0.8048  0.2526 -0.6555
  714MOL0     H96371   3.533   9.183   2.152 -1.5845 -2.1678 -1.8263
  714MOL0     H96372   4.238   9.453   2.323  0.4827 -0.7357  1.2754
  714MOL0     H96373   4.470   9.461   2.282  3.3793 -1.5129  4.4045
  714MOL0     H96374   4.825   9.698   2.197 -1.7408  0.3119 -0.1387
  714MOL0     H96375   5.053   9.709   2.123  2.7273 -0.7183 -0.2024
  714MOL0     H96376   6.858   8.577   2.254  1.8637  1.1169 -0.4152
  714MOL0     H96377   7.093   8.616   2.345 -1.1389  0.0120 -0.0068
  714MOL0     H96378   7.513   8.729   2.438 -2.0902 -0.0154  0.2479
  714MOL0     H96379   7.706   8.823   2.567 -1.3587 -0.1515 -1.5513
  714MOL0     H96380   7.833   8.956   2.685 -2.6883 -0.8288 -1.1762
  714MOL0     H96381   7.886   8.968   2.855 -0.9022  0.8187 -1.2395
  714MOL0     H96382   7.851   8.713   2.695  0.0288 -0.6446 -0.2468
  714MOL0     H96383   7.908   8.720   2.865 -3.3336  2.8869  0.6708
  714MOL0     H96384   8.054   8.840   2.612  1.8409  0.2775  0.2754
  714MOL0     H96385   8.105   8.696   2.703  0.6525  0.1803  1.1631
  714MOL0     H96386   8.133   8.859   2.898  0.7084 -0.7265 -0.3527
  714MOL0     H96387   8.117   8.990   2.782  0.0959  0.0414 -1.6311
  714MOL0     H96388   8.512   8.849   2.708 -0.5196 -0.0008 -2.0481
  714MOL0     H96389   7.455   8.897   2.890 -0.3675  2.3997 -2.2554
  714MOL0     H96390   7.259   8.826   2.767  0.6991  3.7834  1.6815
  715MOL0     O96391   8.238  11.252   6.568  0.0940 -0.2189 -0.0926
  715MOL0     C96392   8.297  11.241   6.679 -0.0294 -0.1608  0.6223
  715MOL0     O96393   8.276  11.141   6.766  0.2681 -0.5989 -0.0230
  715MOL0     C96394   8.183  11.039   6.751  0.1442  0.3037  0.1879
  715MOL0     C96395   8.182  10.950   6.648  0.1597 -0.0675 -0.2855
  715MOL0     C96396   8.086  10.842   6.652  0.2079 -0.4373 -0.2941
  715MOL0     C96397   7.994  10.824   6.762  0.7959 -0.3583  0.5078
  715MOL0     O96398   7.920  10.713   6.774  0.0642 -0.3165 -0.0997
  715MOL0     C96399   7.837  10.687   6.661 -0.0575  0.5133  0.4076
  715MOL0     C96400   7.714  10.773   6.659  0.2463  0.5123 -0.1525
  715MOL0     C96401   7.728  10.888   6.565  0.1940 -0.0420 -0.5773
  715MOL0     C96402   7.588  10.953   6.535 -0.0558  0.1215  0.4797
  715MOL0     C96403   7.609  11.067   6.430  0.0591 -0.2718  0.4822
  715MOL0     C96404   7.482  11.138   6.400  0.4013 -0.2250  0.7595
  715MOL0     C96405   7.441  11.243   6.499  0.2960  0.9581  0.8814
  715MOL0     C96406   7.514  11.376   6.504 -0.2764 -0.7193  0.8334
  715MOL0     N96407   7.496  11.453   6.375 -0.5701 -0.4291  0.1219
  715MOL0     C96408   7.375  11.506   6.338  0.0808 -0.8456  0.4505
  715MOL0     C96409   7.412  11.577   6.230  0.3199  0.0209  0.3914
  715MOL0     C96410   7.309  11.653   6.155 -0.2504  0.3211 -0.3625
  715MOL0     C96411   7.269  11.773   6.234  0.4059 -0.3633  1.0638
  715MOL0     C96412   7.228  11.887   6.127  0.2084  0.1005 -0.0847
  715MOL0     C96413   7.098  11.854   6.061  0.1503  0.2849 -0.1084
  715MOL0     O96414   6.985  11.864   6.144 -0.6840  0.0286 -0.2787
  715MOL0     C96415   6.868  11.830   6.103  0.3662 -0.3135 -0.4457
  715MOL0     C96416   6.762  11.848   6.195  0.4059  0.4826  0.4575
  715MOL0     C96417   6.620  11.827   6.158 -0.0135  0.8161 -0.3326
  715MOL0     C96418   6.527  11.865   6.279  0.2107  0.1821  0.5727
  715MOL0     C96419   6.581  11.784   6.035  0.0744 -0.6836  0.2025
  715MOL0     C96420   6.439  11.762   5.995 -0.4587  0.3863 -0.2719
  715MOL0     O96421   6.413  11.755   5.863 -0.0051  0.1690 -0.5336
  715MOL0     C96422   6.279  11.758   5.838  0.5158  0.9233  0.0433
  715MOL0     C96423   6.215  11.878   5.797  0.0983  0.3096  1.1621
  715MOL0     C96424   6.078  11.888   5.792  0.4655 -0.8448  1.3489
  715MOL0     C96425   5.997  11.774   5.804 -0.3848  0.1391 -0.2504
  715MOL0     O96426   5.864  11.757   5.793  0.3631  0.1427 -0.1241
  715MOL0     C96427   5.779  11.869   5.799 -0.1512 -0.0923  0.2107
  715MOL0     C96428   5.639  11.830   5.778 -0.0894  0.7401 -0.1426
  715MOL0     C96429   5.542  11.952   5.792 -0.3818  0.9499  0.4988
  715MOL0     C96430   5.402  11.901   5.774  0.0127 -0.1454  0.0639
  715MOL0     C96431   5.312  12.020   5.770 -0.0737 -0.4521  0.9220
  715MOL0     C96432   5.169  11.972   5.762  0.1291  0.1245  0.2815
  715MOL0     C96433   5.068  12.081   5.727  0.2340 -0.0221 -0.4710
  715MOL0     C96434   4.922  12.056   5.773  0.3456  0.4170  0.3670
  715MOL0    Cl96435   4.816  12.207   5.757 -0.0251 -0.0944 -0.3271
  715MOL0     C96436   6.059  11.650   5.840  0.5241  0.2420  0.7866
  715MOL0     C96437   6.197  11.646   5.857  0.0631  0.1141  0.0625
  715MOL0     O96438   6.362  11.741   6.088  0.2180 -0.6662  0.0008
  715MOL0     C96439   6.692  11.768   5.941  0.4579  0.3233  0.1861
  715MOL0     C96440   6.825  11.792   5.968 -0.0371 -0.5991 -0.1943
  715MOL0     N96441   7.546  11.576   6.215 -0.4112  0.3154 -0.1764
  715MOL0     N96442   7.599  11.499   6.305 -0.5307 -0.2769 -1.1207
  715MOL0     C96443   7.996  10.923   6.860  0.0237  0.5167 -0.6160
  715MOL0     C96444   8.089  11.030   6.852 -0.7851 -0.2079  0.1270
  715MOL0     C96445   8.418  11.337   6.703  0.4686  0.7689 -0.0185
  715MOL0     C96446   8.444  11.402   6.833 -0.2919  0.0023  0.3169
  715MOL0     C96447   8.550  11.486   6.833 -0.2828 -0.1925 -0.6495
  715MOL0     C96448   8.639  11.525   6.733  0.6260  0.5971  0.4137
  715MOL0     O96449   8.741  11.605   6.767  0.2950 -0.3052 -0.3961
  715MOL0     C96450   8.849  11.605   6.672  0.7861 -0.2501  0.2849
  715MOL0     C96451   8.940  11.725   6.692  0.4090 -0.0696 -0.0236
  715MOL0     C96452   9.020  11.769   6.568 -0.8605  0.7962  0.1555
  715MOL0     C96453   9.131  11.669   6.532 -0.1340 -0.2711 -0.0700
  715MOL0     C96454   9.167  11.685   6.399 -0.2059 -0.5152  0.5547
  715MOL0     C96455   9.194  11.715   6.285  0.1608 -0.2582  0.5260
  715MOL0     C96456   8.600  11.465   6.611 -0.6037  0.4530 -0.3715
  715MOL0     C96457   8.495  11.373   6.591  0.3913  0.6435  0.0893
  715MOL0     H96458   8.254  10.942   6.568 -0.7128 -3.8920 -0.8865
  715MOL0     H96459   8.089  10.756   6.586  1.8336 -1.4412  1.0196
  715MOL0     H96460   7.887  10.698   6.564 -1.7264 -0.4983 -0.6074
  715MOL0     H96461   7.809  10.583   6.675 -0.6537  0.4389 -1.2020
  715MOL0     H96462   7.632  10.704   6.638 -0.6181 -0.3648  4.8991
  715MOL0     H96463   7.686  10.814   6.756 -0.9345 -1.7677  0.5527
  715MOL0     H96464   7.802  10.955   6.611  1.1069 -0.9387 -0.6933
  715MOL0     H96465   7.770  10.858   6.468  1.5161  2.3618 -0.8473
  715MOL0     H96466   7.529  10.871   6.493 -1.4553  1.7353 -0.8321
  715MOL0     H96467   7.536  10.986   6.626 -2.1222 -0.6106 -0.3673
  715MOL0     H96468   7.682  11.140   6.466 -2.3247  1.6443  1.7480
  715MOL0     H96469   7.637  11.017   6.336 -2.8616 -0.8352 -0.1899
  715MOL0     H96470   7.485  11.193   6.305 -0.7072 -0.0675  0.8030
  715MOL0     H96471   7.395  11.072   6.402 -1.5100  2.0090 -1.7722
  715MOL0     H96472   7.336  11.265   6.479  0.2867  0.2647  0.1206
  715MOL0     H96473   7.436  11.204   6.602 -0.2648 -1.0350  0.1496
  715MOL0     H96474   7.622  11.355   6.504  0.0932  1.0009  0.3827
  715MOL0     H96475   7.482  11.431   6.593  1.3451  2.8370 -0.5670
  715MOL0     H96476   7.283  11.500   6.395 -1.5924  1.7347 -1.7580
  715MOL0     H96477   7.361  11.691   6.067  2.8082 -1.0039  0.7353
  715MOL0     H96478   7.228  11.582   6.139 -0.7437  0.2440  2.0811
  715MOL0     H96479   7.345  11.816   6.300  0.2881 -0.7441  1.4492
  715MOL0     H96480   7.178  11.755   6.292  0.8982  1.6617  2.5976
  715MOL0     H96481   7.303  11.905   6.049 -1.4504  1.1415 -1.5202
  715MOL0     H96482   7.217  11.975   6.190  0.6786  1.0308 -1.2555
  715MOL0     H96483   7.101  11.754   6.018  0.0115  0.3644 -0.3038
  715MOL0     H96484   7.088  11.930   5.983 -1.0709  2.8612  2.3764
  715MOL0     H96485   6.783  11.876   6.298  0.1692 -0.3977  0.7534
  715MOL0     H96486   6.443  11.928   6.249 -1.3907 -1.8078  0.6620
  715MOL0     H96487   6.489  11.772   6.322 -0.0694 -0.2354 -0.5493
  715MOL0     H96488   6.591  11.920   6.349  2.5912 -0.1204 -1.2316
  715MOL0     H96489   6.286  11.958   5.774  0.8758  0.3529  3.5116
  715MOL0     H96490   6.031  11.981   5.761 -2.9972 -2.6665  0.5669
  715MOL0     H96491   5.800  11.921   5.894  0.9916  0.9796 -0.5983
  715MOL0     H96492   5.799  11.948   5.726 -1.7350 -3.5281 -4.4020
  715MOL0     H96493   5.632  11.780   5.681 -0.7992 -0.8086  0.6698
  715MOL0     H96494   5.620  11.756   5.856  2.4040  0.7115  0.5214
  715MOL0     H96495   5.578  12.032   5.725 -1.5050 -0.7218 -2.2794
  715MOL0     H96496   5.558  11.981   5.896 -3.3527 -2.4667  2.0792
  715MOL0     H96497   5.390  11.834   5.689  2.4544 -0.8170  0.1794
  715MOL0     H96498   5.379  11.838   5.861 -0.1122  0.5895  0.5742
  715MOL0     H96499   5.332  12.073   5.677  1.0143  0.9532  1.9073
  715MOL0     H96500   5.320  12.092   5.853 -2.6320  0.9792  0.0324
  715MOL0     H96501   5.163  11.884   5.697 -0.0855  0.9682 -0.8649
  715MOL0     H96502   5.155  11.947   5.867 -1.4246  0.4279  0.1592
  715MOL0     H96503   5.068  12.095   5.619 -1.9845 -6.1973 -1.7128
  715MOL0     H96504   5.106  12.170   5.779 -0.8671 -0.6599  1.5638
  715MOL0     H96505   4.925  12.023   5.877 -1.5882 -0.7916  0.0928
  715MOL0     H96506   4.867  11.975   5.722 -2.1948  2.7846 -0.9342
  715MOL0     H96507   5.993  11.565   5.853 -1.6287  1.8459  0.8489
  715MOL0     H96508   6.235  11.554   5.902  1.6022  0.5450 -0.3001
  715MOL0     H96509   6.675  11.740   5.838  3.6713 -0.9949 -0.0982
  715MOL0     H96510   6.891  11.790   5.882 -1.1101 -1.7258 -1.0426
  715MOL0     H96511   7.947  10.914   6.956  0.6877  2.9220 -0.0036
  715MOL0     H96512   8.083  11.098   6.936 -0.4409 -0.1768  0.1263
  715MOL0     H96513   8.379  11.380   6.917  0.2476  0.1069  0.7573
  715MOL0     H96514   8.567  11.538   6.928  0.4517  0.6552 -1.2285
  715MOL0     H96515   8.911  11.515   6.672 -2.2382 -2.4934 -0.8884
  715MOL0     H96516   8.811  11.621   6.571  0.1160  0.9627  0.7072
  715MOL0     H96517   9.003  11.702   6.779 -2.2649 -3.3176  1.2535
  715MOL0     H96518   8.879  11.804   6.736 -2.0554 -1.5877 -0.5220
  715MOL0     H96519   9.071  11.863   6.588  0.0811  0.1213  1.0399
  715MOL0     H96520   8.959  11.766   6.477  0.7916 -1.4613 -0.9758
  715MOL0     H96521   9.097  11.566   6.539 -1.4888  0.0679 -1.1481
  715MOL0     H96522   9.221  11.683   6.592  1.7658 -2.2215 -2.2864
  715MOL0     H96523   9.230  11.729   6.185 -2.2517 -3.3718 -0.9515
  715MOL0     H96524   8.667  11.490   6.530  2.7719 -0.8175  1.8437
  715MOL0     H96525   8.477  11.351   6.486 -0.8800  1.7617  0.0499
  716MOL0     O96526   3.297   8.449   5.741  0.1930  0.5071  0.5069
  716MOL0     C96527   3.292   8.455   5.864  0.5501 -0.8850 -0.6433
  716MOL0     O96528   3.183   8.418   5.941 -0.2891  0.5699  0.4770
  716MOL0     C96529   3.059   8.390   5.894 -0.2363  0.1786 -0.2872
  716MOL0     C96530   2.982   8.307   5.981 -0.8935  0.2641  0.4247
  716MOL0     C96531   2.853   8.270   5.946 -0.0410  0.0001 -0.5208
  716MOL0     C96532   2.791   8.310   5.828 -0.9785  0.4269 -0.9000
  716MOL0     O96533   2.677   8.247   5.788  0.2213  0.2907  0.1655
  716MOL0     C96534   2.590   8.323   5.701  0.0004  0.4210  0.3319
  716MOL0     C96535   2.455   8.253   5.705 -0.0872  0.7995 -0.4970
  716MOL0     C96536   2.368   8.336   5.618  0.5408  0.4734  0.0992
  716MOL0     C96537   2.228   8.279   5.593 -0.2052 -0.1488  0.3330
  716MOL0     C96538   2.165   8.361   5.478  0.6581  0.2249 -0.4683
  716MOL0     C96539   2.013   8.352   5.469 -0.0920  0.0131 -0.2089
  716MOL0     C96540   1.960   8.429   5.346 -0.6027 -0.7061 -0.3232
  716MOL0     C96541   2.021   8.386   5.210  0.3665  0.1542  0.9929
  716MOL0     N96542   1.936   8.426   5.092 -0.1802 -0.8107  0.0361
  716MOL0     C96543   1.833   8.360   5.037 -0.7195 -0.4739 -0.1687
  716MOL0     C96544   1.765   8.452   4.967 -0.4233  0.4816  0.0587
  716MOL0     C96545   1.644   8.425   4.890  0.1295 -0.5881 -0.5517
  716MOL0     C96546   1.517   8.433   4.976  0.7323 -0.3651 -0.3403
  716MOL0     C96547   1.390   8.413   4.887 -0.0409 -0.7405 -0.1267
  716MOL0     C96548   1.263   8.431   4.963  0.3042  0.7272 -0.4299
  716MOL0     O96549   1.155   8.354   4.896  0.4428 -1.2983 -0.1147
  716MOL0     C96550   1.026   8.377   4.943 -0.3768  0.7301  0.5861
  716MOL0     C96551   0.927   8.343   4.856  0.6134  0.2184 -0.0815
  716MOL0     C96552   0.788   8.361   4.886 -0.1549  0.6473 -0.2405
  716MOL0     C96553   0.691   8.330   4.775 -0.0978 -0.4590  0.0878
  716MOL0     C96554   0.757   8.402   5.024  0.4170 -0.2618 -0.6003
  716MOL0     C96555   0.616   8.423   5.081  0.0993  0.8859  0.1846
  716MOL0     O96556   0.612   8.459   5.210 -0.0272 -0.3565 -0.2746
  716MOL0     C96557   0.495   8.434   5.275  0.6313  0.2552  0.0220
  716MOL0     C96558   0.505   8.367   5.393 -0.2428  0.2901 -0.6685
  716MOL0     C96559   0.385   8.330   5.465 -0.1058 -0.6830 -0.0812
  716MOL0     C96560   0.262   8.375   5.422 -0.2046 -0.2930 -0.4337
  716MOL0     O96561   0.148   8.345   5.488 -0.2674  0.2147 -0.4448
  716MOL0     C96562   0.048   8.448   5.513 -0.6704  0.4827 -0.4421
  716MOL0     C96563  -0.046   8.413   5.624  0.8023  0.4796 -0.6929
  716MOL0     C96564   0.013   8.388   5.760  0.2963  0.3557 -0.0114
  716MOL0     C96565  -0.101   8.369   5.863 -0.1136 -0.4341 -0.0195
  716MOL0     C96566  -0.050   8.335   6.005  0.5357  0.9633  0.5608
  716MOL0     C96567  -0.165   8.342   6.103  0.0882 -0.1345 -0.0751
  716MOL0     C96568  -0.184   8.479   6.167 -0.9802 -0.1814 -0.2069
  716MOL0     C96569  -0.312   8.481   6.257 -0.1376 -0.1636  0.1893
  716MOL0    Cl96570  -0.295   8.349   6.379 -0.0641  0.1564 -0.0642
  716MOL0     C96571   0.256   8.456   5.313  0.6637 -0.7208  0.5337
  716MOL0     C96572   0.369   8.474   5.237  1.2368  0.3514  0.3934
  716MOL0     O96573   0.521   8.397   5.013  0.2479 -0.1435  0.7650
  716MOL0     C96574   0.862   8.438   5.111 -0.7962  0.1394 -0.2695
  716MOL0     C96575   0.990   8.431   5.066 -0.3638 -0.1495  0.3101
  716MOL0     N96576   1.819   8.580   4.977  0.0264 -0.0642 -0.1483
  716MOL0     N96577   1.927   8.565   5.063  0.3743 -0.1897 -0.1098
  716MOL0     C96578   2.861   8.405   5.746 -0.9734 -0.0497 -0.0103
  716MOL0     C96579   2.997   8.443   5.778  0.5789  0.3600  0.6931
  716MOL0     C96580   3.417   8.497   5.938 -0.5259 -0.1397 -0.0379
  716MOL0     C96581   3.536   8.471   5.871 -0.7204 -0.3761 -0.4026
  716MOL0     C96582   3.656   8.516   5.938  0.1180 -0.3521  0.5561
  716MOL0     C96583   3.665   8.563   6.070  0.8683 -1.0355 -0.3675
  716MOL0     O96584   3.776   8.603   6.142 -0.7470  0.2859 -0.0099
  716MOL0     C96585   3.899   8.624   6.066 -0.1225 -0.7495  0.0034
  716MOL0     C96586   3.966   8.489   6.026  0.9321 -1.2504 -0.3267
  716MOL0     C96587   4.090   8.490   5.935  0.2056  0.1869 -0.0917
  716MOL0     C96588   4.053   8.556   5.793 -0.0407  0.1078  0.9445
  716MOL0     C96589   3.955   8.473   5.724 -1.3878 -0.3140  0.5508
  716MOL0     C96590   3.878   8.409   5.662  0.5656  0.5558  0.6841
  716MOL0     C96591   3.548   8.550   6.142 -0.3835 -0.0185  0.1928
  716MOL0     C96592   3.423   8.527   6.076 -0.9363  0.4236 -0.0525
  716MOL0     H96593   3.028   8.289   6.078 -2.9597 -0.4366  1.3258
  716MOL0     H96594   2.804   8.206   6.019 -1.9019  0.7734 -1.0297
  716MOL0     H96595   2.574   8.424   5.739 -0.6364 -0.6112  2.9998
  716MOL0     H96596   2.635   8.328   5.601  1.0011 -0.2744  0.7333
  716MOL0     H96597   2.470   8.150   5.671  2.1228  0.5330  1.1238
  716MOL0     H96598   2.428   8.247   5.810 -0.1543 -0.1976 -0.5650
  716MOL0     H96599   2.360   8.439   5.655  0.2642  1.2569 -2.0137
  716MOL0     H96600   2.409   8.328   5.517 -1.1078 -2.0738 -0.4766
  716MOL0     H96601   2.232   8.174   5.560 -1.3306  0.2735 -1.3147
  716MOL0     H96602   2.170   8.286   5.685 -1.3447 -0.1765 -0.3526
  716MOL0     H96603   2.185   8.465   5.503  0.5678  0.9863 -3.2339
  716MOL0     H96604   2.213   8.341   5.382 -1.1399  2.4888 -1.9571
  716MOL0     H96605   1.989   8.246   5.456  0.1351 -0.1057  0.3152
  716MOL0     H96606   1.962   8.393   5.556  0.4456  1.8675 -0.7296
  716MOL0     H96607   1.851   8.424   5.346 -0.6526  0.1344 -1.2289
  716MOL0     H96608   1.977   8.537   5.356  0.9162 -1.0370  1.0713
  716MOL0     H96609   2.040   8.279   5.202  0.0537  0.2443 -2.1060
  716MOL0     H96610   2.126   8.415   5.199  0.6427 -0.2328  2.4036
  716MOL0     H96611   1.817   8.254   5.055  1.7368 -0.5321  2.3604
  716MOL0     H96612   1.633   8.500   4.812 -0.7247  0.3867  0.4608
  716MOL0     H96613   1.645   8.328   4.839  0.8005 -0.9364  0.0991
  716MOL0     H96614   1.510   8.532   5.022 -2.6044 -1.0443  0.9507
  716MOL0     H96615   1.526   8.357   5.055 -1.0553  0.1806  0.4404
  716MOL0     H96616   1.383   8.309   4.853  1.9262 -1.1847  0.7020
  716MOL0     H96617   1.394   8.473   4.796  2.1770 -1.6352 -0.6877
  716MOL0     H96618   1.239   8.537   4.965 -1.9383  0.2486  0.1449
  716MOL0     H96619   1.277   8.401   5.068  2.5479  1.0221 -0.5807
  716MOL0     H96620   0.964   8.303   4.762  2.3472 -0.8856  1.0070
  716MOL0     H96621   0.608   8.400   4.760  0.2797  0.2429  1.1574
  716MOL0     H96622   0.750   8.346   4.685 -3.1123  1.1939 -1.7806
  716MOL0     H96623   0.656   8.226   4.781 -0.6379 -0.1889  2.6602
  716MOL0     H96624   0.609   8.350   5.420  0.5407  0.8536 -3.0861
  716MOL0     H96625   0.389   8.281   5.562 -0.5616  2.7893  1.8792
  716MOL0     H96626   0.091   8.547   5.527  0.1065  0.2852 -1.3157
  716MOL0     H96627  -0.004   8.462   5.418  0.6986  0.8318 -1.1749
  716MOL0     H96628  -0.126   8.488   5.627 -1.0176 -1.4183  0.0452
  716MOL0     H96629  -0.088   8.314   5.608  3.4349 -0.8171 -0.0765
  716MOL0     H96630   0.061   8.484   5.784 -1.4862  1.2976 -0.0579
  716MOL0     H96631   0.082   8.304   5.766  1.5074  1.2901 -0.3390
  716MOL0     H96632  -0.152   8.464   5.879  1.5692  0.4696  0.1301
  716MOL0     H96633  -0.178   8.300   5.827  1.6771 -1.4422 -2.1908
  716MOL0     H96634   0.042   8.385   6.037 -0.7977  3.5095  0.7022
  716MOL0     H96635  -0.029   8.228   6.005 -1.3609  0.5424  1.1071
  716MOL0     H96636  -0.258   8.303   6.059  0.3167 -1.4455  0.5638
  716MOL0     H96637  -0.134   8.277   6.185  0.0862  2.9678  2.5944
  716MOL0     H96638  -0.183   8.559   6.092  0.4835  0.3496  0.3438
  716MOL0     H96639  -0.094   8.494   6.228 -1.1394  5.5133 -0.8826
  716MOL0     H96640  -0.398   8.451   6.195  0.7169  0.9264 -1.5912
  716MOL0     H96641  -0.325   8.579   6.303 -2.1771 -0.2373 -0.1339
  716MOL0     H96642   0.161   8.495   5.277  1.0115  1.3930  1.7058
  716MOL0     H96643   0.349   8.526   5.144  0.0631  1.5768  1.2995
  716MOL0     H96644   0.852   8.470   5.214  0.9574  1.6724 -0.5055
  716MOL0     H96645   1.063   8.455   5.143  0.0630 -1.9230  0.4947
  716MOL0     H96646   2.819   8.427   5.648 -0.7067 -2.7798 -0.8231
  716MOL0     H96647   3.057   8.503   5.711  0.1129 -0.2541 -0.2952
  716MOL0     H96648   3.551   8.416   5.779 -0.4421  0.4412 -0.8582
  716MOL0     H96649   3.740   8.516   5.870 -1.2217  1.0404 -1.1874
  716MOL0     H96650   3.879   8.686   5.978 -0.2629 -2.6788 -1.3957
  716MOL0     H96651   3.967   8.695   6.113 -1.9651  1.5741 -0.6079
  716MOL0     H96652   3.893   8.411   6.003 -0.6199 -0.0019  0.1905
  716MOL0     H96653   3.999   8.452   6.124 -1.2912  0.2780  1.0908
  716MOL0     H96654   4.124   8.388   5.916  2.6095  0.8467  0.3533
  716MOL0     H96655   4.168   8.551   5.981  0.4843  2.4373 -3.2149
  716MOL0     H96656   4.137   8.551   5.725 -1.0025  0.8096 -0.3447
  716MOL0     H96657   4.016   8.658   5.812 -2.1896 -0.8135  2.1272
  716MOL0     H96658   3.798   8.353   5.618  0.7916  0.0196  0.9479
  716MOL0     H96659   3.543   8.577   6.247 -1.6924 -1.6512  0.5982
  716MOL0     H96660   3.342   8.529   6.149  0.2663  1.5287  1.3005
  717MOL0     O96661   8.892  10.611   7.320  0.6911  0.0798  0.0505
  717MOL0     C96662   8.954  10.627   7.219  0.3885  0.7391 -0.0807
  717MOL0     O96663   8.899  10.663   7.097 -0.1621 -0.0488 -0.0247
  717MOL0     C96664   8.758  10.666   7.084 -0.0240 -0.5954  0.2429
  717MOL0     C96665   8.679  10.563   7.124  0.2652 -0.2200  0.1980
  717MOL0     C96666   8.538  10.575   7.109 -0.1847 -0.1633 -0.4173
  717MOL0     C96667   8.485  10.686   7.046 -0.0217 -0.1330  0.5864
  717MOL0     O96668   8.347  10.688   7.035 -0.3495  0.4011  0.0833
  717MOL0     C96669   8.277  10.684   6.910  0.6493 -0.2876 -0.1731
  717MOL0     C96670   8.325  10.559   6.830 -0.9724 -0.1827 -0.0320
  717MOL0     C96671   8.279  10.425   6.876  1.0542  0.5325 -0.3940
  717MOL0     C96672   8.129  10.399   6.860  1.6215  0.1268 -0.5802
  717MOL0     C96673   8.099  10.253   6.850 -0.7394  0.3267 -0.1463
  717MOL0     C96674   8.131  10.167   6.972  0.0802  0.4288 -0.3168
  717MOL0     C96675   8.101  10.016   6.963 -0.2976  1.5616 -0.0449
  717MOL0     C96676   7.954   9.975   6.981 -0.1563 -0.3458  0.3620
  717MOL0     N96677   7.906   9.952   7.120  0.3732  0.3510 -0.6071
  717MOL0     C96678   7.850  10.052   7.205 -0.1374 -0.8581  0.8315
  717MOL0     C96679   7.855   9.994   7.332 -0.0481 -0.0430 -0.0907
  717MOL0     C96680   7.803  10.062   7.458  0.0409  0.1923  0.2322
  717MOL0     C96681   7.652  10.099   7.447 -0.6386 -0.3377  0.3879
  717MOL0     C96682   7.549   9.976   7.447  0.2194 -0.3317  0.5370
  717MOL0     C96683   7.406  10.031   7.462  0.1889  0.2783  0.0382
  717MOL0     O96684   7.301   9.956   7.402  0.0156  0.8464 -0.0718
  717MOL0     C96685   7.174  10.014   7.409 -0.2811 -0.1629 -0.2137
  717MOL0     C96686   7.077   9.942   7.332  0.1758 -0.3894  0.0847
  717MOL0     C96687   6.940   9.977   7.341  0.3005  0.2965  0.1305
  717MOL0     C96688   6.856   9.902   7.244  0.0301 -0.7116 -0.8808
  717MOL0     C96689   6.898  10.072   7.428  0.4300 -0.7011 -0.2422
  717MOL0     C96690   6.753  10.111   7.443 -0.2278 -0.3035  0.4428
  717MOL0     O96691   6.718  10.184   7.553  0.5615  0.4075  0.1741
  717MOL0     C96692   6.592  10.206   7.580  0.0971  0.8386 -0.5170
  717MOL0     C96693   6.513  10.091   7.582  0.2063  0.4110  1.6004
  717MOL0     C96694   6.379  10.108   7.609 -0.3013  0.3987 -1.2248
  717MOL0     C96695   6.329  10.235   7.637  0.0381  0.4782 -0.3728
  717MOL0     O96696   6.197  10.267   7.652  0.5821  0.1278 -0.3142
  717MOL0     C96697   6.087  10.178   7.615 -0.7869 -0.0424 -0.2311
  717MOL0     C96698   5.957  10.260   7.614 -0.5068 -0.6561 -0.7743
  717MOL0     C96699   5.832  10.179   7.579  0.3506 -1.1927 -0.4082
  717MOL0     C96700   5.711  10.270   7.572  0.3600 -0.2777 -0.7341
  717MOL0     C96701   5.586  10.192   7.528 -0.0219  0.1613 -0.4111
  717MOL0     C96702   5.460  10.274   7.517 -0.2874  0.4609  0.4851
  717MOL0     C96703   5.338  10.185   7.471 -0.0212 -0.6442 -0.6680
  717MOL0     C96704   5.223  10.278   7.440  1.3363  0.4340 -0.4901
  717MOL0    Cl96705   5.170  10.362   7.587  0.2341  0.0315  0.0544
  717MOL0     C96706   6.414  10.346   7.648  0.5817 -0.0124  0.2274
  717MOL0     C96707   6.541  10.329   7.609  0.1415 -0.2049  1.0306
  717MOL0     O96708   6.679  10.087   7.354 -0.7554 -0.1633  0.4228
  717MOL0     C96709   6.989  10.134   7.511  0.1572  0.1404 -0.8665
  717MOL0     C96710   7.126  10.112   7.497  0.2898  0.5174 -1.1272
  717MOL0     N96711   7.889   9.858   7.319  0.7718 -0.5591  0.2398
  717MOL0     N96712   7.934   9.842   7.199  0.2999 -0.0181  0.5084
  717MOL0     C96713   8.562  10.788   7.006  0.5437 -0.4409 -0.1172
  717MOL0     C96714   8.704  10.775   7.021  0.4661  0.0373 -0.4968
  717MOL0     C96715   9.095  10.600   7.214 -0.6402 -0.6583  1.2229
  717MOL0     C96716   9.169  10.649   7.107 -0.2198 -0.3992 -0.1527
  717MOL0     C96717   9.300  10.598   7.085 -0.4876 -0.2281  0.0357
  717MOL0     C96718   9.355  10.497   7.167 -0.8142 -0.4821 -0.1464
  717MOL0     O96719   9.475  10.429   7.147  0.5328 -0.5237 -0.3854
  717MOL0     C96720   9.558  10.464   7.037 -0.6053  0.2280 -0.8706
  717MOL0     C96721   9.648  10.580   7.076 -0.0171  0.1696 -0.8330
  717MOL0     C96722   9.793  10.560   7.042  1.1230 -0.5654 -0.7809
  717MOL0     C96723   9.870  10.685   7.043 -0.4668 -0.1590 -0.0262
  717MOL0     C96724   9.836  10.778   6.938  0.0632 -0.2354 -0.3790
  717MOL0     C96725   9.808  10.854   6.848  0.3598 -0.1926 -0.3672
  717MOL0     C96726   9.282  10.464   7.284  0.1024 -0.7729 -0.3592
  717MOL0     C96727   9.160  10.514   7.303  0.6439  0.0353 -0.7539
  717MOL0     H96728   8.716  10.471   7.168  1.8246  1.0153  1.5744
  717MOL0     H96729   8.470  10.493   7.129  1.2042 -1.1568  0.3948
  717MOL0     H96730   8.171  10.676   6.936  1.4131 -0.0057  3.6228
  717MOL0     H96731   8.281  10.774   6.849 -2.0112  0.5072  0.6703
  717MOL0     H96732   8.280  10.569   6.731 -3.3940  0.5213  1.0494
  717MOL0     H96733   8.434  10.555   6.821 -0.9605  1.6583 -1.1037
  717MOL0     H96734   8.331  10.343   6.826 -0.3827 -1.9761  1.9019
  717MOL0     H96735   8.302  10.409   6.982 -1.5602 -0.8413  0.0664
  717MOL0     H96736   8.075  10.437   6.947  0.0179 -0.3695 -1.3088
  717MOL0     H96737   8.086  10.441   6.768  1.4250  0.3623 -0.3824
  717MOL0     H96738   7.996  10.249   6.812  0.2941  0.8117 -3.2441
  717MOL0     H96739   8.162  10.222   6.767 -1.6393  2.4167 -1.6783
  717MOL0     H96740   8.237  10.181   6.996  0.4526 -0.4385 -1.3420
  717MOL0     H96741   8.070  10.209   7.052 -0.6030  1.9025 -1.5618
  717MOL0     H96742   8.137   9.981   6.866  4.0017  3.8559  0.4750
  717MOL0     H96743   8.159   9.960   7.036  1.1372  1.2205 -1.3940
  717MOL0     H96744   7.923   9.888   6.923  0.2324 -0.9111  0.9817
  717MOL0     H96745   7.900  10.061   6.941  0.9350  0.7722  1.2002
  717MOL0     H96746   7.813  10.153   7.192 -2.3238 -1.8044 -0.9467
  717MOL0     H96747   7.827   9.999   7.544 -2.0516 -0.3565  0.4838
  717MOL0     H96748   7.873  10.143   7.480 -0.7414  1.0229 -0.2742
  717MOL0     H96749   7.619  10.158   7.361 -0.4538  0.8394  1.0982
  717MOL0     H96750   7.632  10.161   7.535  0.8582  1.5149 -0.5047
  717MOL0     H96751   7.573   9.894   7.515 -3.4140 -1.0934  1.0949
  717MOL0     H96752   7.549   9.936   7.345 -1.6327  1.6366 -0.3293
  717MOL0     H96753   7.397  10.125   7.407  2.7167  0.1264 -0.7682
  717MOL0     H96754   7.397  10.046   7.570  3.5427  0.3022  0.4130
  717MOL0     H96755   7.114   9.860   7.272  3.2282  0.8060  0.1490
  717MOL0     H96756   6.760   9.877   7.290  0.3869 -0.3080  0.0994
  717MOL0     H96757   6.827   9.978   7.172 -0.6609  1.3627  1.4517
  717MOL0     H96758   6.905   9.820   7.190  0.2544 -1.6027  0.6242
  717MOL0     H96759   6.546   9.990   7.563 -0.0115  0.5407  0.4687
  717MOL0     H96760   6.311  10.024   7.598  0.4933 -0.3582 -0.6108
  717MOL0     H96761   6.100  10.146   7.511 -0.5635 -2.3311  0.4513
  717MOL0     H96762   6.082  10.093   7.684  4.3042 -0.0555  0.5035
  717MOL0     H96763   5.953  10.305   7.714  1.3281  0.3505 -1.1272
  717MOL0     H96764   5.968  10.344   7.547 -0.2265  0.1395  0.2420
  717MOL0     H96765   5.825  10.088   7.639  0.9748 -0.1768  1.2866
  717MOL0     H96766   5.854  10.143   7.478  0.1102  0.9086 -1.2595
  717MOL0     H96767   5.687  10.322   7.665 -0.2004  0.2415 -1.1640
  717MOL0     H96768   5.738  10.344   7.496 -0.6631  0.8359 -0.0528
  717MOL0     H96769   5.563  10.109   7.596 -0.8659  1.1159  0.4895
  717MOL0     H96770   5.601  10.146   7.430 -2.1836 -1.5981  0.0018
  717MOL0     H96771   5.433  10.319   7.613 -2.9448 -2.1927  1.1657
  717MOL0     H96772   5.473  10.354   7.443 -1.5180  0.9612  0.7844
  717MOL0     H96773   5.311  10.126   7.559 -2.5559  2.3837  0.8077
  717MOL0     H96774   5.364  10.119   7.388  0.6623  2.6553 -3.3271
  717MOL0     H96775   5.144  10.208   7.410 -0.2354  2.4546 -1.2568
  717MOL0     H96776   5.240  10.350   7.359  1.1114  0.5447 -0.4399
  717MOL0     H96777   6.388  10.445   7.685  2.1370  0.0736  1.1701
  717MOL0     H96778   6.612  10.411   7.612  1.0850 -0.6409 -3.3109
  717MOL0     H96779   6.967  10.209   7.586  0.1504 -0.2137 -0.5036
  717MOL0     H96780   7.197  10.159   7.565  1.3289 -0.6788 -1.3357
  717MOL0     H96781   8.525  10.879   6.960  3.1083  0.0439 -1.4095
  717MOL0     H96782   8.769  10.854   6.987 -2.4609  2.5678 -0.6992
  717MOL0     H96783   9.136  10.718   7.030 -2.6683 -1.5071 -0.1932
  717MOL0     H96784   9.354  10.633   6.997  0.0691 -1.6433 -0.2107
  717MOL0     H96785   9.619  10.376   7.014 -1.0580  0.6705 -4.2794
  717MOL0     H96786   9.511  10.489   6.942 -1.1375  2.3038 -0.1370
  717MOL0     H96787   9.649  10.594   7.185  1.3958  0.7382 -0.8953
  717MOL0     H96788   9.601  10.672   7.038  2.1736  2.1195  0.8449
  717MOL0     H96789   9.783  10.503   6.949 -1.1944 -0.8187 -0.4367
  717MOL0     H96790   9.836  10.487   7.112  0.0584  0.0571  0.5490
  717MOL0     H96791   9.975  10.657   7.033 -0.0138 -0.6220  4.1469
  717MOL0     H96792   9.874  10.741   7.137  3.0784 -0.9880  0.4410
  717MOL0     H96793   9.774  10.923   6.774  3.9683 -0.3881 -2.4433
  717MOL0     H96794   9.331  10.392   7.348  1.7132 -1.0181 -1.7828
  717MOL0     H96795   9.113  10.483   7.396  0.2287  3.0496  0.1544
  718MOL0     O96796   1.206   4.288   2.210 -0.3295  0.0071 -0.3955
  718MOL0     C96797   1.284   4.278   2.301 -0.3143 -0.1107 -0.4537
  718MOL0     O96798   1.253   4.223   2.421 -0.7781 -0.7705 -0.8327
  718MOL0     C96799   1.131   4.175   2.434  0.0422  0.1867 -0.4648
  718MOL0     C96800   1.030   4.260   2.491 -0.6059 -0.7433 -0.2431
  718MOL0     C96801   0.899   4.217   2.521  0.0165 -0.6295 -1.2062
  718MOL0     C96802   0.874   4.084   2.496 -0.3162  0.2529  0.1654
  718MOL0     O96803   0.742   4.051   2.520  0.6569 -0.4093  0.1525
  718MOL0     C96804   0.684   3.949   2.442  0.4211  0.7575 -0.4465
  718MOL0     C96805   0.533   3.964   2.473  0.8617 -0.3691 -0.1883
  718MOL0     C96806   0.436   3.865   2.397 -0.2339  0.8304  1.0252
  718MOL0     C96807   0.309   3.932   2.360  0.3639 -0.1735 -1.0854
  718MOL0     C96808   0.210   3.832   2.315  0.8678  0.3599  0.1132
  718MOL0     C96809   0.144   3.753   2.428  0.2699  0.3786 -0.1138
  718MOL0     C96810   0.045   3.640   2.383 -0.0591  0.5517 -0.2213
  718MOL0     C96811  -0.100   3.680   2.388  0.7306  0.8595 -0.2836
  718MOL0     N96812  -0.192   3.586   2.319 -0.6079  0.0968  0.3441
  718MOL0     C96813  -0.201   3.458   2.364 -0.3509 -0.5532 -0.5074
  718MOL0     C96814  -0.259   3.396   2.262 -0.0746  0.0537 -0.9274
  718MOL0     C96815  -0.291   3.250   2.268 -0.3405 -0.4280 -0.2004
  718MOL0     C96816  -0.427   3.230   2.212  0.6929 -0.3473 -0.1166
  718MOL0     C96817  -0.484   3.084   2.244 -0.9413 -0.8457  0.0260
  718MOL0     C96818  -0.603   3.048   2.168 -0.5717 -0.2947 -0.5765
  718MOL0     O96819  -0.711   3.129   2.196 -0.3672 -0.3294 -0.1798
  718MOL0     C96820  -0.843   3.076   2.169 -0.9694 -0.3654  0.3260
  718MOL0     C96821  -0.942   3.163   2.210 -0.0222  0.0224  1.1875
  718MOL0     C96822  -1.072   3.142   2.166 -0.4462 -0.2862 -0.8538
  718MOL0     C96823  -1.177   3.254   2.205  0.4612 -0.4307  0.0970
  718MOL0     C96824  -1.113   3.021   2.105  0.0114  0.0675  0.1634
  718MOL0     C96825  -1.245   2.969   2.070 -0.6521  0.7257  0.6525
  718MOL0     O96826  -1.265   2.899   1.948 -0.0020  0.3572 -0.0541
  718MOL0     C96827  -1.389   2.849   1.927 -1.2904 -0.5117  0.4490
  718MOL0     C96828  -1.407   2.712   1.937 -0.0319  0.0595  0.3171
  718MOL0     C96829  -1.543   2.666   1.931  0.4079 -0.7757 -0.5528
  718MOL0     C96830  -1.653   2.761   1.935 -0.8504  0.8800  0.2927
  718MOL0     O96831  -1.779   2.711   1.928 -0.6650 -0.0951 -0.5087
  718MOL0     C96832  -1.877   2.763   2.025 -0.1829 -0.3392 -0.2387
  718MOL0     C96833  -1.830   2.773   2.174  0.0988  0.1183  0.3128
  718MOL0     C96834  -1.946   2.830   2.255  0.4211 -0.2397 -0.6476
  718MOL0     C96835  -1.973   2.978   2.245  0.4446  0.2761 -0.7391
  718MOL0     C96836  -2.122   3.001   2.306  0.2918  0.7466 -0.4196
  718MOL0     C96837  -2.179   3.140   2.285 -0.1095  0.4061 -0.0487
  718MOL0     C96838  -2.097   3.238   2.356  0.5226  0.4097 -0.9048
  718MOL0     C96839  -2.161   3.376   2.368  0.3011  0.4477  0.0438
  718MOL0    Cl96840  -2.171   3.453   2.205 -0.4064 -0.1821 -0.4158
  718MOL0     C96841  -1.624   2.892   1.922  0.2744  0.2147  0.5648
  718MOL0     C96842  -1.495   2.941   1.910 -0.1760 -0.2102  0.2511
  718MOL0     O96843  -1.338   2.993   2.151 -0.0951  0.7229 -0.5051
  718MOL0     C96844  -1.006   2.923   2.072  0.6110 -0.6691  0.1710
  718MOL0     C96845  -0.871   2.957   2.099 -0.0708 -0.1148  0.9037
  718MOL0     N96846  -0.301   3.484   2.161 -0.3882  0.3527  0.4491
  718MOL0     N96847  -0.254   3.598   2.197  0.5984 -0.5610 -0.0598
  718MOL0     C96848   0.978   3.993   2.450 -0.5344  0.1353 -0.0729
  718MOL0     C96849   1.105   4.041   2.415  0.4617  0.1337 -0.1657
  718MOL0     C96850   1.420   4.330   2.289  0.1068  0.3171  0.1692
  718MOL0     C96851   1.461   4.380   2.158  0.1668  0.5624  0.3153
  718MOL0     C96852   1.595   4.411   2.137  0.5957 -0.8602  0.0198
  718MOL0     C96853   1.683   4.418   2.239 -0.2448 -1.0855 -0.6379
  718MOL0     O96854   1.814   4.456   2.227  0.0418  0.3753 -0.5887
  718MOL0     C96855   1.871   4.539   2.123  0.3795  0.2710  0.3135
  718MOL0     C96856   1.924   4.457   2.007 -0.1096  0.7438 -0.5185
  718MOL0     C96857   2.025   4.347   2.039 -0.3195 -0.4996  0.0478
  718MOL0     C96858   2.149   4.394   2.112 -0.6494  0.1658 -0.1802
  718MOL0     C96859   2.250   4.290   2.097 -0.0547 -0.0289  0.2284
  718MOL0     C96860   2.339   4.213   2.095 -0.2508 -0.0484 -0.1485
  718MOL0     C96861   1.636   4.380   2.371 -0.3107 -0.5372 -0.1909
  718MOL0     C96862   1.506   4.335   2.390 -0.1041 -0.0124 -0.6109
  718MOL0     H96863   1.047   4.364   2.517  1.3790 -1.6055  2.3600
  718MOL0     H96864   0.820   4.282   2.558 -0.3942 -0.6661 -2.0004
  718MOL0     H96865   0.708   3.962   2.337  0.5509 -0.2735 -0.5564
  718MOL0     H96866   0.726   3.853   2.473 -1.2525  0.3709  0.7856
  718MOL0     H96867   0.510   3.943   2.578  0.4938 -0.6842 -0.3272
  718MOL0     H96868   0.512   4.067   2.444  1.1713 -0.5776 -1.1877
  718MOL0     H96869   0.484   3.824   2.307  0.2637 -0.5315  1.8756
  718MOL0     H96870   0.422   3.782   2.466 -2.6526 -0.3585 -0.7299
  718MOL0     H96871   0.274   3.996   2.442  4.7503 -0.6657  1.4785
  718MOL0     H96872   0.329   4.015   2.293 -0.7942  0.6655 -0.4213
  718MOL0     H96873   0.126   3.883   2.268 -0.7092 -2.2870 -0.1108
  718MOL0     H96874   0.255   3.761   2.244  0.3367  2.0172 -1.9614
  718MOL0     H96875   0.217   3.692   2.484  1.0910  1.3605 -0.0966
  718MOL0     H96876   0.092   3.822   2.495  1.7001  0.2643  1.1844
  718MOL0     H96877   0.059   3.620   2.277 -0.7063  3.7958 -1.0413
  718MOL0     H96878   0.063   3.553   2.447 -1.6708 -1.1734 -1.9960
  718MOL0     H96879  -0.112   3.778   2.340 -2.9239 -0.3644 -2.2900
  718MOL0     H96880  -0.128   3.679   2.494  1.5985 -1.5837 -0.0013
  718MOL0     H96881  -0.157   3.418   2.455 -0.0021  0.1278 -0.3622
  718MOL0     H96882  -0.220   3.191   2.209 -0.0311 -0.6933  0.4367
  718MOL0     H96883  -0.286   3.212   2.371  1.9079 -0.5592 -0.3192
  718MOL0     H96884  -0.409   3.236   2.104  4.0537 -0.7581  0.3153
  718MOL0     H96885  -0.498   3.307   2.243  0.3627 -0.2490 -1.0816
  718MOL0     H96886  -0.498   3.077   2.352  2.7183  1.4924  0.8596
  718MOL0     H96887  -0.412   3.007   2.217 -1.3183 -2.1009  2.3276
  718MOL0     H96888  -0.628   2.942   2.177 -0.4668 -0.3126 -0.4903
  718MOL0     H96889  -0.575   3.067   2.063  0.7354 -1.8870 -0.5616
  718MOL0     H96890  -0.928   3.240   2.285  1.2923 -1.8340  2.9562
  718MOL0     H96891  -1.205   3.247   2.311 -1.8679  0.1375 -0.4100
  718MOL0     H96892  -1.135   3.353   2.184 -0.2173 -0.0894  0.2860
  718MOL0     H96893  -1.265   3.242   2.141  1.2799 -0.4563 -1.0467
  718MOL0     H96894  -1.324   2.643   1.955  2.9297  3.3482  0.3783
  718MOL0     H96895  -1.575   2.563   1.945 -1.6788 -0.0108  0.7987
  718MOL0     H96896  -1.899   2.865   1.992 -1.3635 -0.5788 -0.2235
  718MOL0     H96897  -1.968   2.703   2.025 -0.8687  0.6593  0.3774
  718MOL0     H96898  -1.813   2.672   2.213 -0.6465 -0.4477 -0.7802
  718MOL0     H96899  -1.740   2.834   2.189 -1.4564  2.6913 -0.2441
  718MOL0     H96900  -1.918   2.816   2.360  1.6561  0.6072 -0.8556
  718MOL0     H96901  -2.026   2.761   2.226  1.9522 -1.3163 -2.4945
  718MOL0     H96902  -1.901   3.043   2.294  0.1589 -0.2170  0.3715
  718MOL0     H96903  -1.984   3.001   2.139 -0.2744  1.8876 -0.3393
  718MOL0     H96904  -2.124   2.976   2.413  0.3430 -1.5082 -0.8806
  718MOL0     H96905  -2.189   2.930   2.256 -0.0467  0.4096  0.4704
  718MOL0     H96906  -2.179   3.160   2.178  0.5091  1.4286  0.1261
  718MOL0     H96907  -2.282   3.138   2.322 -0.3280  1.0114 -0.6182
  718MOL0     H96908  -2.000   3.251   2.308  1.4232  0.1852  0.7713
  718MOL0     H96909  -2.079   3.204   2.459 -3.0249  2.3830  0.5512
  718MOL0     H96910  -2.098   3.449   2.420 -1.2706  2.6259 -0.9383
  718MOL0     H96911  -2.261   3.366   2.413  0.6632 -2.2279  0.3734
  718MOL0     H96912  -1.712   2.955   1.933 -0.5525 -0.4731 -1.5110
  718MOL0     H96913  -1.464   3.045   1.907  2.1019 -0.8456 -1.4527
  718MOL0     H96914  -1.031   2.830   2.021  2.4143 -1.0174 -0.1480
  718MOL0     H96915  -0.789   2.893   2.068 -0.8993 -0.2767 -1.1142
  718MOL0     H96916   0.956   3.888   2.432  2.3100 -0.3763 -1.0075
  718MOL0     H96917   1.165   3.959   2.378  1.2179  1.2566 -1.5205
  718MOL0     H96918   1.385   4.373   2.080  0.1451  1.5898  0.2362
  718MOL0     H96919   1.626   4.431   2.035 -1.8484 -0.4803 -0.7135
  718MOL0     H96920   1.797   4.607   2.078  0.8445 -0.1587 -1.1598
  718MOL0     H96921   1.947   4.602   2.169 -0.1105 -0.4221  2.1464
  718MOL0     H96922   1.971   4.525   1.936  1.8507 -0.1402 -0.1362
  718MOL0     H96923   1.840   4.416   1.950  1.4045 -1.4434 -1.2929
  718MOL0     H96924   2.056   4.303   1.943 -1.8077 -0.7517 -0.3485
  718MOL0     H96925   1.969   4.274   2.098 -0.1799 -4.0034 -3.6651
  718MOL0     H96926   2.121   4.434   2.210 -1.2563 -0.2185 -0.1853
  718MOL0     H96927   2.188   4.486   2.070  1.6713 -1.0017 -0.7463
  718MOL0     H96928   2.415   4.138   2.094  0.2229  0.1284  4.1989
  718MOL0     H96929   1.705   4.368   2.454  0.8357  1.2299 -0.8202
  718MOL0     H96930   1.466   4.313   2.488  0.1742 -0.4781 -0.5982
  719MOL0     O96931   2.462   2.062   1.255  0.2179 -0.4888 -0.3678
  719MOL0     C96932   2.452   2.178   1.294 -0.0132 -0.5843  0.0315
  719MOL0     O96933   2.338   2.248   1.315 -0.8955  0.5142  0.2212
  719MOL0     C96934   2.208   2.189   1.323 -1.0217 -0.4682 -0.0921
  719MOL0     C96935   2.186   2.068   1.369  0.3990  0.2565 -0.0892
  719MOL0     C96936   2.057   2.013   1.370 -0.7274  1.0986 -0.6217
  719MOL0     C96937   1.953   2.075   1.317 -0.3231  0.3074 -0.0290
  719MOL0     O96938   1.828   2.011   1.314  0.3690 -0.7001  0.8031
  719MOL0     C96939   1.731   2.060   1.216 -0.7957  0.8950 -0.1690
  719MOL0     C96940   1.638   1.944   1.185 -0.8317  0.0800  0.6704
  719MOL0     C96941   1.548   1.882   1.305  0.0465 -0.4720 -0.2141
  719MOL0     C96942   1.443   1.778   1.254 -0.9929 -0.4605 -0.0884
  719MOL0     C96943   1.385   1.730   1.383 -0.0616 -0.1689 -0.3618
  719MOL0     C96944   1.297   1.610   1.364  0.5842  0.5604  0.0938
  719MOL0     C96945   1.170   1.635   1.290 -0.7455  0.9927 -0.3393
  719MOL0     C96946   1.046   1.552   1.322 -0.2662  0.8707  1.4146
  719MOL0     N96947   0.935   1.588   1.231 -0.3046  0.0145  0.9134
  719MOL0     C96948   0.829   1.510   1.207  1.2861 -0.4543 -0.1453
  719MOL0     C96949   0.727   1.589   1.170  0.3876 -0.0735  0.0907
  719MOL0     C96950   0.592   1.546   1.113 -1.0727 -0.1393  0.3834
  719MOL0     C96951   0.529   1.650   1.032  0.4783 -0.5540  0.8200
  719MOL0     C96952   0.607   1.674   0.900  0.3870  0.0057 -0.1176
  719MOL0     C96953   0.517   1.750   0.807  0.2890  0.0536  0.5790
  719MOL0     O96954   0.418   1.656   0.771  0.0994  0.3937  0.8580
  719MOL0     C96955   0.297   1.710   0.722  0.9662  0.6084 -0.3192
  719MOL0     C96956   0.283   1.833   0.665 -0.2365 -0.5828 -0.2008
  719MOL0     C96957   0.176   1.887   0.603  1.0524  1.1297 -0.6162
  719MOL0     C96958   0.186   2.022   0.537 -0.7412  0.0761  0.1224
  719MOL0     C96959   0.060   1.801   0.607  0.7848 -0.6132 -0.6034
  719MOL0     C96960  -0.067   1.824   0.527  0.0921  0.1811  0.0910
  719MOL0     O96961  -0.177   1.748   0.569  0.0769  0.6660  0.4006
  719MOL0     C96962  -0.294   1.753   0.498 -0.1110 -0.3086  1.1445
  719MOL0     C96963  -0.310   1.690   0.371 -0.3855 -1.5034 -0.3508
  719MOL0     C96964  -0.429   1.695   0.309  0.6152 -0.0726  0.6246
  719MOL0     C96965  -0.534   1.778   0.351  0.0990 -0.3171  0.1533
  719MOL0     O96966  -0.636   1.788   0.257 -0.3815 -0.2310 -0.4900
  719MOL0     C96967  -0.690   1.921   0.250 -1.0852  0.2215  0.4930
  719MOL0     C96968  -0.799   1.903   0.147 -0.6694 -0.3572  0.0669
  719MOL0     C96969  -0.930   1.838   0.197 -1.1102  0.0482  0.1724
  719MOL0     C96970  -0.928   1.787   0.342 -0.1834 -0.1088 -0.3752
  719MOL0     C96971  -1.062   1.732   0.392 -0.5028 -0.1826 -0.6796
  719MOL0     C96972  -1.173   1.832   0.369 -0.3634 -0.3475  0.4724
  719MOL0     C96973  -1.299   1.767   0.417  0.2087 -0.3188 -0.2605
  719MOL0     C96974  -1.418   1.866   0.430  0.5050  0.1014 -1.1003
  719MOL0    Cl96975  -1.532   1.845   0.292 -0.1008  0.0937  0.1444
  719MOL0     C96976  -0.523   1.844   0.469 -0.7269 -0.4507  0.3563
  719MOL0     C96977  -0.405   1.832   0.544  0.4749  0.5967 -0.0100
  719MOL0     O96978  -0.065   1.887   0.424  0.3300 -0.3909 -0.1138
  719MOL0     C96979   0.063   1.670   0.673 -0.3357  0.1465  0.3521
  719MOL0     C96980   0.188   1.625   0.721 -0.4493 -0.1493  0.9682
  719MOL0     N96981   0.775   1.725   1.181 -0.7798  0.4921  0.4555
  719MOL0     N96982   0.896   1.720   1.219 -0.1830 -0.1529  0.0539
  719MOL0     C96983   1.970   2.217   1.288  0.1445 -0.6609 -0.0823
  719MOL0     C96984   2.100   2.272   1.285 -0.2390 -0.2888 -0.4027
  719MOL0     C96985   2.573   2.249   1.330 -0.4846  0.0332 -0.3643
  719MOL0     C96986   2.564   2.375   1.390  0.0871 -0.0822  0.4520
  719MOL0     C96987   2.683   2.432   1.439  0.5166  0.6964  0.1477
  719MOL0     C96988   2.808   2.378   1.430  0.6272  0.0538  0.2030
  719MOL0     O96989   2.906   2.453   1.476  0.1970 -0.3273 -0.0141
  719MOL0     C96990   3.038   2.408   1.449 -0.0083 -0.7707 -0.3715
  719MOL0     C96991   3.132   2.502   1.523 -1.2435 -0.5351  0.8061
  719MOL0     C96992   3.106   2.517   1.672 -0.1315  0.6356 -1.1859
  719MOL0     C96993   3.237   2.570   1.751 -0.2042  1.3085  0.2227
  719MOL0     C96994   3.359   2.490   1.730 -1.0049 -0.3909 -0.4566
  719MOL0     C96995   3.470   2.437   1.718 -0.5392 -0.0079  0.0075
  719MOL0     C96996   2.817   2.260   1.353  0.6241  0.3441  0.3057
  719MOL0     C96997   2.700   2.191   1.313  1.2147 -0.7767  0.4219
  719MOL0     H96998   2.267   2.005   1.404 -0.9073 -1.8321 -0.6098
  719MOL0     H96999   2.046   1.912   1.408  2.8558  0.4697 -0.8751
  719MOL0     H97000   1.670   2.147   1.240 -0.9626  1.2187 -1.6698
  719MOL0     H97001   1.793   2.087   1.130 -0.9759 -0.7492 -0.8479
  719MOL0     H97002   1.566   1.975   1.108 -0.6748  1.5162  1.0789
  719MOL0     H97003   1.700   1.865   1.141 -3.4241 -0.3999 -2.5135
  719MOL0     H97004   1.602   1.827   1.382 -1.3035  1.8041  2.5434
  719MOL0     H97005   1.501   1.962   1.363 -3.4693 -1.4902 -1.4204
  719MOL0     H97006   1.369   1.819   1.184 -1.1321 -1.2603 -0.4193
  719MOL0     H97007   1.493   1.690   1.214 -0.5332 -1.0771  1.7568
  719MOL0     H97008   1.464   1.694   1.450  0.0347 -0.2091 -0.4954
  719MOL0     H97009   1.335   1.807   1.442  0.5958  0.4576 -0.6031
  719MOL0     H97010   1.353   1.520   1.334 -2.2606 -1.8087  1.3976
  719MOL0     H97011   1.268   1.588   1.467  2.0826 -1.8237  0.0963
  719MOL0     H97012   1.149   1.739   1.317  4.6081  2.0214  1.2002
  719MOL0     H97013   1.191   1.643   1.183 -1.3373 -1.3575 -0.6852
  719MOL0     H97014   1.020   1.581   1.424 -2.1546  2.7509  0.4780
  719MOL0     H97015   1.071   1.446   1.308  0.9430  1.4262 -1.5790
  719MOL0     H97016   0.835   1.401   1.210  0.3750 -0.5456 -1.1878
  719MOL0     H97017   0.604   1.462   1.044 -0.6561  0.0172  0.2636
  719MOL0     H97018   0.528   1.508   1.194 -1.1193 -1.1855 -0.1231
  719MOL0     H97019   0.531   1.739   1.095  0.8146 -0.7333  1.0662
  719MOL0     H97020   0.427   1.619   1.009  0.0009  1.4449  0.0527
  719MOL0     H97021   0.648   1.584   0.854 -0.3546 -1.1066  1.3056
  719MOL0     H97022   0.697   1.731   0.927 -0.5514  1.7818 -0.5415
  719MOL0     H97023   0.567   1.797   0.722  1.6836 -0.3618  1.1361
  719MOL0     H97024   0.463   1.835   0.850 -2.0941 -0.6143 -0.8959
  719MOL0     H97025   0.375   1.890   0.666  1.3249 -2.9789 -0.6055
  719MOL0     H97026   0.174   2.007   0.429  2.3267 -0.7396 -0.1885
  719MOL0     H97027   0.122   2.104   0.572  0.8922  1.3657  0.1804
  719MOL0     H97028   0.290   2.054   0.536 -0.6178 -0.2985  0.6631
  719MOL0     H97029  -0.225   1.636   0.331 -0.5117 -1.3914 -0.7737
  719MOL0     H97030  -0.446   1.658   0.209  0.0751  1.5626  0.0849
  719MOL0     H97031  -0.722   1.954   0.349  0.3426 -3.3707  2.3687
  719MOL0     H97032  -0.608   1.988   0.223 -1.6687  0.9629  0.5382
  719MOL0     H97033  -0.827   2.003   0.113  1.0385  1.0263  2.4438
  719MOL0     H97034  -0.762   1.845   0.062 -2.1569  0.0997 -0.9317
  719MOL0     H97035  -0.958   1.760   0.126  3.0672 -2.6724  1.1313
  719MOL0     H97036  -1.006   1.916   0.197 -0.6287  0.5659 -1.3993
  719MOL0     H97037  -0.844   1.720   0.363  1.2251  0.0883 -4.4478
  719MOL0     H97038  -0.909   1.873   0.407  1.3990  0.9152 -2.0881
  719MOL0     H97039  -1.055   1.724   0.501 -1.6861  1.9457 -0.3980
  719MOL0     H97040  -1.074   1.638   0.337  0.3618 -0.8353  0.1937
  719MOL0     H97041  -1.151   1.926   0.421 -0.8944  0.6605 -1.0428
  719MOL0     H97042  -1.191   1.850   0.262  0.8309  0.8244  0.4369
  719MOL0     H97043  -1.279   1.721   0.514  0.8081 -0.4852 -0.4627
  719MOL0     H97044  -1.344   1.694   0.348 -3.2913  1.3520  0.0266
  719MOL0     H97045  -1.388   1.970   0.443  0.9112  0.1300 -2.1241
  719MOL0     H97046  -1.476   1.826   0.513  3.8881 -1.3711  0.7538
  719MOL0     H97047  -0.602   1.903   0.513  0.7147 -0.6687  3.5235
  719MOL0     H97048  -0.382   1.894   0.631 -2.5867  1.0387  0.6097
  719MOL0     H97049  -0.020   1.601   0.671  0.6403 -1.0563  0.0969
  719MOL0     H97050   0.202   1.525   0.761 -0.5701 -0.4642  0.2392
  719MOL0     H97051   1.887   2.274   1.248 -1.5999 -0.8660  2.9237
  719MOL0     H97052   2.112   2.370   1.240 -3.6238 -0.2269 -1.3817
  719MOL0     H97053   2.469   2.425   1.403 -1.4564 -3.0211  1.5242
  719MOL0     H97054   2.688   2.536   1.470 -0.3057  0.6777  0.3608
  719MOL0     H97055   3.054   2.305   1.483 -0.5456 -1.0731 -1.0146
  719MOL0     H97056   3.057   2.414   1.341  0.9902 -0.0678 -0.1719
  719MOL0     H97057   3.142   2.598   1.471 -1.4120 -1.8757 -1.8891
  719MOL0     H97058   3.230   2.458   1.507 -0.8013  0.4057  0.8309
  719MOL0     H97059   3.077   2.416   1.706 -0.4720  0.1978 -2.6899
  719MOL0     H97060   3.026   2.586   1.701 -1.3766 -0.7591 -1.1069
  719MOL0     H97061   3.213   2.578   1.858  1.0919  1.5716  0.5088
  719MOL0     H97062   3.247   2.672   1.711 -0.6213  0.1330 -3.1989
  719MOL0     H97063   3.566   2.390   1.714 -0.7735 -0.8066  2.1771
  719MOL0     H97064   2.918   2.222   1.336  0.5103 -0.5756  1.5369
  719MOL0     H97065   2.714   2.102   1.254  0.2975 -2.5947  2.7714
  720MOL0     O97066   6.681   2.493   9.377 -0.1269 -0.2609  0.5975
  720MOL0     C97067   6.743   2.558   9.461  0.5708 -1.1059 -0.7852
  720MOL0     O97068   6.700   2.667   9.529  0.2049 -0.2420  0.9622
  720MOL0     C97069   6.567   2.708   9.532  0.5055 -0.1613 -0.5787
  720MOL0     C97070   6.455   2.650   9.474 -0.0670  0.1500 -1.2966
  720MOL0     C97071   6.326   2.698   9.490  0.8367 -0.6973  0.0115
  720MOL0     C97072   6.301   2.816   9.555  0.7908  0.4920 -0.1118
  720MOL0     O97073   6.175   2.862   9.601 -0.0161  0.3569  0.1777
  720MOL0     C97074   6.061   2.798   9.543  0.3065  0.0554 -0.1590
  720MOL0     C97075   6.017   2.663   9.596 -0.1719 -0.9148 -0.2743
  720MOL0     C97076   5.900   2.615   9.513 -0.3098 -0.2494  0.3433
  720MOL0     C97077   5.830   2.498   9.575  0.3859  1.1381  0.4114
  720MOL0     C97078   5.737   2.420   9.471  0.0802  0.0003 -0.3714
  720MOL0     C97079   5.654   2.303   9.535  0.7919  0.3343  0.0392
  720MOL0     C97080   5.583   2.227   9.430  0.2469 -0.8594  0.4476
  720MOL0     C97081   5.510   2.091   9.470  0.3183 -0.5079  0.0528
  720MOL0     N97082   5.607   1.984   9.465  0.4944  0.4916  0.0516
  720MOL0     C97083   5.696   1.945   9.564  0.3356 -1.7238 -0.2005
  720MOL0     C97084   5.773   1.844   9.502 -0.4731 -0.2603 -0.6377
  720MOL0     C97085   5.864   1.773   9.597  0.0627 -0.1620 -0.1274
  720MOL0     C97086   6.000   1.725   9.521 -0.6240 -0.1637  0.6164
  720MOL0     C97087   5.983   1.595   9.442 -0.9868  0.3573  0.0025
  720MOL0     C97088   5.952   1.477   9.532  0.3309 -0.6532 -1.2178
  720MOL0     O97089   5.988   1.362   9.454  0.1932 -0.3020 -0.0601
  720MOL0     C97090   6.121   1.323   9.464  0.2404  0.2182  0.4453
  720MOL0     C97091   6.225   1.387   9.531 -0.5936  0.1354 -0.1865
  720MOL0     C97092   6.347   1.315   9.559 -0.6218 -0.4325  0.1804
  720MOL0     C97093   6.439   1.405   9.636  0.8149  0.2477 -0.7782
  720MOL0     C97094   6.369   1.187   9.517  0.8912 -0.1817 -1.0608
  720MOL0     C97095   6.490   1.094   9.547 -0.2485 -0.5923 -0.5088
  720MOL0     O97096   6.472   0.962   9.543  0.5602  0.0082 -0.0851
  720MOL0     C97097   6.571   0.876   9.575  0.3908 -0.4540  0.4319
  720MOL0     C97098   6.679   0.859   9.488 -1.0802 -0.1077  0.3878
  720MOL0     C97099   6.777   0.760   9.525  0.2675  0.0204 -0.3856
  720MOL0     C97100   6.772   0.688   9.646  0.9435 -0.1648  0.3217
  720MOL0     O97101   6.877   0.610   9.680  0.4459 -0.1879  0.2105
  720MOL0     C97102   6.928   0.636   9.812  0.1529  0.4547  0.5118
  720MOL0     C97103   7.021   0.752   9.831  0.8637 -0.2750  0.1822
  720MOL0     C97104   7.139   0.745   9.732  0.4445 -0.4241 -0.4884
  720MOL0     C97105   7.212   0.873   9.714  0.7871 -0.4707  0.5432
  720MOL0     C97106   7.363   0.847   9.722  0.5907 -0.1986 -0.0973
  720MOL0     C97107   7.437   0.864   9.589 -0.0615 -0.8154  0.9123
  720MOL0     C97108   7.588   0.834   9.595 -0.2990 -0.2183 -0.2468
  720MOL0     C97109   7.645   0.806   9.451 -0.4095 -0.5069  0.2114
  720MOL0    Cl97110   7.625   0.963   9.352  0.0919  0.0474  0.0666
  720MOL0     C97111   6.652   0.703   9.723  0.0806 -0.2278  0.6918
  720MOL0     C97112   6.551   0.790   9.683  0.3540 -0.4611 -0.2291
  720MOL0     O97113   6.580   1.150   9.604 -1.0568 -0.4457  0.3444
  720MOL0     C97114   6.265   1.126   9.441  0.0988  0.3548  0.1402
  720MOL0     C97115   6.147   1.198   9.413 -0.4797  0.1398  0.1914
  720MOL0     N97116   5.724   1.817   9.376 -0.2924 -0.1098  0.2636
  720MOL0     N97117   5.626   1.899   9.354 -0.6888  0.0978 -0.6393
  720MOL0     C97118   6.412   2.876   9.625  0.3679  1.3919  0.1076
  720MOL0     C97119   6.542   2.821   9.611  0.4760 -0.0999 -0.0003
  720MOL0     C97120   6.868   2.500   9.502 -0.3396  0.2836  0.0668
  720MOL0     C97121   6.948   2.441   9.407 -0.0584 -0.3933  0.3464
  720MOL0     C97122   7.061   2.374   9.440 -0.2706 -0.0735 -0.5884
  720MOL0     C97123   7.107   2.365   9.568  0.8657 -0.1696 -0.0231
  720MOL0     O97124   7.225   2.307   9.608  0.9919  0.1168  0.1060
  720MOL0     C97125   7.345   2.335   9.532 -0.0631  0.0176 -0.1116
  720MOL0     C97126   7.426   2.457   9.579 -1.0129  0.7243 -0.2066
  720MOL0     C97127   7.541   2.478   9.478  0.0762 -0.2909  0.1683
  720MOL0     C97128   7.651   2.570   9.529  0.0426 -0.1772  0.2463
  720MOL0     C97129   7.749   2.582   9.420  0.5519 -0.1669  0.4729
  720MOL0     C97130   7.843   2.610   9.342 -0.5344 -0.2056 -0.0468
  720MOL0     C97131   7.014   2.408   9.670  0.3811  0.6085  0.0446
  720MOL0     C97132   6.902   2.476   9.629  0.1891 -0.2810 -0.1016
  720MOL0     H97133   6.461   2.558   9.418  1.0257 -1.0889  0.7454
  720MOL0     H97134   6.251   2.631   9.449  0.4832 -0.9452  1.0485
  720MOL0     H97135   5.980   2.870   9.554 -0.1836 -0.0079 -2.7087
  720MOL0     H97136   6.068   2.786   9.435  2.0174  2.3009 -0.3648
  720MOL0     H97137   6.104   2.598   9.607  1.0481  0.6761 -0.1943
  720MOL0     H97138   5.980   2.667   9.698 -1.8681  1.7781 -0.8857
  720MOL0     H97139   5.833   2.698   9.488 -0.0411 -0.1638 -0.1144
  720MOL0     H97140   5.942   2.575   9.420  0.2984  2.5299 -0.6785
  720MOL0     H97141   5.897   2.415   9.599  1.9316  0.8644 -3.9626
  720MOL0     H97142   5.784   2.540   9.665  0.2586  1.2035  0.3149
  720MOL0     H97143   5.663   2.487   9.427 -2.0982 -2.3010 -0.4788
  720MOL0     H97144   5.801   2.383   9.391  0.9927  1.9423 -0.5905
  720MOL0     H97145   5.723   2.236   9.587 -0.6163  1.2727  3.3872
  720MOL0     H97146   5.577   2.337   9.605  1.7500 -0.2462  1.4325
  720MOL0     H97147   5.496   2.290   9.408 -2.5063 -4.0405  1.2937
  720MOL0     H97148   5.630   2.212   9.332 -1.7766 -1.4939 -0.4766
  720MOL0     H97149   5.429   2.072   9.399 -0.1712 -2.4255  1.0696
  720MOL0     H97150   5.480   2.103   9.574  1.9070  0.0095  0.4964
  720MOL0     H97151   5.698   1.983   9.666  0.9211 -0.8858 -0.5157
  720MOL0     H97152   5.895   1.840   9.678 -2.3764  0.7586  0.1187
  720MOL0     H97153   5.807   1.697   9.652  1.0489  0.1046  1.3457
  720MOL0     H97154   6.078   1.705   9.595 -0.2325 -1.8950 -0.1878
  720MOL0     H97155   6.041   1.799   9.452  4.9148 -1.8565  1.5725
  720MOL0     H97156   6.079   1.586   9.389  0.8412  1.7037  2.8247
  720MOL0     H97157   5.906   1.603   9.365 -0.4430  1.5577 -0.4470
  720MOL0     H97158   5.848   1.485   9.565  0.6376 -0.4831 -0.2607
  720MOL0     H97159   5.999   1.482   9.630  0.2743 -1.0148 -1.1730
  720MOL0     H97160   6.218   1.482   9.581  0.2206  0.2695 -0.3079
  720MOL0     H97161   6.409   1.510   9.638 -3.2304 -0.7662 -1.0328
  720MOL0     H97162   6.471   1.368   9.735  0.1299 -0.5575 -0.8500
  720MOL0     H97163   6.533   1.405   9.580 -0.7331  0.5665 -3.4870
  720MOL0     H97164   6.673   0.916   9.396 -0.0684 -2.3255 -1.1389
  720MOL0     H97165   6.863   0.733   9.466  0.2817  1.0246 -0.8413
  720MOL0     H97166   6.846   0.637   9.885  0.6776 -2.2091  1.2520
  720MOL0     H97167   6.990   0.550   9.839 -0.6040  0.0681  1.0979
  720MOL0     H97168   6.964   0.843   9.808  0.3533 -0.8223 -0.7608
  720MOL0     H97169   7.056   0.751   9.934 -0.7728  2.8029  0.9153
  720MOL0     H97170   7.100   0.726   9.631 -1.9155 -0.7017  0.4130
  720MOL0     H97171   7.194   0.661   9.775 -0.8202 -1.9873 -1.7772
  720MOL0     H97172   7.179   0.930   9.627 -2.2317 -0.7196  1.4080
  720MOL0     H97173   7.189   0.936   9.801  0.9774  0.0520  0.2183
  720MOL0     H97174   7.387   0.743   9.749 -2.0760 -1.1095 -0.9308
  720MOL0     H97175   7.415   0.911   9.794 -1.8609  1.4546  0.2948
  720MOL0     H97176   7.392   0.805   9.508 -2.2956  0.8756  0.8201
  720MOL0     H97177   7.418   0.967   9.555 -1.9463 -0.6588  2.2772
  720MOL0     H97178   7.607   0.747   9.658  3.8716 -0.8012 -1.9944
  720MOL0     H97179   7.646   0.922   9.625  0.0244  0.4250 -2.5571
  720MOL0     H97180   7.591   0.724   9.404 -0.7821  0.1765 -0.5814
  720MOL0     H97181   7.751   0.780   9.450 -0.4238 -0.9870 -3.4889
  720MOL0     H97182   6.627   0.646   9.812 -0.2660 -0.8463  0.2125
  720MOL0     H97183   6.468   0.806   9.752 -0.9072 -1.7494 -1.3826
  720MOL0     H97184   6.279   1.022   9.413  0.3321  0.0379  1.3725
  720MOL0     H97185   6.066   1.148   9.361  0.5345 -3.3928  1.6990
  720MOL0     H97186   6.392   2.954   9.698 -0.3104 -2.0862  3.9687
  720MOL0     H97187   6.620   2.861   9.675  0.3111 -0.6693  0.5777
  720MOL0     H97188   6.933   2.448   9.300 -1.1257 -0.5226  0.4722
  720MOL0     H97189   7.121   2.335   9.358  1.1801  0.1672  0.3322
  720MOL0     H97190   7.408   2.245   9.526  1.5952  1.0724  0.6321
  720MOL0     H97191   7.310   2.364   9.433 -0.2264  2.2528  0.5370
  720MOL0     H97192   7.448   2.432   9.684  2.2063 -0.9504 -1.1406
  720MOL0     H97193   7.371   2.551   9.578  1.4775  2.2745  0.3618
  720MOL0     H97194   7.496   2.524   9.389 -1.1099  0.8469  1.3041
  720MOL0     H97195   7.586   2.381   9.456 -0.1252  0.0773 -2.1394
  720MOL0     H97196   7.691   2.521   9.619  1.2329 -2.1012 -1.2417
  720MOL0     H97197   7.615   2.669   9.558  0.1766  0.9845 -3.1261
  720MOL0     H97198   7.928   2.643   9.286  1.0057  0.3878  2.5130
  720MOL0     H97199   7.035   2.387   9.774 -0.4823 -1.2715 -0.1272
  720MOL0     H97200   6.824   2.495   9.702 -0.1203  0.3980 -0.6000
  721MOL0     O97201  10.190   8.318   7.703 -0.1103  1.3156 -0.1422
  721MOL0     C97202  10.304   8.277   7.715 -0.0924  0.4780 -0.7075
  721MOL0     O97203  10.342   8.163   7.777  0.6315 -0.3054 -0.3020
  721MOL0     C97204  10.249   8.080   7.831  0.6718  0.4618  0.0902
  721MOL0     C97205  10.149   8.032   7.743  0.0380  0.1517 -0.4449
  721MOL0     C97206  10.057   7.935   7.796  0.4424 -0.2701 -0.8286
  721MOL0     C97207  10.086   7.864   7.917  0.1774 -0.0894 -0.8865
  721MOL0     O97208  10.011   7.769   7.980  0.0954  0.1181  0.2204
  721MOL0     C97209   9.897   7.714   7.909  0.0577 -0.3578  0.2109
  721MOL0     C97210   9.837   7.616   8.010  0.2016  0.2787 -0.5731
  721MOL0     C97211   9.717   7.551   7.953 -0.1403 -0.2483 -0.5523
  721MOL0     C97212   9.700   7.409   8.007  1.1716 -0.3400  0.4777
  721MOL0     C97213   9.561   7.360   7.961  0.2415  0.8480  0.1166
  721MOL0     C97214   9.556   7.206   7.985 -1.2646  0.1662  0.3845
  721MOL0     C97215   9.417   7.150   7.971 -0.0312  0.2726 -0.0904
  721MOL0     C97216   9.409   7.002   7.925 -0.0029 -0.1560  0.0215
  721MOL0     N97217   9.275   6.947   7.956  0.4762  0.0996 -0.0837
  721MOL0     C97218   9.168   6.940   7.867 -0.4899  0.3975  0.1021
  721MOL0     C97219   9.071   6.890   7.951 -0.3791 -0.5259  0.2871
  721MOL0     C97220   8.936   6.838   7.918 -0.6836  0.4430 -0.0312
  721MOL0     C97221   8.838   6.952   7.906  0.5043  0.0959  0.1345
  721MOL0     C97222   8.700   6.909   7.940  0.9597  0.1141  0.6428
  721MOL0     C97223   8.649   6.779   7.880 -0.9139 -0.5705  0.5731
  721MOL0     O97224   8.639   6.788   7.743  0.4170  0.2338  0.5478
  721MOL0     C97225   8.520   6.816   7.682  0.2510  0.3011  0.5665
  721MOL0     C97226   8.397   6.852   7.730  0.6034  0.1342 -0.6027
  721MOL0     C97227   8.286   6.869   7.649  0.1434  0.9421 -0.7315
  721MOL0     C97228   8.155   6.921   7.716  0.0127  0.0601  0.3281
  721MOL0     C97229   8.293   6.835   7.506 -0.2847 -0.4295 -0.2303
  721MOL0     C97230   8.176   6.833   7.421  0.3723  1.0018 -0.5091
  721MOL0     O97231   8.205   6.815   7.292 -0.1275  0.0985 -0.3427
  721MOL0     C97232   8.105   6.846   7.204  0.2583 -0.6005 -0.1646
  721MOL0     C97233   8.119   6.956   7.123  0.7190  0.6245  0.1093
  721MOL0     C97234   8.020   6.978   7.021  0.0128  0.1912 -0.7640
  721MOL0     C97235   7.908   6.890   7.013  0.2402  0.5542 -0.1596
  721MOL0     O97236   7.794   6.917   6.937  0.4789  0.6373 -0.1043
  721MOL0     C97237   7.801   7.029   6.853  1.0359 -0.1029 -0.2317
  721MOL0     C97238   7.673   7.034   6.764 -0.4345  0.0044  0.3327
  721MOL0     C97239   7.686   7.155   6.670  0.1848 -0.4768 -0.3609
  721MOL0     C97240   7.556   7.190   6.599  0.7062 -0.1581 -0.5373
  721MOL0     C97241   7.567   7.312   6.501  0.2625  0.3460 -0.4687
  721MOL0     C97242   7.423   7.355   6.451 -0.3261 -0.3276 -0.5618
  721MOL0     C97243   7.349   7.241   6.373  0.2841  0.5215 -0.8377
  721MOL0     C97244   7.249   7.307   6.275 -0.3213 -0.5762 -0.5878
  721MOL0    Cl97245   7.129   7.414   6.353  0.0653 -0.0315 -0.1673
  721MOL0     C97246   7.913   6.778   7.094  0.1825 -0.3627  0.6114
  721MOL0     C97247   8.006   6.753   7.193 -0.3956 -0.1129 -0.0314
  721MOL0     O97248   8.066   6.853   7.465  0.7929 -0.4852 -0.0235
  721MOL0     C97249   8.417   6.802   7.459 -0.1667 -0.6936 -0.4070
  721MOL0     C97250   8.529   6.797   7.540 -0.2301 -0.2631 -0.6132
  721MOL0     N97251   9.121   6.867   8.083  1.0019 -0.5201 -0.4573
  721MOL0     N97252   9.243   6.906   8.080  0.4282 -0.0750 -0.0483
  721MOL0     C97253  10.181   7.921   8.002  0.2181 -1.1429 -0.6996
  721MOL0     C97254  10.259   8.026   7.960  0.0206  0.4715 -0.2371
  721MOL0     C97255  10.407   8.355   7.649  0.0748 -0.3316 -0.0935
  721MOL0     C97256  10.530   8.292   7.620 -0.1389 -0.5992  0.3051
  721MOL0     C97257  10.635   8.361   7.560 -0.0359  0.3769 -0.4726
  721MOL0     C97258  10.621   8.499   7.527 -0.0443  1.0522  0.8633
  721MOL0     O97259  10.735   8.555   7.473  0.0788 -0.3474  0.1784
  721MOL0     C97260  10.726   8.688   7.427 -0.2263  0.3533  0.1228
  721MOL0     C97261  10.863   8.734   7.365  0.1986 -0.0381 -0.1206
  721MOL0     C97262  10.970   8.707   7.475 -0.0910  0.5342 -0.3146
  721MOL0     C97263  11.104   8.740   7.417  0.3551 -0.0375  0.1530
  721MOL0     C97264  11.209   8.722   7.514  0.7020  0.8055  0.2048
  721MOL0     C97265  11.283   8.695   7.604  0.1725 -0.1826  0.3217
  721MOL0     C97266  10.496   8.557   7.566 -1.2078  0.0699  0.4364
  721MOL0     C97267  10.390   8.490   7.616 -0.1131 -0.7939 -0.4612
  721MOL0     H97268  10.138   8.081   7.647 -0.8680  3.0407  1.0171
  721MOL0     H97269   9.984   7.886   7.733  3.1889 -1.6401 -3.1964
  721MOL0     H97270   9.830   7.800   7.897 -0.4436 -0.7235  0.3571
  721MOL0     H97271   9.922   7.670   7.812  2.4064 -1.8072  1.3818
  721MOL0     H97272   9.910   7.538   8.037 -0.7529 -0.9707 -1.4528
  721MOL0     H97273   9.818   7.674   8.101  1.2317  0.0652 -0.2026
  721MOL0     H97274   9.630   7.617   7.958  0.1048  0.0493 -0.2179
  721MOL0     H97275   9.731   7.530   7.847 -1.8735  2.1037 -1.3356
  721MOL0     H97276   9.768   7.333   7.968  0.9043  0.3340 -1.4055
  721MOL0     H97277   9.688   7.413   8.115 -1.5694 -1.8887  0.3219
  721MOL0     H97278   9.482   7.413   8.015 -0.2474  0.4554 -0.2067
  721MOL0     H97279   9.547   7.375   7.854  2.5520  1.4147 -0.1680
  721MOL0     H97280   9.629   7.164   7.915 -0.1291  4.0292 -1.0483
  721MOL0     H97281   9.590   7.194   8.088 -1.2956  0.7998  0.4751
  721MOL0     H97282   9.373   7.165   8.070  1.1265 -0.6946  0.6041
  721MOL0     H97283   9.355   7.207   7.901 -0.4797  1.5839  1.3035
  721MOL0     H97284   9.488   6.945   7.975  2.7403  1.2139 -2.4028
  721MOL0     H97285   9.421   6.989   7.817 -0.3220 -1.4488  0.1265
  721MOL0     H97286   9.159   6.964   7.761  2.4078 -0.2131 -0.3664
  721MOL0     H97287   8.937   6.782   7.824 -3.0511 -0.9188  0.6624
  721MOL0     H97288   8.915   6.770   8.002  0.9586  1.0016  0.8728
  721MOL0     H97289   8.845   7.004   7.809  2.5354 -0.2336  0.0679
  721MOL0     H97290   8.863   7.034   7.973  0.7595  0.4290 -0.3556
  721MOL0     H97291   8.630   6.990   7.916  1.2539  0.0207 -0.5702
  721MOL0     H97292   8.702   6.895   8.049  1.0535 -0.8901  0.5122
  721MOL0     H97293   8.551   6.771   7.927  0.5086 -1.0600  3.7363
  721MOL0     H97294   8.700   6.684   7.901 -2.1655 -1.6708 -1.0456
  721MOL0     H97295   8.391   6.866   7.837 -1.6903  0.0843 -0.6882
  721MOL0     H97296   8.098   6.829   7.734  1.2050 -0.8273 -0.2424
  721MOL0     H97297   8.163   6.981   7.807 -0.7816  0.2685  0.2696
  721MOL0     H97298   8.103   6.984   7.643 -0.3246 -0.9155 -0.2915
  721MOL0     H97299   8.211   7.011   7.142 -0.7136  3.1420  0.2411
  721MOL0     H97300   8.027   7.069   6.963 -0.3117  1.4314  1.0944
  721MOL0     H97301   7.805   7.118   6.915 -2.4455  1.0763 -1.4771
  721MOL0     H97302   7.887   7.019   6.785  1.7824 -0.6304  0.7671
  721MOL0     H97303   7.672   6.943   6.702  1.1547 -0.0672  0.3717
  721MOL0     H97304   7.582   7.032   6.824 -0.6824 -4.5646  0.2182
  721MOL0     H97305   7.766   7.146   6.597  0.6312  2.8153 -0.4487
  721MOL0     H97306   7.722   7.242   6.726  0.1509 -0.3414 -0.5457
  721MOL0     H97307   7.517   7.107   6.541  0.8641  0.4513 -1.5528
  721MOL0     H97308   7.486   7.231   6.672  0.0862  0.7016 -1.5872
  721MOL0     H97309   7.625   7.279   6.415 -0.7035 -0.6826 -0.7450
  721MOL0     H97310   7.629   7.389   6.548 -1.9961  1.9021  0.1281
  721MOL0     H97311   7.350   7.373   6.531 -3.3397 -2.9672 -2.4528
  721MOL0     H97312   7.433   7.444   6.389  1.5396 -0.2676 -0.2163
  721MOL0     H97313   7.301   7.194   6.460  0.2797  1.2816 -0.4249
  721MOL0     H97314   7.409   7.160   6.330  0.8783  0.3809  0.1985
  721MOL0     H97315   7.188   7.228   6.230 -2.7873  1.9324 -1.8937
  721MOL0     H97316   7.304   7.360   6.197  1.0458  1.4093  1.5834
  721MOL0     H97317   7.832   6.705   7.088  1.4800 -2.0187  1.8722
  721MOL0     H97318   8.005   6.668   7.260 -2.0665 -0.8105 -0.8864
  721MOL0     H97319   8.426   6.760   7.359 -0.7145  0.6760 -1.0609
  721MOL0     H97320   8.623   6.762   7.498  0.5844  0.2085  0.7645
  721MOL0     H97321  10.198   7.879   8.100 -1.3110  0.2177  0.2110
  721MOL0     H97322  10.327   8.064   8.036  2.4476 -3.5961 -0.0938
  721MOL0     H97323  10.554   8.187   7.631  1.3862 -0.1853  1.1482
  721MOL0     H97324  10.735   8.322   7.540  0.6634  2.1268 -0.5341
  721MOL0     H97325  10.646   8.699   7.352 -1.7641  1.6717  1.8575
  721MOL0     H97326  10.712   8.759   7.508  1.1699  0.3205  0.4176
  721MOL0     H97327  10.882   8.839   7.343 -0.2702 -0.3002 -1.9481
  721MOL0     H97328  10.875   8.683   7.269  1.2120 -2.3541  1.1528
  721MOL0     H97329  10.968   8.604   7.511  2.3980  1.1542  1.9029
  721MOL0     H97330  10.956   8.780   7.555  2.3777  0.9906 -0.2395
  721MOL0     H97331  11.109   8.848   7.405  0.5280  0.0330  0.7902
  721MOL0     H97332  11.129   8.681   7.328 -0.6136 -0.8174  0.3692
  721MOL0     H97333  11.343   8.675   7.691  0.5707  1.2355  0.4073
  721MOL0     H97334  10.482   8.663   7.547 -0.4129  0.1951  0.5294
  721MOL0     H97335  10.293   8.537   7.630  0.0087 -0.2933 -1.2402
  722MOL0     O97336   4.048  11.122   9.135  0.1935  1.1627 -0.5263
  722MOL0     C97337   4.023  11.238   9.125 -0.1105 -0.9447 -0.3934
  722MOL0     O97338   3.904  11.294   9.148  0.2421 -0.1089 -0.7328
  722MOL0     C97339   3.792  11.228   9.168 -0.2132  0.8385  0.3067
  722MOL0     C97340   3.728  11.213   9.293 -0.6446 -0.4187  0.3055
  722MOL0     C97341   3.624  11.122   9.300 -0.0978  0.4147 -0.6490
  722MOL0     C97342   3.576  11.045   9.197 -0.5423 -0.4073 -0.1098
  722MOL0     O97343   3.477  10.961   9.218  0.5038 -0.0842  0.2611
  722MOL0     C97344   3.479  10.837   9.143 -0.5846  0.2783  0.2589
  722MOL0     C97345   3.438  10.717   9.223 -0.3408 -0.2763 -0.0393
  722MOL0     C97346   3.302  10.728   9.283  0.6986 -0.8448 -0.2957
  722MOL0     C97347   3.290  10.614   9.374  0.2366 -0.0370 -0.4905
  722MOL0     C97348   3.146  10.595   9.435  0.0369  0.4853  0.2178
  722MOL0     C97349   3.135  10.475   9.540  0.4422 -0.1052  0.1880
  722MOL0     C97350   2.988  10.453   9.585  0.3987 -0.2328 -0.5055
  722MOL0     C97351   2.966  10.321   9.653  0.2669 -0.3308  0.1847
  722MOL0     N97352   2.825  10.308   9.682  0.2024  0.0371 -0.6280
  722MOL0     C97353   2.739  10.412   9.706  0.4832 -0.6122  0.3964
  722MOL0     C97354   2.626  10.355   9.748 -0.2429  0.4770 -0.1898
  722MOL0     C97355   2.498  10.420   9.785  1.0469 -0.5078 -0.5068
  722MOL0     C97356   2.387  10.324   9.837  0.1652  0.4262 -0.4558
  722MOL0     C97357   2.259  10.390   9.876  0.8346 -0.2905  0.0848
  722MOL0     C97358   2.155  10.288   9.919  0.1154  0.9440  0.2311
  722MOL0     O97359   2.022  10.343   9.941  0.3862  0.4407 -0.3940
  722MOL0     C97360   1.933  10.259   9.999 -0.2279  0.0737 -0.2566
  722MOL0     C97361   1.916  10.125   9.970 -0.2317  0.2385  0.1564
  722MOL0     C97362   1.794  10.057  10.008 -1.4538  0.6096  0.0216
  722MOL0     C97363   1.769   9.920   9.944  0.1140  0.4898 -0.0194
  722MOL0     C97364   1.692  10.138  10.074  0.6589 -0.1358  0.0051
  722MOL0     C97365   1.558  10.084  10.094 -0.1235  0.0396 -0.6721
  722MOL0     O97366   1.441  10.164  10.070 -0.0390  1.3457 -0.0144
  722MOL0     C97367   1.315  10.114  10.084 -0.2139  0.3816 -1.3355
  722MOL0     C97368   1.275   9.977  10.073 -0.6834 -0.0842  0.4115
  722MOL0     C97369   1.142   9.936  10.074  0.1170 -0.2168  0.5764
  722MOL0     C97370   1.039  10.033  10.107  0.9256 -0.2375 -0.2240
  722MOL0     O97371   0.904  10.005  10.117  0.2179 -0.1083 -0.8918
  722MOL0     C97372   0.878   9.863  10.147 -0.5471  0.4333 -0.3355
  722MOL0     C97373   0.732   9.849  10.199 -0.2075  0.1425  0.0116
  722MOL0     C97374   0.699   9.704  10.242 -0.5272  0.0839  0.2486
  722MOL0     C97375   0.553   9.669  10.264  1.1025  0.0558 -0.4509
  722MOL0     C97376   0.494   9.751  10.378 -0.0375 -0.1922 -0.4393
  722MOL0     C97377   0.350   9.709  10.429  0.4286 -0.0578  0.6799
  722MOL0     C97378   0.241   9.778  10.348 -0.4744  0.4542 -0.3141
  722MOL0     C97379   0.107   9.770  10.425 -0.2876 -0.0925 -0.1668
  722MOL0    Cl97380  -0.014   9.880  10.355 -0.1614 -0.0773  0.2199
  722MOL0     C97381   1.073  10.167  10.121 -0.1059  0.8653  0.6524
  722MOL0     C97382   1.207  10.199  10.108  0.5161 -0.4507 -0.7757
  722MOL0     O97383   1.560   9.971  10.147  0.4394 -0.5973  0.3955
  722MOL0     C97384   1.711  10.274  10.105 -0.4775  0.2920  0.2492
  722MOL0     C97385   1.834  10.331  10.060  0.0032 -0.0416  0.7015
  722MOL0     N97386   2.643  10.218   9.752  0.2192 -0.1629  0.2728
  722MOL0     N97387   2.757  10.190   9.708  0.3654 -0.2650 -0.0166
  722MOL0     C97388   3.629  11.082   9.069  0.1301  0.9175  0.5714
  722MOL0     C97389   3.737  11.170   9.057 -0.1194  0.1309 -0.6185
  722MOL0     C97390   4.135  11.327   9.079  0.4251  0.2838  0.4549
  722MOL0     C97391   4.266  11.284   9.090  0.5869 -1.0809  0.4824
  722MOL0     C97392   4.372  11.376   9.062  0.9910  0.2369 -0.4167
  722MOL0     C97393   4.352  11.506   9.030  0.1156  0.2238 -0.3014
  722MOL0     O97394   4.465  11.584   9.014  0.2863  0.4572 -0.1050
  722MOL0     C97395   4.468  11.693   8.925  1.3812 -0.1056  0.4182
  722MOL0     C97396   4.465  11.830   8.988 -0.6425  0.7931  0.0664
  722MOL0     C97397   4.578  11.862   9.084 -0.3327 -0.2686 -0.7699
  722MOL0     C97398   4.709  11.909   9.012  0.5269 -0.6646  0.6091
  722MOL0     C97399   4.815  11.924   9.103  0.1141  0.0920  0.8161
  722MOL0     C97400   4.898  11.944   9.187  0.3542  0.6837  0.8619
  722MOL0     C97401   4.221  11.549   9.017  0.9899 -0.0664  0.5251
  722MOL0     C97402   4.111  11.460   9.033 -0.2464 -0.5218 -0.3130
  722MOL0     H97403   3.749  11.254   9.391 -1.5137 -1.6741  1.0475
  722MOL0     H97404   3.580  11.103   9.398 -0.3782 -3.5560 -1.3770
  722MOL0     H97405   3.410  10.850   9.058 -0.0847  1.9313  0.0745
  722MOL0     H97406   3.583  10.821   9.115 -0.6115  1.6996 -0.7749
  722MOL0     H97407   3.433  10.632   9.154  0.9005  0.1951 -0.7619
  722MOL0     H97408   3.506  10.705   9.308 -2.8368 -0.2702  2.0836
  722MOL0     H97409   3.302  10.812   9.352 -1.8893 -2.3813  1.7609
  722MOL0     H97410   3.216  10.729   9.215 -0.5824 -1.2546  1.2657
  722MOL0     H97411   3.318  10.523   9.319  1.9589  0.7488 -1.0011
  722MOL0     H97412   3.369  10.633   9.447  0.4800  3.1039 -1.4081
  722MOL0     H97413   3.126  10.683   9.497  0.3174 -0.5150  1.7908
  722MOL0     H97414   3.074  10.591   9.353  1.2467 -1.0681 -0.8190
  722MOL0     H97415   3.161  10.384   9.485 -0.4535  0.0692 -0.5327
  722MOL0     H97416   3.205  10.505   9.619 -0.2432 -1.2663  1.2844
  722MOL0     H97417   2.968  10.540   9.648  2.5480  0.5956 -0.9003
  722MOL0     H97418   2.932  10.454   9.491 -3.0561 -3.9745  1.2175
  722MOL0     H97419   3.032  10.300   9.737 -0.4333 -2.5651  0.2448
  722MOL0     H97420   2.997  10.247   9.578 -0.2541  0.1268 -0.5036
  722MOL0     H97421   2.750  10.519   9.690 -0.2612 -0.9657 -3.0925
  722MOL0     H97422   2.518  10.493   9.864  1.9151 -0.9364 -0.3118
  722MOL0     H97423   2.462  10.479   9.701  0.1909  0.2951  0.3998
  722MOL0     H97424   2.416  10.275   9.931 -1.8350  0.8200  0.4148
  722MOL0     H97425   2.368  10.246   9.763  2.6969 -0.2646 -0.4814
  722MOL0     H97426   2.223  10.434   9.783 -0.2959  0.7448  0.9825
  722MOL0     H97427   2.257  10.466   9.954 -1.8103  0.0996 -0.2764
  722MOL0     H97428   2.187  10.241  10.013 -1.7449  1.0872  0.9823
  722MOL0     H97429   2.140  10.219   9.836  0.7420  2.4130 -1.1413
  722MOL0     H97430   1.991  10.075   9.911 -0.9440  3.2158 -3.7571
  722MOL0     H97431   1.662   9.921   9.921 -0.2409  1.2864  1.5423
  722MOL0     H97432   1.820   9.909   9.847 -2.3553  2.9288 -1.7403
  722MOL0     H97433   1.798   9.848  10.022  2.5029  1.7198  0.3380
  722MOL0     H97434   1.353   9.904  10.058 -0.3347  0.1460  1.0700
  722MOL0     H97435   1.119   9.833  10.048 -1.9642 -0.0094  1.4587
  722MOL0     H97436   0.893   9.815  10.050 -0.7285  1.2859 -0.7927
  722MOL0     H97437   0.952   9.819  10.214 -1.3557  1.1988  1.0963
  722MOL0     H97438   0.735   9.909  10.290 -0.8629 -0.2218  0.2730
  722MOL0     H97439   0.657   9.876  10.124 -1.6532  0.2397  1.4534
  722MOL0     H97440   0.759   9.689  10.332  2.8459 -0.7236 -1.9290
  722MOL0     H97441   0.747   9.632  10.175  0.4601  1.8283 -1.0252
  722MOL0     H97442   0.491   9.692  10.176  0.2494 -0.4775  0.0012
  722MOL0     H97443   0.551   9.561  10.282  2.7779  0.1841  0.7548
  722MOL0     H97444   0.479   9.857  10.355  1.4804 -0.1703 -1.4538
  722MOL0     H97445   0.570   9.750  10.456  0.0996  1.8975 -0.4858
  722MOL0     H97446   0.348   9.599  10.429  0.5368 -0.0952 -1.7503
  722MOL0     H97447   0.342   9.751  10.530 -2.4180 -0.8496  0.8651
  722MOL0     H97448   0.236   9.717  10.257 -3.3003 -0.0096  0.0790
  722MOL0     H97449   0.259   9.883  10.324  2.9231  0.1742  0.5078
  722MOL0     H97450   0.121   9.805  10.528 -3.6847  2.2257 -0.3365
  722MOL0     H97451   0.068   9.668  10.435  1.3107 -0.7554 -0.4094
  722MOL0     H97452   1.004  10.246  10.148 -1.3255 -0.1888  0.7660
  722MOL0     H97453   1.243  10.302  10.107  2.9821 -1.1597  1.7642
  722MOL0     H97454   1.628  10.325  10.152  0.0868  1.5090 -0.0306
  722MOL0     H97455   1.852  10.437  10.078 -2.1578  0.2177  1.6614
  722MOL0     H97456   3.594  11.013   8.993  0.6325 -0.2334  1.3456
  722MOL0     H97457   3.765  11.198   8.956 -1.2719  1.1477 -0.6762
  722MOL0     H97458   4.293  11.185   9.126 -0.9030 -0.7600  2.6768
  722MOL0     H97459   4.479  11.357   9.069  1.1035  0.9462 -0.1349
  722MOL0     H97460   4.566  11.682   8.879  0.8141 -0.2445 -0.7964
  722MOL0     H97461   4.393  11.685   8.846  1.6254  0.7657  0.0775
  722MOL0     H97462   4.372  11.835   9.047 -0.2692 -1.5130  0.9508
  722MOL0     H97463   4.460  11.910   8.914 -1.2858  2.0997  1.4698
  722MOL0     H97464   4.595  11.775   9.149 -3.7478 -1.6832 -1.5284
  722MOL0     H97465   4.547  11.941   9.153 -1.5667  0.1465 -1.7671
  722MOL0     H97466   4.684  12.004   8.963 -1.6995 -2.4076 -1.9617
  722MOL0     H97467   4.741  11.834   8.940 -0.1611  0.0837 -0.5122
  722MOL0     H97468   4.977  11.952   9.259  1.1722  2.4978 -0.1702
  722MOL0     H97469   4.191  11.650   8.994 -1.0370 -1.1970 -2.3974
  722MOL0     H97470   4.008  11.489   9.013 -0.2361 -0.1601  0.1396
  723MOL0     O97471   8.488   6.433  10.197  0.2588 -0.4837  0.0561
  723MOL0     C97472   8.566   6.406  10.293 -0.0505  0.2121  0.9796
  723MOL0     O97473   8.529   6.327  10.395  0.3813 -0.4582 -1.0320
  723MOL0     C97474   8.396   6.292  10.410 -0.0492  0.0827  0.1126
  723MOL0     C97475   8.376   6.166  10.456  0.5228  0.1493 -0.2505
  723MOL0     C97476   8.246   6.122  10.481 -0.5217 -0.3488  0.2355
  723MOL0     C97477   8.129   6.196  10.451 -0.2584  0.0033 -0.3899
  723MOL0     O97478   7.998   6.151  10.470  0.2404  0.1419  0.3855
  723MOL0     C97479   7.964   6.015  10.458 -0.4073  0.1197 -0.3561
  723MOL0     C97480   7.817   5.982  10.483 -0.2010 -0.4177 -0.1650
  723MOL0     C97481   7.734   6.050  10.376 -0.2100 -1.2761 -1.2483
  723MOL0     C97482   7.585   6.019  10.401  0.1321  0.0093 -0.0684
  723MOL0     C97483   7.504   6.103  10.294  0.2941 -1.3198  0.1020
  723MOL0     C97484   7.356   6.096  10.321  0.2938  0.0547 -0.0896
  723MOL0     C97485   7.269   6.218  10.261 -0.6713 -0.2621  0.8200
  723MOL0     C97486   7.127   6.210  10.327  0.7569  0.3959 -0.4496
  723MOL0     N97487   7.048   6.326  10.280  1.2030 -0.2909 -0.7672
  723MOL0     C97488   6.972   6.334  10.166 -0.2969 -0.0036  0.7118
  723MOL0     C97489   6.909   6.456  10.178  0.6723  0.0189 -0.1672
  723MOL0     C97490   6.796   6.512  10.097 -0.0204  0.1085 -0.1669
  723MOL0     C97491   6.856   6.585   9.970  0.7095  0.4532  0.6173
  723MOL0     C97492   6.755   6.593   9.854  0.6255 -0.8543  0.1390
  723MOL0     C97493   6.621   6.660   9.897 -0.3083 -0.2398  0.5403
  723MOL0     O97494   6.565   6.707   9.766 -0.3985  0.5954 -0.0345
  723MOL0     C97495   6.455   6.784   9.760 -0.0328  1.4551 -0.7972
  723MOL0     C97496   6.426   6.825   9.633  0.8279 -0.1276 -0.1327
  723MOL0     C97497   6.313   6.903   9.604  0.3071  0.6335  0.6220
  723MOL0     C97498   6.295   6.945   9.457  0.5617 -0.0904  0.1765
  723MOL0     C97499   6.217   6.936   9.704  0.3876 -0.2246 -0.4890
  723MOL0     C97500   6.089   7.014   9.694 -0.3699  0.6900  0.0507
  723MOL0     O97501   6.031   7.066   9.806  0.2141 -0.3166 -0.4156
  723MOL0     C97502   5.902   7.123   9.789 -0.2129  0.5708 -0.5158
  723MOL0     C97503   5.786   7.052   9.837  0.4687  0.8287  0.0887
  723MOL0     C97504   5.659   7.107   9.814 -0.7819  0.2229  0.2233
  723MOL0     C97505   5.642   7.234   9.767  0.1589 -0.6776  0.9121
  723MOL0     O97506   5.528   7.308   9.753 -0.3826  0.7979  0.1229
  723MOL0     C97507   5.400   7.248   9.799  0.3143  0.4133 -0.0664
  723MOL0     C97508   5.296   7.362   9.800  0.1730 -0.3348  0.1741
  723MOL0     C97509   5.323   7.474   9.909 -0.0706  0.2880 -0.5020
  723MOL0     C97510   5.212   7.583   9.896 -0.1710  0.5207 -0.0040
  723MOL0     C97511   5.272   7.707   9.849 -0.2840 -1.1923  0.1739
  723MOL0     C97512   5.173   7.808   9.784  0.4281 -0.1715 -0.3005
  723MOL0     C97513   5.231   7.950   9.765  0.4981 -0.0289 -0.5833
  723MOL0     C97514   5.137   8.044   9.690 -0.2863  0.0449 -0.0641
  723MOL0    Cl97515   4.973   8.041   9.766 -0.0096 -0.3297  0.1035
  723MOL0     C97516   5.756   7.305   9.727 -0.8420 -0.1538 -1.0651
  723MOL0     C97517   5.885   7.250   9.734 -0.3207 -0.4840 -0.2280
  723MOL0     O97518   6.034   7.006   9.582  0.5531  0.4877  0.6469
  723MOL0     C97519   6.246   6.899   9.836  0.3911 -0.2322 -0.2982
  723MOL0     C97520   6.359   6.817   9.862 -0.3455  1.1279  0.1026
  723MOL0     N97521   6.959   6.523  10.292  0.7438  0.7741 -0.4109
  723MOL0     N97522   7.048   6.445  10.347 -0.6265 -0.0188 -0.3183
  723MOL0     C97523   8.146   6.328  10.407 -0.3056 -0.5256 -0.4201
  723MOL0     C97524   8.288   6.379  10.390 -0.4232  0.0618 -0.1166
  723MOL0     C97525   8.700   6.475  10.282 -0.6358 -0.3616 -1.7106
  723MOL0     C97526   8.810   6.450  10.377  0.8706 -0.5037  0.4357
  723MOL0     C97527   8.937   6.496  10.344  0.2142  0.2057  0.1422
  723MOL0     C97528   8.956   6.593  10.231  0.4048  0.5289 -0.3687
  723MOL0     O97529   9.086   6.641  10.218  0.4930  0.6343  0.2361
  723MOL0     C97530   9.113   6.723  10.098  0.5563 -0.6563  0.0112
  723MOL0     C97531   9.259   6.749  10.093 -0.0552 -0.0152 -0.4465
  723MOL0     C97532   9.294   6.879  10.010  0.6628  0.2838 -0.0287
  723MOL0     C97533   9.445   6.893  10.002  0.0841  1.1307  0.7340
  723MOL0     C97534   9.495   6.800   9.905 -0.2959 -0.4013  0.7404
  723MOL0     C97535   9.532   6.714   9.826  0.5260  0.4320  0.1820
  723MOL0     C97536   8.845   6.633  10.164  0.5617 -0.7991  0.9540
  723MOL0     C97537   8.719   6.578  10.190 -0.3819  0.3985  0.2644
  723MOL0     H97538   8.463   6.106  10.478 -0.4678 -0.2287  3.1347
  723MOL0     H97539   8.237   6.029  10.536  0.1481  1.1365  3.0268
  723MOL0     H97540   7.975   5.980  10.355  2.3241 -2.1103  0.5566
  723MOL0     H97541   8.016   5.957  10.535 -1.0626  0.1817  0.1372
  723MOL0     H97542   7.800   5.874  10.483  2.7741 -1.0462 -3.3026
  723MOL0     H97543   7.784   6.011  10.583 -1.0194 -0.0220 -0.5408
  723MOL0     H97544   7.761   6.155  10.365  4.2938 -1.9614  0.7705
  723MOL0     H97545   7.751   6.012  10.275  1.4383 -2.4140 -0.5896
  723MOL0     H97546   7.577   5.911  10.384  0.0034 -0.2917  1.7165
  723MOL0     H97547   7.551   6.041  10.502  0.3473 -0.9883  0.2341
  723MOL0     H97548   7.538   6.206  10.304 -0.2010 -0.8304 -2.4581
  723MOL0     H97549   7.534   6.069  10.194 -1.4936  0.1433 -1.0211
  723MOL0     H97550   7.317   5.998  10.293  0.5578 -0.4319  1.1713
  723MOL0     H97551   7.347   6.113  10.429  1.4366 -1.0424  0.2023
  723MOL0     H97552   7.315   6.316  10.275  2.8887 -1.9805  2.3795
  723MOL0     H97553   7.259   6.206  10.153  3.2057 -0.2416  0.3036
  723MOL0     H97554   7.135   6.216  10.436  3.1784  0.0834 -0.5664
  723MOL0     H97555   7.087   6.112  10.298 -0.4225  0.4349  0.9213
  723MOL0     H97556   6.950   6.262  10.088  0.9408 -0.5594  0.8576
  723MOL0     H97557   6.724   6.431  10.078 -2.1084  1.4578  1.4547
  723MOL0     H97558   6.749   6.594  10.152 -1.6619 -1.1258  0.3664
  723MOL0     H97559   6.929   6.513   9.932 -2.2933 -2.4599 -0.1491
  723MOL0     H97560   6.906   6.681   9.986 -0.4054  1.2047 -0.2108
  723MOL0     H97561   6.743   6.491   9.818  1.1720 -0.2509 -1.8516
  723MOL0     H97562   6.798   6.655   9.775  1.1230  0.3820  1.3223
  723MOL0     H97563   6.653   6.745   9.958 -0.9416  0.9038 -0.6535
  723MOL0     H97564   6.556   6.600   9.961 -0.4444  0.6658  1.2703
  723MOL0     H97565   6.494   6.797   9.553  1.5261  1.9553 -0.3305
  723MOL0     H97566   6.253   6.865   9.396  0.0194  0.6320 -0.4205
  723MOL0     H97567   6.236   7.036   9.441 -3.6875 -2.6896 -0.3231
  723MOL0     H97568   6.388   6.970   9.406 -0.3390  2.0687 -0.5178
  723MOL0     H97569   5.800   6.954   9.883 -1.1252 -1.2685 -3.4197
  723MOL0     H97570   5.574   7.052   9.855 -1.6962  0.0418 -1.8015
  723MOL0     H97571   5.366   7.163   9.739 -0.8013 -0.5858  1.9030
  723MOL0     H97572   5.400   7.211   9.902 -0.5870  0.1917 -0.1424
  723MOL0     H97573   5.296   7.397   9.696  1.9437 -1.2689 -0.1768
  723MOL0     H97574   5.206   7.308   9.832  0.4634 -1.1322 -0.3053
  723MOL0     H97575   5.424   7.516   9.901 -0.1809  0.9007  0.9527
  723MOL0     H97576   5.327   7.431  10.010  1.2880  2.3964  0.3952
  723MOL0     H97577   5.128   7.543   9.838  0.5194 -2.3678  0.8151
  723MOL0     H97578   5.168   7.581   9.996  1.1043 -1.5291  0.5934
  723MOL0     H97579   5.345   7.693   9.769 -1.1265  0.1830 -0.8918
  723MOL0     H97580   5.320   7.757   9.934 -1.2174  0.6844 -0.3259
  723MOL0     H97581   5.147   7.764   9.687  1.7228  0.1503 -0.8178
  723MOL0     H97582   5.081   7.808   9.843 -1.5849  0.2478 -3.1994
  723MOL0     H97583   5.329   7.957   9.717 -0.1270  3.6327 -1.6022
  723MOL0     H97584   5.246   8.003   9.859  0.9132  3.2394 -2.3690
  723MOL0     H97585   5.127   8.008   9.588  0.8775  0.2531 -0.2700
  723MOL0     H97586   5.171   8.148   9.685  3.2435 -0.9105  0.9065
  723MOL0     H97587   5.748   7.406   9.688  2.4628  0.1230 -1.3033
  723MOL0     H97588   5.975   7.301   9.701 -0.6708  0.8407  0.7577
  723MOL0     H97589   6.181   6.917   9.921  0.8207  1.7072 -0.3292
  723MOL0     H97590   6.378   6.797   9.967 -0.3255  0.8984  0.0558
  723MOL0     H97591   8.062   6.396  10.396 -0.4897 -0.2462  2.2000
  723MOL0     H97592   8.293   6.484  10.363  2.0435  0.2878  1.0063
  723MOL0     H97593   8.787   6.384  10.460 -0.7726  1.4226  1.5850
  723MOL0     H97594   9.015   6.458  10.410 -0.8612 -2.8302 -0.1872
  723MOL0     H97595   9.080   6.684  10.001 -0.0495  0.8566 -0.4143
  723MOL0     H97596   9.071   6.821  10.121  4.5162  0.8336  1.8497
  723MOL0     H97597   9.320   6.666  10.055  0.2117  0.2734 -0.6524
  723MOL0     H97598   9.289   6.775  10.195 -0.8823  0.5877 -0.3435
  723MOL0     H97599   9.258   6.967  10.062 -1.2319 -0.7608  0.5029
  723MOL0     H97600   9.261   6.872   9.906  0.6228 -1.6204  0.0674
  723MOL0     H97601   9.482   6.870  10.102  1.3656 -0.9448 -0.1716
  723MOL0     H97602   9.471   6.996   9.975  1.2353  0.7630  0.3842
  723MOL0     H97603   9.578   6.631   9.776  1.7249 -0.3348  2.3811
  723MOL0     H97604   8.851   6.712  10.090 -3.0233  0.3707  1.7292
  723MOL0     H97605   8.643   6.631  10.133 -0.3310  0.2405  0.0508
  724MOL0     O97606   1.442   4.978   0.811 -0.0312  0.9362 -0.1943
  724MOL0     C97607   1.498   4.924   0.715  0.7239  0.0781 -0.8661
  724MOL0     O97608   1.435   4.841   0.631 -0.4547  0.0144  0.4113
  724MOL0     C97609   1.299   4.825   0.653 -1.0786  0.6846 -0.2776
  724MOL0     C97610   1.214   4.911   0.592  0.5129  0.1101  0.2176
  724MOL0     C97611   1.076   4.894   0.581  0.3331  0.1795 -0.0104
  724MOL0     C97612   1.017   4.788   0.650  0.2267  1.0238  0.2805
  724MOL0     O97613   0.878   4.784   0.651 -0.2122  0.6408  0.0392
  724MOL0     C97614   0.824   4.658   0.700 -0.1407 -0.3089  0.1809
  724MOL0     C97615   0.670   4.640   0.698 -0.2442 -0.0989 -0.6012
  724MOL0     C97616   0.621   4.652   0.557  0.0505 -0.6354  0.1146
  724MOL0     C97617   0.465   4.667   0.554  0.0156  0.2631  0.1315
  724MOL0     C97618   0.416   4.798   0.609 -0.3933  0.2079  0.4475
  724MOL0     C97619   0.269   4.797   0.618  0.0655 -0.5319 -0.5759
  724MOL0     C97620   0.210   4.947   0.641  0.1327  0.3657 -0.1621
  724MOL0     C97621   0.058   4.941   0.638 -0.3773  0.7662  0.1406
  724MOL0     N97622   0.003   5.069   0.612  0.0604 -0.2604 -0.1065
  724MOL0     C97623  -0.091   5.110   0.523  0.3075 -0.2774 -0.3747
  724MOL0     C97624  -0.145   5.226   0.564  0.1986 -0.2076  0.2189
  724MOL0     C97625  -0.234   5.326   0.501  0.1810  0.9135 -0.3050
  724MOL0     C97626  -0.363   5.327   0.589 -0.6842 -0.0944 -0.0422
  724MOL0     C97627  -0.357   5.430   0.707 -0.1680 -0.0529  0.6439
  724MOL0     C97628  -0.493   5.436   0.766  0.4410  0.0377 -0.0855
  724MOL0     O97629  -0.540   5.301   0.794  0.4900  0.3536 -0.6337
  724MOL0     C97630  -0.672   5.283   0.794 -0.4029 -0.5393 -0.3656
  724MOL0     C97631  -0.716   5.168   0.726  0.5354 -0.4641  0.0860
  724MOL0     C97632  -0.854   5.138   0.708  0.1013 -0.0740  0.2550
  724MOL0     C97633  -0.898   5.016   0.619 -0.1666  0.1806 -0.3618
  724MOL0     C97634  -0.951   5.232   0.769  0.6170  0.2292  0.3098
  724MOL0     C97635  -1.101   5.210   0.742 -1.0584  0.6818  0.5074
  724MOL0     O97636  -1.181   5.318   0.737  0.6298  0.7124 -0.3387
  724MOL0     C97637  -1.314   5.295   0.722 -0.0666 -0.2931 -0.0938
  724MOL0     C97638  -1.404   5.343   0.821  0.2704  0.7300 -0.7176
  724MOL0     C97639  -1.545   5.320   0.812  0.2623  0.0898  0.4197
  724MOL0     C97640  -1.593   5.238   0.708 -0.4319  0.0509  0.0283
  724MOL0     O97641  -1.725   5.198   0.691 -0.8706  0.0759  0.1907
  724MOL0     C97642  -1.741   5.063   0.731 -0.2152  0.7997  0.8271
  724MOL0     C97643  -1.851   4.998   0.656 -0.1072 -1.0756 -0.9714
  724MOL0     C97644  -1.818   4.945   0.516 -0.2510 -0.2227  0.1841
  724MOL0     C97645  -1.942   4.875   0.455 -0.8210 -0.0111  0.2199
  724MOL0     C97646  -1.941   4.824   0.314  0.2596 -0.0150 -0.2882
  724MOL0     C97647  -2.039   4.712   0.293  0.5867 -0.2606  0.5120
  724MOL0     C97648  -2.178   4.766   0.286 -0.1457  0.4144  0.5111
  724MOL0     C97649  -2.260   4.706   0.177 -0.7661 -0.8538  0.1482
  724MOL0    Cl97650  -2.297   4.542   0.215  0.0214  0.5022  0.3171
  724MOL0     C97651  -1.505   5.209   0.606 -0.5677  0.0891  0.4116
  724MOL0     C97652  -1.367   5.227   0.612  0.1530  0.7532 -0.0113
  724MOL0     O97653  -1.138   5.091   0.738  0.6429  0.2091  0.5151
  724MOL0     C97654  -0.906   5.348   0.828 -1.0826  0.4443 -0.0778
  724MOL0     C97655  -0.768   5.373   0.842 -0.5143  0.1839  0.1540
  724MOL0     N97656  -0.080   5.254   0.686 -0.4868  0.0976 -0.6007
  724MOL0     N97657   0.008   5.169   0.706 -0.4228  0.9027 -0.2659
  724MOL0     C97658   1.107   4.689   0.703 -0.3924  1.0680 -0.2512
  724MOL0     C97659   1.246   4.707   0.702  0.1746 -1.0011 -0.7300
  724MOL0     C97660   1.640   4.959   0.701 -0.4773 -0.9587  0.6168
  724MOL0     C97661   1.692   4.934   0.570  0.3395 -0.4472  0.0276
  724MOL0     C97662   1.826   4.966   0.545  0.1165 -0.1597  0.0982
  724MOL0     C97663   1.897   5.037   0.640  0.2545 -0.1863 -0.4570
  724MOL0     O97664   2.021   5.090   0.624  0.5694 -0.4259 -0.0714
  724MOL0     C97665   2.070   5.128   0.494 -1.0128 -0.5529  0.5947
  724MOL0     C97666   2.158   5.013   0.443 -0.8097  0.1483 -0.5428
  724MOL0     C97667   2.276   4.946   0.524  0.0465  0.4005  0.3454
  724MOL0     C97668   2.401   5.036   0.553  0.0702  0.1301  0.2165
  724MOL0     C97669   2.504   4.950   0.609 -0.9605  0.0679 -0.9504
  724MOL0     C97670   2.601   4.874   0.637  0.3188 -0.2924  0.3546
  724MOL0     C97671   1.844   5.061   0.769  0.0365  0.5839  1.7269
  724MOL0     C97672   1.713   5.017   0.798  0.6957 -0.6179 -0.0034
  724MOL0     H97673   1.258   4.999   0.546  2.5648 -1.5625 -1.2323
  724MOL0     H97674   1.014   4.973   0.541  1.1978  2.8052  3.3932
  724MOL0     H97675   0.856   4.588   0.623 -3.8186 -0.5719 -1.3198
  724MOL0     H97676   0.856   4.631   0.801 -0.2241 -0.1511  0.2511
  724MOL0     H97677   0.648   4.536   0.723 -3.5091 -0.1760 -3.0696
  724MOL0     H97678   0.626   4.708   0.771 -0.1991 -0.9910  0.2665
  724MOL0     H97679   0.663   4.738   0.503 -0.2996 -3.2228 -4.8493
  724MOL0     H97680   0.641   4.561   0.499 -1.7576 -0.0551 -1.5070
  724MOL0     H97681   0.421   4.655   0.455 -1.4114 -3.6143  1.0593
  724MOL0     H97682   0.417   4.580   0.600 -2.1328  1.8057  0.9138
  724MOL0     H97683   0.462   4.800   0.708 -2.1051 -2.0467  1.3669
  724MOL0     H97684   0.449   4.879   0.543  0.4797  1.1340  1.9736
  724MOL0     H97685   0.235   4.759   0.521  0.1722  0.5432 -1.0537
  724MOL0     H97686   0.229   4.738   0.701  0.4290 -1.2673 -0.9132
  724MOL0     H97687   0.239   4.989   0.738  0.0440 -0.8141  0.3961
  724MOL0     H97688   0.252   5.006   0.559  2.3335 -0.5559  0.2227
  724MOL0     H97689   0.027   4.907   0.737 -1.7984 -2.8547 -1.3553
  724MOL0     H97690   0.026   4.862   0.569 -2.0803  2.3006 -0.9318
  724MOL0     H97691  -0.126   5.060   0.434 -2.0834  2.3537 -1.0409
  724MOL0     H97692  -0.183   5.423   0.502  1.4583  0.2500 -0.0905
  724MOL0     H97693  -0.263   5.288   0.403 -1.7290 -1.5741  1.0880
  724MOL0     H97694  -0.393   5.232   0.635  0.7569  1.0432  3.6403
  724MOL0     H97695  -0.445   5.361   0.526 -1.7122 -1.4471  0.4999
  724MOL0     H97696  -0.326   5.530   0.674 -2.0023  1.0165  1.9532
  724MOL0     H97697  -0.289   5.392   0.784 -1.9966 -1.8710  1.4518
  724MOL0     H97698  -0.562   5.487   0.698  0.4578  1.6455  1.0384
  724MOL0     H97699  -0.485   5.493   0.859  1.3573  1.1779 -0.8181
  724MOL0     H97700  -0.647   5.092   0.692  0.9512  1.0787 -2.8584
  724MOL0     H97701  -0.821   4.982   0.550 -1.0978 -0.6879 -0.9968
  724MOL0     H97702  -0.938   4.943   0.689 -1.8738  2.4750  1.2195
  724MOL0     H97703  -0.979   5.052   0.555  0.3697  2.0390 -0.0553
  724MOL0     H97704  -1.369   5.403   0.905 -3.5666  0.4471  1.2764
  724MOL0     H97705  -1.605   5.359   0.893 -0.2829 -2.7143  1.4847
  724MOL0     H97706  -1.649   5.005   0.722 -1.8399 -2.2631  2.3333
  724MOL0     H97707  -1.772   5.071   0.836 -1.4297  2.5457  0.4005
  724MOL0     H97708  -1.886   4.923   0.727 -2.0417  0.1552 -0.5464
  724MOL0     H97709  -1.934   5.067   0.641 -1.2769 -0.2056  6.1107
  724MOL0     H97710  -1.733   4.877   0.524  2.1118  2.6217  1.1808
  724MOL0     H97711  -1.784   5.023   0.448  0.3187  0.5551  1.3312
  724MOL0     H97712  -1.969   4.788   0.516  0.1108 -1.6177 -1.5691
  724MOL0     H97713  -2.020   4.952   0.458  1.2254  2.5431 -3.6861
  724MOL0     H97714  -1.841   4.786   0.291  0.4506 -0.3288  0.9534
  724MOL0     H97715  -1.956   4.902   0.240  1.4659 -0.0523 -0.5874
  724MOL0     H97716  -2.019   4.666   0.196 -3.6290  1.8117 -1.6070
  724MOL0     H97717  -2.032   4.626   0.361 -2.5227 -0.9722  0.1011
  724MOL0     H97718  -2.179   4.872   0.258  0.8454  0.8844  2.1414
  724MOL0     H97719  -2.224   4.750   0.383 -1.5822  1.2362 -0.0001
  724MOL0     H97720  -2.210   4.706   0.079 -1.0675  0.0305 -0.0144
  724MOL0     H97721  -2.349   4.770   0.175  0.7728  1.6989  3.4083
  724MOL0     H97722  -1.552   5.156   0.524 -0.1074  0.7989 -0.3278
  724MOL0     H97723  -1.306   5.179   0.536  1.3960 -0.8622  1.9085
  724MOL0     H97724  -0.972   5.417   0.881 -1.1814 -1.2825  2.1796
  724MOL0     H97725  -0.731   5.468   0.879  0.2735 -0.1670  0.2978
  724MOL0     H97726   1.074   4.598   0.751 -0.8547  0.6924 -1.2433
  724MOL0     H97727   1.308   4.622   0.728  0.0429 -1.3225 -1.4650
  724MOL0     H97728   1.638   4.898   0.483  1.5355 -1.6868 -0.2540
  724MOL0     H97729   1.865   4.948   0.445 -0.6862  1.2243 -0.5044
  724MOL0     H97730   1.988   5.145   0.424 -0.6558  1.9731  0.6950
  724MOL0     H97731   2.129   5.220   0.502 -0.8498 -0.4860 -1.1725
  724MOL0     H97732   2.208   5.051   0.353 -1.3729 -0.3408 -1.0685
  724MOL0     H97733   2.087   4.941   0.402 -0.7005  1.2451 -2.8261
  724MOL0     H97734   2.297   4.853   0.470  1.5585  0.6390  0.4762
  724MOL0     H97735   2.219   4.934   0.617 -0.9971 -1.1795 -0.4432
  724MOL0     H97736   2.382   5.116   0.625  0.5472  0.4883 -0.0526
  724MOL0     H97737   2.446   5.063   0.458 -0.3856 -1.2744 -0.4281
  724MOL0     H97738   2.677   4.803   0.661  0.0631 -0.9931 -0.8398
  724MOL0     H97739   1.905   5.112   0.842 -0.6401  0.8727  2.0974
  724MOL0     H97740   1.676   5.027   0.900 -0.5774  1.2709 -0.6039
  725MOL0     O97741   6.407   9.748   4.972 -0.4384 -0.7873  0.6466
  725MOL0     C97742   6.346   9.857   4.977  0.4003  0.7979  0.0915
  725MOL0     O97743   6.320   9.941   4.875  0.2015 -0.4845  0.1285
  725MOL0     C97744   6.374   9.946   4.744  0.7334  0.5124  0.0110
  725MOL0     C97745   6.467   9.858   4.691 -0.3799 -0.3421 -0.1456
  725MOL0     C97746   6.515   9.875   4.558 -0.4070 -0.4279 -0.1670
  725MOL0     C97747   6.463   9.978   4.476 -0.1292  0.1498 -0.4427
  725MOL0     O97748   6.487   9.999   4.345 -0.2137 -0.4467  0.6577
  725MOL0     C97749   6.582   9.910   4.273 -0.2365 -0.1212 -0.1455
  725MOL0     C97750   6.575   9.930   4.117 -0.4440  0.8506  0.1548
  725MOL0     C97751   6.434   9.955   4.063 -0.3383 -0.0201  0.0652
  725MOL0     C97752   6.424  10.086   3.989 -0.3885  0.1509  0.0963
  725MOL0     C97753   6.295  10.089   3.899 -0.4483 -0.0495 -0.0105
  725MOL0     C97754   6.170  10.101   3.987 -0.6668 -0.3201 -0.2219
  725MOL0     C97755   6.045  10.042   3.908 -0.0282  0.0860  0.2848
  725MOL0     C97756   5.909  10.087   3.965 -0.5196 -0.1243 -0.8225
  725MOL0     N97757   5.804  10.049   3.881 -0.9767  0.5696  0.3164
  725MOL0     C97758   5.731  10.129   3.795  0.1978 -0.3445 -1.0370
  725MOL0     C97759   5.614  10.064   3.769  0.2867  0.1471 -0.3096
  725MOL0     C97760   5.499  10.111   3.683  0.0786  0.5940 -0.4669
  725MOL0     C97761   5.390  10.166   3.773  0.0624 -0.4496 -0.0603
  725MOL0     C97762   5.293  10.259   3.708 -0.9475  0.2159  0.4984
  725MOL0     C97763   5.164  10.296   3.793  0.0029 -0.2697 -0.3795
  725MOL0     O97764   5.096  10.175   3.820 -0.4594  0.0950  0.1947
  725MOL0     C97765   4.994  10.163   3.913  0.1060 -0.1878 -0.4465
  725MOL0     C97766   4.935  10.041   3.928  0.3125  0.4894 -0.7670
  725MOL0     C97767   4.837  10.011   4.031  0.1075  0.7490 -0.3192
  725MOL0     C97768   4.785   9.876   4.054 -0.7932  0.1401 -0.4793
  725MOL0     C97769   4.787  10.119   4.108  0.3369 -0.0105  0.2711
  725MOL0     C97770   4.665  10.113   4.196  0.2747  0.3213  0.4996
  725MOL0     O97771   4.656  10.210   4.291  0.9303 -0.1386  0.2289
  725MOL0     C97772   4.552  10.205   4.384 -0.6359  0.5179 -0.3036
  725MOL0     C97773   4.434  10.268   4.356 -0.4680  0.6114  0.7534
  725MOL0     C97774   4.333  10.285   4.441  0.4546  0.0117 -0.0326
  725MOL0     C97775   4.347  10.241   4.568 -0.3224  0.9775 -0.4831
  725MOL0     O97776   4.256  10.261   4.665  0.6663  0.2803 -0.1894
  725MOL0     C97777   4.115  10.292   4.639 -0.6848  0.4339 -0.0248
  725MOL0     C97778   4.028  10.240   4.756 -0.3113 -0.1303  0.0526
  725MOL0     C97779   3.887  10.301   4.725 -0.3388 -0.0247  0.3723
  725MOL0     C97780   3.787  10.263   4.834  0.2016  0.3143  0.6463
  725MOL0     C97781   3.661  10.358   4.828 -1.0578  0.2414 -0.1956
  725MOL0     C97782   3.558  10.328   4.935  0.2154  0.9838 -0.2681
  725MOL0     C97783   3.601  10.356   5.075 -0.7777 -0.2633  0.0273
  725MOL0     C97784   3.547  10.257   5.181  0.2381  0.6471  0.2436
  725MOL0    Cl97785   3.613  10.085   5.142  0.3570 -0.2191  0.7844
  725MOL0     C97786   4.469  10.186   4.605  0.5587  0.3899 -0.2305
  725MOL0     C97787   4.574  10.173   4.516  0.5649  0.0744  0.5932
  725MOL0     O97788   4.582  10.030   4.169  0.1982  0.5244  0.0248
  725MOL0     C97789   4.850  10.240   4.097 -0.3615 -0.0612  0.3865
  725MOL0     C97790   4.954  10.262   4.005  0.2627  0.0969  0.0475
  725MOL0     N97791   5.622   9.940   3.831  0.4421 -0.2864  0.3153
  725MOL0     N97792   5.731   9.938   3.899 -0.2365  0.4160 -1.1040
  725MOL0     C97793   6.368  10.055   4.526  0.3554  0.0381  0.2941
  725MOL0     C97794   6.322  10.045   4.657 -0.1020 -1.1910 -0.4295
  725MOL0     C97795   6.322   9.897   5.118 -0.2541 -0.1663 -0.2082
  725MOL0     C97796   6.281  10.027   5.152 -0.5764 -0.1607  0.3232
  725MOL0     C97797   6.266  10.080   5.279  0.0728  0.2791  0.1740
  725MOL0     C97798   6.308  10.003   5.383 -0.1713  1.0216  0.1401
  725MOL0     O97799   6.294  10.045   5.518  0.3849  0.0123  0.5079
  725MOL0     C97800   6.328  10.177   5.562  0.2182  0.3443 -0.7284
  725MOL0     C97801   6.450  10.158   5.651  0.8143  0.1238 -1.2063
  725MOL0     C97802   6.586  10.184   5.588 -0.0085 -0.0084 -0.5175
  725MOL0     C97803   6.692  10.130   5.691 -0.7058 -0.2720  0.4349
  725MOL0     C97804   6.825  10.141   5.637  0.1759 -0.3235 -0.4298
  725MOL0     C97805   6.930  10.175   5.597  0.1274 -0.7737  0.2476
  725MOL0     C97806   6.340   9.867   5.366 -0.4410 -0.0998  0.5266
  725MOL0     C97807   6.335   9.812   5.234 -0.2564 -0.6364  0.3590
  725MOL0     H97808   6.514   9.799   4.769  1.1283  2.7346  1.4982
  725MOL0     H97809   6.583   9.795   4.529 -0.0073  0.0480 -0.5723
  725MOL0     H97810   6.687   9.915   4.303  0.1722 -2.7842 -0.8675
  725MOL0     H97811   6.564   9.803   4.288  2.1906 -1.1666 -3.5377
  725MOL0     H97812   6.634  10.020   4.097 -0.7105  0.7724 -1.0418
  725MOL0     H97813   6.604   9.829   4.088 -3.4061 -0.4944  1.4396
  725MOL0     H97814   6.425   9.875   3.989  3.1390  0.1456 -0.7036
  725MOL0     H97815   6.360   9.952   4.144 -0.0552  1.2038  0.3986
  725MOL0     H97816   6.430  10.169   4.059  3.6975  0.6827 -0.6384
  725MOL0     H97817   6.514  10.099   3.929  0.5216 -0.2451  1.3322
  725MOL0     H97818   6.290  10.176   3.832 -2.0178  0.7469  1.0844
  725MOL0     H97819   6.284   9.996   3.842 -1.9475 -0.3456  0.7182
  725MOL0     H97820   6.194  10.044   4.077  1.2431  1.3187  0.3723
  725MOL0     H97821   6.172  10.204   4.022  2.0433 -0.2091 -0.4267
  725MOL0     H97822   6.048  10.085   3.807 -0.7884 -1.3041 -0.3689
  725MOL0     H97823   6.054   9.934   3.896 -1.7214  0.0089 -0.7679
  725MOL0     H97824   5.905  10.194   3.988  0.9919 -0.5686  1.9076
  725MOL0     H97825   5.897  10.039   4.062  1.2248 -0.2675 -0.6423
  725MOL0     H97826   5.760  10.228   3.764 -0.8793  0.6108  0.8611
  725MOL0     H97827   5.524  10.192   3.613 -0.5761  0.0913 -1.3046
  725MOL0     H97828   5.464  10.033   3.616 -0.4194 -0.4490  0.9590
  725MOL0     H97829   5.432  10.220   3.859  1.0955 -2.4798  0.7772
  725MOL0     H97830   5.341  10.075   3.809  1.6035 -2.2246 -2.1277
  725MOL0     H97831   5.269  10.205   3.616 -2.0655  1.8299 -0.1971
  725MOL0     H97832   5.337  10.348   3.664 -0.1808 -0.3424  0.1182
  725MOL0     H97833   5.102  10.368   3.739  0.0281  1.8668  2.2596
  725MOL0     H97834   5.191  10.339   3.890 -0.2831 -4.4287  1.7839
  725MOL0     H97835   4.974   9.967   3.859  1.8851  0.3516  0.2217
  725MOL0     H97836   4.709   9.865   3.975 -2.1540 -1.3451  0.9602
  725MOL0     H97837   4.858   9.795   4.044 -0.7262 -0.1210  1.7154
  725MOL0     H97838   4.720   9.859   4.140 -0.1389  1.4832  0.3012
  725MOL0     H97839   4.422  10.303   4.254 -0.5639  1.8419  1.1773
  725MOL0     H97840   4.238  10.330   4.415  0.8362  0.7685 -0.1326
  725MOL0     H97841   4.105  10.401   4.633  1.1370  0.8250  2.4780
  725MOL0     H97842   4.085  10.232   4.554 -1.5564 -2.2423  2.0479
  725MOL0     H97843   4.038  10.131   4.760  1.4144  0.0335  1.5000
  725MOL0     H97844   4.066  10.277   4.851  0.4142 -0.6110 -0.0400
  725MOL0     H97845   3.851  10.261   4.630  1.7414  0.2711 -0.5855
  725MOL0     H97846   3.889  10.408   4.701 -0.0975 -0.0998  0.0412
  725MOL0     H97847   3.749  10.164   4.808 -0.9540  1.5871 -3.0868
  725MOL0     H97848   3.823  10.280   4.936 -3.4930  1.0306  1.9778
  725MOL0     H97849   3.612  10.363   4.730  1.0796  1.7774 -1.2845
  725MOL0     H97850   3.708  10.455   4.847 -0.7227  0.4694 -2.0087
  725MOL0     H97851   3.466  10.386   4.918 -2.2222 -2.7969 -1.2000
  725MOL0     H97852   3.517  10.227   4.936 -1.1904  1.5274 -0.3906
  725MOL0     H97853   3.561  10.452   5.109 -1.6264 -0.7216  0.3626
  725MOL0     H97854   3.709  10.359   5.091 -0.7867  0.4866 -0.0298
  725MOL0     H97855   3.437  10.248   5.181  0.3356 -0.9960 -0.1644
  725MOL0     H97856   3.581  10.279   5.282 -2.0115  0.6917  1.0455
  725MOL0     H97857   4.489  10.165   4.710  1.0496  0.2988 -0.3413
  725MOL0     H97858   4.671  10.132   4.541  0.4024 -0.9227 -0.3281
  725MOL0     H97859   4.818  10.331   4.147  0.2072  1.1560 -1.3685
  725MOL0     H97860   4.997  10.361   3.999  1.8448 -0.5716 -0.0848
  725MOL0     H97861   6.326  10.130   4.460  0.3132 -0.8032 -0.6635
  725MOL0     H97862   6.246  10.113   4.694  2.1063  2.5035 -2.0663
  725MOL0     H97863   6.268  10.089   5.064 -2.3853 -0.0973  0.6064
  725MOL0     H97864   6.239  10.183   5.295 -0.3619  0.1465  0.3162
  725MOL0     H97865   6.359  10.231   5.472  1.7102 -1.7678 -1.5777
  725MOL0     H97866   6.241  10.216   5.616 -0.6109 -0.0402 -1.7378
  725MOL0     H97867   6.451  10.057   5.692  2.3052 -0.1233 -1.7861
  725MOL0     H97868   6.435  10.219   5.741  3.3506 -1.8956  0.7879
  725MOL0     H97869   6.618  10.286   5.564  2.6121 -0.3476  1.1105
  725MOL0     H97870   6.591  10.140   5.488  0.3838 -3.9419  1.0523
  725MOL0     H97871   6.680  10.024   5.718 -1.1217 -0.6427 -1.1150
  725MOL0     H97872   6.673  10.193   5.779  2.4509  0.1622  0.9112
  725MOL0     H97873   7.021  10.219   5.562 -0.3736  1.4914  1.6275
  725MOL0     H97874   6.372   9.807   5.451  3.6437  0.4142 -0.4505
  725MOL0     H97875   6.367   9.708   5.224  1.6356 -0.1166  0.5540
  726MOL0     O97876   7.904   3.603   4.936  0.4497  0.4687  0.1950
  726MOL0     C97877   7.972   3.615   5.042  0.9746 -0.0587 -0.4269
  726MOL0     O97878   7.946   3.556   5.167  0.2291 -0.6921 -0.1444
  726MOL0     C97879   7.833   3.481   5.190  0.3036  0.2128  1.5711
  726MOL0     C97880   7.819   3.399   5.302  0.2040 -0.6492 -0.0465
  726MOL0     C97881   7.708   3.332   5.338  0.7787  0.2744  0.3746
  726MOL0     C97882   7.591   3.344   5.257 -0.3977  0.5942  0.2156
  726MOL0     O97883   7.486   3.263   5.283 -0.0008  0.2523  0.5970
  726MOL0     C97884   7.355   3.312   5.268  0.3484 -0.7746  0.4109
  726MOL0     C97885   7.269   3.206   5.341 -0.2075 -0.6945 -0.0489
  726MOL0     C97886   7.125   3.229   5.332 -0.0043 -0.1574  0.2491
  726MOL0     C97887   7.059   3.167   5.210 -0.0421  0.0200 -0.2143
  726MOL0     C97888   6.923   3.122   5.245  0.7307  0.2792 -0.1518
  726MOL0     C97889   6.828   3.116   5.122 -0.4633 -0.2781  0.3465
  726MOL0     C97890   6.688   3.054   5.156  0.5811  0.7413 -0.8437
  726MOL0     C97891   6.615   3.018   5.026  0.5360  0.5172 -0.4506
  726MOL0     N97892   6.482   2.968   5.063 -0.4291 -0.8091  0.0070
  726MOL0     C97893   6.387   3.047   5.114  0.7329  0.8542 -0.1255
  726MOL0     C97894   6.274   2.976   5.120  0.0943 -0.4068 -0.0527
  726MOL0     C97895   6.130   3.007   5.140 -0.1482 -0.3314 -0.6182
  726MOL0     C97896   6.050   2.888   5.188 -0.6896  0.7869 -1.3109
  726MOL0     C97897   5.944   2.825   5.088 -1.8043 -0.7824  0.3406
  726MOL0     C97898   5.832   2.924   5.044  0.9371 -0.4008 -0.5562
  726MOL0     O97899   5.745   2.949   5.155 -0.0382 -0.8177 -0.6079
  726MOL0     C97900   5.615   2.986   5.126 -0.5091  0.0863 -0.2486
  726MOL0     C97901   5.517   2.923   5.205  0.5678 -0.3880  0.6257
  726MOL0     C97902   5.378   2.956   5.188 -0.7403 -0.5292  0.1635
  726MOL0     C97903   5.290   2.882   5.294  0.6430 -1.0462 -0.5767
  726MOL0     C97904   5.338   3.048   5.080  0.1080  0.3314 -0.2612
  726MOL0     C97905   5.196   3.081   5.055 -0.6227 -0.0673 -0.4095
  726MOL0     O97906   5.093   3.004   5.103  0.5200  0.0549  0.7749
  726MOL0     C97907   4.969   3.053   5.078  0.3114 -0.0088 -0.0463
  726MOL0     C97908   4.908   3.070   4.954  0.3262  0.3829  0.5688
  726MOL0     C97909   4.772   3.106   4.957  0.0307 -0.0578  0.4272
  726MOL0     C97910   4.699   3.123   5.071 -0.4268  0.3974  0.0482
  726MOL0     O97911   4.572   3.166   5.063 -0.0197  0.3666  0.1475
  726MOL0     C97912   4.462   3.087   5.115  0.3317 -0.2664 -0.1767
  726MOL0     C97913   4.331   3.143   5.056  0.5540  0.0560  0.4952
  726MOL0     C97914   4.301   3.285   5.090 -0.2931  0.6817  0.4914
  726MOL0     C97915   4.159   3.311   5.046 -0.3929  0.1250  0.1335
  726MOL0     C97916   4.116   3.453   5.086  0.2667 -0.2052  0.9327
  726MOL0     C97917   4.004   3.490   4.982 -0.1327  0.7640  0.3763
  726MOL0     C97918   3.920   3.597   5.051 -0.0333 -0.1047 -0.4851
  726MOL0     C97919   3.778   3.602   4.993  0.3610 -0.1901  0.6616
  726MOL0    Cl97920   3.697   3.732   5.090  0.0966 -0.1182  0.3022
  726MOL0     C97921   4.765   3.111   5.189 -0.3599 -0.3576 -0.3762
  726MOL0     C97922   4.894   3.063   5.198 -0.2834 -0.6081  0.6497
  726MOL0     O97923   5.174   3.175   4.973 -0.2405 -0.4274 -1.2316
  726MOL0     C97924   5.441   3.105   5.003 -0.8079 -0.5737  0.2389
  726MOL0     C97925   5.573   3.087   5.035 -0.2434 -0.3454 -0.4646
  726MOL0     N97926   6.308   2.851   5.075  0.6074  1.1066  0.4191
  726MOL0     N97927   6.427   2.850   5.033 -0.0207  0.1070 -0.1137
  726MOL0     C97928   7.598   3.429   5.149  0.7559  0.0485 -0.3733
  726MOL0     C97929   7.714   3.491   5.110 -0.0598  0.0909  0.2636
  726MOL0     C97930   8.090   3.710   5.036 -0.3486  0.0840 -0.1277
  726MOL0     C97931   8.183   3.722   5.145 -1.3771  1.8271 -0.0689
  726MOL0     C97932   8.297   3.796   5.130  0.0380 -0.5872  1.1413
  726MOL0     C97933   8.330   3.852   5.006 -0.1564 -0.7668  0.2263
  726MOL0     O97934   8.458   3.901   4.994  0.1070  0.4791  0.6652
  726MOL0     C97935   8.520   3.911   4.871 -0.5725  0.3306 -0.0075
  726MOL0     C97936   8.662   3.951   4.896  0.1667  0.0071  0.4654
  726MOL0     C97937   8.761   3.936   4.775 -0.5802  0.3932  0.7210
  726MOL0     C97938   8.892   3.850   4.798 -0.2959 -1.5803 -0.7221
  726MOL0     C97939   8.859   3.706   4.780 -0.1049  0.7463 -0.2825
  726MOL0     C97940   8.823   3.587   4.780 -1.2577  0.0547  0.4739
  726MOL0     C97941   8.245   3.845   4.898  0.3007 -0.1149 -0.3033
  726MOL0     C97942   8.123   3.779   4.912  0.0532  0.3152  0.1221
  726MOL0     H97943   7.907   3.384   5.364 -0.3074  0.7747  1.0802
  726MOL0     H97944   7.705   3.265   5.423 -0.9917 -0.8390 -0.5189
  726MOL0     H97945   7.339   3.408   5.319  0.1760 -0.3727 -0.3794
  726MOL0     H97946   7.324   3.318   5.164  0.9736  0.7441  0.2794
  726MOL0     H97947   7.297   3.107   5.305 -1.4406 -0.5559 -1.4507
  726MOL0     H97948   7.292   3.210   5.448  1.4707 -2.3128 -0.2985
  726MOL0     H97949   7.080   3.191   5.424  0.6913 -0.6362  0.4044
  726MOL0     H97950   7.099   3.334   5.342  1.0766 -0.0229  2.1354
  726MOL0     H97951   7.057   3.240   5.128 -1.5640 -2.2647 -2.3597
  726MOL0     H97952   7.114   3.075   5.186 -0.5926 -1.0633  2.3593
  726MOL0     H97953   6.933   3.016   5.272  2.2443  0.6875  1.0078
  726MOL0     H97954   6.884   3.177   5.331 -2.2768 -1.6143 -0.1500
  726MOL0     H97955   6.812   3.217   5.084  2.2981 -0.4623 -1.6071
  726MOL0     H97956   6.867   3.052   5.042  0.7413  0.8923 -0.0391
  726MOL0     H97957   6.690   2.967   5.223  1.7546  2.0139  0.8526
  726MOL0     H97958   6.640   3.130   5.217  1.3948  0.7988 -0.2522
  726MOL0     H97959   6.670   2.942   4.971  1.9768 -1.5388  3.3957
  726MOL0     H97960   6.598   3.106   4.964  2.6157  0.9026 -0.5451
  726MOL0     H97961   6.382   3.152   5.142  1.7294  0.5002  1.5497
  726MOL0     H97962   6.126   3.089   5.212 -1.9829 -0.1817 -0.8494
  726MOL0     H97963   6.092   3.051   5.047  0.0514  0.7730 -0.1899
  726MOL0     H97964   6.008   2.917   5.285  2.1116  0.3713  0.1155
  726MOL0     H97965   6.120   2.809   5.216 -1.2394  0.1193 -1.7730
  726MOL0     H97966   5.901   2.737   5.136 -2.1688  0.2139  1.9493
  726MOL0     H97967   5.988   2.807   4.990 -2.3781  1.9110 -0.4922
  726MOL0     H97968   5.769   2.894   4.960 -1.4638  2.3431  0.0603
  726MOL0     H97969   5.875   3.022   5.023 -1.5948  0.8707 -0.1941
  726MOL0     H97970   5.552   2.854   5.281  1.4393  2.2052  2.7271
  726MOL0     H97971   5.350   2.818   5.359 -0.1909 -1.8026 -0.5418
  726MOL0     H97972   5.255   2.957   5.365  2.0404  0.0716 -1.0300
  726MOL0     H97973   5.202   2.836   5.248 -2.2151  2.1184  1.3593
  726MOL0     H97974   4.955   3.067   4.857  1.6122 -3.6099  1.1504
  726MOL0     H97975   4.721   3.121   4.862  0.3414 -0.3902  0.2058
  726MOL0     H97976   4.486   2.983   5.090  1.9566  0.1801 -0.5839
  726MOL0     H97977   4.454   3.103   5.223  3.7158  0.5539  0.0605
  726MOL0     H97978   4.348   3.136   4.948  0.4293  0.2106  0.4662
  726MOL0     H97979   4.243   3.081   5.072  0.4649  0.0625  0.0545
  726MOL0     H97980   4.373   3.350   5.040  0.0477  0.9646  1.3406
  726MOL0     H97981   4.306   3.298   5.198 -1.5812  4.0038  0.2614
  726MOL0     H97982   4.158   3.297   4.938  2.6860 -3.7588  0.3736
  726MOL0     H97983   4.094   3.234   5.088  1.1816 -1.0998  0.4258
  726MOL0     H97984   4.203   3.519   5.081  1.6357 -1.7218  3.2783
  726MOL0     H97985   4.084   3.462   5.190  1.8491  3.7799  1.2827
  726MOL0     H97986   4.029   3.509   4.878 -0.8453 -0.6250 -0.0873
  726MOL0     H97987   3.946   3.397   4.973  0.1030  0.6986 -0.5713
  726MOL0     H97988   3.970   3.694   5.048  0.2179  0.0429  3.6698
  726MOL0     H97989   3.921   3.583   5.159  0.3221 -2.5432 -0.7417
  726MOL0     H97990   3.723   3.509   5.009 -0.1551 -0.1039 -0.5067
  726MOL0     H97991   3.789   3.632   4.888  0.3889 -3.4781 -0.3935
  726MOL0     H97992   4.705   3.144   5.274  2.1338 -1.4756  1.9608
  726MOL0     H97993   4.937   3.048   5.297 -1.6952 -0.3484  1.3253
  726MOL0     H97994   5.414   3.184   4.934  0.6084 -0.4317 -0.1781
  726MOL0     H97995   5.656   3.125   4.975 -0.3885 -1.7802 -1.6298
  726MOL0     H97996   7.512   3.438   5.085  1.8097  1.4302 -1.6694
  726MOL0     H97997   7.696   3.557   5.025 -0.5179  1.0652  1.1015
  726MOL0     H97998   8.180   3.664   5.237  3.3918  3.5727  1.5099
  726MOL0     H97999   8.366   3.819   5.210  0.9602 -0.3066  0.2845
  726MOL0     H98000   8.519   3.813   4.823 -2.2923 -0.3830  1.3654
  726MOL0     H98001   8.474   3.991   4.811 -0.7246 -0.6510 -1.2471
  726MOL0     H98002   8.699   3.882   4.973 -1.3467 -1.8432 -0.3939
  726MOL0     H98003   8.654   4.053   4.934 -1.1151  0.7049 -1.5295
  726MOL0     H98004   8.792   4.030   4.728  0.3616 -0.8563 -1.2929
  726MOL0     H98005   8.718   3.873   4.696  3.2586 -0.3647 -1.0063
  726MOL0     H98006   8.913   3.869   4.903 -3.0877 -1.8655 -0.0308
  726MOL0     H98007   8.969   3.885   4.729  1.1047  0.0805  1.5458
  726MOL0     H98008   8.795   3.485   4.802  2.6167 -1.8952 -2.4185
  726MOL0     H98009   8.267   3.906   4.811 -0.4039  0.4559 -0.0921
  726MOL0     H98010   8.042   3.773   4.840  0.0845 -3.3129  0.1860
  727MOL0     O98011   4.227   3.865   6.877  0.3771 -0.6242 -0.2452
  727MOL0     C98012   4.251   3.976   6.832 -0.7108  0.2766  0.8811
  727MOL0     O98013   4.162   4.081   6.828  0.6260  0.1539 -0.1114
  727MOL0     C98014   4.036   4.083   6.877 -0.1833 -0.0093  0.1245
  727MOL0     C98015   3.951   3.978   6.861  0.2241 -0.5815  0.4823
  727MOL0     C98016   3.815   3.989   6.890  0.2251  0.4277 -0.1963
  727MOL0     C98017   3.762   4.110   6.939  1.1858  0.2769  0.0887
  727MOL0     O98018   3.630   4.138   6.980  0.1981 -0.6230  0.5135
  727MOL0     C98019   3.527   4.046   6.948  0.1391  0.8255  0.0325
  727MOL0     C98020   3.384   4.095   6.986 -0.2403 -0.1385  0.0755
  727MOL0     C98021   3.268   3.994   6.960  0.6833 -0.3596 -0.2083
  727MOL0     C98022   3.260   3.947   6.816  0.0605  0.0966  0.7937
  727MOL0     C98023   3.159   3.832   6.801 -0.3339  0.0659  1.0157
  727MOL0     C98024   3.137   3.787   6.656 -0.0147 -0.0110  0.1289
  727MOL0     C98025   3.024   3.674   6.649 -0.4485 -0.5747 -0.2808
  727MOL0     C98026   3.055   3.565   6.542  0.6674 -0.1529 -0.5048
  727MOL0     N98027   3.006   3.596   6.411  0.3685  0.1704  0.6132
  727MOL0     C98028   3.037   3.527   6.297 -0.2282  0.3380 -0.2745
  727MOL0     C98029   2.993   3.601   6.198 -0.7482 -0.4616  0.3974
  727MOL0     C98030   3.007   3.576   6.052 -0.8297 -0.3750  1.0447
  727MOL0     C98031   2.943   3.450   5.996 -0.5231  0.4777 -0.0818
  727MOL0     C98032   2.958   3.432   5.840  0.3303 -0.4485  0.5251
  727MOL0     C98033   2.939   3.288   5.803 -0.0609  0.1512 -0.2617
  727MOL0     O98034   2.818   3.223   5.854 -0.4566  0.3730  0.2668
  727MOL0     C98035   2.697   3.248   5.799 -0.4795 -0.6148  0.1424
  727MOL0     C98036   2.587   3.229   5.877 -0.0396  0.3258  0.3450
  727MOL0     C98037   2.457   3.242   5.826  0.5516  0.2874 -0.5138
  727MOL0     C98038   2.343   3.198   5.922 -0.9159 -0.3753  0.2301
  727MOL0     C98039   2.431   3.306   5.700  0.0401  1.2120  0.3438
  727MOL0     C98040   2.297   3.347   5.653 -0.1045  0.4469  0.3103
  727MOL0     O98041   2.290   3.377   5.519  0.2711 -0.1679  0.5713
  727MOL0     C98042   2.162   3.434   5.478 -0.1224  0.8399  0.3202
  727MOL0     C98043   2.126   3.563   5.529 -0.4458  0.3072  0.8749
  727MOL0     C98044   2.007   3.614   5.483  0.5538 -0.2561 -0.4892
  727MOL0     C98045   1.912   3.545   5.411  0.0384  0.8493  0.6754
  727MOL0     O98046   1.808   3.622   5.356  0.0064 -0.2402 -0.7871
  727MOL0     C98047   1.726   3.592   5.244 -0.5129 -0.1148  0.0679
  727MOL0     C98048   1.627   3.706   5.211 -0.4503 -0.6566 -0.8506
  727MOL0     C98049   1.534   3.667   5.096  0.0588  0.0005 -0.5249
  727MOL0     C98050   1.466   3.790   5.039 -0.4861  0.4172  0.5067
  727MOL0     C98051   1.440   3.777   4.892  0.5808  0.1289  0.8312
  727MOL0     C98052   1.342   3.660   4.857  0.4491  0.1595  0.2719
  727MOL0     C98053   1.324   3.640   4.706 -1.5802 -0.0147  0.5837
  727MOL0     C98054   1.248   3.765   4.655 -0.4323  0.0076 -0.6743
  727MOL0    Cl98055   1.082   3.784   4.738 -0.1354 -0.1397 -0.3009
  727MOL0     C98056   1.942   3.412   5.377  0.9336 -0.2894  0.6157
  727MOL0     C98057   2.064   3.354   5.413 -0.4069  0.6675  0.8078
  727MOL0     O98058   2.198   3.335   5.725  0.2320  0.2274  0.1260
  727MOL0     C98059   2.545   3.339   5.625  0.5221 -0.1741  0.4461
  727MOL0     C98060   2.672   3.299   5.670 -1.0487  0.2496 -0.1082
  727MOL0     N98061   2.913   3.704   6.248  0.2096  0.2374 -0.0957
  727MOL0     N98062   2.914   3.697   6.377  0.1608 -0.5753  0.0082
  727MOL0     C98063   3.857   4.210   6.955 -0.1378 -0.6399  0.1803
  727MOL0     C98064   3.988   4.203   6.917 -0.2114 -0.9745 -0.8905
  727MOL0     C98065   4.390   3.993   6.783  0.2288 -0.7308  0.2473
  727MOL0     C98066   4.487   3.885   6.782 -0.2305  0.0683 -0.3928
  727MOL0     C98067   4.613   3.907   6.735  0.6133  0.4125 -0.7925
  727MOL0     C98068   4.647   4.029   6.681 -0.3172  0.0768  0.1023
  727MOL0     O98069   4.772   4.048   6.633 -0.4164 -0.1025 -0.1695
  727MOL0     C98070   4.870   4.060   6.726 -1.3743  0.9477  0.4320
  727MOL0     C98071   4.947   4.189   6.709  0.0081  0.6838  0.1066
  727MOL0     C98072   5.002   4.206   6.566 -0.3468  0.2169 -0.2608
  727MOL0     C98073   5.112   4.306   6.552  0.7771  0.4741  0.1188
  727MOL0     C98074   5.229   4.273   6.634  0.3019  0.1700 -0.0812
  727MOL0     C98075   5.321   4.240   6.706 -0.3832 -0.7330 -0.4953
  727MOL0     C98076   4.561   4.138   6.686 -0.3537  0.1638  0.1341
  727MOL0     C98077   4.435   4.115   6.739  0.1183 -0.5520 -0.0348
  727MOL0     H98078   3.988   3.893   6.804 -2.9709 -0.2525 -2.4104
  727MOL0     H98079   3.745   3.907   6.880  2.4511 -1.4797 -1.1282
  727MOL0     H98080   3.548   4.038   6.841  3.0994 -2.2346  0.6591
  727MOL0     H98081   3.543   3.945   6.988 -0.5101  0.4916 -0.5224
  727MOL0     H98082   3.381   4.114   7.094 -2.9401  0.1355  0.0060
  727MOL0     H98083   3.348   4.189   6.944 -2.8147 -0.1361  2.0620
  727MOL0     H98084   3.280   3.907   7.025 -2.1675 -0.8302 -0.1864
  727MOL0     H98085   3.174   4.041   6.991  1.2729 -0.4641  1.9543
  727MOL0     H98086   3.218   4.022   6.749 -3.2244 -0.9648  1.4918
  727MOL0     H98087   3.354   3.914   6.771 -1.6074  0.5191 -3.4668
  727MOL0     H98088   3.188   3.751   6.869  0.0360  1.5069  2.6370
  727MOL0     H98089   3.059   3.856   6.839 -0.6619 -0.5288  0.5466
  727MOL0     H98090   3.109   3.876   6.598 -0.5840 -0.9495 -1.0594
  727MOL0     H98091   3.223   3.741   6.607 -1.4868 -1.4731 -1.1825
  727MOL0     H98092   3.024   3.623   6.746 -0.6414  1.9065  1.1132
  727MOL0     H98093   2.927   3.722   6.634 -0.9925 -1.3396  0.6742
  727MOL0     H98094   3.013   3.467   6.569 -0.5152 -0.4936 -3.2523
  727MOL0     H98095   3.164   3.557   6.537  1.2697  3.7005  1.9078
  727MOL0     H98096   3.108   3.445   6.297 -0.5588 -0.0097 -2.8073
  727MOL0     H98097   2.957   3.655   5.996 -0.2922 -1.3759 -0.9161
  727MOL0     H98098   3.113   3.564   6.030 -1.3315  0.1714 -2.0168
  727MOL0     H98099   2.836   3.458   6.015 -0.7714  0.9722 -1.5342
  727MOL0     H98100   2.997   3.367   6.042  2.6804  1.8860 -0.9962
  727MOL0     H98101   3.056   3.475   5.821  0.7268 -1.3137  0.6015
  727MOL0     H98102   2.881   3.490   5.787 -1.4046 -3.0131  0.0609
  727MOL0     H98103   3.028   3.247   5.852  0.8267 -0.7337 -2.4994
  727MOL0     H98104   2.947   3.271   5.695 -0.4122 -2.9586  0.0964
  727MOL0     H98105   2.600   3.183   5.975  1.4664 -1.7265 -0.7211
  727MOL0     H98106   2.276   3.123   5.881 -1.0971 -0.3052  0.3965
  727MOL0     H98107   2.383   3.156   6.015 -1.3122  1.1181  1.1156
  727MOL0     H98108   2.279   3.285   5.941  0.0249  0.4973 -0.4667
  727MOL0     H98109   2.187   3.618   5.600  1.7555 -0.0907 -0.5850
  727MOL0     H98110   1.990   3.721   5.493 -0.7210 -0.1669 -2.9283
  727MOL0     H98111   1.786   3.588   5.152 -2.3445  1.1154 -1.2641
  727MOL0     H98112   1.681   3.493   5.254 -0.3015 -0.2640 -0.4366
  727MOL0     H98113   1.571   3.737   5.300  1.5966 -1.4877  0.8120
  727MOL0     H98114   1.685   3.794   5.182 -3.2599  1.6202 -0.0253
  727MOL0     H98115   1.460   3.592   5.127 -2.2450  2.5867  0.6401
  727MOL0     H98116   1.601   3.631   5.017  1.3404  0.8783  0.1373
  727MOL0     H98117   1.377   3.809   5.100  0.4299 -0.2262  2.1175
  727MOL0     H98118   1.525   3.880   5.057 -0.5105  0.8880 -1.5886
  727MOL0     H98119   1.538   3.767   4.843  1.2285  1.5430  1.7691
  727MOL0     H98120   1.401   3.874   4.859 -0.8430 -0.5375  0.4846
  727MOL0     H98121   1.393   3.571   4.893 -2.3838 -2.3047 -1.3363
  727MOL0     H98122   1.241   3.656   4.899 -1.0666 -0.5308 -3.0822
  727MOL0     H98123   1.261   3.554   4.683  1.5900 -3.1265  2.7153
  727MOL0     H98124   1.418   3.632   4.650 -1.8294  0.2572  0.1104
  727MOL0     H98125   1.239   3.756   4.546  1.6417  2.6296 -1.1743
  727MOL0     H98126   1.311   3.850   4.684 -1.2746  0.1879  0.7295
  727MOL0     H98127   1.865   3.366   5.316  1.0877 -0.0382  0.2291
  727MOL0     H98128   2.073   3.248   5.390 -0.4022  0.9993 -0.8757
  727MOL0     H98129   2.540   3.386   5.527 -1.8332 -1.0197  0.0876
  727MOL0     H98130   2.758   3.322   5.608 -1.3278 -2.2916 -1.5785
  727MOL0     H98131   3.818   4.304   6.992  3.9415  0.6025  1.9027
  727MOL0     H98132   4.043   4.296   6.914 -2.0694  0.2781  1.1433
  727MOL0     H98133   4.456   3.786   6.812 -3.5951  1.4498  1.2884
  727MOL0     H98134   4.692   3.833   6.740  0.3613  0.2234  0.6742
  727MOL0     H98135   4.823   4.063   6.825 -0.4135  1.3803  0.8780
  727MOL0     H98136   4.947   3.985   6.710 -2.9415 -0.6995  0.2584
  727MOL0     H98137   5.030   4.180   6.779 -0.4305  1.6707  0.7787
  727MOL0     H98138   4.886   4.275   6.739  0.0668  0.5546  0.5922
  727MOL0     H98139   4.923   4.236   6.496 -0.9086  0.6063  0.5307
  727MOL0     H98140   5.040   4.111   6.527 -1.3341 -0.1688 -0.3013
  727MOL0     H98141   5.082   4.410   6.568 -1.9661 -0.1881 -0.2334
  727MOL0     H98142   5.136   4.307   6.445  0.7393  1.1018  0.1165
  727MOL0     H98143   5.397   4.229   6.781 -0.1463 -0.8535 -0.7523
  727MOL0     H98144   4.599   4.234   6.651 -2.4581  0.1399 -2.5243
  727MOL0     H98145   4.366   4.199   6.743  3.3672  2.3517  1.0598
  728MOL0     O98146   0.654   4.241   9.602  0.9829  0.6430  0.7405
  728MOL0     C98147   0.695   4.316   9.515 -1.1138  0.6195  0.1387
  728MOL0     O98148   0.635   4.357   9.404 -0.8517  0.7080  0.3233
  728MOL0     C98149   0.498   4.321   9.382  0.0172 -0.8065 -0.5758
  728MOL0     C98150   0.465   4.265   9.257  0.5729 -0.4895  1.2383
  728MOL0     C98151   0.334   4.208   9.235  0.2033  0.1302 -0.9317
  728MOL0     C98152   0.240   4.210   9.344  0.5584 -0.2933 -0.1684
  728MOL0     O98153   0.109   4.165   9.346  0.0065  0.1119 -0.1745
  728MOL0     C98154   0.059   4.091   9.234 -0.6746 -0.1225 -0.5911
  728MOL0     C98155  -0.089   4.046   9.253 -0.1514  0.7003 -0.5319
  728MOL0     C98156  -0.192   4.161   9.265  0.2984  0.3107  0.4442
  728MOL0     C98157  -0.333   4.094   9.281 -0.1810 -0.3435 -0.6350
  728MOL0     C98158  -0.437   4.188   9.335 -0.3961 -0.4349 -0.2213
  728MOL0     C98159  -0.571   4.121   9.333  0.6455 -0.3114 -0.0636
  728MOL0     C98160  -0.684   4.228   9.321  0.0371 -0.8162  0.9015
  728MOL0     C98161  -0.708   4.315   9.448 -0.9746  0.3041  0.6794
  728MOL0     N98162  -0.847   4.326   9.474  0.1058  0.2234 -0.8978
  728MOL0     C98163  -0.897   4.297   9.596  0.1955  0.0657  0.5977
  728MOL0     C98164  -1.025   4.324   9.588  0.7368  0.1636 -0.7369
  728MOL0     C98165  -1.125   4.307   9.697  0.1003  0.5654  0.3870
  728MOL0     C98166  -1.204   4.432   9.732  0.1826 -0.6052  0.6389
  728MOL0     C98167  -1.270   4.420   9.861  0.3633 -0.3576  0.4526
  728MOL0     C98168  -1.384   4.324   9.869 -0.4596 -0.9001  0.1963
  728MOL0     O98169  -1.491   4.363   9.789 -0.2047 -0.6142 -0.2472
  728MOL0     C98170  -1.607   4.288   9.786 -0.4419  0.0838  0.0217
  728MOL0     C98171  -1.664   4.273   9.660 -0.3883 -0.4058  0.5772
  728MOL0     C98172  -1.789   4.217   9.644 -0.5295 -0.3114 -0.6466
  728MOL0     C98173  -1.849   4.219   9.504  0.1906 -0.3709  0.5339
  728MOL0     C98174  -1.854   4.163   9.758  0.6186  0.3344  0.3956
  728MOL0     C98175  -1.991   4.096   9.754  0.1728 -0.3111  0.4209
  728MOL0     O98176  -2.002   3.973   9.815  0.1314  0.1949 -0.0121
  728MOL0     C98177  -2.125   3.914   9.815  0.8161  0.4156 -0.3230
  728MOL0     C98178  -2.134   3.802   9.739  0.3053  0.5165  0.2942
  728MOL0     C98179  -2.256   3.734   9.723 -0.1613  0.2559 -0.4090
  728MOL0     C98180  -2.371   3.790   9.772  0.5670 -0.6549 -0.5068
  728MOL0     O98181  -2.489   3.721   9.741 -0.4785 -0.3394  0.1229
  728MOL0     C98182  -2.610   3.792   9.768  0.0877  0.0935  0.8936
  728MOL0     C98183  -2.729   3.724   9.701  0.2989  0.6964 -0.3530
  728MOL0     C98184  -2.748   3.579   9.742  0.4132 -0.5779 -1.0226
  728MOL0     C98185  -2.871   3.523   9.672 -0.0610  0.7121  0.4698
  728MOL0     C98186  -3.009   3.574   9.716  1.1269 -0.5525 -0.2960
  728MOL0     C98187  -3.040   3.520   9.861 -0.4463  0.3599  0.4432
  728MOL0     C98188  -3.188   3.544   9.896  0.0205  0.0492 -0.0481
  728MOL0     C98189  -3.275   3.438   9.828 -0.2474  0.2635 -0.0391
  728MOL0    Cl98190  -3.279   3.293   9.921  0.1077 -0.0839 -0.5255
  728MOL0     C98191  -2.359   3.899   9.858 -0.0572 -0.6174 -0.1166
  728MOL0     C98192  -2.237   3.963   9.882  0.1665  0.5898 -0.5633
  728MOL0     O98193  -2.084   4.146   9.696  0.6986 -0.0206 -0.1768
  728MOL0     C98194  -1.795   4.171   9.884 -0.5855 -0.5880  0.7498
  728MOL0     C98195  -1.668   4.238   9.899 -0.1303 -0.8678  0.0129
  728MOL0     N98196  -1.056   4.387   9.469  0.0486  0.3505  0.0123
  728MOL0     N98197  -0.943   4.391   9.398 -0.3088 -0.1491 -0.0993
  728MOL0     C98198   0.279   4.258   9.464 -0.0443  0.0245 -0.2308
  728MOL0     C98199   0.401   4.318   9.489  0.2488  0.0501  0.1397
  728MOL0     C98200   0.828   4.375   9.541 -0.3646 -0.4379  0.1115
  728MOL0     C98201   0.910   4.322   9.638 -0.6176  0.9311 -0.4025
  728MOL0     C98202   1.032   4.381   9.653  0.4002 -1.1646  0.8818
  728MOL0     C98203   1.077   4.508   9.590  0.8177  1.2585  0.4999
  728MOL0     O98204   1.193   4.573   9.608  0.2677  0.3619 -0.0526
  728MOL0     C98205   1.283   4.516   9.709  0.0412 -0.3873 -0.1932
  728MOL0     C98206   1.377   4.634   9.740  0.5837  0.3675  0.7461
  728MOL0     C98207   1.480   4.632   9.617 -0.2207 -0.3720  0.5889
  728MOL0     C98208   1.600   4.732   9.622  0.2911 -0.0328 -0.0066
  728MOL0     C98209   1.570   4.879   9.609  0.7697 -0.8176 -0.6245
  728MOL0     C98210   1.534   4.995   9.627  0.3813  0.6576  0.5071
  728MOL0     C98211   0.986   4.565   9.499  0.3894  0.1075  0.4222
  728MOL0     C98212   0.867   4.491   9.472 -0.0727 -0.7619 -0.9253
  728MOL0     H98213   0.547   4.269   9.186  0.2089  0.5747  0.8483
  728MOL0     H98214   0.310   4.168   9.137  0.4610 -2.6182  0.0399
  728MOL0     H98215   0.059   4.141   9.136 -0.7082  1.2773  0.0995
  728MOL0     H98216   0.125   4.004   9.226 -0.4781 -0.0917  0.6258
  728MOL0     H98217  -0.113   3.965   9.183 -0.0247 -0.7523  1.0386
  728MOL0     H98218  -0.089   4.007   9.355  1.5373  2.2113  0.0996
  728MOL0     H98219  -0.174   4.231   9.347 -0.2790  1.6720 -0.5644
  728MOL0     H98220  -0.176   4.219   9.173 -0.5516 -1.1636 -0.6735
  728MOL0     H98221  -0.365   4.051   9.186 -3.3859 -1.8147  0.9435
  728MOL0     H98222  -0.329   4.009   9.349 -0.7772 -0.1793 -0.3789
  728MOL0     H98223  -0.404   4.226   9.432  2.6457  1.0410 -1.7159
  728MOL0     H98224  -0.431   4.275   9.269  0.1136  1.4476  2.1742
  728MOL0     H98225  -0.573   4.047   9.253  1.1277  0.3005 -0.6557
  728MOL0     H98226  -0.584   4.062   9.424  3.2990  0.6389  1.0249
  728MOL0     H98227  -0.674   4.280   9.225 -0.2132 -0.6602  0.9583
  728MOL0     H98228  -0.777   4.176   9.300  1.8411 -3.1535 -2.1063
  728MOL0     H98229  -0.661   4.412   9.433 -1.1647  0.1868 -0.8280
  728MOL0     H98230  -0.666   4.262   9.534  0.6162 -1.3577 -1.0379
  728MOL0     H98231  -0.853   4.254   9.685 -4.0445 -0.5310  2.6626
  728MOL0     H98232  -1.182   4.218   9.667 -0.2792  1.0051 -0.2141
  728MOL0     H98233  -1.073   4.270   9.786  0.2243  0.6260  0.3391
  728MOL0     H98234  -1.273   4.464   9.653 -1.1546 -0.6216  1.7817
  728MOL0     H98235  -1.128   4.509   9.752 -1.6827  0.5968  3.5785
  728MOL0     H98236  -1.308   4.520   9.886  1.3963  0.7330 -2.0201
  728MOL0     H98237  -1.193   4.387   9.931  0.6127 -0.6673  0.0359
  728MOL0     H98238  -1.417   4.319   9.973 -5.4098  1.4018 -0.9250
  728MOL0     H98239  -1.342   4.232   9.827  2.6575 -0.1116  1.3104
  728MOL0     H98240  -1.610   4.307   9.572 -0.8308 -0.2617  0.3591
  728MOL0     H98241  -1.912   4.308   9.491  1.8205  0.7581  0.0010
  728MOL0     H98242  -1.775   4.210   9.423 -2.3681 -1.5805 -1.8274
  728MOL0     H98243  -1.907   4.130   9.480  2.3645 -1.5391 -0.7267
  728MOL0     H98244  -2.050   3.781   9.674  0.4315  3.2441 -0.5267
  728MOL0     H98245  -2.251   3.641   9.667  1.9473  0.6137 -0.9292
  728MOL0     H98246  -2.622   3.794   9.877  1.0820  4.0081  1.0929
  728MOL0     H98247  -2.589   3.892   9.729 -0.2938 -0.6931 -1.4624
  728MOL0     H98248  -2.813   3.781   9.740  0.0359  0.3284 -0.3795
  728MOL0     H98249  -2.721   3.730   9.592 -0.2461 -0.0127 -0.4411
  728MOL0     H98250  -2.759   3.568   9.850 -1.5046  0.1552 -1.0924
  728MOL0     H98251  -2.654   3.538   9.704  2.3265  1.9284  0.6995
  728MOL0     H98252  -2.861   3.550   9.566  0.7898  2.3230  0.9262
  728MOL0     H98253  -2.857   3.415   9.670 -1.7192  0.4689 -0.5871
  728MOL0     H98254  -3.087   3.548   9.644  0.9386 -0.3379 -0.1711
  728MOL0     H98255  -3.012   3.683   9.724 -4.1994 -0.5461  1.1216
  728MOL0     H98256  -3.022   3.413   9.858 -1.0620  0.2700 -0.8909
  728MOL0     H98257  -2.966   3.567   9.927  0.9072  0.5230 -1.1149
  728MOL0     H98258  -3.213   3.647   9.867 -0.3192 -0.0875 -0.2450
  728MOL0     H98259  -3.199   3.524  10.003 -1.7640  2.4114  0.2754
  728MOL0     H98260  -3.229   3.415   9.731  0.0289 -1.9225  0.5541
  728MOL0     H98261  -3.382   3.463   9.830 -0.5073 -0.7469 -0.3604
  728MOL0     H98262  -2.445   3.941   9.909 -0.4134 -2.4546  0.8516
  728MOL0     H98263  -2.232   4.055   9.939  1.0580  0.5637 -0.5846
  728MOL0     H98264  -1.844   4.134   9.973  0.4650 -3.1024  0.3726
  728MOL0     H98265  -1.619   4.247   9.995 -1.5489 -0.3483  0.7102
  728MOL0     H98266   0.196   4.272   9.533 -1.0911  0.8092 -1.5947
  728MOL0     H98267   0.424   4.372   9.581  1.0890  3.2258 -1.7797
  728MOL0     H98268   0.897   4.224   9.684  2.1024  0.4097 -0.5901
  728MOL0     H98269   1.102   4.328   9.717  0.5619  1.0998  2.6990
  728MOL0     H98270   1.226   4.487   9.797  0.2854  2.7392  1.1516
  728MOL0     H98271   1.343   4.434   9.669 -1.1178 -0.3998 -2.0171
  728MOL0     H98272   1.440   4.619   9.828  2.0125 -1.5545 -0.4880
  728MOL0     H98273   1.320   4.727   9.743  2.5331  1.7276 -0.8951
  728MOL0     H98274   1.421   4.671   9.533  1.5119  3.2502  0.8753
  728MOL0     H98275   1.523   4.532   9.602 -2.5203 -1.6150  1.6497
  728MOL0     H98276   1.656   4.710   9.531 -0.0322 -0.7138 -0.0439
  728MOL0     H98277   1.663   4.722   9.711 -1.5639  1.5919  1.5867
  728MOL0     H98278   1.500   5.095   9.643  0.4099  0.5781  1.1123
  728MOL0     H98279   1.013   4.659   9.452 -0.0256  0.7667  1.4816
  728MOL0     H98280   0.800   4.540   9.401  0.0600  0.9380  0.0649
  729MOL0     O98281   6.307   1.806   9.671  0.4825 -0.2142  0.0189
  729MOL0     C98282   6.363   1.825   9.780 -0.3093 -0.1019  0.3677
  729MOL0     O98283   6.317   1.905   9.885 -0.2941  1.0107  0.0861
  729MOL0     C98284   6.181   1.925   9.879 -0.9722  0.0813 -0.3212
  729MOL0     C98285   6.127   2.016   9.793 -0.3247 -0.3390 -0.2646
  729MOL0     C98286   5.998   2.056   9.794 -0.6596  0.8322  0.1240
  729MOL0     C98287   5.916   2.013   9.893 -0.0242 -0.5623  0.2335
  729MOL0     O98288   5.783   2.053   9.879 -0.2419 -1.0005 -0.7232
  729MOL0     C98289   5.708   2.059  10.001 -0.5182 -0.0544  0.0754
  729MOL0     C98290   5.565   2.106   9.979  0.1065 -0.1387  0.6079
  729MOL0     C98291   5.567   2.249   9.930 -1.2121 -0.9636 -0.2152
  729MOL0     C98292   5.434   2.325   9.937 -0.4283  0.0074  0.0581
  729MOL0     C98293   5.330   2.270   9.835  0.6560  0.2450  0.0091
  729MOL0     C98294   5.192   2.351   9.838 -1.2235  0.2532  0.1643
  729MOL0     C98295   5.082   2.268   9.776 -0.5876 -0.3021  0.6002
  729MOL0     C98296   5.115   2.260   9.626 -0.0095  0.6349 -0.1603
  729MOL0     N98297   4.999   2.216   9.548  0.5533 -0.0256  0.0583
  729MOL0     C98298   4.899   2.298   9.508 -0.2823 -0.8281  0.7888
  729MOL0     C98299   4.816   2.214   9.441  0.2506 -0.6160 -1.0907
  729MOL0     C98300   4.683   2.252   9.384 -0.1798  0.5617 -0.7129
  729MOL0     C98301   4.702   2.230   9.234 -0.5101 -1.1172  0.3759
  729MOL0     C98302   4.580   2.288   9.161  0.3333 -0.4912 -0.0388
  729MOL0     C98303   4.603   2.307   9.014  0.1653 -0.9171  0.9447
  729MOL0     O98304   4.536   2.200   8.939  0.5429 -0.2239  0.1974
  729MOL0     C98305   4.398   2.206   8.934  0.0128  0.5381  0.2848
  729MOL0     C98306   4.345   2.077   8.925 -0.2074  0.2399 -0.6672
  729MOL0     C98307   4.207   2.055   8.906  0.2759 -0.7484  0.2744
  729MOL0     C98308   4.174   1.909   8.876  0.1563 -0.3176  1.1244
  729MOL0     C98309   4.118   2.167   8.909  0.3888 -0.2544 -0.3271
  729MOL0     C98310   3.977   2.151   8.876  1.1546  0.7341 -0.0580
  729MOL0     O98311   3.887   2.228   8.952 -0.2001 -0.4657  0.1618
  729MOL0     C98312   3.762   2.239   8.899 -0.4040 -0.2606 -0.1061
  729MOL0     C98313   3.660   2.175   8.955 -0.1767 -0.3395 -0.2132
  729MOL0     C98314   3.531   2.186   8.921  1.1093 -0.7493  0.9578
  729MOL0     C98315   3.496   2.280   8.823  0.2865 -0.2340  0.6134
  729MOL0     O98316   3.369   2.288   8.774  0.5311  0.2271  0.0785
  729MOL0     C98317   3.296   2.166   8.773  0.4609 -0.4123 -0.9614
  729MOL0     C98318   3.171   2.183   8.687 -0.8848 -1.0735  0.4908
  729MOL0     C98319   3.084   2.059   8.683  0.3133 -0.3454 -0.0663
  729MOL0     C98320   2.953   2.086   8.615  0.2786 -0.2317 -0.0312
  729MOL0     C98321   2.850   2.155   8.702  0.5235  0.3797 -0.0042
  729MOL0     C98322   2.729   2.196   8.617 -0.4975 -0.5154  0.2691
  729MOL0     C98323   2.656   2.071   8.559 -0.0599 -0.4660 -0.4031
  729MOL0     C98324   2.533   2.097   8.478  1.2600 -0.5620  0.6844
  729MOL0    Cl98325   2.577   2.212   8.347 -0.1199 -0.1170 -0.2706
  729MOL0     C98326   3.597   2.357   8.763 -0.1885  0.5148 -0.2333
  729MOL0     C98327   3.731   2.336   8.798  0.3973 -0.0585 -0.9318
  729MOL0     O98328   3.945   2.075   8.784 -0.3643  0.2733 -0.3329
  729MOL0     C98329   4.176   2.291   8.925 -0.6699 -0.3911 -0.0084
  729MOL0     C98330   4.315   2.313   8.934  0.1945 -0.6790 -0.1243
  729MOL0     N98331   4.859   2.088   9.451  0.5063  1.0960 -1.0585
  729MOL0     N98332   4.965   2.086   9.516  0.5843 -0.0477  0.3478
  729MOL0     C98333   5.967   1.922   9.988 -0.4832 -0.3491  0.3115
  729MOL0     C98334   6.100   1.887   9.985  0.8157  0.0864 -0.1322
  729MOL0     C98335   6.491   1.765   9.790 -0.0147 -0.2627 -0.2003
  729MOL0     C98336   6.567   1.730   9.675 -0.5545  1.0287  0.1474
  729MOL0     C98337   6.698   1.672   9.690  0.2295 -0.3603 -0.6545
  729MOL0     C98338   6.760   1.661   9.812  0.2761 -0.3813  0.6908
  729MOL0     O98339   6.880   1.604   9.850 -0.0584  0.3737 -0.6301
  729MOL0     C98340   6.970   1.566   9.741  0.3410 -0.0162 -0.7569
  729MOL0     C98341   7.078   1.474   9.798  0.0507 -0.2140 -0.4427
  729MOL0     C98342   7.171   1.410   9.686  0.3417 -0.2942 -0.1937
  729MOL0     C98343   7.294   1.330   9.728  1.1258  0.6951  0.1367
  729MOL0     C98344   7.380   1.278   9.618 -0.8376  1.1599 -0.6047
  729MOL0     C98345   7.455   1.223   9.535 -0.4419  0.1611 -0.2633
  729MOL0     C98346   6.688   1.694   9.922 -0.0411 -0.7527  0.0494
  729MOL0     C98347   6.559   1.754   9.910  1.1947  0.6132 -0.0182
  729MOL0     H98348   6.194   2.065   9.723 -1.1249  0.9710 -0.1350
  729MOL0     H98349   5.962   2.119   9.713  1.8255  1.0365 -0.8924
  729MOL0     H98350   5.700   1.958  10.040 -1.5755 -1.0991 -2.6063
  729MOL0     H98351   5.758   2.124  10.074  1.6215 -4.0227  2.4406
  729MOL0     H98352   5.517   2.057   9.894 -2.1224  1.0783  1.0879
  729MOL0     H98353   5.496   2.097  10.064  0.1831 -0.7443  0.6041
  729MOL0     H98354   5.633   2.306   9.996 -2.6759 -1.7837  2.0787
  729MOL0     H98355   5.611   2.255   9.830  3.0591  0.7496  1.5228
  729MOL0     H98356   5.402   2.303  10.039 -1.0618  3.2395  0.6798
  729MOL0     H98357   5.444   2.433   9.923  0.5649  0.4540  3.3463
  729MOL0     H98358   5.371   2.295   9.737 -0.3157  3.0576  0.2296
  729MOL0     H98359   5.307   2.165   9.855 -1.3122  0.4733 -0.8009
  729MOL0     H98360   5.162   2.369   9.941 -1.9939  0.9323 -0.1721
  729MOL0     H98361   5.193   2.444   9.782  1.7592 -1.2305 -2.6174
  729MOL0     H98362   5.067   2.172   9.826 -1.0818  0.1211  1.2675
  729MOL0     H98363   4.990   2.326   9.788 -0.2169  0.6562 -0.8693
  729MOL0     H98364   5.205   2.199   9.612 -0.5477 -0.2592  0.1485
  729MOL0     H98365   5.146   2.359   9.593 -0.7400  0.7588 -0.4822
  729MOL0     H98366   4.905   2.406   9.514  0.3270 -0.8130  0.0779
  729MOL0     H98367   4.613   2.183   9.432 -0.8731  2.2530  0.8376
  729MOL0     H98368   4.657   2.356   9.409 -1.1713  0.1127  0.2005
  729MOL0     H98369   4.721   2.125   9.208 -0.3653 -0.8703 -0.5821
  729MOL0     H98370   4.792   2.289   9.213 -0.1661 -1.7012  0.1685
  729MOL0     H98371   4.548   2.379   9.212  1.0540 -0.1054 -0.2633
  729MOL0     H98372   4.502   2.212   9.171 -1.3111  0.4102 -4.2717
  729MOL0     H98373   4.707   2.308   8.980  0.0430 -0.0791  0.5843
  729MOL0     H98374   4.564   2.404   8.984 -2.2822 -1.7999  1.0473
  729MOL0     H98375   4.419   1.998   8.915 -1.7825 -1.0999 -2.3090
  729MOL0     H98376   4.076   1.896   8.924 -1.4359  2.3291 -1.0623
  729MOL0     H98377   4.149   1.898   8.770 -0.3245  1.4712  1.0107
  729MOL0     H98378   4.260   1.846   8.898  2.2837  2.2723  0.7987
  729MOL0     H98379   3.681   2.105   9.034  1.5152 -2.2193 -2.2165
  729MOL0     H98380   3.464   2.117   8.972  1.3164 -1.1798  0.6592
  729MOL0     H98381   3.352   2.081   8.732  2.5150 -0.6217  1.9534
  729MOL0     H98382   3.259   2.137   8.872 -0.0167  0.5416 -0.8546
  729MOL0     H98383   3.119   2.272   8.725 -1.2455 -0.3212 -1.6460
  729MOL0     H98384   3.188   2.205   8.582  0.0577 -1.3598  0.5788
  729MOL0     H98385   3.076   2.020   8.785  0.6730  2.1866  1.0037
  729MOL0     H98386   3.141   1.987   8.624  0.7391  1.1849 -1.5855
  729MOL0     H98387   2.975   2.154   8.531 -2.4472  2.9012  1.5367
  729MOL0     H98388   2.914   1.997   8.565  0.4098  0.4962 -1.5100
  729MOL0     H98389   2.892   2.245   8.747  0.4658  0.4850 -0.1601
  729MOL0     H98390   2.813   2.092   8.784  1.8227  0.5576  0.7468
  729MOL0     H98391   2.655   2.247   8.679  0.0608 -0.9313  1.2994
  729MOL0     H98392   2.760   2.265   8.538  0.6185 -1.4472 -0.1422
  729MOL0     H98393   2.625   2.010   8.645 -4.0409 -0.0289 -1.3701
  729MOL0     H98394   2.711   2.014   8.483  1.9797 -0.4569  0.9849
  729MOL0     H98395   2.451   2.138   8.538  1.8194  1.3150  0.2429
  729MOL0     H98396   2.510   2.004   8.426  3.2021  0.0181 -1.3922
  729MOL0     H98397   3.570   2.440   8.699 -1.2147  1.7897  1.7835
  729MOL0     H98398   3.805   2.391   8.742  1.2754 -1.5109 -1.2400
  729MOL0     H98399   4.104   2.373   8.924 -2.3260 -1.6331  3.4106
  729MOL0     H98400   4.350   2.416   8.927 -0.5299 -0.4953 -1.3258
  729MOL0     H98401   5.910   1.887  10.074 -2.2260  0.1120 -0.6126
  729MOL0     H98402   6.141   1.828  10.065 -0.2526 -1.2030 -0.5046
  729MOL0     H98403   6.520   1.729   9.577 -3.3810 -2.3975  1.3512
  729MOL0     H98404   6.746   1.643   9.598 -2.0299 -1.2640 -1.6319
  729MOL0     H98405   6.919   1.518   9.657 -3.0192 -1.6074  1.9672
  729MOL0     H98406   7.014   1.656   9.697 -0.4739  1.7502  1.8048
  729MOL0     H98407   7.021   1.392   9.844  0.6747 -1.2345 -1.4157
  729MOL0     H98408   7.142   1.529   9.867 -1.0432  1.7456 -0.9332
  729MOL0     H98409   7.202   1.496   9.626  2.1398 -1.5804 -1.2078
  729MOL0     H98410   7.101   1.354   9.623 -0.9044  1.9860 -0.9513
  729MOL0     H98411   7.254   1.240   9.776  2.0339 -0.4037 -1.0704
  729MOL0     H98412   7.362   1.385   9.794  1.9110  1.7203 -1.4760
  729MOL0     H98413   7.520   1.175   9.465  0.2834  2.1707 -1.0267
  729MOL0     H98414   6.739   1.684  10.016 -0.5486  2.2742  0.7715
  729MOL0     H98415   6.512   1.788  10.001 -0.0351  0.7642 -0.6867
  730MOL0     O98416   9.379   5.431   2.474  0.0078 -0.7442 -0.2144
  730MOL0     C98417   9.443   5.328   2.485 -0.4308 -0.6638 -0.6863
  730MOL0     O98418   9.386   5.199   2.502 -0.1623  0.3606  0.6282
  730MOL0     C98419   9.249   5.202   2.512 -0.6877 -0.7300  0.1357
  730MOL0     C98420   9.189   5.183   2.637  0.1892  0.3128 -0.4942
  730MOL0     C98421   9.050   5.181   2.655 -0.2041 -0.6246  0.1256
  730MOL0     C98422   8.968   5.205   2.541 -0.4736  0.3953  0.0659
  730MOL0     O98423   8.836   5.213   2.575 -0.0375  0.3478  0.4687
  730MOL0     C98424   8.801   5.342   2.612  0.3217 -0.2400  0.1323
  730MOL0     C98425   8.652   5.338   2.631 -0.3885  0.4129 -0.3284
  730MOL0     C98426   8.631   5.269   2.769 -0.5295  1.0175  0.5473
  730MOL0     C98427   8.499   5.313   2.837 -0.4065  0.1253  0.2398
  730MOL0     C98428   8.372   5.307   2.754 -0.5583 -0.1414  0.5088
  730MOL0     C98429   8.354   5.166   2.686 -0.5388 -0.3195 -0.1337
  730MOL0     C98430   8.212   5.165   2.615  0.3429  0.3861  0.1729
  730MOL0     C98431   8.181   5.014   2.596 -0.2552 -0.1806  0.6996
  730MOL0     N98432   8.051   4.986   2.540  0.6696 -0.8395 -0.0721
  730MOL0     C98433   8.027   4.928   2.420  1.1707  0.9557 -0.3940
  730MOL0     C98434   7.890   4.918   2.413  1.0906  0.2653  0.0047
  730MOL0     C98435   7.810   4.899   2.285 -0.6657  0.3801 -0.1512
  730MOL0     C98436   7.674   4.833   2.300 -0.4772 -0.3139 -0.8360
  730MOL0     C98437   7.582   4.839   2.171  0.3764  0.0698 -0.1274
  730MOL0     C98438   7.429   4.855   2.190  0.1013  0.2554  0.3119
  730MOL0     O98439   7.391   4.978   2.254  0.2308 -0.2580  0.0916
  730MOL0     C98440   7.262   4.981   2.307 -0.3841  0.0480 -0.0671
  730MOL0     C98441   7.232   5.064   2.411 -0.3231  0.2963  0.1317
  730MOL0     C98442   7.108   5.108   2.453  0.1101  0.1295  0.6444
  730MOL0     C98443   7.090   5.218   2.554  0.0260  0.0780  0.0807
  730MOL0     C98444   6.999   5.036   2.390 -0.8516  0.0259  0.4647
  730MOL0     C98445   6.851   5.057   2.425 -0.8036 -0.0386 -0.6746
  730MOL0     O98446   6.763   4.963   2.381  0.2386  0.1000  0.4499
  730MOL0     C98447   6.645   5.010   2.342 -0.4685 -0.9988  0.4907
  730MOL0     C98448   6.526   4.962   2.402 -0.2408 -0.7121  1.5877
  730MOL0     C98449   6.406   5.011   2.358 -1.3122 -0.2364 -0.1779
  730MOL0     C98450   6.389   5.103   2.252  0.5029 -0.4879 -0.6741
  730MOL0     O98451   6.258   5.112   2.199 -0.0720 -0.1035  0.3321
  730MOL0     C98452   6.242   5.206   2.093 -0.2655  0.1031  0.8414
  730MOL0     C98453   6.239   5.350   2.152 -0.6946 -0.1549 -0.1034
  730MOL0     C98454   6.222   5.449   2.033  0.6591 -0.7120 -0.6570
  730MOL0     C98455   6.225   5.593   2.059  0.0934 -0.1075  0.1408
  730MOL0     C98456   6.204   5.674   1.927  0.2271 -0.5964  0.6550
  730MOL0     C98457   6.201   5.818   1.957  0.1927 -1.0826  0.7515
  730MOL0     C98458   6.166   5.909   1.838  0.4401  0.1009 -0.9558
  730MOL0     C98459   6.281   5.919   1.732 -0.2200 -0.4083  0.2132
  730MOL0    Cl98460   6.287   5.784   1.612  0.4094 -0.2708 -0.0469
  730MOL0     C98461   6.507   5.147   2.182 -0.6860  0.5890  0.5929
  730MOL0     C98462   6.637   5.099   2.230  0.8069 -0.5099  0.1518
  730MOL0     O98463   6.825   5.149   2.499  0.0089 -0.7546  1.1029
  730MOL0     C98464   7.029   4.941   2.292 -0.5759 -0.3592 -0.9833
  730MOL0     C98465   7.158   4.924   2.236  0.0708  1.5036 -0.2135
  730MOL0     N98466   7.839   4.970   2.535  0.5294 -0.3518 -0.0029
  730MOL0     N98467   7.939   5.002   2.609  0.2799 -1.7056  0.1225
  730MOL0     C98468   9.022   5.217   2.415 -0.0797  0.0820  0.5570
  730MOL0     C98469   9.166   5.213   2.401  0.4207 -0.9456  0.0868
  730MOL0     C98470   9.588   5.353   2.484 -0.4844 -0.4140  0.6135
  730MOL0     C98471   9.675   5.252   2.532  0.5628 -0.1900  0.8771
  730MOL0     C98472   9.811   5.286   2.547  0.0767 -0.2905 -0.2345
  730MOL0     C98473   9.865   5.409   2.509  0.3056  0.5109 -0.4763
  730MOL0     O98474   9.995   5.448   2.497 -0.4638 -0.8808 -0.2451
  730MOL0     C98475  10.099   5.377   2.569 -0.1819 -0.1831 -0.3792
  730MOL0     C98476  10.090   5.392   2.723 -0.8415 -0.1366 -0.5781
  730MOL0     C98477  10.063   5.533   2.792  0.1950 -0.0038 -0.0210
  730MOL0     C98478  10.130   5.552   2.929  0.0321 -0.0532  0.0409
  730MOL0     C98479  10.275   5.554   2.914 -0.7151 -0.3507  0.0534
  730MOL0     C98480  10.392   5.547   2.888 -0.0804 -0.1109 -0.0912
  730MOL0     C98481   9.772   5.499   2.457 -0.6460  0.5503  0.2100
  730MOL0     C98482   9.637   5.477   2.443 -0.1483  0.2044  0.1491
  730MOL0     H98483   9.259   5.172   2.720 -1.0699  3.6049  1.1999
  730MOL0     H98484   9.008   5.165   2.753 -0.1732 -1.3013  0.0297
  730MOL0     H98485   8.861   5.370   2.700 -0.0250  0.8773  0.0313
  730MOL0     H98486   8.819   5.425   2.543  0.7810 -0.6173 -0.2066
  730MOL0     H98487   8.605   5.436   2.626 -2.1830 -0.2818  1.1576
  730MOL0     H98488   8.615   5.275   2.549  0.2061 -1.5702  0.8382
  730MOL0     H98489   8.636   5.163   2.744 -3.9508  0.7955  0.2586
  730MOL0     H98490   8.711   5.295   2.838  1.7681  0.9122 -1.9237
  730MOL0     H98491   8.478   5.252   2.926  1.1104  0.1860  0.6672
  730MOL0     H98492   8.518   5.415   2.873 -2.9808  0.8483 -0.2328
  730MOL0     H98493   8.284   5.333   2.813 -1.1976 -0.0807 -0.4518
  730MOL0     H98494   8.369   5.386   2.679 -0.5645  0.9086  1.5915
  730MOL0     H98495   8.427   5.158   2.605  0.0082  2.9536 -0.1085
  730MOL0     H98496   8.371   5.080   2.751  0.3185  0.8872  1.2984
  730MOL0     H98497   8.135   5.219   2.671  0.5193  1.7478 -0.8611
  730MOL0     H98498   8.215   5.210   2.516 -0.5559 -1.4670 -0.7478
  730MOL0     H98499   8.203   4.969   2.693  0.2291 -0.3835  0.5015
  730MOL0     H98500   8.260   4.976   2.530  0.5856 -1.4222  2.3423
  730MOL0     H98501   8.090   4.906   2.334 -0.1969  0.3475 -1.2919
  730MOL0     H98502   7.788   4.996   2.240 -1.5233  0.4507  0.3961
  730MOL0     H98503   7.871   4.836   2.219 -1.1045  0.8894 -1.0567
  730MOL0     H98504   7.622   4.882   2.383  3.5088  3.2117 -0.0994
  730MOL0     H98505   7.699   4.728   2.318  2.6109 -0.0148 -2.6675
  730MOL0     H98506   7.605   4.742   2.127  1.1869 -0.7298  1.9094
  730MOL0     H98507   7.613   4.923   2.108  0.7329  0.8188  1.0092
  730MOL0     H98508   7.398   4.766   2.245  0.3270 -0.6152 -0.9431
  730MOL0     H98509   7.375   4.854   2.095  0.4933 -5.3573 -0.1850
  730MOL0     H98510   7.319   5.100   2.465 -0.1250 -1.3041  0.9732
  730MOL0     H98511   7.173   5.289   2.544 -0.6006  0.6095 -1.6632
  730MOL0     H98512   7.002   5.278   2.530  1.6285  1.1947 -3.6077
  730MOL0     H98513   7.091   5.176   2.656  1.4211 -0.0664  0.0269
  730MOL0     H98514   6.523   4.893   2.486 -0.7709 -0.3626  1.8594
  730MOL0     H98515   6.316   4.961   2.392  1.3530 -4.1696  1.8558
  730MOL0     H98516   6.321   5.201   2.018 -0.1760  2.3005  0.7263
  730MOL0     H98517   6.145   5.192   2.045 -1.1071  0.3901  2.4093
  730MOL0     H98518   6.150   5.353   2.214 -1.1009 -1.0771 -0.6211
  730MOL0     H98519   6.331   5.363   2.209 -0.4220 -2.2778  0.0281
  730MOL0     H98520   6.130   5.431   1.977  1.1520  0.5596 -1.9409
  730MOL0     H98521   6.305   5.430   1.964 -1.2378 -1.2798 -2.9056
  730MOL0     H98522   6.154   5.632   2.133  0.2227 -1.0170  0.7517
  730MOL0     H98523   6.325   5.624   2.093  1.8661 -2.6511 -2.3042
  730MOL0     H98524   6.110   5.646   1.879 -1.6880  1.3408  3.0536
  730MOL0     H98525   6.285   5.659   1.855 -0.0411  0.3862  0.1338
  730MOL0     H98526   6.126   5.842   2.033  2.9543  1.5391  2.9079
  730MOL0     H98527   6.299   5.845   1.999  0.0105 -0.3071  0.6933
  730MOL0     H98528   6.151   6.007   1.884  0.9937  0.4208 -1.4356
  730MOL0     H98529   6.074   5.876   1.790  1.9183 -3.5211 -1.6573
  730MOL0     H98530   6.381   5.930   1.773  0.8585  1.2418 -2.5755
  730MOL0     H98531   6.273   6.005   1.665 -0.4352 -0.7932 -0.2647
  730MOL0     H98532   6.507   5.206   2.091 -0.8908 -2.3784 -1.4648
  730MOL0     H98533   6.735   5.114   2.186  0.2677 -1.1342 -1.3557
  730MOL0     H98534   6.945   4.913   2.228 -1.6028  1.7069 -0.6342
  730MOL0     H98535   7.172   4.869   2.143  1.8468  0.7973  0.4305
  730MOL0     H98536   8.952   5.233   2.333 -0.5947 -2.0027  0.5202
  730MOL0     H98537   9.219   5.216   2.307  0.8415  1.1202  0.3492
  730MOL0     H98538   9.621   5.162   2.560 -1.2676  0.3018 -0.7931
  730MOL0     H98539   9.874   5.210   2.591 -0.2391 -0.3530  0.1138
  730MOL0     H98540  10.095   5.269   2.552  1.4228 -0.8981  2.8902
  730MOL0     H98541  10.196   5.407   2.530 -0.3685  2.0004  0.6453
  730MOL0     H98542  10.186   5.358   2.762 -0.8825 -1.9864 -1.9174
  730MOL0     H98543  10.008   5.331   2.764 -0.9565  0.1953 -0.3145
  730MOL0     H98544   9.957   5.552   2.811 -0.1807  0.4873 -2.3130
  730MOL0     H98545  10.107   5.608   2.725  1.3562 -0.3998  0.2838
  730MOL0     H98546  10.099   5.473   2.999 -0.4524  1.5336  1.7153
  730MOL0     H98547  10.094   5.646   2.973 -0.5695 -0.3816  0.2585
  730MOL0     H98548  10.496   5.537   2.865  0.3874  0.0223  1.8107
  730MOL0     H98549   9.816   5.586   2.408  0.0133 -0.1401 -0.4503
  730MOL0     H98550   9.573   5.551   2.396  0.9753  0.4886 -0.9912
  731MOL0     O98551  11.073   2.525   1.041 -0.4735 -0.2868 -0.0368
  731MOL0     C98552  11.129   2.561   0.940  0.0629  0.0227 -0.3430
  731MOL0     O98553  11.062   2.616   0.839  0.5255 -0.5836 -0.0481
  731MOL0     C98554  10.933   2.621   0.806 -0.3522  0.1518 -0.2340
  731MOL0     C98555  10.825   2.566   0.876 -0.4492 -0.2180 -0.1390
  731MOL0     C98556  10.694   2.586   0.834  0.7406 -0.1753 -0.2653
  731MOL0     C98557  10.657   2.669   0.732 -0.0996 -0.4546  0.0552
  731MOL0     O98558  10.535   2.699   0.678  0.5777  0.8405 -0.2824
  731MOL0     C98559  10.419   2.701   0.766  0.3058 -0.2124  1.3135
  731MOL0     C98560  10.291   2.749   0.684  0.4900  0.2407  0.0169
  731MOL0     C98561  10.159   2.711   0.750 -0.5551 -0.7302  0.0649
  731MOL0     C98562  10.032   2.744   0.668 -0.2169 -0.4748 -0.3951
  731MOL0     C98563   9.993   2.891   0.628  0.0066  0.9316  0.0497
  731MOL0     C98564   9.880   2.899   0.523  0.3946 -0.2670 -0.2397
  731MOL0     C98565   9.833   3.045   0.486 -0.3168 -0.7174 -0.1804
  731MOL0     C98566   9.709   3.057   0.398 -0.1978  0.0371  0.1168
  731MOL0     N98567   9.578   3.048   0.462 -0.0611  0.0276 -0.7716
  731MOL0     C98568   9.533   2.960   0.563  0.2647 -0.0558  0.8865
  731MOL0     C98569   9.418   3.013   0.606 -0.3620 -0.3249 -0.1943
  731MOL0     C98570   9.335   2.974   0.721 -0.1297  0.8400  0.1381
  731MOL0     C98571   9.192   3.016   0.699  0.0015  0.5030  0.2219
  731MOL0     C98572   9.104   2.968   0.814  0.9444 -0.0887 -0.1243
  731MOL0     C98573   8.970   3.033   0.775 -0.7432  0.1690  0.5061
  731MOL0     O98574   8.874   2.969   0.856  0.1257 -0.3618  0.2311
  731MOL0     C98575   8.742   3.017   0.857 -0.8268  0.0193 -0.1984
  731MOL0     C98576   8.688   3.121   0.784  0.2722 -0.5926 -0.6127
  731MOL0     C98577   8.550   3.152   0.776 -0.6440 -0.5136 -0.6956
  731MOL0     C98578   8.515   3.268   0.681  0.1432 -0.6626  0.1293
  731MOL0     C98579   8.463   3.079   0.869  0.3724 -0.4600  0.5546
  731MOL0     C98580   8.314   3.100   0.867 -0.5946  0.0958  0.4167
  731MOL0     O98581   8.257   3.179   0.775 -0.0633 -0.5724  0.8957
  731MOL0     C98582   8.119   3.200   0.760  0.5060 -0.6455 -0.3159
  731MOL0     C98583   8.074   3.329   0.716 -0.1115  0.6530 -0.3188
  731MOL0     C98584   7.934   3.350   0.684 -0.5978  0.7615 -0.4309
  731MOL0     C98585   7.839   3.244   0.696  0.5534 -1.2827  0.7708
  731MOL0     O98586   7.711   3.273   0.654  0.2671 -0.2211 -0.2448
  731MOL0     C98587   7.616   3.165   0.651 -0.8049  0.2043  0.3030
  731MOL0     C98588   7.491   3.221   0.580 -0.0449  0.3619 -0.3282
  731MOL0     C98589   7.385   3.107   0.556  0.2837  0.1851  0.1370
  731MOL0     C98590   7.257   3.157   0.490 -0.2624  0.2158  0.1347
  731MOL0     C98591   7.156   3.039   0.487 -0.1624  0.2821  0.2461
  731MOL0     C98592   7.021   3.086   0.418  0.0116 -0.2073 -0.4197
  731MOL0     C98593   6.943   3.208   0.476 -0.5103  0.0887  0.2785
  731MOL0     C98594   6.879   3.191   0.613  0.8154  0.7189  0.9848
  731MOL0    Cl98595   6.760   3.055   0.600 -0.4115 -0.0209  0.1520
  731MOL0     C98596   7.878   3.126   0.750 -0.0278 -0.2964  0.3227
  731MOL0     C98597   8.017   3.107   0.781  0.7155 -0.6438  0.2219
  731MOL0     O98598   8.255   3.045   0.970 -0.3325 -0.0162  0.6509
  731MOL0     C98599   8.522   2.970   0.952  0.5240  0.0879 -0.0788
  731MOL0     C98600   8.661   2.954   0.952  0.0741 -0.5862  1.0157
  731MOL0     N98601   9.398   3.140   0.545  0.5132  0.0706  0.6301
  731MOL0     N98602   9.495   3.161   0.467  0.9182  0.1975  0.3237
  731MOL0     C98603  10.768   2.722   0.658 -0.2760 -0.4669 -0.1258
  731MOL0     C98604  10.902   2.693   0.687  1.0420 -0.0200  0.3062
  731MOL0     C98605  11.272   2.533   0.939  0.1191 -0.6144  0.2024
  731MOL0     C98606  11.343   2.581   0.825 -0.1061 -0.6613 -0.5904
  731MOL0     C98607  11.481   2.546   0.815  0.1613 -0.9519 -0.3458
  731MOL0     C98608  11.552   2.481   0.920 -0.2639 -0.8368  0.5265
  731MOL0     O98609  11.681   2.453   0.902 -0.1258  0.0419  0.7487
  731MOL0     C98610  11.771   2.501   1.005 -0.3613 -0.1639  0.7660
  731MOL0     C98611  11.905   2.423   0.995 -0.3494  0.0390  0.0305
  731MOL0     C98612  12.022   2.500   1.062  0.3350 -0.3591  0.0535
  731MOL0     C98613  12.142   2.408   1.082  0.6149 -0.3735  0.4440
  731MOL0     C98614  12.224   2.410   0.961  0.3602  0.0843  0.1852
  731MOL0     C98615  12.299   2.411   0.865 -0.8082 -0.2811 -0.3137
  731MOL0     C98616  11.480   2.432   1.030 -0.4151 -0.2428  0.7521
  731MOL0     C98617  11.342   2.460   1.040  0.1401 -0.3810  0.7134
  731MOL0     H98618  10.852   2.502   0.960  1.8575 -0.2841 -0.8519
  731MOL0     H98619  10.616   2.541   0.894 -0.6130  1.3415 -0.8106
  731MOL0     H98620  10.388   2.601   0.798 -0.2751 -1.5731 -2.8431
  731MOL0     H98621  10.428   2.771   0.849  0.5000  0.0536  1.0675
  731MOL0     H98622  10.290   2.858   0.679 -2.3476  0.2967 -4.6443
  731MOL0     H98623  10.289   2.704   0.584  1.6406 -0.7103  0.4005
  731MOL0     H98624  10.162   2.609   0.789 -2.4344 -0.3676  1.2794
  731MOL0     H98625  10.155   2.773   0.840  1.2567 -0.7073  0.1769
  731MOL0     H98626  10.042   2.693   0.572  0.8088 -1.7586  0.3386
  731MOL0     H98627   9.943   2.702   0.716 -0.3110 -1.3284 -1.2785
  731MOL0     H98628   9.951   2.938   0.717 -1.0596  1.0761 -0.5173
  731MOL0     H98629  10.087   2.940   0.602  1.4235 -1.7674 -0.2620
  731MOL0     H98630   9.900   2.833   0.438  1.5566  0.4127 -0.5114
  731MOL0     H98631   9.788   2.857   0.565 -0.3590 -0.7390 -2.2399
  731MOL0     H98632   9.825   3.097   0.581  3.8153 -0.0790  0.0353
  731MOL0     H98633   9.919   3.100   0.446  1.3865 -1.5212  2.1463
  731MOL0     H98634   9.707   2.982   0.318 -3.0910 -1.1380  1.1681
  731MOL0     H98635   9.710   3.157   0.352 -3.7997 -0.0016 -0.3355
  731MOL0     H98636   9.579   2.870   0.602  0.6763 -0.5957 -0.7684
  731MOL0     H98637   9.325   2.866   0.709  1.2352  0.6938  0.1600
  731MOL0     H98638   9.377   3.012   0.815 -2.1023  1.3769  0.8385
  731MOL0     H98639   9.155   2.976   0.604  2.3665  0.3086 -0.6736
  731MOL0     H98640   9.179   3.124   0.702  0.6009  0.5693  3.0377
  731MOL0     H98641   9.133   3.008   0.912  1.0496 -0.5688  0.0404
  731MOL0     H98642   9.098   2.860   0.831 -1.8516 -0.0031 -0.0654
  731MOL0     H98643   8.955   3.004   0.670  4.2317 -1.5503 -0.0408
  731MOL0     H98644   8.957   3.141   0.786  1.5781  0.5083  0.5863
  731MOL0     H98645   8.751   3.179   0.716 -1.2145  0.1374 -1.4136
  731MOL0     H98646   8.598   3.338   0.673 -1.5648  1.6483  1.5096
  731MOL0     H98647   8.475   3.245   0.582 -0.0115  1.9440 -0.4689
  731MOL0     H98648   8.442   3.335   0.725 -0.9074 -0.8988 -1.1875
  731MOL0     H98649   8.154   3.395   0.686  1.2295 -1.3479 -1.3781
  731MOL0     H98650   7.903   3.448   0.649  3.0733  2.0375 -0.5957
  731MOL0     H98651   7.648   3.076   0.596 -4.1923 -1.3943  0.6678
  731MOL0     H98652   7.602   3.134   0.756  4.4899 -1.3079  0.8860
  731MOL0     H98653   7.454   3.295   0.651  2.4036  0.1582  1.2859
  731MOL0     H98654   7.522   3.262   0.483 -1.0548  0.5532 -0.5784
  731MOL0     H98655   7.367   3.062   0.655  0.7217 -3.0509 -1.1494
  731MOL0     H98656   7.430   3.042   0.481 -3.6611 -0.7979 -1.6840
  731MOL0     H98657   7.218   3.244   0.545 -0.3113 -1.1825  2.4578
  731MOL0     H98658   7.281   3.190   0.389  1.4886 -0.6651  0.2219
  731MOL0     H98659   7.144   2.993   0.586  3.2442 -0.5960  0.3800
  731MOL0     H98660   7.195   2.955   0.429 -1.8538 -1.5640  1.6405
  731MOL0     H98661   7.040   3.103   0.312  0.8051  0.9884 -0.1047
  731MOL0     H98662   6.954   3.000   0.414  1.5787 -1.4736 -0.5447
  731MOL0     H98663   6.862   3.219   0.404  0.6952  0.1264 -1.1154
  731MOL0     H98664   7.012   3.293   0.477 -0.0832 -0.2430 -0.4380
  731MOL0     H98665   6.838   3.283   0.657 -2.3703 -0.8115  1.4775
  731MOL0     H98666   6.967   3.169   0.675  1.6319  1.8577  0.2820
  731MOL0     H98667   7.809   3.042   0.760  0.2356 -0.4920  0.5110
  731MOL0     H98668   8.045   3.011   0.823 -0.2468 -0.6953  0.7631
  731MOL0     H98669   8.473   2.918   1.033  0.2464  1.2586  0.5372
  731MOL0     H98670   8.706   2.876   1.013 -1.0609 -1.5135  0.6980
  731MOL0     H98671  10.750   2.796   0.580 -0.0117 -0.8289 -0.5335
  731MOL0     H98672  10.984   2.737   0.632  0.0427 -1.1759 -2.2226
  731MOL0     H98673  11.300   2.634   0.741 -0.1882 -0.2484 -0.2904
  731MOL0     H98674  11.532   2.576   0.724  0.2413  0.7709  0.2261
  731MOL0     H98675  11.799   2.605   0.984  1.3557 -0.2161  2.5185
  731MOL0     H98676  11.738   2.484   1.108  3.9224 -0.5740  2.3005
  731MOL0     H98677  11.926   2.408   0.888 -2.0789 -4.5831  0.1092
  731MOL0     H98678  11.882   2.326   1.039 -1.8513  0.1334 -0.4855
  731MOL0     H98679  11.996   2.535   1.163  2.6347  2.7546 -0.2667
  731MOL0     H98680  12.032   2.592   1.003 -0.9172  1.6470  2.6964
  731MOL0     H98681  12.099   2.308   1.087 -0.6877  0.0890 -0.6432
  731MOL0     H98682  12.212   2.431   1.163  3.6133 -1.8790 -1.5355
  731MOL0     H98683  12.369   2.417   0.784 -2.0451  0.8642 -1.3376
  731MOL0     H98684  11.532   2.372   1.105  2.5236 -0.3169 -1.1740
  731MOL0     H98685  11.290   2.429   1.130 -0.1585 -1.7265  0.1174
  732MOL0     O98686   1.507   1.818  10.439  0.2069  0.1088  0.1495
  732MOL0     C98687   1.535   1.734  10.525 -0.6162 -0.3005  0.1551
  732MOL0     O98688   1.452   1.682  10.610  0.4879  0.1523 -0.0399
  732MOL0     C98689   1.322   1.720  10.598  0.1821  0.5997  0.5625
  732MOL0     C98690   1.225   1.629  10.558 -0.0966 -0.0074  0.6552
  732MOL0     C98691   1.092   1.669  10.548  0.0941 -0.7380 -0.8368
  732MOL0     C98692   1.045   1.798  10.597 -0.0862  0.4620 -0.7134
  732MOL0     O98693   0.908   1.819  10.598 -0.0159 -0.0964  0.0973
  732MOL0     C98694   0.845   1.929  10.534  0.1019  0.1540 -0.4585
  732MOL0     C98695   0.694   1.900  10.534  0.1455 -0.5324 -0.0299
  732MOL0     C98696   0.610   2.018  10.484 -0.4629 -0.1579  0.2621
  732MOL0     C98697   0.473   1.966  10.480  0.7064  0.8949 -0.2555
  732MOL0     C98698   0.361   2.065  10.445  0.0931 -0.0488  0.3368
  732MOL0     C98699   0.221   2.011  10.477  0.1443  0.3549 -0.4298
  732MOL0     C98700   0.113   2.115  10.462  0.0995 -0.2836  0.4987
  732MOL0     C98701   0.147   2.246  10.540 -0.4013  0.4384  0.1911
  732MOL0     N98702   0.029   2.339  10.552  0.8889  0.1547  0.5341
  732MOL0     C98703  -0.051   2.379  10.452 -0.1217  0.3256  0.4945
  732MOL0     C98704  -0.125   2.485  10.501 -0.4087  0.2212 -0.1172
  732MOL0     C98705  -0.194   2.580  10.409 -0.2941 -0.0424  0.3142
  732MOL0     C98706  -0.287   2.664  10.506  0.0924  0.0711  0.3730
  732MOL0     C98707  -0.381   2.753  10.424  0.3126 -0.1069 -0.1722
  732MOL0     C98708  -0.485   2.821  10.512 -0.2236 -0.1857 -0.2024
  732MOL0     O98709  -0.572   2.906  10.433  0.5604  0.3167  0.0555
  732MOL0     C98710  -0.691   2.947  10.479  1.1507 -0.1664 -0.5222
  732MOL0     C98711  -0.782   3.006  10.387  0.6278 -0.1415 -0.2574
  732MOL0     C98712  -0.905   3.049  10.435  0.1209 -0.6523 -0.2812
  732MOL0     C98713  -1.004   3.094  10.324  0.0913  0.3835 -0.7453
  732MOL0     C98714  -0.930   3.049  10.574  1.1424 -0.6131  0.0342
  732MOL0     C98715  -1.065   3.107  10.615  0.2525  1.4336 -0.4257
  732MOL0     O98716  -1.164   3.015  10.654 -0.4782  0.0705  0.0370
  732MOL0     C98717  -1.290   3.064  10.660  0.0828 -0.8784  0.4240
  732MOL0     C98718  -1.358   3.036  10.779  0.8357  0.0429 -0.2787
  732MOL0     C98719  -1.485   3.089  10.800  1.4912 -0.4669  0.0927
  732MOL0     C98720  -1.550   3.164  10.691 -0.4631  0.9508 -0.6609
  732MOL0     O98721  -1.671   3.220  10.694 -0.4746 -0.1315  0.1981
  732MOL0     C98722  -1.775   3.153  10.759  0.1231  0.4255  0.2425
  732MOL0     C98723  -1.907   3.224  10.726  0.1246 -0.3992  0.0479
  732MOL0     C98724  -1.894   3.369  10.786  0.6778 -0.4137 -0.4762
  732MOL0     C98725  -2.038   3.433  10.784  0.6272 -0.9505 -0.2585
  732MOL0     C98726  -2.032   3.581  10.816 -0.3128 -0.4161 -1.0012
  732MOL0     C98727  -1.998   3.609  10.968  0.2329 -0.2381 -0.5655
  732MOL0     C98728  -2.095   3.553  11.075 -0.9173  0.1714  0.3789
  732MOL0     C98729  -2.235   3.596  11.041  0.6181 -0.0407  0.1012
  732MOL0    Cl98730  -2.271   3.767  11.027  0.0026  0.0455  0.2210
  732MOL0     C98731  -1.480   3.179  10.571 -1.1034  0.0717 -0.1911
  732MOL0     C98732  -1.353   3.128  10.552 -0.2106  0.2548  0.1391
  732MOL0     O98733  -1.063   3.226  10.639 -0.8876 -0.4915  0.2487
  732MOL0     C98734  -0.846   2.995  10.662  0.0364  0.1005  0.2881
  732MOL0     C98735  -0.721   2.943  10.616  0.2199 -0.0436 -1.1958
  732MOL0     N98736  -0.096   2.490  10.638  0.3488 -0.4078 -0.4895
  732MOL0     N98737   0.005   2.412  10.663 -0.0866 -0.2069  0.3229
  732MOL0     C98738   1.144   1.883  10.634 -0.0261  0.1632 -0.1486
  732MOL0     C98739   1.282   1.846  10.636  0.6094 -0.1963  0.3642
  732MOL0     C98740   1.675   1.676  10.522  0.9620 -0.4986  0.4961
  732MOL0     C98741   1.700   1.552  10.583 -0.4612 -0.5776 -0.8412
  732MOL0     C98742   1.818   1.482  10.568  0.2223 -0.2428  0.0294
  732MOL0     C98743   1.934   1.547  10.518  0.7105  0.2418  0.3393
  732MOL0     O98744   2.055   1.483  10.526 -0.5439  0.2753 -0.0713
  732MOL0     C98745   2.170   1.532  10.449  0.1310 -0.3620  1.3026
  732MOL0     C98746   2.276   1.420  10.450 -0.1425  1.0035  0.3702
  732MOL0     C98747   2.416   1.448  10.397  0.1564  0.7611  0.1481
  732MOL0     C98748   2.509   1.494  10.513 -0.1763  0.4353 -0.1757
  732MOL0     C98749   2.471   1.628  10.570  0.4740  0.3906  1.1177
  732MOL0     C98750   2.433   1.725  10.630 -0.2438  0.6260  0.8628
  732MOL0     C98751   1.915   1.667  10.455  0.0006  0.6785 -0.0678
  732MOL0     C98752   1.785   1.726  10.454 -0.2464 -0.3368  0.1909
  732MOL0     H98753   1.242   1.529  10.519  1.2304  0.7478 -0.8332
  732MOL0     H98754   1.015   1.601  10.513 -1.7325  1.4575 -1.3008
  732MOL0     H98755   0.860   2.011  10.603  0.3983 -1.0850  0.9892
  732MOL0     H98756   0.890   1.946  10.435  0.7584 -1.9087 -0.5720
  732MOL0     H98757   0.683   1.804  10.483 -0.1103 -0.0770 -0.8478
  732MOL0     H98758   0.664   1.887  10.638  3.1622 -0.4819  0.9567
  732MOL0     H98759   0.609   2.096  10.560  1.6798 -1.5664  1.8872
  732MOL0     H98760   0.647   2.059  10.389  0.8195 -2.5161 -0.3600
  732MOL0     H98761   0.462   1.887  10.405  2.7869  1.0030 -0.7308
  732MOL0     H98762   0.449   1.922  10.577 -0.0709 -0.6589 -1.0959
  732MOL0     H98763   0.390   2.157  10.498  0.8278 -0.6989  1.0903
  732MOL0     H98764   0.371   2.079  10.337  0.9646  0.1235  0.4354
  732MOL0     H98765   0.194   1.925  10.415  1.7482 -0.6438  0.1720
  732MOL0     H98766   0.212   1.976  10.580 -0.0377 -1.9961 -1.1900
  732MOL0     H98767   0.072   2.122  10.361 -1.4122 -5.0273  0.5714
  732MOL0     H98768   0.031   2.073  10.521  0.7803  0.4980  2.0665
  732MOL0     H98769   0.217   2.300  10.475 -0.8652  1.7396  0.7392
  732MOL0     H98770   0.180   2.231  10.643 -1.4230 -0.2277  0.4346
  732MOL0     H98771  -0.036   2.365  10.346 -0.2678  0.8978  0.3948
  732MOL0     H98772  -0.120   2.643  10.358 -0.1569 -0.8908 -0.5483
  732MOL0     H98773  -0.256   2.521  10.341 -2.1575  3.1359 -0.9661
  732MOL0     H98774  -0.225   2.718  10.577 -2.2839  1.5611  1.4679
  732MOL0     H98775  -0.346   2.597  10.571  0.8257 -1.0946 -0.1269
  732MOL0     H98776  -0.436   2.693  10.351 -0.8851  0.3311  0.3381
  732MOL0     H98777  -0.327   2.826  10.364  0.7853  1.1340  1.6746
  732MOL0     H98778  -0.449   2.881  10.597 -2.8043  1.4534 -0.1808
  732MOL0     H98779  -0.543   2.745  10.564 -0.7635  1.7784  2.2478
  732MOL0     H98780  -0.756   2.997  10.282 -0.7751  2.1760 -0.8698
  732MOL0     H98781  -1.107   3.066  10.347  0.7363 -0.1183  1.9223
  732MOL0     H98782  -0.990   3.202  10.313  2.6323 -0.0857 -3.8946
  732MOL0     H98783  -0.968   3.046  10.232  0.6908 -2.6948  0.9693
  732MOL0     H98784  -1.299   2.984  10.854 -0.7711 -1.2402  0.1713
  732MOL0     H98785  -1.540   3.081  10.893 -2.1944  0.9587 -1.7776
  732MOL0     H98786  -1.778   3.057  10.707 -2.2685  0.5327  0.0578
  732MOL0     H98787  -1.752   3.142  10.866  1.3300  0.4146 -0.0050
  732MOL0     H98788  -1.917   3.219  10.617  0.7856 -1.6192  0.0237
  732MOL0     H98789  -1.995   3.177  10.770 -1.1205  1.0282 -0.8247
  732MOL0     H98790  -1.825   3.433  10.731 -0.2936  1.9425  0.8807
  732MOL0     H98791  -1.860   3.365  10.890 -0.2825 -1.6308 -0.1854
  732MOL0     H98792  -2.079   3.416  10.684 -1.0696 -0.2668  0.2837
  732MOL0     H98793  -2.091   3.386  10.867  1.4746  1.1224  1.5515
  732MOL0     H98794  -2.129   3.630  10.803 -1.2185 -1.8383  0.0631
  732MOL0     H98795  -1.955   3.631  10.757 -2.3342  0.2219 -3.2371
  732MOL0     H98796  -1.893   3.585  10.990  0.8696  1.3920 -1.6169
  732MOL0     H98797  -2.002   3.718  10.982  1.6744 -0.1580 -0.6234
  732MOL0     H98798  -2.069   3.592  11.174 -1.1727  1.8439 -0.1699
  732MOL0     H98799  -2.095   3.445  11.090 -1.4689  0.6493  5.7367
  732MOL0     H98800  -2.302   3.551  11.115  0.6707 -2.1070 -1.0408
  732MOL0     H98801  -2.268   3.539  10.955 -0.7017 -0.0910  0.6244
  732MOL0     H98802  -1.525   3.211  10.477 -0.9326  2.9013  0.5962
  732MOL0     H98803  -1.314   3.127  10.450 -0.2864 -2.1108  0.0796
  732MOL0     H98804  -0.857   2.984  10.769 -0.0020  0.2863  0.3031
  732MOL0     H98805  -0.642   2.915  10.684 -0.1711 -0.2236 -0.8087
  732MOL0     H98806   1.109   1.978  10.672 -0.8094 -0.9339  2.0924
  732MOL0     H98807   1.355   1.917  10.673  1.0645 -0.8383  0.7153
  732MOL0     H98808   1.620   1.502  10.637 -3.2351  1.5604 -2.6491
  732MOL0     H98809   1.837   1.391  10.624 -1.4734  0.2263  1.4732
  732MOL0     H98810   2.144   1.548  10.344 -1.0308 -0.2873  1.5926
  732MOL0     H98811   2.217   1.626  10.480  1.7668  0.5143 -3.1237
  732MOL0     H98812   2.245   1.339  10.383 -0.1870  1.8459 -0.6611
  732MOL0     H98813   2.285   1.388  10.554 -0.5501  0.0430  0.1242
  732MOL0     H98814   2.415   1.520  10.314 -0.4649 -1.3785 -1.8132
  732MOL0     H98815   2.456   1.356  10.352  1.2774  0.6135  1.3962
  732MOL0     H98816   2.611   1.510  10.478  0.8672  1.4100  2.9611
  732MOL0     H98817   2.501   1.413  10.586 -0.2948 -1.2093 -1.9462
  732MOL0     H98818   2.388   1.800  10.692  0.9331 -0.3826  3.0742
  732MOL0     H98819   1.995   1.719  10.403 -0.7454  1.1805 -0.7306
  732MOL0     H98820   1.783   1.820  10.400 -2.9118 -0.5497 -0.2382
  733MOL0     O98821   8.569   5.473   5.427 -0.1204  0.3845  0.4515
  733MOL0     C98822   8.621   5.553   5.495 -0.3682 -0.4306  0.0735
  733MOL0     O98823   8.549   5.652   5.564 -0.2829  0.6627  0.0050
  733MOL0     C98824   8.411   5.655   5.559 -0.2157  0.3178 -0.5069
  733MOL0     C98825   8.324   5.550   5.577 -0.1735  1.2493 -0.3710
  733MOL0     C98826   8.188   5.555   5.594  0.2153 -0.1733  0.9560
  733MOL0     C98827   8.117   5.673   5.582  0.0009 -0.1922 -0.2526
  733MOL0     O98828   7.981   5.675   5.580 -0.0826  0.1326 -0.4921
  733MOL0     C98829   7.918   5.590   5.483 -0.1655  0.4887  0.1241
  733MOL0     C98830   7.776   5.557   5.529 -0.2384  0.2218 -0.3193
  733MOL0     C98831   7.687   5.470   5.447  0.3302  0.7136  0.3684
  733MOL0     C98832   7.649   5.553   5.326 -0.6417 -0.8674  0.0404
  733MOL0     C98833   7.529   5.496   5.255  0.2774  0.7433 -0.6249
  733MOL0     C98834   7.493   5.561   5.117  0.8774 -0.6000  0.1497
  733MOL0     C98835   7.444   5.706   5.126 -0.3793 -0.3787 -0.6131
  733MOL0     C98836   7.299   5.723   5.176  0.3037 -0.5453 -0.5212
  733MOL0     N98837   7.200   5.643   5.106  0.9301  0.2920 -0.4082
  733MOL0     C98838   7.183   5.629   4.972  0.3359 -0.2012 -0.0907
  733MOL0     C98839   7.072   5.554   4.947 -0.6935  0.2158 -0.1368
  733MOL0     C98840   7.035   5.526   4.811 -0.3476 -0.9969  0.0734
  733MOL0     C98841   6.948   5.409   4.801  0.0708  0.8348  0.1704
  733MOL0     C98842   6.879   5.402   4.663 -0.3509 -0.0742 -0.1621
  733MOL0     C98843   6.786   5.277   4.645 -0.3433 -0.5435 -1.1406
  733MOL0     O98844   6.727   5.308   4.525  0.4540 -0.1025  0.6205
  733MOL0     C98845   6.634   5.214   4.485 -0.1388  0.1942  0.0038
  733MOL0     C98846   6.553   5.256   4.371 -0.3529  0.4460  0.1062
  733MOL0     C98847   6.463   5.166   4.304  0.2407 -0.1579 -0.1069
  733MOL0     C98848   6.403   5.220   4.172 -0.6222  0.3517 -0.2037
  733MOL0     C98849   6.433   5.049   4.373 -0.3818  0.7019  0.4879
  733MOL0     C98850   6.322   4.955   4.335  0.4226 -0.5101  0.3376
  733MOL0     O98851   6.282   4.858   4.425  0.7727 -0.1990  0.1219
  733MOL0     C98852   6.174   4.782   4.388  0.3484 -0.2383 -0.0943
  733MOL0     C98853   6.042   4.826   4.391 -0.2442  0.4695 -0.1221
  733MOL0     C98854   5.929   4.746   4.354  0.1095  0.0615 -1.4070
  733MOL0     C98855   5.954   4.619   4.306 -0.2474 -0.0257 -0.4380
  733MOL0     O98856   5.854   4.526   4.267  0.1991 -0.1000 -0.4349
  733MOL0     C98857   5.718   4.569   4.275  0.2612  0.1092  1.1682
  733MOL0     C98858   5.631   4.450   4.251  0.2540  0.2019 -1.1414
  733MOL0     C98859   5.479   4.485   4.276  0.4417 -0.2217 -0.1835
  733MOL0     C98860   5.408   4.357   4.298 -0.0320 -0.9541  0.5313
  733MOL0     C98861   5.258   4.389   4.314 -0.4556 -0.1979 -0.2150
  733MOL0     C98862   5.203   4.274   4.405  0.1216 -0.7605 -0.1456
  733MOL0     C98863   5.210   4.317   4.546 -0.1329  0.4025 -0.0711
  733MOL0     C98864   5.091   4.395   4.601  0.4837  0.4131  0.0069
  733MOL0    Cl98865   5.058   4.557   4.518 -0.4798 -0.1665 -0.1049
  733MOL0     C98866   6.088   4.583   4.280  0.6518 -0.0135 -0.7699
  733MOL0     C98867   6.196   4.662   4.331 -0.5508  0.6445  0.2319
  733MOL0     O98868   6.278   4.963   4.220  0.4583  0.3633  0.0749
  733MOL0     C98869   6.511   5.007   4.490 -0.0564 -0.5160  0.8554
  733MOL0     C98870   6.618   5.088   4.539 -0.4619  0.6556  0.4633
  733MOL0     N98871   7.009   5.537   5.070 -0.0548 -0.3828  0.5582
  733MOL0     N98872   7.086   5.592   5.157 -0.5183 -0.0521  0.3359
  733MOL0     C98873   8.193   5.784   5.567  0.4185  0.0653 -0.4612
  733MOL0     C98874   8.338   5.777   5.562  0.4869  0.7084 -0.0571
  733MOL0     C98875   8.771   5.556   5.497  0.2582  0.6145 -0.2665
  733MOL0     C98876   8.853   5.464   5.427 -0.4855  0.8079 -0.2859
  733MOL0     C98877   8.993   5.458   5.450  0.1719 -0.3913  0.2772
  733MOL0     C98878   9.050   5.551   5.536 -0.3552  0.8494  0.2818
  733MOL0     O98879   9.182   5.541   5.564 -0.3047  0.0760 -0.0510
  733MOL0     C98880   9.210   5.527   5.702  0.1044 -0.3088  0.7063
  733MOL0     C98881   9.366   5.509   5.717  0.0130 -0.6694 -0.7681
  733MOL0     C98882   9.399   5.368   5.660  0.0818 -0.6281 -0.2888
  733MOL0     C98883   9.553   5.360   5.642 -0.1489 -0.1083 -0.0713
  733MOL0     C98884   9.583   5.221   5.595  0.1698 -0.9700  0.1149
  733MOL0     C98885   9.623   5.116   5.567  0.9547  0.9604  0.7461
  733MOL0     C98886   8.966   5.637   5.604  0.1280 -1.1248 -0.3168
  733MOL0     C98887   8.831   5.644   5.591 -0.6438 -0.3478  0.0238
  733MOL0     H98888   8.378   5.457   5.563  1.5334  2.1557 -0.1176
  733MOL0     H98889   8.129   5.465   5.609 -1.5054  1.0143  1.7060
  733MOL0     H98890   7.910   5.646   5.389  0.5241  2.1028  0.9940
  733MOL0     H98891   7.967   5.497   5.452 -0.1114  0.7694 -0.6558
  733MOL0     H98892   7.788   5.499   5.621 -3.2924 -2.6668 -1.5091
  733MOL0     H98893   7.718   5.647   5.552 -0.5565 -0.6379  2.6507
  733MOL0     H98894   7.720   5.370   5.418 -0.9759 -0.1091  1.5968
  733MOL0     H98895   7.594   5.452   5.502  1.1858  1.6266  2.2151
  733MOL0     H98896   7.622   5.654   5.357 -0.1658 -1.1183  1.3673
  733MOL0     H98897   7.738   5.562   5.263 -1.3836 -0.7285 -1.0081
  733MOL0     H98898   7.543   5.390   5.232 -0.0063  0.2710  1.2727
  733MOL0     H98899   7.448   5.498   5.328  1.9149  0.4069  1.3001
  733MOL0     H98900   7.581   5.553   5.053  3.5024  1.4336  3.1647
  733MOL0     H98901   7.418   5.504   5.062  1.0082  0.5629 -1.3037
  733MOL0     H98902   7.512   5.758   5.194  0.1075  0.5969 -1.8108
  733MOL0     H98903   7.465   5.759   5.034 -0.3384  0.0877 -0.3379
  733MOL0     H98904   7.267   5.827   5.185 -0.7417 -0.7301 -1.7591
  733MOL0     H98905   7.298   5.686   5.279  0.0946 -0.0376 -0.3381
  733MOL0     H98906   7.236   5.666   4.884 -0.2137  0.7403 -0.0412
  733MOL0     H98907   6.989   5.619   4.778  0.4798 -0.9153 -0.9280
  733MOL0     H98908   7.125   5.509   4.751  1.3628  1.0090  1.8855
  733MOL0     H98909   6.872   5.415   4.879 -0.3363 -1.4457  0.0025
  733MOL0     H98910   7.010   5.320   4.813 -0.2160  0.1630 -2.5437
  733MOL0     H98911   6.960   5.403   4.590  0.7388 -0.6822  1.0152
  733MOL0     H98912   6.821   5.491   4.637  2.8543  2.6168  1.2236
  733MOL0     H98913   6.721   5.275   4.734  2.2236  0.9581  0.9306
  733MOL0     H98914   6.839   5.182   4.633 -2.0922 -1.7333  0.0663
  733MOL0     H98915   6.559   5.357   4.332  1.9481  0.3080 -0.0281
  733MOL0     H98916   6.365   5.145   4.102  1.9916 -0.8481 -0.4548
  733MOL0     H98917   6.325   5.291   4.198 -1.9058 -0.9796 -0.3320
  733MOL0     H98918   6.487   5.270   4.122 -0.8412 -0.3623 -1.3267
  733MOL0     H98919   6.035   4.932   4.410 -1.0257  0.4548 -0.2957
  733MOL0     H98920   5.830   4.790   4.361  0.5305  0.8806 -0.3573
  733MOL0     H98921   5.690   4.605   4.375 -0.1456  2.0551  0.4174
  733MOL0     H98922   5.695   4.651   4.205  1.7946 -0.7312 -0.4053
  733MOL0     H98923   5.650   4.407   4.152 -1.4948  0.3021 -1.5563
  733MOL0     H98924   5.667   4.375   4.323  0.6815  1.4974  0.0355
  733MOL0     H98925   5.457   4.541   4.184 -1.9465 -0.0802  0.4098
  733MOL0     H98926   5.461   4.548   4.364  0.5365 -1.2640  0.5937
  733MOL0     H98927   5.425   4.288   4.215 -1.2911 -0.6441 -0.0116
  733MOL0     H98928   5.442   4.317   4.393 -0.5687 -1.6502  0.4396
  733MOL0     H98929   5.209   4.396   4.217  0.1825  2.4525 -0.4186
  733MOL0     H98930   5.246   4.486   4.362 -0.7264 -0.6624  0.6863
  733MOL0     H98931   5.103   4.239   4.376  0.4665 -2.6424  0.7464
  733MOL0     H98932   5.267   4.185   4.406 -2.6739 -2.9704  2.2600
  733MOL0     H98933   5.306   4.362   4.571  0.2939 -1.4127  1.8747
  733MOL0     H98934   5.221   4.224   4.602 -0.5757  0.1032 -0.4706
  733MOL0     H98935   5.103   4.397   4.710 -0.4170  3.2706  0.1320
  733MOL0     H98936   4.996   4.346   4.575 -1.2457  2.8064  1.4151
  733MOL0     H98937   6.106   4.489   4.229 -0.0091 -0.0612 -0.9306
  733MOL0     H98938   6.299   4.631   4.315 -1.6230 -2.5735 -1.5107
  733MOL0     H98939   6.491   4.919   4.551 -1.2752  0.4093  1.8287
  733MOL0     H98940   6.682   5.068   4.623  0.0460  2.1979  0.4727
  733MOL0     H98941   8.146   5.882   5.567 -0.3921 -0.2942 -1.5443
  733MOL0     H98942   8.396   5.869   5.553  1.2339  0.1830 -0.8170
  733MOL0     H98943   8.805   5.391   5.363  0.6733  1.0380 -1.4586
  733MOL0     H98944   9.064   5.399   5.393  3.5747  4.2561 -0.9092
  733MOL0     H98945   9.189   5.620   5.756 -1.4744 -1.2371  1.7826
  733MOL0     H98946   9.163   5.443   5.755  0.6979  0.1112  1.9297
  733MOL0     H98947   9.383   5.517   5.825  0.3293 -2.4822 -0.6581
  733MOL0     H98948   9.425   5.584   5.664  0.6168 -2.4090 -2.6688
  733MOL0     H98949   9.342   5.367   5.566  1.8085 -1.1897 -1.3827
  733MOL0     H98950   9.361   5.280   5.713  1.3726  0.0134  1.7794
  733MOL0     H98951   9.608   5.376   5.736  1.4260 -0.1501 -0.9456
  733MOL0     H98952   9.579   5.438   5.570  0.9158 -0.2017  0.1925
  733MOL0     H98953   9.652   5.021   5.527 -1.8370  0.5034 -0.4927
  733MOL0     H98954   9.002   5.710   5.676  0.5148 -1.3988 -0.2292
  733MOL0     H98955   8.774   5.717   5.646  1.2075  0.1875  1.3301
  734MOL0     O98956   0.976   2.990   3.107  0.0141 -0.2656 -0.2532
  734MOL0     C98957   1.026   2.879   3.127  0.1740 -0.0557 -0.4967
  734MOL0     O98958   0.961   2.760   3.139  0.2780 -0.2406 -0.0095
  734MOL0     C98959   0.827   2.761   3.117 -0.3188 -0.1219 -0.2335
  734MOL0     C98960   0.732   2.749   3.220 -1.1141 -0.5053 -0.1646
  734MOL0     C98961   0.596   2.739   3.193  0.0956 -0.5475 -0.0175
  734MOL0     C98962   0.545   2.748   3.059 -0.0768  0.0796 -1.1342
  734MOL0     O98963   0.414   2.735   3.021  0.1079  0.1602 -0.3806
  734MOL0     C98964   0.316   2.805   3.101 -0.3519  0.4752  0.8164
  734MOL0     C98965   0.295   2.944   3.058  0.5691 -0.1277  0.3307
  734MOL0     C98966   0.422   3.035   3.071 -0.5406 -0.0857 -0.2055
  734MOL0     C98967   0.392   3.187   3.076 -0.2234  0.2875  0.2375
  734MOL0     C98968   0.521   3.245   3.133 -0.0382  0.0108 -0.5541
  734MOL0     C98969   0.641   3.238   3.038  0.0056  0.4861  1.2865
  734MOL0     C98970   0.773   3.299   3.085  0.1077 -0.1386  0.1226
  734MOL0     C98971   0.881   3.287   2.978 -0.6130  0.3999  0.3491
  734MOL0     N98972   1.009   3.358   2.995  0.2398  0.1602 -0.4266
  734MOL0     C98973   1.032   3.492   2.978 -0.5951  0.3285 -0.4310
  734MOL0     C98974   1.162   3.509   2.996  0.2274 -0.1678  0.1472
  734MOL0     C98975   1.238   3.636   3.011  1.2032  0.1720  0.4284
  734MOL0     C98976   1.376   3.642   2.942  0.4687 -0.5150  0.3240
  734MOL0     C98977   1.380   3.617   2.789  0.4699 -0.3576  0.1418
  734MOL0     C98978   1.346   3.738   2.693 -0.0785  1.1854 -0.2590
  734MOL0     O98979   1.311   3.681   2.567 -0.0322 -0.3143  0.2946
  734MOL0     C98980   1.184   3.665   2.515 -0.1015  0.0618 -0.5724
  734MOL0     C98981   1.073   3.627   2.586  0.5177  0.2637  0.2053
  734MOL0     C98982   0.948   3.595   2.519  0.2093  0.0438 -0.1930
  734MOL0     C98983   0.841   3.575   2.619  0.3117 -0.1243 -0.0117
  734MOL0     C98984   0.938   3.600   2.380 -0.2788 -0.2536  0.3218
  734MOL0     C98985   0.811   3.572   2.308 -0.2406 -0.0293 -0.1299
  734MOL0     O98986   0.728   3.475   2.365  0.1375  0.9434 -0.5163
  734MOL0     C98987   0.598   3.451   2.327 -0.0861  0.8440  0.7195
  734MOL0     C98988   0.520   3.386   2.425 -0.6853 -0.4907  0.3393
  734MOL0     C98989   0.386   3.362   2.397 -0.1216  0.2614  0.4579
  734MOL0     C98990   0.332   3.396   2.277  0.3978  0.5001  0.6679
  734MOL0     O98991   0.203   3.353   2.246 -0.2219  0.5451 -0.0295
  734MOL0     C98992   0.175   3.315   2.105  1.5163 -0.9902 -0.6705
  734MOL0     C98993   0.056   3.212   2.103  0.5002  0.4904  0.8380
  734MOL0     C98994   0.013   3.171   1.960 -0.1718 -1.5760 -0.0681
  734MOL0     C98995  -0.086   3.051   1.950 -0.2748  0.0187  0.2323
  734MOL0     C98996  -0.104   2.999   1.806  0.5372  0.2082  0.1630
  734MOL0     C98997  -0.214   2.895   1.806  0.8518  0.3879 -0.8682
  734MOL0     C98998  -0.346   2.963   1.767  0.0526  0.4594  0.3992
  734MOL0     C98999  -0.458   2.853   1.798  0.2454 -0.1058  0.5842
  734MOL0    Cl99000  -0.454   2.826   1.970  0.4625  0.2259  0.2565
  734MOL0     C99001   0.404   3.475   2.186  0.2638  0.5305 -0.3595
  734MOL0     C99002   0.535   3.508   2.212  0.5210  0.4754 -0.4811
  734MOL0     O99003   0.790   3.650   2.218  0.2991  0.2248  0.2101
  734MOL0     C99004   1.057   3.628   2.306  0.2021  0.4238  0.3515
  734MOL0     C99005   1.178   3.648   2.378  0.5644  0.6163  0.1393
  734MOL0     N99006   1.217   3.379   3.000  0.0686  0.2951 -0.0569
  734MOL0     N99007   1.121   3.287   3.008 -0.1124 -0.5032  0.4214
  734MOL0     C99008   0.640   2.738   2.962 -0.2696 -0.0637 -0.1353
  734MOL0     C99009   0.774   2.747   2.988 -0.2611 -0.0634  0.1887
  734MOL0     C99010   1.168   2.879   3.133 -0.2721  1.1039  0.1778
  734MOL0     C99011   1.243   2.992   3.126 -0.5386 -0.4990  0.0754
  734MOL0     C99012   1.384   2.978   3.132  0.1099 -0.3336 -0.5799
  734MOL0     C99013   1.452   2.858   3.149 -0.1388  1.2878  0.2672
  734MOL0     O99014   1.589   2.838   3.153  0.3227 -0.4927 -0.1763
  734MOL0     C99015   1.662   2.931   3.078  0.3313  0.4243 -0.3646
  734MOL0     C99016   1.809   2.900   3.052  0.0686 -0.2825  0.1203
  734MOL0     C99017   1.908   3.018   3.049 -0.1875  0.1675  0.3167
  734MOL0     C99018   2.055   2.960   3.059 -0.4421  0.4212  0.0954
  734MOL0     C99019   2.151   3.068   3.048  0.2468 -0.5352  0.7044
  734MOL0     C99020   2.232   3.160   3.027 -0.1940  0.0410 -0.9125
  734MOL0     C99021   1.374   2.743   3.155  0.2495  0.4806  0.3933
  734MOL0     C99022   1.235   2.755   3.157  0.1348  0.3510 -0.1537
  734MOL0     H99023   0.753   2.770   3.325  0.8181 -2.2558 -0.1430
  734MOL0     H99024   0.526   2.746   3.275  1.4167 -0.4396  1.1212
  734MOL0     H99025   0.218   2.756   3.098  0.2473 -0.8295 -2.3732
  734MOL0     H99026   0.339   2.805   3.208  1.1047 -0.3640  0.5357
  734MOL0     H99027   0.258   2.933   2.956  3.3490 -2.5250 -0.5516
  734MOL0     H99028   0.211   2.976   3.120  0.2974 -2.1126  1.0584
  734MOL0     H99029   0.497   2.999   3.143  0.5380  1.3404 -0.5739
  734MOL0     H99030   0.478   3.019   2.979  2.3159 -1.3310  1.6269
  734MOL0     H99031   0.357   3.236   2.985  1.5483  2.5879  0.7130
  734MOL0     H99032   0.312   3.208   3.149  0.8607  0.5158  1.3949
  734MOL0     H99033   0.512   3.354   3.133  2.9415  0.3539 -0.0977
  734MOL0     H99034   0.546   3.212   3.235  2.1073 -0.3158 -1.1451
  734MOL0     H99035   0.661   3.132   3.019 -3.2842  0.2553 -1.8556
  734MOL0     H99036   0.614   3.284   2.943 -0.8080 -1.3479  0.5745
  734MOL0     H99037   0.762   3.401   3.123 -0.6520 -0.6568  1.3825
  734MOL0     H99038   0.803   3.233   3.168  3.4817 -0.9526 -1.5807
  734MOL0     H99039   0.837   3.299   2.878 -2.2097 -0.0056  0.9669
  734MOL0     H99040   0.899   3.179   2.979  1.9198  0.7676  0.2987
  734MOL0     H99041   0.961   3.571   2.955 -0.3864  0.2841 -1.2679
  734MOL0     H99042   1.181   3.721   2.972  0.6968  0.1182  1.0344
  734MOL0     H99043   1.245   3.668   3.115 -0.2025  0.0993  0.5643
  734MOL0     H99044   1.447   3.571   2.986  0.9201  0.8298  1.8648
  734MOL0     H99045   1.423   3.737   2.966  0.3965  0.3851 -2.6835
  734MOL0     H99046   1.317   3.528   2.778  0.8875 -0.6431  0.0658
  734MOL0     H99047   1.477   3.576   2.762 -0.8011 -1.1686 -3.7950
  734MOL0     H99048   1.427   3.812   2.690  0.3689  0.6663 -2.1096
  734MOL0     H99049   1.256   3.786   2.731 -1.6904 -1.6777 -0.2072
  734MOL0     H99050   1.091   3.638   2.693  1.6050  2.0137 -0.1115
  734MOL0     H99051   0.849   3.476   2.664 -1.1787  0.2670  1.2352
  734MOL0     H99052   0.844   3.654   2.695 -1.4230  0.5737 -0.6080
  734MOL0     H99053   0.742   3.588   2.575  0.9036  1.7052 -0.9305
  734MOL0     H99054   0.557   3.361   2.524  0.4767  1.3342  0.4024
  734MOL0     H99055   0.329   3.305   2.470 -0.4790  1.6688  1.3283
  734MOL0     H99056   0.141   3.401   2.046  3.1087  0.2183  0.1168
  734MOL0     H99057   0.257   3.272   2.046  1.6988 -1.0030 -0.4062
  734MOL0     H99058   0.089   3.119   2.149  1.2724 -0.9431 -2.3452
  734MOL0     H99059  -0.028   3.265   2.148 -1.1705  3.3902 -4.6831
  734MOL0     H99060   0.101   3.166   1.895 -1.0201 -0.2150 -1.3940
  734MOL0     H99061  -0.048   3.252   1.920 -1.5753 -2.3876  0.3881
  734MOL0     H99062  -0.051   2.970   2.014 -4.7805 -2.2864  0.1653
  734MOL0     H99063  -0.185   3.066   1.995 -0.0773  1.0794  0.3370
  734MOL0     H99064  -0.013   2.966   1.755  2.3090  3.2441  1.1114
  734MOL0     H99065  -0.132   3.080   1.738 -2.0733  1.9824  3.0526
  734MOL0     H99066  -0.184   2.825   1.728  3.3965  0.7113 -0.2850
  734MOL0     H99067  -0.219   2.844   1.903  0.7337  1.3429 -0.3591
  734MOL0     H99068  -0.343   2.987   1.661 -2.1182  0.7433  0.3518
  734MOL0     H99069  -0.381   3.052   1.821  1.4979  1.0597  0.3934
  734MOL0     H99070  -0.441   2.763   1.738  0.4056  0.5380 -0.3762
  734MOL0     H99071  -0.556   2.890   1.767 -0.2736 -0.7374  1.4394
  734MOL0     H99072   0.349   3.513   2.101  0.1558  1.4734  0.1186
  734MOL0     H99073   0.597   3.555   2.137 -0.7302 -0.9918 -2.5370
  734MOL0     H99074   1.062   3.622   2.198  1.2129 -0.0182  0.4120
  734MOL0     H99075   1.269   3.675   2.327 -0.1655  2.7012 -0.1655
  734MOL0     H99076   0.607   2.711   2.862 -0.5816 -0.4199  0.0579
  734MOL0     H99077   0.845   2.752   2.905 -2.1028 -0.7419 -1.4921
  734MOL0     H99078   1.202   3.092   3.123 -3.6659 -1.5183  2.9152
  734MOL0     H99079   1.446   3.066   3.143  1.3515 -0.9687 -2.1297
  734MOL0     H99080   1.613   2.964   2.985  0.0861  1.1677  0.0215
  734MOL0     H99081   1.670   3.016   3.146  0.7426  0.9888 -1.0879
  734MOL0     H99082   1.805   2.856   2.952 -2.4543 -2.4217  1.0436
  734MOL0     H99083   1.845   2.825   3.123 -1.7757 -0.4617  0.9241
  734MOL0     H99084   1.891   3.081   3.137 -1.3328  1.1126 -0.5498
  734MOL0     H99085   1.892   3.077   2.959 -0.8531 -1.8189 -0.9282
  734MOL0     H99086   2.069   2.893   2.974  1.5059  0.9265 -0.0152
  734MOL0     H99087   2.067   2.906   3.153  0.3029 -0.8930 -0.7244
  734MOL0     H99088   2.318   3.224   3.013 -0.1536  0.1015 -0.3871
  734MOL0     H99089   1.409   2.641   3.159 -0.1619  0.1337 -2.6591
  734MOL0     H99090   1.171   2.668   3.148 -1.2450  1.3112  0.1597
  735MOL0     O99091   9.280   6.339   8.164  0.6458  0.4230 -0.5063
  735MOL0     C99092   9.322   6.440   8.215  0.9632  0.7129 -1.0024
  735MOL0     O99093   9.242   6.532   8.270  0.0985  0.9117  0.4250
  735MOL0     C99094   9.102   6.532   8.256  0.8777 -0.7227 -0.0399
  735MOL0     C99095   9.038   6.652   8.291 -1.3955  1.2073 -0.7945
  735MOL0     C99096   8.903   6.674   8.299  0.2518  0.4591 -0.2624
  735MOL0     C99097   8.811   6.562   8.276  0.8026  0.3059 -0.3048
  735MOL0     O99098   8.675   6.581   8.285 -0.4900  0.3671 -0.0716
  735MOL0     C99099   8.587   6.519   8.185 -0.0214 -0.0061 -0.1882
  735MOL0     C99100   8.467   6.477   8.264 -1.2523  0.7309 -0.8426
  735MOL0     C99101   8.362   6.402   8.175 -0.2556  0.0396 -0.0072
  735MOL0     C99102   8.243   6.385   8.274 -0.0056  0.5000 -0.5798
  735MOL0     C99103   8.127   6.295   8.218 -0.2323  0.3140 -0.3963
  735MOL0     C99104   8.075   6.330   8.080 -0.3722  0.2817 -1.5115
  735MOL0     C99105   7.929   6.282   8.045 -0.0056  1.2750  0.2199
  735MOL0     C99106   7.919   6.235   7.905  0.7013 -0.0282  0.2715
  735MOL0     N99107   7.780   6.199   7.860 -0.1873  0.3089  0.1225
  735MOL0     C99108   7.699   6.284   7.796  0.3875 -0.0544  0.7474
  735MOL0     C99109   7.591   6.211   7.765  0.3216  0.1058 -0.0023
  735MOL0     C99110   7.473   6.269   7.683 -0.1210  0.2161 -0.1450
  735MOL0     C99111   7.339   6.201   7.700  0.1141  0.1965  0.5987
  735MOL0     C99112   7.212   6.265   7.640  0.7547 -0.2019 -0.4672
  735MOL0     C99113   7.084   6.176   7.660 -1.4851 -0.0147 -0.2551
  735MOL0     O99114   6.968   6.254   7.663 -0.0992 -0.1447  0.3615
  735MOL0     C99115   6.852   6.182   7.621  0.7656 -0.7169  0.6139
  735MOL0     C99116   6.840   6.050   7.572  0.5676 -0.2461  0.2961
  735MOL0     C99117   6.715   6.003   7.526 -0.1318 -0.3737  0.0300
  735MOL0     C99118   6.709   5.869   7.470 -0.1185 -0.3945 -0.1674
  735MOL0     C99119   6.599   6.082   7.526  0.3199 -0.2337 -1.1008
  735MOL0     C99120   6.463   6.041   7.477 -0.3007  0.2313 -1.4097
  735MOL0     O99121   6.369   6.139   7.453 -0.6415 -0.0825  0.1934
  735MOL0     C99122   6.239   6.097   7.461  0.0936 -0.2774 -0.4850
  735MOL0     C99123   6.158   6.084   7.348  0.0369 -0.9907  0.6763
  735MOL0     C99124   6.029   6.086   7.362 -0.3414  0.2007 -0.1546
  735MOL0     C99125   5.973   6.087   7.486  0.4495  0.1176 -0.3686
  735MOL0     O99126   5.837   6.080   7.516 -1.0320 -0.4631 -0.6258
  735MOL0     C99127   5.755   6.178   7.457 -1.0112  1.4124  0.0964
  735MOL0     C99128   5.631   6.185   7.539  0.3559  0.6149  0.7281
  735MOL0     C99129   5.533   6.272   7.455 -0.5775 -0.4642 -1.4505
  735MOL0     C99130   5.467   6.208   7.335 -0.2390  0.5250 -0.3870
  735MOL0     C99131   5.358   6.295   7.266 -0.5727  0.4623  0.0279
  735MOL0     C99132   5.231   6.304   7.346 -0.6874 -0.2996 -0.6234
  735MOL0     C99133   5.110   6.335   7.251 -0.3584  0.7490  0.3593
  735MOL0     C99134   4.974   6.323   7.310  0.5320 -0.2651  0.1807
  735MOL0    Cl99135   4.942   6.412   7.470 -0.1523  0.0645 -0.1018
  735MOL0     C99136   6.048   6.093   7.602  0.6189  0.3402 -0.5756
  735MOL0     C99137   6.189   6.103   7.597  0.7860 -0.3599  0.0229
  735MOL0     O99138   6.434   5.924   7.459 -0.3312  0.8400 -0.0415
  735MOL0     C99139   6.612   6.208   7.574  0.7274  0.1260  0.2317
  735MOL0     C99140   6.734   6.258   7.613 -0.0006 -0.2434  0.6770
  735MOL0     N99141   7.601   6.088   7.823  0.3560 -0.8473  0.4091
  735MOL0     N99142   7.715   6.077   7.879 -0.5289  0.3641  0.6459
  735MOL0     C99143   8.872   6.432   8.267 -0.3338  0.4845 -0.2064
  735MOL0     C99144   9.016   6.419   8.253  0.8543  0.4923 -0.4355
  735MOL0     C99145   9.473   6.441   8.225 -0.1310 -0.5982 -0.9037
  735MOL0     C99146   9.541   6.552   8.270 -0.2046 -0.7554  0.3038
  735MOL0     C99147   9.683   6.562   8.260 -0.1983 -0.0074  0.1797
  735MOL0     C99148   9.759   6.461   8.209 -0.7212  0.1798 -1.0743
  735MOL0     O99149   9.896   6.480   8.197 -0.6144 -0.4042  0.0493
  735MOL0     C99150   9.973   6.366   8.152 -0.4112  0.2719 -0.2624
  735MOL0     C99151  10.123   6.405   8.140  0.4720 -1.0429 -1.1287
  735MOL0     C99152  10.217   6.285   8.146 -0.0442 -0.3354 -0.1121
  735MOL0     C99153  10.355   6.326   8.175  0.6103 -0.2190 -0.1111
  735MOL0     C99154  10.445   6.213   8.166  0.6079 -0.3380  0.6108
  735MOL0     C99155  10.524   6.118   8.148  0.6808 -0.3664 -0.1981
  735MOL0     C99156   9.680   6.346   8.169  0.3427  0.0988 -0.0446
  735MOL0     C99157   9.549   6.341   8.172  0.6947  0.1354  0.7222
  735MOL0     H99158   9.105   6.733   8.318  0.5755  0.2832 -2.5783
  735MOL0     H99159   8.849   6.761   8.335  0.8238  0.0731  1.6378
  735MOL0     H99160   8.556   6.575   8.096 -2.2782  0.4468  0.8001
  735MOL0     H99161   8.642   6.435   8.143 -0.3738 -1.3164  1.8498
  735MOL0     H99162   8.487   6.410   8.348 -0.5074  2.5511  0.5064
  735MOL0     H99163   8.427   6.567   8.313  1.1832  1.3999  0.0725
  735MOL0     H99164   8.326   6.447   8.082 -0.0270 -2.3550 -1.3262
  735MOL0     H99165   8.394   6.300   8.152 -2.8461 -0.7145 -0.6433
  735MOL0     H99166   8.268   6.337   8.369 -2.2412 -0.4929 -0.4316
  735MOL0     H99167   8.200   6.483   8.299 -1.4786 -0.2800  0.1194
  735MOL0     H99168   8.156   6.190   8.219  0.8026  0.5765  1.1139
  735MOL0     H99169   8.042   6.302   8.287 -2.4076  1.0180 -2.9616
  735MOL0     H99170   8.060   6.438   8.081 -2.5978  0.0509  0.3984
  735MOL0     H99171   8.147   6.311   8.001  2.1166 -1.8065  1.0377
  735MOL0     H99172   7.895   6.211   8.121  2.4946  1.2994  1.4939
  735MOL0     H99173   7.863   6.368   8.061 -1.3598  0.2110  0.4632
  735MOL0     H99174   7.982   6.146   7.891  0.2786 -0.4560  1.0219
  735MOL0     H99175   7.960   6.310   7.836  1.5063 -0.6471  0.0596
  735MOL0     H99176   7.715   6.388   7.768 -2.9608  0.0382 -1.3245
  735MOL0     H99177   7.452   6.373   7.712 -1.8798 -0.2703  0.4931
  735MOL0     H99178   7.503   6.269   7.578  0.7384 -1.3124  0.0758
  735MOL0     H99179   7.334   6.171   7.805  1.4451 -1.8209  0.1439
  735MOL0     H99180   7.348   6.107   7.646  0.1151  0.3924  0.2572
  735MOL0     H99181   7.233   6.286   7.534 -0.0523  1.0246 -0.4016
  735MOL0     H99182   7.196   6.364   7.683 -1.6440 -1.3917  1.6093
  735MOL0     H99183   7.083   6.129   7.758 -0.1922 -2.0034 -1.1279
  735MOL0     H99184   7.091   6.093   7.589 -3.8357 -1.5645  1.2262
  735MOL0     H99185   6.922   5.980   7.582  0.3093 -0.8171 -1.1904
  735MOL0     H99186   6.673   5.792   7.539  4.2439 -1.4319  1.2511
  735MOL0     H99187   6.652   5.863   7.377 -1.9366 -0.0427  0.8705
  735MOL0     H99188   6.808   5.829   7.444  0.5492  1.1375 -0.0795
  735MOL0     H99189   6.202   6.083   7.249  1.5395  4.6384  0.9346
  735MOL0     H99190   5.968   6.077   7.273  1.0777  0.2570 -1.1829
  735MOL0     H99191   5.801   6.277   7.447 -0.0985  0.7957 -2.9867
  735MOL0     H99192   5.727   6.147   7.356  2.1576 -1.8506  0.0023
  735MOL0     H99193   5.586   6.088   7.563 -0.1229  1.1459  2.0456
  735MOL0     H99194   5.671   6.231   7.630  0.1641  2.1921  0.0477
  735MOL0     H99195   5.574   6.369   7.425 -1.1271  0.1678 -0.2148
  735MOL0     H99196   5.460   6.298   7.532  0.6527  2.3931 -1.1350
  735MOL0     H99197   5.542   6.196   7.255  0.3341  0.7762  0.1010
  735MOL0     H99198   5.428   6.109   7.361 -1.0169  0.8025 -0.4736
  735MOL0     H99199   5.357   6.251   7.166 -0.8318 -2.1649  1.0949
  735MOL0     H99200   5.392   6.399   7.266 -0.7906  0.5395 -0.6921
  735MOL0     H99201   5.219   6.214   7.407  0.8925 -0.3754 -0.3953
  735MOL0     H99202   5.243   6.395   7.406  0.6587 -0.4183 -0.6901
  735MOL0     H99203   5.110   6.282   7.155 -1.2415 -2.0762  1.8017
  735MOL0     H99204   5.125   6.441   7.227  1.2722  0.5650  0.4783
  735MOL0     H99205   4.968   6.216   7.330  0.5413 -1.4601 -4.9173
  735MOL0     H99206   4.891   6.335   7.241  4.0537  2.1007 -4.2090
  735MOL0     H99207   5.986   6.105   7.690 -0.0466  1.4517 -1.1675
  735MOL0     H99208   6.253   6.125   7.682  0.1595 -0.0114  0.4109
  735MOL0     H99209   6.537   6.286   7.579  2.2093  1.5067  2.8343
  735MOL0     H99210   6.748   6.363   7.637  2.9490  0.2117 -2.3517
  735MOL0     H99211   8.815   6.340   8.270  0.7150 -0.1493  1.5324
  735MOL0     H99212   9.065   6.322   8.247 -0.0854  0.0356 -1.0553
  735MOL0     H99213   9.503   6.644   8.312  2.5218  0.2811  0.7210
  735MOL0     H99214   9.734   6.652   8.295 -0.5955 -0.4743  2.0642
  735MOL0     H99215   9.961   6.274   8.210  1.9815  0.4986  0.7487
  735MOL0     H99216   9.946   6.350   8.048 -0.8285  1.2843 -0.3173
  735MOL0     H99217  10.149   6.479   8.216  1.9626  1.2042 -3.6502
  735MOL0     H99218  10.134   6.460   8.047 -1.3501  1.6111  0.1013
  735MOL0     H99219  10.193   6.247   8.046 -0.8225  1.6509 -0.7298
  735MOL0     H99220  10.180   6.212   8.219 -2.0593 -0.2960 -1.0201
  735MOL0     H99221  10.382   6.360   8.275  1.2610 -0.8532 -0.0540
  735MOL0     H99222  10.386   6.404   8.105  0.9691 -0.0358  0.2472
  735MOL0     H99223  10.585   6.033   8.122 -0.2733 -0.0232 -4.0956
  735MOL0     H99224   9.733   6.263   8.123  0.8889  1.1347 -1.3547
  735MOL0     H99225   9.502   6.268   8.107 -0.4100  2.9557 -1.8523
  736MOL0     O99226   7.648   6.497   8.316 -0.5135 -0.5146 -1.0581
  736MOL0     C99227   7.685   6.384   8.343 -1.4537 -1.0266  0.0194
  736MOL0     O99228   7.621   6.272   8.315  0.0224 -0.9713  0.2494
  736MOL0     C99229   7.495   6.263   8.256 -0.8575  0.2723  0.3863
  736MOL0     C99230   7.477   6.168   8.149  0.1061 -0.0584 -0.7370
  736MOL0     C99231   7.354   6.141   8.094  0.4588  0.1659  0.3574
  736MOL0     C99232   7.241   6.203   8.146  0.1218 -0.1294  0.7804
  736MOL0     O99233   7.117   6.175   8.084 -0.0461 -0.5628  0.5474
  736MOL0     C99234   6.999   6.182   8.159  0.0915 -0.5215  0.0436
  736MOL0     C99235   6.895   6.137   8.061 -0.6431 -0.0893 -0.4690
  736MOL0     C99236   6.760   6.175   8.119  0.4073  0.3324  0.6483
  736MOL0     C99237   6.659   6.053   8.110 -0.4124 -0.3926 -0.1374
  736MOL0     C99238   6.528   6.095   8.166  0.4948 -1.2482  0.1852
  736MOL0     C99239   6.471   6.206   8.079  0.6680  0.1174  0.1819
  736MOL0     C99240   6.318   6.244   8.107 -0.9535  0.3063  1.0035
  736MOL0     C99241   6.272   6.277   8.252 -0.3135 -0.1068  0.7611
  736MOL0     N99242   6.122   6.274   8.258  0.4682 -0.1203 -0.6236
  736MOL0     C99243   6.042   6.373   8.202  0.4770  0.3205 -0.3609
  736MOL0     C99244   5.922   6.357   8.265 -1.0380  0.9681  0.6555
  736MOL0     C99245   5.804   6.444   8.255  0.1106 -0.6329  0.2592
  736MOL0     C99246   5.664   6.382   8.292 -0.9507 -0.5021 -0.1229
  736MOL0     C99247   5.545   6.409   8.182 -0.3758 -0.5702 -0.5113
  736MOL0     C99248   5.500   6.558   8.148  0.1164 -0.6403 -0.0310
  736MOL0     O99249   5.377   6.560   8.071 -0.8320  0.0252 -0.0629
  736MOL0     C99250   5.262   6.572   8.140  0.0128  0.5343  0.4701
  736MOL0     C99251   5.228   6.682   8.217  0.7198 -0.6025 -0.0387
  736MOL0     C99252   5.097   6.715   8.259  0.1630  0.1788 -0.4433
  736MOL0     C99253   5.073   6.844   8.329  0.0044 -0.7111  0.9161
  736MOL0     C99254   4.996   6.626   8.214 -0.1053  0.6836 -0.0030
  736MOL0     C99255   4.847   6.644   8.231 -0.4678  0.2484  0.8675
  736MOL0     O99256   4.761   6.564   8.147  0.5252 -0.5649 -0.0265
  736MOL0     C99257   4.632   6.561   8.180 -0.1847 -0.6689  0.4503
  736MOL0     C99258   4.585   6.454   8.259  0.3871  0.7519  0.0290
  736MOL0     C99259   4.448   6.441   8.289 -0.5451  0.6833  0.2007
  736MOL0     C99260   4.362   6.538   8.241 -0.1732  0.0524 -0.3076
  736MOL0     O99261   4.227   6.519   8.256 -0.2572  0.4922 -0.2541
  736MOL0     C99262   4.156   6.627   8.320  0.3760 -0.3259  0.0365
  736MOL0     C99263   4.039   6.672   8.222 -0.2399  1.0112  0.4566
  736MOL0     C99264   3.971   6.802   8.266 -0.1749  0.0627  0.5160
  736MOL0     C99265   3.901   6.789   8.395  0.3041 -0.2868 -0.4022
  736MOL0     C99266   3.974   6.853   8.508  0.3894  0.3272  0.1774
  736MOL0     C99267   3.866   6.887   8.621 -0.8130 -0.5585 -0.4025
  736MOL0     C99268   3.797   6.777   8.691 -0.5757  0.6045 -0.0583
  736MOL0     C99269   3.669   6.838   8.755  0.0574  0.6988  0.0014
  736MOL0    Cl99270   3.537   6.866   8.633  0.2039  0.3143  0.1385
  736MOL0     C99271   4.410   6.638   8.156 -0.1420 -0.6133  1.0281
  736MOL0     C99272   4.543   6.649   8.130 -0.2438 -0.2498  0.3329
  736MOL0     O99273   4.810   6.725   8.311 -0.1936 -0.8924  0.2191
  736MOL0     C99274   5.029   6.519   8.135 -0.5131  0.0919  0.2524
  736MOL0     C99275   5.159   6.489   8.093  0.5343  0.0082  0.2261
  736MOL0     N99276   5.930   6.247   8.349 -0.7031  0.7943 -0.2213
  736MOL0     N99277   6.045   6.192   8.329  0.4490  0.2791  0.1229
  736MOL0     C99278   7.257   6.304   8.248 -0.3659  0.1064  0.0589
  736MOL0     C99279   7.387   6.326   8.304  0.5686  0.1039  0.0078
  736MOL0     C99280   7.812   6.375   8.427  0.3088 -0.0930 -0.3708
  736MOL0     C99281   7.898   6.486   8.424  0.1816 -0.2825 -0.6531
  736MOL0     C99282   8.008   6.487   8.513  0.8038  0.7605 -0.8379
  736MOL0     C99283   8.030   6.377   8.594 -0.2161 -0.7087 -1.2523
  736MOL0     O99284   8.127   6.397   8.693 -0.3560  0.1917  0.8025
  736MOL0     C99285   8.182   6.285   8.765  1.4678 -0.5703  0.0486
  736MOL0     C99286   8.335   6.301   8.799  0.1126 -0.4736 -0.2991
  736MOL0     C99287   8.361   6.254   8.944 -0.1745 -0.1141 -0.2279
  736MOL0     C99288   8.513   6.244   8.969  0.9606 -0.1499  0.9751
  736MOL0     C99289   8.561   6.380   8.975  0.0080  0.1671  0.3414
  736MOL0     C99290   8.596   6.489   9.015 -0.1533  0.4595 -0.2294
  736MOL0     C99291   7.953   6.256   8.583 -0.0908 -1.0347  0.8350
  736MOL0     C99292   7.839   6.262   8.501 -0.1788 -0.6428  0.1027
  736MOL0     H99293   7.563   6.111   8.116 -0.7770 -1.7747 -0.2024
  736MOL0     H99294   7.339   6.071   8.013 -1.2092  1.2475 -0.3393
  736MOL0     H99295   6.996   6.127   8.254  0.9317  1.9348  1.6072
  736MOL0     H99296   6.984   6.285   8.194 -0.3970 -0.4370 -0.4045
  736MOL0     H99297   6.907   6.185   7.963  1.1238  1.1551  0.3037
  736MOL0     H99298   6.897   6.029   8.045 -2.6071  0.2111 -3.6412
  736MOL0     H99299   6.763   6.204   8.224 -0.3920 -1.3297  1.1626
  736MOL0     H99300   6.727   6.261   8.059  0.8680  0.4970  0.6180
  736MOL0     H99301   6.648   6.021   8.006  0.7743 -0.7152 -0.1820
  736MOL0     H99302   6.701   5.970   8.168 -0.4648  0.9425  1.9577
  736MOL0     H99303   6.460   6.010   8.159  1.5660 -2.0825 -0.5099
  736MOL0     H99304   6.537   6.128   8.269 -0.6015 -0.4001  0.0185
  736MOL0     H99305   6.533   6.296   8.084 -0.8149  1.2455 -0.8611
  736MOL0     H99306   6.469   6.183   7.972  0.4125  3.6513 -0.6901
  736MOL0     H99307   6.299   6.329   8.041 -0.3020  0.7933  1.4348
  736MOL0     H99308   6.257   6.159   8.076  2.2663 -1.6392 -0.5197
  736MOL0     H99309   6.316   6.370   8.289  0.7301 -1.7538  4.0843
  736MOL0     H99310   6.308   6.197   8.317  2.5919 -0.1180 -0.7267
  736MOL0     H99311   6.083   6.454   8.143  0.7075 -0.7849 -1.7703
  736MOL0     H99312   5.819   6.531   8.321  2.7217  1.0794 -2.3436
  736MOL0     H99313   5.795   6.479   8.152 -0.0986 -3.0227 -0.5973
  736MOL0     H99314   5.629   6.420   8.388  2.7846  2.1915  0.3625
  736MOL0     H99315   5.675   6.273   8.292  2.9471 -0.2244  0.8424
  736MOL0     H99316   5.453   6.362   8.216 -0.3350 -0.4840 -0.2823
  736MOL0     H99317   5.567   6.359   8.087  0.3981 -1.2402  0.0030
  736MOL0     H99318   5.582   6.603   8.090 -1.9174  1.8323 -1.1678
  736MOL0     H99319   5.496   6.616   8.241 -1.4403 -1.0472  0.1723
  736MOL0     H99320   5.309   6.749   8.247 -0.4916  0.2528  1.5140
  736MOL0     H99321   5.076   6.835   8.438  3.4554  1.7694  1.2167
  736MOL0     H99322   5.147   6.913   8.287 -2.2116 -0.1803 -2.5597
  736MOL0     H99323   4.979   6.893   8.304  0.9166 -0.5013 -2.8087
  736MOL0     H99324   4.654   6.382   8.301 -1.2622 -0.9462 -0.0385
  736MOL0     H99325   4.418   6.358   8.351 -2.7665  1.1386 -0.1983
  736MOL0     H99326   4.106   6.597   8.412 -1.1067  2.9800  0.4459
  736MOL0     H99327   4.214   6.717   8.341 -1.0429  0.6939 -0.2728
  736MOL0     H99328   4.075   6.688   8.120 -3.0439  3.3519 -0.3018
  736MOL0     H99329   3.970   6.590   8.200  0.0354  1.1881 -1.1885
  736MOL0     H99330   3.889   6.835   8.201 -1.6147  2.1064  3.1687
  736MOL0     H99331   4.044   6.884   8.266 -0.4074  0.3019 -1.0999
  736MOL0     H99332   3.810   6.849   8.387  0.0713 -0.8734 -2.9440
  736MOL0     H99333   3.859   6.690   8.416 -0.5940 -0.0442 -0.9958
  736MOL0     H99334   4.019   6.944   8.468 -1.3508  0.5830 -1.3806
  736MOL0     H99335   4.054   6.794   8.555 -0.7631 -1.9777 -0.5729
  736MOL0     H99336   3.921   6.941   8.699  2.3859 -3.3273 -0.5072
  736MOL0     H99337   3.790   6.959   8.588  1.0931  1.1595 -1.3294
  736MOL0     H99338   3.850   6.728   8.773 -0.8163 -1.0918 -0.8829
  736MOL0     H99339   3.771   6.692   8.627 -3.0796 -1.0216  2.8575
  736MOL0     H99340   3.688   6.931   8.809  1.6993  1.5572 -1.9389
  736MOL0     H99341   3.628   6.769   8.829  0.3300 -0.9780 -1.3596
  736MOL0     H99342   4.343   6.708   8.108  3.4336  0.8225 -2.5201
  736MOL0     H99343   4.579   6.726   8.062  1.4790 -2.6371 -1.6290
  736MOL0     H99344   4.964   6.444   8.092  1.9455 -1.4078 -1.0451
  736MOL0     H99345   5.182   6.414   8.018  0.4546  1.6441 -1.4920
  736MOL0     H99346   7.172   6.362   8.282  0.2943  2.0042 -1.3338
  736MOL0     H99347   7.395   6.402   8.381 -1.0877  0.1970  0.1152
  736MOL0     H99348   7.867   6.573   8.367 -0.3788  1.4803  2.1550
  736MOL0     H99349   8.065   6.580   8.525  1.5474  0.4899 -2.0375
  736MOL0     H99350   8.126   6.263   8.857  0.8516 -0.6747 -0.3470
  736MOL0     H99351   8.170   6.202   8.696 -0.7103  2.8589 -4.2088
  736MOL0     H99352   8.345   6.410   8.786 -0.8127 -0.5129 -1.5409
  736MOL0     H99353   8.402   6.244   8.735  0.8827 -0.9175  0.8726
  736MOL0     H99354   8.313   6.156   8.953  1.9106 -1.0414  1.7987
  736MOL0     H99355   8.320   6.315   9.025 -0.0959 -2.9764  2.1227
  736MOL0     H99356   8.565   6.188   8.891  0.5467  0.2194  0.4223
  736MOL0     H99357   8.547   6.196   9.062  4.0084  1.4352  0.7847
  736MOL0     H99358   8.618   6.591   9.039 -0.4779  0.7750 -1.2419
  736MOL0     H99359   7.970   6.158   8.625 -2.2344 -1.9515 -0.2965
  736MOL0     H99360   7.771   6.179   8.492  0.0767 -1.0517  1.5421
  737MOL0     O99361  10.487   5.328   9.546  0.1419  0.1650  0.4628
  737MOL0     C99362  10.477   5.432   9.481 -0.2147  0.0976 -0.1365
  737MOL0     O99363  10.567   5.486   9.406  0.0417  0.4529  0.1861
  737MOL0     C99364  10.678   5.410   9.383 -0.1867 -0.6820 -0.4996
  737MOL0     C99365  10.758   5.345   9.486  0.1904  0.1510 -0.2050
  737MOL0     C99366  10.883   5.286   9.454  0.7074 -1.0406  0.2792
  737MOL0     C99367  10.936   5.291   9.328 -0.9324 -0.3637 -0.5350
  737MOL0     O99368  11.063   5.248   9.319  0.2178 -0.6435 -0.2462
  737MOL0     C99369  11.121   5.238   9.193  0.5223  0.2406  0.2902
  737MOL0     C99370  11.197   5.367   9.171 -0.1241  0.5438  0.9236
  737MOL0     C99371  11.324   5.394   9.260 -0.6779  0.0590 -0.2479
  737MOL0     C99372  11.376   5.536   9.228 -0.3555  0.3426  0.4241
  737MOL0     C99373  11.504   5.561   9.303 -0.7137  0.2401  0.4871
  737MOL0     C99374  11.617   5.473   9.257  0.8040 -0.3292 -0.7683
  737MOL0     C99375  11.755   5.530   9.317 -0.2697  0.0982 -0.1410
  737MOL0     C99376  11.876   5.435   9.303  0.1989 -0.0950 -0.3454
  737MOL0     N99377  11.891   5.383   9.171 -0.0543 -0.0453 -0.2972
  737MOL0     C99378  11.829   5.274   9.122  0.2647  0.1154  0.6034
  737MOL0     C99379  11.838   5.284   8.990  0.1935  0.4211 -0.3915
  737MOL0     C99380  11.783   5.197   8.882 -0.3426  0.4091 -0.0223
  737MOL0     C99381  11.628   5.197   8.880  0.0258  0.0894 -0.5612
  737MOL0     C99382  11.573   5.330   8.850  0.5466  0.3724  0.1433
  737MOL0     C99383  11.589   5.375   8.705  0.3999 -0.0703  1.1202
  737MOL0     O99384  11.527   5.511   8.693 -0.0193 -0.2134  0.0411
  737MOL0     C99385  11.388   5.520   8.695  0.3348 -0.4179 -0.5668
  737MOL0     C99386  11.328   5.593   8.793  1.0306  0.3274  0.0035
  737MOL0     C99387  11.190   5.599   8.808  1.0865 -0.7076 -0.3622
  737MOL0     C99388  11.133   5.680   8.925  0.0751 -0.0921  0.6937
  737MOL0     C99389  11.110   5.535   8.713 -0.6656  0.0337 -0.4304
  737MOL0     C99390  10.959   5.536   8.718  0.6190  0.4559  0.4178
  737MOL0     O99391  10.909   5.405   8.702  0.0085  0.2318  0.3253
  737MOL0     C99392  10.773   5.396   8.688  0.0001  0.6418  0.6433
  737MOL0     C99393  10.705   5.460   8.583 -0.1603 -0.2396 -0.5037
  737MOL0     C99394  10.568   5.466   8.584 -0.2318 -0.4868  0.4397
  737MOL0     C99395  10.487   5.390   8.670 -0.2358 -1.3687  0.3999
  737MOL0     O99396  10.351   5.398   8.663  0.4305  0.2374 -0.2877
  737MOL0     C99397  10.279   5.277   8.647  0.2480 -0.5607  0.1889
  737MOL0     C99398  10.159   5.254   8.739  0.1704  0.3951  0.2632
  737MOL0     C99399  10.047   5.359   8.708  0.4755 -0.0322  0.2183
  737MOL0     C99400   9.927   5.324   8.782 -0.2068 -0.3941 -0.3561
  737MOL0     C99401   9.808   5.412   8.737  0.0636  0.9262 -0.2842
  737MOL0     C99402   9.673   5.361   8.792  0.1771 -1.2091 -0.5750
  737MOL0     C99403   9.551   5.439   8.752 -0.5338 -0.2437  0.0982
  737MOL0     C99404   9.427   5.386   8.828  0.9874 -0.6654 -0.3918
  737MOL0    Cl99405   9.460   5.420   8.999 -0.0355  0.1476  0.1675
  737MOL0     C99406  10.558   5.318   8.770 -0.7083 -0.0009  0.2392
  737MOL0     C99407  10.695   5.313   8.768 -0.5883 -0.4422 -0.1144
  737MOL0     O99408  10.896   5.637   8.749 -0.1347  0.2377 -0.3279
  737MOL0     C99409  11.167   5.461   8.613 -0.6408 -0.2287  0.6042
  737MOL0     C99410  11.305   5.463   8.593 -0.5605  0.4923 -0.8029
  737MOL0     N99411  11.910   5.404   8.954  0.9512  0.8652 -0.7465
  737MOL0     N99412  11.942   5.450   9.067 -0.1358 -0.2360  0.1396
  737MOL0     C99413  10.858   5.352   9.222  0.2197 -0.1002 -0.2284
  737MOL0     C99414  10.729   5.404   9.254  0.5958 -0.0333 -0.5746
  737MOL0     C99415  10.353   5.505   9.497 -0.1630  0.2605 -0.2800
  737MOL0     C99416  10.251   5.467   9.588 -0.0730  0.2740 -0.6128
  737MOL0     C99417  10.136   5.541   9.602 -0.3746  0.5011 -0.0869
  737MOL0     C99418  10.112   5.649   9.525 -0.6071 -0.8010  0.1924
  737MOL0     O99419   9.992   5.715   9.536  0.4419  0.0883 -0.0616
  737MOL0     C99420   9.969   5.851   9.487 -0.3430 -0.1713 -0.1762
  737MOL0     C99421  10.036   5.966   9.565 -0.3200  0.5299  0.1179
  737MOL0     C99422  10.002   6.103   9.499  0.3677  0.3585 -0.1939
  737MOL0     C99423  10.061   6.137   9.360  0.2384  0.0897 -0.0068
  737MOL0     C99424  10.206   6.130   9.361 -0.4868 -1.0539  0.6610
  737MOL0     C99425  10.324   6.109   9.352  0.2244 -0.8536 -0.0675
  737MOL0     C99426  10.204   5.688   9.424 -0.1102 -0.2338 -0.1859
  737MOL0     C99427  10.330   5.620   9.414  0.1763 -0.7100  0.3682
  737MOL0     H99428  10.714   5.326   9.584 -0.8830  0.9514 -0.5264
  737MOL0     H99429  10.931   5.225   9.530 -1.9331  1.1749  4.0863
  737MOL0     H99430  11.197   5.159   9.193 -0.4219 -0.6917  0.1081
  737MOL0     H99431  11.054   5.211   9.111  1.9825  1.4400 -1.3922
  737MOL0     H99432  11.238   5.376   9.070  1.8080  2.0865  1.7758
  737MOL0     H99433  11.139   5.459   9.179 -2.1177 -0.6463  0.8758
  737MOL0     H99434  11.284   5.395   9.361  0.3535  1.5780  0.1817
  737MOL0     H99435  11.396   5.313   9.241  1.3334  0.8235  3.3314
  737MOL0     H99436  11.390   5.560   9.122  1.2122  1.3211  0.8248
  737MOL0     H99437  11.295   5.601   9.264 -0.9667 -0.2492  0.1482
  737MOL0     H99438  11.536   5.664   9.283  2.5343 -0.4177  1.5982
  737MOL0     H99439  11.479   5.555   9.409  0.6789  0.3199  0.8376
  737MOL0     H99440  11.606   5.368   9.284  1.2495  0.2941  2.1289
  737MOL0     H99441  11.621   5.484   9.148  1.3620 -0.3020 -0.7529
  737MOL0     H99442  11.774   5.629   9.274  2.1425 -0.3716 -0.3218
  737MOL0     H99443  11.737   5.553   9.423  1.3377  1.9066 -0.2008
  737MOL0     H99444  11.861   5.358   9.380  0.7727  1.2825  1.1912
  737MOL0     H99445  11.965   5.494   9.323 -0.3886  0.2984  1.3026
  737MOL0     H99446  11.779   5.197   9.180 -2.0496 -0.4634 -1.9134
  737MOL0     H99447  11.822   5.221   8.782 -2.5760  0.3628 -0.9641
  737MOL0     H99448  11.815   5.094   8.898 -1.9389 -0.1993 -0.5450
  737MOL0     H99449  11.597   5.161   8.978  0.8518 -0.0436 -0.3459
  737MOL0     H99450  11.586   5.120   8.814  2.5781 -2.0072  0.0685
  737MOL0     H99451  11.622   5.402   8.917  1.3238 -0.4939  0.5260
  737MOL0     H99452  11.467   5.322   8.873  0.5112  0.5944  0.0588
  737MOL0     H99453  11.554   5.312   8.623 -0.0684 -0.7978  1.8630
  737MOL0     H99454  11.695   5.400   8.696  0.4435 -0.7654 -0.6578
  737MOL0     H99455  11.388   5.641   8.869  0.0211  0.5738  0.6655
  737MOL0     H99456  11.210   5.730   8.985 -1.4961  3.8487 -0.2207
  737MOL0     H99457  11.071   5.755   8.875  1.3352  0.2939 -0.3746
  737MOL0     H99458  11.084   5.616   8.998 -0.5036 -1.4702 -0.8612
  737MOL0     H99459  10.764   5.524   8.518  1.5972 -0.6902  0.5569
  737MOL0     H99460  10.524   5.531   8.509  1.5325  0.2056 -0.0391
  737MOL0     H99461  10.244   5.275   8.543 -2.0553 -0.1445  0.8952
  737MOL0     H99462  10.351   5.195   8.651 -0.3395 -1.4213 -3.4167
  737MOL0     H99463  10.121   5.154   8.718 -1.9763  1.5197 -1.7156
  737MOL0     H99464  10.195   5.255   8.842  0.5148  2.5358  0.1793
  737MOL0     H99465  10.022   5.376   8.602  1.9220  1.6030  0.0880
  737MOL0     H99466  10.085   5.454   8.747  0.1978 -0.0712  0.5867
  737MOL0     H99467   9.906   5.217   8.791 -0.4488 -0.1865  2.9455
  737MOL0     H99468   9.940   5.371   8.880 -1.0422  2.5866 -1.5574
  737MOL0     H99469   9.787   5.404   8.630 -0.9094  1.3454 -0.1400
  737MOL0     H99470   9.820   5.519   8.759  0.3719  1.1342 -1.4081
  737MOL0     H99471   9.653   5.260   8.755  1.4577 -1.0393 -1.8279
  737MOL0     H99472   9.684   5.357   8.901  0.2306  2.2503 -0.3413
  737MOL0     H99473   9.542   5.438   8.643  1.7745 -2.4706 -0.1638
  737MOL0     H99474   9.551   5.544   8.781  0.2883 -0.4469  0.8844
  737MOL0     H99475   9.411   5.279   8.818 -0.1013 -0.7253  1.5731
  737MOL0     H99476   9.334   5.434   8.798  0.2521 -2.7692 -1.7289
  737MOL0     H99477  10.501   5.260   8.842  0.4398 -0.9786  0.3971
  737MOL0     H99478  10.746   5.245   8.835  3.2531  2.3870  0.1158
  737MOL0     H99479  11.103   5.418   8.538 -1.8704  1.5833  0.5570
  737MOL0     H99480  11.333   5.398   8.511 -1.4161 -0.0373 -0.6782
  737MOL0     H99481  10.882   5.358   9.116  0.0125  0.1742 -0.2618
  737MOL0     H99482  10.670   5.437   9.169  1.1134  1.4801 -0.3797
  737MOL0     H99483  10.261   5.373   9.641 -1.9377  0.0403 -0.6102
  737MOL0     H99484  10.051   5.500   9.655 -0.8172  1.8369  0.2948
  737MOL0     H99485   9.990   5.846   9.380 -2.4113 -0.8627 -0.6005
  737MOL0     H99486   9.862   5.871   9.499  0.2439  3.2338  0.3758
  737MOL0     H99487  10.145   5.960   9.550 -0.7724 -0.4395 -4.2056
  737MOL0     H99488  10.009   5.970   9.671 -0.1333  0.8297  0.1580
  737MOL0     H99489  10.049   6.174   9.568  1.9532 -0.7857 -0.0292
  737MOL0     H99490   9.894   6.120   9.507  0.3266 -0.6128  4.3022
  737MOL0     H99491  10.016   6.232   9.328 -4.1375 -1.9600 -0.6471
  737MOL0     H99492  10.033   6.067   9.281  1.0251 -0.0618 -0.1672
  737MOL0     H99493  10.430   6.093   9.346  0.5314  0.9418  0.0786
  737MOL0     H99494  10.180   5.766   9.353 -4.5124 -1.2505 -0.1077
  737MOL0     H99495  10.401   5.658   9.343  0.2688 -0.9949  0.3080
  738MOL0     O99496   0.229  10.405   2.906  0.0622 -0.6394 -0.1520
  738MOL0     C99497   0.304  10.465   2.830  0.4009  0.5300 -0.3093
  738MOL0     O99498   0.286  10.584   2.771  0.4181  0.0325 -0.1859
  738MOL0     C99499   0.191  10.677   2.812 -0.5015  0.0563  0.1653
  738MOL0     C99500   0.224  10.814   2.799 -0.7650  0.4677  1.0252
  738MOL0     C99501   0.139  10.923   2.821  0.3175 -0.3324 -0.2346
  738MOL0     C99502   0.012  10.888   2.879  0.6326  0.3275  0.8705
  738MOL0     O99503  -0.074  10.992   2.891  0.6795  0.7815 -0.5390
  738MOL0     C99504  -0.143  11.034   2.771  0.0997 -0.4707 -0.3096
  738MOL0     C99505  -0.285  10.992   2.783  0.6914 -0.2854  0.3282
  738MOL0     C99506  -0.376  11.018   2.665 -0.2941  0.1308 -0.7737
  738MOL0     C99507  -0.506  10.943   2.694 -0.3534 -0.2867  0.0543
  738MOL0     C99508  -0.634  11.014   2.646  1.1829 -0.5756  1.1483
  738MOL0     C99509  -0.670  11.139   2.737 -0.2309  0.6661  0.4740
  738MOL0     C99510  -0.821  11.164   2.729 -0.5303  0.1316  0.6608
  738MOL0     C99511  -0.912  11.054   2.792 -0.6416  0.2450 -0.1557
  738MOL0     N99512  -1.049  11.054   2.736  0.0763  0.5032  0.6106
  738MOL0     C99513  -1.088  11.009   2.610 -0.0150  0.0900 -0.0078
  738MOL0     C99514  -1.217  11.034   2.595  0.2305 -0.1326  0.8533
  738MOL0     C99515  -1.305  11.011   2.475 -0.1843  0.1631 -1.2735
  738MOL0     C99516  -1.243  10.922   2.371 -1.1082  0.2558 -0.8090
  738MOL0     C99517  -1.340  10.882   2.249 -0.7119 -0.4368 -0.0121
  738MOL0     C99518  -1.360  10.997   2.144 -0.0370 -0.0677 -0.7539
  738MOL0     O99519  -1.445  10.945   2.042 -0.2189 -0.2793  0.1178
  738MOL0     C99520  -1.578  10.929   2.052  0.3273  0.5464  0.2395
  738MOL0     C99521  -1.663  10.963   2.163  0.4462  0.3416 -0.2413
  738MOL0     C99522  -1.796  10.930   2.156 -0.3962 -0.6402 -0.2351
  738MOL0     C99523  -1.873  10.955   2.275 -0.1374  0.3021  0.6794
  738MOL0     C99524  -1.852  10.864   2.049  0.1054  1.2642  0.5290
  738MOL0     C99525  -1.999  10.821   2.032 -0.4188  0.0538 -0.3819
  738MOL0     O99526  -2.035  10.744   1.927 -0.2960 -0.2291 -0.3002
  738MOL0     C99527  -2.168  10.706   1.906  0.3588 -0.3910  0.3959
  738MOL0     C99528  -2.200  10.572   1.926  0.1452 -0.7953 -0.1376
  738MOL0     C99529  -2.331  10.522   1.888  0.1624  0.6520 -0.9521
  738MOL0     C99530  -2.429  10.613   1.842 -0.0549  0.2674 -0.4304
  738MOL0     O99531  -2.550  10.556   1.813 -0.9877 -0.6906 -0.5441
  738MOL0     C99532  -2.651  10.646   1.756 -0.2378  0.0051  0.0217
  738MOL0     C99533  -2.773  10.572   1.710 -0.2138  0.4783 -0.4974
  738MOL0     C99534  -2.832  10.474   1.824 -0.2038  0.4543  0.1142
  738MOL0     C99535  -2.947  10.388   1.763  0.4661 -0.4125  0.2298
  738MOL0     C99536  -3.012  10.281   1.853 -0.2030 -0.6885 -0.1677
  738MOL0     C99537  -3.074  10.353   1.968 -0.0842  0.1193  0.5063
  738MOL0     C99538  -3.155  10.276   2.071 -0.1606  0.3507 -0.1658
  738MOL0     C99539  -3.083  10.159   2.130 -0.4354 -0.5385 -0.5626
  738MOL0    Cl99540  -3.200  10.087   2.244  0.2014 -0.2084 -0.3201
  738MOL0     C99541  -2.389  10.750   1.824  0.1019  0.4406 -0.9898
  738MOL0     C99542  -2.265  10.798   1.858 -0.0902 -0.5079 -0.5317
  738MOL0     O99543  -2.080  10.869   2.113  0.6247  0.2655 -0.0859
  738MOL0     C99544  -1.769  10.845   1.934  0.4480 -0.0625  0.7363
  738MOL0     C99545  -1.636  10.874   1.942 -0.6475  0.4404 -0.5932
  738MOL0     N99546  -1.262  11.079   2.711 -0.8372 -0.2102  0.9555
  738MOL0     N99547  -1.166  11.090   2.794  0.1908  0.1953 -0.0001
  738MOL0     C99548  -0.022  10.757   2.908  0.2428  0.3347  0.8606
  738MOL0     C99549   0.068  10.650   2.868  0.2244 -0.4858  0.3637
  738MOL0     C99550   0.426  10.387   2.796  0.1262  0.3809 -0.5625
  738MOL0     C99551   0.450  10.256   2.839  0.2382  0.2076  0.8283
  738MOL0     C99552   0.558  10.179   2.795  0.3599  0.3201  0.7916
  738MOL0     C99553   0.650  10.238   2.695 -0.9023 -0.4515 -1.1036
  738MOL0     O99554   0.772  10.188   2.658 -0.9045  0.6438 -0.1060
  738MOL0     C99555   0.822  10.058   2.693  0.7958 -0.5225  0.6449
  738MOL0     C99556   0.970  10.065   2.655  0.3594 -0.2167  0.4605
  738MOL0     C99557   1.022   9.930   2.700 -0.2260 -0.0722  1.0535
  738MOL0     C99558   1.169   9.933   2.695 -0.9912  0.2328 -0.2290
  738MOL0     C99559   1.212   9.797   2.734 -0.5259  0.3440  1.1088
  738MOL0     C99560   1.254   9.687   2.763  0.1860 -0.2741  1.2388
  738MOL0     C99561   0.616  10.360   2.643 -0.1558  0.8414  0.5999
  738MOL0     C99562   0.516  10.434   2.706 -0.1857  0.2091  0.3957
  738MOL0     H99563   0.323  10.835   2.760 -0.1291 -2.0725  1.0606
  738MOL0     H99564   0.163  11.023   2.786 -3.7074  1.4937  1.5877
  738MOL0     H99565  -0.135  11.142   2.762  0.2307 -0.5809 -1.5889
  738MOL0     H99566  -0.101  10.996   2.678  1.8870 -0.9933  0.6585
  738MOL0     H99567  -0.285  10.885   2.805  1.9046 -0.8020 -1.8833
  738MOL0     H99568  -0.325  11.048   2.868 -1.3333  0.3495 -0.9507
  738MOL0     H99569  -0.398  11.125   2.654 -0.8837 -0.0700 -1.5291
  738MOL0     H99570  -0.324  10.986   2.574 -0.6791 -0.7171 -0.7027
  738MOL0     H99571  -0.486  10.854   2.633 -2.3113  1.3587 -3.3392
  738MOL0     H99572  -0.509  10.912   2.799  0.1783  0.5271  0.3179
  738MOL0     H99573  -0.613  11.047   2.544 -2.2508  1.1460  0.8614
  738MOL0     H99574  -0.717  10.942   2.638 -0.9246  1.7799  0.6938
  738MOL0     H99575  -0.636  11.123   2.839 -0.4009  1.5662  0.6782
  738MOL0     H99576  -0.608  11.225   2.708  0.6545 -0.1378 -0.1160
  738MOL0     H99577  -0.838  11.256   2.785 -0.3116 -0.9048  2.4996
  738MOL0     H99578  -0.847  11.186   2.625 -0.9565 -1.1676  0.4774
  738MOL0     H99579  -0.922  11.072   2.899 -0.4738  1.2648 -0.2951
  738MOL0     H99580  -0.871  10.953   2.786  4.6052  2.0041  0.4947
  738MOL0     H99581  -1.019  10.983   2.530  1.1279  3.6746 -0.3615
  738MOL0     H99582  -1.400  10.960   2.491  0.1323 -0.6989 -2.0556
  738MOL0     H99583  -1.326  11.106   2.426 -1.8457  2.5742  3.4842
  738MOL0     H99584  -1.212  10.828   2.418 -0.1334 -0.0087 -1.9439
  738MOL0     H99585  -1.149  10.965   2.337 -0.6087  1.2721  1.6788
  738MOL0     H99586  -1.428  10.830   2.287 -0.7495 -0.6643 -0.4088
  738MOL0     H99587  -1.280  10.807   2.197  1.6464  0.5316  1.1846
  738MOL0     H99588  -1.267  11.029   2.096 -1.8240  2.6189 -2.7504
  738MOL0     H99589  -1.405  11.087   2.187 -0.4145 -1.0060  0.8974
  738MOL0     H99590  -1.627  11.025   2.245 -2.3396  1.6883  0.0704
  738MOL0     H99591  -1.914  10.860   2.311 -1.4159  1.5922  2.9202
  738MOL0     H99592  -1.823  11.002   2.361  1.5359  1.5928 -0.9204
  738MOL0     H99593  -1.958  11.021   2.253 -0.0058  0.7197  1.3720
  738MOL0     H99594  -2.141  10.506   1.989 -1.7447 -0.4451  2.1375
  738MOL0     H99595  -2.363  10.425   1.923 -1.1720  1.4860  0.2632
  738MOL0     H99596  -2.668  10.718   1.837  3.9609  0.3612  0.8384
  738MOL0     H99597  -2.611  10.698   1.669 -0.3044 -0.0233 -0.0253
  738MOL0     H99598  -2.854  10.640   1.682 -1.1147  0.1271  1.1326
  738MOL0     H99599  -2.738  10.513   1.624  1.6058  0.2950  0.3151
  738MOL0     H99600  -2.852  10.530   1.916 -2.8409  2.3888 -1.4888
  738MOL0     H99601  -2.764  10.397   1.861  2.0093  1.1303 -2.3102
  738MOL0     H99602  -3.024  10.453   1.720 -1.5823 -2.4114  0.6777
  738MOL0     H99603  -2.903  10.331   1.680 -0.7533 -0.7491 -0.2122
  738MOL0     H99604  -2.930  10.218   1.890  1.4597  0.0232 -2.4225
  738MOL0     H99605  -3.086  10.220   1.801  0.8940 -0.5646 -1.9564
  738MOL0     H99606  -2.997  10.404   2.026  0.4171 -0.1101  0.0526
  738MOL0     H99607  -3.132  10.430   1.917  1.5206  1.1191  0.1286
  738MOL0     H99608  -3.235  10.235   2.009 -1.8165 -1.9257  3.1722
  738MOL0     H99609  -3.191  10.341   2.151 -0.0200  1.0190 -0.6383
  738MOL0     H99610  -2.997  10.201   2.182 -0.0935 -1.7717 -0.0888
  738MOL0     H99611  -3.050  10.091   2.051  2.3484 -1.1268  0.9831
  738MOL0     H99612  -2.447  10.832   1.783  0.1683  0.9410 -0.1029
  738MOL0     H99613  -2.237  10.897   1.823  0.2724 -0.2747  0.4037
  738MOL0     H99614  -1.814  10.817   1.839  0.9848 -0.3712  0.5630
  738MOL0     H99615  -1.565  10.860   1.860  1.1212  0.6650  0.8392
  738MOL0     H99616  -0.117  10.726   2.949 -0.7361 -2.7610 -3.1460
  738MOL0     H99617   0.042  10.546   2.880  1.8621 -0.8962  0.6479
  738MOL0     H99618   0.377  10.215   2.908 -0.5277  0.5234  0.2241
  738MOL0     H99619   0.579  10.076   2.822  1.6277  0.0796 -0.8868
  738MOL0     H99620   0.805  10.032   2.798 -0.7243 -0.2032  0.5090
  738MOL0     H99621   0.773   9.986   2.627 -0.8545  1.3537 -0.2903
  738MOL0     H99622   1.009  10.145   2.718 -0.9590  1.2478 -0.5077
  738MOL0     H99623   0.974  10.089   2.548 -0.3738  1.1876  0.7354
  738MOL0     H99624   0.994   9.857   2.624  4.3589 -0.8190 -0.2072
  738MOL0     H99625   0.984   9.902   2.799 -1.1562 -1.6200  0.3002
  738MOL0     H99626   1.212  10.014   2.755 -0.8961  1.7482 -2.2236
  738MOL0     H99627   1.198   9.945   2.590  0.3505  0.2946  0.1297
  738MOL0     H99628   1.292   9.589   2.787  2.7172  0.6404  1.2450
  738MOL0     H99629   0.691  10.411   2.583 -0.0589  1.3154  1.1163
  738MOL0     H99630   0.502  10.531   2.659 -1.1543 -0.4753 -0.8042
  739MOL0     O99631   0.080   8.083   8.576  0.7384  0.4796 -0.4068
  739MOL0     C99632   0.196   8.126   8.528  0.9831  0.4625  0.0545
  739MOL0     O99633   0.220   8.236   8.461 -0.1451  0.0313  0.9997
  739MOL0     C99634   0.120   8.319   8.406  0.0551 -0.8018  0.6529
  739MOL0     C99635   0.162   8.446   8.360 -0.7301 -0.1302 -0.2533
  739MOL0     C99636   0.079   8.530   8.290 -0.0468 -0.4269 -0.9805
  739MOL0     C99637  -0.046   8.491   8.264 -0.5736 -0.1972 -0.3080
  739MOL0     O99638  -0.139   8.556   8.193  0.3270 -0.0106 -0.3516
  739MOL0     C99639  -0.106   8.658   8.094 -0.9162 -0.2873 -0.3750
  739MOL0     C99640  -0.202   8.664   7.984  0.2295  0.1178  0.0707
  739MOL0     C99641  -0.347   8.641   8.022 -0.2149 -0.0045 -0.8184
  739MOL0     C99642  -0.433   8.673   7.896  0.8959  0.0101  0.5230
  739MOL0     C99643  -0.585   8.666   7.928  0.0144 -0.6734  0.2789
  739MOL0     C99644  -0.660   8.523   7.908 -0.7770 -0.2322  0.5983
  739MOL0     C99645  -0.766   8.500   8.003 -0.0385  1.1332 -0.1662
  739MOL0     C99646  -0.875   8.607   8.002  0.4383  0.6041  0.1032
  739MOL0     N99647  -0.994   8.546   8.072 -0.4908  0.1926 -0.5008
  739MOL0     C99648  -1.056   8.423   8.047  0.0816 -0.7617  0.1531
  739MOL0     C99649  -1.179   8.446   8.089 -0.2572 -0.0324  0.0690
  739MOL0     C99650  -1.284   8.346   8.060 -0.4412  1.1389 -0.6387
  739MOL0     C99651  -1.282   8.234   8.167  0.2766  0.3416  0.0236
  739MOL0     C99652  -1.389   8.129   8.145  0.9393  0.8205 -0.0040
  739MOL0     C99653  -1.368   8.007   8.238 -0.5788 -0.1232 -0.0002
  739MOL0     O99654  -1.468   7.911   8.225  0.4902 -0.0965  0.1677
  739MOL0     C99655  -1.597   7.928   8.267  0.6220 -0.9600 -0.4089
  739MOL0     C99656  -1.699   7.849   8.228 -0.5780  0.5934 -0.4445
  739MOL0     C99657  -1.834   7.873   8.266 -0.0388  1.2593  0.3511
  739MOL0     C99658  -1.930   7.779   8.196  0.3330  0.1336  0.0840
  739MOL0     C99659  -1.862   7.973   8.358 -0.2371  0.4807  0.3513
  739MOL0     C99660  -1.997   8.013   8.394 -0.1015  1.0231 -0.4596
  739MOL0     O99661  -2.009   8.106   8.487 -0.4977 -0.1238 -1.1923
  739MOL0     C99662  -2.137   8.136   8.539 -1.2344 -0.2722  0.5412
  739MOL0     C99663  -2.221   8.041   8.586 -0.3070  0.1336 -1.4434
  739MOL0     C99664  -2.346   8.075   8.635  0.0221  0.6488  0.4191
  739MOL0     C99665  -2.391   8.206   8.636  0.2700 -0.3017 -0.1753
  739MOL0     O99666  -2.528   8.228   8.666  0.7155  0.5355  0.0366
  739MOL0     C99667  -2.587   8.352   8.698 -0.9469  0.6102  0.4329
  739MOL0     C99668  -2.712   8.325   8.788  0.1383  0.5097 -0.7619
  739MOL0     C99669  -2.761   8.462   8.837  0.7038 -0.4326 -0.3398
  739MOL0     C99670  -2.885   8.447   8.929  0.2210 -0.0996 -0.0995
  739MOL0     C99671  -2.956   8.579   8.966 -0.2614  0.3725  0.0609
  739MOL0     C99672  -3.097   8.544   9.030  0.1935  0.1065  0.2495
  739MOL0     C99673  -3.088   8.451   9.160  0.3788 -0.0547 -0.4073
  739MOL0     C99674  -3.214   8.427   9.233 -0.4610  0.9340 -0.2575
  739MOL0    Cl99675  -3.265   8.582   9.312  0.1915 -0.0689  0.1338
  739MOL0     C99676  -2.302   8.303   8.594  0.4176 -0.4337 -0.6778
  739MOL0     C99677  -2.172   8.272   8.543 -0.6545  0.6151 -0.2734
  739MOL0     O99678  -2.089   7.950   8.347 -0.1422 -0.0184 -0.1407
  739MOL0     C99679  -1.752   8.047   8.408  0.0773 -0.1990  0.1153
  739MOL0     C99680  -1.630   8.034   8.357 -0.7290 -0.5557 -0.6176
  739MOL0     N99681  -1.191   8.563   8.163 -0.2461  0.8641 -0.2268
  739MOL0     N99682  -1.081   8.629   8.144  0.7673 -0.7003  0.3245
  739MOL0     C99683  -0.093   8.374   8.313  0.2415  0.1747 -0.2140
  739MOL0     C99684  -0.014   8.289   8.384 -0.3404 -0.7309 -0.5102
  739MOL0     C99685   0.319   8.051   8.556 -0.1293 -0.0539 -0.2389
  739MOL0     C99686   0.442   8.084   8.513  0.2132  0.1783  0.3877
  739MOL0     C99687   0.563   8.006   8.535 -0.3767 -0.7596 -0.7165
  739MOL0     C99688   0.556   7.886   8.600  0.4598  0.3193  0.3007
  739MOL0     O99689   0.670   7.817   8.609  0.0282  0.3283  0.3812
  739MOL0     C99690   0.676   7.688   8.668  0.5182  0.5395  0.4266
  739MOL0     C99691   0.809   7.618   8.645  0.4459  0.8066  0.1257
  739MOL0     C99692   0.915   7.665   8.741  0.3947 -0.4738  0.1049
  739MOL0     C99693   1.052   7.624   8.708 -0.5500  0.0662 -0.6272
  739MOL0     C99694   1.153   7.682   8.803 -0.7678  0.6691  0.2414
  739MOL0     C99695   1.253   7.720   8.850  0.3261  0.3652  0.6676
  739MOL0     C99696   0.428   7.842   8.643  0.5297  0.1139  0.0982
  739MOL0     C99697   0.308   7.931   8.628 -0.7498 -0.5681  0.2403
  739MOL0     H99698   0.259   8.478   8.395 -0.4316 -1.2137 -0.0359
  739MOL0     H99699   0.120   8.622   8.248  1.4966 -0.5392  0.1750
  739MOL0     H99700  -0.094   8.756   8.139 -0.1048  0.0555 -1.3258
  739MOL0     H99701  -0.012   8.632   8.045  0.7598 -0.0918  2.4846
  739MOL0     H99702  -0.193   8.763   7.940  0.4737 -0.5808 -1.5382
  739MOL0     H99703  -0.173   8.580   7.920 -1.9364  0.3486 -1.3002
  739MOL0     H99704  -0.357   8.535   8.046  3.1298 -0.7146 -1.8769
  739MOL0     H99705  -0.370   8.706   8.107 -0.0431 -1.9466  0.7871
  739MOL0     H99706  -0.413   8.774   7.861  0.0170 -0.2560 -0.8233
  739MOL0     H99707  -0.411   8.616   7.805  0.7520  1.5527 -0.5019
  739MOL0     H99708  -0.608   8.676   8.035  0.5583 -6.8738  1.3676
  739MOL0     H99709  -0.631   8.741   7.863  0.2298 -1.5321 -0.8899
  739MOL0     H99710  -0.697   8.538   7.806 -2.9797  1.9509  1.6294
  739MOL0     H99711  -0.587   8.441   7.904 -0.2172  0.2890 -2.1790
  739MOL0     H99712  -0.808   8.401   7.982 -1.8197  1.1721  2.6433
  739MOL0     H99713  -0.731   8.492   8.107 -1.9255  0.7333  0.4834
  739MOL0     H99714  -0.907   8.626   7.899  4.1303  0.7852 -1.1447
  739MOL0     H99715  -0.849   8.708   8.035 -0.4258  0.7688  0.3123
  739MOL0     H99716  -1.019   8.339   7.989  0.3698  1.2717 -2.8303
  739MOL0     H99717  -1.386   8.382   8.044 -1.1074  1.5801  3.4331
  739MOL0     H99718  -1.258   8.287   7.972 -2.8723  1.9166 -1.9773
  739MOL0     H99719  -1.295   8.268   8.270  0.9556 -0.2051  0.3025
  739MOL0     H99720  -1.179   8.199   8.172  0.5812  0.5475 -3.0179
  739MOL0     H99721  -1.379   8.095   8.041  0.0175  1.0776 -0.1915
  739MOL0     H99722  -1.484   8.181   8.161  1.0874  1.5164 -1.2585
  739MOL0     H99723  -1.362   8.036   8.344 -1.6030 -0.0310  0.0382
  739MOL0     H99724  -1.270   7.960   8.229  0.6017  1.9686  1.0326
  739MOL0     H99725  -1.674   7.765   8.163  2.0783  0.6435  0.3923
  739MOL0     H99726  -2.000   7.837   8.135  1.1232 -0.2022 -1.1758
  739MOL0     H99727  -1.885   7.712   8.122 -2.7154 -1.4028 -0.5114
  739MOL0     H99728  -1.987   7.724   8.271  0.5927  0.7701  0.7713
  739MOL0     H99729  -2.194   7.936   8.576  0.9697  0.5366 -2.6637
  739MOL0     H99730  -2.418   7.998   8.661 -0.8176  1.5825  0.9297
  739MOL0     H99731  -2.515   8.411   8.756 -1.0474 -1.0527  2.3716
  739MOL0     H99732  -2.623   8.409   8.612  1.5384  0.9843 -0.4324
  739MOL0     H99733  -2.793   8.264   8.748 -0.7695 -0.2431  1.9699
  739MOL0     H99734  -2.671   8.275   8.877  1.3189  3.9731  0.8277
  739MOL0     H99735  -2.792   8.505   8.741 -3.2819  0.9017  1.3146
  739MOL0     H99736  -2.690   8.530   8.886 -1.5098  0.0989  2.3745
  739MOL0     H99737  -2.954   8.381   8.875 -2.5345  1.2939  1.5019
  739MOL0     H99738  -2.843   8.401   9.019 -0.2367 -0.8155 -0.2414
  739MOL0     H99739  -2.969   8.637   8.874  1.4027  1.7726  0.6425
  739MOL0     H99740  -2.902   8.636   9.041 -0.9044  0.4927  0.4346
  739MOL0     H99741  -3.136   8.645   9.048  2.2054  1.6885 -3.1689
  739MOL0     H99742  -3.162   8.486   8.964 -0.6437  0.6825  0.5522
  739MOL0     H99743  -3.014   8.487   9.232 -0.6601 -0.0972  0.7186
  739MOL0     H99744  -3.067   8.350   9.122  0.3943 -0.2186  0.0282
  739MOL0     H99745  -3.190   8.353   9.309  0.8972  1.2543 -0.3467
  739MOL0     H99746  -3.299   8.390   9.175 -2.8096  1.5785  2.5036
  739MOL0     H99747  -2.342   8.402   8.578  0.4800 -0.4601 -0.9997
  739MOL0     H99748  -2.100   8.344   8.504  2.3262 -1.6101  0.7374
  739MOL0     H99749  -1.763   8.128   8.480  1.4420  0.1573 -0.0658
  739MOL0     H99750  -1.553   8.081   8.416 -1.1083 -0.1121 -0.4760
  739MOL0     H99751  -0.197   8.348   8.292  0.8089  0.1554 -3.5454
  739MOL0     H99752  -0.064   8.197   8.413  0.8741 -1.2002  0.1763
  739MOL0     H99753   0.454   8.176   8.456 -3.4218  0.1306 -0.6993
  739MOL0     H99754   0.661   8.042   8.504 -1.2541  2.7097  0.1386
  739MOL0     H99755   0.657   7.686   8.775  1.5073 -1.4217  0.6118
  739MOL0     H99756   0.599   7.620   8.630  1.2552  0.2954 -0.7102
  739MOL0     H99757   0.837   7.636   8.541 -0.2372  2.9513  0.2501
  739MOL0     H99758   0.802   7.513   8.673 -0.0397  1.1529  1.4224
  739MOL0     H99759   0.900   7.651   8.848  4.5857  3.4017  1.5442
  739MOL0     H99760   0.907   7.774   8.734 -0.7187 -0.4874  1.0097
  739MOL0     H99761   1.091   7.652   8.609 -3.4013 -0.4266 -1.9870
  739MOL0     H99762   1.052   7.515   8.718 -3.3705  0.2578  4.8740
  739MOL0     H99763   1.341   7.749   8.904 -0.2674  0.5086  1.5667
  739MOL0     H99764   0.423   7.747   8.696 -0.2282 -0.8863 -1.6738
  739MOL0     H99765   0.223   7.902   8.689 -2.7467 -0.2233 -2.2485
  740MOL0     O99766   1.882   3.622   1.743  0.8644  1.1147 -0.4031
  740MOL0     C99767   1.828   3.514   1.713 -0.4224  0.3941  0.3366
  740MOL0     O99768   1.708   3.497   1.652 -0.7212 -0.3549  0.1404
  740MOL0     C99769   1.629   3.610   1.645 -0.8422  0.2119  0.0226
  740MOL0     C99770   1.655   3.702   1.547  0.1548  0.3651 -0.7455
  740MOL0     C99771   1.580   3.818   1.538 -0.7294  0.0483 -1.1273
  740MOL0     C99772   1.473   3.831   1.622  0.0293 -0.0621 -0.6442
  740MOL0     O99773   1.389   3.941   1.625 -0.0120  0.5831  0.0211
  740MOL0     C99774   1.252   3.916   1.588  0.5268 -0.3288  0.1817
  740MOL0     C99775   1.182   4.037   1.663 -0.0353  0.1979  0.6549
  740MOL0     C99776   1.084   4.109   1.577 -0.6018 -0.1234 -0.4085
  740MOL0     C99777   0.959   4.031   1.564  0.5984 -0.1973 -0.6550
  740MOL0     C99778   0.846   4.116   1.518 -0.2655 -0.7218  0.2627
  740MOL0     C99779   0.716   4.031   1.510 -0.0989 -0.1012  0.5082
  740MOL0     C99780   0.594   4.095   1.431  0.0632  0.4869  0.0386
  740MOL0     C99781   0.580   4.244   1.463 -1.6380  0.0747  0.1679
  740MOL0     N99782   0.447   4.295   1.425 -0.1572 -0.1457 -0.0704
  740MOL0     C99783   0.366   4.380   1.501 -0.5080 -0.5529 -0.0955
  740MOL0     C99784   0.273   4.423   1.408  0.6975 -1.3040 -1.0085
  740MOL0     C99785   0.145   4.491   1.428  0.7069 -0.1034 -0.5392
  740MOL0     C99786   0.029   4.393   1.468  0.4620  1.0116  0.1528
  740MOL0     C99787  -0.078   4.389   1.359  0.3938 -0.3224 -0.2198
  740MOL0     C99788  -0.202   4.293   1.386 -0.8574 -0.8642  0.1101
  740MOL0     O99789  -0.305   4.341   1.481 -0.3974 -0.8026  1.0144
  740MOL0     C99790  -0.425   4.267   1.472 -0.9306 -0.5234 -0.1765
  740MOL0     C99791  -0.454   4.149   1.393  0.1204  0.3482  0.1233
  740MOL0     C99792  -0.575   4.078   1.402  0.6275 -0.2539  0.6124
  740MOL0     C99793  -0.604   3.953   1.328 -0.7472 -0.1353  0.3413
  740MOL0     C99794  -0.681   4.135   1.491  0.6769  0.0548 -0.1335
  740MOL0     C99795  -0.814   4.074   1.517 -0.1584  0.7533 -0.0784
  740MOL0     O99796  -0.840   3.944   1.469  0.0572 -0.0858 -0.5303
  740MOL0     C99797  -0.965   3.895   1.489 -0.9490 -0.2970  1.0232
  740MOL0     C99798  -0.992   3.821   1.604  0.4612  0.2771 -0.4861
  740MOL0     C99799  -1.122   3.780   1.620  0.0168 -0.0322 -0.7717
  740MOL0     C99800  -1.217   3.781   1.520  0.2029  0.2705 -0.1322
  740MOL0     O99801  -1.337   3.720   1.527  0.1082 -0.1173  0.4034
  740MOL0     C99802  -1.395   3.701   1.658  0.6586 -1.0053 -0.1121
  740MOL0     C99803  -1.543   3.674   1.644 -0.0413 -0.6078 -1.1320
  740MOL0     C99804  -1.616   3.666   1.779 -0.7424 -0.8918  0.1389
  740MOL0     C99805  -1.766   3.699   1.752 -0.2811  0.6407 -0.6599
  740MOL0     C99806  -1.858   3.653   1.868 -0.5591 -0.0388  0.6991
  740MOL0     C99807  -1.813   3.717   2.001  0.2429  0.2193  0.1282
  740MOL0     C99808  -1.908   3.668   2.109  0.2151 -0.5412  0.0136
  740MOL0     C99809  -1.892   3.728   2.245 -1.2220  0.7446  0.4311
  740MOL0    Cl99810  -1.946   3.894   2.237  0.2894  0.0587  0.0609
  740MOL0     C99811  -1.176   3.849   1.403  0.0435  0.1388 -1.3661
  740MOL0     C99812  -1.052   3.909   1.389 -0.0497  0.2344 -0.0360
  740MOL0     O99813  -0.896   4.140   1.586 -0.3667 -0.2229 -0.7303
  740MOL0     C99814  -0.649   4.251   1.560  0.0038  0.2163 -0.5211
  740MOL0     C99815  -0.530   4.320   1.550 -0.5524  1.0713 -0.1580
  740MOL0     N99816   0.302   4.366   1.286 -0.1855 -0.4420  0.0638
  740MOL0     N99817   0.416   4.305   1.291 -0.4643  0.0992 -0.0859
  740MOL0     C99818   1.438   3.735   1.718  0.0482 -0.4898 -0.7830
  740MOL0     C99819   1.520   3.627   1.732  0.0511 -0.1252  0.3472
  740MOL0     C99820   1.910   3.392   1.733  0.3402 -0.5887 -0.7152
  740MOL0     C99821   2.034   3.397   1.792 -0.1342  0.2325  0.8761
  740MOL0     C99822   2.112   3.280   1.796 -0.7531  0.9020 -0.4685
  740MOL0     C99823   2.064   3.150   1.764 -0.0885  0.6052 -0.3889
  740MOL0     O99824   2.126   3.028   1.777  0.2967  0.4201 -0.7743
  740MOL0     C99825   2.241   3.025   1.873 -0.0085  0.4245 -0.5201
  740MOL0     C99826   2.279   2.888   1.932  0.3160  0.6525 -0.0219
  740MOL0     C99827   2.166   2.802   1.995 -0.6470  0.4276 -0.2982
  740MOL0     C99828   2.107   2.850   2.130 -0.5139  0.3968  0.2180
  740MOL0     C99829   2.222   2.845   2.227  0.8467 -1.0628  0.4515
  740MOL0     C99830   2.303   2.833   2.318  0.3350  0.1541  0.0397
  740MOL0     C99831   1.937   3.142   1.708  0.2799 -0.3600  0.6735
  740MOL0     C99832   1.861   3.263   1.690 -0.9374 -0.4368 -0.6135
  740MOL0     H99833   1.741   3.694   1.480  2.0822 -0.0379  1.6538
  740MOL0     H99834   1.597   3.901   1.471 -1.5451  1.3061  0.1583
  740MOL0     H99835   1.245   3.921   1.479 -2.8329 -0.7663  0.2570
  740MOL0     H99836   1.219   3.815   1.614 -0.7106  0.1562  0.5512
  740MOL0     H99837   1.132   3.987   1.746 -0.5442 -3.1072 -1.4726
  740MOL0     H99838   1.249   4.118   1.695 -0.0499 -0.6705  3.1140
  740MOL0     H99839   1.056   4.202   1.628 -2.2769 -1.6094  1.5377
  740MOL0     H99840   1.119   4.141   1.478  0.1191  1.6221  0.3669
  740MOL0     H99841   0.964   3.948   1.493  1.0462  0.2192 -1.1186
  740MOL0     H99842   0.932   3.994   1.664  0.1619 -0.5198 -0.8901
  740MOL0     H99843   0.823   4.199   1.586 -4.0202 -0.9152 -0.5768
  740MOL0     H99844   0.867   4.152   1.417  0.4111 -5.2554 -1.4311
  740MOL0     H99845   0.734   3.931   1.471  3.2666  1.0301 -1.1674
  740MOL0     H99846   0.668   4.023   1.608  1.2090 -0.7665  1.1149
  740MOL0     H99847   0.595   4.069   1.325 -3.0489  2.0726 -0.4994
  740MOL0     H99848   0.508   4.038   1.468 -1.3354  1.7324 -1.1873
  740MOL0     H99849   0.658   4.286   1.397  1.7357  0.2895  3.9018
  740MOL0     H99850   0.620   4.263   1.563  0.1938 -1.6583 -0.1669
  740MOL0     H99851   0.368   4.408   1.606 -2.6237  0.3105 -0.2351
  740MOL0     H99852   0.157   4.561   1.511  1.0356 -3.1914  2.2039
  740MOL0     H99853   0.114   4.541   1.335  2.0122 -0.6178 -1.2710
  740MOL0     H99854  -0.019   4.416   1.563  2.0619  0.9415  1.0269
  740MOL0     H99855   0.071   4.292   1.476  1.4724  1.4940  1.2386
  740MOL0     H99856  -0.028   4.348   1.270  0.9717  1.7179 -0.8912
  740MOL0     H99857  -0.129   4.482   1.333 -0.6405 -1.3372 -1.9671
  740MOL0     H99858  -0.153   4.198   1.412  1.9852  0.4197 -0.1388
  740MOL0     H99859  -0.258   4.281   1.293 -3.0065 -0.8022  1.3485
  740MOL0     H99860  -0.374   4.111   1.331 -0.2685  0.5831 -0.5292
  740MOL0     H99861  -0.705   3.953   1.288 -0.8216  2.2319  0.3899
  740MOL0     H99862  -0.522   3.932   1.259  1.8208 -1.5040  3.5155
  740MOL0     H99863  -0.595   3.879   1.408  3.1817  1.5108  1.6876
  740MOL0     H99864  -0.912   3.802   1.675  0.0055 -0.3069 -0.1164
  740MOL0     H99865  -1.150   3.730   1.712 -1.3136 -0.4052 -1.3615
  740MOL0     H99866  -1.346   3.623   1.717 -2.2844 -0.8771  2.8013
  740MOL0     H99867  -1.385   3.796   1.711  1.9067 -0.8133 -0.6743
  740MOL0     H99868  -1.587   3.755   1.585 -1.2901 -0.2932  0.1721
  740MOL0     H99869  -1.557   3.580   1.589 -0.6918  1.0333 -3.9791
  740MOL0     H99870  -1.577   3.741   1.849 -0.9250  0.7981 -1.4984
  740MOL0     H99871  -1.601   3.566   1.822 -1.6422 -0.6604  1.0513
  740MOL0     H99872  -1.786   3.802   1.721  1.5777  0.3108 -3.2809
  740MOL0     H99873  -1.802   3.637   1.670 -1.6493 -2.2971  1.9450
  740MOL0     H99874  -1.838   3.546   1.878  0.9509  0.2106  0.6591
  740MOL0     H99875  -1.961   3.684   1.846 -0.7547  1.1109  3.0119
  740MOL0     H99876  -1.713   3.685   2.032  0.1980  0.4317  0.4979
  740MOL0     H99877  -1.813   3.825   1.983  1.5538 -0.2063 -3.1099
  740MOL0     H99878  -1.897   3.559   2.106  1.1846 -0.4666 -3.6009
  740MOL0     H99879  -2.013   3.682   2.080  0.5148  1.0859 -0.3923
  740MOL0     H99880  -1.787   3.718   2.273 -1.3895 -1.5253  0.4868
  740MOL0     H99881  -1.949   3.678   2.324 -3.1781 -0.2358 -1.4711
  740MOL0     H99882  -1.236   3.867   1.314 -0.1629 -0.5053 -1.3646
  740MOL0     H99883  -1.015   3.952   1.296  4.4134  1.5991  2.0581
  740MOL0     H99884  -0.713   4.309   1.626 -2.5097 -1.4065 -1.3947
  740MOL0     H99885  -0.509   4.401   1.619 -1.3456 -0.2839  1.7881
  740MOL0     H99886   1.361   3.754   1.793  1.2257 -0.9821  0.6026
  740MOL0     H99887   1.501   3.551   1.807 -1.2161 -0.9794 -0.7847
  740MOL0     H99888   2.084   3.486   1.829 -2.8376  1.8742  0.8346
  740MOL0     H99889   2.214   3.298   1.829 -0.7963 -1.1136  0.9677
  740MOL0     H99890   2.322   3.072   1.817 -0.3200 -0.2595 -1.5749
  740MOL0     H99891   2.204   3.090   1.953 -3.4276 -2.6938  0.6944
  740MOL0     H99892   2.348   2.897   2.016  0.0542 -1.1183  0.4324
  740MOL0     H99893   2.309   2.831   1.844 -2.4581  0.9136 -1.2369
  740MOL0     H99894   2.218   2.707   2.002 -0.0294  0.3472 -3.9304
  740MOL0     H99895   2.084   2.782   1.925  0.3451  0.5883 -1.5594
  740MOL0     H99896   2.023   2.783   2.153 -1.5990  2.3182  2.2990
  740MOL0     H99897   2.070   2.951   2.110  2.5116  1.5766  0.0528
  740MOL0     H99898   2.387   2.803   2.376  1.2966 -0.4603 -1.5887
  740MOL0     H99899   1.903   3.049   1.665 -0.6513  0.2296  0.0965
  740MOL0     H99900   1.765   3.248   1.641 -0.6575  1.8150 -1.9816
  741MOL0     O99901   7.156  10.341   4.938  0.1452 -0.2996  0.4919
  741MOL0     C99902   7.194  10.317   4.823 -0.8073  0.0543 -0.4583
  741MOL0     O99903   7.116  10.293   4.717  0.6431  0.6924 -0.3851
  741MOL0     C99904   6.981  10.318   4.720 -0.1602 -0.1622  0.6826
  741MOL0     C99905   6.933  10.431   4.654  0.0237 -0.1798  0.1143
  741MOL0     C99906   6.796  10.480   4.650  0.4219  0.0292 -0.7344
  741MOL0     C99907   6.702  10.386   4.697  0.2039 -0.4110 -0.3128
  741MOL0     O99908   6.562  10.395   4.685 -0.2502  0.2092  0.3509
  741MOL0     C99909   6.510  10.507   4.604 -0.0274  0.1028 -0.0477
  741MOL0     C99910   6.367  10.456   4.576 -0.7694 -0.4040 -0.4714
  741MOL0     C99911   6.291  10.553   4.487  0.4707 -0.5615 -0.4859
  741MOL0     C99912   6.139  10.546   4.535  0.3917  0.0561  0.5465
  741MOL0     C99913   6.052  10.620   4.428 -0.5695 -0.3545 -1.3217
  741MOL0     C99914   6.042  10.774   4.446  0.3735  0.7322 -0.0122
  741MOL0     C99915   5.922  10.840   4.372  0.0911 -0.7213 -0.7631
  741MOL0     C99916   5.901  10.985   4.414 -0.2286 -0.7352 -0.2882
  741MOL0     N99917   6.029  11.057   4.398 -0.2039  0.2042  0.4533
  741MOL0     C99918   6.082  11.142   4.490  0.7546  0.3877  0.0932
  741MOL0     C99919   6.187  11.195   4.430  0.1905  0.0379  0.2706
  741MOL0     C99920   6.277  11.301   4.491 -0.8097 -0.0227 -0.7083
  741MOL0     C99921   6.256  11.452   4.459 -0.0376  0.4988  0.0190
  741MOL0     C99922   6.279  11.483   4.313  0.6696 -0.3131  0.2010
  741MOL0     C99923   6.155  11.462   4.227  0.9941 -0.4486  0.5513
  741MOL0     O99924   6.057  11.558   4.259  0.2197 -0.6904  0.2370
  741MOL0     C99925   5.979  11.605   4.154 -0.0084  0.9460  0.1551
  741MOL0     C99926   5.929  11.736   4.173 -0.0800  0.1825  0.0537
  741MOL0     C99927   5.817  11.785   4.103  0.0976  0.2687 -1.0035
  741MOL0     C99928   5.749  11.912   4.158  0.6134  0.7940 -0.0254
  741MOL0     C99929   5.765  11.707   4.000 -1.0544 -0.0324 -0.0606
  741MOL0     C99930   5.648  11.736   3.924 -0.5262  0.2415  0.1087
  741MOL0     O99931   5.608  11.866   3.904 -1.3017 -0.2678  0.3372
  741MOL0     C99932   5.497  11.887   3.827 -0.5758  0.6875  0.0374
  741MOL0     C99933   5.503  11.835   3.695  0.5324  0.2526  0.1359
  741MOL0     C99934   5.397  11.866   3.610 -0.9117  0.4873  0.4104
  741MOL0     C99935   5.279  11.935   3.660  0.7064 -0.1573  0.5384
  741MOL0     O99936   5.165  11.949   3.582  0.2416 -0.6279 -0.0160
  741MOL0     C99937   5.044  11.930   3.657 -0.3665 -0.3232  0.9779
  741MOL0     C99938   4.942  11.867   3.559 -0.2155 -1.2363 -0.1711
  741MOL0     C99939   4.890  11.963   3.448 -0.6633 -0.1801  0.1992
  741MOL0     C99940   4.806  11.900   3.336  0.4789  0.3555 -0.8026
  741MOL0     C99941   4.676  11.831   3.376  0.2514  0.1493  0.2560
  741MOL0     C99942   4.581  11.804   3.256 -0.4738  0.6867 -0.6389
  741MOL0     C99943   4.515  11.915   3.180 -0.1391 -1.0031  0.1360
  741MOL0     C99944   4.408  11.873   3.068 -0.4840  0.3479 -0.0747
  741MOL0    Cl99945   4.466  11.750   2.960 -0.3503 -0.1260  0.2120
  741MOL0     C99946   5.284  11.989   3.794  0.2077  0.2916 -0.0464
  741MOL0     C99947   5.391  11.965   3.868 -0.4951 -0.4935  0.3518
  741MOL0     O99948   5.584  11.636   3.894 -0.1530  0.4774 -0.4376
  741MOL0     C99949   5.821  11.579   3.974 -0.7574  0.0040 -1.4436
  741MOL0     C99950   5.918  11.521   4.057 -0.3948  0.4216  0.3500
  741MOL0     N99951   6.211  11.129   4.306 -0.3286 -0.7600 -0.5317
  741MOL0     N99952   6.111  11.052   4.288  0.5494  0.0904 -0.1763
  741MOL0     C99953   6.743  10.275   4.766  0.5656 -0.1469  0.5856
  741MOL0     C99954   6.880  10.240   4.783 -0.2978  0.0576 -0.4514
  741MOL0     C99955   7.340  10.325   4.809 -0.2418  0.5664  0.0430
  741MOL0     C99956   7.428  10.342   4.917 -0.4547  0.0416 -0.8800
  741MOL0     C99957   7.565  10.350   4.897 -0.1203 -0.3904  0.1871
  741MOL0     C99958   7.627  10.318   4.772 -0.2301  0.6212 -0.8841
  741MOL0     O99959   7.762  10.295   4.743 -0.6842  0.5322 -0.1624
  741MOL0     C99960   7.859  10.297   4.856 -0.4961  0.5091 -0.0639
  741MOL0     C99961   7.998  10.245   4.826  0.2194  0.3045  0.3164
  741MOL0     C99962   8.077  10.311   4.714  0.3223 -0.4726  0.3451
  741MOL0     C99963   8.229  10.283   4.720 -0.1859 -0.3979 -0.1855
  741MOL0     C99964   8.301  10.318   4.594  0.7910 -0.3733 -0.0711
  741MOL0     C99965   8.351  10.334   4.488  0.1752 -0.3732 -0.5247
  741MOL0     C99966   7.544  10.276   4.677  0.7066  0.7305 -0.3069
  741MOL0     C99967   7.400  10.280   4.686 -0.2686  0.6044  0.7631
  741MOL0     H99968   7.019  10.474   4.603 -0.2270 -1.0240 -1.0601
  741MOL0     H99969   6.761  10.571   4.603 -2.9960 -1.0123 -0.4800
  741MOL0     H99970   6.510  10.601   4.660 -1.1468  0.0421  0.0741
  741MOL0     H99971   6.568  10.527   4.513  0.1739  1.5201  0.3688
  741MOL0     H99972   6.363  10.353   4.539 -0.1203 -0.2402 -1.0181
  741MOL0     H99973   6.328  10.457   4.678  0.2351 -2.5837 -0.0050
  741MOL0     H99974   6.335  10.653   4.494 -2.6722  0.8727  0.3274
  741MOL0     H99975   6.302  10.515   4.385  0.6590 -1.9383  0.0276
  741MOL0     H99976   6.112  10.440   4.533 -0.9997  0.3918 -1.9153
  741MOL0     H99977   6.131  10.595   4.633  0.0929  0.5815  0.2649
  741MOL0     H99978   6.083  10.605   4.324 -0.0543 -2.1074 -0.9539
  741MOL0     H99979   5.953  10.578   4.448 -1.7706  2.2638 -1.4029
  741MOL0     H99980   6.022  10.800   4.550  0.4421 -0.1117  0.2206
  741MOL0     H99981   6.134  10.820   4.408  1.0835 -2.5425 -2.7298
  741MOL0     H99982   5.938  10.834   4.264  2.6538  0.8885 -0.5694
  741MOL0     H99983   5.833  10.786   4.405 -0.1077 -0.5010 -0.9276
  741MOL0     H99984   5.861  10.982   4.516  1.2794  1.0166  0.4084
  741MOL0     H99985   5.830  11.033   4.346  0.2985  0.5933  0.0600
  741MOL0     H99986   6.045  11.152   4.591  0.1390 -1.6961  0.1209
  741MOL0     H99987   6.264  11.286   4.598 -0.1199  1.2799 -0.4239
  741MOL0     H99988   6.380  11.270   4.473 -1.3654 -3.2362  0.8813
  741MOL0     H99989   6.338  11.501   4.512  0.7932  0.1888 -0.9609
  741MOL0     H99990   6.160  11.486   4.501 -0.0030  1.4406 -0.6354
  741MOL0     H99991   6.370  11.434   4.277  0.7103 -0.6104  0.6975
  741MOL0     H99992   6.307  11.588   4.296  2.1389 -1.0296 -2.3273
  741MOL0     H99993   6.107  11.365   4.235 -1.3444  0.2178 -2.9823
  741MOL0     H99994   6.185  11.478   4.122 -1.2504 -1.2639 -0.2719
  741MOL0     H99995   5.964  11.795   4.256  1.0366 -0.6834  0.2284
  741MOL0     H99996   5.734  11.988   4.081 -2.1952 -1.3093 -1.7676
  741MOL0     H99997   5.651  11.889   4.202  1.9725  1.1752  3.4956
  741MOL0     H99998   5.805  11.956   4.241  0.3500 -2.6797  2.2073
  741MOL0     H99999   5.589  11.781   3.657 -2.3097 -2.4641 -3.1419
  741MOL0     H    0   5.388  11.808   3.518  0.8396 -2.5728  1.9958
  741MOL0     H    1   5.060  11.857   3.737 -1.8066 -2.3382 -0.4724
  741MOL0     H    2   5.015  12.026   3.701 -0.8276  0.5939 -1.2119
  741MOL0     H    3   4.978  11.772   3.519  3.3053 -1.4705  2.9652
  741MOL0     H    4   4.851  11.838   3.613 -0.4916 -3.4687 -1.7188
  741MOL0     H    5   4.977  11.991   3.386 -1.5019  1.4228 -0.3132
  741MOL0     H    6   4.841  12.052   3.489  0.2623  0.5594 -0.2574
  741MOL0     H    7   4.781  11.969   3.254 -0.5394  3.9765  2.2690
  741MOL0     H    8   4.872  11.832   3.281 -0.5988  1.7977 -4.1625
  741MOL0     H    9   4.616  11.902   3.435  0.9640  0.9079  0.0891
  741MOL0     H   10   4.696  11.750   3.448  2.1353 -0.2098 -0.6063
  741MOL0     H   11   4.642  11.743   3.188 -1.1762 -0.3977 -0.3432
  741MOL0     H   12   4.499  11.737   3.285 -0.4126  0.7071 -0.4198
  741MOL0     H   13   4.588  11.985   3.137 -0.5850 -0.2665  0.5672
  741MOL0     H   14   4.472  11.973   3.262 -2.8319 -1.4642 -0.8397
  741MOL0     H   15   4.369  11.962   3.018 -1.2759 -0.9912 -1.9611
  741MOL0     H   16   4.319  11.828   3.115  0.5416 -2.0324 -0.3116
  741MOL0     H   17   5.214  12.063   3.832  1.2369  1.8455 -1.0604
  741MOL0     H   18   5.399  12.010   3.967 -0.3980  0.3354 -0.0227
  741MOL0     H   19   5.780  11.515   3.896 -1.8177  1.9509 -2.5606
  741MOL0     H   20   5.937  11.415   4.045 -1.4044  0.3467 -0.8665
  741MOL0     H   21   6.659  10.216   4.800  0.3116 -2.1552 -3.0359
  741MOL0     H   22   6.906  10.146   4.830 -0.9431 -0.1409 -0.4857
  741MOL0     H   23   7.382  10.354   5.015 -2.2802  0.2296 -1.7074
  741MOL0     H   24   7.626  10.374   4.984 -1.7600  1.0723  1.0216
  741MOL0     H   25   7.863  10.399   4.895 -1.1798  0.2440  0.7336
  741MOL0     H   26   7.834  10.231   4.939  2.4597  1.6650  1.9008
  741MOL0     H   27   7.989  10.140   4.799 -2.2100  0.1163  1.5964
  741MOL0     H   28   8.061  10.258   4.915  2.9900 -0.8775 -1.3286
  741MOL0     H   29   8.073  10.416   4.745 -0.6971 -1.0190  2.2285
  741MOL0     H   30   8.034  10.292   4.616 -0.5861  1.3837  0.3376
  741MOL0     H   31   8.252  10.178   4.737  1.3538 -0.6657 -3.2469
  741MOL0     H   32   8.268  10.348   4.798  0.7319 -0.4133 -0.6193
  741MOL0     H   33   8.405  10.355   4.398  2.4682 -0.7757  0.6798
  741MOL0     H   34   7.576  10.233   4.582 -0.5069  1.6517 -1.1670
  741MOL0     H   35   7.340  10.243   4.603  0.9278  3.7069 -1.7281
  742MOL0     O   36   0.250   9.703  10.982  0.4223 -0.1806 -0.6382
  742MOL0     C   37   0.264   9.611  11.061 -0.1391  0.5309  0.1001
  742MOL0     O   38   0.208   9.593  11.183  0.4772  0.5349 -0.1118
  742MOL0     C   39   0.118   9.687  11.223  0.9922 -0.0171  0.6129
  742MOL0     C   40   0.155   9.782  11.313 -0.2693  0.0135  0.2415
  742MOL0     C   41   0.063   9.882  11.358  0.2219 -0.5185  0.1830
  742MOL0     C   42  -0.074   9.863  11.317 -0.0298  0.0819  0.2830
  742MOL0     O   43  -0.185   9.932  11.361 -0.0530 -0.0110 -0.0801
  742MOL0     C   44  -0.165   9.996  11.479 -0.2045  0.6909 -0.7260
  742MOL0     C   45  -0.301  10.014  11.549 -0.1764 -0.5572 -0.1853
  742MOL0     C   46  -0.367   9.893  11.609  0.0715  0.7986  0.0958
  742MOL0     C   47  -0.364   9.762  11.527  0.4863 -0.6739 -0.7612
  742MOL0     C   48  -0.415   9.637  11.610 -0.3629  0.4039  0.4541
  742MOL0     C   49  -0.570   9.635  11.607  0.7664 -0.1145 -0.1669
  742MOL0     C   50  -0.625   9.570  11.478  0.0051 -0.3173  0.1987
  742MOL0     C   51  -0.770   9.554  11.474 -0.0960  0.5844  0.7488
  742MOL0     N   52  -0.822   9.496  11.598  0.4826  0.2079  0.6690
  742MOL0     C   53  -0.878   9.564  11.703  0.7741  0.5952  0.1177
  742MOL0     C   54  -0.879   9.474  11.802  0.5654  0.0479  0.0203
  742MOL0     C   55  -0.909   9.501  11.952  0.1064  0.2145 -0.1170
  742MOL0     C   56  -1.061   9.504  11.964  0.1643 -0.8200  0.6702
  742MOL0     C   57  -1.107   9.572  12.092  0.1604  0.4251  0.0401
  742MOL0     C   58  -1.262   9.579  12.115 -0.2475 -0.3195  0.1788
  742MOL0     O   59  -1.332   9.636  12.005  0.3628 -0.0780 -0.9528
  742MOL0     C   60  -1.465   9.651  12.025 -0.2401  1.2302 -0.2954
  742MOL0     C   61  -1.533   9.741  11.938  0.0880 -0.1813  0.6519
  742MOL0     C   62  -1.670   9.763  11.951  0.2421  0.6217  0.1464
  742MOL0     C   63  -1.738   9.862  11.864 -0.7922  0.7214  0.6570
  742MOL0     C   64  -1.748   9.682  12.037  0.3448  0.1768  0.2025
  742MOL0     C   65  -1.899   9.673  12.030 -0.7651  0.6476 -0.2992
  742MOL0     O   66  -1.955   9.656  11.914 -0.0775  0.0434  0.1370
  742MOL0     C   67  -2.095   9.636  11.908 -0.7289 -0.2655 -0.0813
  742MOL0     C   68  -2.163   9.523  11.960 -0.7982  0.0223  0.3089
  742MOL0     C   69  -2.299   9.522  11.961  0.8883  0.6247 -0.2087
  742MOL0     C   70  -2.371   9.603  11.881 -0.0681 -0.3052 -0.0694
  742MOL0     O   71  -2.505   9.581  11.872 -0.2038 -0.4269  0.3654
  742MOL0     C   72  -2.545   9.455  11.828  0.4175  0.7848  0.7243
  742MOL0     C   73  -2.689   9.457  11.787 -0.2999 -0.9154  0.0940
  742MOL0     C   74  -2.729   9.335  11.698  0.4452 -0.0717 -0.9150
  742MOL0     C   75  -2.882   9.326  11.693 -1.0595 -0.7525 -0.3210
  742MOL0     C   76  -2.942   9.385  11.567 -0.2921 -1.1806  0.0424
  742MOL0     C   77  -2.889   9.520  11.512  0.4672 -0.2940 -0.0823
  742MOL0     C   78  -2.979   9.595  11.406 -0.5903  0.9736 -0.5173
  742MOL0     C   79  -3.043   9.506  11.298 -0.6462  0.0133  0.4128
  742MOL0    Cl   80  -2.905   9.400  11.230  0.1403 -0.0783 -0.0179
  742MOL0     C   81  -2.310   9.710  11.827  0.8123 -0.7957  0.7869
  742MOL0     C   82  -2.172   9.723  11.831 -0.0890  0.3353  0.3538
  742MOL0     O   83  -1.957   9.677  12.138 -0.2170 -0.7958  0.0476
  742MOL0     C   84  -1.681   9.593  12.120 -0.1401  1.1958  0.2578
  742MOL0     C   85  -1.543   9.578  12.128 -0.0601 -0.1925 -0.4403
  742MOL0     N   86  -0.849   9.352  11.746 -0.7695 -0.5146 -0.9894
  742MOL0     N   87  -0.815   9.367  11.630 -0.2147  0.3125  0.5000
  742MOL0     C   88  -0.099   9.769  11.213  0.5315 -0.1296 -0.7287
  742MOL0     C   89  -0.005   9.674  11.173  0.1078  0.1203  0.3945
  742MOL0     C   90   0.369   9.514  11.038  0.0448 -1.1764  0.6203
  742MOL0     C   91   0.354   9.386  11.098  0.4059 -0.1060 -0.7508
  742MOL0     C   92   0.459   9.294  11.076  0.6439 -0.0144  0.4701
  742MOL0     C   93   0.581   9.311  11.004  0.5634 -0.4582 -0.3733
  742MOL0     O   94   0.689   9.226  11.002  0.5043 -0.4092 -0.6223
  742MOL0     C   95   0.694   9.144  10.881 -1.0446  0.9107  0.5779
  742MOL0     C   96   0.747   9.005  10.915 -0.6911  0.2628  0.0020
  742MOL0     C   97   0.897   8.997  10.971  0.8720 -1.1950 -0.8745
  742MOL0     C   98   0.924   8.854  11.016  0.3304 -0.3957 -0.0202
  742MOL0     C   99   1.048   8.870  11.091 -0.5415  0.1967 -0.3559
  742MOL0     C  100   1.156   8.891  11.152  0.3144  0.4304  0.3515
  742MOL0     C  101   0.579   9.430  10.932 -0.1862  0.5172  0.4322
  742MOL0     C  102   0.475   9.528  10.947 -0.2115  0.9518  0.3982
  742MOL0     H  103   0.256   9.773  11.352  0.2927 -1.8056 -1.4894
  742MOL0     H  104   0.109   9.963  11.414  0.3212  0.4513 -1.2418
  742MOL0     H  105  -0.101   9.929  11.537 -0.6147 -0.8107 -1.9457
  742MOL0     H  106  -0.106  10.088  11.471  2.1873 -0.2032  3.4889
  742MOL0     H  107  -0.278  10.091  11.624  0.0315 -0.9455  0.1547
  742MOL0     H  108  -0.375  10.051  11.478 -0.9321  2.3122  1.9194
  742MOL0     H  109  -0.305   9.861  11.693 -0.1365 -0.9573 -0.3902
  742MOL0     H  110  -0.472   9.907  11.639  0.3002  3.2681 -0.0477
  742MOL0     H  111  -0.416   9.779  11.433  1.1369  0.8899 -0.8726
  742MOL0     H  112  -0.262   9.742  11.494 -0.0563 -0.7740 -2.4320
  742MOL0     H  113  -0.373   9.543  11.575 -0.3649  0.8887 -0.8985
  742MOL0     H  114  -0.396   9.654  11.716 -2.1235 -2.5887  1.3582
  742MOL0     H  115  -0.603   9.579  11.696  0.6904 -1.5808 -1.0891
  742MOL0     H  116  -0.612   9.734  11.626 -0.1655 -0.5534  0.0975
  742MOL0     H  117  -0.595   9.631  11.392 -0.1178  0.0929  0.4478
  742MOL0     H  118  -0.578   9.471  11.470 -2.7500 -1.6166 -1.2430
  742MOL0     H  119  -0.794   9.490  11.389 -2.8351  1.4965  0.7410
  742MOL0     H  120  -0.814   9.654  11.471 -2.5121 -0.3583  1.9526
  742MOL0     H  121  -0.901   9.670  11.708 -0.0877  0.4029  0.4572
  742MOL0     H  122  -0.857   9.436  12.022 -0.6861 -3.1482 -2.4024
  742MOL0     H  123  -0.873   9.599  11.984 -1.0847 -0.2071  2.8688
  742MOL0     H  124  -1.102   9.402  11.961  1.8434 -1.5763  1.9165
  742MOL0     H  125  -1.084   9.565  11.877  4.4115  1.2659  0.7499
  742MOL0     H  126  -1.057   9.668  12.109  2.9205 -0.8056 -0.5940
  742MOL0     H  127  -1.065   9.522  12.180  1.4876  2.8599  0.8979
  742MOL0     H  128  -1.285   9.639  12.204  0.3594  0.6471 -0.2976
  742MOL0     H  129  -1.297   9.478  12.139  0.2724 -0.1745  1.6123
  742MOL0     H  130  -1.473   9.805  11.875  1.1165  0.7218  2.4548
  742MOL0     H  131  -1.811   9.923  11.918 -1.2128  1.0182 -0.2315
  742MOL0     H  132  -1.666   9.927  11.813  1.4061 -0.0558  2.6116
  742MOL0     H  133  -1.790   9.810  11.782  1.8400 -0.8884 -0.1249
  742MOL0     H  134  -2.106   9.446  12.011 -1.2138 -1.2834 -1.1278
  742MOL0     H  135  -2.354   9.442  12.009  0.6059  0.9125 -0.0494
  742MOL0     H  136  -2.485   9.430  11.740 -0.6759  1.2926 -0.1782
  742MOL0     H  137  -2.538   9.382  11.910  1.6147 -0.3954 -0.3677
  742MOL0     H  138  -2.746   9.455  11.880 -1.4663  0.0292 -0.5845
  742MOL0     H  139  -2.710   9.551  11.735 -0.8809 -1.4895 -0.7306
  742MOL0     H  140  -2.696   9.245  11.751  1.6435  0.6085 -0.4676
  742MOL0     H  141  -2.680   9.342  11.601  0.9815  2.2481 -0.5283
  742MOL0     H  142  -2.904   9.221  11.715  1.0885 -1.4212 -1.0992
  742MOL0     H  143  -2.936   9.383  11.769 -3.4199  0.1314 -2.5070
  742MOL0     H  144  -3.046   9.410  11.592 -0.8624 -0.8068 -2.4087
  742MOL0     H  145  -2.958   9.320  11.480 -3.8895 -1.7124  0.9272
  742MOL0     H  146  -2.893   9.593  11.593 -1.6234  0.4334 -0.7672
  742MOL0     H  147  -2.784   9.506  11.482  0.9297 -0.6021  1.5702
  742MOL0     H  148  -2.909   9.664  11.358  0.8978 -0.8901 -1.1701
  742MOL0     H  149  -3.054   9.656  11.457 -1.8386  1.1673 -2.5020
  742MOL0     H  150  -3.086   9.575  11.226  1.5255 -0.0463 -1.0400
  742MOL0     H  151  -3.127   9.442  11.325 -0.5169 -0.4059 -0.1628
  742MOL0     H  152  -2.379   9.775  11.774 -3.4938 -0.7815  5.5606
  742MOL0     H  153  -2.121   9.808  11.787 -2.0629  2.3606  1.7900
  742MOL0     H  154  -1.735   9.541  12.198 -0.6290  2.9873  1.1659
  742MOL0     H  155  -1.492   9.523  12.206  0.4636  2.7448  1.4351
  742MOL0     H  156  -0.200   9.778  11.174 -0.8946  0.0602  2.6285
  742MOL0     H  157  -0.041   9.599  11.103 -3.8853  1.2843  0.9929
  742MOL0     H  158   0.282   9.353  11.173 -0.6658 -0.5916 -1.9585
  742MOL0     H  159   0.439   9.195  11.115 -1.1631 -0.9982 -2.5941
  742MOL0     H  160   0.594   9.128  10.839 -1.0580  1.2883  0.4668
  742MOL0     H  161   0.760   9.185  10.804  1.0649  1.5883  2.6363
  742MOL0     H  162   0.751   8.947  10.822  0.9265  0.7068 -0.2454
  742MOL0     H  163   0.681   8.951  10.982 -2.7870  2.7489  0.1226
  742MOL0     H  164   0.907   9.059  11.061 -0.0054 -1.6355 -0.4471
  742MOL0     H  165   0.972   9.041  10.906  0.2379  2.1344  0.4572
  742MOL0     H  166   0.939   8.792  10.927  0.3787 -1.0154  0.4143
  742MOL0     H  167   0.857   8.809  11.090  2.6101 -0.2975  2.2329
  742MOL0     H  168   1.246   8.899  11.209 -1.0243  0.4421  2.5711
  742MOL0     H  169   0.658   9.452  10.861  0.0112  0.3717  0.6037
  742MOL0     H  170   0.475   9.618  10.885  0.5095  1.1577  0.6895
  743MOL0     O  171   5.711   8.997   3.911 -0.6126  0.1773 -0.9077
  743MOL0     C  172   5.719   8.883   3.964 -0.0987 -1.1966 -0.0797
  743MOL0     O  173   5.615   8.809   4.017  0.4069 -0.4688  0.0121
  743MOL0     C  174   5.486   8.860   4.002 -0.4699 -0.0970  0.0966
  743MOL0     C  175   5.431   8.911   3.883 -0.1894  0.0104 -0.2762
  743MOL0     C  176   5.300   8.945   3.875 -0.0417 -0.1244  0.0723
  743MOL0     C  177   5.213   8.933   3.981 -0.4866  0.3995 -0.0637
  743MOL0     O  178   5.082   8.975   3.989  0.1538 -0.2263  0.1285
  743MOL0     C  179   5.000   8.939   3.874 -1.0857  0.2041  0.2335
  743MOL0     C  180   4.860   8.982   3.920 -0.3926  0.0814 -0.1064
  743MOL0     C  181   4.757   8.934   3.817  0.3032  0.0826 -1.1388
  743MOL0     C  182   4.618   8.911   3.882  0.7412  0.0437  1.2873
  743MOL0     C  183   4.516   8.857   3.776  0.1950 -0.0791 -0.5197
  743MOL0     C  184   4.563   8.731   3.710  0.7184 -0.8007  0.3783
  743MOL0     C  185   4.602   8.618   3.795 -0.7228  0.0115 -0.0030
  743MOL0     C  186   4.613   8.488   3.718 -0.6439 -1.0077  1.1830
  743MOL0     N  187   4.481   8.437   3.681  0.3450  0.0165 -0.8185
  743MOL0     C  188   4.380   8.400   3.768 -0.6931  0.2383  0.1361
  743MOL0     C  189   4.282   8.361   3.685  0.6382 -0.5497  0.7606
  743MOL0     C  190   4.168   8.282   3.730  0.5899  0.7550 -0.0447
  743MOL0     C  191   4.034   8.350   3.699  0.4058  0.4680  0.0380
  743MOL0     C  192   3.918   8.253   3.711  0.1154 -0.3761  0.0803
  743MOL0     C  193   3.790   8.332   3.678 -0.7660  0.2704 -0.0555
  743MOL0     O  194   3.689   8.234   3.672 -0.3490  0.5420 -0.5675
  743MOL0     C  195   3.563   8.270   3.691  0.4326 -0.4086 -0.2157
  743MOL0     C  196   3.513   8.402   3.692 -0.6712 -0.3832  0.4012
  743MOL0     C  197   3.388   8.442   3.725 -0.0650 -0.1695 -0.6220
  743MOL0     C  198   3.350   8.591   3.730  0.1243 -0.6722  0.3397
  743MOL0     C  199   3.290   8.345   3.756 -0.4115 -0.3065 -0.0751
  743MOL0     C  200   3.153   8.380   3.786  0.2971  0.1740  0.2284
  743MOL0     O  201   3.127   8.478   3.873  0.2118 -1.0577  0.0199
  743MOL0     C  202   3.006   8.498   3.932  0.0175  0.0944 -0.1350
  743MOL0     C  203   2.972   8.625   3.971  1.2949  0.1803 -1.0757
  743MOL0     C  204   2.854   8.644   4.044  0.3072 -0.0622 -0.2241
  743MOL0     C  205   2.777   8.531   4.087 -0.7280 -0.2197  0.0935
  743MOL0     O  206   2.666   8.559   4.167  0.1348  0.6543  0.4726
  743MOL0     C  207   2.585   8.450   4.194  0.3266 -0.0263 -0.2157
  743MOL0     C  208   2.467   8.481   4.299  0.1220  0.1928  0.5787
  743MOL0     C  209   2.325   8.493   4.226 -0.7611 -0.7899  0.2842
  743MOL0     C  210   2.217   8.485   4.331  0.3505  0.6759  0.0359
  743MOL0     C  211   2.074   8.475   4.269  0.1828 -0.0549 -0.0372
  743MOL0     C  212   2.059   8.603   4.173  0.6701  0.0182 -0.1501
  743MOL0     C  213   1.918   8.612   4.119  0.1010 -0.0500  0.1204
  743MOL0     C  214   1.812   8.667   4.224 -0.6500 -0.5085  0.0467
  743MOL0    Cl  215   1.664   8.706   4.122 -0.3813  0.1213 -0.3244
  743MOL0     C  216   2.812   8.402   4.056 -0.3191 -0.1303 -0.3305
  743MOL0     C  217   2.925   8.385   3.975  0.4268 -0.6621  0.0888
  743MOL0     O  218   3.069   8.332   3.708 -0.0131  0.2556 -0.6672
  743MOL0     C  219   3.328   8.216   3.755 -0.2458  0.1601 -0.1207
  743MOL0     C  220   3.464   8.176   3.720  0.7824  0.6744 -0.4738
  743MOL0     N  221   4.314   8.391   3.555 -1.0683  0.4969  0.5297
  743MOL0     N  222   4.436   8.421   3.553  0.3268 -0.9759 -0.5941
  743MOL0     C  223   5.273   8.891   4.109  0.2838 -0.6151 -0.0172
  743MOL0     C  224   5.405   8.858   4.113 -0.0492 -0.1452 -0.3152
  743MOL0     C  225   5.857   8.835   3.992  0.0764  0.2986 -0.0196
  743MOL0     C  226   5.869   8.717   4.062 -0.2514 -0.1417 -0.4863
  743MOL0     C  227   5.996   8.672   4.101 -0.2092  1.1653 -0.1368
  743MOL0     C  228   6.114   8.723   4.050 -0.6294 -0.0081 -0.0043
  743MOL0     O  229   6.236   8.657   4.076 -0.0905 -0.6521 -0.1819
  743MOL0     C  230   6.362   8.726   4.066  0.0871 -0.4702  0.0631
  743MOL0     C  231   6.475   8.634   4.119 -0.0557  0.4037 -0.4017
  743MOL0     C  232   6.611   8.714   4.135 -0.0995  0.3396 -0.2545
  743MOL0     C  233   6.727   8.613   4.159  0.1499 -0.5884  0.5967
  743MOL0     C  234   6.828   8.676   4.250  0.1751 -0.1716 -0.0846
  743MOL0     C  235   6.908   8.730   4.328  0.2188  0.0635 -0.4773
  743MOL0     C  236   6.102   8.846   3.987  0.2846  0.1144  0.5790
  743MOL0     C  237   5.983   8.902   3.952 -0.5825  0.1622  0.4998
  743MOL0     H  238   5.492   8.922   3.794  1.1036 -0.0662  0.5687
  743MOL0     H  239   5.268   8.975   3.776 -4.0223 -2.6077  0.3979
  743MOL0     H  240   5.031   8.997   3.787 -0.2503  0.9406  1.0075
  743MOL0     H  241   5.001   8.833   3.846  0.3981  0.0575  0.7265
  743MOL0     H  242   4.851   8.931   4.016  0.0956  0.7807  0.3169
  743MOL0     H  243   4.859   9.090   3.936 -1.2286  0.0189  0.3424
  743MOL0     H  244   4.759   9.005   3.734  2.7156  1.1015 -0.3043
  743MOL0     H  245   4.789   8.835   3.784  1.8275 -0.5608  1.8862
  743MOL0     H  246   4.612   8.835   3.961 -0.2538 -4.0145 -2.3135
  743MOL0     H  247   4.580   9.007   3.919 -1.4536 -1.3153  2.8299
  743MOL0     H  248   4.419   8.837   3.822  1.3549 -1.4730  1.4755
  743MOL0     H  249   4.502   8.935   3.700 -1.0295  0.3328  0.1037
  743MOL0     H  250   4.479   8.708   3.644  1.9892  2.0761 -2.4797
  743MOL0     H  251   4.638   8.758   3.636 -0.7889  1.8219 -0.3356
  743MOL0     H  252   4.693   8.636   3.853 -0.2628 -1.4803 -0.2079
  743MOL0     H  253   4.530   8.595   3.874 -0.1036 -1.9637  0.0540
  743MOL0     H  254   4.666   8.408   3.771  2.6498 -0.1553 -0.5106
  743MOL0     H  255   4.664   8.503   3.623  1.1418  2.7534  2.5158
  743MOL0     H  256   4.384   8.376   3.874 -2.8666 -0.6059  0.0663
  743MOL0     H  257   4.174   8.178   3.698  2.0370  0.2968  1.5784
  743MOL0     H  258   4.180   8.278   3.839  0.7102  2.4582  0.0371
  743MOL0     H  259   4.041   8.385   3.596 -0.4121 -1.4682 -0.7224
  743MOL0     H  260   4.023   8.437   3.764  3.1085  1.0407 -0.1514
  743MOL0     H  261   3.899   8.220   3.814  2.1317  0.7262  0.8551
  743MOL0     H  262   3.935   8.157   3.660  0.7868  0.0561 -0.5280
  743MOL0     H  263   3.794   8.396   3.590 -1.5424  0.7456  0.2476
  743MOL0     H  264   3.771   8.405   3.757 -1.7857  1.4096 -1.3043
  743MOL0     H  265   3.573   8.488   3.665 -0.2370 -0.9362 -0.4342
  743MOL0     H  266   3.431   8.643   3.680  0.7020 -1.1526  0.7594
  743MOL0     H  267   3.255   8.616   3.682 -0.0289  0.2617  1.1047
  743MOL0     H  268   3.347   8.629   3.833 -0.7982  0.2863 -0.0290
  743MOL0     H  269   3.038   8.709   3.950 -1.0274  2.5983  0.6607
  743MOL0     H  270   2.831   8.748   4.067 -1.1646 -0.2635 -0.7168
  743MOL0     H  271   2.566   8.387   4.107  1.0777  1.3323 -1.4044
  743MOL0     H  272   2.649   8.382   4.250 -1.6218 -0.6842  1.3553
  743MOL0     H  273   2.466   8.403   4.376 -0.3868 -2.1841 -1.7061
  743MOL0     H  274   2.494   8.573   4.353  3.5045  1.3904 -2.6916
  743MOL0     H  275   2.316   8.415   4.150 -1.1540 -2.1392  1.6635
  743MOL0     H  276   2.326   8.586   4.168  1.7784 -2.0917 -1.9668
  743MOL0     H  277   2.230   8.396   4.393  1.2546  2.0963  1.9827
  743MOL0     H  278   2.212   8.580   4.384 -1.0529  0.2978  0.6175
  743MOL0     H  279   2.000   8.473   4.349  0.7293 -0.7374  0.4606
  743MOL0     H  280   2.070   8.385   4.207  1.8763  0.1492 -0.4937
  743MOL0     H  281   2.073   8.688   4.241  1.1397  0.5236 -0.8562
  743MOL0     H  282   2.140   8.621   4.102 -0.4727  2.3681 -0.9608
  743MOL0     H  283   1.872   8.516   4.092  1.3920 -0.4645 -0.6984
  743MOL0     H  284   1.926   8.680   4.035  1.0891 -0.0488  0.2025
  743MOL0     H  285   1.860   8.756   4.265  0.1025 -1.6215  1.6969
  743MOL0     H  286   1.790   8.600   4.307 -1.5042 -0.2427  0.0501
  743MOL0     H  287   2.767   8.307   4.084  3.8940 -2.9822 -2.3474
  743MOL0     H  288   2.944   8.283   3.944  0.4023 -0.3966 -0.8428
  743MOL0     H  289   3.258   8.140   3.788  0.2093 -0.5656 -0.7825
  743MOL0     H  290   3.494   8.073   3.707  2.5147  1.0452  0.2897
  743MOL0     H  291   5.216   8.884   4.201  0.4694 -0.1202  0.1407
  743MOL0     H  292   5.437   8.811   4.205 -0.1412  0.6863  0.1494
  743MOL0     H  293   5.780   8.662   4.090 -1.2118  1.0550 -1.1398
  743MOL0     H  294   5.992   8.590   4.173 -1.9157  2.7424  1.6618
  743MOL0     H  295   6.381   8.763   3.965 -0.4481  0.5947  0.3398
  743MOL0     H  296   6.356   8.815   4.129 -1.2122 -0.2437 -0.3433
  743MOL0     H  297   6.480   8.561   4.038 -3.0504  0.8945 -1.1474
  743MOL0     H  298   6.438   8.589   4.212 -2.0092  3.2742  0.3795
  743MOL0     H  299   6.603   8.792   4.212  1.1833  1.0877 -0.8564
  743MOL0     H  300   6.631   8.769   4.043  1.3658  2.6440  1.3041
  743MOL0     H  301   6.774   8.580   4.066  2.1365  2.0171  0.5738
  743MOL0     H  302   6.685   8.523   4.205 -2.2342  0.8876  1.4528
  743MOL0     H  303   6.978   8.768   4.399 -0.2182 -0.6000  0.3317
  743MOL0     H  304   6.180   8.911   3.948  0.3334 -0.0969  0.3200
  743MOL0     H  305   5.984   8.997   3.900  0.2434 -0.1435 -0.0539
  744MOL0     O  306   7.006   6.929   9.834 -0.7004 -0.0683 -0.0225
  744MOL0     C  307   6.956   6.966   9.935 -0.2545 -0.2735  0.3161
  744MOL0     O  308   7.014   6.962  10.059 -0.2189 -0.4173 -0.4039
  744MOL0     C  309   7.130   6.897  10.084 -0.4343 -0.8913  0.3804
  744MOL0     C  310   7.140   6.777  10.154  0.7636  0.2233  0.4815
  744MOL0     C  311   7.267   6.719  10.184 -0.4250  0.3531 -0.6103
  744MOL0     C  312   7.391   6.791  10.149 -0.6359 -0.0923  0.6600
  744MOL0     O  313   7.520   6.760  10.181  0.2362  0.2562 -0.1901
  744MOL0     C  314   7.534   6.638  10.264  0.3155  0.5282 -0.1310
  744MOL0     C  315   7.674   6.601  10.221 -0.7831  0.0090  0.1703
  744MOL0     C  316   7.779   6.688  10.286  0.3905 -0.9318  0.5346
  744MOL0     C  317   7.927   6.651  10.245 -0.3205  0.8084  0.0594
  744MOL0     C  318   8.022   6.767  10.284  0.0413  0.0028  1.0229
  744MOL0     C  319   8.166   6.761  10.227 -0.3259 -0.3748  0.5850
  744MOL0     C  320   8.267   6.855  10.300  0.2400  0.6697 -0.2710
  744MOL0     C  321   8.391   6.879  10.220  0.3413  0.7929  0.6111
  744MOL0     N  322   8.387   6.996  10.144 -0.3713  0.3350  0.9039
  744MOL0     C  323   8.465   7.016  10.027 -0.0230  0.9027 -0.1191
  744MOL0     C  324   8.480   7.146  10.011 -0.2066 -0.0137 -0.2086
  744MOL0     C  325   8.574   7.201   9.906 -0.2528  0.0275 -0.0037
  744MOL0     C  326   8.497   7.258   9.792  0.5180  0.1589 -0.3232
  744MOL0     C  327   8.393   7.368   9.838 -0.5620  0.2735 -0.8917
  744MOL0     C  328   8.335   7.431   9.713 -0.4477  0.3083  0.5989
  744MOL0     O  329   8.229   7.516   9.751  0.4290 -0.3490  0.4109
  744MOL0     C  330   8.116   7.503   9.670 -0.1617  0.4111  0.2854
  744MOL0     C  331   8.019   7.390   9.688 -0.1695 -0.4611 -0.3548
  744MOL0     C  332   7.911   7.371   9.607  0.3635  0.4131  0.5855
  744MOL0     C  333   7.822   7.250   9.639  0.3850 -1.2823 -0.5665
  744MOL0     C  334   7.897   7.464   9.501  0.6793  0.1949 -0.1157
  744MOL0     C  335   7.778   7.452   9.421  0.7933 -1.0639  0.0960
  744MOL0     O  336   7.753   7.339   9.350 -0.1735  0.6142  0.6112
  744MOL0     C  337   7.636   7.351   9.275 -0.1262 -0.5289 -0.7989
  744MOL0     C  338   7.539   7.249   9.280  0.6150 -0.9541  0.4080
  744MOL0     C  339   7.415   7.252   9.218 -0.1023  0.4854 -0.1690
  744MOL0     C  340   7.388   7.350   9.127 -0.5978 -0.2363  0.1002
  744MOL0     O  341   7.272   7.351   9.049 -0.2680  1.1443 -0.9294
  744MOL0     C  342   7.260   7.446   8.936  0.4155 -0.5623  0.5707
  744MOL0     C  343   7.132   7.398   8.866 -0.0441  0.0739 -0.7750
  744MOL0     C  344   7.075   7.492   8.761  0.0152 -0.3430 -0.0960
  744MOL0     C  345   7.036   7.435   8.622  0.1984 -0.0941  0.3871
  744MOL0     C  346   7.170   7.444   8.537  0.8989  0.0814 -0.1026
  744MOL0     C  347   7.173   7.577   8.463  0.2240  0.1007  0.3783
  744MOL0     C  348   7.074   7.604   8.348 -0.3979  0.0288  0.2323
  744MOL0     C  349   7.029   7.496   8.257  0.3345 -0.2081  0.6914
  744MOL0    Cl  350   6.918   7.388   8.331  0.2510 -0.2043  0.1932
  744MOL0     C  351   7.483   7.457   9.116 -0.1489 -0.5641 -0.5621
  744MOL0     C  352   7.606   7.457   9.187 -0.4728 -0.5043  0.1107
  744MOL0     O  353   7.688   7.533   9.461 -0.3653  0.6097 -0.3640
  744MOL0     C  354   7.979   7.572   9.484 -0.1048 -0.0651 -0.6336
  744MOL0     C  355   8.092   7.594   9.565  0.4909  0.4048  0.2584
  744MOL0     N  356   8.403   7.206  10.109  0.4854 -0.2789 -0.4491
  744MOL0     N  357   8.350   7.112  10.188 -0.4192  0.2661  0.3160
  744MOL0     C  358   7.380   6.913  10.071 -0.2194 -0.3862 -0.2710
  744MOL0     C  359   7.248   6.965  10.041  0.6162  0.2356  0.0863
  744MOL0     C  360   6.827   7.030   9.928 -0.7280  0.2420 -0.5282
  744MOL0     C  361   6.765   7.035   9.810  0.2084  0.4224  1.5371
  744MOL0     C  362   6.651   7.101   9.792 -0.2164  0.6251 -0.4816
  744MOL0     C  363   6.586   7.162   9.905 -1.4335 -0.2148  0.3239
  744MOL0     O  364   6.475   7.237   9.898 -0.3315 -0.2205 -0.2245
  744MOL0     C  365   6.417   7.256   9.770  0.0382  0.0778  0.3202
  744MOL0     C  366   6.296   7.348   9.772  0.2934  0.2304  0.7627
  744MOL0     C  367   6.323   7.489   9.827 -0.3971 -0.0061 -0.0137
  744MOL0     C  368   6.190   7.548   9.863  0.9002 -0.1550  0.2969
  744MOL0     C  369   6.103   7.570   9.747 -0.1431  0.1298  1.1575
  744MOL0     C  370   6.032   7.611   9.653 -0.0237  0.3450 -0.7112
  744MOL0     C  371   6.653   7.155  10.027  0.1913 -0.2360 -0.1834
  744MOL0     C  372   6.765   7.087  10.041  0.2940  0.9213 -0.1554
  744MOL0     H  373   7.049   6.736  10.197  0.7975  0.0166  0.3601
  744MOL0     H  374   7.264   6.629  10.243  1.1631  1.1392  0.7531
  744MOL0     H  375   7.525   6.650  10.373 -1.1472 -1.4806  0.0236
  744MOL0     H  376   7.462   6.560  10.237  0.7622 -0.1369  0.5588
  744MOL0     H  377   7.695   6.498  10.252 -0.9342 -0.1272 -0.1791
  744MOL0     H  378   7.683   6.603  10.112 -0.0563  1.1361  0.2336
  744MOL0     H  379   7.755   6.790  10.253  0.8084 -1.9355 -3.3234
  744MOL0     H  380   7.769   6.674  10.394  0.9841 -2.2022  0.4374
  744MOL0     H  381   7.960   6.561  10.297 -1.9203  0.7797  1.0903
  744MOL0     H  382   7.944   6.636  10.138 -0.8877 -0.4689  0.1380
  744MOL0     H  383   7.982   6.863  10.250 -0.1423  0.0184  1.2826
  744MOL0     H  384   8.035   6.760  10.392 -0.6228 -1.0062  1.0460
  744MOL0     H  385   8.212   6.665  10.253  1.2526  1.2288  4.3822
  744MOL0     H  386   8.165   6.784  10.120 -3.4428 -0.0191  0.5930
  744MOL0     H  387   8.209   6.946  10.314 -3.1650 -1.2927 -0.6895
  744MOL0     H  388   8.296   6.810  10.396  0.2730  0.4179 -0.3987
  744MOL0     H  389   8.402   6.790  10.157 -0.6227  0.9296  0.2373
  744MOL0     H  390   8.483   6.876  10.280 -0.2224 -0.4269  1.4741
  744MOL0     H  391   8.534   6.950   9.975 -0.1782  0.6003  0.0542
  744MOL0     H  392   8.628   7.283   9.953 -0.3843 -0.1359  0.4336
  744MOL0     H  393   8.651   7.136   9.864 -0.4913  1.4880 -2.9990
  744MOL0     H  394   8.446   7.176   9.741  0.1068 -1.4519  2.4945
  744MOL0     H  395   8.578   7.301   9.733  2.1257 -1.4198  0.6182
  744MOL0     H  396   8.448   7.431   9.909  0.5754 -0.7510 -0.8344
  744MOL0     H  397   8.308   7.320   9.887  0.1584  2.0962  2.4182
  744MOL0     H  398   8.296   7.356   9.644 -0.7305 -0.1873  1.2772
  744MOL0     H  399   8.419   7.485   9.668 -0.7564  2.0261  1.9833
  744MOL0     H  400   8.037   7.339   9.781  0.7658  0.6312  0.0893
  744MOL0     H  401   7.848   7.214   9.739 -0.2654 -0.3624 -0.0543
  744MOL0     H  402   7.721   7.288   9.653  0.9146  0.7535 -1.8483
  744MOL0     H  403   7.845   7.178   9.560 -0.2982 -2.3563  0.1910
  744MOL0     H  404   7.563   7.169   9.349  1.2005 -1.4569 -0.3534
  744MOL0     H  405   7.348   7.166   9.226  1.5265 -0.9601 -1.3138
  744MOL0     H  406   7.244   7.551   8.961 -0.0599  0.3318 -2.9472
  744MOL0     H  407   7.341   7.439   8.862 -1.0297  2.6284 -1.5010
  744MOL0     H  408   7.154   7.301   8.820 -1.4763 -0.5343 -0.2378
  744MOL0     H  409   7.058   7.388   8.945 -0.5230 -0.5731 -1.2975
  744MOL0     H  410   7.144   7.576   8.750 -2.7161  2.5619  2.7711
  744MOL0     H  411   6.984   7.537   8.803 -0.3190  2.1177 -3.0823
  744MOL0     H  412   7.006   7.330   8.625  0.8790 -0.2882  0.9972
  744MOL0     H  413   6.957   7.499   8.582  1.5005  1.4475  0.1978
  744MOL0     H  414   7.173   7.370   8.457  3.4696  0.6665 -0.6225
  744MOL0     H  415   7.259   7.432   8.599 -0.6499 -1.3166  2.0076
  744MOL0     H  416   7.171   7.668   8.523 -0.0136  0.7371 -0.5938
  744MOL0     H  417   7.272   7.577   8.416  0.0057  1.8264 -0.1281
  744MOL0     H  418   7.119   7.683   8.288 -0.7814  0.7416  0.8744
  744MOL0     H  419   6.980   7.640   8.392 -0.5163 -0.7482  0.6357
  744MOL0     H  420   7.110   7.439   8.212 -1.4430 -0.7427 -2.1169
  744MOL0     H  421   6.976   7.547   8.176  1.8976 -0.7842 -0.7346
  744MOL0     H  422   7.461   7.545   9.055  1.9319  0.0861 -0.4377
  744MOL0     H  423   7.673   7.540   9.168 -0.0586 -0.6985  0.7353
  744MOL0     H  424   7.942   7.625   9.396 -3.8341  1.5731  1.6474
  744MOL0     H  425   8.163   7.675   9.553  0.0354  1.2586  2.6316
  744MOL0     H  426   7.468   6.971  10.043  0.3868 -1.5922 -0.9359
  744MOL0     H  427   7.238   7.053   9.979  1.7614 -0.8660 -1.7746
  744MOL0     H  428   6.808   6.980   9.726  1.5791 -0.5305  2.7982
  744MOL0     H  429   6.594   7.107   9.700 -1.9002 -2.5347  0.2007
  744MOL0     H  430   6.489   7.307   9.705  0.1395  1.6948  1.6217
  744MOL0     H  431   6.398   7.158   9.726 -0.7909 -0.6734  2.2554
  744MOL0     H  432   6.225   7.297   9.839  1.6895 -1.1066  1.2783
  744MOL0     H  433   6.257   7.354   9.670  1.7473  0.5347  0.2129
  744MOL0     H  434   6.360   7.541   9.738  1.9302 -2.5966 -0.6833
  744MOL0     H  435   6.392   7.493   9.912  1.2466  0.4959 -1.3170
  744MOL0     H  436   6.195   7.642   9.918  1.5217 -0.3454  0.5748
  744MOL0     H  437   6.134   7.481   9.929  1.1426  0.8999  1.5972
  744MOL0     H  438   5.973   7.640   9.569  1.9912  0.3775 -2.1797
  744MOL0     H  439   6.616   7.207  10.115  1.7259 -0.2165  0.4916
  744MOL0     H  440   6.827   7.100  10.130  1.7536 -1.7244 -0.6950
  745MOL0     O  441   8.271   4.217   5.503 -1.0878 -0.4161 -0.2604
  745MOL0     C  442   8.294   4.105   5.469 -0.7713 -0.4151  0.2362
  745MOL0     O  443   8.195   4.010   5.457  0.7123  0.0196  0.2526
  745MOL0     C  444   8.079   4.026   5.518  0.1762  0.1596  0.1843
  745MOL0     C  445   8.078   3.985   5.652 -0.0960 -0.2666 -0.1557
  745MOL0     C  446   7.961   4.004   5.738  0.1766  0.1481  0.4943
  745MOL0     C  447   7.850   4.062   5.677 -0.1595  0.2653  0.8369
  745MOL0     O  448   7.726   4.084   5.740 -0.1167 -0.4910  0.0976
  745MOL0     C  449   7.704   4.047   5.872  0.6447 -0.1437  0.0356
  745MOL0     C  450   7.556   4.045   5.908  0.7591 -0.2284  0.1482
  745MOL0     C  451   7.487   4.185   5.899 -0.6608 -0.3173  0.1383
  745MOL0     C  452   7.447   4.231   6.039 -0.5320  0.6136 -0.2992
  745MOL0     C  453   7.347   4.343   6.026  0.5052  0.3731 -0.1145
  745MOL0     C  454   7.307   4.407   6.161  0.2034 -0.5079  0.1450
  745MOL0     C  455   7.192   4.500   6.134  0.2661  0.0770  0.9770
  745MOL0     C  456   7.119   4.537   6.268 -0.1508 -0.3252 -0.7485
  745MOL0     N  457   6.989   4.470   6.267  0.3656  0.2326  0.2673
  745MOL0     C  458   6.899   4.499   6.176  0.3616 -0.2417  0.4799
  745MOL0     C  459   6.798   4.418   6.212  0.2587 -0.1737 -0.7935
  745MOL0     C  460   6.665   4.415   6.150  0.5437  0.2806  0.7339
  745MOL0     C  461   6.664   4.296   6.050  0.1224  0.0130 -0.5188
  745MOL0     C  462   6.533   4.318   5.962 -0.2477  0.8792 -0.2466
  745MOL0     C  463   6.406   4.266   6.027 -0.1122  0.4495 -0.2892
  745MOL0     O  464   6.294   4.276   5.943 -0.0695 -0.2187  0.0764
  745MOL0     C  465   6.170   4.218   5.974 -0.0907  0.0355 -0.2445
  745MOL0     C  466   6.070   4.255   5.885  0.1152  0.9151  0.0253
  745MOL0     C  467   5.936   4.206   5.905 -0.1738 -0.1154 -0.1150
  745MOL0     C  468   5.836   4.253   5.804  0.0731  0.0490  1.0335
  745MOL0     C  469   5.906   4.132   6.023  0.6523  0.0101  0.1786
  745MOL0     C  470   5.773   4.091   6.067 -0.4561 -0.1759 -0.0845
  745MOL0     O  471   5.666   4.133   5.992  0.3016  0.3741  0.7287
  745MOL0     C  472   5.549   4.089   6.025  0.9683  0.7262 -0.6493
  745MOL0     C  473   5.519   3.949   6.046 -0.6271 -0.1680  0.4355
  745MOL0     C  474   5.390   3.911   6.074  0.2335 -0.2404 -0.0171
  745MOL0     C  475   5.285   3.987   6.063  0.7108 -0.5356 -0.1910
  745MOL0     O  476   5.162   3.931   6.088  0.1572 -0.1665 -0.3625
  745MOL0     C  477   5.066   4.028   6.128 -0.5907  0.3960  0.2246
  745MOL0     C  478   4.965   3.950   6.204 -0.3031 -0.6788 -0.3201
  745MOL0     C  479   4.848   4.037   6.208  0.4283  0.1849  0.0731
  745MOL0     C  480   4.744   3.958   6.276  0.1884 -0.1340  0.0539
  745MOL0     C  481   4.620   4.046   6.290 -0.6799  0.0738 -0.9400
  745MOL0     C  482   4.502   3.952   6.326 -0.1261  0.7801 -0.6775
  745MOL0     C  483   4.367   4.039   6.324  0.0970  0.4345 -1.2441
  745MOL0     C  484   4.251   3.964   6.400 -1.3722 -0.1778  0.5039
  745MOL0    Cl  485   4.109   4.069   6.406  0.1282  0.1332  0.2756
  745MOL0     C  486   5.308   4.120   6.017  0.5903  0.4977  0.2747
  745MOL0     C  487   5.437   4.168   5.999 -0.4333  0.0965  0.3921
  745MOL0     O  488   5.770   4.020   6.169 -0.2380 -0.8308  0.8675
  745MOL0     C  489   6.010   4.108   6.112 -0.5652  0.3370 -0.8324
  745MOL0     C  490   6.140   4.148   6.092  0.4014  0.3990 -0.3147
  745MOL0     N  491   6.836   4.343   6.326  0.2921  0.0815 -0.1640
  745MOL0     N  492   6.952   4.387   6.369 -0.2787  0.2412  0.6005
  745MOL0     C  493   7.853   4.108   5.542  0.2437  0.6233  0.5249
  745MOL0     C  494   7.971   4.101   5.464 -0.5597 -0.2650 -0.8284
  745MOL0     C  495   8.425   4.060   5.414  0.7017  0.3195  0.2975
  745MOL0     C  496   8.484   3.933   5.436 -0.4843 -0.4650  0.1719
  745MOL0     C  497   8.603   3.902   5.368  0.1726 -0.2608  0.2998
  745MOL0     C  498   8.658   3.990   5.277 -0.4812  0.5213  0.3371
  745MOL0     O  499   8.762   3.962   5.199  0.1857  0.5743  0.1423
  745MOL0     C  500   8.859   3.856   5.217  0.3579  0.3674 -0.4482
  745MOL0     C  501   8.958   3.886   5.339 -0.1694 -0.2549 -0.4043
  745MOL0     C  502   9.089   3.811   5.307 -0.3757  0.2622 -0.7376
  745MOL0     C  503   9.190   3.816   5.430  1.1912  0.3971  0.2310
  745MOL0     C  504   9.166   3.702   5.516  0.1420  0.2347  0.5896
  745MOL0     C  505   9.160   3.607   5.595 -0.1962  0.1797 -0.3075
  745MOL0     C  506   8.611   4.114   5.272  0.5322 -0.2245  0.3036
  745MOL0     C  507   8.496   4.152   5.340 -0.3430  0.1611 -0.0846
  745MOL0     H  508   8.171   3.953   5.697 -0.2667 -0.3498  0.1394
  745MOL0     H  509   7.962   3.974   5.843  4.4797 -0.7775  0.3993
  745MOL0     H  510   7.751   3.949   5.889  1.0530  0.1701  0.7808
  745MOL0     H  511   7.759   4.121   5.931  1.4292  0.2241 -1.1240
  745MOL0     H  512   7.511   3.971   5.842  0.4543  0.7352 -0.7522
  745MOL0     H  513   7.545   4.002   6.008 -1.4683  1.4675  0.7341
  745MOL0     H  514   7.552   4.256   5.847  1.8331 -1.7493  1.0845
  745MOL0     H  515   7.395   4.171   5.841 -0.6812 -0.5386  0.2241
  745MOL0     H  516   7.400   4.157   6.104  0.3111  2.2663  2.3512
  745MOL0     H  517   7.535   4.264   6.095  0.4559  0.4833 -1.6955
  745MOL0     H  518   7.402   4.422   5.973 -0.1782  2.9657  2.8026
  745MOL0     H  519   7.257   4.313   5.971  0.0899  0.8920  0.2734
  745MOL0     H  520   7.267   4.327   6.224  0.7326 -0.1688  0.9257
  745MOL0     H  521   7.388   4.442   6.225  0.0548 -0.5734  0.3717
  745MOL0     H  522   7.236   4.589   6.088 -1.1304 -1.2083 -3.2367
  745MOL0     H  523   7.125   4.453   6.062  2.1036 -2.3195  0.7257
  745MOL0     H  524   7.096   4.643   6.275 -5.1509 -1.1899 -0.4792
  745MOL0     H  525   7.185   4.521   6.354  3.2245  0.1764 -3.0336
  745MOL0     H  526   6.896   4.567   6.092 -0.1529 -0.1591  0.5619
  745MOL0     H  527   6.594   4.391   6.229  0.3283  0.3509  0.5628
  745MOL0     H  528   6.651   4.513   6.103  0.8361  0.1505  0.3686
  745MOL0     H  529   6.673   4.198   6.097 -2.5608  0.2302  0.5944
  745MOL0     H  530   6.750   4.294   5.983 -1.1614 -3.3376 -2.3192
  745MOL0     H  531   6.540   4.270   5.864  1.2656 -0.2059  0.3626
  745MOL0     H  532   6.516   4.425   5.947 -2.6682  0.8701  1.7253
  745MOL0     H  533   6.390   4.308   6.127 -0.2342 -0.7295  0.2000
  745MOL0     H  534   6.429   4.160   6.045  0.4302  0.3489 -1.5160
  745MOL0     H  535   6.103   4.308   5.796  0.3418  3.1540  1.3619
  745MOL0     H  536   5.888   4.276   5.710 -1.1157 -0.8741  0.1251
  745MOL0     H  537   5.757   4.187   5.767 -1.4767  2.4551 -0.2045
  745MOL0     H  538   5.785   4.342   5.842 -3.6307 -0.4760 -2.1012
  745MOL0     H  539   5.600   3.876   6.044 -0.4806 -0.0145  0.7648
  745MOL0     H  540   5.372   3.805   6.089  1.1036 -0.5134 -0.8277
  745MOL0     H  541   5.111   4.107   6.189 -0.0423  0.1866  0.0972
  745MOL0     H  542   5.020   4.064   6.036  1.1655 -0.7006 -1.1518
  745MOL0     H  543   4.946   3.865   6.138  1.6759 -1.6241  0.2497
  745MOL0     H  544   4.988   3.924   6.308 -4.5001  3.3905  2.0418
  745MOL0     H  545   4.819   4.076   6.110  1.1249  1.5243  0.3687
  745MOL0     H  546   4.865   4.129   6.265 -0.3545 -0.2899  1.1002
  745MOL0     H  547   4.708   3.882   6.207 -1.1446  2.3299 -2.1727
  745MOL0     H  548   4.770   3.921   6.376 -2.1223 -3.2941 -0.3666
  745MOL0     H  549   4.604   4.099   6.195 -1.0586 -1.6539 -1.8908
  745MOL0     H  550   4.627   4.116   6.374 -0.8545 -0.1862 -0.7089
  745MOL0     H  551   4.503   3.866   6.258 -0.8658 -0.6332  1.0399
  745MOL0     H  552   4.515   3.906   6.424 -0.6574  1.9226 -0.0492
  745MOL0     H  553   4.329   4.065   6.224 -1.9038  1.7868 -0.2086
  745MOL0     H  554   4.375   4.137   6.372  0.5486  1.3835 -3.1601
  745MOL0     H  555   4.285   3.930   6.498 -2.4656  0.1358  1.0022
  745MOL0     H  556   4.224   3.878   6.339 -0.2872 -0.0813 -0.1476
  745MOL0     H  557   5.226   4.187   5.993 -0.3667 -0.0921  1.7630
  745MOL0     H  558   5.453   4.268   5.961  0.5583 -1.0991 -2.6172
  745MOL0     H  559   5.999   4.050   6.203  0.4720  0.9985 -0.2689
  745MOL0     H  560   6.213   4.128   6.170  0.7344 -0.4317 -0.8313
  745MOL0     H  561   7.769   4.168   5.509 -1.0980 -1.2408  0.3373
  745MOL0     H  562   7.978   4.131   5.360  1.0690 -1.1253 -0.9985
  745MOL0     H  563   8.438   3.871   5.513 -3.0031  2.3548  1.1327
  745MOL0     H  564   8.643   3.801   5.375  1.2575  0.2881  4.0238
  745MOL0     H  565   8.816   3.759   5.242  1.1580  0.2738  0.6440
  745MOL0     H  566   8.902   3.842   5.117 -1.1384 -0.4211 -1.0153
  745MOL0     H  567   8.908   3.856   5.432  0.0881  2.5875  0.7608
  745MOL0     H  568   8.978   3.993   5.351  0.8868 -0.0600 -3.2088
  745MOL0     H  569   9.128   3.865   5.220  2.1576  1.5632  1.0787
  745MOL0     H  570   9.067   3.709   5.276 -1.8155 -0.0566  1.1544
  745MOL0     H  571   9.172   3.903   5.494  0.8513  1.1577 -0.8685
  745MOL0     H  572   9.297   3.827   5.409  1.1719  1.5392  0.6307
  745MOL0     H  573   9.149   3.539   5.676  0.6348 -0.3940 -0.6539
  745MOL0     H  574   8.649   4.194   5.208  1.0074 -2.3307 -2.1977
  745MOL0     H  575   8.465   4.255   5.327 -0.8461  0.3331  2.1733
  746MOL0     O  576   2.255   7.399   1.285 -0.0904  0.6256  0.2918
  746MOL0     C  577   2.237   7.427   1.166 -0.5163 -0.3370 -0.6833
  746MOL0     O  578   2.127   7.416   1.100  0.3345  0.4483  0.3952
  746MOL0     C  579   2.015   7.362   1.158 -0.2564 -1.6036 -0.1849
  746MOL0     C  580   1.982   7.238   1.108  0.5505  0.3654  0.3531
  746MOL0     C  581   1.873   7.179   1.156  0.2225 -0.9280 -0.1137
  746MOL0     C  582   1.782   7.235   1.247 -0.2401 -0.3483 -0.9080
  746MOL0     O  583   1.674   7.176   1.316 -0.0781  0.3795 -0.6658
  746MOL0     C  584   1.690   7.034   1.328 -0.5950 -0.0880 -0.1999
  746MOL0     C  585   1.587   6.975   1.424  0.3946  0.6241 -0.1697
  746MOL0     C  586   1.440   7.021   1.387 -0.7695  0.2308 -0.0474
  746MOL0     C  587   1.327   6.931   1.443 -0.0131  0.9837 -0.4827
  746MOL0     C  588   1.189   6.991   1.410  0.8415  0.1612  0.1165
  746MOL0     C  589   1.076   6.935   1.505 -0.0852  0.3045 -0.2668
  746MOL0     C  590   0.933   6.999   1.472 -0.5957  0.5985  0.1119
  746MOL0     C  591   0.846   6.934   1.579 -0.3306  0.0494 -0.1969
  746MOL0     N  592   0.718   7.001   1.570  0.3699 -0.5248 -0.8278
  746MOL0     C  593   0.659   7.072   1.671  0.6310 -0.9989  0.3055
  746MOL0     C  594   0.530   7.078   1.637  0.3228  0.8122  1.1890
  746MOL0     C  595   0.417   7.137   1.721 -0.5164  0.0647  0.2512
  746MOL0     C  596   0.439   7.278   1.761 -0.4055  0.3736  0.1578
  746MOL0     C  597   0.351   7.332   1.874 -0.4261  0.3628 -0.3296
  746MOL0     C  598   0.201   7.346   1.836 -0.1564 -0.1412 -0.4516
  746MOL0     O  599   0.137   7.453   1.912  0.0247  0.4629  0.9111
  746MOL0     C  600   0.000   7.459   1.905  0.0342 -0.2426  0.1550
  746MOL0     C  601  -0.074   7.531   1.997 -0.0518 -0.0066 -0.0884
  746MOL0     C  602  -0.213   7.537   1.998 -0.3013  1.1037 -0.3749
  746MOL0     C  603  -0.282   7.603   2.114 -0.0995  0.4806 -0.0130
  746MOL0     C  604  -0.287   7.456   1.903 -0.6266  0.2148 -0.2403
  746MOL0     C  605  -0.435   7.446   1.882  0.3441 -0.2320  0.3037
  746MOL0     O  606  -0.519   7.526   1.960 -0.1751 -0.5250  0.4681
  746MOL0     C  607  -0.657   7.515   1.950  0.1771  0.1106  0.0575
  746MOL0     C  608  -0.742   7.486   2.055  0.5385  0.9945 -0.3193
  746MOL0     C  609  -0.886   7.495   2.045  0.6012 -1.1875 -0.3633
  746MOL0     C  610  -0.949   7.546   1.922  0.6342 -0.2369  0.0366
  746MOL0     O  611  -1.088   7.556   1.894  0.3105  0.8280  0.2246
  746MOL0     C  612  -1.181   7.535   1.995 -0.5696  0.7724 -0.0581
  746MOL0     C  613  -1.287   7.429   1.970  0.2319 -0.2501  0.2655
  746MOL0     C  614  -1.353   7.450   1.840  0.4568 -0.1890 -0.7026
  746MOL0     C  615  -1.451   7.330   1.834 -0.0011  0.0201 -0.3643
  746MOL0     C  616  -1.503   7.303   1.693 -0.3287 -0.0146 -0.8801
  746MOL0     C  617  -1.598   7.414   1.642 -0.4410  0.2364 -0.2594
  746MOL0     C  618  -1.673   7.382   1.513 -0.3013 -0.5473  0.6691
  746MOL0     C  619  -1.766   7.501   1.485  0.7377  0.5213 -0.4503
  746MOL0    Cl  620  -1.875   7.470   1.334 -0.3099  0.2101  0.0209
  746MOL0     C  621  -0.857   7.584   1.822  0.0554  0.4667 -0.7207
  746MOL0     C  622  -0.719   7.561   1.834 -0.1552  0.0694 -0.4285
  746MOL0     O  623  -0.480   7.362   1.800 -0.4817 -0.6894 -0.4355
  746MOL0     C  624  -0.212   7.389   1.809  0.1861 -0.3316  0.1342
  746MOL0     C  625  -0.069   7.396   1.805  0.6615 -0.6681 -0.1270
  746MOL0     N  626   0.507   7.036   1.512  0.1982 -0.2408  0.2305
  746MOL0     N  627   0.623   6.979   1.472 -0.6104 -0.2081 -0.5249
  746MOL0     C  628   1.820   7.363   1.309 -0.9380 -0.1795 -0.2029
  746MOL0     C  629   1.937   7.424   1.258 -0.2055  0.1088 -0.2506
  746MOL0     C  630   2.353   7.494   1.105  0.6995 -0.8189  0.1086
  746MOL0     C  631   2.322   7.599   1.014 -1.0342  0.1556  0.8281
  746MOL0     C  632   2.417   7.661   0.936 -0.0341  0.1714 -0.1619
  746MOL0     C  633   2.553   7.632   0.957 -1.0070  0.3356  0.5408
  746MOL0     O  634   2.646   7.701   0.878 -0.1890 -1.0005  0.2401
  746MOL0     C  635   2.777   7.654   0.869 -0.3067 -0.1435  0.2514
  746MOL0     C  636   2.834   7.667   0.728  0.7020  0.0366 -0.0725
  746MOL0     C  637   2.921   7.547   0.692 -0.5265 -0.3800 -0.1340
  746MOL0     C  638   2.967   7.531   0.545  0.8519 -0.4943 -1.4916
  746MOL0     C  639   3.052   7.647   0.500  1.0464 -0.0760  0.2041
  746MOL0     C  640   3.100   7.749   0.468  0.1182 -0.4734  0.8256
  746MOL0     C  641   2.593   7.544   1.061  1.1040 -0.2900 -0.3462
  746MOL0     C  642   2.492   7.467   1.133 -0.3932  0.1887  0.7060
  746MOL0     H  643   2.036   7.189   1.028  0.4262  1.2286 -0.2767
  746MOL0     H  644   1.846   7.084   1.110 -0.7028 -0.5995 -0.2875
  746MOL0     H  645   1.674   6.997   1.226  0.7211  0.1334 -0.5127
  746MOL0     H  646   1.789   7.000   1.361 -1.3725 -2.0181  0.2980
  746MOL0     H  647   1.597   6.867   1.425  2.3456  0.7671  1.6661
  746MOL0     H  648   1.628   6.999   1.523  1.0185 -1.2669  0.0616
  746MOL0     H  649   1.427   7.122   1.426 -1.0207  0.7487 -1.4025
  746MOL0     H  650   1.427   7.016   1.278 -0.6434 -1.6295 -0.0071
  746MOL0     H  651   1.338   6.829   1.405 -2.5186  0.1918  0.6822
  746MOL0     H  652   1.332   6.935   1.552 -3.6021  2.9120 -0.2220
  746MOL0     H  653   1.202   7.098   1.421  0.1063  0.1192  1.6853
  746MOL0     H  654   1.176   6.972   1.303 -0.4037 -2.4921  0.6452
  746MOL0     H  655   1.069   6.828   1.482  0.9570  0.2386 -0.3173
  746MOL0     H  656   1.106   6.938   1.610 -2.3749  0.0371  0.4658
  746MOL0     H  657   0.946   7.107   1.478  2.4232  0.3476 -0.4443
  746MOL0     H  658   0.886   6.962   1.380  0.9963 -2.8032  0.5058
  746MOL0     H  659   0.877   6.956   1.681 -0.1240  4.7337 -1.0156
  746MOL0     H  660   0.840   6.826   1.567  3.2525 -0.0514 -2.7895
  746MOL0     H  661   0.695   7.104   1.768  1.1913  0.8364 -0.4567
  746MOL0     H  662   0.323   7.135   1.664 -1.1566 -0.8131  1.2855
  746MOL0     H  663   0.398   7.081   1.813  0.8362  0.7025  0.9502
  746MOL0     H  664   0.439   7.337   1.669  0.5998 -0.4265 -0.3801
  746MOL0     H  665   0.545   7.284   1.789 -0.3833 -0.2276  0.2129
  746MOL0     H  666   0.389   7.427   1.912 -0.6181 -0.2682  1.5605
  746MOL0     H  667   0.364   7.259   1.954 -0.3580 -0.9365 -1.4813
  746MOL0     H  668   0.153   7.252   1.866  0.6075 -0.2908  0.3413
  746MOL0     H  669   0.184   7.364   1.730  1.8351 -2.3634 -1.2413
  746MOL0     H  670  -0.008   7.571   2.073  0.5739 -3.2348  1.2627
  746MOL0     H  671  -0.213   7.668   2.168 -1.1643  0.0471  1.9540
  746MOL0     H  672  -0.357   7.672   2.075 -2.3569 -2.1055 -0.5678
  746MOL0     H  673  -0.328   7.541   2.191  0.3668  0.4135  0.2152
  746MOL0     H  674  -0.715   7.447   2.152 -4.2546 -3.9857 -0.4955
  746MOL0     H  675  -0.956   7.458   2.120 -0.3477 -0.4391 -0.8588
  746MOL0     H  676  -1.151   7.519   2.098 -1.4689 -1.5852 -0.1129
  746MOL0     H  677  -1.233   7.632   1.996  0.4506  1.3295  0.7320
  746MOL0     H  678  -1.255   7.326   1.988 -1.8955 -0.9475  0.3921
  746MOL0     H  679  -1.366   7.447   2.044  1.4097  4.5644  0.6798
  746MOL0     H  680  -1.274   7.447   1.764 -0.9434 -0.5165 -2.2015
  746MOL0     H  681  -1.404   7.546   1.842 -1.8833 -1.3492  1.4617
  746MOL0     H  682  -1.395   7.240   1.860  0.5946  0.5039  0.0934
  746MOL0     H  683  -1.542   7.342   1.894 -0.7456  1.6114 -1.7392
  746MOL0     H  684  -1.547   7.204   1.687  0.1017 -0.1622 -1.7078
  746MOL0     H  685  -1.412   7.288   1.633  0.4590  0.1916  0.2290
  746MOL0     H  686  -1.669   7.437   1.722 -0.6174  0.7497 -0.5586
  746MOL0     H  687  -1.545   7.507   1.618  0.0975 -0.3905 -1.6185
  746MOL0     H  688  -1.735   7.291   1.514  0.2271 -0.9314 -0.0549
  746MOL0     H  689  -1.604   7.376   1.428 -1.1546  1.5952 -0.2452
  746MOL0     H  690  -1.700   7.588   1.480 -0.9774  2.0150  1.5123
  746MOL0     H  691  -1.832   7.511   1.571  1.5566 -1.5026  0.4894
  746MOL0     H  692  -0.895   7.624   1.728  1.3056  1.1014 -0.9825
  746MOL0     H  693  -0.659   7.600   1.751  0.5496  0.8189  0.4141
  746MOL0     H  694  -0.263   7.330   1.734 -0.8144 -0.1808  0.6857
  746MOL0     H  695  -0.014   7.345   1.726  0.8351 -0.5573 -0.0768
  746MOL0     H  696   1.758   7.410   1.386  0.1461  0.1805  0.4779
  746MOL0     H  697   1.975   7.521   1.289 -2.5093  1.3585 -1.0840
  746MOL0     H  698   2.221   7.635   0.997 -0.5382  1.6717  0.8782
  746MOL0     H  699   2.375   7.741   0.876 -1.2500  1.4190  2.2018
  746MOL0     H  700   2.849   7.719   0.918 -1.5674  3.8714 -2.6969
  746MOL0     H  701   2.788   7.550   0.901  1.3650  0.1241  0.6420
  746MOL0     H  702   2.894   7.758   0.718 -1.1922  1.4019  0.4855
  746MOL0     H  703   2.751   7.667   0.657  0.7370 -4.4812 -0.4471
  746MOL0     H  704   2.879   7.449   0.713 -0.8665 -0.3481 -0.6440
  746MOL0     H  705   3.012   7.556   0.752 -0.1994 -0.5945 -0.5856
  746MOL0     H  706   2.867   7.531   0.500  0.9461  0.1584 -1.7161
  746MOL0     H  707   3.017   7.434   0.538  0.2038 -0.9093 -0.5884
  746MOL0     H  708   3.136   7.840   0.423 -3.5557  0.8721  0.2048
  746MOL0     H  709   2.697   7.541   1.090  1.8213  1.1710 -2.5246
  746MOL0     H  710   2.527   7.394   1.206  3.0265  2.0956  1.2174
  747MOL0     O  711   2.852  10.384  11.296  0.4505 -0.1359 -0.5010
  747MOL0     C  712   2.920  10.472  11.357  0.2657  0.3813 -0.0306
  747MOL0     O  713   2.867  10.588  11.404 -0.4149 -0.2395 -0.2529
  747MOL0     C  714   2.736  10.619  11.402  0.6245 -0.1096  0.5559
  747MOL0     C  715   2.628  10.527  11.414 -0.3088 -0.4554 -0.2738
  747MOL0     C  716   2.497  10.571  11.390 -1.4637 -0.7609  0.0790
  747MOL0     C  717   2.472  10.701  11.340  0.8487 -0.5787  0.1390
  747MOL0     O  718   2.335  10.718  11.308 -0.4397  0.1977 -0.4556
  747MOL0     C  719   2.302  10.834  11.220  0.2098  0.1004 -0.4720
  747MOL0     C  720   2.149  10.834  11.193 -0.5555 -0.6661 -0.2872
  747MOL0     C  721   2.055  10.813  11.313  0.5180  0.0052 -0.1088
  747MOL0     C  722   1.898  10.827  11.272  0.3165  0.2519 -0.6202
  747MOL0     C  723   1.800  10.823  11.386 -0.1353  0.6699  0.1791
  747MOL0     C  724   1.655  10.802  11.335 -0.3267 -0.2698  0.4024
  747MOL0     C  725   1.551  10.782  11.444  0.9256  0.5774  0.3739
  747MOL0     C  726   1.594  10.685  11.557 -0.9085 -0.2754 -0.1630
  747MOL0     N  727   1.480  10.632  11.634 -0.2169 -0.2345  0.5783
  747MOL0     C  728   1.400  10.535  11.583  0.1583 -0.1370  0.3565
  747MOL0     C  729   1.305  10.522  11.682  0.3182 -0.5271  0.1709
  747MOL0     C  730   1.196  10.422  11.683  0.2875  1.1891 -0.2891
  747MOL0     C  731   1.059  10.481  11.684 -0.3174 -0.2349  0.0652
  747MOL0     C  732   0.950  10.364  11.671  0.7332 -1.1079  0.2841
  747MOL0     C  733   0.810  10.425  11.688  0.4050 -0.1400 -0.1035
  747MOL0     O  734   0.714  10.318  11.707  0.0579  0.3014 -0.3076
  747MOL0     C  735   0.578  10.351  11.698  0.6896 -0.5662 -0.6896
  747MOL0     C  736   0.485  10.254  11.680  0.3082  0.6562 -0.5824
  747MOL0     C  737   0.354  10.281  11.659 -0.2015  0.0050 -0.3792
  747MOL0     C  738   0.269  10.163  11.636  0.4046  0.6765 -0.1689
  747MOL0     C  739   0.301  10.413  11.665 -0.8004 -0.3678 -0.4318
  747MOL0     C  740   0.157  10.452  11.649 -0.3888 -0.6532  0.5633
  747MOL0     O  741   0.072  10.353  11.622  0.1017  0.9365  0.1133
  747MOL0     C  742  -0.061  10.381  11.644  0.0046  1.0459  0.2841
  747MOL0     C  743  -0.100  10.368  11.782 -0.4244 -0.1388  0.5447
  747MOL0     C  744  -0.232  10.366  11.814 -0.0376 -0.6147 -0.5265
  747MOL0     C  745  -0.340  10.383  11.721 -0.4820  0.1821  0.5877
  747MOL0     O  746  -0.466  10.367  11.772 -0.3916  0.0189  0.7785
  747MOL0     C  747  -0.572  10.346  11.675 -0.2257 -0.3057 -0.6193
  747MOL0     C  748  -0.694  10.388  11.757 -0.1949 -0.0865  1.4747
  747MOL0     C  749  -0.814  10.418  11.668 -0.1431  0.5045 -0.6294
  747MOL0     C  750  -0.847  10.573  11.652 -0.3232 -0.1230 -0.4416
  747MOL0     C  751  -0.966  10.581  11.558 -0.0480 -0.1706  0.3885
  747MOL0     C  752  -1.015  10.726  11.542 -0.7261  0.9168  0.1110
  747MOL0     C  753  -1.158  10.736  11.489  0.0604 -0.3541  0.3777
  747MOL0     C  754  -1.180  10.692  11.343 -0.0675  0.2528 -0.4053
  747MOL0    Cl  755  -1.082  10.789  11.238  0.1252  0.1025  0.2467
  747MOL0     C  756  -0.299  10.384  11.587 -0.8708 -0.5381 -0.6931
  747MOL0     C  757  -0.161  10.386  11.549 -0.4062  0.1514  0.7331
  747MOL0     O  758   0.122  10.569  11.664  0.4643 -0.1785  0.1482
  747MOL0     C  759   0.399  10.515  11.682 -0.1379  0.2973  0.1090
  747MOL0     C  760   0.539  10.485  11.700  0.7180 -0.2403  0.1934
  747MOL0     N  761   1.332  10.612  11.788  0.5515 -0.3790  0.2571
  747MOL0     N  762   1.432  10.683  11.757 -0.0130  0.1600 -1.4315
  747MOL0     C  763   2.579  10.794  11.321  0.2934  0.6855  0.2163
  747MOL0     C  764   2.712  10.755  11.363  0.9076  0.4237  1.0436
  747MOL0     C  765   3.068  10.472  11.347  0.5643  1.1103  0.7150
  747MOL0     C  766   3.149  10.551  11.421 -0.2138 -0.9812 -0.0732
  747MOL0     C  767   3.290  10.564  11.395  0.9953 -0.5279  0.7902
  747MOL0     C  768   3.346  10.480  11.301  0.5445 -0.0332 -0.6121
  747MOL0     O  769   3.482  10.476  11.268 -0.0512 -1.1379 -0.1646
  747MOL0     C  770   3.559  10.587  11.310  0.0429 -0.7876  0.1048
  747MOL0     C  771   3.706  10.589  11.259 -0.1379  0.7998  0.3026
  747MOL0     C  772   3.792  10.715  11.280  0.4351  0.0107  0.2088
  747MOL0     C  773   3.899  10.736  11.169 -0.1803  0.6133  0.0288
  747MOL0     C  774   3.980  10.856  11.193 -0.0461 -0.2670  0.0209
  747MOL0     C  775   4.051  10.952  11.216 -0.0517  1.1056  0.5474
  747MOL0     C  776   3.265  10.381  11.243  0.3257  0.2936 -0.1041
  747MOL0     C  777   3.125  10.379  11.262  0.4851  1.0464 -0.4398
  747MOL0     H  778   2.646  10.424  11.442 -0.3512  0.1567  2.2892
  747MOL0     H  779   2.423  10.494  11.412 -0.4158 -1.5013  1.1926
  747MOL0     H  780   2.318  10.925  11.279 -0.2362  0.1571 -0.4361
  747MOL0     H  781   2.375  10.827  11.139 -0.7439 -1.4057 -1.2318
  747MOL0     H  782   2.115  10.925  11.144 -1.5466  0.0469  1.6016
  747MOL0     H  783   2.125  10.749  11.129  0.0524 -0.9078 -0.2079
  747MOL0     H  784   2.082  10.717  11.359  0.5223  0.7246  1.4692
  747MOL0     H  785   2.076  10.894  11.383 -1.1568  2.8601 -2.6903
  747MOL0     H  786   1.888  10.920  11.216 -1.2355  0.0636 -0.6856
  747MOL0     H  787   1.867  10.750  11.200 -2.1611 -0.8638  1.4884
  747MOL0     H  788   1.829  10.750  11.462  2.0044  3.1828  1.9716
  747MOL0     H  789   1.804  10.922  11.433 -0.6306  1.8413 -2.0701
  747MOL0     H  790   1.615  10.879  11.268 -1.2564 -0.5438  0.6249
  747MOL0     H  791   1.659  10.703  11.289  1.5778 -1.0862  2.1930
  747MOL0     H  792   1.542  10.879  11.494 -3.2113  1.0698 -0.9793
  747MOL0     H  793   1.452  10.759  11.403  1.6115  1.7575 -2.1742
  747MOL0     H  794   1.656  10.744  11.625 -0.0877 -0.0494 -1.0665
  747MOL0     H  795   1.656  10.605  11.513  0.6701  0.8120 -0.0071
  747MOL0     H  796   1.407  10.484  11.487 -2.2736  2.5748 -1.4268
  747MOL0     H  797   1.208  10.362  11.592  0.2346  1.9157 -0.7901
  747MOL0     H  798   1.205  10.365  11.776  0.8403 -1.0043 -1.6205
  747MOL0     H  799   1.062  10.548  11.598  1.1442  1.0724  1.0889
  747MOL0     H  800   1.049  10.539  11.776 -1.6504  0.1202 -0.2829
  747MOL0     H  801   0.969  10.287  11.746  0.2738  0.9706  2.6422
  747MOL0     H  802   0.963  10.327  11.569 -1.5774  0.4782 -0.6782
  747MOL0     H  803   0.782  10.489  11.603  1.5047 -0.1694 -0.5003
  747MOL0     H  804   0.812  10.487  11.778 -1.8060 -0.0898 -0.0322
  747MOL0     H  805   0.518  10.151  11.691 -3.4247 -0.5892  0.2117
  747MOL0     H  806   0.175  10.157  11.691  0.4025  1.1390 -0.1201
  747MOL0     H  807   0.241  10.156  11.530 -1.0157  1.3672  0.1372
  747MOL0     H  808   0.329  10.081  11.675  0.9397  0.9137 -0.4855
  747MOL0     H  809  -0.021  10.352  11.855  2.2071 -1.5535 -2.3529
  747MOL0     H  810  -0.247  10.352  11.921  6.0890 -3.1923  0.3686
  747MOL0     H  811  -0.564  10.407  11.585  0.1389 -2.3484 -2.0517
  747MOL0     H  812  -0.576  10.241  11.642  2.3512 -0.6736 -0.0245
  747MOL0     H  813  -0.712  10.313  11.834  0.5172 -0.5889  1.1586
  747MOL0     H  814  -0.685  10.481  11.814 -0.7234 -0.0556  1.5146
  747MOL0     H  815  -0.902  10.382  11.723  0.1353 -1.3925 -1.3556
  747MOL0     H  816  -0.802  10.369  11.571  1.0350  2.7346 -1.6714
  747MOL0     H  817  -0.876  10.626  11.743 -0.5284 -0.4286 -0.3267
  747MOL0     H  818  -0.767  10.633  11.606 -0.0708  0.6195  0.9128
  747MOL0     H  819  -1.044  10.526  11.611 -0.9876 -0.4509 -1.2081
  747MOL0     H  820  -0.953  10.525  11.464 -0.3239  0.6442 -0.1477
  747MOL0     H  821  -1.022  10.763  11.645  0.5929 -2.4030  1.5183
  747MOL0     H  822  -0.953  10.796  11.487  0.2387  0.5734  0.7403
  747MOL0     H  823  -1.197  10.838  11.494 -1.8180 -1.0806  3.2271
  747MOL0     H  824  -1.224  10.677  11.554 -0.7868 -1.5263 -1.4454
  747MOL0     H  825  -1.284  10.699  11.309 -0.5813  0.7441  1.1672
  747MOL0     H  826  -1.158  10.586  11.327 -1.2364 -0.1286  0.3504
  747MOL0     H  827  -0.355  10.370  11.495  1.0738  0.4416 -2.0952
  747MOL0     H  828  -0.128  10.388  11.445  0.9286  1.6901  1.1393
  747MOL0     H  829   0.365  10.617  11.692  3.2136  1.4571  0.8452
  747MOL0     H  830   0.594  10.576  11.720 -1.5733  1.4105 -0.6857
  747MOL0     H  831   2.559  10.898  11.297  0.1506  1.4883  3.3493
  747MOL0     H  832   2.790  10.831  11.356  1.0697  0.1765 -0.0370
  747MOL0     H  833   3.094  10.604  11.498 -2.3560 -1.9703 -0.8416
  747MOL0     H  834   3.347  10.640  11.448  1.4974 -1.8218  2.1961
  747MOL0     H  835   3.511  10.678  11.273 -2.3475 -1.3079  1.7290
  747MOL0     H  836   3.573  10.585  11.418  0.4787  0.4026  0.0805
  747MOL0     H  837   3.700  10.571  11.152 -0.3086  1.8038  0.1331
  747MOL0     H  838   3.760  10.505  11.303 -1.8712 -0.1165  0.7914
  747MOL0     H  839   3.857  10.705  11.367  0.9382  2.8924  0.2512
  747MOL0     H  840   3.723  10.799  11.281 -0.6231 -0.8026  2.9989
  747MOL0     H  841   3.870  10.729  11.064 -0.6795  3.8570 -0.1448
  747MOL0     H  842   3.974  10.657  11.184  0.2968  1.6417  4.4461
  747MOL0     H  843   4.122  11.029  11.239  0.6386  0.1827  1.6152
  747MOL0     H  844   3.310  10.315  11.170  0.2227  1.5513 -1.3387
  747MOL0     H  845   3.064  10.309  11.206  0.6339 -0.1425  0.8622
  748MOL0     O  846   8.793   4.078   8.337  0.0396  0.3579  0.0429
  748MOL0     C  847   8.834   4.157   8.250  0.0758  0.2505  0.4322
  748MOL0     O  848   8.745   4.229   8.170  1.0745 -0.2100  0.3684
  748MOL0     C  849   8.608   4.201   8.184  0.3703  0.2578  0.3441
  748MOL0     C  850   8.539   4.163   8.064  0.0925 -0.1316 -0.1953
  748MOL0     C  851   8.403   4.133   8.069  0.1485 -0.3401 -0.0341
  748MOL0     C  852   8.328   4.143   8.186  0.0595 -0.0029  0.1541
  748MOL0     O  853   8.198   4.115   8.197 -0.1855  0.6304 -0.4206
  748MOL0     C  854   8.138   4.007   8.128  0.5393  0.2345  0.8431
  748MOL0     C  855   8.081   4.051   7.984 -0.1517 -0.0537 -0.0169
  748MOL0     C  856   7.945   4.119   7.974 -0.4562  0.4942  0.2375
  748MOL0     C  857   7.840   4.013   7.996 -0.5094  0.2848 -0.2642
  748MOL0     C  858   7.699   4.057   8.031  0.2804  0.9430 -0.5236
  748MOL0     C  859   7.612   3.950   8.105 -0.6378  0.3504  1.1251
  748MOL0     C  860   7.614   3.805   8.045 -0.3660 -0.4969 -0.2055
  748MOL0     C  861   7.546   3.780   7.910 -0.0802 -0.0934  0.7032
  748MOL0     N  862   7.610   3.842   7.795 -0.1045 -0.7486  1.1725
  748MOL0     C  863   7.557   3.945   7.726 -0.3492  0.3081  0.5883
  748MOL0     C  864   7.642   3.962   7.623 -0.7317  0.1214  0.4954
  748MOL0     C  865   7.615   4.058   7.512  0.1684  0.1207  0.0906
  748MOL0     C  866   7.639   4.203   7.557  0.1752 -0.9485 -0.0298
  748MOL0     C  867   7.585   4.293   7.453 -0.0688  0.0445  0.2497
  748MOL0     C  868   7.586   4.435   7.482 -0.3895 -0.7469 -0.3779
  748MOL0     O  869   7.484   4.465   7.577  0.0130 -0.9677 -0.4410
  748MOL0     C  870   7.362   4.518   7.535 -0.7398  0.4783 -0.3865
  748MOL0     C  871   7.268   4.526   7.637  0.2729 -0.4480  0.5849
  748MOL0     C  872   7.136   4.569   7.603 -0.5486  0.0261 -0.5167
  748MOL0     C  873   7.031   4.577   7.712 -0.5697 -0.0738  0.1747
  748MOL0     C  874   7.101   4.608   7.470 -0.0631 -0.2238  0.2168
  748MOL0     C  875   6.966   4.666   7.424  0.1950  0.0875  0.1878
  748MOL0     O  876   6.904   4.736   7.522 -0.8569 -0.5498  0.5112
  748MOL0     C  877   6.769   4.755   7.507  0.2590 -0.1897 -0.1587
  748MOL0     C  878   6.682   4.650   7.549 -0.4142  0.4659 -0.3543
  748MOL0     C  879   6.544   4.667   7.551  0.4834  0.2901 -0.6530
  748MOL0     C  880   6.498   4.785   7.505 -0.3575  0.5715 -0.7377
  748MOL0     O  881   6.359   4.792   7.507 -0.1975 -0.6317  0.3951
  748MOL0     C  882   6.309   4.903   7.579  0.2719 -1.8767 -0.4270
  748MOL0     C  883   6.178   4.857   7.643  0.2570  0.7433  0.2770
  748MOL0     C  884   6.132   4.959   7.752 -0.2714 -0.2641 -0.0749
  748MOL0     C  885   6.011   4.912   7.842 -1.3400  0.1919 -0.0394
  748MOL0     C  886   6.012   4.974   7.978 -0.5942  0.0754 -0.5162
  748MOL0     C  887   5.887   4.911   8.037  0.0340 -0.3368 -0.5295
  748MOL0     C  888   5.853   4.945   8.181  0.3931 -0.6629  0.9573
  748MOL0     C  889   5.707   4.951   8.219  0.0962 -1.0382 -0.1684
  748MOL0    Cl  890   5.615   4.814   8.163  0.0528 -0.2190  0.3414
  748MOL0     C  891   6.584   4.885   7.463  0.6160  0.1018 -0.5184
  748MOL0     C  892   6.721   4.870   7.458  0.2489 -0.4495  0.2247
  748MOL0     O  893   6.917   4.630   7.315  0.3137 -0.2231  0.1186
  748MOL0     C  894   7.195   4.586   7.370 -0.0347  0.4136  0.3089
  748MOL0     C  895   7.323   4.550   7.401 -0.0775 -0.1850 -0.8224
  748MOL0     N  896   7.745   3.865   7.632 -0.3835 -0.4411  0.1788
  748MOL0     N  897   7.725   3.796   7.738  0.1896 -0.2626  0.2007
  748MOL0     C  898   8.401   4.173   8.305  0.0448 -0.4487 -0.6498
  748MOL0     C  899   8.535   4.205   8.300 -0.7977  0.6039  0.7194
  748MOL0     C  900   8.976   4.138   8.202  0.1831  0.2170 -0.0980
  748MOL0     C  901   9.030   4.201   8.086  0.8785 -0.4784 -0.4186
  748MOL0     C  902   9.166   4.184   8.059  0.7259  0.9817 -0.3435
  748MOL0     C  903   9.250   4.106   8.138  0.7225  0.5518  0.0696
  748MOL0     O  904   9.376   4.071   8.109  0.1292  0.3911  0.0859
  748MOL0     C  905   9.446   4.136   8.000 -0.2157  0.5424  0.5356
  748MOL0     C  906   9.596   4.157   8.037  0.1111 -0.1892 -0.0575
  748MOL0     C  907   9.680   4.029   8.035 -0.1370  0.3429 -0.0711
  748MOL0     C  908   9.834   4.058   8.048  0.3447  1.0066  0.4479
  748MOL0     C  909   9.903   3.927   8.038 -0.2145 -0.1321 -0.2267
  748MOL0     C  910   9.973   3.831   8.046  0.4680  0.5870 -0.5104
  748MOL0     C  911   9.194   4.045   8.256 -0.1235 -0.3305  0.1398
  748MOL0     C  912   9.057   4.054   8.285 -0.4747 -1.1563  0.4419
  748MOL0     H  913   8.578   4.171   7.963 -1.3862 -0.8667 -0.8537
  748MOL0     H  914   8.354   4.111   7.975  1.3197  0.2712 -0.8079
  748MOL0     H  915   8.221   3.939   8.106 -0.6115 -0.4898 -1.6624
  748MOL0     H  916   8.063   3.957   8.189 -3.0955  1.5114 -2.1706
  748MOL0     H  917   8.146   4.128   7.942 -1.8383  1.3415 -0.2014
  748MOL0     H  918   8.085   3.961   7.922 -1.2068 -0.2474  0.1843
  748MOL0     H  919   7.942   4.189   8.058 -1.6199  0.0272  0.6029
  748MOL0     H  920   7.926   4.173   7.880 -0.4294  0.6519  0.3224
  748MOL0     H  921   7.841   3.931   7.923  0.3077 -0.9848  1.1053
  748MOL0     H  922   7.871   3.959   8.086  0.9143  1.2239 -0.1665
  748MOL0     H  923   7.699   4.144   8.098 -0.9908  1.8153 -1.6000
  748MOL0     H  924   7.639   4.089   7.945 -1.2933 -0.8889 -0.1624
  748MOL0     H  925   7.642   3.944   8.210  0.1661 -0.4092  0.8635
  748MOL0     H  926   7.505   3.975   8.101 -0.3952  1.3137  0.2866
  748MOL0     H  927   7.718   3.778   8.028 -0.2818 -0.0275 -0.4441
  748MOL0     H  928   7.562   3.745   8.120 -1.2296 -0.7485 -0.9826
  748MOL0     H  929   7.439   3.806   7.911  0.0097  0.2791  1.0675
  748MOL0     H  930   7.547   3.673   7.886 -0.3323  0.1278 -0.3534
  748MOL0     H  931   7.466   3.999   7.751  0.2947  1.0479  1.4135
  748MOL0     H  932   7.678   4.033   7.426 -0.4637 -0.6116 -0.1743
  748MOL0     H  933   7.510   4.042   7.489 -0.0162  0.4576  0.6720
  748MOL0     H  934   7.742   4.230   7.579  0.1982  1.6053 -2.6157
  748MOL0     H  935   7.589   4.228   7.652 -1.0100  0.4270 -0.9644
  748MOL0     H  936   7.483   4.266   7.423  0.3472 -0.4464 -0.7695
  748MOL0     H  937   7.643   4.286   7.361  2.4993 -1.7213  1.8785
  748MOL0     H  938   7.583   4.495   7.391  1.0769  2.7818  1.6690
  748MOL0     H  939   7.685   4.456   7.523 -0.2791  0.7080 -1.2915
  748MOL0     H  940   7.285   4.503   7.742 -2.3057  0.9884  1.4302
  748MOL0     H  941   7.069   4.534   7.806  0.8528  0.3468 -0.1784
  748MOL0     H  942   6.998   4.677   7.742 -2.6075 -0.4003 -0.8096
  748MOL0     H  943   6.943   4.520   7.682 -0.8231  0.3207  0.1632
  748MOL0     H  944   6.736   4.563   7.585  0.4950  0.2327 -2.1391
  748MOL0     H  945   6.478   4.582   7.569 -1.0459 -0.0168 -6.1083
  748MOL0     H  946   6.377   4.931   7.660  1.6082  2.4938 -2.6853
  748MOL0     H  947   6.290   4.984   7.507 -0.7787 -1.8655 -0.1533
  748MOL0     H  948   6.111   4.863   7.557  2.1344  5.1843 -1.1873
  748MOL0     H  949   6.189   4.757   7.687  0.1772  0.3598 -0.5666
  748MOL0     H  950   6.094   5.046   7.698  1.4283 -1.2474 -3.0678
  748MOL0     H  951   6.222   4.981   7.811 -1.2819 -1.3418  1.9692
  748MOL0     H  952   5.912   4.931   7.800 -1.4601 -0.6408 -0.1382
  748MOL0     H  953   6.011   4.805   7.863 -4.2938  0.3162  1.1470
  748MOL0     H  954   6.013   5.083   7.967  0.6682  0.1117 -0.1008
  748MOL0     H  955   6.104   4.950   8.032 -0.0097 -2.7316 -2.5689
  748MOL0     H  956   5.800   4.941   7.979 -1.9501 -0.0124  2.3752
  748MOL0     H  957   5.905   4.804   8.047  1.2242 -0.0484  0.7024
  748MOL0     H  958   5.901   5.036   8.217  0.8913 -1.2796  1.8859
  748MOL0     H  959   5.908   4.869   8.238  2.6418 -0.2633 -0.5227
  748MOL0     H  960   5.660   5.038   8.171 -0.9186 -0.7878  1.2131
  748MOL0     H  961   5.708   4.966   8.328 -0.2066  3.4128 -0.5814
  748MOL0     H  962   6.543   4.976   7.422  2.1051  2.9167  3.6000
  748MOL0     H  963   6.786   4.947   7.417  0.6028 -0.6021  0.4920
  748MOL0     H  964   7.167   4.616   7.270  1.4447  3.4334  0.6650
  748MOL0     H  965   7.388   4.545   7.314  1.7371 -1.0617  0.5273
  748MOL0     H  966   8.354   4.161   8.403  4.7893 -1.5044  1.7983
  748MOL0     H  967   8.585   4.241   8.389 -1.0787  2.5341  0.1433
  748MOL0     H  968   8.961   4.267   8.034  0.6590 -0.2391  0.1617
  748MOL0     H  969   9.201   4.228   7.966  1.2740  1.3895  0.0563
  748MOL0     H  970   9.427   4.083   7.906  2.6647 -1.5570  0.9947
  748MOL0     H  971   9.422   4.242   7.990 -2.9668 -0.0998 -0.7963
  748MOL0     H  972   9.588   4.202   8.136 -0.9205  0.2438 -0.3266
  748MOL0     H  973   9.637   4.233   7.970  1.9630 -1.0644  0.0026
  748MOL0     H  974   9.661   3.967   7.946 -1.7783 -3.6753  2.7562
  748MOL0     H  975   9.640   3.962   8.112  2.7125 -0.2604  1.0128
  748MOL0     H  976   9.865   4.096   8.145  0.2810 -1.1095  1.3462
  748MOL0     H  977   9.864   4.121   7.963 -1.3694  2.5544  0.9196
  748MOL0     H  978  10.038   3.747   8.059 -1.8427 -1.5083 -1.6213
  748MOL0     H  979   9.258   3.992   8.326 -1.2953  1.1252  2.4327
  748MOL0     H  980   9.020   3.989   8.364 -2.2376 -3.2691 -1.9392
  749MOL0     O  981   2.701   8.042   0.265  0.7014 -0.0747  0.3898
  749MOL0     C  982   2.760   8.138   0.311 -0.3771 -0.3792 -0.3049
  749MOL0     O  983   2.774   8.171   0.444 -0.1086 -0.6233 -0.9617
  749MOL0     C  984   2.678   8.117   0.526  0.0606 -0.1517  0.2611
  749MOL0     C  985   2.673   7.989   0.590 -0.4225 -0.4209  0.4180
  749MOL0     C  986   2.577   7.957   0.686  0.3499  1.4961 -0.5758
  749MOL0     C  987   2.470   8.043   0.713  0.3878  0.0727  0.3087
  749MOL0     O  988   2.370   8.007   0.804 -0.2284  0.1462  0.4289
  749MOL0     C  989   2.238   8.045   0.780 -0.5835  0.5279  0.3944
  749MOL0     C  990   2.148   7.939   0.845  0.5646  0.4812  0.4212
  749MOL0     C  991   2.148   7.960   0.997 -0.0549  0.4276 -0.1796
  749MOL0     C  992   2.042   7.870   1.067  0.2016  0.0618  0.3827
  749MOL0     C  993   2.007   7.947   1.201 -0.0036  1.0230  0.3273
  749MOL0     C  994   1.946   7.861   1.306 -0.3606 -0.4159 -0.4880
  749MOL0     C  995   1.809   7.818   1.256 -0.1033  0.4510 -0.1641
  749MOL0     C  996   1.751   7.733   1.374 -0.5353 -0.6994 -0.3600
  749MOL0     N  997   1.614   7.701   1.336  1.3418  0.4098  0.3732
  749MOL0     C  998   1.513   7.700   1.424  0.9142  0.3050  0.3469
  749MOL0     C  999   1.405   7.666   1.348  1.0870  0.6856 -0.0645
  749MOL0     C 1000   1.272   7.636   1.415  0.6347 -0.6930  0.2101
  749MOL0     C 1001   1.205   7.505   1.375  0.1945  0.0427  0.6602
  749MOL0     C 1002   1.080   7.487   1.471 -1.2142  0.1174  0.4555
  749MOL0     C 1003   0.969   7.395   1.416 -0.2478 -0.5165  1.3577
  749MOL0     O 1004   0.894   7.448   1.304 -0.3195 -0.2626 -0.3727
  749MOL0     C 1005   0.766   7.487   1.327  0.9349 -0.4421  0.7388
  749MOL0     C 1006   0.740   7.622   1.299  0.1518  1.0709 -0.4111
  749MOL0     C 1007   0.611   7.669   1.326 -0.6252 -0.8811  0.5835
  749MOL0     C 1008   0.595   7.815   1.285 -0.1895 -0.2547  0.2745
  749MOL0     C 1009   0.499   7.587   1.364 -0.1054 -0.3144  0.4847
  749MOL0     C 1010   0.355   7.629   1.383  0.0327 -0.5778  0.2882
  749MOL0     O 1011   0.267   7.534   1.422 -0.4555  0.1919 -0.3353
  749MOL0     C 1012   0.138   7.575   1.448  0.3027 -0.3609 -0.1343
  749MOL0     C 1013   0.040   7.593   1.348 -0.0747 -0.1748  0.0302
  749MOL0     C 1014  -0.088   7.635   1.383  0.4811  0.0100 -0.0790
  749MOL0     C 1015  -0.117   7.681   1.510 -0.4186  0.3198  0.1772
  749MOL0     O 1016  -0.242   7.725   1.539 -0.0139 -0.2220  0.1093
  749MOL0     C 1017  -0.284   7.789   1.663  0.0825  0.7989 -0.4461
  749MOL0     C 1018  -0.436   7.793   1.658  0.4357  0.2808 -0.0730
  749MOL0     C 1019  -0.511   7.864   1.777 -0.2536  0.2262  0.0145
  749MOL0     C 1020  -0.643   7.932   1.729 -0.0290 -0.1743 -0.5471
  749MOL0     C 1021  -0.713   8.028   1.835  0.3006 -0.6416 -0.1679
  749MOL0     C 1022  -0.811   8.118   1.765 -0.0530  0.7692  0.4126
  749MOL0     C 1023  -0.750   8.226   1.676 -0.8181  0.0920  0.4267
  749MOL0     C 1024  -0.797   8.217   1.529  0.0359  0.7968 -0.7814
  749MOL0    Cl 1025  -0.877   8.367   1.486 -0.3699 -0.5442  0.0646
  749MOL0     C 1026  -0.018   7.666   1.611  0.4122 -0.1631 -0.0803
  749MOL0     C 1027   0.110   7.612   1.577  0.8382  0.7099 -0.4440
  749MOL0     O 1028   0.323   7.742   1.349  0.0562  0.6456  0.0153
  749MOL0     C 1029   0.537   7.461   1.405 -0.1902 -0.2033 -1.2261
  749MOL0     C 1030   0.667   7.412   1.381  0.2082 -0.1384 -1.4372
  749MOL0     N 1031   1.443   7.624   1.230 -0.4482  0.4102  0.2789
  749MOL0     N 1032   1.573   7.636   1.218 -0.8303 -0.3743  0.2720
  749MOL0     C 1033   2.469   8.166   0.646 -0.1505  0.1454 -0.4533
  749MOL0     C 1034   2.575   8.205   0.561 -0.2834 -0.2632 -0.1887
  749MOL0     C 1035   2.801   8.248   0.215 -0.0768 -0.4508  0.0159
  749MOL0     C 1036   2.846   8.366   0.265 -0.3733  0.1792  0.9040
  749MOL0     C 1037   2.896   8.460   0.176  0.5920 -0.3789  0.3540
  749MOL0     C 1038   2.904   8.438   0.041  0.5014 -0.1390 -0.4925
  749MOL0     O 1039   2.958   8.527  -0.045 -0.0318 -0.2672  0.1481
  749MOL0     C 1040   2.953   8.664  -0.005  0.2774 -0.7569 -0.1074
  749MOL0     C 1041   2.995   8.747  -0.126  1.3899  0.5790  0.0083
  749MOL0     C 1042   2.991   8.902  -0.101 -0.9568  0.5703 -0.2747
  749MOL0     C 1043   2.982   8.975  -0.237 -0.2830  0.6028 -0.1182
  749MOL0     C 1044   2.848   8.955  -0.295  0.4909  0.0861  0.4142
  749MOL0     C 1045   2.748   8.953  -0.357  0.0038 -0.3217  0.2578
  749MOL0     C 1046   2.874   8.307  -0.006  0.0432 -0.2027 -0.5089
  749MOL0     C 1047   2.820   8.212   0.083 -0.8317  0.5615 -0.1408
  749MOL0     H 1048   2.761   7.926   0.587  0.5985  0.9338  0.7169
  749MOL0     H 1049   2.586   7.863   0.739 -1.3082  1.8153  0.3368
  749MOL0     H 1050   2.222   8.148   0.812 -2.1592  0.9748 -1.6548
  749MOL0     H 1051   2.214   8.034   0.673  1.8264  2.0545 -0.3947
  749MOL0     H 1052   2.048   7.955   0.803  0.3082  1.4871  1.3787
  749MOL0     H 1053   2.177   7.836   0.825 -0.7560  0.1898 -0.0825
  749MOL0     H 1054   2.251   7.941   1.029 -0.1912  2.0529  1.4021
  749MOL0     H 1055   2.132   8.068   1.009  0.3069  0.7602 -2.2965
  749MOL0     H 1056   1.956   7.846   1.005  0.9372 -0.4474 -0.4530
  749MOL0     H 1057   2.092   7.776   1.092 -0.2634 -0.8431 -1.8905
  749MOL0     H 1058   2.103   7.973   1.248 -0.0224  1.2746  0.2287
  749MOL0     H 1059   1.952   8.040   1.184  1.5695  1.5202 -2.7957
  749MOL0     H 1060   2.017   7.779   1.318  3.8266  2.9440  0.2174
  749MOL0     H 1061   1.927   7.909   1.402 -0.5304  0.1973 -0.8216
  749MOL0     H 1062   1.741   7.902   1.242 -0.8402 -0.5836 -3.9064
  749MOL0     H 1063   1.826   7.752   1.171  2.7129 -0.8652  1.2697
  749MOL0     H 1064   1.759   7.793   1.465 -1.0446 -0.0216 -0.7527
  749MOL0     H 1065   1.811   7.642   1.382 -1.5957 -1.3391  0.5025
  749MOL0     H 1066   1.510   7.723   1.530  0.1981  1.9546  0.0096
  749MOL0     H 1067   1.281   7.634   1.524 -1.7984 -2.0694  0.4678
  749MOL0     H 1068   1.206   7.716   1.380 -1.1461 -1.7153  1.0724
  749MOL0     H 1069   1.276   7.424   1.392 -0.1034 -0.0706  1.4128
  749MOL0     H 1070   1.168   7.494   1.273  2.6611 -0.3398 -0.2512
  749MOL0     H 1071   1.044   7.591   1.478  2.2964  1.3975  1.4783
  749MOL0     H 1072   1.103   7.457   1.573  0.9199 -0.6885 -0.1992
  749MOL0     H 1073   0.900   7.371   1.498 -0.7348 -2.3772  0.4596
  749MOL0     H 1074   1.005   7.299   1.377 -4.0945 -1.2358 -0.9364
  749MOL0     H 1075   0.819   7.689   1.269  0.4762  0.7123 -0.3571
  749MOL0     H 1076   0.514   7.865   1.339 -2.4599 -1.2998 -1.9687
  749MOL0     H 1077   0.692   7.866   1.295 -0.2830  0.2058 -0.9909
  749MOL0     H 1078   0.561   7.826   1.181 -0.3698  0.2933  0.3877
  749MOL0     H 1079   0.075   7.567   1.249  2.7606 -1.6208  1.2856
  749MOL0     H 1080  -0.166   7.639   1.308 -0.4372  0.0272  0.8619
  749MOL0     H 1081  -0.250   7.731   1.750  0.9797  0.2894 -1.1205
  749MOL0     H 1082  -0.248   7.892   1.672  0.4714  0.7568 -1.4404
  749MOL0     H 1083  -0.461   7.849   1.568  0.2871 -0.5021 -0.5242
  749MOL0     H 1084  -0.461   7.687   1.661  1.5681  0.0022  0.0721
  749MOL0     H 1085  -0.445   7.940   1.820 -0.2877  0.1260  0.2486
  749MOL0     H 1086  -0.524   7.779   1.845  1.6144  0.1612  0.3515
  749MOL0     H 1087  -0.611   7.994   1.645  0.3894 -1.3678 -1.2822
  749MOL0     H 1088  -0.713   7.858   1.692 -1.3456  1.3837 -1.3032
  749MOL0     H 1089  -0.643   8.090   1.893  2.8593 -1.4966 -2.1213
  749MOL0     H 1090  -0.762   7.960   1.904  0.4452 -1.0675 -0.4799
  749MOL0     H 1091  -0.885   8.064   1.706  2.0061  0.1851 -1.8171
  749MOL0     H 1092  -0.880   8.167   1.834 -3.1852 -1.9943 -0.4960
  749MOL0     H 1093  -0.642   8.240   1.670 -0.8370 -0.0900 -0.4532
  749MOL0     H 1094  -0.785   8.323   1.713  0.3704  0.8925 -0.4668
  749MOL0     H 1095  -0.859   8.128   1.514  1.1563 -0.0979 -0.2559
  749MOL0     H 1096  -0.710   8.198   1.466 -0.1281  0.6293 -0.9616
  749MOL0     H 1097  -0.022   7.696   1.716  0.1722  4.0675 -1.1203
  749MOL0     H 1098   0.196   7.593   1.641  3.4183  0.5688 -3.6800
  749MOL0     H 1099   0.467   7.391   1.449 -1.9341  0.2993 -3.0503
  749MOL0     H 1100   0.682   7.307   1.406  0.9017  0.7609  2.5272
  749MOL0     H 1101   2.384   8.230   0.668 -1.2133 -1.7074  1.1004
  749MOL0     H 1102   2.589   8.303   0.516 -0.3042  0.2623  0.9182
  749MOL0     H 1103   2.858   8.389   0.370 -0.3053  0.0898  0.9158
  749MOL0     H 1104   2.923   8.558   0.213 -2.2873  1.9500 -3.0626
  749MOL0     H 1105   2.856   8.697   0.033  0.1495 -0.3723 -0.7473
  749MOL0     H 1106   3.024   8.695   0.072  0.9787  0.9961 -1.3865
  749MOL0     H 1107   2.929   8.719  -0.208  0.8701  3.3182 -0.5885
  749MOL0     H 1108   3.100   8.725  -0.144  1.0489 -3.1483  1.5641
  749MOL0     H 1109   3.077   8.936  -0.043 -1.1902  0.9953 -0.1706
  749MOL0     H 1110   2.905   8.932  -0.039 -1.4646 -0.4568 -0.4630
  749MOL0     H 1111   3.056   8.941  -0.310 -1.2544  1.5369 -1.5851
  749MOL0     H 1112   2.999   9.083  -0.227  0.6691  0.7654 -2.7265
  749MOL0     H 1113   2.651   8.953  -0.403  0.2047  2.4546 -0.3294
  749MOL0     H 1114   2.875   8.290  -0.113 -0.4340 -1.8749 -0.2771
  749MOL0     H 1115   2.797   8.111   0.051 -0.3965  0.1869  0.7146
  750MOL0     O 1116   7.643   0.771   7.678 -0.7783 -0.1052  0.0383
  750MOL0     C 1117   7.742   0.791   7.747 -0.6083  0.0591  0.6932
  750MOL0     O 1118   7.750   0.801   7.878  0.0956 -0.0800  0.4485
  750MOL0     C 1119   7.642   0.749   7.934  0.3071 -0.1817 -1.1673
  750MOL0     C 1120   7.645   0.613   7.969 -0.2185  0.5005 -0.4710
  750MOL0     C 1121   7.544   0.563   8.049  0.4541 -0.4537  0.2261
  750MOL0     C 1122   7.442   0.653   8.104 -0.0466 -0.4067 -0.8477
  750MOL0     O 1123   7.336   0.614   8.182 -0.2909  0.3611  0.0312
  750MOL0     C 1124   7.331   0.477   8.232 -0.5705  0.4532 -0.0157
  750MOL0     C 1125   7.214   0.470   8.333 -0.5213 -0.3282  1.5320
  750MOL0     C 1126   7.082   0.482   8.243 -0.2517  0.2346  0.2439
  750MOL0     C 1127   6.955   0.463   8.326 -0.3519 -0.2665  0.3242
  750MOL0     C 1128   6.932   0.323   8.376  0.5147  0.5913 -0.2544
  750MOL0     C 1129   6.824   0.312   8.485 -1.0622  0.1056 -0.3593
  750MOL0     C 1130   6.681   0.324   8.436 -0.5475 -0.2378  0.3078
  750MOL0     C 1131   6.632   0.216   8.346 -0.0631 -0.4618 -0.8810
  750MOL0     N 1132   6.663   0.238   8.209  0.7023  0.0688 -1.1988
  750MOL0     C 1133   6.622   0.337   8.129 -0.5036 -0.0971 -0.0157
  750MOL0     C 1134   6.674   0.301   8.008  0.1554  0.4565 -0.0894
  750MOL0     C 1135   6.671   0.386   7.886 -0.2704  0.3002 -1.1939
  750MOL0     C 1136   6.807   0.391   7.818 -0.3721  0.5170  0.9332
  750MOL0     C 1137   6.914   0.457   7.914  0.9286 -1.0778  0.2792
  750MOL0     C 1138   7.049   0.468   7.834 -0.3547 -0.8985  0.6818
  750MOL0     O 1139   7.137   0.370   7.881 -0.2608 -0.1665 -0.3057
  750MOL0     C 1140   7.271   0.388   7.832  0.6739 -0.8247  0.3177
  750MOL0     C 1141   7.363   0.302   7.885  0.1043 -0.0020  1.0142
  750MOL0     C 1142   7.497   0.302   7.844 -1.0852  1.3480 -0.3778
  750MOL0     C 1143   7.595   0.205   7.914 -0.2726 -0.0585 -0.0880
  750MOL0     C 1144   7.537   0.391   7.751 -0.4502  0.5740  1.0529
  750MOL0     C 1145   7.679   0.407   7.708  0.3395  0.4236 -0.6797
  750MOL0     O 1146   7.778   0.369   7.790  0.2983  0.3017  0.3883
  750MOL0     C 1147   7.899   0.368   7.736 -0.9634 -0.5494  0.1629
  750MOL0     C 1148   7.978   0.257   7.741 -0.0465  0.4256  0.3929
  750MOL0     C 1149   8.109   0.246   7.691  0.0195  0.2064 -0.0680
  750MOL0     C 1150   8.169   0.348   7.625 -0.2584  0.6364  0.1476
  750MOL0     O 1151   8.292   0.338   7.557  0.0726  0.1160 -0.3036
  750MOL0     C 1152   8.391   0.249   7.605  0.0375 -0.3563  0.5289
  750MOL0     C 1153   8.513   0.290   7.526 -0.3767  0.0704 -0.3012
  750MOL0     C 1154   8.630   0.205   7.557 -0.5855 -0.0807  0.2795
  750MOL0     C 1155   8.745   0.271   7.473 -0.3128  0.5756 -0.5377
  750MOL0     C 1156   8.873   0.192   7.490  0.3445  1.1122 -0.7115
  750MOL0     C 1157   8.885   0.052   7.421 -0.2071 -0.0884 -0.2261
  750MOL0     C 1158   9.034   0.011   7.409 -0.3065 -0.1937 -0.0937
  750MOL0     C 1159   9.061  -0.075   7.537 -0.0545 -0.7722  0.5363
  750MOL0    Cl 1160   9.226  -0.155   7.543 -0.8768 -0.3681  0.2319
  750MOL0     C 1161   8.095   0.467   7.617 -0.1713  0.7977  0.2540
  750MOL0     C 1162   7.967   0.473   7.671 -0.0305  0.3065  0.0257
  750MOL0     O 1163   7.700   0.440   7.597  0.0344 -0.4641 -0.0303
  750MOL0     C 1164   7.440   0.475   7.688 -0.5145 -0.7043 -0.2946
  750MOL0     C 1165   7.312   0.478   7.741 -0.3816  0.2318 -0.9419
  750MOL0     N 1166   6.732   0.178   8.017 -0.1867 -0.2712  0.0776
  750MOL0     N 1167   6.726   0.135   8.140  0.1040 -1.1417 -0.1355
  750MOL0     C 1168   7.444   0.790   8.068 -0.1488  0.5154  0.8133
  750MOL0     C 1169   7.541   0.839   7.982  0.6109 -0.4383  0.2899
  750MOL0     C 1170   7.871   0.816   7.685  0.0208  0.2091  1.0964
  750MOL0     C 1171   7.990   0.820   7.759  0.0244  0.1828  0.1084
  750MOL0     C 1172   8.113   0.840   7.699 -0.1688 -0.0216 -0.0826
  750MOL0     C 1173   8.123   0.854   7.555  0.2356  0.0706  0.2410
  750MOL0     O 1174   8.243   0.871   7.487  0.0810  0.1518  0.0360
  750MOL0     C 1175   8.362   0.817   7.550  0.1484 -0.0834  0.0209
  750MOL0     C 1176   8.473   0.824   7.451 -0.0316  0.6922 -1.1652
  750MOL0     C 1177   8.528   0.958   7.428  0.2023  0.0265  0.2636
  750MOL0     C 1178   8.617   0.972   7.304  0.7190 -0.6699 -0.5751
  750MOL0     C 1179   8.542   0.958   7.181 -0.0818 -0.4470  0.8296
  750MOL0     C 1180   8.500   0.955   7.072  0.5157 -0.3305  0.6009
  750MOL0     C 1181   8.005   0.855   7.484  0.7574 -0.9368 -0.4357
  750MOL0     C 1182   7.882   0.836   7.546 -0.3738  0.5471 -0.1487
  750MOL0     H 1183   7.729   0.550   7.938  0.3789  1.0633 -0.0331
  750MOL0     H 1184   7.537   0.458   8.075 -0.2327 -0.8055 -1.2591
  750MOL0     H 1185   7.313   0.403   8.154  1.8922  0.1632 -0.3790
  750MOL0     H 1186   7.417   0.444   8.291 -0.4986  1.7372  0.6443
  750MOL0     H 1187   7.217   0.371   8.378  0.8900 -1.6804 -1.2998
  750MOL0     H 1188   7.224   0.553   8.405  1.3337  0.8770 -0.0259
  750MOL0     H 1189   7.070   0.574   8.183  1.6479  0.1157 -0.3888
  750MOL0     H 1190   7.084   0.409   8.161 -1.7341 -0.0360  0.4183
  750MOL0     H 1191   6.962   0.523   8.417  5.2056 -0.6585  0.4747
  750MOL0     H 1192   6.871   0.491   8.261  0.3754 -0.8751 -0.9050
  750MOL0     H 1193   6.900   0.263   8.291 -1.7691  2.1833 -0.6295
  750MOL0     H 1194   7.030   0.280   8.400  0.0810  1.0017  2.6469
  750MOL0     H 1195   6.836   0.213   8.529 -0.0778  0.6297  0.6061
  750MOL0     H 1196   6.848   0.384   8.564  0.5032 -2.0948  1.2806
  750MOL0     H 1197   6.626   0.327   8.531  0.7331 -3.1825  1.2829
  750MOL0     H 1198   6.656   0.418   8.387  1.5926 -0.0150 -0.4591
  750MOL0     H 1199   6.522   0.219   8.347 -0.1520 -2.5506  0.5099
  750MOL0     H 1200   6.660   0.122   8.394 -1.2341  0.3597  1.6197
  750MOL0     H 1201   6.573   0.430   8.154 -2.3339 -0.3286 -2.3275
  750MOL0     H 1202   6.599   0.356   7.809  2.1088  0.4560 -3.6724
  750MOL0     H 1203   6.648   0.488   7.917  1.0864  0.0890  0.6629
  750MOL0     H 1204   6.791   0.456   7.732 -0.8497  1.2998  1.5934
  750MOL0     H 1205   6.840   0.296   7.774 -1.0584  0.1602  1.1816
  750MOL0     H 1206   6.920   0.393   8.003  1.7154  0.8413  1.6661
  750MOL0     H 1207   6.886   0.556   7.951 -0.4746 -1.9035  1.5582
  750MOL0     H 1208   7.094   0.565   7.855  0.5750 -1.2545  0.3587
  750MOL0     H 1209   7.041   0.461   7.725 -2.2470  0.7389  0.6469
  750MOL0     H 1210   7.333   0.229   7.960  0.1470 -0.2126  0.8299
  750MOL0     H 1211   7.628   0.254   8.007 -2.5004  0.9669  0.2419
  750MOL0     H 1212   7.541   0.116   7.948 -1.7282  0.8539  0.0789
  750MOL0     H 1213   7.677   0.170   7.851  1.1563  2.2388  0.3761
  750MOL0     H 1214   7.941   0.170   7.794 -0.3019 -0.2865 -0.9175
  750MOL0     H 1215   8.157   0.150   7.709 -0.8696 -0.0960  0.7128
  750MOL0     H 1216   8.412   0.249   7.712 -1.3081 -0.4040  0.8068
  750MOL0     H 1217   8.369   0.144   7.580 -0.8082 -0.2891  0.9556
  750MOL0     H 1218   8.492   0.274   7.420  0.5769 -3.7229 -0.0735
  750MOL0     H 1219   8.540   0.393   7.550  0.2169  0.1078 -1.0912
  750MOL0     H 1220   8.609   0.103   7.524 -0.6897 -0.1618  0.5913
  750MOL0     H 1221   8.657   0.215   7.663 -1.2030  4.0054  0.2143
  750MOL0     H 1222   8.720   0.301   7.371  1.5741  0.9903 -0.9218
  750MOL0     H 1223   8.773   0.367   7.516  3.6786  0.3484 -2.2226
  750MOL0     H 1224   8.899   0.177   7.596 -1.5666  0.8202 -0.2520
  750MOL0     H 1225   8.960   0.249   7.455  2.7692 -1.7190  0.2374
  750MOL0     H 1226   8.829  -0.025   7.476  1.7703  0.1960  2.3981
  750MOL0     H 1227   8.836   0.053   7.323  2.4444  0.5088 -1.6527
  750MOL0     H 1228   9.105   0.093   7.406  2.0420 -2.0933  0.2481
  750MOL0     H 1229   9.036  -0.057   7.323 -0.2767  0.5473 -0.6842
  750MOL0     H 1230   8.988  -0.156   7.544  1.0885 -1.7077  2.3716
  750MOL0     H 1231   9.052  -0.011   7.625  1.7465 -1.5847  1.3566
  750MOL0     H 1232   8.139   0.550   7.562  0.9564 -0.2713 -0.5282
  750MOL0     H 1233   7.919   0.569   7.656  0.1991  0.4933  0.4918
  750MOL0     H 1234   7.462   0.554   7.616  1.8354  0.8741  1.9866
  750MOL0     H 1235   7.263   0.559   7.688  0.4917  0.9658 -0.6655
  750MOL0     H 1236   7.361   0.848   8.108 -1.9655 -1.5583  0.2328
  750MOL0     H 1237   7.541   0.945   7.954  1.6082 -0.7669 -1.1065
  750MOL0     H 1238   7.994   0.808   7.867  1.1318  1.1354  0.1974
  750MOL0     H 1239   8.202   0.838   7.761 -0.3420 -1.8631  0.1648
  750MOL0     H 1240   8.387   0.867   7.644  2.1901 -2.0316  0.5724
  750MOL0     H 1241   8.346   0.715   7.586 -1.3203 -0.4340 -1.4792
  750MOL0     H 1242   8.452   0.771   7.358  2.1334 -2.6678  0.0969
  750MOL0     H 1243   8.563   0.775   7.489  1.7943  3.0579 -2.1759
  750MOL0     H 1244   8.585   0.995   7.514  2.2444  3.1542 -2.2318
  750MOL0     H 1245   8.441   1.023   7.410 -0.5490 -0.0968  2.9339
  750MOL0     H 1246   8.699   0.901   7.311  1.5179  0.3771  1.0862
  750MOL0     H 1247   8.664   1.071   7.298 -1.6547  0.5907  0.2192
  750MOL0     H 1248   8.457   0.947   6.974  1.0781 -1.8572  0.4599
  750MOL0     H 1249   8.002   0.866   7.376  1.2641  1.8419 -0.2369
  750MOL0     H 1250   7.792   0.821   7.488 -1.0448 -1.8227  1.3731
  751MOL0     O 1251   8.466   3.708   6.716  0.1487 -1.2446 -0.6133
  751MOL0     C 1252   8.480   3.608   6.788 -0.1990  0.3533 -0.0203
  751MOL0     O 1253   8.378   3.528   6.830 -0.2813 -0.3681  0.5628
  751MOL0     C 1254   8.249   3.583   6.826 -1.0049 -0.7107  0.2990
  751MOL0     C 1255   8.176   3.563   6.715 -0.7987 -0.5464  0.1444
  751MOL0     C 1256   8.040   3.601   6.706 -0.3715  0.4155  0.2594
  751MOL0     C 1257   7.981   3.669   6.816  1.2902  0.2305  0.8700
  751MOL0     O 1258   7.855   3.726   6.820 -0.2945 -1.0686  0.1838
  751MOL0     C 1259   7.779   3.749   6.701  0.3531  0.1282 -0.1651
  751MOL0     C 1260   7.705   3.624   6.660 -0.0601 -0.8775  1.0280
  751MOL0     C 1261   7.600   3.595   6.761  0.1858 -0.4107 -0.3461
  751MOL0     C 1262   7.467   3.574   6.703 -0.2358  0.7858  0.4297
  751MOL0     C 1263   7.361   3.542   6.810 -0.6748  0.3188 -0.3785
  751MOL0     C 1264   7.212   3.540   6.750  0.2151 -0.0253  0.2081
  751MOL0     C 1265   7.111   3.530   6.863 -0.1316  0.2385  0.6076
  751MOL0     C 1266   6.970   3.543   6.798  0.3904 -0.7823 -0.1126
  751MOL0     N 1267   6.863   3.511   6.892 -0.4387  0.3087  0.1647
  751MOL0     C 1268   6.824   3.590   7.003  0.3167 -0.0621 -0.1339
  751MOL0     C 1269   6.724   3.521   7.063  0.0833  0.5558  0.6308
  751MOL0     C 1270   6.679   3.554   7.196 -0.1388  0.8144 -0.8397
  751MOL0     C 1271   6.578   3.658   7.209 -0.1926  0.2762 -0.2741
  751MOL0     C 1272   6.442   3.596   7.174  0.7827 -1.0919 -0.0440
  751MOL0     C 1273   6.325   3.699   7.179  0.9377  1.0295  0.0937
  751MOL0     O 1274   6.296   3.713   7.320 -0.0445  0.4348  0.0143
  751MOL0     C 1275   6.181   3.778   7.348  0.0741  1.0416 -0.4282
  751MOL0     C 1276   6.140   3.804   7.484 -0.0035  0.9768  0.4257
  751MOL0     C 1277   6.017   3.860   7.520 -0.0286  0.2836  0.4556
  751MOL0     C 1278   5.991   3.871   7.667 -0.1593  0.6612 -0.1976
  751MOL0     C 1279   5.937   3.916   7.422  0.3422  0.0556  0.3885
  751MOL0     C 1280   5.819   3.998   7.454 -0.4179  0.6351 -0.3440
  751MOL0     O 1281   5.725   3.984   7.364  0.8574 -0.2016  0.5158
  751MOL0     C 1282   5.591   4.026   7.382 -0.0751 -0.4155  0.3514
  751MOL0     C 1283   5.536   4.072   7.499  0.8340 -0.3479  0.2626
  751MOL0     C 1284   5.411   4.135   7.508  0.4413  0.3149  0.2241
  751MOL0     C 1285   5.329   4.136   7.393 -1.4229  0.2900  1.5008
  751MOL0     O 1286   5.209   4.198   7.372  0.3283 -0.0127  0.7288
  751MOL0     C 1287   5.160   4.275   7.482 -0.7688  0.3011 -0.1059
  751MOL0     C 1288   5.023   4.329   7.444 -0.2367 -0.7799  0.4887
  751MOL0     C 1289   4.925   4.217   7.409 -0.3541 -0.2499  0.0541
  751MOL0     C 1290   4.779   4.266   7.419  0.1917 -0.3345  0.2978
  751MOL0     C 1291   4.676   4.169   7.361  0.0656 -0.5704 -0.2032
  751MOL0     C 1292   4.554   4.165   7.447 -0.6557 -0.2649 -0.3480
  751MOL0     C 1293   4.481   4.301   7.469  0.2420 -0.4615  0.2581
  751MOL0     C 1294   4.340   4.279   7.540 -0.7827 -0.0743  0.5147
  751MOL0    Cl 1295   4.256   4.434   7.532 -0.3138 -0.4469 -0.1410
  751MOL0     C 1296   5.380   4.073   7.281 -0.5689 -0.1796  0.3454
  751MOL0     C 1297   5.511   4.025   7.271  0.4713 -0.7333  0.4116
  751MOL0     O 1298   5.830   4.092   7.537  0.4091 -0.0055 -0.1015
  751MOL0     C 1299   5.973   3.900   7.287 -0.0949  0.8328  0.4696
  751MOL0     C 1300   6.098   3.832   7.255 -0.2417 -0.6622  0.4422
  751MOL0     N 1301   6.700   3.404   6.994 -0.5848  0.6677 -0.3833
  751MOL0     N 1302   6.780   3.404   6.888  0.3267  0.3771  0.9772
  751MOL0     C 1303   8.055   3.671   6.934  0.2528  0.1379 -0.2805
  751MOL0     C 1304   8.192   3.640   6.936 -0.2415 -0.3854 -0.7976
  751MOL0     C 1305   8.612   3.560   6.817 -0.8795 -0.3166 -0.2478
  751MOL0     C 1306   8.717   3.632   6.765  0.5672  0.3480 -0.2136
  751MOL0     C 1307   8.849   3.588   6.778 -0.3628  0.6153  0.6505
  751MOL0     C 1308   8.883   3.468   6.860  0.0757 -0.1090 -0.1782
  751MOL0     O 1309   9.002   3.405   6.864 -0.2492  0.5087  0.1368
  751MOL0     C 1310   9.118   3.485   6.885 -0.0771  0.5609 -0.7264
  751MOL0     C 1311   9.190   3.412   7.003  0.1408 -0.1121  0.3882
  751MOL0     C 1312   9.279   3.299   6.942 -0.1791 -0.7037 -0.2173
  751MOL0     C 1313   9.406   3.269   7.022 -0.2091  0.0472 -0.4423
  751MOL0     C 1314   9.475   3.147   6.970  0.5312  0.0230  0.0185
  751MOL0     C 1315   9.540   3.060   6.918 -0.1642  0.1648 -0.2361
  751MOL0     C 1316   8.775   3.400   6.922  0.1000  1.0308 -0.6824
  751MOL0     C 1317   8.642   3.445   6.902 -0.0215 -0.5130  0.2073
  751MOL0     H 1318   8.215   3.490   6.645  0.0543 -0.9903  1.0454
  751MOL0     H 1319   7.985   3.576   6.616 -1.2061  1.0416  0.5781
  751MOL0     H 1320   7.699   3.824   6.703 -1.0057 -1.2431 -0.7424
  751MOL0     H 1321   7.851   3.784   6.626  1.8047 -2.0960  0.1086
  751MOL0     H 1322   7.666   3.643   6.560  0.2234 -2.8500  0.4827
  751MOL0     H 1323   7.763   3.534   6.636 -1.1541 -1.1532 -0.7056
  751MOL0     H 1324   7.637   3.506   6.811  0.6625 -1.7268 -2.8920
  751MOL0     H 1325   7.591   3.677   6.833  1.9937  0.4752 -1.0589
  751MOL0     H 1326   7.447   3.667   6.650  3.5885  0.7309 -1.4677
  751MOL0     H 1327   7.468   3.495   6.628  0.0276 -0.3390  1.5781
  751MOL0     H 1328   7.391   3.446   6.852 -0.0207  0.7539  0.1667
  751MOL0     H 1329   7.378   3.620   6.885  3.3241 -0.4365 -0.2740
  751MOL0     H 1330   7.202   3.629   6.688  0.8861 -0.3953 -0.4514
  751MOL0     H 1331   7.203   3.451   6.688 -2.6814  0.8751 -0.8197
  751MOL0     H 1332   7.118   3.430   6.906 -2.0504  0.2967  1.1368
  751MOL0     H 1333   7.130   3.610   6.934 -3.2143  1.5796  0.0878
  751MOL0     H 1334   6.963   3.472   6.715 -1.3393  1.2707 -1.7968
  751MOL0     H 1335   6.963   3.643   6.755  2.6308 -0.2268  0.6812
  751MOL0     H 1336   6.880   3.676   7.040  0.4692 -0.0912 -0.2949
  751MOL0     H 1337   6.648   3.470   7.259  2.8623 -1.4754 -2.1867
  751MOL0     H 1338   6.772   3.586   7.244  0.4385 -1.3028 -0.4402
  751MOL0     H 1339   6.616   3.737   7.144  0.8127 -0.1922 -0.2850
  751MOL0     H 1340   6.561   3.689   7.313 -0.4774 -2.5947  0.6547
  751MOL0     H 1341   6.410   3.516   7.241  0.9332 -2.2166 -1.2630
  751MOL0     H 1342   6.445   3.552   7.074  0.4579 -0.8533 -0.1627
  751MOL0     H 1343   6.234   3.653   7.139  0.2877  1.7205  0.7346
  751MOL0     H 1344   6.357   3.794   7.136 -0.3490  0.6540 -1.7935
  751MOL0     H 1345   6.210   3.769   7.560  0.2448  0.7349  0.0854
  751MOL0     H 1346   6.017   3.968   7.710  2.4373  0.1634 -0.4930
  751MOL0     H 1347   5.886   3.851   7.689  0.0528  1.9194  2.2731
  751MOL0     H 1348   6.061   3.801   7.714  0.1205  1.2696  0.2931
  751MOL0     H 1349   5.602   4.069   7.585  0.1934 -0.6263  0.7519
  751MOL0     H 1350   5.358   4.163   7.599  0.3844  0.4622  0.1464
  751MOL0     H 1351   5.157   4.205   7.566  2.8944 -1.2935 -1.1148
  751MOL0     H 1352   5.224   4.358   7.515 -0.9689 -0.0478  1.2059
  751MOL0     H 1353   4.999   4.387   7.533  2.1000  2.8455 -1.0403
  751MOL0     H 1354   5.030   4.391   7.354 -0.0083 -1.4418  0.0413
  751MOL0     H 1355   4.951   4.129   7.467  0.8986  1.0376  1.5512
  751MOL0     H 1356   4.937   4.196   7.302 -0.8995 -1.4355  0.2202
  751MOL0     H 1357   4.768   4.280   7.527  2.2812 -1.4050  0.7026
  751MOL0     H 1358   4.769   4.356   7.359  1.2088 -0.9655 -0.8624
  751MOL0     H 1359   4.709   4.065   7.366 -0.2829 -0.7017 -0.5347
  751MOL0     H 1360   4.645   4.197   7.260  1.6320  0.9693 -0.3128
  751MOL0     H 1361   4.484   4.101   7.393 -0.5613 -1.4692  0.9159
  751MOL0     H 1362   4.581   4.134   7.548 -1.2701 -1.9894 -0.6904
  751MOL0     H 1363   4.474   4.352   7.372 -0.4672 -1.7476 -0.3998
  751MOL0     H 1364   4.547   4.355   7.538 -1.0237 -2.5672  3.3276
  751MOL0     H 1365   4.344   4.233   7.639 -3.1066 -1.2276  0.1448
  751MOL0     H 1366   4.291   4.209   7.471  3.9617 -0.9935 -2.4462
  751MOL0     H 1367   5.320   4.068   7.191  0.7904  0.6161 -0.6411
  751MOL0     H 1368   5.553   3.983   7.181  1.3628 -0.7009  0.8083
  751MOL0     H 1369   5.920   3.950   7.206  1.9528  1.0466 -0.8083
  751MOL0     H 1370   6.120   3.839   7.149 -0.5325  2.9848  0.4807
  751MOL0     H 1371   8.002   3.721   7.015  2.4637  1.1047  0.6378
  751MOL0     H 1372   8.250   3.664   7.025 -0.3514 -2.5464 -0.0980
  751MOL0     H 1373   8.706   3.728   6.716  0.7626 -0.5851 -2.1796
  751MOL0     H 1374   8.930   3.639   6.726  2.2333 -3.4376  0.2675
  751MOL0     H 1375   9.179   3.506   6.797  1.0044 -0.6774 -0.3154
  751MOL0     H 1376   9.102   3.588   6.921  2.6706  0.4035  1.3105
  751MOL0     H 1377   9.112   3.390   7.077 -0.9152  0.0047 -0.6499
  751MOL0     H 1378   9.259   3.482   7.051 -0.7348  0.9071  0.2176
  751MOL0     H 1379   9.315   3.331   6.844  1.1971 -2.7927 -0.4451
  751MOL0     H 1380   9.212   3.213   6.934  1.5482 -2.3594  1.8615
  751MOL0     H 1381   9.383   3.263   7.129 -0.2135  3.6873 -0.1078
  751MOL0     H 1382   9.470   3.357   7.009 -1.1787  0.8766  0.1841
  751MOL0     H 1383   9.594   2.994   6.853 -0.0994  2.5898 -2.8758
  751MOL0     H 1384   8.788   3.299   6.960  3.2743  1.1189 -1.2518
  751MOL0     H 1385   8.560   3.382   6.934  1.8201 -3.2384 -0.0121
  752MOL0     O 1386   0.123   0.527   1.959 -0.0472  0.1104  0.8051
  752MOL0     C 1387   0.135   0.467   1.850  0.1521 -0.0610  0.3382
  752MOL0     O 1388   0.038   0.417   1.769 -0.2921  0.3485  0.0514
  752MOL0     C 1389  -0.092   0.458   1.790 -0.4846  0.0623  0.5875
  752MOL0     C 1390  -0.192   0.384   1.724 -0.2490  0.6632 -0.8223
  752MOL0     C 1391  -0.324   0.413   1.740  0.8365 -0.6446 -0.5011
  752MOL0     C 1392  -0.378   0.524   1.812  0.3649  0.9291  0.4099
  752MOL0     O 1393  -0.518   0.531   1.814 -0.4999 -0.7282  0.5316
  752MOL0     C 1394  -0.581   0.501   1.941 -0.2257  0.1084  0.0570
  752MOL0     C 1395  -0.730   0.545   1.952 -0.0307 -0.3393 -0.6077
  752MOL0     C 1396  -0.823   0.455   1.872  0.0470  0.5866  0.7840
  752MOL0     C 1397  -0.863   0.527   1.743 -0.5628 -0.2453  0.0196
  752MOL0     C 1398  -0.939   0.430   1.649  0.4479 -0.4418 -0.5889
  752MOL0     C 1399  -1.064   0.387   1.727 -0.1862  0.3313  0.3390
  752MOL0     C 1400  -1.177   0.335   1.628  0.9939 -1.0062  0.1732
  752MOL0     C 1401  -1.269   0.465   1.591  0.1997  0.5418 -0.1914
  752MOL0     N 1402  -1.382   0.425   1.501  0.1926 -0.0343  0.0165
  752MOL0     C 1403  -1.365   0.398   1.367  0.6362  0.4616 -0.6891
  752MOL0     C 1404  -1.474   0.314   1.345  0.2885  0.2762 -0.0031
  752MOL0     C 1405  -1.507   0.254   1.207  0.1282 -0.3932  0.6122
  752MOL0     C 1406  -1.452   0.121   1.159  0.6230  0.2000  0.1192
  752MOL0     C 1407  -1.304   0.120   1.121  0.5676  0.6573 -0.0374
  752MOL0     C 1408  -1.284   0.018   1.010  0.2935 -0.3992 -0.1286
  752MOL0     O 1409  -1.316  -0.111   1.068  0.2347  0.7604  0.3840
  752MOL0     C 1410  -1.216  -0.192   1.122 -0.5796 -0.3419  0.4335
  752MOL0     C 1411  -1.255  -0.256   1.242 -0.1106 -0.1211 -0.2085
  752MOL0     C 1412  -1.172  -0.333   1.319 -1.9671  0.1562 -0.3023
  752MOL0     C 1413  -1.224  -0.400   1.446  0.4875  0.1441  1.0345
  752MOL0     C 1414  -1.037  -0.342   1.277 -0.7616  0.5908 -1.0873
  752MOL0     C 1415  -0.923  -0.394   1.361 -0.6294 -0.0615 -0.5748
  752MOL0     O 1416  -0.803  -0.366   1.308  0.3644  0.0380  0.1321
  752MOL0     C 1417  -0.681  -0.386   1.375 -0.0852 -0.4236 -0.3117
  752MOL0     C 1418  -0.600  -0.277   1.418  0.0647 -0.1212 -0.4240
  752MOL0     C 1419  -0.480  -0.295   1.483 -0.8799  0.4990  0.3410
  752MOL0     C 1420  -0.442  -0.426   1.521  0.1463 -0.2086  0.1148
  752MOL0     O 1421  -0.333  -0.441   1.602  0.4521 -0.0490  0.0597
  752MOL0     C 1422  -0.274  -0.565   1.606 -0.0482 -0.3515  0.6220
  752MOL0     C 1423  -0.146  -0.544   1.676 -0.0562  0.1494  0.0277
  752MOL0     C 1424  -0.076  -0.684   1.685 -0.4748 -0.2544  0.2200
  752MOL0     C 1425  -0.004  -0.682   1.827  0.6698 -0.1080  0.2552
  752MOL0     C 1426   0.080  -0.811   1.829 -0.7301 -0.6380 -0.0319
  752MOL0     C 1427   0.189  -0.818   1.942  0.5967 -0.0607  0.5665
  752MOL0     C 1428   0.238  -0.966   1.942  0.4998 -0.3849  0.6258
  752MOL0     C 1429   0.367  -0.967   2.031  0.2434 -0.1048  0.4187
  752MOL0    Cl 1430   0.315  -0.929   2.207 -0.5976  0.1752 -0.3262
  752MOL0     C 1431  -0.516  -0.535   1.471  0.2573  0.1143  0.1920
  752MOL0     C 1432  -0.627  -0.511   1.387  0.8080 -0.8340  0.0345
  752MOL0     O 1433  -0.937  -0.449   1.467  0.0358 -0.3824 -0.4139
  752MOL0     C 1434  -0.998  -0.280   1.159  0.8792 -0.0376  0.0610
  752MOL0     C 1435  -1.077  -0.202   1.081  0.6215  0.2443 -0.5398
  752MOL0     N 1436  -1.542   0.295   1.460  0.1831 -0.4871 -0.3352
  752MOL0     N 1437  -1.495   0.367   1.540 -0.6470  0.3112 -0.0208
  752MOL0     C 1438  -0.278   0.611   1.859  0.4806 -0.3647 -0.1192
  752MOL0     C 1439  -0.142   0.577   1.845  1.3699 -0.2400 -0.4337
  752MOL0     C 1440   0.276   0.449   1.810 -1.4004 -0.7672 -0.1164
  752MOL0     C 1441   0.385   0.459   1.895  0.3547  0.7798 -0.5889
  752MOL0     C 1442   0.519   0.434   1.858 -0.3381 -0.3954 -0.5949
  752MOL0     C 1443   0.547   0.389   1.733  0.7077 -0.3937  0.1218
  752MOL0     O 1444   0.680   0.359   1.701  0.4704  0.0700  0.2691
  752MOL0     C 1445   0.721   0.371   1.563 -0.1404  0.4404 -0.2042
  752MOL0     C 1446   0.870   0.338   1.550  0.2189 -0.3081  0.4605
  752MOL0     C 1447   0.955   0.427   1.640  0.3609 -0.0037 -0.5130
  752MOL0     C 1448   1.100   0.372   1.650 -0.8087  0.0922  0.2974
  752MOL0     C 1449   1.190   0.454   1.730 -0.4784  0.0905  0.3664
  752MOL0     C 1450   1.280   0.517   1.792 -0.2486  0.2181  0.0375
  752MOL0     C 1451   0.443   0.385   1.647 -0.3792  0.1279  0.9790
  752MOL0     C 1452   0.308   0.412   1.675  0.3238 -0.2004 -0.4656
  752MOL0     H 1453  -0.179   0.288   1.675 -0.2702 -0.5970  1.4587
  752MOL0     H 1454  -0.389   0.369   1.666  0.6755  1.0821 -1.4300
  752MOL0     H 1455  -0.569   0.394   1.955  0.1464 -0.0847 -1.4991
  752MOL0     H 1456  -0.524   0.542   2.024  0.8857 -5.4646  2.4711
  752MOL0     H 1457  -0.762   0.531   2.056  0.4270  1.1135 -0.2502
  752MOL0     H 1458  -0.737   0.650   1.922  2.1446 -0.5543 -2.1420
  752MOL0     H 1459  -0.760   0.368   1.851  2.0055  2.4034 -1.3802
  752MOL0     H 1460  -0.911   0.420   1.926 -0.6927 -2.1554 -1.8910
  752MOL0     H 1461  -0.924   0.616   1.763  2.6450  2.2206 -0.2740
  752MOL0     H 1462  -0.774   0.577   1.704 -1.7705  3.5343  1.6294
  752MOL0     H 1463  -0.960   0.484   1.556 -0.5193  0.5592  0.1792
  752MOL0     H 1464  -0.876   0.345   1.621  1.0261 -0.6817  1.2970
  752MOL0     H 1465  -1.039   0.309   1.799  1.5803 -0.0927 -0.6499
  752MOL0     H 1466  -1.104   0.473   1.781 -0.5978  0.2391  0.1864
  752MOL0     H 1467  -1.130   0.289   1.540  2.0703  0.9489 -0.3504
  752MOL0     H 1468  -1.237   0.258   1.677  0.8033 -1.9065 -1.3792
  752MOL0     H 1469  -1.204   0.539   1.543  0.8234 -0.4024 -0.8300
  752MOL0     H 1470  -1.309   0.504   1.686  0.7357  0.6734 -0.0172
  752MOL0     H 1471  -1.287   0.429   1.298  0.2934 -1.6504 -2.1043
  752MOL0     H 1472  -1.616   0.240   1.202  0.2473 -0.8157 -2.4573
  752MOL0     H 1473  -1.486   0.329   1.131 -1.4845  0.8326  1.2944
  752MOL0     H 1474  -1.502   0.084   1.069  1.4133 -0.3821 -0.0888
  752MOL0     H 1475  -1.479   0.044   1.232  1.0927  0.9760  1.1527
  752MOL0     H 1476  -1.243   0.087   1.206  1.8730 -0.4231 -1.3525
  752MOL0     H 1477  -1.256   0.212   1.089  0.1273  1.5267  1.7010
  752MOL0     H 1478  -1.183   0.020   0.969  0.5872 -1.3274  0.5251
  752MOL0     H 1479  -1.350   0.030   0.924  3.0314 -1.4363 -2.5606
  752MOL0     H 1480  -1.350  -0.222   1.280  0.1472 -0.0655  0.3950
  752MOL0     H 1481  -1.195  -0.329   1.524  0.6496  3.1106 -1.5153
  752MOL0     H 1482  -1.333  -0.409   1.440  0.6199 -1.1764  0.2923
  752MOL0     H 1483  -1.183  -0.498   1.473 -0.5285  0.0560  2.3522
  752MOL0     H 1484  -0.653  -0.184   1.401 -1.4182 -1.1749 -1.9974
  752MOL0     H 1485  -0.424  -0.208   1.519 -1.4790  1.6289 -1.3308
  752MOL0     H 1486  -0.337  -0.633   1.664 -1.7045 -0.0954 -0.7985
  752MOL0     H 1487  -0.244  -0.606   1.509 -1.7647 -0.1629 -0.0146
  752MOL0     H 1488  -0.084  -0.469   1.625  1.7515 -1.0859  0.3060
  752MOL0     H 1489  -0.183  -0.516   1.775 -2.8098  1.9140 -1.3612
  752MOL0     H 1490   0.005  -0.695   1.612 -0.8661  1.1935 -0.4756
  752MOL0     H 1491  -0.153  -0.761   1.684 -2.4241  1.6254  0.2958
  752MOL0     H 1492   0.041  -0.584   1.845  1.8019 -0.7431  0.9612
  752MOL0     H 1493  -0.077  -0.693   1.908  2.7288 -0.3101  2.1603
  752MOL0     H 1494   0.131  -0.834   1.735 -0.6681  0.3329 -0.2435
  752MOL0     H 1495   0.013  -0.896   1.840  0.7114 -1.9375 -0.8629
  752MOL0     H 1496   0.258  -0.735   1.930  0.7098 -0.2957 -0.5471
  752MOL0     H 1497   0.130  -0.798   2.032  0.3415 -1.3973  0.7251
  752MOL0     H 1498   0.271  -0.997   1.843  0.2185 -0.1146  0.4442
  752MOL0     H 1499   0.164  -1.037   1.980  1.9153 -2.0960  0.2915
  752MOL0     H 1500   0.442  -0.888   2.015 -1.2573  1.8547  2.4022
  752MOL0     H 1501   0.410  -1.065   2.010 -1.5485 -0.9180  0.4132
  752MOL0     H 1502  -0.504  -0.640   1.495 -3.8469 -0.6529 -0.4261
  752MOL0     H 1503  -0.682  -0.593   1.341  3.3616 -3.2072  0.9526
  752MOL0     H 1504  -0.900  -0.280   1.113  0.1020  0.4471 -1.6917
  752MOL0     H 1505  -1.034  -0.171   0.986 -1.7804  0.7078 -1.5660
  752MOL0     H 1506  -0.312   0.709   1.892  1.8955 -0.7996  3.0011
  752MOL0     H 1507  -0.078   0.660   1.874 -2.5962  2.2845  2.2674
  752MOL0     H 1508   0.368   0.482   2.000  1.6087  1.1949 -0.4537
  752MOL0     H 1509   0.595   0.439   1.935 -0.2223  1.7570 -0.8018
  752MOL0     H 1510   0.665   0.305   1.496 -2.2753  4.5694 -2.8563
  752MOL0     H 1511   0.694   0.473   1.534 -1.4309  0.8579  2.1902
  752MOL0     H 1512   0.901   0.348   1.446 -1.9823  2.0636 -0.0620
  752MOL0     H 1513   0.880   0.232   1.576 -0.8754 -0.6024 -0.2870
  752MOL0     H 1514   0.916   0.430   1.743 -0.3186 -1.2961 -0.7076
  752MOL0     H 1515   0.960   0.526   1.593 -0.2263  1.6095  2.5629
  752MOL0     H 1516   1.143   0.377   1.550 -0.8576  2.4585  0.3390
  752MOL0     H 1517   1.104   0.268   1.684  0.4348  0.9340  3.0501
  752MOL0     H 1518   1.351   0.582   1.839  0.9628 -0.1802 -1.1599
  752MOL0     H 1519   0.464   0.359   1.543 -0.5498 -0.6732  1.1392
  752MOL0     H 1520   0.228   0.399   1.603 -1.1415 -1.5842  1.3081
  753MOL0     O 1521   8.297   9.609   3.487  0.0588 -0.3182  0.4570
  753MOL0     C 1522   8.221   9.619   3.578 -0.0052 -0.2657 -0.9637
  753MOL0     O 1523   8.108   9.547   3.601  0.0659 -0.7805  0.9843
  753MOL0     C 1524   8.048   9.476   3.493 -0.7616 -0.0243  0.3862
  753MOL0     C 1525   7.950   9.383   3.518  0.5070  0.0226 -0.7633
  753MOL0     C 1526   7.882   9.306   3.423  0.5128  0.3383 -0.4484
  753MOL0     C 1527   7.920   9.320   3.288  0.0863  0.4119  0.6118
  753MOL0     O 1528   7.839   9.238   3.213  0.1904  0.2627  0.0424
  753MOL0     C 1529   7.909   9.157   3.116  0.2110  0.6279  0.6085
  753MOL0     C 1530   7.967   9.032   3.183 -0.3150  0.7062 -0.2670
  753MOL0     C 1531   7.869   8.950   3.267 -0.5692 -0.2493 -0.0649
  753MOL0     C 1532   7.740   8.933   3.193  1.7407 -0.2416 -0.3904
  753MOL0     C 1533   7.655   8.832   3.275 -0.2222  0.1188 -0.2079
  753MOL0     C 1534   7.524   8.789   3.200 -0.4708 -0.4349 -0.5251
  753MOL0     C 1535   7.435   8.710   3.304 -0.6447 -0.1147 -0.4897
  753MOL0     C 1536   7.310   8.638   3.247 -1.0634  0.5537 -0.4011
  753MOL0     N 1537   7.213   8.727   3.176 -0.6141  0.0274 -0.2644
  753MOL0     C 1538   7.108   8.787   3.225  0.4517 -0.9677  1.4922
  753MOL0     C 1539   7.056   8.850   3.117  1.1073  0.3399  0.0479
  753MOL0     C 1540   6.930   8.937   3.117 -0.2198 -0.4067  0.1558
  753MOL0     C 1541   6.835   8.899   2.998  0.2052  0.7113 -0.1264
  753MOL0     C 1542   6.700   8.967   3.010 -0.1097 -0.1048  0.2194
  753MOL0     C 1543   6.580   8.924   2.916 -0.5158 -0.1042  0.1440
  753MOL0     O 1544   6.533   8.794   2.947  0.0494 -0.4638  0.1277
  753MOL0     C 1545   6.446   8.726   2.865 -0.5149  0.1651 -0.2117
  753MOL0     C 1546   6.441   8.589   2.888 -0.0465  0.1110 -0.7007
  753MOL0     C 1547   6.356   8.502   2.818 -0.0969 -0.3672  0.0126
  753MOL0     C 1548   6.365   8.351   2.839 -0.4715 -0.0344  0.2924
  753MOL0     C 1549   6.259   8.556   2.724 -0.2084 -0.8820 -0.5216
  753MOL0     C 1550   6.157   8.476   2.631 -0.8425  0.2154 -0.3867
  753MOL0     O 1551   6.086   8.555   2.546  0.8475  0.1874  0.1437
  753MOL0     C 1552   5.991   8.493   2.463  0.5919 -0.1790  0.6107
  753MOL0     C 1553   5.858   8.542   2.466 -0.2655  1.1053 -0.3728
  753MOL0     C 1554   5.770   8.484   2.374 -0.6197 -0.0351  0.1952
  753MOL0     C 1555   5.803   8.378   2.278  0.0934 -0.3828 -0.9982
  753MOL0     O 1556   5.721   8.307   2.193  0.1900  0.0981  0.6425
  753MOL0     C 1557   5.580   8.313   2.218  0.7517 -0.1942  0.2252
  753MOL0     C 1558   5.503   8.237   2.113 -0.6387  0.0949  0.3373
  753MOL0     C 1559   5.358   8.231   2.168 -1.1432 -0.1603  0.2908
  753MOL0     C 1560   5.263   8.146   2.077 -0.1966 -1.1111 -0.0537
  753MOL0     C 1561   5.121   8.152   2.142 -0.9281 -0.2497 -0.1427
  753MOL0     C 1562   5.027   8.072   2.059  0.1617 -0.8451 -0.3432
  753MOL0     C 1563   4.892   8.054   2.114  0.0820  0.1079  0.7034
  753MOL0     C 1564   4.807   7.954   2.030 -0.1643 -0.2091 -0.0276
  753MOL0    Cl 1565   4.838   7.790   2.068 -0.0871  0.5939 -0.0082
  753MOL0     C 1566   5.936   8.340   2.283 -0.5985 -0.0533 -0.5484
  753MOL0     C 1567   6.023   8.390   2.375  0.1783 -0.1129  0.1244
  753MOL0     O 1568   6.159   8.348   2.642 -0.4092  0.3561  0.0309
  753MOL0     C 1569   6.271   8.701   2.702  1.1865 -0.1167 -1.0681
  753MOL0     C 1570   6.359   8.780   2.773 -0.9658  0.0670 -1.1027
  753MOL0     N 1571   7.141   8.843   3.004  0.3237 -0.3801  0.2097
  753MOL0     N 1572   7.234   8.765   3.043  0.1789 -0.1095  0.2656
  753MOL0     C 1573   8.007   9.419   3.256 -0.7414 -0.2371 -0.7184
  753MOL0     C 1574   8.076   9.499   3.352  0.4856  0.1462 -0.3633
  753MOL0     C 1575   8.256   9.721   3.678  0.1432  0.1293 -0.7687
  753MOL0     C 1576   8.383   9.790   3.673 -0.2131 -0.1223  0.1644
  753MOL0     C 1577   8.417   9.887   3.764 -0.3809 -0.6048 -0.3033
  753MOL0     C 1578   8.343   9.891   3.886  0.2108  0.6497  0.4171
  753MOL0     O 1579   8.390   9.968   3.985  0.5079 -0.3326 -0.1762
  753MOL0     C 1580   8.362   9.938   4.126 -0.3694 -0.4929 -0.2024
  753MOL0     C 1581   8.259  10.037   4.180 -0.2077 -0.1640 -0.3778
  753MOL0     C 1582   8.199   9.989   4.316 -0.2581  0.5116 -0.3401
  753MOL0     C 1583   8.310   9.962   4.420  0.4828  0.6228 -0.0709
  753MOL0     C 1584   8.256   9.929   4.555 -0.4810  0.0578  0.2953
  753MOL0     C 1585   8.207   9.899   4.663  0.2211 -0.6026  0.4076
  753MOL0     C 1586   8.221   9.817   3.895 -0.9554  0.1460 -0.2120
  753MOL0     C 1587   8.177   9.745   3.788  0.3312 -0.9098  0.0471
  753MOL0     H 1588   7.930   9.369   3.624  2.6268 -0.3916 -0.3757
  753MOL0     H 1589   7.811   9.228   3.451  1.1860  0.4304  1.7375
  753MOL0     H 1590   7.844   9.129   3.032  0.8436 -0.0692  0.3446
  753MOL0     H 1591   7.981   9.224   3.068 -0.3895  1.1626  0.4359
  753MOL0     H 1592   8.008   8.955   3.116  2.9001  0.6990  1.4887
  753MOL0     H 1593   8.043   9.074   3.250  1.8212  0.0039 -2.1008
  753MOL0     H 1594   7.915   8.859   3.306  1.9379 -0.0554 -2.2605
  753MOL0     H 1595   7.841   9.003   3.359  0.0642  0.9059 -0.5168
  753MOL0     H 1596   7.683   9.026   3.197  1.5054 -0.4289  1.7569
  753MOL0     H 1597   7.761   8.907   3.088 -0.0313  1.4836 -1.2395
  753MOL0     H 1598   7.714   8.749   3.314 -1.6934 -1.2890 -0.8798
  753MOL0     H 1599   7.610   8.888   3.358 -0.6146 -2.0454  1.1019
  753MOL0     H 1600   7.467   8.880   3.176  1.0928  0.6064 -0.4034
  753MOL0     H 1601   7.556   8.738   3.109  1.5761 -1.7071  0.8257
  753MOL0     H 1602   7.497   8.641   3.362 -0.1358  0.5311 -0.2496
  753MOL0     H 1603   7.397   8.777   3.382  0.8931 -0.5612  0.7006
  753MOL0     H 1604   7.259   8.606   3.338  0.8714  2.6964  1.5908
  753MOL0     H 1605   7.343   8.556   3.182  0.3627  2.2492 -1.9245
  753MOL0     H 1606   7.063   8.770   3.323 -0.1366 -2.6683  0.9479
  753MOL0     H 1607   6.871   8.921   3.208 -0.6512  0.5480  0.0480
  753MOL0     H 1608   6.969   9.039   3.106  1.4113 -0.6655  2.5789
  753MOL0     H 1609   6.826   8.792   2.981  0.2770  0.7097 -0.1554
  753MOL0     H 1610   6.879   8.927   2.902 -1.2154 -1.1377 -1.3694
  753MOL0     H 1611   6.719   9.074   2.996  1.6405  0.0738  3.0398
  753MOL0     H 1612   6.670   8.956   3.115  0.2506  0.3569  0.3793
  753MOL0     H 1613   6.616   8.930   2.813  0.2180 -0.3982  0.3752
  753MOL0     H 1614   6.497   8.995   2.921 -1.4087 -1.1815  1.8413
  753MOL0     H 1615   6.514   8.550   2.957 -0.9217  1.8257  1.3148
  753MOL0     H 1616   6.452   8.335   2.903  0.2124  3.0144  0.2995
  753MOL0     H 1617   6.278   8.301   2.883 -0.6479  1.2412  1.4827
  753MOL0     H 1618   6.404   8.306   2.747  3.7981  0.0854  1.8141
  753MOL0     H 1619   5.826   8.622   2.532  0.6043  2.2189 -1.2595
  753MOL0     H 1620   5.670   8.526   2.367 -0.2544  0.5892 -2.2114
  753MOL0     H 1621   5.564   8.266   2.316  0.0201 -0.0544  0.1832
  753MOL0     H 1622   5.542   8.416   2.224  0.3404 -0.3359  0.0679
  753MOL0     H 1623   5.491   8.289   2.017 -0.5646 -1.2624 -0.4281
  753MOL0     H 1624   5.549   8.138   2.108 -0.0565  0.4184 -2.6788
  753MOL0     H 1625   5.326   8.335   2.177  0.2935  0.3691 -0.4073
  753MOL0     H 1626   5.352   8.197   2.272 -4.4679  0.2827  0.3461
  753MOL0     H 1627   5.266   8.194   1.979  2.3984 -0.2580  0.3461
  753MOL0     H 1628   5.304   8.045   2.080 -0.8359 -1.3905 -0.5395
  753MOL0     H 1629   5.083   8.255   2.150 -2.2957 -0.6296 -1.2449
  753MOL0     H 1630   5.129   8.102   2.239 -2.0169 -0.9017 -0.3763
  753MOL0     H 1631   5.022   8.114   1.958  1.5060  0.2235  0.0208
  753MOL0     H 1632   5.075   7.977   2.034  2.1329  0.3504 -1.2884
  753MOL0     H 1633   4.830   8.143   2.101 -0.5471 -0.4518 -0.2722
  753MOL0     H 1634   4.897   8.019   2.217 -1.7653 -2.6788 -0.0608
  753MOL0     H 1635   4.822   7.958   1.922 -2.8419 -0.2633 -0.4813
  753MOL0     H 1636   4.703   7.973   2.059 -1.2284 -1.2586 -2.8194
  753MOL0     H 1637   5.962   8.252   2.225  0.9246  0.2385 -0.3306
  753MOL0     H 1638   6.117   8.337   2.385  0.8166  0.1921 -3.1437
  753MOL0     H 1639   6.215   8.760   2.630 -0.1301 -0.3939 -0.3043
  753MOL0     H 1640   6.351   8.887   2.756 -2.6286  0.2884  0.7587
  753MOL0     H 1641   8.016   9.442   3.150  1.4531  0.6167 -0.3923
  753MOL0     H 1642   8.133   9.579   3.306  0.3278 -0.5759 -1.8729
  753MOL0     H 1643   8.452   9.776   3.590 -0.9369  3.1896 -1.1923
  753MOL0     H 1644   8.505   9.944   3.736 -1.1198  0.0031 -1.4749
  753MOL0     H 1645   8.331   9.835   4.150  0.7845 -0.3004  2.5547
  753MOL0     H 1646   8.455   9.963   4.178 -1.5297 -0.9904  2.2929
  753MOL0     H 1647   8.183  10.053   4.103 -2.3286 -0.0550  1.6319
  753MOL0     H 1648   8.311  10.130   4.200  1.2530 -1.3731  1.7942
  753MOL0     H 1649   8.137   9.899   4.303  0.5936 -0.0145 -0.8714
  753MOL0     H 1650   8.140  10.072   4.355 -0.1623  0.1082  0.7137
  753MOL0     H 1651   8.383  10.043   4.417  1.4904 -0.2793 -1.6251
  753MOL0     H 1652   8.358   9.868   4.392 -2.3793 -1.4179  1.3282
  753MOL0     H 1653   8.150   9.859   4.745 -0.6247  0.2267  0.2394
  753MOL0     H 1654   8.165   9.814   3.988 -1.3206  2.1761 -0.3118
  753MOL0     H 1655   8.092   9.680   3.806  2.1429 -2.7043  2.8256
  754MOL0     O 1656  11.270   5.618   2.919 -0.0295  0.3927  0.7368
  754MOL0     C 1657  11.253   5.704   3.001 -0.7277 -0.9941 -1.0844
  754MOL0     O 1658  11.146   5.774   3.025  0.6182 -0.5983  0.3949
  754MOL0     C 1659  11.039   5.762   2.941  0.1794  0.4184  0.3440
  754MOL0     C 1660  11.009   5.858   2.844 -0.3308  0.0820  0.0248
  754MOL0     C 1661  10.896   5.845   2.760  0.0018 -0.3430  0.4341
  754MOL0     C 1662  10.789   5.747   2.788 -0.7002  0.6917 -0.2790
  754MOL0     O 1663  10.668   5.723   2.731  0.1685  0.2554  0.4056
  754MOL0     C 1664  10.626   5.802   2.616 -0.7178 -0.0196  0.0558
  754MOL0     C 1665  10.471   5.762   2.596  0.1149  0.3117 -0.5275
  754MOL0     C 1666  10.432   5.775   2.448 -0.5828  0.1615  0.4087
  754MOL0     C 1667  10.300   5.707   2.407  0.1358 -0.0673 -0.6663
  754MOL0     C 1668  10.307   5.669   2.262 -0.5505 -0.9238  1.0917
  754MOL0     C 1669  10.242   5.784   2.180 -0.4616  0.6495  0.2563
  754MOL0     C 1670  10.092   5.782   2.166  0.2436 -0.2812  0.6215
  754MOL0     C 1671  10.041   5.656   2.095  0.0585  0.2139 -0.0743
  754MOL0     N 1672   9.910   5.689   2.062 -0.8179  0.8874 -0.6088
  754MOL0     C 1673   9.869   5.767   1.959  0.2249 -0.5027  0.1498
  754MOL0     C 1674   9.735   5.772   1.980  0.8926  0.4180 -0.3148
  754MOL0     C 1675   9.638   5.838   1.884  0.1929 -0.0422  0.2741
  754MOL0     C 1676   9.507   5.757   1.867  0.1118  0.6086 -0.4090
  754MOL0     C 1677   9.401   5.823   1.771 -0.0447  0.6199 -0.2145
  754MOL0     C 1678   9.283   5.724   1.733 -0.4607 -0.3757 -0.1815
  754MOL0     O 1679   9.204   5.770   1.623 -0.6344  0.2714 -0.2963
  754MOL0     C 1680   9.082   5.714   1.603  0.2485  0.1130  0.7172
  754MOL0     C 1681   9.011   5.759   1.492  0.0609  0.2069 -0.4850
  754MOL0     C 1682   8.889   5.715   1.442  1.2469 -0.3318  0.2284
  754MOL0     C 1683   8.832   5.776   1.315 -0.2043  0.7282  0.7365
  754MOL0     C 1684   8.818   5.618   1.524  0.1694 -0.0121 -0.3043
  754MOL0     C 1685   8.694   5.552   1.485 -0.0351  0.5383  0.8929
  754MOL0     O 1686   8.661   5.544   1.352  0.2069 -0.2845 -0.0881
  754MOL0     C 1687   8.535   5.512   1.305 -0.1747  0.5946  0.3540
  754MOL0     C 1688   8.530   5.398   1.220  0.4940  0.3699 -0.4579
  754MOL0     C 1689   8.400   5.361   1.172 -0.9509  0.4137 -0.2333
  754MOL0     C 1690   8.285   5.436   1.198 -0.1715 -1.0092 -0.2869
  754MOL0     O 1691   8.167   5.403   1.138  0.3734 -0.9187  0.5098
  754MOL0     C 1692   8.066   5.354   1.227 -0.4297 -1.0050 -0.5735
  754MOL0     C 1693   7.992   5.229   1.188 -0.9377  0.7664  0.3964
  754MOL0     C 1694   8.095   5.124   1.143 -0.5560  0.5966 -0.0499
  754MOL0     C 1695   8.012   4.995   1.135 -0.7841  0.4276  0.2567
  754MOL0     C 1696   8.092   4.887   1.055 -0.4811 -0.1055  0.1791
  754MOL0     C 1697   8.036   4.748   1.079  0.3073  0.1214  0.3640
  754MOL0     C 1698   8.129   4.643   1.023  0.0647  0.3494  0.5426
  754MOL0     C 1699   8.050   4.510   1.005  0.3271 -0.1513 -0.5973
  754MOL0    Cl 1700   7.895   4.515   0.901  0.2483  0.0332  0.3170
  754MOL0     C 1701   8.293   5.553   1.269  0.4880 -0.8072 -0.2376
  754MOL0     C 1702   8.421   5.592   1.321 -0.7191  0.0261  0.0105
  754MOL0     O 1703   8.629   5.508   1.578  0.0956 -0.0636  0.0885
  754MOL0     C 1704   8.887   5.564   1.640  0.0162 -0.3519  0.3271
  754MOL0     C 1705   9.014   5.611   1.676 -0.6011 -0.1527  0.3456
  754MOL0     N 1706   9.701   5.709   2.094  0.0305  0.0033 -0.2080
  754MOL0     N 1707   9.808   5.659   2.149  0.5638  0.1255 -0.1240
  754MOL0     C 1708  10.825   5.648   2.891 -0.5508 -0.6835 -0.1330
  754MOL0     C 1709  10.949   5.658   2.961 -0.0699  0.4869  0.0026
  754MOL0     C 1710  11.382   5.738   3.076 -0.0706 -0.2636  0.1327
  754MOL0     C 1711  11.509   5.693   3.037  0.1908  0.8105 -0.5867
  754MOL0     C 1712  11.616   5.723   3.123  0.2347 -0.0549  0.1689
  754MOL0     C 1713  11.613   5.810   3.221 -0.6880  0.6674 -0.4932
  754MOL0     O 1714  11.733   5.838   3.281  1.0435 -0.0556  0.4938
  754MOL0     C 1715  11.742   5.957   3.361  0.1105 -0.3163  0.0551
  754MOL0     C 1716  11.889   5.988   3.406  0.4123 -0.3071 -0.3917
  754MOL0     C 1717  11.942   5.909   3.522  0.4807 -0.4465  0.0904
  754MOL0     C 1718  12.073   5.963   3.572 -0.1457  0.0735  0.0480
  754MOL0     C 1719  12.060   6.089   3.647 -0.4869 -0.4709  0.2651
  754MOL0     C 1720  12.041   6.200   3.701 -0.6073  0.1757  0.7713
  754MOL0     C 1721  11.487   5.873   3.245 -0.2600  0.0700 -0.3582
  754MOL0     C 1722  11.377   5.831   3.180  0.3243 -0.2960 -0.0763
  754MOL0     H 1723  11.067   5.948   2.826 -2.2290  1.3347 -0.1027
  754MOL0     H 1724  10.890   5.903   2.668  5.3398 -2.6098 -1.7806
  754MOL0     H 1725  10.635   5.912   2.617 -0.0553 -0.0662 -0.1359
  754MOL0     H 1726  10.688   5.768   2.533  0.6793  1.0307  0.6041
  754MOL0     H 1727  10.462   5.659   2.632 -1.2025  0.9831  1.2127
  754MOL0     H 1728  10.403   5.827   2.652  2.0307 -0.7014  3.3213
  754MOL0     H 1729  10.433   5.881   2.424  0.1999  0.6649  2.4786
  754MOL0     H 1730  10.513   5.737   2.385 -0.4324 -0.0760  0.7399
  754MOL0     H 1731  10.292   5.624   2.477  2.3755  1.7239  1.9422
  754MOL0     H 1732  10.214   5.768   2.434  0.9977 -0.4097  3.5802
  754MOL0     H 1733  10.402   5.644   2.214 -0.6814 -2.7277  1.6974
  754MOL0     H 1734  10.240   5.583   2.253  1.6367 -2.4937 -2.2378
  754MOL0     H 1735  10.281   5.878   2.220  0.6173  0.6499 -0.7547
  754MOL0     H 1736  10.293   5.774   2.084  1.4208  2.0682  1.0357
  754MOL0     H 1737  10.047   5.811   2.262 -0.2764 -0.0149  0.3030
  754MOL0     H 1738  10.075   5.865   2.098  2.1290 -0.8135 -0.5616
  754MOL0     H 1739  10.038   5.570   2.163  0.0739  1.6888  1.8684
  754MOL0     H 1740  10.108   5.638   2.011 -0.0163  1.1023 -0.3290
  754MOL0     H 1741   9.924   5.820   1.882  0.9152  1.5952  1.9800
  754MOL0     H 1742   9.615   5.942   1.909  2.2521  0.7758 -0.9472
  754MOL0     H 1743   9.680   5.858   1.784  0.6513  4.9877  1.1953
  754MOL0     H 1744   9.456   5.755   1.964  0.0275  1.9537 -0.4020
  754MOL0     H 1745   9.531   5.653   1.844 -0.6614 -0.5541  3.2331
  754MOL0     H 1746   9.439   5.854   1.673 -1.5064  0.5180 -0.8326
  754MOL0     H 1747   9.361   5.909   1.824  0.9516  0.1547  1.3771
  754MOL0     H 1748   9.214   5.717   1.818 -3.4479  3.5529 -1.9504
  754MOL0     H 1749   9.313   5.625   1.699 -4.6269 -0.9887 -2.8968
  754MOL0     H 1750   9.045   5.842   1.431  3.8478  0.7015  1.9607
  754MOL0     H 1751   8.729   5.814   1.320 -0.7836 -0.7203  0.1676
  754MOL0     H 1752   8.886   5.867   1.287 -0.6121 -0.0118 -2.9009
  754MOL0     H 1753   8.845   5.699   1.239 -5.7286 -0.3798  0.4904
  754MOL0     H 1754   8.617   5.334   1.230  1.2096  1.6352  2.4188
  754MOL0     H 1755   8.386   5.271   1.112  0.8626 -1.1341  1.5268
  754MOL0     H 1756   8.102   5.340   1.329  0.0851 -1.6210 -0.8342
  754MOL0     H 1757   8.000   5.441   1.232  0.7975 -0.1450  1.8639
  754MOL0     H 1758   7.936   5.198   1.276 -1.3888 -2.3541 -0.8401
  754MOL0     H 1759   7.922   5.245   1.105  1.0083  0.4338 -1.4211
  754MOL0     H 1760   8.174   5.110   1.217 -1.2076 -0.8675  0.3963
  754MOL0     H 1761   8.146   5.149   1.049  0.6770  2.7777  1.1024
  754MOL0     H 1762   7.989   4.952   1.233 -0.8886 -0.3043 -0.0847
  754MOL0     H 1763   7.914   5.010   1.088 -0.9650 -1.0174  0.1330
  754MOL0     H 1764   8.198   4.895   1.081 -0.2381 -0.1447 -0.7633
  754MOL0     H 1765   8.085   4.913   0.949 -0.7294 -0.5263  0.0899
  754MOL0     H 1766   8.031   4.732   1.188 -0.6071 -0.6159  0.2259
  754MOL0     H 1767   7.934   4.742   1.038  0.0625 -0.5551  1.0518
  754MOL0     H 1768   8.212   4.617   1.088 -1.7320  0.7439  3.1464
  754MOL0     H 1769   8.161   4.672   0.922  0.2899 -1.2190  0.1275
  754MOL0     H 1770   8.027   4.478   1.107  3.2889  1.9744  0.8990
  754MOL0     H 1771   8.110   4.425   0.973 -1.4606 -2.0118  0.7799
  754MOL0     H 1772   8.208   5.618   1.285  0.3068 -0.3664 -2.5401
  754MOL0     H 1773   8.435   5.689   1.367  0.5688  1.1461 -2.5337
  754MOL0     H 1774   8.840   5.497   1.711 -1.2744  2.2626  2.1123
  754MOL0     H 1775   9.062   5.568   1.763 -0.4086 -2.5592 -0.8844
  754MOL0     H 1776  10.755   5.572   2.924 -1.3174  0.4463  0.9497
  754MOL0     H 1777  10.970   5.590   3.042  1.3358  1.4110  0.4517
  754MOL0     H 1778  11.523   5.633   2.947  2.8923 -0.5492  0.6459
  754MOL0     H 1779  11.711   5.685   3.088 -1.1509 -1.2103 -2.7342
  754MOL0     H 1780  11.705   6.041   3.302  0.9536  0.3067  0.4050
  754MOL0     H 1781  11.676   5.945   3.448  0.1004  1.4339  0.3124
  754MOL0     H 1782  11.890   6.093   3.436 -0.3378 -0.4434  0.1345
  754MOL0     H 1783  11.958   5.976   3.322 -0.3885  2.0887 -1.4869
  754MOL0     H 1784  11.968   5.809   3.484 -0.4018  0.7048 -4.0390
  754MOL0     H 1785  11.883   5.918   3.613  1.8474 -0.9594  1.0725
  754MOL0     H 1786  12.145   5.974   3.490  1.3321  2.6345  1.5641
  754MOL0     H 1787  12.126   5.890   3.634  1.3398  2.1873  1.4295
  754MOL0     H 1788  12.043   6.292   3.756  0.6124  0.9122 -0.4537
  754MOL0     H 1789  11.485   5.950   3.322 -1.1876  1.8701 -2.1065
  754MOL0     H 1790  11.279   5.874   3.199 -0.0716 -2.1517  2.6132
  755MOL0     O 1791   6.030   7.528   2.456 -0.1059 -0.2299  0.1601
  755MOL0     C 1792   5.963   7.542   2.558  0.1240 -0.6781 -1.0373
  755MOL0     O 1793   6.006   7.561   2.680  0.0870  0.1085  0.1885
  755MOL0     C 1794   6.127   7.601   2.696 -0.8748 -0.2777 -0.2506
  755MOL0     C 1795   6.156   7.733   2.698  0.5574 -0.0925 -0.4076
  755MOL0     C 1796   6.289   7.775   2.732  0.6031 -0.1130  0.3135
  755MOL0     C 1797   6.392   7.686   2.760  0.0247  0.2948 -1.0309
  755MOL0     O 1798   6.514   7.741   2.776 -0.3252  0.5154 -0.0969
  755MOL0     C 1799   6.612   7.669   2.702 -0.4666  0.2376  0.0622
  755MOL0     C 1800   6.745   7.744   2.696  0.6057  0.0137 -0.0995
  755MOL0     C 1801   6.844   7.727   2.818 -0.5412  0.1669  0.2507
  755MOL0     C 1802   6.971   7.817   2.791  0.6621  0.0398 -0.4953
  755MOL0     C 1803   7.097   7.772   2.864 -0.0897  0.1888  0.2767
  755MOL0     C 1804   7.097   7.782   3.019 -0.5943 -0.4706  0.2383
  755MOL0     C 1805   7.238   7.776   3.079 -0.1865 -0.2012 -0.0776
  755MOL0     C 1806   7.337   7.882   3.038 -0.3286 -0.6287 -1.0126
  755MOL0     N 1807   7.458   7.875   3.121 -0.6523  0.0001 -0.3696
  755MOL0     C 1808   7.454   7.927   3.246  0.2208 -0.0080  0.1186
  755MOL0     C 1809   7.585   7.929   3.285 -1.3625 -0.4958  0.1314
  755MOL0     C 1810   7.644   7.965   3.418  0.3799 -0.0352 -0.1971
  755MOL0     C 1811   7.765   8.063   3.400 -0.1053 -0.5340 -0.0264
  755MOL0     C 1812   7.864   8.053   3.517 -0.0691  0.1294  0.5750
  755MOL0     C 1813   7.806   8.086   3.650 -0.3659 -0.2700  0.3574
  755MOL0     O 1814   7.778   8.226   3.659 -0.1368 -1.2275 -0.3775
  755MOL0     C 1815   7.882   8.312   3.667  0.9912  0.2063  0.0978
  755MOL0     C 1816   7.989   8.298   3.756 -0.1136  0.7547  0.2523
  755MOL0     C 1817   8.084   8.401   3.769  0.0958  1.0199  1.2319
  755MOL0     C 1818   8.196   8.366   3.862  0.3183  0.0355 -0.3825
  755MOL0     C 1819   8.068   8.523   3.687 -0.3133  0.0970 -0.2920
  755MOL0     C 1820   8.173   8.630   3.691 -0.2407 -1.0728 -0.2210
  755MOL0     O 1821   8.163   8.721   3.587 -0.8068 -0.7649  0.0842
  755MOL0     C 1822   8.234   8.836   3.597  0.0399 -0.7173  0.9487
  755MOL0     C 1823   8.369   8.851   3.630 -0.9494 -0.3054 -0.2162
  755MOL0     C 1824   8.434   8.977   3.612 -0.1359 -0.1270 -0.1231
  755MOL0     C 1825   8.374   9.085   3.559  0.7975  0.2731 -0.4256
  755MOL0     O 1826   8.430   9.210   3.539 -0.1470 -0.1561 -0.0759
  755MOL0     C 1827   8.524   9.261   3.635  0.2111  0.7926  0.7755
  755MOL0     C 1828   8.566   9.400   3.600 -0.6018  0.1343 -0.2234
  755MOL0     C 1829   8.685   9.397   3.507  0.0760  1.1974  0.6549
  755MOL0     C 1830   8.666   9.369   3.358 -0.1441 -0.1207  0.2032
  755MOL0     C 1831   8.579   9.477   3.286  0.8195 -0.6942 -0.0749
  755MOL0     C 1832   8.658   9.612   3.267  0.1736 -0.0725 -0.2230
  755MOL0     C 1833   8.596   9.730   3.347 -0.0348 -0.1277  0.0463
  755MOL0     C 1834   8.683   9.855   3.321  0.4474 -0.4449 -0.1219
  755MOL0    Cl 1835   8.643   9.996   3.417 -0.3670  0.5200 -0.4252
  755MOL0     C 1836   8.243   9.070   3.530  0.1108 -0.1949 -0.7985
  755MOL0     C 1837   8.174   8.957   3.553  0.6730  1.2434  0.1053
  755MOL0     O 1838   8.229   8.645   3.801  0.9081 -0.0983  0.5339
  755MOL0     C 1839   7.959   8.528   3.597  0.1030  0.2033 -0.5186
  755MOL0     C 1840   7.868   8.426   3.591 -0.1466  0.6373  0.5491
  755MOL0     N 1841   7.660   7.871   3.187 -0.0115  0.2351  0.3072
  755MOL0     N 1842   7.589   7.838   3.087  0.1736  0.5268 -0.4928
  755MOL0     C 1843   6.362   7.547   2.760 -0.0353  0.9567  1.3360
  755MOL0     C 1844   6.227   7.504   2.730  0.1586 -0.4206 -0.1322
  755MOL0     C 1845   5.812   7.543   2.547  0.9101  0.4947 -0.5021
  755MOL0     C 1846   5.729   7.552   2.660  0.5020 -0.4819  0.0125
  755MOL0     C 1847   5.590   7.546   2.647 -0.2909  0.6283  0.8884
  755MOL0     C 1848   5.533   7.534   2.525  0.0002  0.1938 -0.6264
  755MOL0     O 1849   5.395   7.539   2.519  0.5533 -0.2777 -0.4584
  755MOL0     C 1850   5.328   7.460   2.422  0.0223  0.6168 -0.0190
  755MOL0     C 1851   5.176   7.467   2.445  0.1425 -0.8944 -0.4775
  755MOL0     C 1852   5.094   7.374   2.352 -0.3170 -0.5302  0.0002
  755MOL0     C 1853   4.947   7.418   2.353 -0.4565  0.1870  0.7377
  755MOL0     C 1854   4.860   7.345   2.257  0.6327 -0.8655 -0.5281
  755MOL0     C 1855   4.770   7.288   2.195 -0.7047 -0.0121 -0.2111
  755MOL0     C 1856   5.613   7.529   2.411  0.0264  0.4007 -0.3400
  755MOL0     C 1857   5.751   7.541   2.424 -0.2535  0.2264 -0.2249
  755MOL0     H 1858   6.068   7.796   2.686 -1.2116 -2.4276 -0.2489
  755MOL0     H 1859   6.305   7.882   2.729  0.7095  0.0040  2.6984
  755MOL0     H 1860   6.628   7.573   2.751  0.7302  0.1439 -0.4809
  755MOL0     H 1861   6.572   7.650   2.602  0.0733  2.9433 -0.7770
  755MOL0     H 1862   6.794   7.716   2.602  3.1846 -2.1870  1.7560
  755MOL0     H 1863   6.711   7.848   2.689 -1.2716 -0.3040  2.6542
  755MOL0     H 1864   6.803   7.769   2.910 -1.6370  6.3472 -2.5719
  755MOL0     H 1865   6.865   7.620   2.825  0.6052  0.4906  2.9595
  755MOL0     H 1866   6.991   7.814   2.683  3.6393  0.1169 -0.0410
  755MOL0     H 1867   6.941   7.919   2.816  0.2913  0.4065 -2.2679
  755MOL0     H 1868   7.114   7.665   2.849  3.5488  0.5130  1.1498
  755MOL0     H 1869   7.180   7.832   2.826 -0.5327  0.4728 -0.2544
  755MOL0     H 1870   7.045   7.874   3.045  0.4942  0.2509 -0.0710
  755MOL0     H 1871   7.026   7.710   3.061  1.0377 -1.6945  1.0177
  755MOL0     H 1872   7.205   7.791   3.182  0.3626  0.2874  0.0298
  755MOL0     H 1873   7.278   7.677   3.055  1.4297  0.8707 -2.1241
  755MOL0     H 1874   7.289   7.979   3.050  1.1730  0.0244 -0.0389
  755MOL0     H 1875   7.363   7.865   2.933  1.5904 -3.3868 -0.2171
  755MOL0     H 1876   7.366   7.964   3.298 -0.1321  3.2035 -2.4621
  755MOL0     H 1877   7.569   8.014   3.481 -1.5523 -1.0355 -1.6299
  755MOL0     H 1878   7.679   7.875   3.469  0.1035  0.2812  0.5752
  755MOL0     H 1879   7.720   8.162   3.388 -0.3177 -0.8181 -2.0208
  755MOL0     H 1880   7.834   8.042   3.318 -0.0168 -2.1658  0.4387
  755MOL0     H 1881   7.953   8.113   3.501 -0.7248  1.4630  1.7420
  755MOL0     H 1882   7.899   7.949   3.515 -3.2170 -1.0593 -2.1631
  755MOL0     H 1883   7.877   8.048   3.724  2.2298  1.7974 -0.9105
  755MOL0     H 1884   7.715   8.025   3.657 -0.3435 -0.1862  1.6191
  755MOL0     H 1885   7.998   8.217   3.828 -0.5071  1.8014  1.5215
  755MOL0     H 1886   8.189   8.423   3.955 -0.1955 -2.5446  1.2438
  755MOL0     H 1887   8.184   8.267   3.905  2.3297  0.5818  1.6539
  755MOL0     H 1888   8.295   8.366   3.814  0.0315  0.9647 -0.9999
  755MOL0     H 1889   8.436   8.769   3.652 -3.0048 -2.6033 -1.8896
  755MOL0     H 1890   8.533   8.989   3.653  0.4267 -1.1386 -1.1022
  755MOL0     H 1891   8.489   9.258   3.738 -0.4978  2.9475  0.6429
  755MOL0     H 1892   8.611   9.196   3.644  3.6845  4.8859  0.1100
  755MOL0     H 1893   8.485   9.450   3.547 -0.7502 -0.4338 -0.5502
  755MOL0     H 1894   8.601   9.446   3.692  1.3943 -3.3846  0.9816
  755MOL0     H 1895   8.756   9.321   3.541 -0.3237 -0.0554 -1.1782
  755MOL0     H 1896   8.731   9.494   3.524 -0.4910  2.2536 -2.9406
  755MOL0     H 1897   8.763   9.379   3.308 -0.5815  0.6751 -0.5269
  755MOL0     H 1898   8.614   9.273   3.342 -1.1493  0.2121  1.3111
  755MOL0     H 1899   8.482   9.487   3.335  1.2589  0.2521  0.6423
  755MOL0     H 1900   8.550   9.448   3.185  0.0951 -0.6519  0.1173
  755MOL0     H 1901   8.758   9.592   3.306  0.0759  0.7589  0.4771
  755MOL0     H 1902   8.656   9.646   3.163 -0.2166  0.2193 -0.1231
  755MOL0     H 1903   8.611   9.687   3.447 -0.9150 -1.4983 -0.3822
  755MOL0     H 1904   8.491   9.750   3.326  0.1394 -0.9282 -1.7112
  755MOL0     H 1905   8.682   9.889   3.217  2.6754  1.1626  0.3113
  755MOL0     H 1906   8.786   9.827   3.344  2.2743  3.4336 -2.5460
  755MOL0     H 1907   8.203   9.163   3.493  1.0948 -0.2741 -2.1762
  755MOL0     H 1908   8.069   8.958   3.524  0.8395 -1.3017 -0.8430
  755MOL0     H 1909   7.929   8.614   3.538 -1.3744  0.1838  0.1735
  755MOL0     H 1910   7.787   8.442   3.521  1.6433 -0.6975 -1.9795
  755MOL0     H 1911   6.434   7.469   2.782 -2.2096 -1.1966  1.2323
  755MOL0     H 1912   6.180   7.406   2.739 -1.2489  0.2306 -0.2411
  755MOL0     H 1913   5.765   7.554   2.763  2.8228  1.4964 -0.7437
  755MOL0     H 1914   5.530   7.553   2.738 -2.0216 -1.2632 -0.0229
  755MOL0     H 1915   5.356   7.498   2.324 -0.7099 -0.4436 -0.6578
  755MOL0     H 1916   5.353   7.355   2.437 -0.0262  0.8559  2.0146
  755MOL0     H 1917   5.149   7.571   2.425  0.0144 -0.7141  0.5694
  755MOL0     H 1918   5.152   7.443   2.549 -2.4036  0.9766 -0.5376
  755MOL0     H 1919   5.100   7.274   2.397 -0.8902 -0.9568 -0.8310
  755MOL0     H 1920   5.132   7.369   2.250 -1.2139 -4.2352 -0.2907
  755MOL0     H 1921   4.941   7.526   2.335 -0.7027 -0.0170 -0.4832
  755MOL0     H 1922   4.903   7.387   2.448 -0.4840 -0.0870  0.6363
  755MOL0     H 1923   4.700   7.226   2.143 -0.8443 -1.9152  2.0824
  755MOL0     H 1924   5.582   7.523   2.308 -0.1592 -2.5175 -0.2035
  755MOL0     H 1925   5.813   7.557   2.336 -0.1018 -1.6374 -0.5054
  756MOL0     O 1926   9.287   4.198   6.597  0.3911  0.1409  0.4885
  756MOL0     C 1927   9.378   4.272   6.559 -0.6650 -0.3953 -0.1760
  756MOL0     O 1928   9.374   4.389   6.488  0.2513 -0.2683 -0.4564
  756MOL0     C 1929   9.259   4.462   6.506 -0.0917  0.0498 -0.3379
  756MOL0     C 1930   9.254   4.543   6.615 -0.1379 -0.9969 -0.2556
  756MOL0     C 1931   9.153   4.637   6.642  0.3175 -0.0974  0.3540
  756MOL0     C 1932   9.040   4.642   6.562 -0.1528 -0.0507 -0.6124
  756MOL0     O 1933   8.928   4.720   6.586 -0.3296 -0.1567  0.8978
  756MOL0     C 1934   8.945   4.840   6.653  0.3182 -0.3798 -0.7357
  756MOL0     C 1935   8.806   4.909   6.663  1.0058 -0.2966 -0.1450
  756MOL0     C 1936   8.723   4.912   6.530 -0.2551  0.2413  0.2267
  756MOL0     C 1937   8.586   4.981   6.568  0.4134 -0.3696 -0.5242
  756MOL0     C 1938   8.481   4.982   6.451 -0.1186  0.0250  0.8528
  756MOL0     C 1939   8.538   5.070   6.325  0.8290  0.7445  0.0950
  756MOL0     C 1940   8.441   5.059   6.199 -0.3254 -0.3956  0.8792
  756MOL0     C 1941   8.484   5.157   6.086  0.6751  0.3861  0.5225
  756MOL0     N 1942   8.365   5.186   5.999 -0.2722  0.0321 -0.2178
  756MOL0     C 1943   8.260   5.271   6.042 -0.4227 -0.1777  1.0112
  756MOL0     C 1944   8.187   5.298   5.927 -0.3182  0.1003  0.4162
  756MOL0     C 1945   8.066   5.386   5.928  0.0343 -0.1940  0.1287
  756MOL0     C 1946   8.107   5.530   5.944 -0.3163  0.2026 -0.4307
  756MOL0     C 1947   7.988   5.616   5.906 -0.4288  0.0293 -0.0441
  756MOL0     C 1948   7.878   5.611   6.017 -0.1672 -0.5494  0.8679
  756MOL0     O 1949   7.755   5.653   5.969 -0.0119 -0.6896 -0.4616
  756MOL0     C 1950   7.642   5.639   6.048  0.6195  0.8669 -0.4700
  756MOL0     C 1951   7.631   5.550   6.153  0.4229  0.0547  0.3287
  756MOL0     C 1952   7.516   5.528   6.234  0.5391  0.1473  0.5057
  756MOL0     C 1953   7.526   5.405   6.328  0.5618 -0.3873 -0.1281
  756MOL0     C 1954   7.403   5.604   6.209 -0.1066  0.4726  0.0395
  756MOL0     C 1955   7.269   5.587   6.284 -0.8089 -0.8424 -0.7369
  756MOL0     O 1956   7.168   5.672   6.248  0.3173 -0.5090 -0.0812
  756MOL0     C 1957   7.049   5.653   6.313  0.2800  0.0168  0.2092
  756MOL0     C 1958   6.933   5.652   6.233 -0.5826 -0.4556 -0.0571
  756MOL0     C 1959   6.809   5.674   6.292  0.6253 -0.1104 -0.6797
  756MOL0     C 1960   6.788   5.674   6.433  0.0753  0.4334 -0.7133
  756MOL0     O 1961   6.669   5.679   6.498  0.3494  0.1147 -0.2684
  756MOL0     C 1962   6.548   5.682   6.420  0.1951 -0.3569 -0.0017
  756MOL0     C 1963   6.428   5.670   6.512 -0.4100 -0.0585  0.3154
  756MOL0     C 1964   6.433   5.537   6.593 -0.1595  0.1260 -0.5658
  756MOL0     C 1965   6.305   5.511   6.666 -0.5540  0.6056  0.1655
  756MOL0     C 1966   6.306   5.364   6.714 -0.0998 -0.3270 -0.1984
  756MOL0     C 1967   6.183   5.338   6.793 -0.3904 -0.6682 -0.0263
  756MOL0     C 1968   6.188   5.193   6.835 -0.1657 -0.0413  0.5920
  756MOL0     C 1969   6.067   5.138   6.917 -0.6403 -0.5591  0.3416
  756MOL0    Cl 1970   5.909   5.138   6.849 -0.1994  0.0521 -0.2481
  756MOL0     C 1971   6.908   5.662   6.506  0.6017  0.0361 -0.5549
  756MOL0     C 1972   7.036   5.656   6.455  0.6443 -0.0751 -0.2901
  756MOL0     O 1973   7.254   5.489   6.361 -0.3408  0.4910  0.7918
  756MOL0     C 1974   7.405   5.693   6.097  0.8294 -0.6257 -0.6381
  756MOL0     C 1975   7.521   5.707   6.022 -1.3611  0.3875  0.3760
  756MOL0     N 1976   8.251   5.240   5.817  0.3257  0.0976 -0.4184
  756MOL0     N 1977   8.355   5.172   5.859  0.2178 -0.1335  0.0783
  756MOL0     C 1978   9.041   4.554   6.454  0.4403  0.6174  1.1255
  756MOL0     C 1979   9.150   4.469   6.424 -0.3830 -0.3604  0.8447
  756MOL0     C 1980   9.515   4.226   6.599 -0.0405  0.3765  0.3885
  756MOL0     C 1981   9.531   4.089   6.612 -0.3740  0.0084  0.9275
  756MOL0     C 1982   9.659   4.040   6.650  0.2875 -0.0450  0.1346
  756MOL0     C 1983   9.768   4.130   6.666 -0.0373  0.1981 -0.0344
  756MOL0     O 1984   9.880   4.075   6.716 -0.4493  0.1853  0.2811
  756MOL0     C 1985   9.991   4.159   6.739 -0.2681 -0.5787  0.5400
  756MOL0     C 1986  10.065   4.205   6.608 -0.2766  0.1702  0.2417
  756MOL0     C 1987  10.107   4.078   6.538 -0.2444 -1.0557  0.9908
  756MOL0     C 1988  10.233   4.002   6.587 -0.5565  0.1438  0.0752
  756MOL0     C 1989  10.340   4.084   6.647 -0.1014  0.2552 -0.3721
  756MOL0     C 1990  10.424   4.153   6.703  0.3882 -0.6105 -0.3567
  756MOL0     C 1991   9.746   4.271   6.642  0.6587  0.0348  0.9921
  756MOL0     C 1992   9.624   4.317   6.615 -0.6342 -0.1723 -0.3848
  756MOL0     H 1993   9.340   4.560   6.680 -0.5649  1.4382 -0.2605
  756MOL0     H 1994   9.172   4.694   6.732  2.4879  0.0904 -0.1731
  756MOL0     H 1995   8.986   4.816   6.752 -0.4813  0.3836 -0.2017
  756MOL0     H 1996   9.031   4.896   6.614  0.9099 -0.0308  0.9550
  756MOL0     H 1997   8.741   4.850   6.729 -1.9931  2.0792 -0.7455
  756MOL0     H 1998   8.824   5.006   6.710  0.5923 -1.0089  1.5562
  756MOL0     H 1999   8.783   4.963   6.455  1.1300 -0.0491  1.1038
  756MOL0     H 2000   8.707   4.815   6.482  0.0431  0.9935 -1.4285
  756MOL0     H 2001   8.532   4.916   6.639 -0.0897  0.9458  0.3448
  756MOL0     H 2002   8.604   5.082   6.607 -0.9651 -0.7658  1.3109
  756MOL0     H 2003   8.451   4.881   6.423 -2.8122  0.2677  2.4754
  756MOL0     H 2004   8.391   5.038   6.478 -1.7204 -2.0631  0.1109
  756MOL0     H 2005   8.547   5.176   6.351  1.9578  1.3524 -2.4932
  756MOL0     H 2006   8.639   5.034   6.304  0.5282  1.3186 -2.6465
  756MOL0     H 2007   8.452   4.957   6.161 -2.3240  0.0644 -1.1994
  756MOL0     H 2008   8.334   5.074   6.216  0.3004  1.8531  3.4008
  756MOL0     H 2009   8.566   5.104   6.036  0.9421  1.6944 -0.4858
  756MOL0     H 2010   8.522   5.256   6.109 -3.5032  3.1523 -2.8929
  756MOL0     H 2011   8.249   5.317   6.140 -0.9047  0.5262  0.6425
  756MOL0     H 2012   8.013   5.376   5.833 -1.6956 -0.4375  1.0868
  756MOL0     H 2013   7.988   5.357   5.998 -0.0172  0.4603  0.3509
  756MOL0     H 2014   8.183   5.567   5.874 -0.5545  4.2514  1.1760
  756MOL0     H 2015   8.141   5.556   6.045 -2.2190  0.8135  0.0860
  756MOL0     H 2016   7.943   5.578   5.814 -2.7784 -1.8912  1.7576
  756MOL0     H 2017   8.011   5.720   5.882 -3.5451  1.6625  3.0202
  756MOL0     H 2018   7.905   5.674   6.102  1.3929  1.8967 -1.2861
  756MOL0     H 2019   7.868   5.506   6.043 -1.1898 -0.6489  0.1629
  756MOL0     H 2020   7.719   5.495   6.182  1.0786  0.0232 -1.5766
  756MOL0     H 2021   7.463   5.320   6.302  1.2782 -0.8402 -0.3932
  756MOL0     H 2022   7.626   5.363   6.320  0.1381 -1.9854  2.0784
  756MOL0     H 2023   7.511   5.438   6.431 -0.6143  0.8777 -0.6601
  756MOL0     H 2024   6.937   5.636   6.126  1.8721  0.1944 -0.1200
  756MOL0     H 2025   6.728   5.686   6.222  0.9239 -3.4250 -1.7395
  756MOL0     H 2026   6.540   5.770   6.356 -0.6248 -1.5230 -1.5719
  756MOL0     H 2027   6.551   5.602   6.345  2.1561  1.3775 -1.9055
  756MOL0     H 2028   6.410   5.757   6.575  1.9660  1.7533 -1.3658
  756MOL0     H 2029   6.342   5.666   6.443  0.8988 -1.2133 -1.3235
  756MOL0     H 2030   6.519   5.554   6.658  1.5202 -2.5095 -1.9228
  756MOL0     H 2031   6.454   5.455   6.523 -1.3782  0.4374 -1.3295
  756MOL0     H 2032   6.299   5.581   6.750 -0.7860  0.9247 -0.1165
  756MOL0     H 2033   6.225   5.525   6.593  2.0147 -0.2807 -3.1158
  756MOL0     H 2034   6.391   5.350   6.782 -0.7872 -1.3673  0.4677
  756MOL0     H 2035   6.309   5.301   6.625 -1.3416 -0.5900 -0.0631
  756MOL0     H 2036   6.183   5.400   6.883  0.9685  0.4770 -0.7700
  756MOL0     H 2037   6.095   5.368   6.736  0.7667  2.4477 -0.3897
  756MOL0     H 2038   6.277   5.165   6.893  0.1607  0.8910  0.5629
  756MOL0     H 2039   6.189   5.135   6.743 -2.0292  0.6892  0.0751
  756MOL0     H 2040   6.060   5.208   7.001 -0.2651 -0.1775  0.0571
  756MOL0     H 2041   6.088   5.031   6.929  0.5786 -1.1205 -4.5358
  756MOL0     H 2042   6.902   5.674   6.614  0.5923  0.2175 -0.5750
  756MOL0     H 2043   7.124   5.668   6.517 -0.3758 -0.0932  1.2223
  756MOL0     H 2044   7.323   5.761   6.075  0.9315 -0.8842 -1.8739
  756MOL0     H 2045   7.511   5.774   5.938 -0.4304 -2.2355 -1.9963
  756MOL0     H 2046   8.958   4.561   6.385  2.5859  2.9149 -1.5076
  756MOL0     H 2047   9.142   4.412   6.332 -1.4089  2.3185 -0.8274
  756MOL0     H 2048   9.460   4.009   6.597  0.3543 -0.3118 -1.2422
  756MOL0     H 2049   9.678   3.933   6.655 -0.3923 -0.0953  2.3183
  756MOL0     H 2050   9.963   4.252   6.789  0.1875 -0.2376  0.1746
  756MOL0     H 2051  10.062   4.107   6.804  1.3652  0.2827 -0.4845
  756MOL0     H 2052  10.148   4.265   6.648  1.1459 -2.5962  1.7504
  756MOL0     H 2053   9.992   4.263   6.551 -1.3042  0.7769  2.0817
  756MOL0     H 2054  10.120   4.103   6.433 -0.5459 -0.3736  1.1101
  756MOL0     H 2055  10.023   4.008   6.532 -2.9550  1.7540  2.6069
  756MOL0     H 2056  10.279   3.961   6.496 -0.6818 -0.3387  0.2274
  756MOL0     H 2057  10.208   3.918   6.652  3.2127 -2.6677 -1.6805
  756MOL0     H 2058  10.505   4.207   6.749 -1.5552  0.7628  1.6677
  756MOL0     H 2059   9.828   4.341   6.635 -0.3625  1.1035 -2.0984
  756MOL0     H 2060   9.605   4.417   6.578  1.2907 -0.0931 -1.2705
  757MOL0     O 2061   0.996   5.359   8.567 -1.0635  0.4559 -0.2993
  757MOL0     C 2062   1.060   5.424   8.652 -0.2139  0.3058  0.5724
  757MOL0     O 2063   1.026   5.538   8.701  0.3474 -0.3200  0.2505
  757MOL0     C 2064   0.908   5.592   8.647  0.5332 -0.4633 -0.5745
  757MOL0     C 2065   0.786   5.560   8.700 -0.5673 -0.4606 -0.0150
  757MOL0     C 2066   0.669   5.625   8.656 -0.0275  1.3431  0.0202
  757MOL0     C 2067   0.677   5.706   8.543  0.4389  0.0854 -0.2776
  757MOL0     O 2068   0.572   5.788   8.499 -0.1916  0.2171  0.1173
  757MOL0     C 2069   0.435   5.748   8.536  0.5176  0.3643  0.5155
  757MOL0     C 2070   0.362   5.817   8.429 -0.3385  0.4584 -0.1969
  757MOL0     C 2071   0.211   5.787   8.447 -0.0275  0.3750 -0.0292
  757MOL0     C 2072   0.134   5.889   8.365 -0.8761  1.3812  0.5226
  757MOL0     C 2073  -0.014   5.887   8.407  0.2790 -0.2719 -0.0325
  757MOL0     C 2074  -0.096   5.996   8.332 -0.7127  1.0736  0.2114
  757MOL0     C 2075  -0.242   5.983   8.378 -0.3723 -0.6360  0.5905
  757MOL0     C 2076  -0.283   6.034   8.515  0.1306  0.6876 -0.1255
  757MOL0     N 2077  -0.425   6.014   8.537  0.7790 -0.3503 -0.1062
  757MOL0     C 2078  -0.490   5.909   8.597 -1.0860  0.4255 -0.9626
  757MOL0     C 2079  -0.624   5.927   8.569  0.1297  0.8954  0.2751
  757MOL0     C 2080  -0.738   5.843   8.607 -0.0326 -0.8843 -0.5086
  757MOL0     C 2081  -0.853   5.903   8.693 -0.4169  0.0797 -0.1577
  757MOL0     C 2082  -0.968   5.954   8.600 -0.7983  0.2106 -0.1504
  757MOL0     C 2083  -1.085   5.858   8.576  0.0927  0.0777 -0.3411
  757MOL0     O 2084  -1.190   5.941   8.522 -0.5480  0.1135 -0.5518
  757MOL0     C 2085  -1.307   5.882   8.484 -0.3831  0.1495  0.1305
  757MOL0     C 2086  -1.398   5.973   8.430  1.4453 -0.4788  0.1416
  757MOL0     C 2087  -1.530   5.947   8.404 -0.1390  0.0893  0.4325
  757MOL0     C 2088  -1.611   6.070   8.377  0.3406  0.2575  0.4498
  757MOL0     C 2089  -1.580   5.814   8.417 -0.5080  0.8543 -0.2519
  757MOL0     C 2090  -1.721   5.770   8.407  0.2567  0.2997  0.0637
  757MOL0     O 2091  -1.795   5.863   8.347 -0.2323 -0.8373 -0.2272
  757MOL0     C 2092  -1.935   5.863   8.351  0.6160 -0.0701 -0.4704
  757MOL0     C 2093  -2.017   5.749   8.350 -0.0827  0.4757 -0.1668
  757MOL0     C 2094  -2.158   5.763   8.340 -0.9864  0.4606  0.2622
  757MOL0     C 2095  -2.210   5.891   8.334  0.5666  0.8988 -1.2044
  757MOL0     O 2096  -2.344   5.914   8.329 -0.2332 -0.7287 -0.1090
  757MOL0     C 2097  -2.425   5.830   8.240  0.3970  0.0032 -0.6433
  757MOL0     C 2098  -2.575   5.856   8.258 -0.0046 -0.6413  0.1141
  757MOL0     C 2099  -2.657   5.767   8.156 -0.9199 -0.0577 -0.6386
  757MOL0     C 2100  -2.799   5.804   8.163 -0.1931  0.1880 -0.5094
  757MOL0     C 2101  -2.898   5.717   8.086 -0.2717  0.3925 -0.3388
  757MOL0     C 2102  -2.897   5.581   8.141  0.4438 -0.0825 -0.1422
  757MOL0     C 2103  -3.037   5.516   8.159 -0.5594  0.4037 -0.0644
  757MOL0     C 2104  -3.116   5.563   8.282 -0.4594  0.0278  0.0986
  757MOL0    Cl 2105  -3.261   5.476   8.276 -0.0417  0.0968 -0.6164
  757MOL0     C 2106  -2.132   6.003   8.346 -0.7413 -1.2610 -1.1548
  757MOL0     C 2107  -1.992   5.988   8.341  0.2923 -0.0441 -0.0225
  757MOL0     O 2108  -1.762   5.679   8.480 -0.1238 -0.0390  0.7997
  757MOL0     C 2109  -1.483   5.717   8.457  0.0100  0.1208  0.9414
  757MOL0     C 2110  -1.352   5.750   8.491 -1.0326  0.4087  0.8650
  757MOL0     N 2111  -0.631   6.026   8.474 -0.0473  0.1950 -0.3894
  757MOL0     N 2112  -0.522   6.090   8.472  0.2723 -0.2056  0.6952
  757MOL0     C 2113   0.795   5.735   8.490 -0.1412  0.2879 -0.4593
  757MOL0     C 2114   0.914   5.681   8.544 -0.7564  0.7312  0.5515
  757MOL0     C 2115   1.198   5.378   8.683  0.4099 -0.5742  0.2604
  757MOL0     C 2116   1.259   5.281   8.598 -0.1317  0.1698 -0.4379
  757MOL0     C 2117   1.387   5.243   8.629  0.0664  0.3182 -0.4166
  757MOL0     C 2118   1.462   5.300   8.729 -0.1313 -0.3810  0.6545
  757MOL0     O 2119   1.596   5.252   8.742 -0.1487 -0.2328  0.1589
  757MOL0     C 2120   1.678   5.321   8.841 -0.5102 -0.2734  0.4557
  757MOL0     C 2121   1.649   5.243   8.974  0.2771  0.8668  0.3043
  757MOL0     C 2122   1.746   5.266   9.096  0.0766  0.2675  0.2257
  757MOL0     C 2123   1.764   5.410   9.141 -0.1526 -0.3552 -0.0539
  757MOL0     C 2124   1.856   5.414   9.255 -0.8280  0.7346 -0.3345
  757MOL0     C 2125   1.919   5.403   9.364  0.5535 -0.8470  0.0184
  757MOL0     C 2126   1.394   5.400   8.808 -0.5490 -0.6165  0.5229
  757MOL0     C 2127   1.267   5.442   8.782  0.0267  0.4070 -0.4716
  757MOL0     H 2128   0.788   5.482   8.776  1.6607 -1.9822 -1.5234
  757MOL0     H 2129   0.575   5.605   8.707 -0.3332 -1.1845 -1.3784
  757MOL0     H 2130   0.413   5.642   8.527 -1.6922  0.9217 -2.3639
  757MOL0     H 2131   0.406   5.784   8.635  2.3116  0.3421  1.0801
  757MOL0     H 2132   0.388   5.922   8.445 -1.6869  0.7418  0.3093
  757MOL0     H 2133   0.403   5.784   8.333  0.0060 -0.6511  0.3244
  757MOL0     H 2134   0.184   5.688   8.409  0.2456  0.8755 -1.5885
  757MOL0     H 2135   0.188   5.813   8.551  1.6885  2.2904 -0.0660
  757MOL0     H 2136   0.175   5.990   8.381  2.6373 -0.3244  3.8924
  757MOL0     H 2137   0.138   5.880   8.256 -1.9317 -0.6357  0.6120
  757MOL0     H 2138  -0.057   5.790   8.382 -1.0067  0.5290 -1.0760
  757MOL0     H 2139  -0.035   5.909   8.512 -2.2870 -1.0189 -0.3326
  757MOL0     H 2140  -0.053   6.094   8.351  2.3866 -0.3339  1.1199
  757MOL0     H 2141  -0.084   5.978   8.225 -1.1664  1.3286  0.1144
  757MOL0     H 2142  -0.306   6.034   8.305  0.0449 -2.4274 -1.1178
  757MOL0     H 2143  -0.267   5.878   8.359  2.5957 -1.3018 -0.1741
  757MOL0     H 2144  -0.269   6.142   8.522  0.5550  0.6433 -0.2630
  757MOL0     H 2145  -0.229   5.985   8.597 -3.8090 -1.4668  1.4858
  757MOL0     H 2146  -0.453   5.847   8.678  0.0118  1.7629 -0.4007
  757MOL0     H 2147  -0.780   5.797   8.517 -1.5516 -0.2180 -0.1661
  757MOL0     H 2148  -0.698   5.754   8.657  0.2943  0.0179  0.8627
  757MOL0     H 2149  -0.821   5.982   8.762 -1.1836 -0.6454  1.0836
  757MOL0     H 2150  -0.884   5.819   8.757  1.8735  0.3688  1.4518
  757MOL0     H 2151  -0.924   5.992   8.508 -1.6889  0.3508 -0.5349
  757MOL0     H 2152  -0.998   6.041   8.659  0.9818  1.6415 -1.2583
  757MOL0     H 2153  -1.112   5.805   8.668 -0.3016  0.7502 -0.0596
  757MOL0     H 2154  -1.049   5.782   8.505  2.5741  3.5453 -3.1812
  757MOL0     H 2155  -1.365   6.076   8.432  0.1872 -0.0515  2.4734
  757MOL0     H 2156  -1.548   6.158   8.392  1.4341 -0.4053 -0.1321
  757MOL0     H 2157  -1.644   6.078   8.273  1.3459  0.3792  0.1350
  757MOL0     H 2158  -1.690   6.077   8.452 -0.4466  0.5131 -0.3823
  757MOL0     H 2159  -1.981   5.646   8.354 -0.4028  0.2695 -1.9402
  757MOL0     H 2160  -2.217   5.672   8.344  0.8935 -0.7649  1.5901
  757MOL0     H 2161  -2.385   5.829   8.139  1.1893 -1.1979 -0.3486
  757MOL0     H 2162  -2.425   5.727   8.277 -3.4718 -0.1838 -0.8254
  757MOL0     H 2163  -2.612   5.834   8.358 -3.4159  1.0743 -0.6080
  757MOL0     H 2164  -2.583   5.961   8.230 -1.4220 -0.6097  0.5184
  757MOL0     H 2165  -2.645   5.662   8.184 -0.5544  0.4126  1.0838
  757MOL0     H 2166  -2.624   5.797   8.056  0.8333  6.5720  1.3658
  757MOL0     H 2167  -2.823   5.814   8.270  2.5416 -0.3722  0.2403
  757MOL0     H 2168  -2.821   5.903   8.121  0.2602  0.3247 -0.4241
  757MOL0     H 2169  -2.870   5.717   7.980  3.6061  0.2107  0.5125
  757MOL0     H 2170  -2.996   5.764   8.077 -0.0177  0.8371 -0.9409
  757MOL0     H 2171  -2.835   5.522   8.072 -2.6546  1.2861 -4.5710
  757MOL0     H 2172  -2.863   5.587   8.245 -0.3913 -1.2060  0.2173
  757MOL0     H 2173  -3.020   5.408   8.167 -0.5334  0.5509  3.1148
  757MOL0     H 2174  -3.093   5.542   8.068 -1.0820  1.9438  0.6746
  757MOL0     H 2175  -3.132   5.671   8.287 -2.6501 -0.2329 -0.6079
  757MOL0     H 2176  -3.071   5.540   8.379 -2.1625  0.8156  1.1302
  757MOL0     H 2177  -2.179   6.100   8.339  0.0050 -0.9893 -2.7348
  757MOL0     H 2178  -1.934   6.078   8.324 -0.8403  0.6064 -0.5670
  757MOL0     H 2179  -1.521   5.619   8.484 -0.9113  0.7984  2.2355
  757MOL0     H 2180  -1.276   5.678   8.522  1.0352  1.5820 -1.1839
  757MOL0     H 2181   0.802   5.803   8.406  0.1523  0.0137 -0.6599
  757MOL0     H 2182   1.011   5.713   8.505 -0.1020  0.5839  1.9660
  757MOL0     H 2183   1.199   5.234   8.520  0.7657 -0.8081 -0.5666
  757MOL0     H 2184   1.439   5.165   8.574  0.2834 -1.8198  2.5385
  757MOL0     H 2185   1.784   5.327   8.815  0.3043  1.4019  3.5833
  757MOL0     H 2186   1.665   5.430   8.843  2.8882  0.2830 -0.1538
  757MOL0     H 2187   1.654   5.134   8.961 -1.9134  0.8669 -1.1656
  757MOL0     H 2188   1.543   5.252   8.998  0.3013 -0.5944  1.0526
  757MOL0     H 2189   1.845   5.222   9.076 -0.9939 -0.5694 -4.5523
  757MOL0     H 2190   1.708   5.209   9.181 -0.4425 -0.5602 -0.5364
  757MOL0     H 2191   1.667   5.452   9.169  0.6538  1.7908 -0.2326
  757MOL0     H 2192   1.794   5.469   9.053 -2.5326 -0.0599 -0.7446
  757MOL0     H 2193   1.962   5.403   9.462 -0.0416  1.3902  0.3326
  757MOL0     H 2194   1.450   5.452   8.885 -0.8775 -0.2926  0.5450
  757MOL0     H 2195   1.224   5.523   8.841  1.3666  0.4668  0.4721
  758MOL0     O 2196   5.931   0.372   5.014  0.2263  0.6258  0.3804
  758MOL0     C 2197   5.878   0.287   4.949  0.0861  0.2417  0.6147
  758MOL0     O 2198   5.931   0.162   4.936  0.4397 -0.8408 -0.2871
  758MOL0     C 2199   6.042   0.130   5.009  0.0116  0.4003 -0.0706
  758MOL0     C 2200   6.053   0.151   5.142  0.2812  0.4087  0.0501
  758MOL0     C 2201   6.172   0.128   5.214  0.0530  0.4584  0.6923
  758MOL0     C 2202   6.280   0.064   5.151 -0.3882 -0.2023 -0.0525
  758MOL0     O 2203   6.386   0.043   5.226 -0.6425  1.0063  0.0670
  758MOL0     C 2204   6.482  -0.051   5.178 -0.7242 -0.0861 -0.4233
  758MOL0     C 2205   6.608  -0.067   5.263 -0.1331  0.3889 -0.2226
  758MOL0     C 2206   6.705   0.041   5.242 -0.4227 -0.2114  0.5408
  758MOL0     C 2207   6.818   0.061   5.346 -0.1359 -0.4644  0.5981
  758MOL0     C 2208   6.902   0.183   5.316  0.1171  0.1250 -0.6187
  758MOL0     C 2209   7.021   0.188   5.417 -0.9443 -0.5705  0.2703
  758MOL0     C 2210   7.131   0.085   5.373  0.3746 -0.1705  0.2113
  758MOL0     C 2211   7.243   0.076   5.484 -0.2414  0.0009  0.9619
  758MOL0     N 2212   7.195   0.091   5.620 -0.0612 -0.6960  0.0943
  758MOL0     C 2213   7.129   0.008   5.703 -0.2039  0.8094  0.0898
  758MOL0     C 2214   7.104   0.075   5.818  0.5098 -0.5472 -0.4291
  758MOL0     C 2215   7.029   0.021   5.933  0.3582  0.0810 -0.5444
  758MOL0     C 2216   6.876   0.059   5.922  0.4585 -0.5357  0.0381
  758MOL0     C 2217   6.814   0.009   6.051 -0.1098 -0.2458  0.6728
  758MOL0     C 2218   6.667   0.055   6.075  0.5580  0.6520  0.0088
  758MOL0     O 2219   6.581  -0.019   5.986 -0.0228  0.2920 -0.6040
  758MOL0     C 2220   6.449  -0.026   6.018  0.5716  0.0038  0.3013
  758MOL0     C 2221   6.369   0.063   6.097  0.5232 -0.4253  0.7807
  758MOL0     C 2222   6.240   0.037   6.142  0.2452  1.3558  0.3285
  758MOL0     C 2223   6.189   0.151   6.220 -0.3062  0.0377 -0.2028
  758MOL0     C 2224   6.172  -0.080   6.091 -0.2660  0.1225 -0.8430
  758MOL0     C 2225   6.025  -0.099   6.123  0.3288  0.2580 -0.1009
  758MOL0     O 2226   5.973  -0.220   6.080 -0.4909  0.0324 -0.1484
  758MOL0     C 2227   5.843  -0.262   6.099  0.0955 -0.5093  0.9582
  758MOL0     C 2228   5.760  -0.209   6.204 -1.2425  0.0499 -0.0055
  758MOL0     C 2229   5.626  -0.242   6.230 -0.2950 -0.0339  0.4890
  758MOL0     C 2230   5.559  -0.323   6.132  0.1303 -0.1901 -0.5289
  758MOL0     O 2231   5.435  -0.351   6.155  0.7766  0.3119  0.3519
  758MOL0     C 2232   5.353  -0.402   6.045 -0.1779  0.5211  0.4538
  758MOL0     C 2233   5.215  -0.380   6.098  1.0069  0.0048 -0.5829
  758MOL0     C 2234   5.175  -0.238   6.147  0.0331  0.6922  0.5789
  758MOL0     C 2235   5.145  -0.140   6.031 -0.8954  0.0671  0.4331
  758MOL0     C 2236   5.008  -0.153   5.968 -0.0346  0.0861  0.1427
  758MOL0     C 2237   4.895  -0.117   6.061 -0.1753  0.8766 -0.4105
  758MOL0     C 2238   4.771  -0.125   5.967  0.9090 -0.3050  0.0766
  758MOL0     C 2239   4.642  -0.156   6.039 -0.1232 -0.6111  0.1078
  758MOL0    Cl 2240   4.626  -0.318   6.098  0.0058  0.0547  0.0711
  758MOL0     C 2241   5.641  -0.387   6.040 -0.2268 -0.4330  0.0480
  758MOL0     C 2242   5.779  -0.354   6.021  0.1876 -0.2857 -0.0612
  758MOL0     O 2243   5.958  -0.005   6.154 -0.0089 -0.6281 -0.5319
  758MOL0     C 2244   6.245  -0.166   6.004  0.6602 -0.4197 -0.3832
  758MOL0     C 2245   6.379  -0.143   5.968 -0.7694  0.0610  0.4194
  758MOL0     N 2246   7.165   0.197   5.809  0.1698  0.0463 -0.4679
  758MOL0     N 2247   7.219   0.204   5.693  0.5466  0.3769  0.6597
  758MOL0     C 2248   6.265   0.032   5.014  0.3856 -0.1174 -0.6530
  758MOL0     C 2249   6.147   0.076   4.944 -0.0845  0.6569 -0.2360
  758MOL0     C 2250   5.734   0.306   4.894 -0.3373  1.0325 -0.5566
  758MOL0     C 2251   5.702   0.428   4.842  0.4438  0.3354 -0.1455
  758MOL0     C 2252   5.579   0.445   4.781  0.2600 -1.0806  0.4301
  758MOL0     C 2253   5.481   0.345   4.785 -0.2735  1.0153 -0.3216
  758MOL0     O 2254   5.360   0.382   4.715  0.0916  0.3118 -0.1063
  758MOL0     C 2255   5.246   0.285   4.710  0.0018 -0.1908 -0.0599
  758MOL0     C 2256   5.147   0.303   4.825 -0.2302 -0.0494  1.1418
  758MOL0     C 2257   5.078   0.439   4.813  0.0916 -0.5306 -0.0050
  758MOL0     C 2258   5.007   0.477   4.947 -0.0199 -0.2282 -0.5436
  758MOL0     C 2259   4.882   0.555   4.926 -0.3696 -0.0104 -0.5463
  758MOL0     C 2260   4.778   0.621   4.933 -0.4348 -0.0012  0.0222
  758MOL0     C 2261   5.518   0.218   4.847  0.3001 -0.0238  0.1858
  758MOL0     C 2262   5.649   0.202   4.889  0.3644  0.8065  0.1346
  758MOL0     H 2263   5.976   0.201   5.200 -0.1089 -1.0892  0.8722
  758MOL0     H 2264   6.178   0.165   5.315  0.3049 -1.7385  1.5529
  758MOL0     H 2265   6.435  -0.146   5.151 -0.7960 -0.4696  0.9912
  758MOL0     H 2266   6.531  -0.011   5.089 -0.2750 -0.1179 -0.1929
  758MOL0     H 2267   6.562  -0.059   5.362 -0.4345  2.8903 -0.4864
  758MOL0     H 2268   6.651  -0.166   5.249 -1.8977 -0.4281 -0.0839
  758MOL0     H 2269   6.747   0.034   5.141  1.4270  0.5175  1.2192
  758MOL0     H 2270   6.657   0.139   5.251  3.3668  1.7186  1.9735
  758MOL0     H 2271   6.768   0.084   5.440  0.2081  6.3519 -0.4173
  758MOL0     H 2272   6.882  -0.028   5.352  2.4239  0.9459 -2.5924
  758MOL0     H 2273   6.935   0.166   5.214 -1.0171 -1.4493 -0.7653
  758MOL0     H 2274   6.846   0.277   5.326 -0.4356 -0.3043  0.4961
  758MOL0     H 2275   7.071   0.283   5.438 -1.9248 -0.2874  1.4442
  758MOL0     H 2276   6.981   0.166   5.517 -0.6793  2.1124  1.0340
  758MOL0     H 2277   7.088  -0.014   5.361 -0.5639  0.1780  0.6347
  758MOL0     H 2278   7.174   0.108   5.275 -2.0689  0.8355 -0.7195
  758MOL0     H 2279   7.316   0.155   5.467 -0.2052 -0.2152  0.1088
  758MOL0     H 2280   7.296  -0.017   5.461 -0.6078  0.3848 -1.7455
  758MOL0     H 2281   7.096  -0.092   5.679  0.7935  0.2093  1.1554
  758MOL0     H 2282   7.020  -0.085   5.908 -2.5865  0.3133 -0.8252
  758MOL0     H 2283   7.068   0.040   6.033 -0.8716 -0.3065  0.0247
  758MOL0     H 2284   6.826   0.009   5.838 -1.1070 -0.8048  1.0936
  758MOL0     H 2285   6.853   0.166   5.909  2.0771  0.0523  1.5484
  758MOL0     H 2286   6.865   0.052   6.138 -2.3709  1.7362  1.1250
  758MOL0     H 2287   6.827  -0.099   6.055  1.0738 -0.0663  3.1057
  758MOL0     H 2288   6.656   0.164   6.072 -0.2891  0.6861  2.4493
  758MOL0     H 2289   6.638   0.022   6.175  0.2441 -0.9554 -0.5659
  758MOL0     H 2290   6.414   0.153   6.138  0.6618  0.6792 -1.6088
  758MOL0     H 2291   6.127   0.215   6.156  1.4964  0.2061 -1.8971
  758MOL0     H 2292   6.128   0.108   6.300  0.2643 -1.8540 -0.7398
  758MOL0     H 2293   6.267   0.208   6.270  0.0215 -1.6263  1.2697
  758MOL0     H 2294   5.795  -0.143   6.283  0.0232 -1.3927  0.6904
  758MOL0     H 2295   5.576  -0.197   6.316  0.2412  0.9894  0.2843
  758MOL0     H 2296   5.359  -0.349   5.950 -0.6680 -2.5462 -1.4088
  758MOL0     H 2297   5.364  -0.509   6.026  0.5646  0.9781 -2.0792
  758MOL0     H 2298   5.146  -0.419   6.023 -0.6387 -1.3115  1.4808
  758MOL0     H 2299   5.198  -0.446   6.184 -0.4646  1.1921  0.0772
  758MOL0     H 2300   5.256  -0.191   6.204 -1.4303  1.6761  1.9371
  758MOL0     H 2301   5.094  -0.234   6.220  1.3036 -0.7224  2.1672
  758MOL0     H 2302   5.157  -0.036   6.064  1.4874 -0.3309  0.9716
  758MOL0     H 2303   5.217  -0.160   5.951  1.3488  2.9170  1.5557
  758MOL0     H 2304   4.997  -0.257   5.938  1.1438 -0.4402  1.3836
  758MOL0     H 2305   5.003  -0.092   5.877  0.9865 -2.7718 -1.9506
  758MOL0     H 2306   4.889  -0.194   6.139  0.5829  1.3965  0.1749
  758MOL0     H 2307   4.907  -0.020   6.111 -1.3033  0.2222  1.2465
  758MOL0     H 2308   4.782  -0.188   5.878 -1.8760 -0.2058 -0.4396
  758MOL0     H 2309   4.777  -0.023   5.928 -0.6772 -0.8689 -1.8571
  758MOL0     H 2310   4.558  -0.136   5.971 -1.3030 -0.5542  1.5460
  758MOL0     H 2311   4.627  -0.086   6.122 -0.7747  1.6436 -1.7686
  758MOL0     H 2312   5.594  -0.464   5.980 -0.9414 -0.0925  0.1713
  758MOL0     H 2313   5.825  -0.400   5.934  0.5456  1.0035 -0.5821
  758MOL0     H 2314   6.197  -0.253   5.961  1.9836 -0.7386 -1.2834
  758MOL0     H 2315   6.446  -0.196   5.901 -2.0915  0.3521 -1.2077
  758MOL0     H 2316   6.341  -0.021   4.956  2.8907 -0.7908  2.9144
  758MOL0     H 2317   6.131   0.051   4.839 -2.7364  0.7659  0.0953
  758MOL0     H 2318   5.772   0.512   4.849  2.1857 -1.1399  1.1497
  758MOL0     H 2319   5.559   0.545   4.744  2.3846 -0.8831 -0.3207
  758MOL0     H 2320   5.187   0.298   4.619  0.2007  0.7984 -0.0570
  758MOL0     H 2321   5.268   0.178   4.719  0.5331 -0.0814 -0.0764
  758MOL0     H 2322   5.196   0.300   4.922  0.5577 -1.2512  0.7192
  758MOL0     H 2323   5.079   0.218   4.811 -0.4207  0.3891 -0.9804
  758MOL0     H 2324   5.004   0.427   4.733 -0.1331 -3.2877  0.4882
  758MOL0     H 2325   5.146   0.520   4.787 -1.2190  0.5528 -0.1421
  758MOL0     H 2326   5.081   0.518   5.017 -1.4024 -0.2893  1.0320
  758MOL0     H 2327   4.975   0.392   5.007 -2.8454  0.7205 -0.5747
  758MOL0     H 2328   4.681   0.665   4.938 -0.3151  0.1651  1.1543
  758MOL0     H 2329   5.450   0.134   4.856 -0.8661 -0.1463 -5.5840
  758MOL0     H 2330   5.674   0.103   4.927 -0.5703 -0.1074 -1.4961
  759MOL0     O 2331   2.547   6.270   7.878  0.6777 -0.7659  0.1369
  759MOL0     C 2332   2.633   6.247   7.958  0.0889  0.6415  0.5494
  759MOL0     O 2333   2.633   6.235   8.097  0.1142  0.1214 -0.2683
  759MOL0     C 2334   2.512   6.257   8.157  0.2233 -0.1055  0.7845
  759MOL0     C 2335   2.500   6.360   8.253  0.4685  0.0758  0.2225
  759MOL0     C 2336   2.367   6.388   8.301  0.4641  0.4095  0.2870
  759MOL0     C 2337   2.254   6.328   8.247 -0.8435  0.4124 -0.2754
  759MOL0     O 2338   2.128   6.378   8.285  0.3427 -0.1960  0.8023
  759MOL0     C 2339   2.016   6.337   8.201  0.7149  0.3314 -0.0101
  759MOL0     C 2340   1.904   6.442   8.210  0.6130 -0.3034  0.1771
  759MOL0     C 2341   1.775   6.413   8.129 -0.7531  0.2632  0.3762
  759MOL0     C 2342   1.794   6.421   7.981 -0.2779 -0.1914  0.2900
  759MOL0     C 2343   1.872   6.542   7.926 -0.4763  0.1923  0.1540
  759MOL0     C 2344   1.816   6.675   7.969 -0.0137  0.3518 -0.5036
  759MOL0     C 2345   1.687   6.701   7.906 -0.2931 -0.0873  0.3115
  759MOL0     C 2346   1.698   6.827   7.816 -0.0587 -0.5794 -0.3562
  759MOL0     N 2347   1.569   6.838   7.751  0.4014 -0.0623 -0.6592
  759MOL0     C 2348   1.547   6.816   7.614 -0.0571  1.1080 -0.0943
  759MOL0     C 2349   1.411   6.825   7.602 -0.0396 -0.7636 -0.7323
  759MOL0     C 2350   1.331   6.829   7.478  0.2518  0.5034  0.0218
  759MOL0     C 2351   1.301   6.975   7.426  0.0317  0.2169 -0.3958
  759MOL0     C 2352   1.169   6.983   7.346  0.8070  0.1196 -0.4564
  759MOL0     C 2353   1.109   7.126   7.364 -0.4600 -0.6199  0.3344
  759MOL0     O 2354   1.015   7.158   7.257  0.6150 -0.0231 -0.2935
  759MOL0     C 2355   0.881   7.131   7.273 -0.0789 -0.5238  1.5664
  759MOL0     C 2356   0.813   7.094   7.387  0.2030  0.3157  0.2678
  759MOL0     C 2357   0.677   7.063   7.382  0.3742 -0.0928 -0.4525
  759MOL0     C 2358   0.607   7.034   7.512  0.2422  0.4225 -1.2676
  759MOL0     C 2359   0.606   7.062   7.257  0.6449 -0.4371  0.2735
  759MOL0     C 2360   0.459   7.043   7.243  0.3851 -0.5786 -0.8736
  759MOL0     O 2361   0.407   7.087   7.128  0.0476  1.1821  0.0861
  759MOL0     C 2362   0.276   7.045   7.106 -0.4812  0.7204 -0.2091
  759MOL0     C 2363   0.231   6.966   7.006 -0.0867 -0.2955 -0.7679
  759MOL0     C 2364   0.101   6.921   6.999  0.3354 -0.1826  0.7379
  759MOL0     C 2365   0.002   6.970   7.085 -0.6042  1.6360 -0.2858
  759MOL0     O 2366  -0.124   6.936   7.056  0.8172  0.4644  0.3324
  759MOL0     C 2367  -0.222   6.962   7.154  0.8547  0.7687 -1.3626
  759MOL0     C 2368  -0.268   6.843   7.243  0.0504  1.1998  0.5218
  759MOL0     C 2369  -0.149   6.786   7.309 -0.4891 -0.1048 -0.2345
  759MOL0     C 2370  -0.166   6.664   7.402 -0.1169 -0.4323  0.4792
  759MOL0     C 2371  -0.035   6.574   7.412 -0.1238 -0.8221 -0.1879
  759MOL0     C 2372  -0.034   6.514   7.547  0.8649 -0.1297 -0.1912
  759MOL0     C 2373  -0.162   6.430   7.576 -0.8793  0.3774  0.0248
  759MOL0     C 2374  -0.188   6.318   7.480 -0.1094  0.1531  0.8515
  759MOL0    Cl 2375  -0.043   6.209   7.465  0.1055  0.4530  0.0684
  759MOL0     C 2376   0.047   7.052   7.194  1.0511  0.2005  0.4935
  759MOL0     C 2377   0.178   7.092   7.192  0.1064 -0.0834 -0.5111
  759MOL0     O 2378   0.394   6.996   7.335  0.1175  0.8841 -0.1114
  759MOL0     C 2379   0.678   7.087   7.142 -0.3597  0.6862 -0.4304
  759MOL0     C 2380   0.815   7.117   7.147 -0.4277  0.1050 -0.4028
  759MOL0     N 2381   1.357   6.865   7.727 -0.2559  0.3178 -0.7154
  759MOL0     N 2382   1.449   6.868   7.812 -0.8030 -0.5066 -0.2362
  759MOL0     C 2383   2.269   6.210   8.167 -0.3706 -0.2113 -0.1288
  759MOL0     C 2384   2.399   6.172   8.128  0.5609  0.2628  0.0368
  759MOL0     C 2385   2.769   6.212   7.894  0.2214  0.5136 -0.8157
  759MOL0     C 2386   2.781   6.181   7.760  0.4721 -0.4649  0.6082
  759MOL0     C 2387   2.902   6.150   7.695 -0.3248 -0.1126  0.0023
  759MOL0     C 2388   3.015   6.142   7.780  0.9370 -0.4126 -0.8919
  759MOL0     O 2389   3.143   6.103   7.741 -0.0313 -0.6879 -0.3302
  759MOL0     C 2390   3.168   6.091   7.601  0.4252  0.5550 -0.0392
  759MOL0     C 2391   3.307   6.056   7.557 -0.1402 -0.0380  0.5010
  759MOL0     C 2392   3.410   6.173   7.564 -0.1887 -0.1012  1.0139
  759MOL0     C 2393   3.549   6.124   7.522  0.0099  0.0209  0.1811
  759MOL0     C 2394   3.652   6.215   7.571 -0.4056  0.8600  0.5766
  759MOL0     C 2395   3.740   6.290   7.607 -0.1947 -1.0296 -0.0899
  759MOL0     C 2396   3.001   6.170   7.916  0.1289  0.4164  0.0043
  759MOL0     C 2397   2.883   6.219   7.972 -0.4919 -0.1813 -0.0719
  759MOL0     H 2398   2.589   6.402   8.299  0.8069 -2.2826  1.9358
  759MOL0     H 2399   2.358   6.470   8.371  2.8561  2.2696 -1.3988
  759MOL0     H 2400   2.046   6.348   8.096 -0.3660  0.6080 -0.3145
  759MOL0     H 2401   1.973   6.240   8.227  1.5438  0.3426  1.5164
  759MOL0     H 2402   1.875   6.463   8.313 -2.4537 -1.6426 -0.2905
  759MOL0     H 2403   1.954   6.535   8.180 -0.6064  1.1802  2.4055
  759MOL0     H 2404   1.752   6.307   8.141  0.5630  0.0968  1.8866
  759MOL0     H 2405   1.692   6.473   8.168 -1.3108 -1.6087  2.2522
  759MOL0     H 2406   1.851   6.334   7.945 -0.6927  0.0239 -0.9435
  759MOL0     H 2407   1.696   6.411   7.933 -0.2060  1.7320 -0.3324
  759MOL0     H 2408   1.975   6.535   7.964 -0.9958 -1.4425  1.3758
  759MOL0     H 2409   1.875   6.536   7.817  2.0742 -0.4286  0.1770
  759MOL0     H 2410   1.804   6.672   8.078  0.4203 -1.4489 -0.4652
  759MOL0     H 2411   1.893   6.748   7.945  0.0129  0.1757 -0.9642
  759MOL0     H 2412   1.655   6.616   7.845 -0.1847 -3.8201  4.8707
  759MOL0     H 2413   1.614   6.710   7.986  1.9566  0.7157  2.3973
  759MOL0     H 2414   1.777   6.816   7.742 -0.7038 -0.5590 -1.0601
  759MOL0     H 2415   1.712   6.916   7.879 -1.6855 -1.4080  1.2719
  759MOL0     H 2416   1.616   6.796   7.534  0.7217  3.2441 -0.0294
  759MOL0     H 2417   1.389   6.779   7.400 -0.3364  0.2612 -0.2677
  759MOL0     H 2418   1.241   6.770   7.495  1.7180 -1.2802  2.0343
  759MOL0     H 2419   1.383   7.008   7.362 -0.9329 -0.1976 -1.9010
  759MOL0     H 2420   1.300   7.049   7.507 -0.9210  1.9514 -1.9110
  759MOL0     H 2421   1.087   6.921   7.384 -1.9457  3.1400 -1.0314
  759MOL0     H 2422   1.185   6.948   7.244 -0.0122 -0.6349 -0.3364
  759MOL0     H 2423   1.190   7.200   7.354 -0.5986 -0.3870  0.8758
  759MOL0     H 2424   1.080   7.127   7.470  2.5075  0.0132  1.2566
  759MOL0     H 2425   0.865   7.102   7.482 -0.0009  2.5898  0.2329
  759MOL0     H 2426   0.506   7.076   7.516  0.2617  1.4433 -5.8905
  759MOL0     H 2427   0.597   6.929   7.540  3.8890  0.1575 -0.4412
  759MOL0     H 2428   0.657   7.079   7.599 -3.1427  2.9022 -0.3771
  759MOL0     H 2429   0.306   6.930   6.935 -1.6120 -1.4543 -1.8516
  759MOL0     H 2430   0.065   6.851   6.924 -1.5008  1.1355  0.3264
  759MOL0     H 2431  -0.204   7.053   7.213 -2.3752  0.1217  0.9017
  759MOL0     H 2432  -0.314   6.985   7.099 -1.6513  0.6227  2.3852
  759MOL0     H 2433  -0.332   6.876   7.325 -0.8455 -0.9218  0.7359
  759MOL0     H 2434  -0.327   6.767   7.191  0.4709 -1.2704  3.3963
  759MOL0     H 2435  -0.106   6.873   7.360 -3.6648  2.1846 -1.1662
  759MOL0     H 2436  -0.079   6.753   7.232  1.2300  5.0436 -1.2976
  759MOL0     H 2437  -0.190   6.698   7.503  2.1926  0.7898  0.7038
  759MOL0     H 2438  -0.257   6.614   7.370 -0.6270 -0.6458  2.1824
  759MOL0     H 2439   0.055   6.637   7.410  1.7402 -3.0745  2.9667
  759MOL0     H 2440  -0.028   6.509   7.324 -0.8626 -0.9082 -0.1859
  759MOL0     H 2441   0.053   6.450   7.564  0.7909 -0.1783  0.0057
  759MOL0     H 2442  -0.026   6.595   7.620  1.8360  2.8734 -3.3862
  759MOL0     H 2443  -0.247   6.495   7.599 -1.4027 -0.9795  2.2096
  759MOL0     H 2444  -0.143   6.376   7.669 -1.6282  1.7991  1.0526
  759MOL0     H 2445  -0.203   6.370   7.385  4.1718  0.9188  0.3792
  759MOL0     H 2446  -0.279   6.261   7.502  0.1411  0.2705  2.2757
  759MOL0     H 2447  -0.019   7.106   7.261  0.8359 -1.4271  1.6469
  759MOL0     H 2448   0.205   7.152   7.278  3.9785  0.7841 -2.1391
  759MOL0     H 2449   0.640   7.064   7.042 -0.7279  0.4103 -0.2303
  759MOL0     H 2450   0.876   7.116   7.058  1.8324  0.5201  1.0591
  759MOL0     H 2451   2.184   6.153   8.131 -2.3333  2.2432  0.2953
  759MOL0     H 2452   2.394   6.085   8.064  0.3863  2.0201 -2.4708
  759MOL0     H 2453   2.692   6.197   7.700 -0.0996  0.4087  1.6550
  759MOL0     H 2454   2.907   6.128   7.589 -2.6500 -3.2226  0.3921
  759MOL0     H 2455   3.098   6.021   7.555 -1.3831  0.7232  2.2580
  759MOL0     H 2456   3.137   6.187   7.561  0.5292  1.0618  1.0646
  759MOL0     H 2457   3.297   6.027   7.451  1.3103  0.8570  0.0996
  759MOL0     H 2458   3.346   5.970   7.612  2.2937  0.9712  0.4733
  759MOL0     H 2459   3.416   6.211   7.666  5.3669 -0.0372  0.9191
  759MOL0     H 2460   3.383   6.254   7.497  2.2869 -1.0540 -1.3109
  759MOL0     H 2461   3.552   6.104   7.415 -1.3489 -0.3734  0.2020
  759MOL0     H 2462   3.558   6.023   7.562  0.9140 -0.2072 -0.5635
  759MOL0     H 2463   3.823   6.356   7.623  0.5665 -1.6525 -1.3373
  759MOL0     H 2464   3.091   6.150   7.973 -0.0505  0.7270  0.4047
  759MOL0     H 2465   2.883   6.250   8.076 -3.9561  3.0305 -0.7911
  760MOL0     O 2466  10.689   6.885   8.919  0.5456  0.4207  0.4611
  760MOL0     C 2467  10.704   7.003   8.950  0.3088  0.0163 -0.6073
  760MOL0     O 2468  10.775   7.097   8.875  0.7590 -0.3991 -0.3110
  760MOL0     C 2469  10.842   7.060   8.762 -0.3852 -0.0890  0.7870
  760MOL0     C 2470  10.789   6.997   8.647 -0.4320 -0.0589 -0.1916
  760MOL0     C 2471  10.867   6.965   8.538  0.0972  0.3496  0.4682
  760MOL0     C 2472  10.996   7.009   8.528 -0.2552  0.7058  0.8304
  760MOL0     O 2473  11.072   6.971   8.417  0.0640  0.4103  0.0106
  760MOL0     C 2474  11.035   6.868   8.327  0.3292 -0.0985  0.6971
  760MOL0     C 2475  11.125   6.881   8.200 -0.3259  0.6210 -0.6055
  760MOL0     C 2476  11.123   7.010   8.116 -0.4101  0.6333 -0.0125
  760MOL0     C 2477  10.977   7.055   8.070 -0.6082 -0.4515  0.3913
  760MOL0     C 2478  10.900   7.141   8.169  0.1361  0.0707  0.1357
  760MOL0     C 2479  10.773   7.202   8.106 -0.1097 -0.6226  0.5186
  760MOL0     C 2480  10.705   7.107   8.012  1.1875  0.2061  0.1160
  760MOL0     C 2481  10.572   7.154   7.978  0.4227 -0.2323  0.2266
  760MOL0     N 2482  10.493   7.058   7.889 -0.7549 -0.0632 -0.2556
  760MOL0     C 2483  10.381   6.985   7.927 -0.2036 -0.3875  0.4676
  760MOL0     C 2484  10.335   6.932   7.814 -0.1078 -0.0819  0.4195
  760MOL0     C 2485  10.217   6.829   7.808  0.0737 -0.2088 -0.0873
  760MOL0     C 2486  10.261   6.677   7.794 -0.2431 -0.1159 -0.0710
  760MOL0     C 2487  10.161   6.582   7.729  0.0903  1.4845 -0.1025
  760MOL0     C 2488  10.207   6.441   7.740 -0.3654  0.6580 -0.5790
  760MOL0     O 2489  10.337   6.432   7.684  0.3255  0.1450  0.6022
  760MOL0     C 2490  10.411   6.318   7.705  0.2742  0.6678 -0.1562
  760MOL0     C 2491  10.376   6.201   7.786 -1.1825  0.1359  0.2438
  760MOL0     C 2492  10.454   6.090   7.798 -0.0306 -0.3158  0.2804
  760MOL0     C 2493  10.387   5.978   7.875 -1.8082  0.0321 -0.7328
  760MOL0     C 2494  10.585   6.095   7.740 -0.1411  0.5127 -1.0202
  760MOL0     C 2495  10.684   5.987   7.744 -1.1179 -0.6065  0.4326
  760MOL0     O 2496  10.797   5.999   7.664  0.5858 -0.2661 -0.1931
  760MOL0     C 2497  10.890   5.904   7.648  0.3826 -0.3827  0.1291
  760MOL0     C 2498  10.954   5.915   7.525  0.5468  0.8738  0.4962
  760MOL0     C 2499  11.074   5.837   7.498 -0.1160  0.2582 -0.1811
  760MOL0     C 2500  11.115   5.744   7.598  0.7739  1.7845 -0.7960
  760MOL0     O 2501  11.219   5.669   7.565 -0.8524  0.1335 -0.1618
  760MOL0     C 2502  11.300   5.600   7.667 -1.0908  1.0083  0.0360
  760MOL0     C 2503  11.410   5.521   7.597 -0.7808  0.3820 -0.3476
  760MOL0     C 2504  11.512   5.467   7.698 -0.5569 -0.4581  0.6929
  760MOL0     C 2505  11.628   5.372   7.644  0.6581 -0.3275  0.0367
  760MOL0     C 2506  11.757   5.358   7.719  0.3512  0.2786  0.3999
  760MOL0     C 2507  11.864   5.255   7.672 -0.3786  0.3732 -0.9514
  760MOL0     C 2508  11.974   5.240   7.772 -0.1052  0.3634 -0.1462
  760MOL0     C 2509  12.080   5.348   7.752  0.1595 -0.5723 -0.3347
  760MOL0    Cl 2510  12.150   5.325   7.589  0.2805 -0.6181 -0.1673
  760MOL0     C 2511  11.041   5.718   7.709 -0.3582 -0.0455 -0.4573
  760MOL0     C 2512  10.936   5.810   7.740  1.0415  0.1075  0.7049
  760MOL0     O 2513  10.670   5.906   7.832 -0.2410 -0.1794 -0.2497
  760MOL0     C 2514  10.621   6.212   7.674  0.8324 -0.1096 -0.2644
  760MOL0     C 2515  10.534   6.313   7.649  0.2449 -0.2926 -0.1248
  760MOL0     N 2516  10.406   6.979   7.709 -0.5500 -0.4532  0.6466
  760MOL0     N 2517  10.504   7.052   7.755 -0.9273  0.6008  0.3903
  760MOL0     C 2518  11.057   7.084   8.631  0.2594 -0.7798 -0.0924
  760MOL0     C 2519  10.977   7.115   8.746 -0.0589  0.4185 -0.9577
  760MOL0     C 2520  10.621   7.045   9.066  0.0835  0.4031 -0.7368
  760MOL0     C 2521  10.506   6.967   9.098 -0.0776  0.2593 -0.2598
  760MOL0     C 2522  10.412   7.011   9.197  0.2990  0.3478  0.5709
  760MOL0     C 2523  10.442   7.120   9.278  0.1640  0.3989 -0.7219
  760MOL0     O 2524  10.362   7.165   9.380  0.1787 -0.2741 -0.2175
  760MOL0     C 2525  10.227   7.112   9.384  0.1792 -0.4664  0.2184
  760MOL0     C 2526  10.134   7.178   9.280 -0.9343  0.4566 -0.0461
  760MOL0     C 2527   9.993   7.114   9.266 -0.3431 -0.3055  0.4952
  760MOL0     C 2528   9.911   7.188   9.168 -0.0979 -0.4223  0.1756
  760MOL0     C 2529   9.774   7.140   9.150 -0.3277 -0.3147  0.1173
  760MOL0     C 2530   9.652   7.125   9.125 -0.0665  0.2863 -0.4711
  760MOL0     C 2531  10.565   7.190   9.257 -0.2337 -0.4112  0.0372
  760MOL0     C 2532  10.656   7.149   9.153 -0.1567 -0.6758 -1.2632
  760MOL0     H 2533  10.690   6.955   8.660 -0.4255  0.4295  1.7508
  760MOL0     H 2534  10.823   6.897   8.466  0.4146 -0.6967  1.2359
  760MOL0     H 2535  11.043   6.770   8.373 -1.2135 -1.5713 -1.9140
  760MOL0     H 2536  10.931   6.881   8.293 -0.5172 -2.4388  2.1338
  760MOL0     H 2537  11.230   6.869   8.229 -0.5877  0.0694  0.1245
  760MOL0     H 2538  11.106   6.793   8.137  0.1655 -0.2798  0.4628
  760MOL0     H 2539  11.169   7.090   8.174 -0.6386  1.4386 -0.9085
  760MOL0     H 2540  11.182   6.983   8.027 -0.2957  0.4831  0.1096
  760MOL0     H 2541  10.991   7.118   7.981 -1.0904  3.6352  2.9456
  760MOL0     H 2542  10.914   6.968   8.052 -0.5519 -0.9189  2.2438
  760MOL0     H 2543  10.880   7.079   8.256  1.3119 -2.1725 -1.1241
  760MOL0     H 2544  10.966   7.225   8.193 -0.4516  0.9595 -1.1778
  760MOL0     H 2545  10.708   7.239   8.186 -0.4635  1.2307 -0.5782
  760MOL0     H 2546  10.795   7.292   8.047  0.0709 -0.6650  0.5217
  760MOL0     H 2547  10.752   7.087   7.915 -0.7753 -0.3225 -0.7755
  760MOL0     H 2548  10.686   7.014   8.066 -3.3302  1.3624  0.9699
  760MOL0     H 2549  10.579   7.251   7.926 -1.9362 -0.2228 -0.1896
  760MOL0     H 2550  10.527   7.167   8.077  2.0360 -0.5145  1.0192
  760MOL0     H 2551  10.333   6.981   8.025  0.2549 -0.1426  0.7065
  760MOL0     H 2552  10.161   6.839   7.901  0.4479  2.1216 -0.0702
  760MOL0     H 2553  10.153   6.841   7.720  0.8818  1.2535 -0.4944
  760MOL0     H 2554  10.289   6.651   7.896  1.9010  1.0457 -0.3159
  760MOL0     H 2555  10.351   6.682   7.733 -0.9455  1.9145 -1.0130
  760MOL0     H 2556  10.139   6.605   7.624 -1.5220  0.6466  0.0246
  760MOL0     H 2557  10.071   6.588   7.791 -0.7738 -3.7101 -0.4293
  760MOL0     H 2558  10.140   6.370   7.689 -0.7330  1.2721 -0.9644
  760MOL0     H 2559  10.200   6.415   7.846 -1.0062  1.5020 -0.4083
  760MOL0     H 2560  10.278   6.198   7.833 -0.9702  2.7644  1.0130
  760MOL0     H 2561  10.312   6.014   7.946 -0.1497 -0.2927  1.2519
  760MOL0     H 2562  10.344   5.900   7.812  0.8678  1.1676 -4.3240
  760MOL0     H 2563  10.461   5.921   7.933  0.9710  0.0216 -3.9643
  760MOL0     H 2564  10.922   5.990   7.453  1.9033  0.5455 -0.4911
  760MOL0     H 2565  11.131   5.856   7.408  0.8200 -0.5330  0.2226
  760MOL0     H 2566  11.350   5.676   7.727  0.5717  1.7636 -2.1955
  760MOL0     H 2567  11.236   5.529   7.721 -1.7260  2.7089  1.5951
  760MOL0     H 2568  11.365   5.435   7.547  2.2681 -1.8425  0.4283
  760MOL0     H 2569  11.456   5.588   7.524 -0.1286 -1.6902 -1.9026
  760MOL0     H 2570  11.454   5.404   7.767  0.3969 -0.5509  1.4359
  760MOL0     H 2571  11.553   5.553   7.751  1.6462 -2.6342  2.8123
  760MOL0     H 2572  11.585   5.272   7.643  0.9292 -0.5708  2.8957
  760MOL0     H 2573  11.636   5.394   7.537  3.1373 -0.0489  0.2117
  760MOL0     H 2574  11.731   5.330   7.822  0.8189 -2.1683 -0.0843
  760MOL0     H 2575  11.811   5.453   7.713 -2.5047  2.0365  0.5943
  760MOL0     H 2576  11.815   5.157   7.665 -1.6770  0.3886  3.8115
  760MOL0     H 2577  11.903   5.267   7.571 -0.9011 -0.8602 -1.3235
  760MOL0     H 2578  12.020   5.141   7.761  1.4163  1.0070  0.1476
  760MOL0     H 2579  11.932   5.248   7.872 -1.9890  1.7852 -0.9865
  760MOL0     H 2580  12.161   5.331   7.824 -0.5223 -1.4292  0.2573
  760MOL0     H 2581  12.047   5.451   7.771  0.7360 -0.2708 -0.9435
  760MOL0     H 2582  11.074   5.640   7.777  3.0844  0.5104 -1.3221
  760MOL0     H 2583  10.891   5.800   7.838 -2.0614 -0.0755 -0.6124
  760MOL0     H 2584  10.721   6.229   7.637  1.2001  1.6802  1.3624
  760MOL0     H 2585  10.574   6.398   7.593 -0.7427  0.3639  0.1314
  760MOL0     H 2586  11.162   7.109   8.622  0.3761 -0.9857  0.6998
  760MOL0     H 2587  11.009   7.179   8.827 -1.6846 -0.5977  0.5484
  760MOL0     H 2588  10.472   6.891   9.028 -0.0380 -0.9670  1.0238
  760MOL0     H 2589  10.330   6.940   9.186 -0.2601  0.6699  2.4223
  760MOL0     H 2590  10.219   7.003   9.392 -0.1121 -0.3856  1.0835
  760MOL0     H 2591  10.178   7.144   9.476  0.9048 -2.4881  1.3935
  760MOL0     H 2592  10.187   7.149   9.189 -0.0500  1.2106  0.2077
  760MOL0     H 2593  10.140   7.284   9.308 -1.1066  0.4572 -0.0144
  760MOL0     H 2594   9.937   7.116   9.360  1.0958  2.7110  1.3938
  760MOL0     H 2595  10.001   7.007   9.241  2.2473  0.0163 -0.4167
  760MOL0     H 2596   9.955   7.199   9.068  2.2141  1.9997  1.3296
  760MOL0     H 2597   9.913   7.292   9.200  3.3878  0.6018 -2.6771
  760MOL0     H 2598   9.549   7.102   9.106  0.8271 -2.2847 -2.7925
  760MOL0     H 2599  10.601   7.268   9.323 -1.8937 -0.9351  1.6384
  760MOL0     H 2600  10.752   7.198   9.144 -0.4386  0.6071  1.5752
  761MOL0     O 2601  10.356   6.559   4.351 -0.1860 -0.5067  0.3773
  761MOL0     C 2602  10.413   6.449   4.354  0.2556 -0.5655  0.8564
  761MOL0     O 2603  10.358   6.329   4.314 -0.2435 -0.0659 -0.1766
  761MOL0     C 2604  10.230   6.308   4.278 -0.2519 -0.2154  0.3104
  761MOL0     C 2605  10.198   6.195   4.211  0.2925  0.7830  0.7521
  761MOL0     C 2606  10.065   6.167   4.184  1.2990  0.0182  0.5546
  761MOL0     C 2607   9.959   6.242   4.220  0.3467  0.5117 -0.1640
  761MOL0     O 2608   9.837   6.181   4.182 -0.5035 -0.6989  0.4992
  761MOL0     C 2609   9.720   6.264   4.188 -0.4257  0.2623  0.1804
  761MOL0     C 2610   9.631   6.235   4.065  0.1167  0.3914 -0.7120
  761MOL0     C 2611   9.565   6.105   4.085 -0.4307  0.3001  1.0516
  761MOL0     C 2612   9.429   6.107   4.153  0.5007  0.2266  0.0886
  761MOL0     C 2613   9.376   5.960   4.179 -0.7158  0.4531 -0.0236
  761MOL0     C 2614   9.241   5.968   4.243  0.3994  0.1359 -0.8241
  761MOL0     C 2615   9.177   5.830   4.277  0.0284  0.4698  0.0718
  761MOL0     C 2616   9.151   5.739   4.155  0.0168  0.1840 -0.5652
  761MOL0     N 2617   9.086   5.795   4.042  0.2101  0.3934  0.5867
  761MOL0     C 2618   8.957   5.837   4.030 -0.1728  0.4519  0.7340
  761MOL0     C 2619   8.938   5.864   3.894 -0.1294  0.1386 -0.2498
  761MOL0     C 2620   8.820   5.928   3.832  0.3203  0.1703  0.5493
  761MOL0     C 2621   8.691   5.903   3.907  0.5428 -0.0817 -0.0965
  761MOL0     C 2622   8.576   6.001   3.872  0.0601 -0.0339 -0.5988
  761MOL0     C 2623   8.436   5.973   3.936 -0.3629 -0.3394  0.1793
  761MOL0     O 2624   8.382   5.843   3.915 -0.1230 -0.5271 -0.3541
  761MOL0     C 2625   8.251   5.820   3.951  0.2552  0.2207  0.0338
  761MOL0     C 2626   8.160   5.908   4.017 -0.0495 -0.0600  0.0267
  761MOL0     C 2627   8.026   5.873   4.046 -0.0442  0.3268  0.2327
  761MOL0     C 2628   7.937   5.981   4.108  0.5503  0.0991 -0.3732
  761MOL0     C 2629   7.971   5.748   4.011  0.1031 -0.2013  1.4546
  761MOL0     C 2630   7.833   5.700   4.028  0.0036  0.9210 -0.4189
  761MOL0     O 2631   7.806   5.600   3.940 -0.4986  0.3132 -0.2000
  761MOL0     C 2632   7.688   5.536   3.953 -0.6623  0.0861 -0.2477
  761MOL0     C 2633   7.559   5.601   3.938  0.3137 -0.3195  0.0883
  761MOL0     C 2634   7.445   5.532   3.925 -0.9263  0.6264  0.0323
  761MOL0     C 2635   7.447   5.395   3.930  0.4435  0.0914  0.6075
  761MOL0     O 2636   7.319   5.336   3.915  1.1935 -0.1380  1.1385
  761MOL0     C 2637   7.302   5.190   3.888 -0.9701 -0.1234 -0.1539
  761MOL0     C 2638   7.171   5.155   3.814  0.6912 -0.6535  0.1621
  761MOL0     C 2639   7.045   5.218   3.871  0.6521  0.2943  0.4225
  761MOL0     C 2640   6.925   5.157   3.777 -0.1829 -0.8164  0.2805
  761MOL0     C 2641   6.791   5.220   3.806  1.0915  0.0769  0.1066
  761MOL0     C 2642   6.693   5.191   3.691  0.1833  0.0434 -0.9100
  761MOL0     C 2643   6.692   5.294   3.583  0.2985  1.1120 -0.3648
  761MOL0     C 2644   6.567   5.282   3.495  0.4026  0.3849  0.3558
  761MOL0    Cl 2645   6.606   5.410   3.381 -0.3767  0.2271 -0.3984
  761MOL0     C 2646   7.564   5.321   3.953  0.1187 -0.4081  0.5978
  761MOL0     C 2647   7.679   5.395   3.965 -0.7084  0.9024 -0.1586
  761MOL0     O 2648   7.761   5.744   4.117  0.2092 -0.4857  0.4021
  761MOL0     C 2649   8.066   5.656   3.940 -0.2980 -0.6752  0.0855
  761MOL0     C 2650   8.197   5.701   3.913 -0.1295 -0.0615  0.3526
  761MOL0     N 2651   9.071   5.849   3.841 -0.6188 -0.4565  0.6179
  761MOL0     N 2652   9.154   5.808   3.930 -0.2883  0.4307  0.3973
  761MOL0     C 2653   9.985   6.361   4.283  0.7343 -0.0371  0.4623
  761MOL0     C 2654  10.120   6.395   4.314 -0.1886  0.4389  0.1999
  761MOL0     C 2655  10.553   6.450   4.407 -0.0741 -0.1610 -0.5577
  761MOL0     C 2656  10.642   6.556   4.385  0.7837  0.7605 -0.2426
  761MOL0     C 2657  10.778   6.532   4.419 -0.0492  0.6831  0.3225
  761MOL0     C 2658  10.823   6.411   4.472  0.8270 -0.4750  0.0327
  761MOL0     O 2659  10.954   6.392   4.485 -0.1774 -0.4195 -0.3157
  761MOL0     C 2660  11.009   6.272   4.544 -0.0820  1.1780  1.2118
  761MOL0     C 2661  11.160   6.261   4.500  0.4927  0.4899  0.3306
  761MOL0     C 2662  11.250   6.321   4.606 -0.4243 -0.0505 -0.1776
  761MOL0     C 2663  11.248   6.473   4.589 -0.3589  1.1937  0.0716
  761MOL0     C 2664  11.357   6.542   4.672 -0.3494  1.0196 -0.3535
  761MOL0     C 2665  11.456   6.584   4.728  0.3762 -0.3393  0.3814
  761MOL0     C 2666  10.725   6.318   4.505  0.4068  0.1745  0.3787
  761MOL0     C 2667  10.592   6.343   4.480 -0.0190  0.3923 -0.0270
  761MOL0     H 2668  10.286   6.135   4.192  1.5415  2.2156  1.7491
  761MOL0     H 2669  10.044   6.077   4.127  1.1306 -0.4558  1.3653
  761MOL0     H 2670   9.668   6.250   4.283  2.1437 -1.2007  1.4510
  761MOL0     H 2671   9.740   6.371   4.176 -1.3676  0.4588  0.2408
  761MOL0     H 2672   9.553   6.311   4.059  1.0481  1.6831  2.0327
  761MOL0     H 2673   9.688   6.234   3.972 -1.3867 -1.6213 -1.6947
  761MOL0     H 2674   9.534   6.057   3.992  1.3396 -3.1138  2.0566
  761MOL0     H 2675   9.628   6.034   4.139 -0.3931 -0.8658 -0.4584
  761MOL0     H 2676   9.439   6.159   4.248 -2.7586 -2.1257  1.9285
  761MOL0     H 2677   9.358   6.160   4.089  0.2441 -0.2977 -0.0713
  761MOL0     H 2678   9.371   5.905   4.084  0.0143  0.2051  0.0748
  761MOL0     H 2679   9.444   5.911   4.249 -0.6316 -0.5244 -0.7536
  761MOL0     H 2680   9.244   6.025   4.336  1.1592  0.7152 -1.1887
  761MOL0     H 2681   9.170   6.021   4.179 -2.3429 -1.6996  0.5129
  761MOL0     H 2682   9.236   5.783   4.356  0.8214  2.4430  0.7350
  761MOL0     H 2683   9.074   5.846   4.309 -0.6646 -0.1036 -1.7251
  761MOL0     H 2684   9.088   5.657   4.191  3.2080 -1.9413  0.6808
  761MOL0     H 2685   9.250   5.697   4.133  1.5570  0.8317  3.9448
  761MOL0     H 2686   8.887   5.849   4.112  0.7129  0.3145  1.5201
  761MOL0     H 2687   8.834   6.036   3.825  2.2045 -0.1500 -2.7483
  761MOL0     H 2688   8.804   5.889   3.731 -0.0454  1.7897 -0.0397
  761MOL0     H 2689   8.714   5.903   4.013  2.5634 -0.8272 -0.4980
  761MOL0     H 2690   8.663   5.800   3.885 -1.1282  0.2382  0.3495
  761MOL0     H 2691   8.566   5.999   3.764 -1.1405 -1.5764 -0.4845
  761MOL0     H 2692   8.603   6.099   3.913  0.4533  0.6877 -2.5031
  761MOL0     H 2693   8.376   6.047   3.882  1.3571  0.7370 -0.3458
  761MOL0     H 2694   8.438   5.996   4.043 -0.0985  0.6758 -0.0330
  761MOL0     H 2695   8.188   6.011   4.034 -2.4014  1.2540 -3.1671
  761MOL0     H 2696   7.888   5.945   4.199  0.3724 -1.0614 -0.9058
  761MOL0     H 2697   7.996   6.070   4.134 -1.1758  1.7459 -1.8614
  761MOL0     H 2698   7.861   6.010   4.035 -1.6918 -0.5404  1.5744
  761MOL0     H 2699   7.552   5.710   3.935 -1.2026 -0.4076 -0.2392
  761MOL0     H 2700   7.351   5.585   3.928  1.2830  5.4194 -3.0719
  761MOL0     H 2701   7.384   5.157   3.822 -2.1093  0.2730 -1.8310
  761MOL0     H 2702   7.301   5.149   3.989  1.1255  1.0392  0.4127
  761MOL0     H 2703   7.178   5.176   3.707 -4.0018 -3.4134 -0.9858
  761MOL0     H 2704   7.167   5.046   3.819  1.9287 -0.7611 -0.9502
  761MOL0     H 2705   7.035   5.327   3.863 -1.4824  0.0357 -1.7018
  761MOL0     H 2706   7.037   5.196   3.978 -1.1318  1.7030  0.6411
  761MOL0     H 2707   6.948   5.175   3.672 -2.1675  0.7018  0.0470
  761MOL0     H 2708   6.909   5.051   3.798 -0.4317 -0.7549  0.4120
  761MOL0     H 2709   6.785   5.327   3.829  2.4497  0.1999 -0.0230
  761MOL0     H 2710   6.747   5.170   3.893  0.0898  0.3885 -0.2069
  761MOL0     H 2711   6.720   5.092   3.653  2.2949  0.5455 -0.8385
  761MOL0     H 2712   6.593   5.195   3.734  1.2774  2.0640  1.7100
  761MOL0     H 2713   6.786   5.277   3.529  0.2833 -0.2805  0.0074
  761MOL0     H 2714   6.688   5.397   3.619  4.0675  1.7227 -1.2529
  761MOL0     H 2715   6.479   5.310   3.553 -0.0259  0.7254 -0.4476
  761MOL0     H 2716   6.558   5.189   3.439  0.0024  1.4134 -1.3720
  761MOL0     H 2717   7.575   5.215   3.973  0.1402 -0.7849 -1.2455
  761MOL0     H 2718   7.775   5.344   3.969 -0.6204  1.1214  0.6898
  761MOL0     H 2719   8.044   5.552   3.922 -1.0816 -0.8431  1.7811
  761MOL0     H 2720   8.260   5.620   3.879  1.6696  0.9557  1.0875
  761MOL0     H 2721   9.906   6.433   4.305  1.5041  0.4193  1.8660
  761MOL0     H 2722  10.147   6.481   4.375  2.3295  0.2935 -0.5667
  761MOL0     H 2723  10.618   6.651   4.340  1.7191  1.0973 -0.0543
  761MOL0     H 2724  10.853   6.605   4.392 -0.6581 -0.1596 -4.5715
  761MOL0     H 2725  10.985   6.274   4.651 -1.3757  0.0710  0.9662
  761MOL0     H 2726  10.968   6.180   4.501  0.7005  1.1752  0.4430
  761MOL0     H 2727  11.173   6.291   4.395 -0.8096 -1.8242 -0.5735
  761MOL0     H 2728  11.189   6.156   4.502  2.2868  0.9726  1.8587
  761MOL0     H 2729  11.350   6.276   4.601  0.3019  0.9446  3.1443
  761MOL0     H 2730  11.216   6.305   4.709  2.4653  2.3460  1.3170
  761MOL0     H 2731  11.150   6.519   4.604 -1.5152 -1.3988  1.1121
  761MOL0     H 2732  11.277   6.498   4.487  1.4963 -1.7107 -0.2511
  761MOL0     H 2733  11.548   6.624   4.768 -0.1768  0.2856  1.0602
  761MOL0     H 2734  10.761   6.224   4.546 -1.9331 -0.3554  1.3948
  761MOL0     H 2735  10.528   6.257   4.496 -0.3255  0.1016 -2.4882
  762MOL0     O 2736   6.827   3.123   7.973  0.5815  0.5808 -1.6795
  762MOL0     C 2737   6.827   3.237   7.934 -0.6960  0.4368 -0.8445
  762MOL0     O 2738   6.713   3.325   7.940 -0.7269  0.1640  0.2088
  762MOL0     C 2739   6.589   3.284   7.970 -0.1264 -0.0094 -0.0327
  762MOL0     C 2740   6.538   3.156   7.928 -0.7786 -0.6679  0.9833
  762MOL0     C 2741   6.416   3.123   7.979 -0.4623  0.5134 -0.1940
  762MOL0     C 2742   6.344   3.198   8.075  0.4783 -0.3685  0.4540
  762MOL0     O 2743   6.225   3.142   8.118 -0.3900  0.5233  0.5850
  762MOL0     C 2744   6.214   3.120   8.263 -0.6132 -0.1588  0.0650
  762MOL0     C 2745   6.082   3.045   8.286  0.3265 -0.3123  0.5101
  762MOL0     C 2746   5.964   3.146   8.285  0.0081  0.6439 -0.3803
  762MOL0     C 2747   5.828   3.074   8.310 -0.5510 -0.6771 -0.2473
  762MOL0     C 2748   5.784   2.990   8.180  0.2247 -0.5168  0.7047
  762MOL0     C 2749   5.651   2.920   8.204 -0.6774 -0.0327 -0.1950
  762MOL0     C 2750   5.567   2.883   8.082 -0.4457  0.3325  1.2756
  762MOL0     C 2751   5.631   2.780   7.990  0.5043 -0.5103  1.3241
  762MOL0     N 2752   5.552   2.777   7.862 -0.5821  0.4682  0.2192
  762MOL0     C 2753   5.515   2.657   7.796 -0.0588  0.4132 -0.2973
  762MOL0     C 2754   5.480   2.696   7.672  0.1233  0.2960 -1.0507
  762MOL0     C 2755   5.446   2.599   7.561 -0.4015  0.0644  0.4138
  762MOL0     C 2756   5.324   2.630   7.470 -0.2414  0.1931 -0.0166
  762MOL0     C 2757   5.199   2.680   7.545  0.1514  0.5554 -0.4811
  762MOL0     C 2758   5.085   2.730   7.460 -0.8752  0.6786 -0.0449
  762MOL0     O 2759   5.013   2.630   7.383 -0.0065 -0.9673 -0.4547
  762MOL0     C 2760   4.882   2.669   7.341  0.3036  0.5490 -0.0661
  762MOL0     C 2761   4.816   2.789   7.372  0.0585 -0.2767  0.5221
  762MOL0     C 2762   4.673   2.798   7.360 -0.4185  0.0449 -0.1503
  762MOL0     C 2763   4.613   2.928   7.397 -0.1676 -0.1164  0.9023
  762MOL0     C 2764   4.594   2.695   7.301  0.1622 -0.2923 -0.0194
  762MOL0     C 2765   4.455   2.696   7.282  0.5286 -0.3401 -0.7389
  762MOL0     O 2766   4.421   2.656   7.151  0.3377 -0.1108 -0.5941
  762MOL0     C 2767   4.299   2.592   7.141  0.5164  0.4217 -0.0657
  762MOL0     C 2768   4.303   2.457   7.095  0.2851 -0.3055 -0.6679
  762MOL0     C 2769   4.187   2.395   7.062  0.1917  0.4041  1.3795
  762MOL0     C 2770   4.061   2.458   7.069  0.6228 -0.3305 -0.2155
  762MOL0     O 2771   3.937   2.408   7.028 -0.4602  0.6044  0.2639
  762MOL0     C 2772   3.919   2.263   7.026 -0.3268 -1.3173 -0.5691
  762MOL0     C 2773   3.765   2.251   6.991 -0.5917  1.0925 -0.1174
  762MOL0     C 2774   3.746   2.300   6.851  0.3068 -0.5607  0.1738
  762MOL0     C 2775   3.605   2.308   6.801  0.0059  0.6183 -0.4813
  762MOL0     C 2776   3.589   2.351   6.653 -0.9304 -0.0695 -0.0608
  762MOL0     C 2777   3.453   2.333   6.592  0.0644 -0.2552  0.1836
  762MOL0     C 2778   3.411   2.177   6.596 -0.3043  0.2635  0.6350
  762MOL0     C 2779   3.277   2.143   6.532  0.0919  0.7103  0.5591
  762MOL0    Cl 2780   3.252   1.965   6.544  0.1267  0.3739  0.0943
  762MOL0     C 2781   4.055   2.597   7.099  0.1630 -0.5415 -0.8294
  762MOL0     C 2782   4.173   2.659   7.139 -0.3470  0.1104  0.1094
  762MOL0     O 2783   4.374   2.729   7.370 -0.1416  0.0831 -0.1202
  762MOL0     C 2784   4.666   2.585   7.257 -0.1992 -0.1972 -0.1910
  762MOL0     C 2785   4.804   2.563   7.281 -0.0305  0.1429 -0.2190
  762MOL0     N 2786   5.497   2.836   7.667 -0.1679  0.3173  0.0280
  762MOL0     N 2787   5.537   2.880   7.775 -0.8143 -0.1279  0.3205
  762MOL0     C 2788   6.395   3.324   8.117  0.3379  1.0633  0.2216
  762MOL0     C 2789   6.518   3.364   8.068  0.1563  0.1736  0.8733
  762MOL0     C 2790   6.953   3.279   7.866 -0.6665  0.1197  0.1792
  762MOL0     C 2791   6.965   3.405   7.808  0.0557  0.4966  0.2621
  762MOL0     C 2792   7.091   3.444   7.754 -0.0876 -0.1221 -0.4022
  762MOL0     C 2793   7.193   3.353   7.734 -0.7634 -1.4506  0.2636
  762MOL0     O 2794   7.305   3.403   7.668 -0.4723 -0.1067  0.0798
  762MOL0     C 2795   7.419   3.315   7.654  0.2730  0.3501  0.2743
  762MOL0     C 2796   7.529   3.374   7.566  0.6488  0.4659  0.4008
  762MOL0     C 2797   7.597   3.482   7.650  0.0478 -0.4582 -0.6542
  762MOL0     C 2798   7.697   3.436   7.760 -0.6419  0.7575  0.0593
  762MOL0     C 2799   7.794   3.342   7.698 -0.7218 -0.2185 -0.7716
  762MOL0     C 2800   7.880   3.270   7.639 -0.2298 -0.0174  0.0284
  762MOL0     C 2801   7.185   3.228   7.795  0.3721  0.6530  0.1321
  762MOL0     C 2802   7.066   3.195   7.866  0.0867  0.4351  0.4018
  762MOL0     H 2803   6.593   3.094   7.858  1.0370 -0.3963  2.1131
  762MOL0     H 2804   6.372   3.031   7.942 -0.3492  0.6645 -0.7099
  762MOL0     H 2805   6.292   3.052   8.301 -1.8277 -1.3665  0.4740
  762MOL0     H 2806   6.204   3.209   8.326 -2.3725 -1.2420  1.4098
  762MOL0     H 2807   6.075   2.971   8.206  1.1725 -1.9395  1.8766
  762MOL0     H 2808   6.102   2.991   8.379 -0.5099 -0.6645  0.4863
  762MOL0     H 2809   5.972   3.211   8.373 -2.2721  0.3009  0.1642
  762MOL0     H 2810   5.962   3.215   8.200  0.7123  1.8343  0.5363
  762MOL0     H 2811   5.855   3.003   8.388  2.5268 -1.4503 -1.8276
  762MOL0     H 2812   5.750   3.142   8.345  1.1233  2.3922 -2.0758
  762MOL0     H 2813   5.772   3.057   8.095 -0.1576 -1.2504  0.1778
  762MOL0     H 2814   5.854   2.912   8.148  2.2554  1.1220  0.9119
  762MOL0     H 2815   5.685   2.831   8.258  0.2029 -1.7012 -3.2373
  762MOL0     H 2816   5.590   2.977   8.275  0.0129 -1.2430  1.4271
  762MOL0     H 2817   5.476   2.829   8.109 -0.1603  0.8847  3.5344
  762MOL0     H 2818   5.543   2.979   8.036  2.4838  2.1443  3.1773
  762MOL0     H 2819   5.628   2.682   8.039  1.8402 -0.4962  1.4829
  762MOL0     H 2820   5.738   2.797   7.970  0.8139 -2.4184  1.1131
  762MOL0     H 2821   5.516   2.554   7.832 -0.4842  0.2844 -0.6553
  762MOL0     H 2822   5.527   2.594   7.487 -0.7746  0.5131 -0.0389
  762MOL0     H 2823   5.429   2.497   7.595 -3.1130  0.6158  0.9474
  762MOL0     H 2824   5.305   2.541   7.410  3.6862 -1.5209  0.8951
  762MOL0     H 2825   5.358   2.702   7.395  1.6381  0.3149  0.8857
  762MOL0     H 2826   5.233   2.760   7.612  1.7117 -0.1389 -0.3976
  762MOL0     H 2827   5.163   2.605   7.617  0.1768  0.4544 -0.5730
  762MOL0     H 2828   5.129   2.796   7.384 -0.1846  1.2272  0.8074
  762MOL0     H 2829   5.024   2.784   7.532 -0.5440 -0.9360  1.5100
  762MOL0     H 2830   4.872   2.872   7.414  0.4791  0.2804 -1.0640
  762MOL0     H 2831   4.630   3.003   7.319 -0.6375  0.0865  0.9898
  762MOL0     H 2832   4.504   2.923   7.406 -0.5865  1.6497 -1.8197
  762MOL0     H 2833   4.651   2.966   7.492  0.4810 -0.0343  0.6121
  762MOL0     H 2834   4.393   2.397   7.102  0.9640  0.5357 -1.7930
  762MOL0     H 2835   4.187   2.290   7.036 -2.3253  0.4782  0.8171
  762MOL0     H 2836   3.977   2.216   6.947  0.0317 -2.8847  0.5829
  762MOL0     H 2837   3.952   2.219   7.121  3.1205 -0.8458 -1.4081
  762MOL0     H 2838   3.745   2.144   6.996  4.0139  0.0761  2.1689
  762MOL0     H 2839   3.701   2.311   7.056 -0.6545  1.5568 -0.6020
  762MOL0     H 2840   3.810   2.239   6.787  0.0849 -1.8505  1.1471
  762MOL0     H 2841   3.776   2.404   6.840  0.0980 -0.6770 -2.1275
  762MOL0     H 2842   3.565   2.207   6.815  0.7330  0.6257  2.2693
  762MOL0     H 2843   3.546   2.374   6.865 -0.7610 -0.6440  0.1477
  762MOL0     H 2844   3.662   2.301   6.589  3.0593  1.4208  2.9181
  762MOL0     H 2845   3.616   2.457   6.648  0.1484 -0.2353  1.4438
  762MOL0     H 2846   3.370   2.382   6.643 -1.4138 -0.1636 -2.1923
  762MOL0     H 2847   3.455   2.365   6.488  2.1213 -0.7931  0.0086
  762MOL0     H 2848   3.419   2.126   6.693  1.0349 -3.2377 -1.1339
  762MOL0     H 2849   3.485   2.125   6.535 -0.2386  0.6790  0.3569
  762MOL0     H 2850   3.279   2.167   6.425 -3.0513  0.2013  0.2738
  762MOL0     H 2851   3.185   2.185   6.575 -0.7821 -0.8149  0.2835
  762MOL0     H 2852   3.962   2.653   7.100  0.4347 -0.0650 -1.5844
  762MOL0     H 2853   4.164   2.764   7.166 -2.4917 -0.6222  2.6340
  762MOL0     H 2854   4.611   2.507   7.204  0.9686 -0.6485 -0.7799
  762MOL0     H 2855   4.842   2.464   7.259  2.2375  1.2302 -1.6873
  762MOL0     H 2856   6.332   3.383   8.183 -3.1121 -0.5084 -1.3748
  762MOL0     H 2857   6.549   3.458   8.112  0.6454  0.5649 -0.2572
  762MOL0     H 2858   6.876   3.467   7.807 -1.5864 -1.7329  0.6920
  762MOL0     H 2859   7.117   3.542   7.715  0.8348  0.0834  0.6753
  762MOL0     H 2860   7.463   3.300   7.754  0.7382 -1.2488 -0.1296
  762MOL0     H 2861   7.385   3.220   7.611  0.4832  0.8592 -1.0666
  762MOL0     H 2862   7.484   3.413   7.475 -1.7096 -0.6176  1.0199
  762MOL0     H 2863   7.604   3.302   7.532  0.6262  0.2688  0.7570
  762MOL0     H 2864   7.518   3.541   7.697  0.8979  1.0435 -1.0420
  762MOL0     H 2865   7.638   3.554   7.577 -3.0441  0.2556 -1.8602
  762MOL0     H 2866   7.642   3.387   7.840  0.0694  1.7627  1.1917
  762MOL0     H 2867   7.751   3.519   7.807  1.6970 -0.9809  0.6064
  762MOL0     H 2868   7.953   3.225   7.576  0.6614  0.8906  0.3859
  762MOL0     H 2869   7.265   3.156   7.783 -0.3380  0.0295 -1.1153
  762MOL0     H 2870   7.050   3.092   7.899 -1.2712  0.2966 -0.5820
  763MOL0     O 2871   5.344   4.537   9.857  0.4734 -0.3293 -0.2861
  763MOL0     C 2872   5.310   4.433   9.920  0.4615 -0.3312 -0.4601
  763MOL0     O 2873   5.185   4.391   9.941 -0.0805 -0.1786 -0.2755
  763MOL0     C 2874   5.080   4.456   9.879  0.6676 -0.2787 -0.1417
  763MOL0     C 2875   5.089   4.519   9.751 -0.3783  0.2735 -0.8330
  763MOL0     C 2876   4.989   4.577   9.697  0.1843  0.4124  0.7074
  763MOL0     C 2877   4.863   4.578   9.761 -0.0454 -0.3474 -0.1496
  763MOL0     O 2878   4.749   4.634   9.710  0.3896  0.3584  0.0591
  763MOL0     C 2879   4.763   4.738   9.617 -0.6785 -0.2102  0.5817
  763MOL0     C 2880   4.631   4.813   9.614 -0.6526 -0.2877 -0.4141
  763MOL0     C 2881   4.637   4.880   9.475 -0.2977 -0.0334 -0.0645
  763MOL0     C 2882   4.508   4.961   9.452  0.1706 -0.4622  0.7326
  763MOL0     C 2883   4.507   5.019   9.313  0.1795  0.1196 -0.1789
  763MOL0     C 2884   4.395   5.122   9.288  0.7120 -0.2000 -0.1287
  763MOL0     C 2885   4.267   5.036   9.262  0.3571  0.2615  0.0693
  763MOL0     C 2886   4.143   5.121   9.253 -1.1349  0.7476 -0.1721
  763MOL0     N 2887   4.143   5.268   9.301  0.1598  0.2654  0.8387
  763MOL0     C 2888   4.120   5.365   9.204  0.1228 -0.8498 -0.0482
  763MOL0     C 2889   4.114   5.482   9.274  0.1817  1.3375  0.0293
  763MOL0     C 2890   4.114   5.618   9.201  0.3338  0.5235 -0.6193
  763MOL0     C 2891   3.986   5.692   9.243 -0.4767 -0.2479  0.0135
  763MOL0     C 2892   3.992   5.751   9.391  0.7515  0.4603  0.3864
  763MOL0     C 2893   3.869   5.842   9.409 -0.3144 -0.2743  0.1066
  763MOL0     O 2894   3.751   5.769   9.372  0.6753  0.2942  0.1466
  763MOL0     C 2895   3.640   5.820   9.418 -0.1664 -0.4719  0.2603
  763MOL0     C 2896   3.527   5.741   9.406  0.3715  0.1236  0.6779
  763MOL0     C 2897   3.392   5.782   9.443 -0.3195 -0.1207  0.0858
  763MOL0     C 2898   3.284   5.680   9.415 -0.1724  0.4942  0.1121
  763MOL0     C 2899   3.375   5.911   9.496  0.8794 -0.4014  0.4499
  763MOL0     C 2900   3.235   5.963   9.535  0.1194 -0.2690 -0.2026
  763MOL0     O 2901   3.136   5.940   9.444  0.4427 -0.0620 -0.2458
  763MOL0     C 2902   3.010   5.970   9.486 -0.3865 -0.3333 -0.0559
  763MOL0     C 2903   2.907   5.881   9.459 -0.2818  0.3576 -0.4138
  763MOL0     C 2904   2.776   5.917   9.500 -0.6366 -0.4043  0.1339
  763MOL0     C 2905   2.745   6.034   9.568 -0.5071  0.0048  0.2840
  763MOL0     O 2906   2.627   6.077   9.610  0.0508  0.3564 -0.0122
  763MOL0     C 2907   2.511   5.991   9.587 -0.0557 -0.6235 -0.0876
  763MOL0     C 2908   2.388   6.053   9.651 -0.0736  0.6532 -0.4200
  763MOL0     C 2909   2.313   5.953   9.737 -0.2534 -0.2185 -0.4729
  763MOL0     C 2910   2.178   6.014   9.775 -0.3521 -0.0664  0.1991
  763MOL0     C 2911   2.118   5.917   9.874  0.3315  0.3343 -0.6502
  763MOL0     C 2912   1.958   5.934   9.891 -0.4402  0.0103 -0.2687
  763MOL0     C 2913   1.916   6.076   9.941 -0.0345 -0.5885  0.5428
  763MOL0     C 2914   1.832   6.087  10.065  1.2146  0.5051  0.1067
  763MOL0    Cl 2915   1.913   6.005  10.196  0.2104 -0.4821  0.3366
  763MOL0     C 2916   2.854   6.115   9.599 -0.5271 -0.7999  0.4900
  763MOL0     C 2917   2.981   6.085   9.558 -0.1208 -0.1688 -0.4517
  763MOL0     O 2918   3.220   6.010   9.648 -0.2387  0.2743  0.3367
  763MOL0     C 2919   3.486   5.990   9.516 -0.0800 -0.3357  0.2622
  763MOL0     C 2920   3.619   5.952   9.475 -0.7558 -0.4865  0.1896
  763MOL0     N 2921   4.136   5.453   9.410 -0.1016 -0.3643  0.1663
  763MOL0     N 2922   4.158   5.327   9.422 -0.2766 -0.2799 -0.4938
  763MOL0     C 2923   4.851   4.508   9.884 -0.0121 -0.4851  0.8435
  763MOL0     C 2924   4.954   4.441   9.944 -0.7129  0.5033 -0.3054
  763MOL0     C 2925   5.419   4.357   9.983  0.4865  0.6119  1.0380
  763MOL0     C 2926   5.403   4.222  10.023 -0.7558  0.2827 -0.2763
  763MOL0     C 2927   5.503   4.153  10.089 -1.6504 -0.2174  0.3855
  763MOL0     C 2928   5.626   4.217  10.125 -0.7363  0.1986  0.6050
  763MOL0     O 2929   5.734   4.153  10.181 -0.2529 -0.0072 -0.6949
  763MOL0     C 2930   5.715   4.027  10.247 -0.2567 -0.6023  0.3860
  763MOL0     C 2931   5.637   4.044  10.378 -0.0107  0.0351  0.1276
  763MOL0     C 2932   5.741   4.110  10.482 -0.2297 -0.6564 -0.4606
  763MOL0     C 2933   5.684   4.121  10.618  0.3217 -0.5004 -0.1631
  763MOL0     C 2934   5.781   4.193  10.708  0.3753  0.5353  0.3029
  763MOL0     C 2935   5.855   4.247  10.783 -0.3848 -0.0134  0.3808
  763MOL0     C 2936   5.640   4.348  10.085 -0.5810  0.7182  0.0792
  763MOL0     C 2937   5.543   4.418  10.011  1.2521  0.0431 -0.9976
  763MOL0     H 2938   5.182   4.539   9.699 -0.4459  5.3351  0.4341
  763MOL0     H 2939   5.007   4.626   9.601  1.7205 -1.2217  0.1125
  763MOL0     H 2940   4.843   4.806   9.648  0.4530 -1.6399  0.8880
  763MOL0     H 2941   4.791   4.697   9.519 -1.6370 -2.2822  1.1211
  763MOL0     H 2942   4.545   4.747   9.611  0.2742 -1.5865  0.3447
  763MOL0     H 2943   4.626   4.881   9.699  2.2163 -0.6277  0.1399
  763MOL0     H 2944   4.723   4.947   9.466 -1.1454  1.5784  2.7030
  763MOL0     H 2945   4.637   4.799   9.402 -1.8528 -0.7545  0.6828
  763MOL0     H 2946   4.423   4.898   9.480  0.5434 -1.4510 -0.2546
  763MOL0     H 2947   4.510   5.046   9.521 -0.6174  0.3909 -0.2646
  763MOL0     H 2948   4.606   5.064   9.302 -0.6654  1.7425 -1.7220
  763MOL0     H 2949   4.487   4.934   9.247 -1.1167  0.0523  0.2766
  763MOL0     H 2950   4.379   5.187   9.375 -2.4131  0.6691 -1.2156
  763MOL0     H 2951   4.431   5.185   9.205  3.6327  1.7220  2.3535
  763MOL0     H 2952   4.274   4.982   9.168  0.0847 -2.8361  1.7000
  763MOL0     H 2953   4.258   4.967   9.346  1.6738 -0.8680 -0.6837
  763MOL0     H 2954   4.064   5.076   9.313 -1.0558  0.0957 -0.5510
  763MOL0     H 2955   4.105   5.111   9.151  2.0567  1.4081 -1.5653
  763MOL0     H 2956   4.106   5.351   9.097  0.6590  0.6723 -0.3325
  763MOL0     H 2957   4.200   5.680   9.229  0.4326 -0.7546  2.1745
  763MOL0     H 2958   4.115   5.600   9.093 -2.3994  1.5117 -0.8915
  763MOL0     H 2959   3.900   5.627   9.226  0.1930 -1.0185 -0.4861
  763MOL0     H 2960   3.979   5.772   9.169 -0.7989 -1.1324 -0.9234
  763MOL0     H 2961   4.090   5.796   9.411  1.0911 -0.8645  1.9169
  763MOL0     H 2962   3.983   5.669   9.463 -0.3222  0.7849  0.6358
  763MOL0     H 2963   3.894   5.929   9.348  1.8053 -0.7086  0.2692
  763MOL0     H 2964   3.863   5.871   9.515 -1.4603  0.3010 -0.1005
  763MOL0     H 2965   3.533   5.642   9.364  1.4857  0.9653 -1.2540
  763MOL0     H 2966   3.317   5.577   9.397  0.8701  1.0583 -1.3845
  763MOL0     H 2967   3.219   5.681   9.503  2.8479 -0.9643  2.5494
  763MOL0     H 2968   3.224   5.694   9.325 -0.6200 -1.1473  0.1147
  763MOL0     H 2969   2.931   5.794   9.399 -0.8707 -0.4212  0.4469
  763MOL0     H 2970   2.705   5.837   9.484 -2.0765  1.3944 -3.6476
  763MOL0     H 2971   2.491   5.970   9.481 -2.7532  2.4287 -0.3340
  763MOL0     H 2972   2.538   5.900   9.641  2.2769 -0.0301 -0.1521
  763MOL0     H 2973   2.419   6.135   9.717  2.3808 -0.9420  0.5228
  763MOL0     H 2974   2.321   6.108   9.583 -0.0477  0.2742 -0.7541
  763MOL0     H 2975   2.376   5.927   9.823 -1.4291 -3.4362 -0.4311
  763MOL0     H 2976   2.305   5.865   9.671  2.5191 -1.5251  0.7509
  763MOL0     H 2977   2.176   6.116   9.814 -1.3121 -0.2039  0.5462
  763MOL0     H 2978   2.117   5.996   9.686 -0.8946 -3.9107  1.1537
  763MOL0     H 2979   2.167   5.933   9.971  0.4844  0.1058 -0.6881
  763MOL0     H 2980   2.137   5.810   9.863 -2.8076 -0.6312  1.6939
  763MOL0     H 2981   1.910   5.915   9.794  1.4022 -1.0458 -1.0254
  763MOL0     H 2982   1.921   5.858   9.960  3.7303 -2.0430  0.0152
  763MOL0     H 2983   1.862   6.132   9.864  1.7521 -0.6815 -0.8491
  763MOL0     H 2984   2.007   6.132   9.962 -1.9450  2.4546  1.2843
  763MOL0     H 2985   1.743   6.023  10.054 -1.0962  2.8820  2.9646
  763MOL0     H 2986   1.793   6.184  10.096 -1.0988 -0.3962  0.2747
  763MOL0     H 2987   2.846   6.215   9.641 -1.7803 -1.1154  1.0385
  763MOL0     H 2988   3.062   6.157   9.556 -1.2638  1.1177 -1.4585
  763MOL0     H 2989   3.475   6.091   9.554  1.8053 -0.3787  1.0573
  763MOL0     H 2990   3.699   6.027   9.475  0.7553 -1.8999 -2.9732
  763MOL0     H 2991   4.754   4.519   9.932  0.0353  0.0322  0.8319
  763MOL0     H 2992   4.941   4.381  10.034  5.1601 -3.6169 -1.5568
  763MOL0     H 2993   5.313   4.165  10.003 -1.6996  1.7447 -0.3074
  763MOL0     H 2994   5.494   4.050  10.120 -0.8132 -0.0729  1.1546
  763MOL0     H 2995   5.656   3.965  10.179 -0.2553 -2.0663  1.6670
  763MOL0     H 2996   5.812   3.981  10.267  1.1495  2.4140  1.0186
  763MOL0     H 2997   5.597   3.950  10.417 -5.6943  1.1916 -1.9809
  763MOL0     H 2998   5.556   4.116  10.367  0.6962  0.6590 -1.2238
  763MOL0     H 2999   5.755   4.215  10.453 -1.9393 -0.6225 -1.2958
  763MOL0     H 3000   5.838   4.059  10.483  1.3288  2.0709 -1.1628
  763MOL0     H 3001   5.673   4.019  10.657 -0.4829 -0.4963 -0.3551
  763MOL0     H 3002   5.587   4.172  10.611  1.0281  0.8128 -0.6460
  763MOL0     H 3003   5.922   4.291  10.854  0.8465 -4.3816  2.2530
  763MOL0     H 3004   5.736   4.391  10.111  1.5862 -3.1955 -0.6658
  763MOL0     H 3005   5.566   4.522   9.991 -0.4949  0.3665 -1.4972
  764MOL0     O 3006   8.934  11.150   1.736 -0.4684  0.6258  0.8922
  764MOL0     C 3007   8.984  11.146   1.850 -0.0099 -0.4851  0.2849
  764MOL0     O 3008   8.920  11.102   1.966 -0.0981  0.0713  0.6154
  764MOL0     C 3009   8.788  11.059   1.973 -0.7462 -0.6085  0.2522
  764MOL0     C 3010   8.682  11.092   1.889 -0.0193 -0.3683 -0.3597
  764MOL0     C 3011   8.559  11.031   1.911  0.2452 -0.2658 -0.7037
  764MOL0     C 3012   8.533  10.967   2.035 -0.0856 -0.5416  0.6068
  764MOL0     O 3013   8.407  10.923   2.058  1.0301 -1.1131 -0.1284
  764MOL0     C 3014   8.387  10.792   2.114 -0.6731  0.3147 -0.5905
  764MOL0     C 3015   8.240  10.758   2.125  0.5504 -0.1749  0.3910
  764MOL0     C 3016   8.171  10.759   1.985 -0.1150 -0.7388 -0.8308
  764MOL0     C 3017   8.017  10.746   1.992 -0.2395  0.9061 -0.6196
  764MOL0     C 3018   7.976  10.713   1.850 -0.7240 -0.3928  0.1194
  764MOL0     C 3019   7.820  10.694   1.845 -1.4525  0.3384  0.1345
  764MOL0     C 3020   7.763  10.658   1.709 -0.9052 -0.2608 -0.6206
  764MOL0     C 3021   7.825  10.534   1.655  0.6908  0.1987  0.8055
  764MOL0     N 3022   7.792  10.412   1.735  1.1306 -0.2236  1.0157
  764MOL0     C 3023   7.679  10.329   1.712  0.4803  0.7736  0.2927
  764MOL0     C 3024   7.693  10.238   1.815  0.5618  0.2452  0.8566
  764MOL0     C 3025   7.600  10.123   1.850 -0.3291 -0.1945 -0.2752
  764MOL0     C 3026   7.454  10.170   1.887 -0.4872  0.6381  0.0686
  764MOL0     C 3027   7.382  10.037   1.904 -0.6277  0.5167 -0.1428
  764MOL0     C 3028   7.232  10.045   1.937  0.8478  0.1844 -1.0145
  764MOL0     O 3029   7.148  10.081   1.825  0.4963  0.3816 -0.5454
  764MOL0     C 3030   7.032  10.009   1.795 -0.0952 -0.6219  0.8163
  764MOL0     C 3031   6.975  10.032   1.668  0.2707 -0.6155  0.4618
  764MOL0     C 3032   6.848   9.982   1.629  0.5471 -0.0490 -0.1512
  764MOL0     C 3033   6.801   9.993   1.484  0.5318  0.3947  0.2287
  764MOL0     C 3034   6.771   9.922   1.731  0.5288  0.2353 -0.5102
  764MOL0     C 3035   6.637   9.866   1.717 -0.6984 -0.5171 -0.0622
  764MOL0     O 3036   6.598   9.773   1.806  0.4390 -0.0117  0.1668
  764MOL0     C 3037   6.497   9.687   1.771 -0.8801  0.3878 -0.1074
  764MOL0     C 3038   6.386   9.670   1.861  0.6520  0.1631  0.2043
  764MOL0     C 3039   6.283   9.581   1.823 -0.3171 -0.4657  0.5638
  764MOL0     C 3040   6.291   9.504   1.695  0.5053 -0.4374  0.5888
  764MOL0     O 3041   6.203   9.406   1.662 -0.9269 -0.8507 -0.2285
  764MOL0     C 3042   6.074   9.405   1.723  0.2649  0.6524  0.0771
  764MOL0     C 3043   5.983   9.327   1.625 -0.5306  0.8745 -0.1295
  764MOL0     C 3044   5.850   9.293   1.694  0.2648  0.7112  0.5966
  764MOL0     C 3045   5.743   9.398   1.692 -0.2290 -0.1908 -0.4163
  764MOL0     C 3046   5.607   9.344   1.753 -0.6218 -0.3817  0.6738
  764MOL0     C 3047   5.512   9.452   1.797  0.2340  0.0615  0.0842
  764MOL0     C 3048   5.362   9.405   1.770  0.8537  1.0616  0.2888
  764MOL0     C 3049   5.268   9.492   1.846  0.0498 -0.3485  0.4042
  764MOL0    Cl 3050   5.257   9.653   1.768 -0.0968  0.0353 -0.1397
  764MOL0     C 3051   6.405   9.515   1.612 -0.3805 -0.4603 -0.0548
  764MOL0     C 3052   6.499   9.610   1.656  0.0469  0.6240  0.4614
  764MOL0     O 3053   6.569   9.897   1.622  0.1907 -0.4191 -0.1882
  764MOL0     C 3054   6.836   9.897   1.856 -0.1654  1.1519  1.6520
  764MOL0     C 3055   6.959   9.940   1.893 -0.9553  0.9367  0.2558
  764MOL0     N 3056   7.816  10.257   1.871 -0.3200 -0.8762 -0.3027
  764MOL0     N 3057   7.878  10.357   1.832 -0.2331 -0.7203 -0.7257
  764MOL0     C 3058   8.638  10.944   2.132 -0.5194 -0.2020 -0.2357
  764MOL0     C 3059   8.771  10.983   2.088  0.2082  0.2409 -0.0515
  764MOL0     C 3060   9.131  11.182   1.861 -0.5604  0.4773 -0.5318
  764MOL0     C 3061   9.207  11.148   1.978  0.3063 -0.0126 -0.1987
  764MOL0     C 3062   9.344  11.175   1.982 -0.0593  0.2082  0.3139
  764MOL0     C 3063   9.411  11.247   1.876  0.7277  0.8676  0.3882
  764MOL0     O 3064   9.539  11.282   1.872 -0.2922  0.1532  0.1803
  764MOL0     C 3065   9.619  11.270   1.991 -0.4235  0.3921  0.1156
  764MOL0     C 3066   9.757  11.340   1.976 -0.0685 -0.0491  0.1279
  764MOL0     C 3067   9.743  11.483   1.964 -0.2095  0.6341 -0.2672
  764MOL0     C 3068   9.867  11.554   1.908 -0.3376 -0.2129  0.2355
  764MOL0     C 3069   9.849  11.699   1.916 -0.4483  0.8231  0.3057
  764MOL0     C 3070   9.836  11.817   1.901 -0.1085  0.5874  0.1699
  764MOL0     C 3071   9.333  11.284   1.774  0.3022 -0.2023  0.3549
  764MOL0     C 3072   9.195  11.256   1.760  0.5198 -0.4757  0.7543
  764MOL0     H 3073   8.685  11.155   1.800  2.0115 -0.4695 -0.4025
  764MOL0     H 3074   8.469  11.044   1.851 -1.0239  0.4475  1.2435
  764MOL0     H 3075   8.430  10.711   2.054  2.8385  0.4851  1.4333
  764MOL0     H 3076   8.430  10.775   2.213 -1.3309  2.0112  0.0217
  764MOL0     H 3077   8.225  10.658   2.168 -1.3033  0.0404  0.3288
  764MOL0     H 3078   8.185  10.830   2.186 -1.8614  0.5686 -2.4575
  764MOL0     H 3079   8.199  10.841   1.919 -2.0945  2.5638  2.0866
  764MOL0     H 3080   8.211  10.672   1.933 -2.6636 -1.8533 -1.0866
  764MOL0     H 3081   7.984  10.660   2.051 -1.1991 -0.2460 -2.7194
  764MOL0     H 3082   7.971  10.840   2.025  2.9726  2.0892  0.9142
  764MOL0     H 3083   7.994  10.793   1.778 -0.8396  0.5437  1.1033
  764MOL0     H 3084   8.016  10.616   1.821 -3.1306 -1.9869  1.6849
  764MOL0     H 3085   7.806  10.619   1.924  0.2008  0.3541  0.4963
  764MOL0     H 3086   7.762  10.782   1.873 -2.2969  0.0594 -0.7028
  764MOL0     H 3087   7.655  10.642   1.719 -0.5538 -3.2947 -0.8633
  764MOL0     H 3088   7.764  10.747   1.645  0.7100  1.0948  1.1697
  764MOL0     H 3089   7.932  10.552   1.658  0.4307  2.0091  0.5417
  764MOL0     H 3090   7.794  10.524   1.551 -0.7428  0.6387  1.1580
  764MOL0     H 3091   7.606  10.342   1.633  0.2334  1.2362  0.5935
  764MOL0     H 3092   7.596  10.055   1.765 -1.6454  0.7758 -1.0276
  764MOL0     H 3093   7.645  10.073   1.936  0.1911  1.7957  0.6787
  764MOL0     H 3094   7.414  10.241   1.814 -0.4569  0.9186  0.3220
  764MOL0     H 3095   7.461  10.211   1.988  1.5156 -1.3019  0.8048
  764MOL0     H 3096   7.436   9.981   1.981  0.3372  2.2442  0.4884
  764MOL0     H 3097   7.389   9.979   1.811 -0.9462  1.0679 -0.5147
  764MOL0     H 3098   7.220  10.126   2.010 -1.1033 -0.3656 -0.6824
  764MOL0     H 3099   7.203   9.954   1.990 -1.1115 -0.7425 -3.5172
  764MOL0     H 3100   7.028  10.085   1.590  1.5756 -4.2063 -1.3119
  764MOL0     H 3101   6.715  10.057   1.464  1.0446  1.2046  0.5647
  764MOL0     H 3102   6.881  10.051   1.437  0.6186  0.7050  0.7470
  764MOL0     H 3103   6.790   9.892   1.443 -0.6265  1.8223 -3.2752
  764MOL0     H 3104   6.397   9.718   1.958  1.5027  0.5647 -0.0792
  764MOL0     H 3105   6.206   9.563   1.898 -0.6451 -0.2205  0.2872
  764MOL0     H 3106   6.083   9.359   1.822 -1.3741  0.8627  0.3528
  764MOL0     H 3107   6.030   9.504   1.736  0.5844  0.4863  2.8709
  764MOL0     H 3108   5.965   9.379   1.531 -0.1370 -1.0229 -1.2951
  764MOL0     H 3109   6.030   9.233   1.595 -0.3885  1.3913 -1.6105
  764MOL0     H 3110   5.872   9.253   1.793 -3.3323 -0.6530  0.9923
  764MOL0     H 3111   5.809   9.207   1.640 -1.6639  1.1625  1.2735
  764MOL0     H 3112   5.777   9.491   1.738  0.0259 -0.9659  1.0170
  764MOL0     H 3113   5.718   9.431   1.590 -1.5181  1.1543  0.2955
  764MOL0     H 3114   5.625   9.277   1.838  1.2731  0.0775  0.6655
  764MOL0     H 3115   5.563   9.287   1.671  0.4481  0.1973 -0.3316
  764MOL0     H 3116   5.525   9.464   1.905 -1.5208  3.3084  0.0659
  764MOL0     H 3117   5.539   9.544   1.745 -2.6418 -1.4539 -4.7729
  764MOL0     H 3118   5.342   9.302   1.799 -0.9322  0.9321 -1.1952
  764MOL0     H 3119   5.337   9.413   1.664 -1.9635  1.0605  0.8852
  764MOL0     H 3120   5.298   9.515   1.948 -2.4428  2.5308  0.6442
  764MOL0     H 3121   5.167   9.450   1.855  0.5134 -1.0857  2.8422
  764MOL0     H 3122   6.403   9.455   1.523 -0.5448  0.5886 -0.7787
  764MOL0     H 3123   6.578   9.624   1.583  0.8687 -2.3920  0.6336
  764MOL0     H 3124   6.790   9.828   1.926 -0.2609  0.5473  0.9929
  764MOL0     H 3125   6.992   9.917   1.994  0.0546 -2.1603 -0.6694
  764MOL0     H 3126   8.621  10.891   2.225 -0.2265 -0.9255 -0.5836
  764MOL0     H 3127   8.859  10.958   2.147  1.1833  1.2022 -1.0869
  764MOL0     H 3128   9.160  11.093   2.059 -1.1083 -2.8567 -2.7360
  764MOL0     H 3129   9.395  11.145   2.073 -0.0536  1.4827  0.7547
  764MOL0     H 3130   9.564  11.307   2.079 -0.7790 -1.4189  0.6921
  764MOL0     H 3131   9.627  11.163   2.010 -1.7182  0.3847  0.7488
  764MOL0     H 3132   9.798  11.300   1.882 -2.2810  1.5826 -1.6263
  764MOL0     H 3133   9.826  11.323   2.060 -1.0769 -0.9133  0.8089
  764MOL0     H 3134   9.716  11.526   2.061  0.0934 -0.5604  0.3638
  764MOL0     H 3135   9.666  11.495   1.887 -0.2901  0.7455 -0.1709
  764MOL0     H 3136   9.864  11.522   1.804  1.7671  0.4340 -0.0698
  764MOL0     H 3137   9.960  11.527   1.959  0.1272 -1.5832 -1.2372
  764MOL0     H 3138   9.820  11.922   1.915 -2.1731  0.5098 -1.1258
  764MOL0     H 3139   9.369  11.334   1.684 -1.3438 -0.7671 -0.6618
  764MOL0     H 3140   9.150  11.290   1.668  2.1132 -0.1209  0.0856
  765MOL0     O 3141   9.031   6.067  10.740 -0.0432  0.2797 -1.2998
  765MOL0     C 3142   9.096   6.171  10.740 -0.3646  0.3657  0.2018
  765MOL0     O 3143   9.050   6.295  10.757 -0.4677  0.4179  0.1035
  765MOL0     C 3144   8.917   6.291  10.792 -0.1780 -0.4875  0.2877
  765MOL0     C 3145   8.812   6.255  10.704 -0.1395  0.2154  0.0782
  765MOL0     C 3146   8.678   6.278  10.743 -0.1625 -1.0446  0.0117
  765MOL0     C 3147   8.651   6.320  10.868  0.0684 -0.6324 -0.8347
  765MOL0     O 3148   8.524   6.341  10.909  0.1876  0.1460 -0.0141
  765MOL0     C 3149   8.429   6.242  10.879 -0.1367 -0.4147  0.6132
  765MOL0     C 3150   8.333   6.301  10.780 -0.8949  0.1965 -0.4557
  765MOL0     C 3151   8.223   6.389  10.853 -0.3208 -0.0442 -0.2282
  765MOL0     C 3152   8.119   6.418  10.748 -0.2317  0.2092 -0.0159
  765MOL0     C 3153   8.037   6.534  10.803 -0.5847  0.0367  0.6798
  765MOL0     C 3154   7.918   6.561  10.712  0.2539  0.2154 -0.6298
  765MOL0     C 3155   7.807   6.631  10.787 -0.6656 -0.5658 -0.2045
  765MOL0     C 3156   7.679   6.667  10.697  0.7318  0.5106 -0.7897
  765MOL0     N 3157   7.602   6.550  10.678 -0.0305 -0.0566 -0.1257
  765MOL0     C 3158   7.489   6.522  10.761  0.2758 -0.1715 -0.2572
  765MOL0     C 3159   7.441   6.402  10.722 -0.6045  0.6606  0.4461
  765MOL0     C 3160   7.318   6.333  10.786 -0.0024 -0.6928  0.3436
  765MOL0     C 3161   7.190   6.324  10.703 -0.8548  0.6677 -0.3701
  765MOL0     C 3162   7.054   6.280  10.770 -0.2327  0.2047 -0.4450
  765MOL0     C 3163   6.942   6.308  10.663  0.8986  0.6011 -0.1539
  765MOL0     O 3164   6.809   6.301  10.711  0.4865 -0.4818  0.6066
  765MOL0     C 3165   6.716   6.286  10.612 -0.3769 -1.1950  0.2447
  765MOL0     C 3166   6.587   6.290  10.660 -0.7834 -0.2421 -0.0737
  765MOL0     C 3167   6.475   6.297  10.571 -0.7441  0.3141 -0.5517
  765MOL0     C 3168   6.342   6.273  10.627 -0.5587  0.6674  0.4870
  765MOL0     C 3169   6.501   6.302  10.428 -0.6307 -1.1902  0.5694
  765MOL0     C 3170   6.392   6.328  10.322 -0.3747 -0.2649 -0.1183
  765MOL0     O 3171   6.269   6.336  10.362 -0.2044 -0.0150  0.2051
  765MOL0     C 3172   6.168   6.366  10.272 -0.2962  0.1585 -0.1446
  765MOL0     C 3173   6.065   6.284  10.245  0.4971 -0.2218  0.4525
  765MOL0     C 3174   5.968   6.315  10.141 -0.3061  0.1773  0.3533
  765MOL0     C 3175   5.990   6.430  10.060 -0.0496  0.9702 -0.0311
  765MOL0     O 3176   5.903   6.456   9.958  0.1472 -0.3815 -0.4897
  765MOL0     C 3177   5.883   6.598   9.914 -0.5060  0.3459  0.0954
  765MOL0     C 3178   5.757   6.606   9.830 -0.3186 -0.9978 -0.0214
  765MOL0     C 3179   5.622   6.567   9.902 -0.4360 -0.1879 -0.2117
  765MOL0     C 3180   5.619   6.636  10.033 -0.2981 -0.2236  0.7902
  765MOL0     C 3181   5.487   6.597  10.106  0.1316 -0.1902 -0.0875
  765MOL0     C 3182   5.500   6.668  10.250 -0.0928 -0.7029  0.1739
  765MOL0     C 3183   5.355   6.682  10.308  0.6075 -0.1029 -0.4057
  765MOL0     C 3184   5.345   6.756  10.443  0.3807 -0.7458  0.8471
  765MOL0    Cl 3185   5.457   6.691  10.560  0.2154  0.1151  0.2599
  765MOL0     C 3186   6.103   6.511  10.083 -0.2129  0.2401 -0.3376
  765MOL0     C 3187   6.185   6.478  10.192  0.3649 -0.5151 -0.5959
  765MOL0     O 3188   6.423   6.340  10.206 -0.2010 -0.1369  0.2656
  765MOL0     C 3189   6.636   6.299  10.381  0.5737  0.3854  1.0898
  765MOL0     C 3190   6.738   6.288  10.472 -0.4398 -0.5813 -0.2200
  765MOL0     N 3191   7.525   6.360  10.625  0.3479 -0.1791  0.2921
  765MOL0     N 3192   7.624   6.442  10.597  0.5522  0.9706  0.0564
  765MOL0     C 3193   8.751   6.352  10.956 -0.0921 -1.0079  0.2507
  765MOL0     C 3194   8.889   6.342  10.919  0.1757  1.2991 -0.3812
  765MOL0     C 3195   9.242   6.156  10.709  0.5001  0.4887 -0.4677
  765MOL0     C 3196   9.300   6.048  10.653  0.6611 -0.0406  0.3735
  765MOL0     C 3197   9.436   6.039  10.638 -0.6613  0.4627 -0.5644
  765MOL0     C 3198   9.520   6.150  10.672  0.0640 -0.3678 -0.3838
  765MOL0     O 3199   9.658   6.165  10.674 -0.0950  0.0138 -0.5257
  765MOL0     C 3200   9.722   6.170  10.541  0.3882 -0.1220 -0.1845
  765MOL0     C 3201   9.842   6.257  10.523 -0.1063 -0.7795 -0.7920
  765MOL0     C 3202   9.965   6.210  10.593 -0.6161 -0.6364 -1.1167
  765MOL0     C 3203  10.087   6.301  10.580 -0.6331 -0.3540  0.5116
  765MOL0     C 3204  10.118   6.318  10.441  1.0686  1.4021  0.4454
  765MOL0     C 3205  10.152   6.345  10.323 -0.8781 -0.3045 -0.7214
  765MOL0     C 3206   9.456   6.264  10.721 -0.2449 -0.1818 -0.0525
  765MOL0     C 3207   9.320   6.264  10.740  0.0862 -0.2830 -0.5557
  765MOL0     H 3208   8.834   6.216  10.606  1.7285  1.3398  0.0006
  765MOL0     H 3209   8.605   6.239  10.672 -2.1418 -0.7289  1.7861
  765MOL0     H 3210   8.472   6.149  10.843 -4.1637 -1.8053 -1.1785
  765MOL0     H 3211   8.376   6.201  10.964  0.7617 -2.2012  0.3581
  765MOL0     H 3212   8.400   6.343  10.705  2.5136 -1.2333  1.5410
  765MOL0     H 3213   8.274   6.222  10.731 -0.9014 -1.2563  1.7294
  765MOL0     H 3214   8.190   6.335  10.942  1.0380 -0.1365  0.2511
  765MOL0     H 3215   8.273   6.482  10.879  0.2516 -0.1213 -1.0174
  765MOL0     H 3216   8.156   6.441  10.648 -0.2202 -0.5850 -0.1989
  765MOL0     H 3217   8.052   6.333  10.737 -0.0525  0.1961 -1.0510
  765MOL0     H 3218   7.998   6.520  10.904 -0.7991  3.0427  1.1190
  765MOL0     H 3219   8.104   6.619  10.821  1.1680 -1.7545  3.2356
  765MOL0     H 3220   7.953   6.621  10.627 -0.7892  1.5298 -0.1564
  765MOL0     H 3221   7.869   6.471  10.672 -1.4876  2.1677 -3.2262
  765MOL0     H 3222   7.763   6.573  10.869 -0.7323 -0.0622  0.1227
  765MOL0     H 3223   7.849   6.725  10.825 -0.2745 -0.4447 -0.9232
  765MOL0     H 3224   7.718   6.709  10.604 -0.0403  1.7502 -0.5751
  765MOL0     H 3225   7.615   6.740  10.747  1.2267 -0.2276  0.9985
  765MOL0     H 3226   7.448   6.582  10.841 -0.1237 -1.8419  0.8566
  765MOL0     H 3227   7.335   6.231  10.822 -3.2424 -1.5806 -0.2562
  765MOL0     H 3228   7.292   6.403  10.866 -0.7392 -0.3067 -0.2226
  765MOL0     H 3229   7.214   6.255  10.622 -0.1140 -0.5442  0.8492
  765MOL0     H 3230   7.184   6.426  10.663  3.5585  0.7657 -1.2339
  765MOL0     H 3231   7.045   6.325  10.869  1.7948  0.2518 -0.2256
  765MOL0     H 3232   7.066   6.173  10.788  1.1157  0.2903 -0.7335
  765MOL0     H 3233   6.948   6.223  10.595 -0.5186  0.5439 -0.2433
  765MOL0     H 3234   6.950   6.409  10.621  0.7921  1.6362  2.1753
  765MOL0     H 3235   6.568   6.278  10.766 -0.2655 -0.8078 -0.0368
  765MOL0     H 3236   6.269   6.353  10.612  0.4114  1.5719  0.4818
  765MOL0     H 3237   6.291   6.191  10.575 -0.4267  1.1715 -0.4616
  765MOL0     H 3238   6.344   6.251  10.734  0.8866  1.2068  0.5875
  765MOL0     H 3239   6.044   6.199  10.310 -2.7183 -0.3057 -0.4932
  765MOL0     H 3240   5.873   6.262  10.142 -0.4712  0.3751  2.6617
  765MOL0     H 3241   5.871   6.659  10.004  2.4113 -1.5181  1.9350
  765MOL0     H 3242   5.965   6.639   9.855 -0.7651  2.2816  0.9971
  765MOL0     H 3243   5.751   6.710   9.795  1.3773 -0.5018  1.0194
  765MOL0     H 3244   5.781   6.559   9.734  1.4822  0.6741 -0.4636
  765MOL0     H 3245   5.603   6.461   9.920 -2.6341  0.3378  0.9325
  765MOL0     H 3246   5.539   6.600   9.838 -0.7464  0.9137  0.7433
  765MOL0     H 3247   5.694   6.601  10.105 -2.0666 -2.8484  1.4933
  765MOL0     H 3248   5.634   6.743  10.019 -0.1824  0.0081  2.5038
  765MOL0     H 3249   5.467   6.490  10.115 -3.7478  0.1432 -2.6911
  765MOL0     H 3250   5.398   6.620  10.047  0.3663 -1.6629 -1.0461
  765MOL0     H 3251   5.558   6.595  10.307  0.1459 -1.6194 -1.2183
  765MOL0     H 3252   5.547   6.766  10.242 -3.0535  1.0140  1.8208
  765MOL0     H 3253   5.308   6.584  10.322  1.4247 -0.2822  1.4477
  765MOL0     H 3254   5.287   6.733  10.240  0.2335 -0.0662 -0.0092
  765MOL0     H 3255   5.244   6.742  10.480  0.0490 -3.2007 -0.7436
  765MOL0     H 3256   5.360   6.864  10.431 -0.9334 -0.1545  3.7365
  765MOL0     H 3257   6.129   6.591  10.015  1.6824 -0.8285 -0.9201
  765MOL0     H 3258   6.270   6.540  10.220 -0.1890 -1.7006  4.5866
  765MOL0     H 3259   6.651   6.304  10.273  0.8792  0.0802  1.1152
  765MOL0     H 3260   6.839   6.285  10.431 -2.0839 -0.4531 -4.7738
  765MOL0     H 3261   8.732   6.395  11.054 -1.5074 -0.4428 -0.2549
  765MOL0     H 3262   8.973   6.368  10.982  1.1353 -0.1184 -1.0058
  765MOL0     H 3263   9.235   5.964  10.629  0.7206  0.5740 -2.1930
  765MOL0     H 3264   9.482   5.948  10.600  0.4802  0.3264  1.0341
  765MOL0     H 3265   9.748   6.067  10.514 -2.9985 -0.6449 -2.0581
  765MOL0     H 3266   9.656   6.205  10.461  1.5804  1.4309 -0.5424
  765MOL0     H 3267   9.819   6.359  10.557 -1.6893 -1.5076  0.4513
  765MOL0     H 3268   9.864   6.262  10.416  2.4714 -1.2178 -0.3484
  765MOL0     H 3269   9.984   6.108  10.559 -0.1161 -0.5571 -1.0836
  765MOL0     H 3270   9.943   6.199  10.699  1.0318  1.0094 -0.5469
  765MOL0     H 3271  10.176   6.268  10.635  0.4467 -0.4015 -1.2070
  765MOL0     H 3272  10.061   6.399  10.622 -1.1552 -1.4615  2.9579
  765MOL0     H 3273  10.199   6.370  10.230  1.2601 -1.0012  0.1140
  765MOL0     H 3274   9.511   6.354  10.745 -1.8566  0.5310  1.1289
  765MOL0     H 3275   9.279   6.361  10.763 -0.2045 -0.4260 -0.4640
  766MOL0     O 3276   6.685   1.424   9.084 -0.0875  0.7146 -0.4352
  766MOL0     C 3277   6.663   1.473   9.193  0.4124 -0.0243 -0.0106
  766MOL0     O 3278   6.747   1.466   9.303 -1.7082 -1.0690 -0.6137
  766MOL0     C 3279   6.855   1.387   9.309  1.1467  1.3438  0.6916
  766MOL0     C 3280   6.851   1.299   9.415  0.2093  0.1832 -0.0817
  766MOL0     C 3281   6.954   1.205   9.423 -0.6983 -0.1623  0.3173
  766MOL0     C 3282   7.065   1.201   9.334  0.2259 -0.3255  0.2304
  766MOL0     O 3283   7.160   1.103   9.360  0.5125 -0.2758  0.0898
  766MOL0     C 3284   7.217   1.021   9.256  0.4948 -0.5699 -0.1536
  766MOL0     C 3285   7.185   0.880   9.297  0.0875 -0.4501  0.0907
  766MOL0     C 3286   7.273   0.794   9.213 -1.1825 -0.0603 -0.2043
  766MOL0     C 3287   7.251   0.646   9.255  0.7616  0.7199 -0.8511
  766MOL0     C 3288   7.373   0.570   9.195  0.1499 -0.4844  0.0427
  766MOL0     C 3289   7.383   0.426   9.244 -0.4276 -0.4199  0.2407
  766MOL0     C 3290   7.253   0.334   9.239  0.4702  0.5320  0.6663
  766MOL0     C 3291   7.288   0.213   9.332  0.5084  0.4789 -0.9610
  766MOL0     N 3292   7.182   0.110   9.335  0.3696 -0.2226  0.2525
  766MOL0     C 3293   7.061   0.108   9.401 -0.2016  0.7034  0.3520
  766MOL0     C 3294   7.009  -0.009   9.377  0.0593 -0.3244  0.5635
  766MOL0     C 3295   6.880  -0.061   9.440 -0.0585  0.0519  0.0979
  766MOL0     C 3296   6.759   0.039   9.409 -0.1287 -0.2731  0.1852
  766MOL0     C 3297   6.646  -0.020   9.312  0.9121  0.5284 -0.0993
  766MOL0     C 3298   6.527   0.073   9.306  0.7520  0.1744 -0.0402
  766MOL0     O 3299   6.433   0.014   9.215 -0.0152  0.1490  0.4942
  766MOL0     C 3300   6.306   0.040   9.248  0.1930  0.1621 -0.5941
  766MOL0     C 3301   6.259   0.165   9.282  0.0926 -0.2211 -0.0452
  766MOL0     C 3302   6.121   0.179   9.310  0.1075 -0.5752  0.2280
  766MOL0     C 3303   6.084   0.320   9.326 -0.3441 -0.4069  0.0739
  766MOL0     C 3304   6.035   0.070   9.315  0.2592  0.2980 -0.6164
  766MOL0     C 3305   5.889   0.075   9.333  0.9949 -0.9485  0.7379
  766MOL0     O 3306   5.825   0.192   9.341 -0.0230 -0.1531  0.1340
  766MOL0     C 3307   5.713   0.220   9.416 -0.6928 -0.1479  0.1048
  766MOL0     C 3308   5.659   0.135   9.512  0.1570  0.3532 -0.5472
  766MOL0     C 3309   5.545   0.163   9.579  0.1835  0.3869  0.0092
  766MOL0     C 3310   5.483   0.284   9.553  0.1143  0.4330  0.5045
  766MOL0     O 3311   5.358   0.316   9.613 -0.5094 -0.3994  0.1685
  766MOL0     C 3312   5.272   0.212   9.659 -0.7450  0.2738 -0.0928
  766MOL0     C 3313   5.222   0.124   9.542 -0.0489  0.2071  0.5226
  766MOL0     C 3314   5.146   0.008   9.598 -0.6505 -0.0720 -0.3762
  766MOL0     C 3315   5.030   0.061   9.692  0.1806 -0.3397  0.6541
  766MOL0     C 3316   4.897  -0.016   9.663 -0.0125 -0.1853  0.3063
  766MOL0     C 3317   4.829   0.039   9.541  0.9381  0.5881  0.1080
  766MOL0     C 3318   4.696  -0.041   9.546  0.2059  0.1859  0.6845
  766MOL0     C 3319   4.632  -0.055   9.405  0.2195  0.2909  1.3380
  766MOL0    Cl 3320   4.463  -0.109   9.404  0.1359  0.2151 -0.5136
  766MOL0     C 3321   5.540   0.374   9.465  0.1615  0.1562  0.1426
  766MOL0     C 3322   5.655   0.347   9.398  0.0312  0.2572  0.1637
  766MOL0     O 3323   5.837  -0.038   9.345 -0.2632 -0.3785 -0.4719
  766MOL0     C 3324   6.088  -0.063   9.282  1.0553  0.2136  0.2995
  766MOL0     C 3325   6.217  -0.068   9.242  0.4216  0.6414  0.0082
  766MOL0     N 3326   7.093  -0.085   9.302 -0.2221  0.1843  0.0164
  766MOL0     N 3327   7.193  -0.010   9.270 -1.2532  0.1672  0.3387
  766MOL0     C 3328   7.062   1.288   9.222  0.5090  0.9373 -0.3740
  766MOL0     C 3329   6.947   1.373   9.214  0.1454 -0.6853  0.5638
  766MOL0     C 3330   6.543   1.562   9.190 -0.6749 -0.0668 -0.2278
  766MOL0     C 3331   6.449   1.557   9.089  0.2957 -1.0751  1.1109
  766MOL0     C 3332   6.333   1.645   9.090 -0.5419 -0.7798 -0.1723
  766MOL0     C 3333   6.311   1.733   9.202  0.2215  0.1659 -0.1442
  766MOL0     O 3334   6.201   1.824   9.219 -0.4794  0.4312  0.8454
  766MOL0     C 3335   6.089   1.821   9.123  0.2125 -0.7609 -0.3404
  766MOL0     C 3336   5.979   1.910   9.170  0.4078 -0.5297 -0.1392
  766MOL0     C 3337   6.018   2.061   9.205  0.4126 -0.0640  0.1129
  766MOL0     C 3338   5.905   2.143   9.273  0.4489  0.1342  1.1128
  766MOL0     C 3339   5.828   2.217   9.169  0.1657  0.6340  0.2127
  766MOL0     C 3340   5.761   2.274   9.089 -0.1582  0.5198  0.9464
  766MOL0     C 3341   6.412   1.742   9.296 -0.4562 -0.5154 -0.3682
  766MOL0     C 3342   6.531   1.665   9.289 -0.3580  0.3120 -0.0723
  766MOL0     H 3343   6.778   1.290   9.495  0.3620 -2.8218 -0.1564
  766MOL0     H 3344   6.936   1.125   9.494  2.2602 -0.4072  0.9062
  766MOL0     H 3345   7.164   1.031   9.161  0.7860 -1.2272 -0.3879
  766MOL0     H 3346   7.324   1.039   9.252  0.5834  0.1565  2.6587
  766MOL0     H 3347   7.208   0.860   9.402  3.0967 -1.9753 -0.7248
  766MOL0     H 3348   7.081   0.857   9.271  0.5234 -0.6701 -1.6304
  766MOL0     H 3349   7.260   0.798   9.105  2.8999 -0.7387 -0.8766
  766MOL0     H 3350   7.377   0.823   9.229 -0.3391 -1.1228 -3.1297
  766MOL0     H 3351   7.260   0.634   9.363  0.3329 -1.3072 -1.0038
  766MOL0     H 3352   7.160   0.597   9.220  1.5019 -0.2998 -1.4253
  766MOL0     H 3353   7.360   0.564   9.086  0.3014  0.5104 -0.0425
  766MOL0     H 3354   7.464   0.626   9.218  0.4008  1.9328 -5.3435
  766MOL0     H 3355   7.469   0.381   9.193  2.3849 -0.8459  4.8735
  766MOL0     H 3356   7.408   0.421   9.350  0.5912 -0.8502 -0.0027
  766MOL0     H 3357   7.164   0.381   9.281 -1.0315 -1.9924  0.4560
  766MOL0     H 3358   7.225   0.296   9.140  1.6513  3.2304 -0.8360
  766MOL0     H 3359   7.322   0.250   9.429  1.0185  1.6580 -1.5608
  766MOL0     H 3360   7.372   0.158   9.289  1.8450  2.4298 -0.9447
  766MOL0     H 3361   7.021   0.188   9.462 -3.1560 -1.2289  1.1362
  766MOL0     H 3362   6.853  -0.156   9.394  0.5589  0.5917 -1.4282
  766MOL0     H 3363   6.892  -0.070   9.549  2.4568 -0.6146 -0.1850
  766MOL0     H 3364   6.796   0.140   9.389  0.8943 -0.8818 -1.1453
  766MOL0     H 3365   6.711   0.065   9.504 -0.6627  2.3914 -0.7148
  766MOL0     H 3366   6.605  -0.118   9.337  0.7318  0.9299  1.3078
  766MOL0     H 3367   6.700  -0.027   9.217 -1.8791 -1.7095 -1.6383
  766MOL0     H 3368   6.565   0.169   9.270  0.8924  0.0206 -0.3093
  766MOL0     H 3369   6.481   0.084   9.405  0.7281 -2.6778  0.3526
  766MOL0     H 3370   6.317   0.256   9.277 -5.0888  3.5154 -0.7145
  766MOL0     H 3371   6.026   0.352   9.239  0.2739  0.6676  0.0370
  766MOL0     H 3372   6.023   0.345   9.414 -0.1618  0.3736 -0.0126
  766MOL0     H 3373   6.176   0.379   9.333  0.1815 -1.1681 -0.2873
  766MOL0     H 3374   5.713   0.042   9.526 -1.6858 -0.5332  1.2559
  766MOL0     H 3375   5.497   0.101   9.654 -3.8759  3.7423  0.5598
  766MOL0     H 3376   5.319   0.146   9.733 -0.2553 -0.8038 -1.3454
  766MOL0     H 3377   5.191   0.266   9.710  0.9187  0.1704  2.9159
  766MOL0     H 3378   5.167   0.190   9.474 -0.8167  0.6205  1.5415
  766MOL0     H 3379   5.311   0.087   9.489 -0.4469  0.9919 -0.7469
  766MOL0     H 3380   5.214  -0.056   9.656 -1.6005  0.2620  1.1800
  766MOL0     H 3381   5.100  -0.051   9.518  1.1151 -0.8759 -0.8474
  766MOL0     H 3382   5.061   0.052   9.797 -1.5874 -0.9620  1.1603
  766MOL0     H 3383   5.008   0.167   9.673 -1.1070 -0.3892  1.7014
  766MOL0     H 3384   4.837   0.000   9.752 -0.3377  1.6933 -0.2108
  766MOL0     H 3385   4.923  -0.122   9.652  1.0702  0.2769 -2.5022
  766MOL0     H 3386   4.802   0.143   9.561 -2.5644 -0.3188  0.7489
  766MOL0     H 3387   4.872   0.019   9.442 -1.5862 -1.2511 -0.7482
  766MOL0     H 3388   4.624   0.021   9.601 -1.7979 -0.9433 -0.5415
  766MOL0     H 3389   4.705  -0.142   9.586 -2.7797  0.2696  1.8377
  766MOL0     H 3390   4.696  -0.125   9.351 -1.2713 -0.1087  0.0166
  766MOL0     H 3391   4.644   0.043   9.357  0.3233  0.3708  1.5236
  766MOL0     H 3392   5.491   0.470   9.453 -1.3493 -0.7856 -1.8022
  766MOL0     H 3393   5.702   0.415   9.327  2.7901 -0.7231  0.9220
  766MOL0     H 3394   6.027  -0.152   9.277  1.6927 -0.1722 -1.3735
  766MOL0     H 3395   6.263  -0.157   9.201  3.4769  2.9056 -1.8618
  766MOL0     H 3396   7.145   1.281   9.152  1.1341 -0.0464  0.4387
  766MOL0     H 3397   6.952   1.442   9.131 -0.3137 -0.0867  1.0323
  766MOL0     H 3398   6.463   1.493   9.003  2.5663 -0.0937  0.6790
  766MOL0     H 3399   6.261   1.658   9.010  0.2063  2.0070 -0.4735
  766MOL0     H 3400   6.125   1.858   9.027 -2.5643  1.2575 -0.7126
  766MOL0     H 3401   6.051   1.719   9.115  0.9849 -1.0414 -0.5546
  766MOL0     H 3402   5.936   1.861   9.258  0.3783  3.7562  2.4871
  766MOL0     H 3403   5.900   1.899   9.095 -0.6835 -1.4769  1.1046
  766MOL0     H 3404   6.046   2.107   9.110  2.3790  0.2073  0.7692
  766MOL0     H 3405   6.107   2.051   9.268  0.3185 -0.2923  0.2146
  766MOL0     H 3406   5.959   2.212   9.338 -2.0201  1.1238  2.2324
  766MOL0     H 3407   5.845   2.076   9.335 -0.2637  1.5966  2.0720
  766MOL0     H 3408   5.698   2.317   9.013  0.5175 -1.8768 -1.0832
  766MOL0     H 3409   6.395   1.814   9.376  0.1947  1.0586 -1.5940
  766MOL0     H 3410   6.604   1.673   9.370  0.5808  0.1781 -0.8897
  767MOL0     O 3411   7.540   2.782   3.233  0.1622 -0.3983 -1.0656
  767MOL0     C 3412   7.567   2.898   3.202 -0.7574 -0.1691  0.3511
  767MOL0     O 3413   7.489   2.971   3.131 -0.6876 -0.4524  0.3160
  767MOL0     C 3414   7.357   2.935   3.096 -0.7063 -0.0436 -0.1910
  767MOL0     C 3415   7.307   2.958   2.969  0.1705  0.5547 -0.5807
  767MOL0     C 3416   7.177   2.935   2.944  0.4093  0.5181 -0.1327
  767MOL0     C 3417   7.098   2.875   3.037  0.4862  0.9062  0.3018
  767MOL0     O 3418   6.963   2.856   2.996  0.4062  0.3568 -0.2268
  767MOL0     C 3419   6.858   2.869   3.098 -1.3801 -0.5631  0.0440
  767MOL0     C 3420   6.724   2.860   3.025 -0.1234 -0.5449  0.4450
  767MOL0     C 3421   6.713   2.716   2.984  0.2827  0.0206 -0.8392
  767MOL0     C 3422   6.561   2.675   2.969  0.1245 -0.4891 -0.4822
  767MOL0     C 3423   6.498   2.714   2.833  0.6098 -0.0991 -0.1567
  767MOL0     C 3424   6.361   2.650   2.826 -0.2951  0.9781  0.0104
  767MOL0     C 3425   6.294   2.678   2.690 -0.0789 -0.2082  0.4492
  767MOL0     C 3426   6.392   2.624   2.575  0.1838  0.7944  0.2228
  767MOL0     N 3427   6.316   2.573   2.456  1.1562 -0.1697 -1.0952
  767MOL0     C 3428   6.335   2.456   2.385 -0.4862 -0.2339 -0.2960
  767MOL0     C 3429   6.230   2.449   2.300 -0.0546  0.2913  0.3701
  767MOL0     C 3430   6.223   2.335   2.214  0.0713  1.2018 -0.7126
  767MOL0     C 3431   6.076   2.287   2.190  0.4566  0.2309  0.4325
  767MOL0     C 3432   6.006   2.359   2.083 -0.1708 -0.1825  1.0680
  767MOL0     C 3433   5.868   2.290   2.064  0.4777 -0.8204  0.6629
  767MOL0     O 3434   5.801   2.366   1.959 -0.5394  0.7995 -0.5284
  767MOL0     C 3435   5.671   2.335   1.942 -0.6801 -1.0989  1.2865
  767MOL0     C 3436   5.610   2.213   1.951  0.0628 -0.1649 -0.0467
  767MOL0     C 3437   5.474   2.199   1.922 -1.0167 -1.0374 -0.3934
  767MOL0     C 3438   5.411   2.068   1.949  0.6579 -0.8888  0.4665
  767MOL0     C 3439   5.393   2.306   1.891  0.4722  0.1072 -0.4823
  767MOL0     C 3440   5.260   2.299   1.819 -0.1113  0.0135  0.7324
  767MOL0     O 3441   5.240   2.194   1.739 -0.6349 -0.4207 -0.1029
  767MOL0     C 3442   5.123   2.183   1.663 -0.7161 -0.2994 -0.1280
  767MOL0     C 3443   5.023   2.135   1.740  0.5067  0.0208  0.1001
  767MOL0     C 3444   4.891   2.142   1.689 -0.3326 -0.0358 -0.2965
  767MOL0     C 3445   4.869   2.202   1.565  0.7976 -0.9046  0.3958
  767MOL0     O 3446   4.738   2.209   1.521 -0.3832 -0.0938  0.4734
  767MOL0     C 3447   4.696   2.298   1.412 -0.2267  0.2527 -1.0746
  767MOL0     C 3448   4.552   2.335   1.435  0.3313  0.5763  0.7786
  767MOL0     C 3449   4.548   2.443   1.547 -0.1697  0.2569  0.0390
  767MOL0     C 3450   4.403   2.479   1.568  0.4072  1.0448 -0.8078
  767MOL0     C 3451   4.383   2.560   1.701 -0.1197 -0.7816  1.1679
  767MOL0     C 3452   4.422   2.704   1.682 -0.1993 -0.2722 -0.2794
  767MOL0     C 3453   4.409   2.772   1.810 -0.4141  0.6070 -0.9265
  767MOL0     C 3454   4.422   2.923   1.798 -0.2092  0.0128  0.9519
  767MOL0    Cl 3455   4.416   2.998   1.959 -0.1329 -0.2158  0.0631
  767MOL0     C 3456   4.978   2.257   1.489  1.1160  0.9422  0.2213
  767MOL0     C 3457   5.100   2.241   1.534 -0.5541 -0.7159 -0.0905
  767MOL0     O 3458   5.186   2.402   1.816 -0.6132  0.8085 -0.4420
  767MOL0     C 3459   5.457   2.437   1.882 -0.3468 -1.1232 -0.8938
  767MOL0     C 3460   5.597   2.448   1.912 -0.9151 -0.2073 -0.6620
  767MOL0     N 3461   6.148   2.563   2.314  0.1872 -0.5253  0.6904
  767MOL0     N 3462   6.205   2.636   2.409 -0.5895 -0.0569 -0.0921
  767MOL0     C 3463   7.146   2.851   3.170  1.3563  0.1975  0.2930
  767MOL0     C 3464   7.272   2.894   3.203 -0.1152 -0.0912  0.0312
  767MOL0     C 3465   7.708   2.961   3.233 -1.6067  0.6547 -0.4913
  767MOL0     C 3466   7.819   2.875   3.263 -0.9530  0.3723  0.1441
  767MOL0     C 3467   7.943   2.933   3.295 -0.1559 -0.1385 -0.2890
  767MOL0     C 3468   7.980   3.070   3.288 -0.3692 -0.6857 -0.1126
  767MOL0     O 3469   8.103   3.127   3.314 -0.1849 -0.3161 -0.4417
  767MOL0     C 3470   8.202   3.030   3.364  0.0565 -0.2454  0.1102
  767MOL0     C 3471   8.341   3.102   3.374  0.0109 -0.4915  0.2226
  767MOL0     C 3472   8.460   3.002   3.400  0.0585  0.3963 -0.1061
  767MOL0     C 3473   8.590   3.061   3.399 -0.5941  0.3537  0.0173
  767MOL0     C 3474   8.630   3.125   3.528  0.4615  0.4021 -0.2512
  767MOL0     C 3475   8.631   3.184   3.633 -0.1625  0.4672  0.6093
  767MOL0     C 3476   7.873   3.151   3.250  0.5174  0.6045 -0.7657
  767MOL0     C 3477   7.743   3.092   3.223 -0.2447  0.0537  0.7874
  767MOL0     H 3478   7.377   3.004   2.900  1.9544  0.4418  1.0648
  767MOL0     H 3479   7.140   2.952   2.843  1.1522 -0.0898 -0.5154
  767MOL0     H 3480   6.866   2.791   3.174 -1.0651 -0.3044  0.2796
  767MOL0     H 3481   6.862   2.968   3.145 -1.1841  0.6544 -2.3840
  767MOL0     H 3482   6.639   2.895   3.083 -0.4360  0.3053 -0.5091
  767MOL0     H 3483   6.718   2.918   2.933  0.9261 -1.5790 -0.3110
  767MOL0     H 3484   6.748   2.711   2.880 -0.7484 -0.7776 -1.1601
  767MOL0     H 3485   6.759   2.644   3.052 -1.9002 -1.2082 -0.5717
  767MOL0     H 3486   6.567   2.566   2.969  0.1501 -0.5019 -1.7572
  767MOL0     H 3487   6.493   2.707   3.049 -0.9080  2.0815 -2.2619
  767MOL0     H 3488   6.475   2.821   2.845 -1.6416 -0.4827 -0.5489
  767MOL0     H 3489   6.564   2.693   2.749 -0.2208  0.1713 -0.8849
  767MOL0     H 3490   6.371   2.542   2.841  1.0856  1.3791  2.4621
  767MOL0     H 3491   6.305   2.694   2.909  3.7080  1.0557  2.9647
  767MOL0     H 3492   6.204   2.616   2.692 -3.3562  4.0242 -0.8397
  767MOL0     H 3493   6.267   2.784   2.688  0.7997  0.1662  3.1152
  767MOL0     H 3494   6.455   2.547   2.621  2.1954  0.4150 -2.8572
  767MOL0     H 3495   6.460   2.698   2.532 -1.3178  0.9658 -2.0909
  767MOL0     H 3496   6.407   2.378   2.407 -1.0411 -1.2205 -1.7580
  767MOL0     H 3497   6.270   2.363   2.119  3.2300  0.6108  0.5650
  767MOL0     H 3498   6.279   2.248   2.249 -1.0111  0.6612 -0.2682
  767MOL0     H 3499   6.013   2.300   2.278  2.0617 -1.9139  2.0117
  767MOL0     H 3500   6.079   2.181   2.162 -1.5121 -0.1209  1.4115
  767MOL0     H 3501   6.059   2.344   1.988 -1.6756 -0.5575  0.2601
  767MOL0     H 3502   5.993   2.468   2.090 -2.7179 -0.4154  0.6543
  767MOL0     H 3503   5.815   2.291   2.159  0.2855  0.0876  0.5499
  767MOL0     H 3504   5.878   2.187   2.027 -2.1889 -0.6517 -0.7769
  767MOL0     H 3505   5.668   2.127   1.981  0.3568  0.7032  2.0303
  767MOL0     H 3506   5.472   1.997   2.006  3.4469  2.4221  1.9528
  767MOL0     H 3507   5.324   2.094   2.009 -0.2513  0.4900 -1.3704
  767MOL0     H 3508   5.383   2.016   1.857  1.0228  0.9002 -0.7088
  767MOL0     H 3509   5.040   2.102   1.842  0.5506  0.9299  0.3899
  767MOL0     H 3510   4.809   2.107   1.750  0.1122 -1.4037 -0.4650
  767MOL0     H 3511   4.760   2.387   1.412  0.4641 -0.2157 -0.0417
  767MOL0     H 3512   4.702   2.246   1.316  0.7985 -2.5068  0.3692
  767MOL0     H 3513   4.521   2.368   1.335  1.8635 -1.7584 -0.5785
  767MOL0     H 3514   4.495   2.244   1.458 -1.3396 -0.3765 -5.2235
  767MOL0     H 3515   4.601   2.529   1.505 -0.9115  1.0600  0.7090
  767MOL0     H 3516   4.600   2.413   1.639  2.2472 -0.2171 -1.3890
  767MOL0     H 3517   4.360   2.527   1.479 -1.3844 -2.6968 -2.1734
  767MOL0     H 3518   4.341   2.391   1.587  0.4039  1.1182 -0.4706
  767MOL0     H 3519   4.431   2.510   1.786  0.5099 -2.8737 -0.3304
  767MOL0     H 3520   4.275   2.559   1.717 -0.5235  3.0221 -0.3614
  767MOL0     H 3521   4.530   2.712   1.665  0.4013 -0.6531  2.7502
  767MOL0     H 3522   4.366   2.747   1.598  2.1171  2.3215 -0.6501
  767MOL0     H 3523   4.479   2.729   1.883 -1.0530 -0.0187 -0.6741
  767MOL0     H 3524   4.309   2.752   1.849 -1.4241  0.5432 -3.3743
  767MOL0     H 3525   4.334   2.958   1.745  0.9026 -0.1175 -1.0755
  767MOL0     H 3526   4.509   2.957   1.741 -0.5473 -3.4043 -1.9284
  767MOL0     H 3527   4.967   2.318   1.401 -1.0206  3.2194  1.9370
  767MOL0     H 3528   5.190   2.284   1.489 -1.1260  1.6289  0.8503
  767MOL0     H 3529   5.406   2.527   1.848  1.3588  0.3772  0.3494
  767MOL0     H 3530   5.659   2.537   1.903 -1.4358  0.4404  1.5775
  767MOL0     H 3531   7.093   2.822   3.260 -1.0685  0.9478 -0.8086
  767MOL0     H 3532   7.306   2.865   3.302 -1.1229 -2.9440 -0.3515
  767MOL0     H 3533   7.808   2.767   3.263 -2.3196  0.5006 -0.4201
  767MOL0     H 3534   8.011   2.856   3.331 -1.3676 -0.0502  2.4517
  767MOL0     H 3535   8.170   2.992   3.461  2.6369  0.8758  1.5231
  767MOL0     H 3536   8.209   2.944   3.296  1.4493 -2.3242  2.7354
  767MOL0     H 3537   8.332   3.175   3.455  0.2717  0.7871 -0.8608
  767MOL0     H 3538   8.357   3.164   3.285 -1.7616  0.2667  0.3913
  767MOL0     H 3539   8.460   2.924   3.323  0.9869 -1.2046  1.4305
  767MOL0     H 3540   8.443   2.948   3.493  0.0280  1.6063  0.6058
  767MOL0     H 3541   8.601   3.143   3.327  0.0813 -0.0991 -0.4072
  767MOL0     H 3542   8.653   2.974   3.377  0.0063  0.7108  0.2809
  767MOL0     H 3543   8.629   3.221   3.733  0.2029  0.4507  0.6235
  767MOL0     H 3544   7.880   3.259   3.246 -0.0616  0.7217  0.7715
  767MOL0     H 3545   7.663   3.152   3.180  1.5174 -0.2454 -3.3366
  768MOL0     O 3546   4.047   8.545  11.240  0.3500  0.3222  0.5307
  768MOL0     C 3547   4.136   8.486  11.174 -0.9179 -0.5501  0.7417
  768MOL0     O 3548   4.130   8.365  11.112 -0.1397  0.2677  0.2618
  768MOL0     C 3549   4.003   8.311  11.100 -0.7822  0.5484 -0.0154
  768MOL0     C 3550   3.943   8.300  10.980 -0.0789 -0.0745 -0.3972
  768MOL0     C 3551   3.826   8.231  10.970 -0.2664 -0.0658 -0.0361
  768MOL0     C 3552   3.775   8.166  11.087  0.1915 -0.5053  0.8992
  768MOL0     O 3553   3.669   8.082  11.058 -0.1929 -0.7900 -0.3233
  768MOL0     C 3554   3.577   8.044  11.162 -0.8690  0.4705 -0.5586
  768MOL0     C 3555   3.472   8.143  11.200  0.8161 -0.4449  0.6713
  768MOL0     C 3556   3.368   8.082  11.306  0.0572 -0.0985  0.2250
  768MOL0     C 3557   3.292   7.959  11.260  0.7349  0.6437 -0.6785
  768MOL0     C 3558   3.172   7.950  11.349 -0.6115 -0.4705 -0.5179
  768MOL0     C 3559   3.098   7.818  11.326 -0.3307  0.1915  0.7095
  768MOL0     C 3560   2.971   7.812  11.412 -0.4908  0.1754  0.4825
  768MOL0     C 3561   2.936   7.669  11.448 -0.0680 -1.0440  0.8378
  768MOL0     N 3562   2.797   7.662  11.499 -0.4382  0.0996 -0.6998
  768MOL0     C 3563   2.751   7.729  11.618 -0.1457 -0.3689  0.2081
  768MOL0     C 3564   2.616   7.702  11.618  0.1373  0.0991 -1.4022
  768MOL0     C 3565   2.522   7.741  11.732  0.0588 -0.4273 -0.1739
  768MOL0     C 3566   2.401   7.646  11.742  0.2267  0.2794 -0.3100
  768MOL0     C 3567   2.325   7.645  11.876  0.6862  0.4550 -0.0249
  768MOL0     C 3568   2.203   7.558  11.862  0.0648 -0.0079 -0.4394
  768MOL0     O 3569   2.142   7.606  11.984 -0.3587  0.1146 -0.2419
  768MOL0     C 3570   2.047   7.522  12.039 -0.6035  0.4550  0.5143
  768MOL0     C 3571   2.015   7.390  12.001  0.0341 -0.5615 -0.9399
  768MOL0     C 3572   1.901   7.327  12.055 -0.4768  0.5692 -0.1425
  768MOL0     C 3573   1.889   7.180  12.012 -0.4868  0.1698  0.2672
  768MOL0     C 3574   1.821   7.398  12.138 -0.1781  0.9467 -0.1596
  768MOL0     C 3575   1.687   7.336  12.191 -0.0120 -0.0147 -0.5409
  768MOL0     O 3576   1.586   7.427  12.233  0.1618 -0.2396 -0.1527
  768MOL0     C 3577   1.463   7.366  12.245  0.7851 -0.0282 -0.4336
  768MOL0     C 3578   1.378   7.383  12.140  0.3869  0.3183 -0.1326
  768MOL0     C 3579   1.241   7.346  12.144  0.2951 -0.2362 -0.5130
  768MOL0     C 3580   1.196   7.261  12.247 -0.8621 -0.6928  0.8001
  768MOL0     O 3581   1.062   7.215  12.237  0.5633  0.2536 -0.4933
  768MOL0     C 3582   1.008   7.189  12.367  0.1074 -0.9619  0.1597
  768MOL0     C 3583   0.853   7.165  12.364  0.2048 -0.1665  0.6754
  768MOL0     C 3584   0.761   7.279  12.319  0.1602 -0.8835 -0.0389
  768MOL0     C 3585   0.616   7.229  12.335 -0.7914  0.5597 -0.1633
  768MOL0     C 3586   0.513   7.344  12.343 -0.5552 -0.0664  0.1747
  768MOL0     C 3587   0.378   7.280  12.382  0.4332  0.2437  0.0829
  768MOL0     C 3588   0.257   7.383  12.376  1.0333 -0.4236 -0.2294
  768MOL0     C 3589   0.229   7.399  12.230 -0.7155 -0.5849 -0.2106
  768MOL0    Cl 3590   0.192   7.577  12.203  0.0870 -0.0109 -0.0952
  768MOL0     C 3591   1.284   7.240  12.351  0.3482 -0.1898  0.0587
  768MOL0     C 3592   1.416   7.300  12.363 -0.2916  0.0576 -0.1914
  768MOL0     O 3593   1.683   7.212  12.207  1.2455  0.5246  0.7748
  768MOL0     C 3594   1.859   7.524  12.189  0.2215 -0.3525 -0.0982
  768MOL0     C 3595   1.968   7.580  12.134  0.5393 -0.0654 -0.2682
  768MOL0     N 3596   2.588   7.617  11.513  1.2460  0.0632 -0.5700
  768MOL0     N 3597   2.692   7.588  11.444 -0.3842  0.2002 -0.8513
  768MOL0     C 3598   3.831   8.178  11.211  0.9092  0.0996 -0.4589
  768MOL0     C 3599   3.946   8.254  11.215  0.5808 -0.9999  0.3456
  768MOL0     C 3600   4.262   8.556  11.152  0.1225 -0.4145 -0.7485
  768MOL0     C 3601   4.291   8.675  11.227 -0.6672 -0.2199 -0.3539
  768MOL0     C 3602   4.420   8.743  11.206 -0.6254 -0.4336  1.1806
  768MOL0     C 3603   4.504   8.710  11.094 -0.1005  0.3157 -0.2345
  768MOL0     O 3604   4.624   8.776  11.057  0.8354  0.6755 -0.2796
  768MOL0     C 3605   4.677   8.880  11.139  0.0607 -0.2683  0.4400
  768MOL0     C 3606   4.799   8.951  11.078  0.5364  0.2198 -0.4006
  768MOL0     C 3607   4.924   8.867  11.058  0.0940 -1.1300 -0.1809
  768MOL0     C 3608   4.920   8.798  10.919 -0.1269 -0.0737  0.5638
  768MOL0     C 3609   4.989   8.884  10.827  0.1788 -1.0784  0.7915
  768MOL0     C 3610   5.052   8.977  10.776  0.0586 -0.0990  0.4364
  768MOL0     C 3611   4.451   8.611  11.012  0.5897 -0.8691  0.4010
  768MOL0     C 3612   4.341   8.527  11.043 -0.6047 -0.2720 -0.4823
  768MOL0     H 3613   3.985   8.350  10.893 -0.0737  1.3188  0.3628
  768MOL0     H 3614   3.778   8.217  10.873 -0.7842 -4.8138  0.6793
  768MOL0     H 3615   3.523   7.966  11.108  2.2558 -1.0388 -1.8041
  768MOL0     H 3616   3.625   7.987  11.243 -2.2429 -0.6239 -0.4707
  768MOL0     H 3617   3.515   8.237  11.237 -0.8966  1.2963 -1.4602
  768MOL0     H 3618   3.426   8.173  11.105  6.2679  2.9442 -1.3887
  768MOL0     H 3619   3.420   8.065  11.400 -1.5499  0.4599  1.2549
  768MOL0     H 3620   3.299   8.163  11.330  0.5143 -0.4707  3.0953
  768MOL0     H 3621   3.259   7.981  11.158 -0.6731 -0.3795 -0.4607
  768MOL0     H 3622   3.352   7.867  11.258  3.1528  2.0677  0.8987
  768MOL0     H 3623   3.188   7.973  11.454  1.5741  0.2183 -0.9493
  768MOL0     H 3624   3.108   8.030  11.312  1.2385  0.5270 -1.7309
  768MOL0     H 3625   3.072   7.791  11.223 -2.3197 -1.2452  1.5267
  768MOL0     H 3626   3.169   7.742  11.361  1.0600  0.8919 -0.4995
  768MOL0     H 3627   2.996   7.876  11.497  1.0900 -1.7984  1.5722
  768MOL0     H 3628   2.881   7.852  11.365 -1.0581 -0.9413  0.5827
  768MOL0     H 3629   3.017   7.629  11.511 -0.0911  0.4126  1.8295
  768MOL0     H 3630   2.945   7.620  11.350  1.8161  0.6337  0.0893
  768MOL0     H 3631   2.811   7.763  11.701 -1.4990  1.5291  0.4656
  768MOL0     H 3632   2.582   7.740  11.823  2.2753 -1.8103 -1.5288
  768MOL0     H 3633   2.484   7.842  11.715  0.4741 -0.0294  1.1316
  768MOL0     H 3634   2.434   7.543  11.732  1.3068  0.3086  2.2905
  768MOL0     H 3635   2.329   7.671  11.663 -1.2058 -1.2912  0.4279
  768MOL0     H 3636   2.287   7.746  11.892  1.3004  0.8647 -1.0553
  768MOL0     H 3637   2.385   7.608  11.960 -2.0319 -3.2233  0.5482
  768MOL0     H 3638   2.226   7.451  11.874 -0.4575 -0.1716 -0.8878
  768MOL0     H 3639   2.140   7.590  11.779  0.8027  1.0033 -0.6238
  768MOL0     H 3640   2.082   7.331  11.939  2.3588  1.3801 -0.4485
  768MOL0     H 3641   1.951   7.111  12.070  0.2662  0.6822  0.0879
  768MOL0     H 3642   1.783   7.151  12.020 -0.5043 -0.2303 -1.2492
  768MOL0     H 3643   1.913   7.172  11.906  2.0166  1.0891  0.7074
  768MOL0     H 3644   1.418   7.447  12.062  2.0219 -1.8856 -1.2160
  768MOL0     H 3645   1.169   7.357  12.063 -0.6408  0.0810  0.3372
  768MOL0     H 3646   1.055   7.104  12.418  1.8455  0.7116  1.4582
  768MOL0     H 3647   1.021   7.281  12.424  1.3222 -2.1213  1.8688
  768MOL0     H 3648   0.831   7.085  12.293  0.2409  1.2705 -1.0068
  768MOL0     H 3649   0.815   7.143  12.464  0.7658  0.9447  1.1634
  768MOL0     H 3650   0.771   7.302  12.212  0.3119  5.7538  0.9711
  768MOL0     H 3651   0.787   7.375  12.365 -0.8244  0.2641 -1.7780
  768MOL0     H 3652   0.596   7.153  12.259 -0.7459  1.2728 -0.8935
  768MOL0     H 3653   0.595   7.188  12.435 -3.6800  1.4714 -0.3165
  768MOL0     H 3654   0.510   7.390  12.244  0.7130  1.2577  0.7013
  768MOL0     H 3655   0.535   7.415  12.423  0.1222  1.1691 -1.0588
  768MOL0     H 3656   0.352   7.193  12.321 -0.5307  0.5557  0.0289
  768MOL0     H 3657   0.390   7.234  12.480  2.2533  0.5739  0.0496
  768MOL0     H 3658   0.278   7.481  12.421  0.3839  0.2376 -1.3122
  768MOL0     H 3659   0.173   7.342  12.433  0.9167  1.0560  0.7214
  768MOL0     H 3660   0.151   7.340  12.181 -1.1570 -0.2637  0.0977
  768MOL0     H 3661   0.319   7.374  12.172 -0.1408  1.9418 -0.5381
  768MOL0     H 3662   1.250   7.191  12.442  1.1914  1.5893  1.4036
  768MOL0     H 3663   1.485   7.292  12.447 -0.8718 -2.3627  0.1250
  768MOL0     H 3664   1.791   7.574  12.257  0.5846  1.5619 -1.0567
  768MOL0     H 3665   1.987   7.684  12.158  1.9503 -0.3091 -0.1972
  768MOL0     H 3666   3.786   8.150  11.306  2.5090  1.0802  0.6540
  768MOL0     H 3667   4.009   8.269  11.303  1.1735  1.1525 -0.3872
  768MOL0     H 3668   4.227   8.713  11.306 -1.7865 -1.4695 -0.6236
  768MOL0     H 3669   4.427   8.828  11.273 -0.9339  1.7562 -1.3946
  768MOL0     H 3670   4.602   8.958  11.155 -0.0774  0.2475 -2.2355
  768MOL0     H 3671   4.702   8.828  11.231 -1.0871 -3.8721 -1.0861
  768MOL0     H 3672   4.826   9.028  11.151  0.3309 -1.5501  1.6356
  768MOL0     H 3673   4.759   9.004  10.991  2.8754  1.9381 -0.5117
  768MOL0     H 3674   4.938   8.802  11.145 -1.0222  0.1883  1.0342
  768MOL0     H 3675   5.014   8.929  11.070  1.3602 -2.7283 -0.9066
  768MOL0     H 3676   4.815   8.771  10.902 -1.4100  2.4068  3.5912
  768MOL0     H 3677   4.980   8.708  10.930  0.6628  0.6618  2.7520
  768MOL0     H 3678   5.124   9.044  10.734  1.0573 -0.7243  1.1123
  768MOL0     H 3679   4.512   8.592  10.924  3.8532  0.2150  2.2378
  768MOL0     H 3680   4.322   8.439  10.982 -1.3752  1.1947 -2.4862
  769MOL0     O 3681  10.646   6.996   4.626 -0.8688 -0.2587  0.1373
  769MOL0     C 3682  10.727   6.906   4.632 -0.7426  0.8900  0.2884
  769MOL0     O 3683  10.702   6.778   4.683 -0.4227  0.5589  0.8225
  769MOL0     C 3684  10.568   6.768   4.730 -0.8116 -0.4403 -0.1530
  769MOL0     C 3685  10.551   6.829   4.858 -0.4277  0.8969 -0.3429
  769MOL0     C 3686  10.429   6.824   4.921 -0.1873  0.4254 -0.2856
  769MOL0     C 3687  10.316   6.765   4.857 -1.0231  0.7300 -0.1468
  769MOL0     O 3688  10.203   6.776   4.933 -0.1113  0.5089  0.1804
  769MOL0     C 3689  10.071   6.757   4.877 -0.6411 -0.2660  0.3418
  769MOL0     C 3690   9.989   6.735   4.993  0.1825  0.4154 -0.3827
  769MOL0     C 3691   9.840   6.715   4.956  0.7478  0.2993 -0.1969
  769MOL0     C 3692   9.771   6.851   4.939 -0.4700  1.0555 -0.3011
  769MOL0     C 3693   9.623   6.844   4.932  0.7299  0.5315 -0.0700
  769MOL0     C 3694   9.576   6.776   4.805  0.5927  0.6970  0.1155
  769MOL0     C 3695   9.419   6.785   4.767 -0.1554 -0.3696 -0.4724
  769MOL0     C 3696   9.332   6.693   4.856  0.3873 -0.1014  0.2894
  769MOL0     N 3697   9.195   6.703   4.811  0.5384  0.1550  0.6626
  769MOL0     C 3698   9.106   6.791   4.858  0.6146  0.0188 -0.5975
  769MOL0     C 3699   8.992   6.777   4.782  0.5564  0.2213  1.1137
  769MOL0     C 3700   8.863   6.864   4.796  0.2552 -0.3427 -0.1293
  769MOL0     C 3701   8.735   6.811   4.726 -0.1016 -0.4308 -0.0068
  769MOL0     C 3702   8.618   6.906   4.754 -0.7540  0.7333  0.1467
  769MOL0     C 3703   8.484   6.835   4.727 -0.2377 -0.3282 -1.3765
  769MOL0     O 3704   8.376   6.932   4.743 -0.0281 -0.2180 -0.5154
  769MOL0     C 3705   8.239   6.903   4.744 -0.1096 -0.3103 -0.6929
  769MOL0     C 3706   8.183   6.779   4.758 -0.4955  0.1453 -0.6941
  769MOL0     C 3707   8.046   6.752   4.760  0.0837 -0.4492 -0.5869
  769MOL0     C 3708   7.999   6.616   4.793 -0.9142  0.4012 -0.9857
  769MOL0     C 3709   7.957   6.859   4.735  0.5918 -0.2580 -0.2216
  769MOL0     C 3710   7.803   6.851   4.748  0.1293  0.2319 -0.2871
  769MOL0     O 3711   7.737   6.929   4.661 -0.1590  0.3928  0.4111
  769MOL0     C 3712   7.603   6.946   4.648  0.6968  1.0974 -0.3425
  769MOL0     C 3713   7.506   6.874   4.723  0.2983 -0.9059 -0.5560
  769MOL0     C 3714   7.372   6.911   4.715 -0.1144  0.5829 -0.0165
  769MOL0     C 3715   7.324   7.003   4.627  0.1253  0.0143  0.1088
  769MOL0     O 3716   7.198   7.045   4.613  0.6291  0.7610  0.0584
  769MOL0     C 3717   7.099   6.941   4.627  0.0855  0.8246  0.0054
  769MOL0     C 3718   6.964   7.007   4.565 -0.1365  0.1913  0.0622
  769MOL0     C 3719   6.852   6.904   4.569 -0.2437 -0.7970  0.3036
  769MOL0     C 3720   6.717   6.968   4.534 -0.3437  0.8940 -0.3897
  769MOL0     C 3721   6.603   6.874   4.529 -0.2201  0.0083 -0.5938
  769MOL0     C 3722   6.552   6.833   4.675  0.0662  0.5242  0.2454
  769MOL0     C 3723   6.406   6.874   4.706  0.8175 -0.5052 -0.4485
  769MOL0     C 3724   6.311   6.765   4.650  0.3100 -0.1551  0.1083
  769MOL0    Cl 3725   6.149   6.785   4.709  0.3506 -0.1087 -0.3294
  769MOL0     C 3726   7.421   7.069   4.546  0.2248 -0.3375 -0.0243
  769MOL0     C 3727   7.557   7.033   4.553 -0.4579  0.0116 -0.3060
  769MOL0     O 3728   7.756   6.784   4.837  0.0130 -0.0345 -0.2077
  769MOL0     C 3729   8.015   6.987   4.725 -0.9010 -0.2829  0.7323
  769MOL0     C 3730   8.156   7.009   4.719 -0.0663 -0.5779 -0.5172
  769MOL0     N 3731   9.012   6.665   4.693 -0.3745  0.1095  0.0850
  769MOL0     N 3732   9.132   6.621   4.714 -0.7636  0.0991  0.0554
  769MOL0     C 3733  10.330   6.703   4.737 -0.0905  0.5287  0.0380
  769MOL0     C 3734  10.461   6.698   4.673  0.3077  0.6269  0.0025
  769MOL0     C 3735  10.860   6.932   4.575 -0.5189 -1.0264  0.4436
  769MOL0     C 3736  10.955   6.831   4.578 -0.5158 -0.8483 -0.5226
  769MOL0     C 3737  11.086   6.846   4.525 -0.3552  0.6827  0.1699
  769MOL0     C 3738  11.123   6.972   4.469 -0.0971  0.3942  0.7815
  769MOL0     O 3739  11.244   7.004   4.415  0.7280  0.3750 -0.3239
  769MOL0     C 3740  11.345   6.897   4.405  0.4342 -0.2156 -0.7909
  769MOL0     C 3741  11.449   6.921   4.296 -0.6544  0.6342 -0.8490
  769MOL0     C 3742  11.527   7.046   4.327 -0.3628 -0.2253 -0.1656
  769MOL0     C 3743  11.614   7.086   4.212  0.8853 -0.3474 -1.0177
  769MOL0     C 3744  11.716   6.989   4.177 -0.8573 -0.8379  0.5298
  769MOL0     C 3745  11.806   6.907   4.141  0.5282  0.2441  0.1948
  769MOL0     C 3746  11.030   7.068   4.464  0.8077  0.3468  0.2402
  769MOL0     C 3747  10.897   7.046   4.501 -0.8434 -0.9335 -0.3963
  769MOL0     H 3748  10.635   6.869   4.913  1.1425 -2.0475 -0.3917
  769MOL0     H 3749  10.420   6.878   5.014 -0.8713  0.9629 -0.6547
  769MOL0     H 3750  10.023   6.843   4.829 -2.5622 -0.7400  1.3451
  769MOL0     H 3751  10.054   6.671   4.812 -0.3800 -0.3880  0.4324
  769MOL0     H 3752  10.032   6.648   5.044  0.8360  0.0193 -1.5586
  769MOL0     H 3753   9.997   6.818   5.064  0.4430  1.2256 -1.3307
  769MOL0     H 3754   9.828   6.652   4.867  0.2013  1.0520 -0.6684
  769MOL0     H 3755   9.800   6.670   5.047  0.7062 -2.1256 -1.3256
  769MOL0     H 3756   9.789   6.904   5.034  0.7630 -1.0080  0.6799
  769MOL0     H 3757   9.812   6.896   4.848 -2.2727 -0.5071 -1.9790
  769MOL0     H 3758   9.575   6.786   5.011 -2.5614 -0.4366 -2.5312
  769MOL0     H 3759   9.588   6.947   4.947 -0.6437 -0.0637  1.0626
  769MOL0     H 3760   9.631   6.816   4.719 -2.0078 -0.2714 -2.1316
  769MOL0     H 3761   9.601   6.670   4.803  0.3807  0.6568 -1.8184
  769MOL0     H 3762   9.397   6.891   4.785  1.8806 -0.0400  0.3348
  769MOL0     H 3763   9.392   6.773   4.662 -0.1166 -1.1438 -0.3957
  769MOL0     H 3764   9.336   6.720   4.962  1.4502  3.1961 -0.4815
  769MOL0     H 3765   9.374   6.594   4.835 -0.3888 -0.5324  0.7157
  769MOL0     H 3766   9.111   6.853   4.946 -2.3276  0.6008 -0.7286
  769MOL0     H 3767   8.845   6.865   4.903 -1.1290 -1.1100 -0.3424
  769MOL0     H 3768   8.878   6.962   4.748 -0.5316 -0.7599 -1.2658
  769MOL0     H 3769   8.717   6.711   4.767  0.4883  0.8497  3.8603
  769MOL0     H 3770   8.760   6.814   4.620  0.6615  2.1414  0.1747
  769MOL0     H 3771   8.638   6.995   4.693  4.1768 -0.0400  0.3037
  769MOL0     H 3772   8.623   6.936   4.859  0.8823 -1.4002  0.7541
  769MOL0     H 3773   8.472   6.751   4.797 -3.5525  1.0166 -0.1708
  769MOL0     H 3774   8.493   6.804   4.623  1.3764  0.2866 -1.4529
  769MOL0     H 3775   8.244   6.690   4.774  1.0390  1.5551  1.8863
  769MOL0     H 3776   7.988   6.610   4.901  0.2660  0.7031 -0.8411
  769MOL0     H 3777   7.912   6.598   4.728  0.6381  0.2695 -3.1322
  769MOL0     H 3778   8.069   6.536   4.767 -1.3419  0.2960 -1.8774
  769MOL0     H 3779   7.536   6.802   4.799 -1.1205  1.7154  2.7686
  769MOL0     H 3780   7.299   6.865   4.782  0.5933  0.9037  0.9923
  769MOL0     H 3781   7.115   6.857   4.559  0.9292  1.6399 -0.8459
  769MOL0     H 3782   7.077   6.911   4.729 -4.0543 -2.2554 -1.5248
  769MOL0     H 3783   6.939   7.088   4.633  4.6048  0.7355  1.5749
  769MOL0     H 3784   6.981   7.045   4.464  0.2106  0.1265  0.0932
  769MOL0     H 3785   6.841   6.853   4.665 -0.2315 -1.8411 -0.2359
  769MOL0     H 3786   6.884   6.829   4.496  1.6977 -1.4210  1.7312
  769MOL0     H 3787   6.701   7.045   4.610 -2.1168  0.1589  0.0256
  769MOL0     H 3788   6.717   7.014   4.434 -1.1707  2.4380  0.2923
  769MOL0     H 3789   6.627   6.775   4.489 -1.6020 -1.0066  0.9368
  769MOL0     H 3790   6.520   6.924   4.479 -0.1392  1.3103  0.5233
  769MOL0     H 3791   6.556   6.724   4.681  0.8261  0.4708 -0.8619
  769MOL0     H 3792   6.620   6.873   4.750  1.0719  1.2465 -1.0155
  769MOL0     H 3793   6.387   6.975   4.671 -1.1030  0.3120  2.5525
  769MOL0     H 3794   6.390   6.885   4.814  0.4096  0.1483 -0.5761
  769MOL0     H 3795   6.342   6.664   4.677  0.6662  0.1368  0.7966
  769MOL0     H 3796   6.303   6.771   4.541 -3.2148 -3.5971 -0.0250
  769MOL0     H 3797   7.389   7.147   4.478  3.0124  2.1246  1.2622
  769MOL0     H 3798   7.619   7.103   4.497 -1.7916  1.5750  0.0748
  769MOL0     H 3799   7.949   7.073   4.724 -2.1739 -1.2109  1.7947
  769MOL0     H 3800   8.190   7.112   4.707  1.5379 -1.1539 -1.1362
  769MOL0     H 3801  10.244   6.664   4.683  0.1408  0.2308 -0.1118
  769MOL0     H 3802  10.453   6.650   4.576 -3.4367  2.3113 -0.7049
  769MOL0     H 3803  10.938   6.731   4.616  1.7149 -1.9849 -2.2869
  769MOL0     H 3804  11.160   6.767   4.531  0.4632  1.2080 -1.9711
  769MOL0     H 3805  11.404   6.892   4.497 -0.9782 -0.5971  0.1240
  769MOL0     H 3806  11.295   6.801   4.389 -1.4343  0.7217 -0.8759
  769MOL0     H 3807  11.402   6.930   4.197  0.0798 -1.5578 -1.4661
  769MOL0     H 3808  11.513   6.833   4.280  0.0090  1.1048 -0.7929
  769MOL0     H 3809  11.591   7.026   4.413 -0.0069  0.4134 -0.2775
  769MOL0     H 3810  11.458   7.127   4.353 -0.5646  0.1349 -1.7118
  769MOL0     H 3811  11.675   7.172   4.243 -0.8016  0.7973 -0.7099
  769MOL0     H 3812  11.557   7.105   4.121  0.3386 -1.2795 -0.8878
  769MOL0     H 3813  11.871   6.840   4.089 -1.4099 -0.2508 -1.7253
  769MOL0     H 3814  11.060   7.158   4.412  2.5363 -1.5441 -2.2368
  769MOL0     H 3815  10.823   7.125   4.488 -2.9918 -2.9606 -1.1714
  770MOL0     O 3816   3.042   1.439   8.206  0.4125 -0.2636 -0.3461
  770MOL0     C 3817   3.110   1.355   8.272  0.0493 -0.7102 -0.6967
  770MOL0     O 3818   3.071   1.232   8.292 -0.2565 -0.1289  0.2396
  770MOL0     C 3819   2.939   1.202   8.290 -0.3863  0.6935 -0.3785
  770MOL0     C 3820   2.860   1.199   8.404  0.6555 -0.0310 -0.1872
  770MOL0     C 3821   2.727   1.156   8.381  0.5277 -0.1962 -0.3821
  770MOL0     C 3822   2.664   1.131   8.261  0.5923 -1.0541  0.1250
  770MOL0     O 3823   2.529   1.094   8.269 -0.1214  0.1722  0.7186
  770MOL0     C 3824   2.465   1.042   8.151 -0.1125 -0.5104  0.0574
  770MOL0     C 3825   2.330   0.989   8.208  0.0460  0.1872 -0.0841
  770MOL0     C 3826   2.342   0.893   8.323  0.1934 -0.3777 -0.1010
  770MOL0     C 3827   2.204   0.837   8.355  0.4335  0.0433 -0.1564
  770MOL0     C 3828   2.203   0.718   8.452 -0.8648 -0.8841  0.0562
  770MOL0     C 3829   2.235   0.767   8.589  0.4955 -0.6905 -0.1431
  770MOL0     C 3830   2.282   0.648   8.677  0.3602 -0.7112 -0.0102
  770MOL0     C 3831   2.413   0.675   8.753  0.3482 -0.4233  0.1193
  770MOL0     N 3832   2.419   0.604   8.883 -0.0751  0.2637  0.4737
  770MOL0     C 3833   2.361   0.483   8.921  0.3409 -0.1944  0.8491
  770MOL0     C 3834   2.375   0.476   9.054  0.4570 -0.2830  0.0894
  770MOL0     C 3835   2.353   0.355   9.143  0.8474  0.1360  0.1606
  770MOL0     C 3836   2.210   0.364   9.200 -0.3365  0.6076  0.1124
  770MOL0     C 3837   2.102   0.313   9.097 -0.1404 -0.2998 -0.5658
  770MOL0     C 3838   1.956   0.348   9.124  0.4632  0.4019 -0.1188
  770MOL0     O 3839   1.900   0.344   8.990 -1.0703  0.3008 -0.1114
  770MOL0     C 3840   1.769   0.380   8.985  0.3423 -0.2570  0.0138
  770MOL0     C 3841   1.693   0.442   9.086 -0.5690  0.6893  0.1090
  770MOL0     C 3842   1.566   0.511   9.073 -0.0697  0.6919  0.7882
  770MOL0     C 3843   1.492   0.566   9.189  0.6440  0.7627  0.4001
  770MOL0     C 3844   1.500   0.483   8.946  0.0425  0.5717 -0.3912
  770MOL0     C 3845   1.361   0.491   8.918  0.0424 -0.8156 -0.7432
  770MOL0     O 3846   1.309   0.394   8.835 -0.1431 -0.3368  0.4433
  770MOL0     C 3847   1.171   0.384   8.813 -0.2417  0.3412 -0.1048
  770MOL0     C 3848   1.064   0.481   8.827 -0.5205  0.0710 -0.2156
  770MOL0     C 3849   0.930   0.455   8.799  0.4145  0.1404  0.0385
  770MOL0     C 3850   0.894   0.336   8.737 -0.7031 -0.1523 -0.8181
  770MOL0     O 3851   0.771   0.319   8.691 -0.0928 -0.7433  0.0033
  770MOL0     C 3852   0.714   0.189   8.709 -0.2065 -0.0465 -0.4016
  770MOL0     C 3853   0.563   0.209   8.691 -0.2599  0.1322 -0.5000
  770MOL0     C 3854   0.484   0.079   8.686  0.5693 -0.2281 -0.1310
  770MOL0     C 3855   0.349   0.093   8.618 -0.9518  0.2386 -0.0630
  770MOL0     C 3856   0.252   0.192   8.689 -0.5174 -0.1015  0.0007
  770MOL0     C 3857   0.128   0.211   8.597  0.2808 -0.7921 -0.1666
  770MOL0     C 3858   0.025   0.277   8.685 -0.8506 -0.0241  0.6729
  770MOL0     C 3859  -0.078   0.345   8.597 -0.5056 -0.2750 -0.3369
  770MOL0    Cl 3860  -0.245   0.355   8.690  0.0219  0.3629 -0.2217
  770MOL0     C 3861   0.990   0.240   8.728 -0.4809 -0.0312 -0.3977
  770MOL0     C 3862   1.130   0.263   8.773  0.5328 -0.3016  0.6220
  770MOL0     O 3863   1.294   0.571   8.974  0.8596  0.1856 -0.7897
  770MOL0     C 3864   1.582   0.416   8.849  0.8734  0.4338  0.4152
  770MOL0     C 3865   1.709   0.367   8.868 -0.6670 -0.5705  0.3664
  770MOL0     N 3866   2.441   0.590   9.096  0.2660 -0.1907 -0.0617
  770MOL0     N 3867   2.468   0.664   8.996 -0.1778  1.0997 -0.0958
  770MOL0     C 3868   2.745   1.151   8.145 -0.7886 -0.3381  0.0395
  770MOL0     C 3869   2.880   1.198   8.166  1.1014 -0.4579  0.3181
  770MOL0     C 3870   3.233   1.397   8.325  0.1188  0.6577 -0.7740
  770MOL0     C 3871   3.282   1.521   8.307  0.4421  0.9007  0.4928
  770MOL0     C 3872   3.400   1.562   8.371  0.0868  0.3430 -0.1772
  770MOL0     C 3873   3.486   1.480   8.452 -0.4926 -0.6032  0.5771
  770MOL0     O 3874   3.596   1.521   8.509 -0.0608 -0.4130 -0.2246
  770MOL0     C 3875   3.652   1.654   8.482 -0.0622  0.1632 -0.4567
  770MOL0     C 3876   3.777   1.685   8.562  0.2144 -0.3711  0.1535
  770MOL0     C 3877   3.902   1.714   8.474 -0.0140 -0.3214  0.6846
  770MOL0     C 3878   4.018   1.727   8.563 -0.3275 -0.2317 -0.0627
  770MOL0     C 3879   4.153   1.751   8.508  0.6449 -0.3362 -0.0531
  770MOL0     C 3880   4.260   1.764   8.454  0.3604  0.3383 -0.9072
  770MOL0     C 3881   3.457   1.348   8.441  0.9575  0.5967 -0.3646
  770MOL0     C 3882   3.322   1.311   8.397  0.9913  0.3617 -0.1997
  770MOL0     H 3883   2.895   1.213   8.506  2.9961  0.6176 -1.0162
  770MOL0     H 3884   2.664   1.141   8.469  1.2498 -0.0862  0.1662
  770MOL0     H 3885   2.449   1.111   8.068 -1.0085 -1.7656 -0.8471
  770MOL0     H 3886   2.521   0.956   8.112  0.0646 -0.1064 -0.5945
  770MOL0     H 3887   2.264   1.070   8.242 -0.6750 -1.3133  2.3246
  770MOL0     H 3888   2.278   0.939   8.126 -0.2018  0.9470 -0.4071
  770MOL0     H 3889   2.400   0.806   8.289  2.4575  1.0511 -0.1048
  770MOL0     H 3890   2.392   0.937   8.410 -1.6450 -1.4578  1.5819
  770MOL0     H 3891   2.147   0.920   8.398  0.0419 -1.0900  1.6211
  770MOL0     H 3892   2.155   0.807   8.261  3.0967  1.1465 -2.0210
  770MOL0     H 3893   2.103   0.672   8.457 -0.7147 -1.2577 -0.3281
  770MOL0     H 3894   2.274   0.647   8.409  0.4203  1.3793 -1.7364
  770MOL0     H 3895   2.315   0.841   8.601 -0.2449  0.0215  0.5011
  770MOL0     H 3896   2.141   0.808   8.626 -1.5177 -1.8424 -3.4871
  770MOL0     H 3897   2.203   0.630   8.751  2.0535 -1.3648  1.7334
  770MOL0     H 3898   2.299   0.557   8.620  1.7386  0.0896 -0.9328
  770MOL0     H 3899   2.416   0.779   8.788  0.5528 -0.4190  0.0913
  770MOL0     H 3900   2.500   0.671   8.686 -0.6657  0.3040 -1.3123
  770MOL0     H 3901   2.317   0.407   8.856  1.3190 -0.8767  0.9610
  770MOL0     H 3902   2.366   0.260   9.091 -1.0959  0.4337 -0.9718
  770MOL0     H 3903   2.419   0.356   9.230 -1.7254  0.8794  2.2162
  770MOL0     H 3904   2.175   0.457   9.244 -4.0527 -0.1394 -0.9274
  770MOL0     H 3905   2.216   0.285   9.275 -1.5420  0.5555  0.1730
  770MOL0     H 3906   2.112   0.204   9.102  3.1035 -0.0479  0.6495
  770MOL0     H 3907   2.123   0.350   8.996  2.2523  2.3712  0.7919
  770MOL0     H 3908   1.953   0.452   9.157 -0.7968  0.5032 -0.4833
  770MOL0     H 3909   1.905   0.299   9.208 -0.8853  4.9691  2.1046
  770MOL0     H 3910   1.735   0.462   9.184  1.9496 -3.9902  0.3040
  770MOL0     H 3911   1.417   0.491   9.217 -0.3837  1.4067 -0.5202
  770MOL0     H 3912   1.561   0.581   9.272  0.8904  1.4874  0.0724
  770MOL0     H 3913   1.442   0.661   9.169 -0.8398 -0.1758 -0.6052
  770MOL0     H 3914   1.085   0.584   8.854 -1.4874 -0.0933  1.2744
  770MOL0     H 3915   0.864   0.541   8.802  0.4062  0.1509 -0.4337
  770MOL0     H 3916   0.753   0.117   8.637  1.5756 -2.0748  2.3852
  770MOL0     H 3917   0.724   0.158   8.814  2.0804  1.1123 -0.2173
  770MOL0     H 3918   0.530   0.273   8.773 -1.9102 -0.1727 -0.9004
  770MOL0     H 3919   0.546   0.265   8.598  0.1551 -0.0918 -0.7181
  770MOL0     H 3920   0.448   0.053   8.787  2.1454  1.9290  1.0766
  770MOL0     H 3921   0.556   0.008   8.646  0.0949 -0.1669 -1.1098
  770MOL0     H 3922   0.358   0.123   8.514 -2.9911  0.0915 -0.3285
  770MOL0     H 3923   0.309  -0.008   8.629 -2.1716  0.8990  2.6101
  770MOL0     H 3924   0.296   0.286   8.721  1.9553 -1.7545  1.8791
  770MOL0     H 3925   0.225   0.152   8.788  0.7747  0.2227  0.5045
  770MOL0     H 3926   0.155   0.272   8.510 -1.2712 -0.2066 -0.2596
  770MOL0     H 3927   0.085   0.119   8.557 -2.6764  1.7630 -3.4751
  770MOL0     H 3928   0.077   0.355   8.741  0.7714 -1.5173  1.3492
  770MOL0     H 3929  -0.032   0.206   8.747 -0.6992 -1.3390 -0.6487
  770MOL0     H 3930  -0.092   0.280   8.510  1.1755  0.3701 -1.1495
  770MOL0     H 3931  -0.058   0.449   8.570  1.5530 -0.3698  0.6037
  770MOL0     H 3932   0.965   0.143   8.685  3.1372 -1.3582  0.0877
  770MOL0     H 3933   1.200   0.181   8.771 -2.1630 -2.7959  1.4498
  770MOL0     H 3934   1.540   0.405   8.749  0.9365 -1.1089  0.5290
  770MOL0     H 3935   1.769   0.319   8.792  1.6214 -0.4366  2.0046
  770MOL0     H 3936   2.703   1.144   8.045  0.0769 -0.8624 -0.2876
  770MOL0     H 3937   2.943   1.205   8.078  1.6776 -2.2395  0.5378
  770MOL0     H 3938   3.219   1.592   8.255  0.7417 -0.5120 -2.0026
  770MOL0     H 3939   3.413   1.669   8.367 -3.1664  0.8849  0.4828
  770MOL0     H 3940   3.676   1.678   8.379  1.1017  1.5239  0.1071
  770MOL0     H 3941   3.575   1.729   8.505 -2.7651 -2.3940 -0.4554
  770MOL0     H 3942   3.787   1.589   8.614 -4.5853 -1.6862 -0.7769
  770MOL0     H 3943   3.757   1.776   8.618  1.1018  0.8471 -1.4361
  770MOL0     H 3944   3.899   1.801   8.408  0.0794  0.3985  1.6092
  770MOL0     H 3945   3.915   1.622   8.416 -0.0542 -0.7402  1.3301
  770MOL0     H 3946   4.024   1.642   8.632 -0.3907 -1.5700 -1.6500
  770MOL0     H 3947   3.991   1.806   8.634 -0.2974 -0.7967  0.5906
  770MOL0     H 3948   4.364   1.776   8.430  0.4546 -0.6444 -1.0424
  770MOL0     H 3949   3.541   1.287   8.470  2.0186  3.4522  3.3317
  770MOL0     H 3950   3.300   1.204   8.400 -1.9648  0.8891  0.8110
  771MOL0     O 3951   2.024   2.456   9.987  0.1662  0.1032  0.6134
  771MOL0     C 3952   2.090   2.387  10.065 -0.6305  0.1712  0.4603
  771MOL0     O 3953   2.045   2.299  10.169 -0.1823  0.8138  0.0704
  771MOL0     C 3954   1.906   2.295  10.186  0.0558  0.0257  0.1095
  771MOL0     C 3955   1.809   2.402  10.166 -0.7017 -0.3800 -0.1278
  771MOL0     C 3956   1.675   2.386  10.200  0.0580  0.4263 -0.0218
  771MOL0     C 3957   1.617   2.264  10.241  0.1941 -0.4617  0.8553
  771MOL0     O 3958   1.485   2.267  10.268  0.6844 -0.7522 -0.2987
  771MOL0     C 3959   1.449   2.181  10.381 -1.0219  0.7782 -0.5900
  771MOL0     C 3960   1.311   2.211  10.433 -0.1098  0.3141 -0.1505
  771MOL0     C 3961   1.190   2.248  10.337  0.4680 -0.0069  0.4925
  771MOL0     C 3962   1.056   2.269  10.398  0.5208 -0.0417 -0.1885
  771MOL0     C 3963   0.960   2.321  10.290 -0.2990 -0.9683 -0.3769
  771MOL0     C 3964   0.908   2.209  10.195  0.4646 -0.3798 -0.0052
  771MOL0     C 3965   0.890   2.246  10.049 -0.2096 -0.5436  0.4986
  771MOL0     C 3966   0.739   2.244  10.010 -0.9184 -0.8460  0.3952
  771MOL0     N 3967   0.652   2.320  10.095 -0.0827  0.5640  0.1153
  771MOL0     C 3968   0.675   2.451  10.145 -0.3450  0.7993 -0.0936
  771MOL0     C 3969   0.591   2.467  10.250  0.7778  0.2764  0.0920
  771MOL0     C 3970   0.574   2.587  10.339  0.4328 -0.4182  0.6632
  771MOL0     C 3971   0.432   2.598  10.380  0.0687 -0.7605  0.1102
  771MOL0     C 3972   0.406   2.699  10.496 -0.5810  0.6072 -0.5228
  771MOL0     C 3973   0.261   2.728  10.527  0.6357 -0.0552 -0.1111
  771MOL0     O 3974   0.187   2.789  10.425 -0.4840  0.3959  0.1003
  771MOL0     C 3975   0.073   2.863  10.444 -1.3516  0.4460  0.7516
  771MOL0     C 3976   0.016   2.926  10.344  0.6191 -0.0974 -0.2671
  771MOL0     C 3977  -0.105   3.000  10.344 -0.1139 -0.1969  0.1996
  771MOL0     C 3978  -0.148   3.076  10.210  0.2424 -0.6025 -0.2789
  771MOL0     C 3979  -0.159   3.029  10.473 -0.7012  0.5234 -0.4999
  771MOL0     C 3980  -0.275   3.109  10.508 -0.2308  0.6552  0.4811
  771MOL0     O 3981  -0.283   3.142  10.636 -0.2027 -0.0348 -0.4933
  771MOL0     C 3982  -0.392   3.197  10.695 -0.6422  0.0306  0.0862
  771MOL0     C 3983  -0.520   3.188  10.646 -0.2592 -0.2565  0.4749
  771MOL0     C 3984  -0.624   3.248  10.713 -0.0967  0.5980 -0.5711
  771MOL0     C 3985  -0.609   3.307  10.843 -0.6524 -0.5581 -0.4697
  771MOL0     O 3986  -0.704   3.372  10.918 -0.1667 -0.1299  0.3706
  771MOL0     C 3987  -0.838   3.386  10.869  0.4369 -0.1688  0.4891
  771MOL0     C 3988  -0.924   3.448  10.977 -0.3249 -0.1810 -0.3483
  771MOL0     C 3989  -1.065   3.466  10.917  0.3972 -0.0205  0.8753
  771MOL0     C 3990  -1.169   3.356  10.938  0.5824 -0.0158 -0.1722
  771MOL0     C 3991  -1.308   3.386  10.865 -0.6023  0.2490  0.0168
  771MOL0     C 3992  -1.359   3.524  10.911 -0.0070  0.4383 -0.1067
  771MOL0     C 3993  -1.500   3.548  10.858  0.2029 -0.6313 -0.1963
  771MOL0     C 3994  -1.501   3.574  10.708 -0.4530 -1.5088  0.6785
  771MOL0    Cl 3995  -1.657   3.648  10.649  0.0130  0.4787 -0.5971
  771MOL0     C 3996  -0.477   3.311  10.890 -0.0547  0.5456 -0.2824
  771MOL0     C 3997  -0.373   3.251  10.821 -0.0840  0.1972 -0.5915
  771MOL0     O 3998  -0.349   3.140  10.418 -0.4535  0.3291  0.2905
  771MOL0     C 3999  -0.086   2.982  10.583 -0.1170  1.0341  0.1124
  771MOL0     C 4000   0.016   2.895  10.569  0.3504  0.1362 -0.5804
  771MOL0     N 4001   0.518   2.348  10.256  0.3641  0.2826 -0.6234
  771MOL0     N 4002   0.557   2.261  10.167  0.1568 -0.4046  0.1910
  771MOL0     C 4003   1.713   2.166  10.262  0.1856 -0.1124  0.6727
  771MOL0     C 4004   1.850   2.177  10.240 -0.0818  0.0641  0.4203
  771MOL0     C 4005   2.238   2.397  10.035  0.1995  0.6350  0.0794
  771MOL0     C 4006   2.279   2.461   9.916 -0.4738  0.4026  0.0139
  771MOL0     C 4007   2.411   2.471   9.871  0.3375  0.3973 -0.2677
  771MOL0     C 4008   2.506   2.391   9.939 -1.0083 -0.0051  0.4675
  771MOL0     O 4009   2.637   2.373   9.890  0.3941 -0.3090  0.4087
  771MOL0     C 4010   2.688   2.474   9.801 -0.4772 -0.1577  0.5017
  771MOL0     C 4011   2.839   2.470   9.779  0.0426 -0.2720  0.0339
  771MOL0     C 4012   2.891   2.605   9.746 -0.2264 -0.2271 -0.2413
  771MOL0     C 4013   3.047   2.605   9.736 -0.5861 -0.5077  0.6306
  771MOL0     C 4014   3.105   2.734   9.707  0.0824 -0.6121 -0.1772
  771MOL0     C 4015   3.160   2.841   9.686 -0.2934 -0.2016 -0.6446
  771MOL0     C 4016   2.470   2.320  10.059 -0.0025  0.3462 -0.4902
  771MOL0     C 4017   2.340   2.321  10.110 -0.6487  0.2165  0.4365
  771MOL0     H 4018   1.840   2.496  10.124  2.3540 -0.8667  0.8262
  771MOL0     H 4019   1.611   2.472  10.182 -0.4177 -0.4685 -3.0808
  771MOL0     H 4020   1.448   2.081  10.337 -1.4112  0.0835  0.9518
  771MOL0     H 4021   1.517   2.192  10.466  0.5226 -1.4320 -1.4485
  771MOL0     H 4022   1.279   2.126  10.494  1.2352  0.7943  1.2863
  771MOL0     H 4023   1.321   2.294  10.504 -1.3409 -0.8248  1.4073
  771MOL0     H 4024   1.217   2.332  10.273 -2.1885 -0.4297 -1.3512
  771MOL0     H 4025   1.185   2.157  10.277 -2.7189  0.5947 -0.2868
  771MOL0     H 4026   1.011   2.180  10.445 -2.4828  1.3740 -0.1469
  771MOL0     H 4027   1.058   2.346  10.475  0.5754 -1.1152  0.9121
  771MOL0     H 4028   0.866   2.354  10.336 -1.1034 -2.3111 -0.9897
  771MOL0     H 4029   1.011   2.398  10.231 -3.0720  0.3623 -1.1879
  771MOL0     H 4030   0.979   2.125  10.193 -0.3238 -1.2705  3.1181
  771MOL0     H 4031   0.826   2.164  10.252 -0.2282  2.0742  1.0353
  771MOL0     H 4032   0.931   2.343  10.019  0.6172 -1.2936 -0.9264
  771MOL0     H 4033   0.954   2.185   9.985 -1.1032  0.8383 -1.8165
  771MOL0     H 4034   0.703   2.141   9.995  0.0680 -1.2491  0.7200
  771MOL0     H 4035   0.724   2.293   9.913 -2.3446  1.8019  1.8495
  771MOL0     H 4036   0.733   2.528  10.097  0.4022  0.8696  0.9020
  771MOL0     H 4037   0.643   2.574  10.423 -0.5883 -2.3680  1.2696
  771MOL0     H 4038   0.610   2.676  10.288  1.7638 -0.8583  0.7933
  771MOL0     H 4039   0.407   2.506  10.435  2.7061  0.0622  3.0180
  771MOL0     H 4040   0.366   2.618  10.296  2.1931 -0.3297 -1.5295
  771MOL0     H 4041   0.462   2.792  10.478 -0.0228  0.5567  0.7967
  771MOL0     H 4042   0.457   2.654  10.582 -1.6216  0.6822  0.1464
  771MOL0     H 4043   0.256   2.786  10.620 -5.1160  0.5687 -0.4499
  771MOL0     H 4044   0.214   2.633  10.554  2.4918 -0.4844  1.8566
  771MOL0     H 4045   0.062   2.912  10.246  3.1688  2.0020  0.5185
  771MOL0     H 4046  -0.091   3.169  10.215 -0.5214 -0.1525  0.2099
  771MOL0     H 4047  -0.127   3.030  10.112 -3.3306 -0.7570 -1.1157
  771MOL0     H 4048  -0.253   3.105  10.201  0.1025 -1.5888 -2.8871
  771MOL0     H 4049  -0.536   3.131  10.555 -1.0496 -0.0780  0.4903
  771MOL0     H 4050  -0.724   3.240  10.674 -0.4650  0.2701  0.3994
  771MOL0     H 4051  -0.842   3.449  10.779  0.9345  0.5321  0.9462
  771MOL0     H 4052  -0.879   3.286  10.853 -1.5597  0.5658  0.7521
  771MOL0     H 4053  -0.947   3.386  11.063 -4.4414 -0.4819 -1.4519
  771MOL0     H 4054  -0.886   3.543  11.016 -0.5620 -0.3009  0.1858
  771MOL0     H 4055  -1.060   3.489  10.810 -0.0703  2.8409  1.3904
  771MOL0     H 4056  -1.103   3.556  10.965 -0.6168  0.5881 -0.9514
  771MOL0     H 4057  -1.135   3.262  10.893  1.8544  1.3949 -2.3160
  771MOL0     H 4058  -1.179   3.350  11.046 -2.1141  3.6784 -0.0309
  771MOL0     H 4059  -1.378   3.312  10.904  1.3588 -2.5685 -1.5215
  771MOL0     H 4060  -1.302   3.381  10.756 -2.4065  1.6111 -0.2041
  771MOL0     H 4061  -1.359   3.541  11.020  2.1645  0.4359 -0.0618
  771MOL0     H 4062  -1.284   3.595  10.873 -0.1154  0.4948 -0.2141
  771MOL0     H 4063  -1.532   3.643  10.901  5.3480  2.2980 -1.9465
  771MOL0     H 4064  -1.566   3.466  10.887 -0.4462  0.2233  0.8473
  771MOL0     H 4065  -1.483   3.481  10.654 -0.1104 -1.2666  0.3768
  771MOL0     H 4066  -1.422   3.647  10.690 -2.9289  1.0226 -0.8499
  771MOL0     H 4067  -0.460   3.350  10.990 -2.0314  0.2514  0.2017
  771MOL0     H 4068  -0.275   3.257  10.867 -0.3778  0.2980  0.0253
  771MOL0     H 4069  -0.121   3.007  10.683 -0.5676  0.9113 -0.0122
  771MOL0     H 4070   0.071   2.852  10.653  0.0563  0.9556  0.0436
  771MOL0     H 4071   1.688   2.065  10.296  0.1090 -2.1625 -4.6061
  771MOL0     H 4072   1.919   2.097  10.264  0.2049 -0.0002 -0.5876
  771MOL0     H 4073   2.216   2.513   9.845  0.6179  0.4156 -0.9917
  771MOL0     H 4074   2.449   2.530   9.789  0.5018  0.6327 -0.0228
  771MOL0     H 4075   2.632   2.471   9.707 -0.9050  1.8399  0.6461
  771MOL0     H 4076   2.667   2.571   9.848  0.3191 -0.8247  2.3246
  771MOL0     H 4077   2.867   2.402   9.698  3.4032  0.8856  0.0964
  771MOL0     H 4078   2.882   2.434   9.873 -1.7456  0.3585  1.1513
  771MOL0     H 4079   2.853   2.681   9.815 -3.8474 -1.5642 -0.5386
  771MOL0     H 4080   2.858   2.622   9.644 -0.9621 -0.5083 -0.0521
  771MOL0     H 4081   3.091   2.532   9.668 -0.9416 -1.5098  1.4459
  771MOL0     H 4082   3.082   2.580   9.837  1.8348 -0.2460 -0.0868
  771MOL0     H 4083   3.205   2.935   9.665  1.8959 -1.2270 -0.7856
  771MOL0     H 4084   2.538   2.259  10.118 -1.5598  1.5791  2.8230
  771MOL0     H 4085   2.315   2.265  10.200  0.5953 -0.0283  0.6399
  772MOL0     O 4086   8.426   0.301   8.871 -0.3122 -0.0789 -0.1069
  772MOL0     C 4087   8.519   0.266   8.947 -0.8873  0.9118  0.2185
  772MOL0     O 4088   8.509   0.216   9.077  0.6690  0.0690 -0.0475
  772MOL0     C 4089   8.378   0.198   9.129 -0.1588  0.8249  1.0477
  772MOL0     C 4090   8.289   0.117   9.069 -0.1820  0.1918 -0.6982
  772MOL0     C 4091   8.154   0.099   9.105 -0.1389 -0.0065  0.2198
  772MOL0     C 4092   8.109   0.192   9.210  0.7161  0.0799  1.4343
  772MOL0     O 4093   7.989   0.180   9.277  0.0224 -0.2120  0.8049
  772MOL0     C 4094   7.879   0.120   9.205  0.1815 -0.2786 -0.6748
  772MOL0     C 4095   7.819   0.216   9.103  0.0481 -0.9814  0.3795
  772MOL0     C 4096   7.695   0.156   9.037  0.1675  0.0556 -0.1319
  772MOL0     C 4097   7.627   0.258   8.934 -0.5343 -0.0812 -0.3461
  772MOL0     C 4098   7.522   0.178   8.848 -1.1747  1.0134  0.4995
  772MOL0     C 4099   7.463   0.261   8.739  1.2317  0.1110 -1.2907
  772MOL0     C 4100   7.367   0.373   8.797 -0.1865 -0.3144  0.2662
  772MOL0     C 4101   7.275   0.425   8.683 -0.0301 -0.3271  0.4374
  772MOL0     N 4102   7.164   0.518   8.731  0.5327 -0.6754  0.3632
  772MOL0     C 4103   7.182   0.639   8.795  0.6521  0.6291  0.1670
  772MOL0     C 4104   7.059   0.694   8.802  0.1903  0.7478 -0.1891
  772MOL0     C 4105   7.035   0.825   8.872  1.0136 -0.7160 -0.1448
  772MOL0     C 4106   6.894   0.848   8.927  0.3584  0.0358  0.4327
  772MOL0     C 4107   6.855   0.749   9.036 -0.2300 -0.5814  0.4397
  772MOL0     C 4108   6.714   0.744   9.068  1.4169 -0.0519 -1.1265
  772MOL0     O 4109   6.677   0.870   9.132 -0.2590  0.0357  1.2250
  772MOL0     C 4110   6.545   0.912   9.131  0.0677 -0.4699 -0.3541
  772MOL0     C 4111   6.438   0.837   9.082  0.1839 -0.1845  0.5056
  772MOL0     C 4112   6.309   0.888   9.062  0.0259  0.3203 -0.3684
  772MOL0     C 4113   6.209   0.780   9.017  0.1605  0.6958 -0.1162
  772MOL0     C 4114   6.289   1.027   9.083 -0.8875  0.1500  0.6802
  772MOL0     C 4115   6.166   1.103   9.046  0.5967  0.6388  0.2082
  772MOL0     O 4116   6.153   1.230   9.087 -0.3431 -0.1282  0.3472
  772MOL0     C 4117   6.039   1.304   9.065  0.6712  0.7281 -0.5962
  772MOL0     C 4118   5.912   1.255   9.086 -0.7047 -0.0087  0.0704
  772MOL0     C 4119   5.797   1.332   9.057 -0.2420  0.5815  0.3235
  772MOL0     C 4120   5.815   1.465   9.009  0.3331 -0.1999 -0.1137
  772MOL0     O 4121   5.697   1.536   8.969 -0.3322 -0.1740 -0.6473
  772MOL0     C 4122   5.707   1.678   8.994 -0.3821  0.4069 -0.2773
  772MOL0     C 4123   5.563   1.729   9.024 -1.2544  0.5287  0.5832
  772MOL0     C 4124   5.561   1.883   9.020 -0.4949 -0.1485 -0.1666
  772MOL0     C 4125   5.417   1.931   9.050  0.1003 -0.0191 -0.2759
  772MOL0     C 4126   5.392   2.082   9.038 -0.0450 -0.2891  0.6544
  772MOL0     C 4127   5.267   2.128   9.110  0.2995  0.4993 -0.0589
  772MOL0     C 4128   5.142   2.034   9.071  0.5485 -0.4486  1.0279
  772MOL0     C 4129   5.008   2.098   9.091 -0.2024  0.7423 -0.2103
  772MOL0    Cl 4130   5.012   2.250   8.998  0.1610  0.2380  0.6224
  772MOL0     C 4131   5.947   1.516   8.993  0.2471  0.5175 -0.2880
  772MOL0     C 4132   6.058   1.435   9.025  0.9036 -0.5433  0.1648
  772MOL0     O 4133   6.073   1.039   8.991 -0.3724 -0.1159  0.0191
  772MOL0     C 4134   6.390   1.095   9.145 -0.9692 -0.6667  0.1823
  772MOL0     C 4135   6.522   1.043   9.152  0.0255 -0.0533 -0.2710
  772MOL0     N 4136   6.969   0.603   8.741  0.6723 -0.4928 -0.4721
  772MOL0     N 4137   7.031   0.501   8.705 -0.0438  0.4442  0.3022
  772MOL0     C 4138   8.201   0.277   9.264  0.7186  0.0965 -0.3109
  772MOL0     C 4139   8.333   0.279   9.228 -0.3697  0.5039 -1.0433
  772MOL0     C 4140   8.651   0.289   8.908  0.0325 -0.2179 -0.4835
  772MOL0     C 4141   8.765   0.215   8.967 -0.2124  0.3276 -0.1970
  772MOL0     C 4142   8.898   0.250   8.933  0.5171  0.2430  0.1630
  772MOL0     C 4143   8.923   0.352   8.840 -0.7022 -0.3056  1.2324
  772MOL0     O 4144   9.039   0.400   8.790 -0.3110  0.2677 -0.2825
  772MOL0     C 4145   9.153   0.328   8.835 -0.8036  0.4280 -0.1801
  772MOL0     C 4146   9.284   0.389   8.785  0.7296  0.4409 -0.0192
  772MOL0     C 4147   9.327   0.347   8.647  0.0783  0.1258  1.4417
  772MOL0     C 4148   9.363   0.202   8.622 -1.2052 -0.5693 -0.7625
  772MOL0     C 4149   9.408   0.184   8.483 -0.0576  0.6946 -0.2741
  772MOL0     C 4150   9.458   0.163   8.371 -0.0025 -0.0401  0.0021
  772MOL0     C 4151   8.814   0.421   8.782  0.0827 -0.5748 -0.3357
  772MOL0     C 4152   8.681   0.391   8.817 -0.4491 -0.1526  0.3579
  772MOL0     H 4153   8.328   0.053   8.991 -1.2641  1.0648 -1.9842
  772MOL0     H 4154   8.096   0.018   9.062 -1.0167  0.7344 -0.0188
  772MOL0     H 4155   7.896   0.027   9.150 -3.8169 -1.9889  0.6115
  772MOL0     H 4156   7.807   0.080   9.278  1.3961 -1.0319  0.1466
  772MOL0     H 4157   7.800   0.315   9.146 -3.1819 -2.7819  3.7105
  772MOL0     H 4158   7.896   0.220   9.025  0.0395  0.6745  0.4126
  772MOL0     H 4159   7.735   0.059   9.009  0.1230 -0.2603  0.8665
  772MOL0     H 4160   7.616   0.134   9.110 -1.4276  0.9533 -1.5012
  772MOL0     H 4161   7.564   0.323   8.995 -1.1926 -2.4229  1.6029
  772MOL0     H 4162   7.702   0.302   8.867  2.2200 -4.1459 -0.2725
  772MOL0     H 4163   7.568   0.095   8.793  0.8555  1.1566  1.8525
  772MOL0     H 4164   7.450   0.129   8.914  1.2010 -3.9584 -0.1051
  772MOL0     H 4165   7.537   0.292   8.665 -1.7825 -2.1539 -5.6742
  772MOL0     H 4166   7.397   0.198   8.679 -1.4293  1.7142 -0.2497
  772MOL0     H 4167   7.312   0.329   8.880 -1.4953  0.8326  0.0386
  772MOL0     H 4168   7.425   0.457   8.836  0.8829 -1.6376  1.6625
  772MOL0     H 4169   7.231   0.331   8.646  1.2621 -0.2551 -1.4520
  772MOL0     H 4170   7.333   0.473   8.604  2.5392  0.5321  2.6965
  772MOL0     H 4171   7.269   0.700   8.816  0.7448 -0.1189  2.1536
  772MOL0     H 4172   7.096   0.842   8.962 -2.2162  2.6712  1.6756
  772MOL0     H 4173   7.044   0.908   8.802 -1.0509 -1.4639 -1.3771
  772MOL0     H 4174   6.821   0.838   8.846 -1.1435 -2.9200  2.0004
  772MOL0     H 4175   6.886   0.946   8.975  1.2526  0.3317  0.0197
  772MOL0     H 4176   6.901   0.784   9.129 -0.8598  1.5501 -0.0006
  772MOL0     H 4177   6.884   0.646   9.012 -1.4463 -0.9764  0.6488
  772MOL0     H 4178   6.678   0.660   9.129 -0.1326  0.7663 -0.8617
  772MOL0     H 4179   6.669   0.733   8.969  3.0607 -0.9317 -1.8320
  772MOL0     H 4180   6.455   0.732   9.059  0.1878 -0.4375  1.6280
  772MOL0     H 4181   6.222   0.674   9.041 -0.9935  0.3388 -0.9712
  772MOL0     H 4182   6.109   0.801   9.057 -0.9902 -1.2445 -1.7927
  772MOL0     H 4183   6.203   0.789   8.909  1.9984  1.3368 -0.1978
  772MOL0     H 4184   5.892   1.156   9.127  0.7806 -0.8968 -1.2463
  772MOL0     H 4185   5.697   1.292   9.066  0.5091 -1.3099  0.7461
  772MOL0     H 4186   5.771   1.711   9.076  2.2723  1.4282 -2.6158
  772MOL0     H 4187   5.749   1.727   8.906  2.6082 -1.1599  0.1458
  772MOL0     H 4188   5.501   1.680   8.948  1.6788  0.5514 -2.0237
  772MOL0     H 4189   5.526   1.692   9.121  1.0230  3.6235  2.8158
  772MOL0     H 4190   5.597   1.927   8.927 -3.3779 -0.6926 -1.6330
  772MOL0     H 4191   5.640   1.913   9.090 -1.0335 -1.4986  1.0744
  772MOL0     H 4192   5.350   1.875   8.984  0.2891  2.3017 -2.6081
  772MOL0     H 4193   5.390   1.891   9.148 -1.6680  1.1180 -0.2530
  772MOL0     H 4194   5.388   2.108   8.932 -1.9183 -1.1353  0.4797
  772MOL0     H 4195   5.482   2.125   9.083  0.4367 -0.0831 -0.4830
  772MOL0     H 4196   5.283   2.119   9.218  2.5594  1.2235 -0.2774
  772MOL0     H 4197   5.241   2.230   9.080 -1.4549 -0.3256 -1.4968
  772MOL0     H 4198   5.154   1.934   9.114 -0.0186 -0.0863  2.0657
  772MOL0     H 4199   5.146   2.010   8.964  0.8556  2.4273  0.3086
  772MOL0     H 4200   5.004   2.114   9.199 -1.8434 -0.1724 -0.1139
  772MOL0     H 4201   4.925   2.034   9.063 -0.8508  0.7486  1.6180
  772MOL0     H 4202   5.965   1.618   8.961  1.7542  1.3798  2.9175
  772MOL0     H 4203   6.157   1.479   9.016  0.1816  2.1614  3.3105
  772MOL0     H 4204   6.374   1.201   9.166 -3.0583 -0.5487 -1.5974
  772MOL0     H 4205   6.607   1.107   9.169 -0.6641  0.8153 -0.0037
  772MOL0     H 4206   8.157   0.328   9.349 -3.6257 -3.8975  0.2673
  772MOL0     H 4207   8.401   0.348   9.278 -0.7195  0.3044 -0.2663
  772MOL0     H 4208   8.754   0.145   9.048 -1.2006  3.5891  2.7370
  772MOL0     H 4209   8.975   0.191   8.981  0.5868  0.0119 -0.2318
  772MOL0     H 4210   9.156   0.319   8.944  1.4850  2.1360 -0.0203
  772MOL0     H 4211   9.147   0.226   8.797  0.7976 -0.6397  2.2283
  772MOL0     H 4212   9.368   0.356   8.848 -0.6395  0.1360  1.7232
  772MOL0     H 4213   9.280   0.499   8.784  0.1098  0.4369 -1.8386
  772MOL0     H 4214   9.403   0.418   8.613 -1.4551  2.4259  2.5799
  772MOL0     H 4215   9.245   0.362   8.577  1.5123 -3.6433 -1.4115
  772MOL0     H 4216   9.285   0.131   8.652 -0.4737 -2.2168 -2.5022
  772MOL0     H 4217   9.453   0.185   8.682 -0.3637  0.5583 -1.6615
  772MOL0     H 4218   9.513   0.136   8.283 -0.9347 -0.4970 -0.4497
  772MOL0     H 4219   8.832   0.504   8.715 -0.6043 -0.5456 -0.4913
  772MOL0     H 4220   8.607   0.459   8.774  1.7391  3.7711  2.2269
  773MOL0     O 4221   1.990   2.133   6.286  0.2015 -0.1546  0.8628
  773MOL0     C 4222   2.055   2.221   6.231  0.3343 -0.4126 -0.3407
  773MOL0     O 4223   1.992   2.319   6.142  0.0728 -0.6131 -0.5055
  773MOL0     C 4224   1.864   2.296   6.099 -0.1695  0.3443  0.7076
  773MOL0     C 4225   1.835   2.264   5.959 -0.4016  0.2574 -0.9796
  773MOL0     C 4226   1.714   2.248   5.908 -0.7904  0.4836 -0.3853
  773MOL0     C 4227   1.596   2.264   5.992 -0.6443  0.2410 -0.1088
  773MOL0     O 4228   1.465   2.248   5.943 -0.3306 -0.4444  0.1010
  773MOL0     C 4229   1.435   2.336   5.830 -0.0618  0.6497  0.2073
  773MOL0     C 4230   1.289   2.345   5.799  0.2592  0.5055  0.4128
  773MOL0     C 4231   1.191   2.371   5.918  0.7779 -0.1631 -0.5184
  773MOL0     C 4232   1.061   2.440   5.868 -0.9986  0.5198 -0.5332
  773MOL0     C 4233   0.943   2.444   5.963  0.3396 -0.0935 -0.1905
  773MOL0     C 4234   0.874   2.316   5.989 -0.3494  0.8161  0.6028
  773MOL0     C 4235   0.740   2.341   6.046  0.3093 -0.1448  0.7957
  773MOL0     C 4236   0.632   2.382   5.939 -0.2157 -0.8023  0.4642
  773MOL0     N 4237   0.495   2.374   5.990 -0.5969 -1.0741 -0.0280
  773MOL0     C 4238   0.436   2.444   6.087 -0.0169  0.2944  0.3696
  773MOL0     C 4239   0.297   2.423   6.067 -0.2977 -0.8963  0.1998
  773MOL0     C 4240   0.192   2.469   6.170 -0.5457 -0.2769  0.2068
  773MOL0     C 4241   0.075   2.542   6.101 -0.7783  0.3263  0.1912
  773MOL0     C 4242   0.015   2.659   6.174  0.0105 -0.5266 -0.1663
  773MOL0     C 4243  -0.103   2.729   6.103 -1.3437  0.3938 -0.2025
  773MOL0     O 4244  -0.218   2.644   6.125  0.0782  0.1725  0.1699
  773MOL0     C 4245  -0.326   2.683   6.056  0.3431  0.3426 -0.7138
  773MOL0     C 4246  -0.357   2.804   6.001 -0.1591  0.2901 -0.3714
  773MOL0     C 4247  -0.468   2.829   5.922  0.3464  0.1159 -1.3967
  773MOL0     C 4248  -0.491   2.953   5.855 -0.3659 -0.8536 -0.1826
  773MOL0     C 4249  -0.572   2.727   5.919 -0.3453 -0.2542 -0.3313
  773MOL0     C 4250  -0.690   2.739   5.834 -0.6882 -0.1263  0.1300
  773MOL0     O 4251  -0.807   2.664   5.860 -0.4746  0.2501  0.0835
  773MOL0     C 4252  -0.935   2.688   5.803 -0.3734 -1.2547 -0.0626
  773MOL0     C 4253  -1.042   2.682   5.891 -0.2067 -0.0736  0.4192
  773MOL0     C 4254  -1.173   2.704   5.852 -0.6992 -0.9661  0.0325
  773MOL0     C 4255  -1.205   2.727   5.720 -0.7204 -0.1288 -0.3168
  773MOL0     O 4256  -1.334   2.737   5.679  0.0755 -0.1648 -1.0896
  773MOL0     C 4257  -1.368   2.864   5.623 -0.6581  0.0018  0.0425
  773MOL0     C 4258  -1.515   2.895   5.607  0.1230  0.9953  0.8476
  773MOL0     C 4259  -1.573   2.805   5.500 -0.6825 -0.4519 -0.6357
  773MOL0     C 4260  -1.545   2.843   5.353 -0.1212 -0.0982 -0.5897
  773MOL0     C 4261  -1.594   2.730   5.263  0.5759 -0.1926  0.1633
  773MOL0     C 4262  -1.578   2.762   5.109 -0.1098 -0.2215  0.1174
  773MOL0     C 4263  -1.659   2.661   5.022  0.5507  0.5162  0.0323
  773MOL0     C 4264  -1.805   2.686   5.033 -0.1140 -0.1041  0.6779
  773MOL0    Cl 4265  -1.865   2.841   4.964 -0.7621 -0.0732 -0.0966
  773MOL0     C 4266  -1.101   2.720   5.627 -0.7577  0.2418  0.8620
  773MOL0     C 4267  -0.964   2.698   5.669 -0.0939 -0.6662  0.0029
  773MOL0     O 4268  -0.680   2.806   5.733  0.5077 -0.6712  1.0966
  773MOL0     C 4269  -0.539   2.605   5.983  0.6776 -0.4738 -0.8974
  773MOL0     C 4270  -0.413   2.577   6.036  0.4621  0.2667 -0.3845
  773MOL0     N 4271   0.286   2.329   5.969  0.7162  0.5034  0.0794
  773MOL0     N 4272   0.400   2.304   5.918 -0.4187  0.4948 -0.3798
  773MOL0     C 4273   1.618   2.298   6.123 -1.1925 -0.0477 -0.8343
  773MOL0     C 4274   1.751   2.318   6.179  0.6476  0.7559  0.4424
  773MOL0     C 4275   2.202   2.230   6.248  0.1690 -0.0795 -0.2745
  773MOL0     C 4276   2.273   2.128   6.310 -0.5750  0.2607  0.8287
  773MOL0     C 4277   2.409   2.126   6.342  0.5635 -0.3937  0.4612
  773MOL0     C 4278   2.484   2.237   6.282  0.8079 -0.4455 -0.6713
  773MOL0     O 4279   2.621   2.238   6.295 -1.0796 -0.3791 -0.3260
  773MOL0     C 4280   2.688   2.243   6.421 -0.1920 -0.4254 -0.4313
  773MOL0     C 4281   2.819   2.162   6.425 -0.1543 -0.6576 -0.1784
  773MOL0     C 4282   2.815   2.020   6.362 -0.4223 -0.3634  0.0395
  773MOL0     C 4283   2.953   1.958   6.354 -0.7469  0.0053 -0.3370
  773MOL0     C 4284   2.951   1.821   6.302 -0.5498  0.0721 -0.1442
  773MOL0     C 4285   2.956   1.712   6.255 -0.8189 -0.0001 -1.0834
  773MOL0     C 4286   2.417   2.335   6.206 -0.1637 -0.0139  0.0874
  773MOL0     C 4287   2.277   2.327   6.193 -0.4334 -0.2401 -0.6119
  773MOL0     H 4288   1.905   2.228   5.884  1.2620 -1.7933  1.4006
  773MOL0     H 4289   1.722   2.218   5.804  0.6856 -0.0570 -0.1430
  773MOL0     H 4290   1.466   2.435   5.865 -1.1391  1.3571 -0.7692
  773MOL0     H 4291   1.482   2.294   5.741 -1.5598 -0.9461  0.1195
  773MOL0     H 4292   1.272   2.427   5.729 -2.4684 -0.4422 -0.1480
  773MOL0     H 4293   1.255   2.250   5.757 -0.5185 -0.3401  2.7890
  773MOL0     H 4294   1.155   2.274   5.953  0.2851  0.6545  1.3360
  773MOL0     H 4295   1.233   2.419   6.006  2.4342 -1.6408 -0.4286
  773MOL0     H 4296   1.086   2.546   5.858  2.3652 -0.1341 -0.3757
  773MOL0     H 4297   1.026   2.399   5.773  1.5241  0.7249 -1.6492
  773MOL0     H 4298   0.971   2.505   6.049 -0.8536 -0.6843  0.6526
  773MOL0     H 4299   0.870   2.505   5.909 -2.3986 -2.7351  0.2272
  773MOL0     H 4300   0.868   2.251   5.901  1.4493  1.0306  0.2969
  773MOL0     H 4301   0.922   2.255   6.066 -2.2815 -0.9499  0.4949
  773MOL0     H 4302   0.705   2.248   6.092  0.7208 -0.4701  0.4637
  773MOL0     H 4303   0.752   2.414   6.126  1.1800  0.2452  0.3250
  773MOL0     H 4304   0.639   2.324   5.846  1.7670  0.5069 -0.2599
  773MOL0     H 4305   0.646   2.484   5.902 -1.6409 -1.2631 -1.5418
  773MOL0     H 4306   0.487   2.505   6.161 -0.1305 -2.5834  3.0313
  773MOL0     H 4307   0.153   2.383   6.225 -2.0711  1.1008  1.3701
  773MOL0     H 4308   0.243   2.530   6.245  2.8144 -0.5324 -1.6904
  773MOL0     H 4309  -0.001   2.470   6.069  1.7373 -1.7081 -1.6215
  773MOL0     H 4310   0.117   2.580   6.008  0.2508  1.3177  1.0334
  773MOL0     H 4311   0.090   2.737   6.192 -0.4245 -0.1487  0.0417
  773MOL0     H 4312  -0.020   2.628   6.273  2.6443 -0.7308  0.8098
  773MOL0     H 4313  -0.087   2.750   5.996 -0.0720 -4.5071 -1.2595
  773MOL0     H 4314  -0.115   2.820   6.161  1.3595 -0.1621  1.4093
  773MOL0     H 4315  -0.278   2.878   6.014 -0.7655  0.4563  3.3906
  773MOL0     H 4316  -0.414   3.022   5.891  0.4499 -2.2639  0.8466
  773MOL0     H 4317  -0.472   2.941   5.748  3.0855 -0.5431  0.2754
  773MOL0     H 4318  -0.590   2.992   5.881  0.4745 -0.1856  2.3661
  773MOL0     H 4319  -1.025   2.670   5.998  4.5677 -2.0991 -0.3403
  773MOL0     H 4320  -1.247   2.702   5.931  2.1374  0.7243  2.9516
  773MOL0     H 4321  -1.325   2.944   5.685  1.6717 -2.9113  2.5036
  773MOL0     H 4322  -1.326   2.858   5.522 -1.8674  0.6275 -0.5191
  773MOL0     H 4323  -1.564   2.878   5.703 -0.4007 -1.6155  0.1926
  773MOL0     H 4324  -1.549   2.997   5.585  0.5006  1.1041  0.7633
  773MOL0     H 4325  -1.681   2.806   5.513 -0.7426  0.8001 -1.1163
  773MOL0     H 4326  -1.528   2.709   5.526  0.7339  0.9345  2.5090
  773MOL0     H 4327  -1.610   2.930   5.339 -2.5520 -1.9677 -1.7406
  773MOL0     H 4328  -1.439   2.867   5.337  0.6905 -3.1795 -0.5016
  773MOL0     H 4329  -1.690   2.682   5.282  0.1079  1.0153  0.9953
  773MOL0     H 4330  -1.528   2.646   5.288  0.6196 -1.1129 -2.6808
  773MOL0     H 4331  -1.612   2.861   5.076 -2.9931 -1.1262  0.0901
  773MOL0     H 4332  -1.472   2.760   5.082  0.4152  1.0853  1.9452
  773MOL0     H 4333  -1.638   2.558   5.052  0.4658 -0.5550 -3.1926
  773MOL0     H 4334  -1.630   2.676   4.918 -1.5953  2.6066 -0.3284
  773MOL0     H 4335  -1.841   2.699   5.135  0.1771  3.0629  0.4628
  773MOL0     H 4336  -1.861   2.606   4.984  1.9523 -1.3670  0.2246
  773MOL0     H 4337  -1.130   2.724   5.523 -0.6596  0.7823  0.8526
  773MOL0     H 4338  -0.875   2.695   5.607  1.0427  0.6242  1.5041
  773MOL0     H 4339  -0.614   2.528   5.968 -1.3423  1.1792  0.1765
  773MOL0     H 4340  -0.398   2.483   6.088  0.4208 -0.7071 -2.0560
  773MOL0     H 4341   1.530   2.309   6.186 -1.1233 -1.6113 -0.4187
  773MOL0     H 4342   1.762   2.350   6.282 -0.4562 -1.6306  1.3673
  773MOL0     H 4343   2.209   2.055   6.360 -1.3891  1.1941  1.1845
  773MOL0     H 4344   2.460   2.048   6.398  1.5538 -0.1616 -0.0926
  773MOL0     H 4345   2.716   2.348   6.435 -2.0308  0.1517 -0.8377
  773MOL0     H 4346   2.622   2.207   6.500 -1.9512  1.0020 -1.1818
  773MOL0     H 4347   2.856   2.163   6.528 -0.8628 -2.1600  0.1089
  773MOL0     H 4348   2.885   2.220   6.360 -1.1172  0.3272 -0.2960
  773MOL0     H 4349   2.769   2.021   6.263 -1.1081 -2.7818  0.2655
  773MOL0     H 4350   2.753   1.961   6.431  0.6583 -0.4412  0.9778
  773MOL0     H 4351   3.009   1.966   6.448  0.9119 -1.0836 -1.1930
  773MOL0     H 4352   3.005   2.010   6.274 -0.8898  0.2879 -0.2484
  773MOL0     H 4353   2.973   1.612   6.222 -1.8854 -0.0648 -1.4957
  773MOL0     H 4354   2.476   2.406   6.149  1.9532 -2.1071 -0.4960
  773MOL0     H 4355   2.225   2.406   6.140 -0.9323 -1.6551 -2.3625
  774MOL0     O 4356   1.540   6.542   0.799 -0.3127 -0.1522 -0.0601
  774MOL0     C 4357   1.603   6.456   0.852 -0.3295  0.6553 -0.5986
  774MOL0     O 4358   1.547   6.352   0.926  0.3240  0.8702  0.7900
  774MOL0     C 4359   1.413   6.345   0.942  0.1026  0.9670  0.1244
  774MOL0     C 4360   1.357   6.232   0.876  0.5357  0.0148 -0.8655
  774MOL0     C 4361   1.223   6.207   0.903 -0.7284  0.1244 -0.2429
  774MOL0     C 4362   1.136   6.298   0.969  0.7431 -0.0203  0.1947
  774MOL0     O 4363   1.003   6.258   0.989 -0.9885 -0.7821 -0.2443
  774MOL0     C 4364   0.896   6.350   0.975 -0.4684  0.2198  0.2853
  774MOL0     C 4365   0.769   6.286   1.034 -0.5568  0.8416  0.3700
  774MOL0     C 4366   0.741   6.331   1.174  0.2451  0.1163 -0.9394
  774MOL0     C 4367   0.600   6.268   1.207  0.1570 -0.0838  0.3590
  774MOL0     C 4368   0.552   6.314   1.352  0.2926  0.2513 -0.1135
  774MOL0     C 4369   0.410   6.266   1.385  0.6260  0.9075  0.6186
  774MOL0     C 4370   0.341   6.320   1.504  0.6685  0.2103  0.6478
  774MOL0     C 4371   0.414   6.317   1.639  0.0755  0.7105 -0.2349
  774MOL0     N 4372   0.340   6.355   1.763  0.0096 -0.2068  0.5791
  774MOL0     C 4373   0.264   6.265   1.841 -0.5333  0.3783  0.0046
  774MOL0     C 4374   0.195   6.348   1.922  0.4204  0.2554  0.0872
  774MOL0     C 4375   0.095   6.307   2.021 -0.5216 -0.1586  0.5526
  774MOL0     C 4376  -0.042   6.353   1.985  0.3603  0.2404  0.6893
  774MOL0     C 4377  -0.108   6.259   1.876 -1.2676  0.3557 -0.0807
  774MOL0     C 4378  -0.263   6.279   1.858  0.1312 -0.0535  0.1790
  774MOL0     O 4379  -0.347   6.273   1.979 -0.0729  0.1638  1.0191
  774MOL0     C 4380  -0.473   6.220   1.965  0.4835 -0.6834 -0.9355
  774MOL0     C 4381  -0.529   6.155   2.075  1.0800 -1.0829  0.4178
  774MOL0     C 4382  -0.669   6.124   2.074  0.1364 -0.3581 -0.3362
  774MOL0     C 4383  -0.717   6.061   2.199  0.6259  0.3905 -0.2714
  774MOL0     C 4384  -0.754   6.153   1.966  0.1286  0.3808 -0.2260
  774MOL0     C 4385  -0.894   6.109   1.963 -0.6098 -0.4748  0.6961
  774MOL0     O 4386  -0.976   6.199   1.905 -0.4889  1.2111  0.4722
  774MOL0     C 4387  -1.109   6.169   1.886  0.0593  0.2131  0.2643
  774MOL0     C 4388  -1.196   6.160   2.004 -0.8581  0.2229 -0.0791
  774MOL0     C 4389  -1.330   6.139   1.988  0.2508 -0.3711  0.4954
  774MOL0     C 4390  -1.381   6.148   1.858 -0.1644 -0.2655 -0.6922
  774MOL0     O 4391  -1.514   6.148   1.845  0.1368  0.2639  0.1112
  774MOL0     C 4392  -1.594   6.263   1.891 -0.5167  0.7151  0.9282
  774MOL0     C 4393  -1.743   6.237   1.871  0.1079 -0.5831 -0.2348
  774MOL0     C 4394  -1.782   6.185   1.735  0.5815 -0.1877 -0.3085
  774MOL0     C 4395  -1.935   6.194   1.713  0.3142 -0.9380 -0.0827
  774MOL0     C 4396  -1.974   6.143   1.578  0.6480  0.2572 -0.4029
  774MOL0     C 4397  -2.125   6.142   1.544 -0.5035  0.3270 -0.2531
  774MOL0     C 4398  -2.140   6.094   1.398 -0.1204 -0.4344 -0.1987
  774MOL0     C 4399  -2.285   6.122   1.355  0.3090  0.4680 -0.1406
  774MOL0    Cl 4400  -2.313   6.296   1.349  0.3278  0.0624  0.3063
  774MOL0     C 4401  -1.302   6.158   1.748 -0.1584  0.0907  0.2350
  774MOL0     C 4402  -1.166   6.156   1.763 -0.3000 -0.9480 -0.6271
  774MOL0     O 4403  -0.921   5.996   1.999 -0.6000  0.3503 -0.5398
  774MOL0     C 4404  -0.694   6.210   1.855  0.1617  0.5273  0.0905
  774MOL0     C 4405  -0.556   6.242   1.856 -0.4459 -0.3327  0.3421
  774MOL0     N 4406   0.228   6.476   1.895 -0.0203 -0.1219  0.1359
  774MOL0     N 4407   0.305   6.483   1.795 -0.1026 -0.0521  0.1502
  774MOL0     C 4408   1.194   6.422   1.024  0.3662  0.5897  1.1235
  774MOL0     C 4409   1.333   6.438   1.015 -0.0268 -0.4686  0.3969
  774MOL0     C 4410   1.746   6.444   0.809  0.5659  0.4136  0.0791
  774MOL0     C 4411   1.814   6.322   0.810 -0.4408 -0.1559 -0.1398
  774MOL0     C 4412   1.948   6.310   0.761  0.5435  0.0945  0.2235
  774MOL0     C 4413   2.013   6.420   0.704  0.1095  0.7202  0.5004
  774MOL0     O 4414   2.135   6.396   0.651 -0.3010 -0.2740 -0.2840
  774MOL0     C 4415   2.244   6.483   0.690 -0.4565 -0.2741 -0.3681
  774MOL0     C 4416   2.251   6.503   0.845 -0.2045 -0.5192  0.3787
  774MOL0     C 4417   2.377   6.586   0.874  0.2298 -0.9775  0.1496
  774MOL0     C 4418   2.374   6.733   0.827 -0.4186  0.1719 -0.1695
  774MOL0     C 4419   2.513   6.784   0.836 -0.3075 -0.3443  0.0029
  774MOL0     C 4420   2.624   6.827   0.837 -0.1598 -0.6767 -0.1768
  774MOL0     C 4421   1.947   6.540   0.689  0.9869 -0.0857 -0.7359
  774MOL0     C 4422   1.820   6.545   0.748 -0.4439 -0.4072  0.2541
  774MOL0     H 4423   1.429   6.164   0.831  2.2481  0.7500  0.6340
  774MOL0     H 4424   1.183   6.113   0.867  1.6537 -2.0686  2.3604
  774MOL0     H 4425   0.923   6.443   1.026  0.0913  0.4374 -0.3984
  774MOL0     H 4426   0.890   6.374   0.868  0.4257 -2.1919 -0.3611
  774MOL0     H 4427   0.681   6.306   0.972  0.3275  1.0930 -0.8417
  774MOL0     H 4428   0.786   6.178   1.027  2.8196  1.3117 -0.0798
  774MOL0     H 4429   0.809   6.292   1.251 -0.6432  0.9542  0.3016
  774MOL0     H 4430   0.739   6.440   1.184 -0.5056  0.2413 -2.2526
  774MOL0     H 4431   0.527   6.307   1.136  2.9579  0.9581 -2.1861
  774MOL0     H 4432   0.606   6.162   1.181 -1.2920  0.5299 -3.0494
  774MOL0     H 4433   0.617   6.279   1.433  0.0699  1.6394  0.6852
  774MOL0     H 4434   0.541   6.422   1.364 -0.7836 -0.1526  4.2457
  774MOL0     H 4435   0.340   6.287   1.304 -1.6984  2.4923  2.8908
  774MOL0     H 4436   0.410   6.156   1.386  0.3636  0.8998  0.1966
  774MOL0     H 4437   0.312   6.421   1.474 -0.4212 -0.1159  0.5600
  774MOL0     H 4438   0.250   6.262   1.521  1.0019 -0.2406  0.8953
  774MOL0     H 4439   0.494   6.392   1.638 -1.2915  2.2655  1.1895
  774MOL0     H 4440   0.452   6.220   1.672  0.0018  1.4502  2.2382
  774MOL0     H 4441   0.272   6.157   1.842  0.4473  0.3773 -2.1632
  774MOL0     H 4442   0.095   6.206   2.064 -1.6624 -0.4955 -0.1994
  774MOL0     H 4443   0.129   6.365   2.107 -2.0310 -1.5052  2.1348
  774MOL0     H 4444  -0.037   6.453   1.940 -0.7488 -1.1814 -2.9852
  774MOL0     H 4445  -0.097   6.347   2.078  1.4363  0.1403  1.3406
  774MOL0     H 4446  -0.102   6.153   1.901  0.4685  0.9020  2.1565
  774MOL0     H 4447  -0.069   6.283   1.776  0.6426  1.5457  0.9024
  774MOL0     H 4448  -0.295   6.201   1.788 -0.1829  1.0648 -0.9500
  774MOL0     H 4449  -0.281   6.377   1.814 -0.2431  0.0682  0.5994
  774MOL0     H 4450  -0.483   6.155   2.173  0.0828 -1.3342  0.9029
  774MOL0     H 4451  -0.811   6.106   2.233 -0.5486 -2.0091 -0.1211
  774MOL0     H 4452  -0.735   5.954   2.183 -0.2918  0.0023  2.6933
  774MOL0     H 4453  -0.656   6.080   2.288 -2.1264 -0.9443  2.1059
  774MOL0     H 4454  -1.160   6.175   2.105 -0.4813  0.4886 -0.2510
  774MOL0     H 4455  -1.400   6.138   2.071 -1.1011 -3.8403 -0.4987
  774MOL0     H 4456  -1.580   6.278   1.999 -2.2262 -0.2753  1.3226
  774MOL0     H 4457  -1.549   6.353   1.849  0.1186  1.2973  2.7471
  774MOL0     H 4458  -1.782   6.174   1.952 -1.2702  2.6298  1.7920
  774MOL0     H 4459  -1.796   6.331   1.892 -0.9794 -1.4248  0.9615
  774MOL0     H 4460  -1.758   6.078   1.730  1.4432 -0.1726  2.3429
  774MOL0     H 4461  -1.726   6.246   1.663 -0.3712 -2.0612 -2.7814
  774MOL0     H 4462  -1.992   6.130   1.782 -1.8310  3.7607  3.0316
  774MOL0     H 4463  -1.972   6.294   1.740 -2.5433 -2.7882  3.9834
  774MOL0     H 4464  -1.945   6.039   1.559  3.2053  0.7485  0.4167
  774MOL0     H 4465  -1.924   6.207   1.506  0.0553  0.6040 -0.5191
  774MOL0     H 4466  -2.175   6.066   1.604 -1.9405  0.5568 -1.1211
  774MOL0     H 4467  -2.171   6.240   1.560  0.4956  0.4621  2.5398
  774MOL0     H 4468  -2.114   5.988   1.394 -0.4261 -0.4743 -2.1640
  774MOL0     H 4469  -2.071   6.154   1.339  0.6038 -1.0723 -0.0109
  774MOL0     H 4470  -2.360   6.079   1.422 -1.3277 -0.8307 -2.6468
  774MOL0     H 4471  -2.297   6.070   1.260 -0.0995 -1.2112  0.7844
  774MOL0     H 4472  -1.351   6.163   1.652 -1.0213 -0.3779  0.6364
  774MOL0     H 4473  -1.104   6.174   1.676 -0.2896 -0.3748 -0.5082
  774MOL0     H 4474  -0.754   6.244   1.771 -0.5354  1.6366  1.0000
  774MOL0     H 4475  -0.517   6.295   1.769 -0.3556  0.0884  0.6350
  774MOL0     H 4476   1.138   6.487   1.091 -0.8581  1.4449 -0.6592
  774MOL0     H 4477   1.387   6.517   1.066  1.3527  0.0186 -1.6763
  774MOL0     H 4478   1.773   6.240   0.868  2.7712 -1.8216 -0.0219
  774MOL0     H 4479   1.991   6.211   0.777  1.8642  0.2639 -1.7699
  774MOL0     H 4480   2.340   6.445   0.655 -1.3683 -1.2662 -1.9019
  774MOL0     H 4481   2.238   6.581   0.642  0.6668 -0.3284 -0.6563
  774MOL0     H 4482   2.267   6.411   0.901  1.2820 -0.8559 -0.5625
  774MOL0     H 4483   2.162   6.555   0.883  0.0463  0.3766 -0.2229
  774MOL0     H 4484   2.462   6.535   0.829  1.7537  1.5327 -0.0364
  774MOL0     H 4485   2.392   6.579   0.982 -0.0011  0.9960  0.3490
  774MOL0     H 4486   2.306   6.785   0.894 -3.0913 -0.3044 -2.3565
  774MOL0     H 4487   2.332   6.752   0.728 -2.3937 -0.4775  0.4990
  774MOL0     H 4488   2.715   6.883   0.839 -1.8213  2.2380  0.3256
  774MOL0     H 4489   2.000   6.617   0.634  2.7727 -1.3933 -0.9382
  774MOL0     H 4490   1.765   6.638   0.737 -1.1882 -0.7992  0.6000
  775MOL0     O 4491   9.922   5.692   8.116 -0.0558  0.2483  0.0592
  775MOL0     C 4492   9.999   5.786   8.102  0.2360  0.1327 -0.0024
  775MOL0     O 4493   9.974   5.917   8.079  0.3874 -0.4909 -0.1382
  775MOL0     C 4494   9.845   5.950   8.027 -0.3135 -0.6545  0.1691
  775MOL0     C 4495   9.730   5.892   8.072  0.1648  0.0670 -0.1260
  775MOL0     C 4496   9.609   5.941   8.016 -0.4945  0.0226  0.6297
  775MOL0     C 4497   9.596   6.035   7.916 -0.6394 -0.0086 -0.4519
  775MOL0     O 4498   9.474   6.061   7.860  0.1711  1.1270  0.2395
  775MOL0     C 4499   9.352   6.040   7.939 -0.4382 -0.1447  0.7103
  775MOL0     C 4500   9.230   6.117   7.883 -0.0009  0.2957 -0.8119
  775MOL0     C 4501   9.101   6.042   7.914 -0.4235 -0.1356  0.0473
  775MOL0     C 4502   8.980   6.138   7.886  1.1856 -0.3699  0.3438
  775MOL0     C 4503   8.854   6.064   7.947 -0.6063  0.2760  0.5999
  775MOL0     C 4504   8.730   6.123   7.880  0.1971  0.1598  0.9123
  775MOL0     C 4505   8.601   6.072   7.924  1.3794  0.5564 -0.0206
  775MOL0     C 4506   8.509   6.060   7.808  0.2656  0.5004 -0.4548
  775MOL0     N 4507   8.368   6.020   7.839  0.5028 -0.2521 -0.0374
  775MOL0     C 4508   8.299   5.906   7.786 -0.1173  1.2792 -0.4745
  775MOL0     C 4509   8.193   5.900   7.870  1.2043 -0.2807 -0.4764
  775MOL0     C 4510   8.078   5.795   7.868 -0.2605 -0.6108 -0.4500
  775MOL0     C 4511   7.985   5.827   7.752 -0.7792 -0.6730 -0.0792
  775MOL0     C 4512   7.852   5.753   7.770 -0.3610 -0.6844 -0.0650
  775MOL0     C 4513   7.853   5.612   7.724 -0.3393  0.9803  1.0652
  775MOL0     O 4514   7.860   5.593   7.573 -0.1005 -0.2462  0.4614
  775MOL0     C 4515   7.737   5.586   7.505 -1.2620 -0.6272  0.2502
  775MOL0     C 4516   7.632   5.516   7.551 -0.3761 -0.3682  1.0429
  775MOL0     C 4517   7.516   5.495   7.470 -0.8875  0.5219 -0.6002
  775MOL0     C 4518   7.419   5.401   7.525 -0.3969  0.1981  0.6171
  775MOL0     C 4519   7.503   5.563   7.347 -1.7478  0.0605 -0.4101
  775MOL0     C 4520   7.377   5.566   7.264  0.1427  0.6154  0.4643
  775MOL0     O 4521   7.393   5.611   7.133 -0.2825 -0.2096 -0.5522
  775MOL0     C 4522   7.301   5.566   7.034  0.4735 -0.3474 -0.5874
  775MOL0     C 4523   7.176   5.639   7.028 -0.3703  0.6148 -1.0953
  775MOL0     C 4524   7.077   5.602   6.941  0.3889  0.6859  0.0232
  775MOL0     C 4525   7.097   5.506   6.841  0.3328 -0.6080 -0.2757
  775MOL0     O 4526   6.981   5.473   6.770  0.1017  0.3450  0.4776
  775MOL0     C 4527   6.959   5.345   6.718  0.0154 -0.3215  0.0529
  775MOL0     C 4528   6.816   5.307   6.751 -0.5300 -0.4641  0.2127
  775MOL0     C 4529   6.767   5.175   6.686  0.1500  0.1880  0.2428
  775MOL0     C 4530   6.619   5.147   6.722 -0.2508 -0.1634 -0.3183
  775MOL0     C 4531   6.574   5.023   6.657  0.3607  0.0266  0.4893
  775MOL0     C 4532   6.431   4.978   6.709  0.5404 -0.7138  0.5272
  775MOL0     C 4533   6.386   4.837   6.665  0.4348 -0.3282 -0.5578
  775MOL0     C 4534   6.265   4.772   6.729 -0.0167 -0.2307  0.4516
  775MOL0    Cl 4535   6.108   4.844   6.678  0.2760 -0.4358 -0.3355
  775MOL0     C 4536   7.220   5.442   6.831 -0.0914 -0.1113  1.0341
  775MOL0     C 4537   7.321   5.474   6.930 -0.3178  0.2988  1.1535
  775MOL0     O 4538   7.274   5.513   7.311 -0.5415  0.7512 -0.2670
  775MOL0     C 4539   7.625   5.618   7.297  0.3288 -0.3380  0.0417
  775MOL0     C 4540   7.739   5.638   7.376 -0.4142  0.2276 -0.6468
  775MOL0     N 4541   8.192   5.996   7.966  0.0074 -0.0998 -0.1724
  775MOL0     N 4542   8.299   6.073   7.941  0.2933 -0.5095 -1.0416
  775MOL0     C 4543   9.723   6.092   7.867  0.3243  0.0562  0.3487
  775MOL0     C 4544   9.842   6.050   7.926  0.9944 -0.3459 -0.2213
  775MOL0     C 4545  10.135   5.759   8.148 -0.0616 -0.1085  0.5563
  775MOL0     C 4546  10.186   5.623   8.149  0.3235 -0.1627 -0.3462
  775MOL0     C 4547  10.312   5.585   8.204 -1.0393  0.0039  0.0417
  775MOL0     C 4548  10.397   5.686   8.239 -0.5099  0.0156  0.4212
  775MOL0     O 4549  10.533   5.671   8.263  0.1972  0.3463  0.4528
  775MOL0     C 4550  10.615   5.660   8.142  1.0367 -0.2140 -0.3574
  775MOL0     C 4551  10.753   5.595   8.157  1.2285 -0.6107  0.1544
  775MOL0     C 4552  10.829   5.668   8.267  1.2178  0.5482  0.5294
  775MOL0     C 4553  10.973   5.611   8.287  0.5048  0.3533 -0.6239
  775MOL0     C 4554  10.976   5.464   8.298 -0.0851  0.6317  0.4125
  775MOL0     C 4555  10.981   5.345   8.300 -0.1267 -0.4721  0.1322
  775MOL0     C 4556  10.355   5.819   8.230  0.7714  0.5513 -0.0316
  775MOL0     C 4557  10.224   5.856   8.185 -0.5817 -0.8930 -0.4586
  775MOL0     H 4558   9.726   5.817   8.150  1.7093 -1.9709 -1.8811
  775MOL0     H 4559   9.524   5.883   8.050 -0.0647 -0.2166  1.3242
  775MOL0     H 4560   9.326   5.934   7.948  1.5677 -0.7569 -0.2571
  775MOL0     H 4561   9.371   6.070   8.043 -3.2110  0.2325  1.2051
  775MOL0     H 4562   9.220   6.220   7.921 -3.6594  0.6180 -2.2104
  775MOL0     H 4563   9.231   6.136   7.776 -0.8190  2.1040 -0.5503
  775MOL0     H 4564   9.097   5.954   7.849  3.1010  0.7993 -1.6270
  775MOL0     H 4565   9.115   6.016   8.020  1.4041 -0.1862 -0.1817
  775MOL0     H 4566   8.995   6.228   7.947 -1.7112  0.9899 -0.7820
  775MOL0     H 4567   8.979   6.155   7.778  2.3906  2.0876  0.6484
  775MOL0     H 4568   8.863   5.955   7.938  0.8682  0.1915  2.4164
  775MOL0     H 4569   8.863   6.080   8.055  1.4994 -2.2810  0.9121
  775MOL0     H 4570   8.727   6.229   7.907 -0.2219  1.0768 -2.3728
  775MOL0     H 4571   8.732   6.118   7.771 -2.0733  2.9934  0.6222
  775MOL0     H 4572   8.618   5.971   7.961 -1.3281  0.2454  0.6231
  775MOL0     H 4573   8.559   6.135   8.003 -1.0093 -1.6948  0.6481
  775MOL0     H 4574   8.557   5.982   7.748 -0.0051  0.4930 -0.6647
  775MOL0     H 4575   8.502   6.151   7.748 -1.1450  0.8029  0.1124
  775MOL0     H 4576   8.334   5.844   7.704 -0.8546 -3.5642  2.4936
  775MOL0     H 4577   8.119   5.694   7.857 -0.6664 -1.3830  3.6692
  775MOL0     H 4578   8.023   5.799   7.962 -1.0273  2.8416 -0.8873
  775MOL0     H 4579   8.045   5.807   7.663  0.5965  0.8411  0.4626
  775MOL0     H 4580   7.964   5.934   7.749 -3.0107 -0.9272  2.5652
  775MOL0     H 4581   7.766   5.797   7.719  2.2364  0.5048 -3.8778
  775MOL0     H 4582   7.817   5.760   7.873  1.6984 -1.9580  0.7907
  775MOL0     H 4583   7.760   5.566   7.757  0.6642 -1.0584  1.2352
  775MOL0     H 4584   7.939   5.558   7.765  0.1480  0.4857 -0.5092
  775MOL0     H 4585   7.650   5.465   7.645  2.7558 -1.4928 -0.0196
  775MOL0     H 4586   7.484   5.338   7.587 -1.2651  0.1407  1.4867
  775MOL0     H 4587   7.344   5.454   7.584 -0.0034  0.0563  1.2643
  775MOL0     H 4588   7.381   5.337   7.445  2.4793 -0.8215 -0.0812
  775MOL0     H 4589   7.166   5.705   7.113  1.9310  3.0322 -2.5543
  775MOL0     H 4590   6.975   5.639   6.947 -0.4759 -1.0537 -2.2638
  775MOL0     H 4591   6.976   5.341   6.611 -0.7142 -1.2607 -0.0459
  775MOL0     H 4592   7.027   5.269   6.759  2.0930  1.6565  0.4294
  775MOL0     H 4593   6.805   5.294   6.859 -1.8469  0.9986  0.2791
  775MOL0     H 4594   6.750   5.390   6.725 -1.0197 -0.6269  0.9213
  775MOL0     H 4595   6.826   5.095   6.732  0.4065  0.1915 -0.0776
  775MOL0     H 4596   6.786   5.172   6.578 -1.0874 -0.9301  0.0182
  775MOL0     H 4597   6.608   5.149   6.831  3.9447  2.9617  0.2985
  775MOL0     H 4598   6.564   5.235   6.688 -0.2116 -0.7003 -1.8499
  775MOL0     H 4599   6.642   4.942   6.682 -0.6807 -0.9761  0.1662
  775MOL0     H 4600   6.569   5.037   6.548 -1.0606  0.9576  0.6434
  775MOL0     H 4601   6.420   4.982   6.818  1.7724  0.8766  0.6308
  775MOL0     H 4602   6.364   5.052   6.665  1.2920  0.9860  2.0938
  775MOL0     H 4603   6.472   4.770   6.673  0.2501 -0.9360 -2.8491
  775MOL0     H 4604   6.357   4.851   6.560 -1.0105  0.8828 -0.0345
  775MOL0     H 4605   6.273   4.774   6.838 -0.2499  0.8499  0.4554
  775MOL0     H 4606   6.257   4.671   6.689 -2.4736  0.2237 -0.3821
  775MOL0     H 4607   7.248   5.366   6.759  0.7529 -0.4164  1.6595
  775MOL0     H 4608   7.414   5.418   6.928 -0.6424 -0.2698  1.7239
  775MOL0     H 4609   7.618   5.666   7.201 -1.4605  0.6058  0.5970
  775MOL0     H 4610   7.829   5.689   7.341 -0.6463 -0.0072 -1.6006
  775MOL0     H 4611   9.707   6.168   7.792  1.6439 -1.8357 -1.9981
  775MOL0     H 4612   9.920   6.122   7.903 -0.4261  1.1842 -0.4781
  775MOL0     H 4613  10.125   5.538   8.117 -2.5576  2.4393 -2.4503
  775MOL0     H 4614  10.351   5.484   8.206 -1.2797 -0.0923 -0.0681
  775MOL0     H 4615  10.563   5.609   8.060  1.4550  0.4330 -1.0405
  775MOL0     H 4616  10.612   5.763   8.107 -0.4086 -0.2148 -0.2737
  775MOL0     H 4617  10.804   5.609   8.061 -2.4830  0.8979 -1.8240
  775MOL0     H 4618  10.739   5.488   8.170 -1.5408 -0.5547 -1.5159
  775MOL0     H 4619  10.780   5.670   8.364  2.4630 -0.3782  1.2038
  775MOL0     H 4620  10.835   5.774   8.241  2.7847  1.3174  3.6247
  775MOL0     H 4621  11.012   5.655   8.379 -0.4532  1.8091 -0.8859
  775MOL0     H 4622  11.026   5.648   8.199 -1.0752  1.8178 -1.0207
  775MOL0     H 4623  10.965   5.239   8.306  1.4051 -0.7257 -0.0676
  775MOL0     H 4624  10.434   5.889   8.253 -1.8867  2.9907  2.6575
  775MOL0     H 4625  10.199   5.961   8.174  1.9150  0.1007  2.0155
  776MOL0     O 4626   6.982   4.434   4.837 -0.4941  0.4926  0.5836
  776MOL0     C 4627   6.917   4.434   4.942 -0.6482 -0.3562 -0.2131
  776MOL0     O 4628   6.803   4.370   4.969  0.3727 -0.4288 -0.3123
  776MOL0     C 4629   6.773   4.272   4.875  1.0544  1.0140 -0.1301
  776MOL0     C 4630   6.840   4.153   4.889 -0.2487 -0.1246  0.4697
  776MOL0     C 4631   6.814   4.044   4.799  0.0215 -0.1156  1.3258
  776MOL0     C 4632   6.713   4.057   4.705  0.2687 -1.0658 -0.1489
  776MOL0     O 4633   6.673   3.957   4.623 -0.6120 -0.3032 -0.6180
  776MOL0     C 4634   6.573   3.876   4.672 -0.4126  0.3715 -0.7875
  776MOL0     C 4635   6.531   3.791   4.558  0.0834  0.0411  0.4046
  776MOL0     C 4636   6.432   3.680   4.589 -0.1506 -0.6159 -0.2702
  776MOL0     C 4637   6.316   3.698   4.480 -0.2400 -0.6270  0.5195
  776MOL0     C 4638   6.203   3.594   4.486  0.0121  0.6596 -0.2982
  776MOL0     C 4639   6.098   3.640   4.377 -0.2651 -0.0529 -0.1821
  776MOL0     C 4640   5.973   3.548   4.377  1.0052 -0.1970  0.2736
  776MOL0     C 4641   5.854   3.592   4.284 -0.8476 -0.1812 -0.1192
  776MOL0     N 4642   5.717   3.559   4.333 -0.9051  1.0398  0.5176
  776MOL0     C 4643   5.600   3.586   4.270  0.7098  0.1799 -0.5580
  776MOL0     C 4644   5.505   3.563   4.364 -0.3033 -0.4407 -0.1597
  776MOL0     C 4645   5.363   3.610   4.350 -0.4063 -0.4138 -0.9970
  776MOL0     C 4646   5.338   3.764   4.342 -0.2524 -0.3237  0.7380
  776MOL0     C 4647   5.308   3.815   4.488  0.4742 -1.5048  0.0582
  776MOL0     C 4648   5.437   3.854   4.559  0.4787 -0.3592 -1.0228
  776MOL0     O 4649   5.492   3.969   4.498  0.6599  0.0293  0.0590
  776MOL0     C 4650   5.631   3.982   4.481  0.3120 -0.1772 -0.3279
  776MOL0     C 4651   5.666   4.068   4.379 -0.5359  0.2881 -0.2054
  776MOL0     C 4652   5.804   4.096   4.362 -0.0379 -0.2696  1.1438
  776MOL0     C 4653   5.844   4.166   4.230 -0.1519 -0.4749  0.5435
  776MOL0     C 4654   5.908   4.039   4.444  0.6188 -0.9765 -0.5466
  776MOL0     C 4655   6.053   4.082   4.439  0.2089 -0.1718 -0.1569
  776MOL0     O 4656   6.099   4.175   4.345 -0.1023  0.1352  0.0715
  776MOL0     C 4657   6.225   4.232   4.369 -0.1262 -0.3465  0.2041
  776MOL0     C 4658   6.264   4.289   4.493 -0.6267  0.4617 -0.1281
  776MOL0     C 4659   6.381   4.363   4.508  0.2875 -0.0422 -0.2871
  776MOL0     C 4660   6.464   4.381   4.403 -0.0319  0.8400 -0.2302
  776MOL0     O 4661   6.581   4.451   4.396 -0.0362 -0.5184 -0.5253
  776MOL0     C 4662   6.612   4.546   4.495  0.5221  0.0625 -0.3319
  776MOL0     C 4663   6.729   4.631   4.446  0.0257  0.1564  0.7643
  776MOL0     C 4664   6.799   4.710   4.558 -0.2381 -0.5413 -0.4407
  776MOL0     C 4665   6.900   4.806   4.492 -0.6077 -0.7381  0.8468
  776MOL0     C 4666   6.963   4.902   4.599  0.4250  0.1532  0.5534
  776MOL0     C 4667   7.062   5.007   4.536 -0.7165 -0.6411  0.4205
  776MOL0     C 4668   7.152   5.064   4.642  0.3366  0.2578 -0.2238
  776MOL0     C 4669   7.238   5.168   4.577 -0.4586  0.4522  0.3547
  776MOL0    Cl 4670   7.348   5.248   4.690  0.0177  0.2576  0.8239
  776MOL0     C 4671   6.428   4.329   4.278 -0.1547  0.0207  0.1449
  776MOL0     C 4672   6.305   4.260   4.257  0.8228 -0.5925  0.2973
  776MOL0     O 4673   6.130   4.015   4.506  0.5284 -0.8648 -0.8657
  776MOL0     C 4674   5.863   3.946   4.540 -0.0474  0.1315 -0.3423
  776MOL0     C 4675   5.723   3.923   4.558 -0.7730 -0.2824 -0.3189
  776MOL0     N 4676   5.564   3.511   4.479 -0.6393  0.0680 -0.1059
  776MOL0     N 4677   5.690   3.514   4.453 -0.0405 -0.1808  0.2390
  776MOL0     C 4678   6.644   4.178   4.687  1.0119 -0.2818 -0.0241
  776MOL0     C 4679   6.676   4.283   4.775  0.6323 -0.1271 -0.0917
  776MOL0     C 4680   6.984   4.512   5.047  0.1755  0.1545  1.0270
  776MOL0     C 4681   6.915   4.582   5.146  0.0481 -0.7745  0.8571
  776MOL0     C 4682   6.993   4.671   5.229 -0.2563  0.1191 -0.1303
  776MOL0     C 4683   7.130   4.678   5.224 -0.2237 -1.0036 -0.1059
  776MOL0     O 4684   7.187   4.786   5.298 -0.2183 -0.6201  0.5134
  776MOL0     C 4685   7.330   4.790   5.317  0.7631  0.6325 -0.0686
  776MOL0     C 4686   7.377   4.917   5.383  0.4584  0.0676  0.6566
  776MOL0     C 4687   7.533   4.903   5.409  0.2511  0.7289 -0.3789
  776MOL0     C 4688   7.557   4.827   5.543  0.1649  0.0548  0.2537
  776MOL0     C 4689   7.700   4.840   5.584  0.3644 -0.2983 -1.1960
  776MOL0     C 4690   7.820   4.847   5.611 -0.0864  0.0939  0.1983
  776MOL0     C 4691   7.194   4.587   5.141  1.2741  0.2445  0.5549
  776MOL0     C 4692   7.123   4.508   5.048 -1.1692  0.4852 -0.5249
  776MOL0     H 4693   6.906   4.136   4.974  0.8259 -0.4324 -0.3979
  776MOL0     H 4694   6.872   3.955   4.823  1.3228  0.3292 -0.0635
  776MOL0     H 4695   6.625   3.815   4.747  1.3208  1.6554 -0.8826
  776MOL0     H 4696   6.496   3.941   4.714  0.5388  1.4584 -0.6568
  776MOL0     H 4697   6.490   3.859   4.483 -0.7341  1.0590  1.7385
  776MOL0     H 4698   6.621   3.744   4.517  0.2755  1.0001 -0.3123
  776MOL0     H 4699   6.486   3.585   4.585 -0.2165 -0.6134 -2.6184
  776MOL0     H 4700   6.386   3.701   4.686 -1.3291  1.9920 -1.2904
  776MOL0     H 4701   6.287   3.803   4.490  4.5578  0.8063  2.3318
  776MOL0     H 4702   6.354   3.681   4.378 -1.7102 -1.3128  0.0584
  776MOL0     H 4703   6.242   3.495   4.464  3.7840  1.5392  1.5663
  776MOL0     H 4704   6.149   3.598   4.581 -1.5250  2.3132 -1.1624
  776MOL0     H 4705   6.070   3.744   4.393  1.3760  0.8014 -2.3397
  776MOL0     H 4706   6.154   3.628   4.283  0.5052 -3.7683  0.5882
  776MOL0     H 4707   6.001   3.447   4.346  0.4558  0.1307 -1.3806
  776MOL0     H 4708   5.949   3.538   4.483  0.1577  0.8097  0.1967
  776MOL0     H 4709   5.872   3.551   4.185  0.1278 -0.1742  0.0512
  776MOL0     H 4710   5.864   3.701   4.277  0.7935 -0.2960  0.1388
  776MOL0     H 4711   5.588   3.636   4.175  0.5645 -0.2411 -0.7662
  776MOL0     H 4712   5.327   3.585   4.250 -1.1677 -3.3189 -0.0983
  776MOL0     H 4713   5.303   3.552   4.421  2.7429 -0.3198  2.0105
  776MOL0     H 4714   5.250   3.782   4.280  0.9916 -2.0074 -1.6751
  776MOL0     H 4715   5.426   3.815   4.301 -0.9096 -1.1324 -1.8022
  776MOL0     H 4716   5.244   3.746   4.542 -1.6182  0.1200 -0.2230
  776MOL0     H 4717   5.247   3.905   4.472 -0.1739 -1.7948  0.8616
  776MOL0     H 4718   5.507   3.770   4.567  2.0566  1.0410  0.9589
  776MOL0     H 4719   5.413   3.880   4.662 -1.6502 -0.5712 -1.4358
  776MOL0     H 4720   5.590   4.110   4.314 -1.3381  0.0732  0.5575
  776MOL0     H 4721   5.936   4.124   4.190  0.8985  2.1398  0.0251
  776MOL0     H 4722   5.770   4.150   4.151  1.0686 -0.4664 -0.6356
  776MOL0     H 4723   5.859   4.272   4.252  1.1609 -0.8124  1.3584
  776MOL0     H 4724   6.198   4.283   4.579 -0.0644  0.2869  0.3017
  776MOL0     H 4725   6.409   4.406   4.604 -0.2708  0.0856 -0.1768
  776MOL0     H 4726   6.527   4.613   4.507 -0.3139 -1.2709  1.8956
  776MOL0     H 4727   6.649   4.490   4.581  3.5627 -0.2006 -1.6830
  776MOL0     H 4728   6.809   4.577   4.394  1.1597  2.2088  0.2215
  776MOL0     H 4729   6.686   4.699   4.371  2.4710 -0.0165 -0.9217
  776MOL0     H 4730   6.858   4.638   4.615  1.1864 -0.4479 -1.6945
  776MOL0     H 4731   6.730   4.762   4.624  0.9536  0.0344  0.4009
  776MOL0     H 4732   6.985   4.756   4.443  1.0386  3.1282 -0.6460
  776MOL0     H 4733   6.850   4.857   4.409  1.2441 -1.4776 -0.8216
  776MOL0     H 4734   7.010   4.840   4.676 -1.5272 -0.1104  1.6047
  776MOL0     H 4735   6.883   4.961   4.646 -0.7342  0.6244 -1.8407
  776MOL0     H 4736   7.119   4.961   4.455 -1.5188 -1.1287  0.1159
  776MOL0     H 4737   7.000   5.088   4.497 -0.3166 -0.3081  0.4599
  776MOL0     H 4738   7.209   4.976   4.670 -0.9497 -0.5635 -0.1044
  776MOL0     H 4739   7.089   5.106   4.720  1.1148  3.2276 -1.0658
  776MOL0     H 4740   7.185   5.248   4.524 -0.0404 -0.6758 -1.9009
  776MOL0     H 4741   7.300   5.108   4.509 -1.6435 -0.0662 -0.2940
  776MOL0     H 4742   6.488   4.361   4.193 -1.2354 -1.4663 -1.2599
  776MOL0     H 4743   6.272   4.217   4.163  1.4821 -2.6603  0.9679
  776MOL0     H 4744   5.937   3.899   4.604 -0.8352  0.3691  0.7707
  776MOL0     H 4745   5.701   3.857   4.642  2.5876 -2.0255 -0.6490
  776MOL0     H 4746   6.558   4.183   4.621 -1.0445 -2.5759  2.1993
  776MOL0     H 4747   6.633   4.382   4.763  0.3872  0.1696  2.7007
  776MOL0     H 4748   6.806   4.580   5.148 -0.0398  0.4363 -0.6153
  776MOL0     H 4749   6.937   4.750   5.278 -0.0881  1.3442 -1.7977
  776MOL0     H 4750   7.356   4.705   5.381 -1.5324 -0.0001  0.1185
  776MOL0     H 4751   7.393   4.780   5.228 -0.5226  1.1230 -1.0634
  776MOL0     H 4752   7.329   4.925   5.481  1.9025 -2.1240  1.6517
  776MOL0     H 4753   7.355   4.996   5.312  1.3096  0.5747  0.9396
  776MOL0     H 4754   7.576   5.003   5.414  2.7969 -0.2800 -0.8379
  776MOL0     H 4755   7.584   4.858   5.323  1.0404  0.1520  0.3725
  776MOL0     H 4756   7.545   4.718   5.537  0.5957  0.0507 -0.7848
  776MOL0     H 4757   7.490   4.869   5.618  0.9075 -1.4085  1.7927
  776MOL0     H 4758   7.924   4.828   5.632 -0.5309 -0.4253  2.1107
  776MOL0     H 4759   7.303   4.585   5.146  1.2965  2.1397  4.0058
  776MOL0     H 4760   7.186   4.456   4.976 -0.1868 -0.8731  1.2372
  777MOL0     O 4761   9.267   8.283   0.889  0.0469 -0.0525  0.3085
  777MOL0     C 4762   9.313   8.166   0.899  0.0738  0.2846  0.6956
  777MOL0     O 4763   9.238   8.055   0.891 -0.4992  0.2562 -0.7351
  777MOL0     C 4764   9.121   8.033   0.833  0.1134 -0.2962 -0.3884
  777MOL0     C 4765   9.044   8.126   0.758 -0.9428  0.4787 -0.1704
  777MOL0     C 4766   8.918   8.081   0.705  0.1449 -0.1343 -0.2136
  777MOL0     C 4767   8.874   7.951   0.714 -0.3962 -0.5830 -0.5332
  777MOL0     O 4768   8.750   7.896   0.675 -0.0615 -0.5736 -0.5644
  777MOL0     C 4769   8.654   7.995   0.626 -0.5315 -0.7522 -0.3825
  777MOL0     C 4770   8.519   7.932   0.616 -0.4057 -0.2620 -0.2686
  777MOL0     C 4771   8.440   8.008   0.514 -0.5742  0.4319 -0.1948
  777MOL0     C 4772   8.292   7.965   0.535 -0.1608 -0.3637 -0.2191
  777MOL0     C 4773   8.246   7.834   0.480  0.3981  0.7546  0.4985
  777MOL0     C 4774   8.091   7.823   0.495  0.2523  0.8047  0.0194
  777MOL0     C 4775   8.044   7.687   0.451  0.6559  0.9076 -0.4377
  777MOL0     C 4776   7.900   7.658   0.494  0.1592 -0.0725  0.4489
  777MOL0     N 4777   7.865   7.519   0.510 -0.0787  0.2257 -0.0381
  777MOL0     C 4778   7.808   7.429   0.428  0.4364 -0.0420  0.7749
  777MOL0     C 4779   7.798   7.317   0.500  0.3420  0.8264 -0.1756
  777MOL0     C 4780   7.729   7.181   0.461 -0.1491 -0.0493  0.3200
  777MOL0     C 4781   7.580   7.163   0.476  0.2076 -0.5441  0.5989
  777MOL0     C 4782   7.527   7.151   0.619 -0.2882 -0.4942  0.2037
  777MOL0     C 4783   7.373   7.161   0.622  0.2017 -0.0266  0.1201
  777MOL0     O 4784   7.302   7.068   0.546  0.2674  0.0701  0.4588
  777MOL0     C 4785   7.165   7.058   0.564 -0.8731  0.7595 -0.8789
  777MOL0     C 4786   7.085   7.148   0.639 -1.0210  0.3129  0.5415
  777MOL0     C 4787   6.953   7.137   0.644  0.0359  0.1468  0.1218
  777MOL0     C 4788   6.884   7.249   0.719  0.1784 -0.1589 -0.3820
  777MOL0     C 4789   6.889   7.022   0.595  0.0795  1.0047 -0.5900
  777MOL0     C 4790   6.743   6.987   0.623 -0.9237 -1.1067  0.6079
  777MOL0     O 4791   6.691   6.883   0.558 -0.7339 -0.4249  0.8795
  777MOL0     C 4792   6.561   6.846   0.565  0.2661  0.9953 -0.2253
  777MOL0     C 4793   6.452   6.925   0.614  0.0878 -0.1721 -0.5812
  777MOL0     C 4794   6.323   6.867   0.629 -0.5574 -0.4473  0.0585
  777MOL0     C 4795   6.303   6.733   0.579 -0.1105 -0.3485 -0.1233
  777MOL0     O 4796   6.191   6.660   0.601 -0.1342  0.2013  0.4539
  777MOL0     C 4797   6.067   6.725   0.636 -0.0306  0.0410 -0.2769
  777MOL0     C 4798   5.955   6.621   0.604 -0.4600 -0.2086 -0.3166
  777MOL0     C 4799   5.813   6.664   0.641 -0.0473  0.0567  0.4422
  777MOL0     C 4800   5.720   6.538   0.619 -0.8569 -0.7390 -0.5250
  777MOL0     C 4801   5.578   6.584   0.654  1.6888  0.4477 -0.0329
  777MOL0     C 4802   5.492   6.464   0.605  0.1904  0.5356 -0.2042
  777MOL0     C 4803   5.341   6.484   0.615  0.0013 -0.1552  0.8839
  777MOL0     C 4804   5.308   6.499   0.760 -0.1729  0.1750 -0.0916
  777MOL0    Cl 4805   5.125   6.503   0.778  0.2247 -0.3003  0.1734
  777MOL0     C 4806   6.409   6.659   0.533  0.5687 -0.1944 -0.0531
  777MOL0     C 4807   6.533   6.712   0.532 -0.9915 -0.8426  0.6972
  777MOL0     O 4808   6.690   7.052   0.713  0.3861  0.5637  0.2808
  777MOL0     C 4809   6.961   6.922   0.524  0.7232  0.1497 -0.1356
  777MOL0     C 4810   7.100   6.949   0.512 -0.3031  0.0153  0.2985
  777MOL0     N 4811   7.841   7.337   0.622 -0.6486  0.0086  0.0406
  777MOL0     N 4812   7.885   7.460   0.630  0.9548 -0.0684 -0.6466
  777MOL0     C 4813   8.953   7.871   0.797 -0.3138 -0.6698  0.8566
  777MOL0     C 4814   9.076   7.905   0.853  0.0663  0.5399  0.0025
  777MOL0     C 4815   9.449   8.155   0.944 -0.4524  0.2990  0.2036
  777MOL0     C 4816   9.505   8.052   1.021  0.5106  0.6692  0.8400
  777MOL0     C 4817   9.631   8.049   1.073 -0.2403 -0.6341  0.0826
  777MOL0     C 4818   9.717   8.151   1.050 -0.3069 -0.0624 -0.0749
  777MOL0     O 4819   9.850   8.162   1.092 -0.4800 -0.4659 -0.1726
  777MOL0     C 4820   9.930   8.051   1.107 -0.8834  0.4792 -0.0494
  777MOL0     C 4821   9.991   8.013   0.972 -0.6883  0.1223 -0.9403
  777MOL0     C 4822  10.109   7.911   0.993  0.4938 -0.0873 -0.1700
  777MOL0     C 4823  10.210   7.929   0.872  0.4008 -0.5020  0.2428
  777MOL0     C 4824  10.306   7.824   0.861  0.1269  0.4890 -0.6133
  777MOL0     C 4825  10.379   7.727   0.842 -0.1677 -0.1990  0.0464
  777MOL0     C 4826   9.669   8.262   0.988  0.1819 -0.9420 -0.6109
  777MOL0     C 4827   9.535   8.267   0.927 -0.4840  0.1741 -0.4625
  777MOL0     H 4828   9.071   8.226   0.724 -1.0361  0.0396 -1.5952
  777MOL0     H 4829   8.866   8.157   0.648  2.5934  0.6393 -1.5677
  777MOL0     H 4830   8.656   8.077   0.699 -0.5070  1.3648 -2.6505
  777MOL0     H 4831   8.689   8.043   0.534 -1.6512  1.0504  0.0714
  777MOL0     H 4832   8.518   7.827   0.583  0.6407  0.5253 -3.0802
  777MOL0     H 4833   8.475   7.930   0.716  0.0473 -4.1608  0.0393
  777MOL0     H 4834   8.456   8.117   0.514 -0.6263  0.4428  0.9259
  777MOL0     H 4835   8.465   7.971   0.414 -0.0640  2.5067 -0.9031
  777MOL0     H 4836   8.267   7.980   0.641  0.7513  0.9568 -0.1706
  777MOL0     H 4837   8.232   8.031   0.471  0.6266  0.4873 -0.0970
  777MOL0     H 4838   8.272   7.835   0.374 -2.7721  0.8225 -0.3770
  777MOL0     H 4839   8.292   7.747   0.529  0.6390  0.2299 -0.6258
  777MOL0     H 4840   8.066   7.845   0.599  1.3056  1.0583  0.2274
  777MOL0     H 4841   8.049   7.900   0.429  0.2924 -0.7203 -1.8728
  777MOL0     H 4842   8.055   7.677   0.342  2.0272 -0.8121 -0.1949
  777MOL0     H 4843   8.120   7.627   0.503  1.4330  1.9843 -0.3125
  777MOL0     H 4844   7.821   7.694   0.427 -0.9928 -1.7361  0.8520
  777MOL0     H 4845   7.891   7.719   0.583  5.6097  2.3114 -0.2365
  777MOL0     H 4846   7.778   7.441   0.324 -1.0122 -1.9190  0.9359
  777MOL0     H 4847   7.761   7.167   0.357 -2.0098  0.1317 -0.3006
  777MOL0     H 4848   7.781   7.102   0.517  1.0025  0.9304  0.6775
  777MOL0     H 4849   7.551   7.070   0.427 -1.5893  0.2287  0.1201
  777MOL0     H 4850   7.531   7.244   0.422 -1.3861 -1.1015  1.1581
  777MOL0     H 4851   7.560   7.226   0.691 -0.5981 -0.8545  0.7254
  777MOL0     H 4852   7.555   7.052   0.656 -1.7927 -0.6617  0.9559
  777MOL0     H 4853   7.342   7.264   0.604  0.2039  0.8412  4.1695
  777MOL0     H 4854   7.338   7.144   0.724  1.4190  3.1289  1.1581
  777MOL0     H 4855   7.130   7.244   0.661 -2.2282  1.0473 -0.1117
  777MOL0     H 4856   6.951   7.336   0.721  0.4860 -0.3648 -1.2537
  777MOL0     H 4857   6.792   7.272   0.665 -0.0183  0.7875  0.3367
  777MOL0     H 4858   6.858   7.217   0.819  0.2271  0.1562 -0.2665
  777MOL0     H 4859   6.461   7.032   0.628 -3.1483  1.3165 -6.5021
  777MOL0     H 4860   6.247   6.930   0.674 -0.7921 -0.6629 -0.0351
  777MOL0     H 4861   6.058   6.749   0.743 -1.0606 -0.6194 -0.2026
  777MOL0     H 4862   6.051   6.819   0.581  1.0338  0.3622 -0.0714
  777MOL0     H 4863   5.951   6.608   0.495  1.5999  1.0977 -0.6020
  777MOL0     H 4864   5.986   6.529   0.655 -2.6768 -1.8816 -1.8116
  777MOL0     H 4865   5.778   6.748   0.580  0.8045 -1.5683 -2.4790
  777MOL0     H 4866   5.795   6.696   0.745 -2.4731  0.6609 -0.0983
  777MOL0     H 4867   5.733   6.495   0.520  0.0365  1.1095 -1.2718
  777MOL0     H 4868   5.751   6.463   0.693  0.2244  0.2223  0.0264
  777MOL0     H 4869   5.548   6.665   0.587 -1.4071 -0.1329  0.5094
  777MOL0     H 4870   5.562   6.605   0.760  0.9250 -0.6788  0.0958
  777MOL0     H 4871   5.510   6.451   0.498  1.1150 -0.4159  0.0473
  777MOL0     H 4872   5.517   6.375   0.663  1.4189  0.2312 -1.1500
  777MOL0     H 4873   5.281   6.400   0.581 -1.6203  1.4168 -0.3672
  777MOL0     H 4874   5.312   6.571   0.554  2.0249  1.5541  2.1964
  777MOL0     H 4875   5.357   6.593   0.789 -0.9603  0.9458 -1.1756
  777MOL0     H 4876   5.347   6.422   0.828  0.0946 -0.3079 -0.7917
  777MOL0     H 4877   6.400   6.556   0.503  2.9525 -0.5530  0.3312
  777MOL0     H 4878   6.625   6.661   0.503 -1.7747 -1.1994 -1.3341
  777MOL0     H 4879   6.907   6.834   0.492 -2.1635 -0.2510  4.7939
  777MOL0     H 4880   7.166   6.880   0.461  0.9688  1.6656 -0.3751
  777MOL0     H 4881   8.911   7.772   0.811 -0.0703 -0.7914  0.7414
  777MOL0     H 4882   9.124   7.827   0.911 -1.2982  0.2457  0.7973
  777MOL0     H 4883   9.445   7.964   1.042  2.8808 -1.3748 -0.3490
  777MOL0     H 4884   9.654   7.958   1.127  0.4658 -0.7063 -0.3202
  777MOL0     H 4885  10.014   8.072   1.174  0.1014  0.6673 -1.3132
  777MOL0     H 4886   9.883   7.961   1.150  1.4717  0.0647  1.8952
  777MOL0     H 4887  10.031   8.105   0.928  1.6524 -0.7529 -0.7782
  777MOL0     H 4888   9.902   7.975   0.921 -1.5547  1.9277 -0.8902
  777MOL0     H 4889  10.060   7.813   0.990 -1.2133  0.6915  1.2631
  777MOL0     H 4890  10.167   7.925   1.085  1.1825  0.0092 -0.6112
  777MOL0     H 4891  10.259   8.027   0.875 -1.7673  0.6666 -0.2042
  777MOL0     H 4892  10.155   7.924   0.778 -1.0567  0.6334  0.9981
  777MOL0     H 4893  10.436   7.637   0.833  1.1158  0.5308  0.6531
  777MOL0     H 4894   9.743   8.341   0.976 -2.8363  2.0149 -1.2264
  777MOL0     H 4895   9.511   8.359   0.874  4.2964  1.2434 -1.1658
  778MOL0     O 4896   5.965   7.188   3.926  0.1910  0.4977  0.7648
  778MOL0     C 4897   6.003   7.073   3.918  0.6500  0.0753  0.8691
  778MOL0     O 4898   5.920   6.963   3.929 -0.9364  0.4007 -0.7038
  778MOL0     C 4899   5.790   6.966   3.971 -0.5563 -0.0636  0.6572
  778MOL0     C 4900   5.688   7.052   3.924  0.4106 -0.6499 -0.6691
  778MOL0     C 4901   5.554   7.034   3.959  0.9877  0.6501  0.8013
  778MOL0     C 4902   5.525   6.931   4.049 -0.7901 -0.2259  0.4740
  778MOL0     O 4903   5.400   6.906   4.094  0.3374  0.1823 -0.6104
  778MOL0     C 4904   5.284   6.963   4.040 -0.2802 -0.5762  0.0233
  778MOL0     C 4905   5.174   6.939   4.152  0.2885  0.4380  0.1163
  778MOL0     C 4906   5.030   6.999   4.106 -0.2788  0.2288  0.1030
  778MOL0     C 4907   4.929   6.992   4.216 -0.0274 -0.1738 -0.3389
  778MOL0     C 4908   4.790   7.049   4.195  0.4151  0.0884  1.1821
  778MOL0     C 4909   4.707   7.026   4.317 -0.5012  0.6647  1.2986
  778MOL0     C 4910   4.555   7.016   4.282 -1.0286 -0.2132 -0.1666
  778MOL0     C 4911   4.463   6.989   4.395 -0.2480  0.6557  0.8003
  778MOL0     N 4912   4.322   6.983   4.340  0.5195  0.2927 -0.5760
  778MOL0     C 4913   4.259   6.876   4.281 -0.3304 -0.2129  0.9986
  778MOL0     C 4914   4.146   6.941   4.232 -0.1458  0.6941  0.8721
  778MOL0     C 4915   4.038   6.868   4.147  0.2657  0.3952  0.2385
  778MOL0     C 4916   3.903   6.941   4.125  0.1241  0.4120 -0.0396
  778MOL0     C 4917   3.840   6.986   4.254  0.1712 -0.1082  0.2035
  778MOL0     C 4918   3.749   6.885   4.314  0.4131 -0.3410  0.2106
  778MOL0     O 4919   3.629   6.865   4.241  0.3494 -0.1657  0.4273
  778MOL0     C 4920   3.504   6.893   4.288  0.5383 -0.1780  0.0302
  778MOL0     C 4921   3.476   6.873   4.423 -0.0895  0.0328  0.0101
  778MOL0     C 4922   3.356   6.890   4.487 -0.0942  0.3194  0.1563
  778MOL0     C 4923   3.353   6.851   4.635 -0.2195  0.4843  0.0103
  778MOL0     C 4924   3.253   6.934   4.410  0.6425 -0.1857  0.4799
  778MOL0     C 4925   3.115   6.929   4.464 -0.5677  0.1280 -0.0908
  778MOL0     O 4926   3.037   7.033   4.425 -0.5866 -0.7030  0.2093
  778MOL0     C 4927   2.912   7.068   4.467  1.2196  0.1410 -0.4519
  778MOL0     C 4928   2.850   7.017   4.585 -0.0386 -0.6322 -0.6248
  778MOL0     C 4929   2.726   7.074   4.633 -1.0813 -0.2735  0.2758
  778MOL0     C 4930   2.656   7.154   4.547 -0.2355 -0.0985 -0.2799
  778MOL0     O 4931   2.529   7.213   4.568 -0.0654  0.0595  0.1505
  778MOL0     C 4932   2.474   7.192   4.695  0.5722 -0.4996  0.0560
  778MOL0     C 4933   2.351   7.284   4.719  0.1267 -0.1208  0.0248
  778MOL0     C 4934   2.244   7.275   4.598 -0.0050 -0.0829 -0.3289
  778MOL0     C 4935   2.116   7.350   4.649  0.0457  0.0527 -0.1921
  778MOL0     C 4936   2.016   7.362   4.536 -0.1626  0.1865 -0.4247
  778MOL0     C 4937   1.926   7.478   4.565 -0.2147 -0.9393  0.3752
  778MOL0     C 4938   1.985   7.611   4.513  0.1062  0.2797  0.2371
  778MOL0     C 4939   1.903   7.732   4.550 -0.2152  0.1642  0.2811
  778MOL0    Cl 4940   1.729   7.715   4.486  0.1270 -0.3128  0.4047
  778MOL0     C 4941   2.704   7.190   4.426 -0.0986 -0.2448  0.5357
  778MOL0     C 4942   2.829   7.148   4.386 -1.0299 -0.3230  0.9100
  778MOL0     O 4943   3.080   6.832   4.535 -0.4591  0.2200  0.0884
  778MOL0     C 4944   3.272   6.968   4.271 -0.1261  0.4909 -0.4251
  778MOL0     C 4945   3.399   6.946   4.207  0.1542 -0.4747  0.2418
  778MOL0     N 4946   4.138   7.069   4.274 -0.0125 -0.0913 -0.3640
  778MOL0     N 4947   4.239   7.095   4.347 -0.1416  0.5410 -0.5017
  778MOL0     C 4948   5.617   6.834   4.091 -0.2107  0.4589  0.2330
  778MOL0     C 4949   5.747   6.857   4.049  0.3772  0.2207  0.3155
  778MOL0     C 4950   6.142   7.050   3.885  0.5892  0.2561 -0.3733
  778MOL0     C 4951   6.180   6.926   3.829 -0.2926  0.4170 -0.2772
  778MOL0     C 4952   6.313   6.902   3.799 -0.7435  0.6988  0.1780
  778MOL0     C 4953   6.414   6.996   3.822 -0.4036  0.4754  1.1880
  778MOL0     O 4954   6.547   6.982   3.805 -0.3257  0.8862 -0.2888
  778MOL0     C 4955   6.587   6.859   3.743 -0.0801  0.0048  0.6516
  778MOL0     C 4956   6.721   6.872   3.692 -0.2344 -0.6085  0.0293
  778MOL0     C 4957   6.828   6.866   3.801  0.5148 -0.1977  1.3934
  778MOL0     C 4958   6.964   6.923   3.754  0.8110 -1.0915  0.0062
  778MOL0     C 4959   7.025   6.978   3.874 -0.0296 -0.0504 -0.6679
  778MOL0     C 4960   7.085   7.006   3.978  0.1866 -0.2909 -0.5814
  778MOL0     C 4961   6.376   7.114   3.878  0.2541 -0.5407  0.6572
  778MOL0     C 4962   6.240   7.146   3.910 -0.4377 -0.1296 -0.2422
  778MOL0     H 4963   5.707   7.137   3.859 -3.1943  1.4625  0.7735
  778MOL0     H 4964   5.469   7.091   3.922 -1.9435 -1.2787  4.0018
  778MOL0     H 4965   5.291   7.070   4.021 -1.5759 -0.6944 -1.2300
  778MOL0     H 4966   5.248   6.916   3.948 -0.2224 -3.4211  1.3352
  778MOL0     H 4967   5.158   6.831   4.163  1.2246  0.4664  2.3141
  778MOL0     H 4968   5.193   6.973   4.254 -2.7533 -2.4576  1.8438
  778MOL0     H 4969   5.041   7.103   4.073  0.3830 -1.0261 -4.2873
  778MOL0     H 4970   4.991   6.941   4.022  0.6730  0.6497 -0.6495
  778MOL0     H 4971   4.917   6.886   4.239  0.1132 -0.5271 -1.8132
  778MOL0     H 4972   4.970   7.033   4.309 -1.0547 -1.2690  0.6283
  778MOL0     H 4973   4.784   7.155   4.169 -1.8608 -0.5245 -1.1298
  778MOL0     H 4974   4.753   6.986   4.115  1.3167 -1.0032  1.6001
  778MOL0     H 4975   4.741   6.933   4.363  2.4026  0.2906 -1.3388
  778MOL0     H 4976   4.722   7.101   4.396  0.3450  0.1109  1.6760
  778MOL0     H 4977   4.525   7.117   4.253  0.5274  0.0222 -1.0811
  778MOL0     H 4978   4.548   6.939   4.204  2.2435 -0.5288 -0.3175
  778MOL0     H 4979   4.478   7.069   4.468 -1.9604  2.4161 -0.6807
  778MOL0     H 4980   4.499   6.892   4.432 -2.0121 -0.1086  0.5904
  778MOL0     H 4981   4.293   6.774   4.268  1.8403  0.6247 -0.4545
  778MOL0     H 4982   4.080   6.862   4.046 -2.5167  0.5762 -1.0207
  778MOL0     H 4983   4.021   6.767   4.185 -0.9217  0.9847  1.3227
  778MOL0     H 4984   3.841   6.870   4.071 -0.7335 -0.3830  1.9049
  778MOL0     H 4985   3.914   7.032   4.065  0.1412  0.4969  0.0900
  778MOL0     H 4986   3.779   7.072   4.223 -0.4582 -1.1460 -1.6215
  778MOL0     H 4987   3.913   7.011   4.331  2.2943  1.3108 -2.1143
  778MOL0     H 4988   3.723   6.931   4.410  3.6786 -1.3408  1.7342
  778MOL0     H 4989   3.799   6.789   4.331  0.4802 -0.2497  0.5340
  778MOL0     H 4990   3.544   6.820   4.489  1.8588 -0.9816 -2.6612
  778MOL0     H 4991   3.304   6.931   4.691  0.0220  0.9945 -0.4991
  778MOL0     H 4992   3.298   6.757   4.653  1.1435 -0.4462 -0.5377
  778MOL0     H 4993   3.456   6.840   4.670  0.4827  1.4879 -1.6286
  778MOL0     H 4994   2.899   6.951   4.656  1.4554  0.0445 -0.9977
  778MOL0     H 4995   2.685   7.051   4.730 -1.1849  2.1972  0.8808
  778MOL0     H 4996   2.451   7.086   4.711  0.8913 -0.2713  2.3217
  778MOL0     H 4997   2.543   7.214   4.777 -1.5462  2.2315  1.2535
  778MOL0     H 4998   2.299   7.259   4.812  1.2499 -0.4592  0.5846
  778MOL0     H 4999   2.385   7.388   4.717 -0.2746  0.0248  0.5276
  778MOL0     H 5000   2.217   7.169   4.587 -1.3242  0.4520 -3.1275
  778MOL0     H 5001   2.285   7.322   4.509 -0.1059  1.1392  0.2540
  778MOL0     H 5002   2.071   7.296   4.733 -0.2191 -0.4059 -0.6194
  778MOL0     H 5003   2.142   7.452   4.680 -1.7027  0.5686 -0.2519
  778MOL0     H 5004   1.965   7.266   4.525  0.8470 -0.3168 -0.8415
  778MOL0     H 5005   2.064   7.380   4.439 -0.7294  2.1718 -0.3804
  778MOL0     H 5006   1.827   7.459   4.525 -0.3969 -0.2106  0.4597
  778MOL0     H 5007   1.924   7.481   4.674  2.3414  0.7267  0.4857
  778MOL0     H 5008   2.001   7.597   4.406  1.8077  0.4810  0.4419
  778MOL0     H 5009   2.075   7.614   4.574  0.0886 -2.7312  0.5585
  778MOL0     H 5010   1.951   7.825   4.519 -1.7168  0.9083  0.1436
  778MOL0     H 5011   1.894   7.725   4.659  0.8621 -0.4482  0.3520
  778MOL0     H 5012   2.640   7.255   4.367 -0.0649  0.3350  1.1262
  778MOL0     H 5013   2.864   7.181   4.288  0.1339  2.5012  2.1513
  778MOL0     H 5014   3.185   6.982   4.207 -0.3695 -2.8666 -1.0267
  778MOL0     H 5015   3.414   6.974   4.103  3.5706 -0.3736  0.6341
  778MOL0     H 5016   5.578   6.746   4.142 -0.2052  1.2013  1.5490
  778MOL0     H 5017   5.824   6.790   4.087 -1.2079 -2.1240 -0.3619
  778MOL0     H 5018   6.115   6.842   3.806  2.8519 -2.5368  0.9187
  778MOL0     H 5019   6.351   6.812   3.752 -1.5226  0.8173 -0.6937
  778MOL0     H 5020   6.574   6.772   3.809 -0.0218 -0.9394 -0.5512
  778MOL0     H 5021   6.529   6.843   3.652  0.1919  1.8902  0.1119
  778MOL0     H 5022   6.734   6.972   3.649  0.6740 -0.4236  0.7163
  778MOL0     H 5023   6.735   6.791   3.619  1.2386 -0.8807  0.5848
  778MOL0     H 5024   6.832   6.761   3.831 -0.2836 -0.5641  0.2875
  778MOL0     H 5025   6.797   6.933   3.882  1.0595  0.1550  1.3085
  778MOL0     H 5026   6.944   7.000   3.679 -2.2491 -2.6322 -0.9440
  778MOL0     H 5027   7.028   6.845   3.713 -0.5328 -1.9010 -0.6306
  778MOL0     H 5028   7.140   7.020   4.068  1.7040  1.1681 -1.6879
  778MOL0     H 5029   6.448   7.194   3.893 -0.1959  0.4933 -2.1733
  778MOL0     H 5030   6.211   7.236   3.963 -1.5864 -0.6495  0.0464
  779MOL0     O 5031   9.084   7.279   8.941  0.2670 -0.1397  0.2563
  779MOL0     C 5032   9.138   7.188   8.885 -0.2761  0.8344  0.3915
  779MOL0     O 5033   9.080   7.074   8.838  0.0487  0.0779  0.1078
  779MOL0     C 5034   8.948   7.064   8.882  0.2721  0.7634  0.0910
  779MOL0     C 5035   8.926   7.007   9.011  0.1247 -0.4820 -0.3059
  779MOL0     C 5036   8.793   7.009   9.071  0.4772 -0.1136  0.9785
  779MOL0     C 5037   8.683   7.062   8.994 -0.4362 -0.1730 -0.3397
  779MOL0     O 5038   8.560   7.072   9.050  0.3670 -0.6857 -0.4117
  779MOL0     C 5039   8.446   7.018   8.983 -0.3070 -0.8803 -0.4871
  779MOL0     C 5040   8.407   6.882   9.040 -0.0123 -0.6925  0.0803
  779MOL0     C 5041   8.270   6.835   8.994 -0.6775 -0.0452  0.0758
  779MOL0     C 5042   8.226   6.715   9.072 -0.0805  0.2403  0.7948
  779MOL0     C 5043   8.142   6.614   8.992  0.0158  0.8225 -0.0616
  779MOL0     C 5044   8.009   6.668   8.952  0.4679  0.6710 -0.1614
  779MOL0     C 5045   7.947   6.584   8.840 -0.0512 -0.7172  0.7278
  779MOL0     C 5046   7.808   6.637   8.793  0.2818 -0.1090  0.1597
  779MOL0     N 5047   7.814   6.760   8.716 -0.1558 -0.2697  0.4130
  779MOL0     C 5048   7.769   6.772   8.590 -0.8776 -0.7281 -0.8976
  779MOL0     C 5049   7.780   6.902   8.548  0.6514  0.3669  0.1032
  779MOL0     C 5050   7.737   6.963   8.409  0.2041  0.4752  0.4202
  779MOL0     C 5051   7.601   6.912   8.353  0.6000 -0.3807  0.6877
  779MOL0     C 5052   7.590   6.956   8.213 -0.4651  0.4134 -0.7369
  779MOL0     C 5053   7.454   6.910   8.167 -1.5599  0.2562  0.0863
  779MOL0     O 5054   7.357   7.003   8.205  0.3095 -0.8768 -0.3812
  779MOL0     C 5055   7.246   7.022   8.127  0.5478  0.5008  0.2474
  779MOL0     C 5056   7.216   6.952   8.010  0.5901  1.3375  0.2084
  779MOL0     C 5057   7.103   6.977   7.925  0.0454  0.4669 -0.2723
  779MOL0     C 5058   7.093   6.882   7.800  0.0871  0.6902  0.3183
  779MOL0     C 5059   7.008   7.079   7.964 -0.2353 -0.3610  0.2626
  779MOL0     C 5060   6.896   7.121   7.880 -0.1258  0.1132 -0.0992
  779MOL0     O 5061   6.891   7.081   7.755 -0.0221 -0.0127  0.2106
  779MOL0     C 5062   6.771   7.100   7.694  0.1074  0.6451  0.6162
  779MOL0     C 5063   6.663   7.006   7.723 -0.1419  0.4197  0.9791
  779MOL0     C 5064   6.547   7.020   7.651 -0.0549 -0.5588  0.5624
  779MOL0     C 5065   6.533   7.105   7.542  0.5370  0.5738 -0.5180
  779MOL0     O 5066   6.415   7.110   7.473 -0.1481  0.4129 -0.2262
  779MOL0     C 5067   6.320   7.201   7.533 -0.9401 -0.4703 -0.4468
  779MOL0     C 5068   6.193   7.197   7.456 -0.4508  0.4417  0.5960
  779MOL0     C 5069   6.212   7.259   7.320  1.0807  0.0870 -0.2521
  779MOL0     C 5070   6.068   7.281   7.261 -0.1882 -0.9892 -0.2350
  779MOL0     C 5071   6.070   7.330   7.119  0.2334 -0.2119 -1.0014
  779MOL0     C 5072   5.936   7.374   7.070  0.5408  0.0696  0.0422
  779MOL0     C 5073   5.910   7.352   6.915 -0.0498  0.0930 -0.7534
  779MOL0     C 5074   5.782   7.429   6.869  0.7509 -0.4023 -0.1669
  779MOL0    Cl 5075   5.644   7.389   6.980  0.4401 -0.1005  0.0965
  779MOL0     C 5076   6.641   7.185   7.510 -0.2463 -0.4093  0.6489
  779MOL0     C 5077   6.752   7.182   7.588  0.1840 -0.0471  0.3992
  779MOL0     O 5078   6.814   7.192   7.931 -0.5060 -0.6990  1.0225
  779MOL0     C 5079   7.038   7.150   8.086  0.7139 -0.8773  0.2147
  779MOL0     C 5080   7.149   7.116   8.167 -0.4616 -0.3718  0.7527
  779MOL0     N 5081   7.830   6.972   8.654  0.9675  0.0479 -0.6290
  779MOL0     N 5082   7.851   6.887   8.761 -0.0628  0.5922 -0.0320
  779MOL0     C 5083   8.710   7.124   8.866  0.6359  0.2245 -0.0120
  779MOL0     C 5084   8.837   7.124   8.810 -0.1867  0.6820 -0.6263
  779MOL0     C 5085   9.285   7.203   8.857  0.0106 -0.0840  0.4430
  779MOL0     C 5086   9.350   7.321   8.878  0.4662 -0.9523  0.6466
  779MOL0     C 5087   9.488   7.332   8.859  1.1126  0.1484 -0.0706
  779MOL0     C 5088   9.566   7.224   8.815 -0.0532 -0.3881  0.6940
  779MOL0     O 5089   9.699   7.255   8.786  0.0224  0.0340  0.1272
  779MOL0     C 5090   9.774   7.150   8.720  0.5187 -0.2097 -0.8921
  779MOL0     C 5091   9.895   7.205   8.650 -0.4912  0.7247 -0.9402
  779MOL0     C 5092  10.002   7.098   8.623  0.8927 -0.1657 -0.2078
  779MOL0     C 5093  10.065   7.023   8.744 -0.7000  0.5033 -0.5843
  779MOL0     C 5094  10.144   7.112   8.820  0.2930 -0.2034  0.5302
  779MOL0     C 5095  10.221   7.173   8.894  0.1780  0.1260  0.3183
  779MOL0     C 5096   9.502   7.102   8.794  0.3156 -0.5064 -0.8343
  779MOL0     C 5097   9.365   7.092   8.808 -0.2207 -0.4431 -0.5406
  779MOL0     H 5098   9.016   6.960   9.049 -0.6669 -0.9560  1.0295
  779MOL0     H 5099   8.780   6.970   9.171 -2.4931 -0.3263  0.6081
  779MOL0     H 5100   8.369   7.096   8.987  1.7909  1.3307  3.5638
  779MOL0     H 5101   8.468   7.006   8.876 -0.3320 -0.1957 -0.5733
  779MOL0     H 5102   8.482   6.809   9.009  1.1980  0.4941  0.1372
  779MOL0     H 5103   8.407   6.884   9.149 -3.0359  1.6208  0.1630
  779MOL0     H 5104   8.191   6.910   9.004 -0.3315  0.1042  2.2233
  779MOL0     H 5105   8.282   6.803   8.890 -2.6390 -0.0169 -0.2011
  779MOL0     H 5106   8.310   6.658   9.113 -1.4238  0.0566  3.5535
  779MOL0     H 5107   8.164   6.751   9.155 -0.1006 -0.2301  0.9872
  779MOL0     H 5108   8.200   6.585   8.903  0.1269  3.0182 -0.7702
  779MOL0     H 5109   8.123   6.525   9.053 -0.0461  0.2821 -0.8409
  779MOL0     H 5110   7.946   6.656   9.041  3.2509  2.0541  2.1260
  779MOL0     H 5111   8.009   6.775   8.927 -3.3424  0.6909 -0.7292
  779MOL0     H 5112   7.999   6.592   8.743 -0.9383  0.5944  0.3336
  779MOL0     H 5113   7.939   6.481   8.876 -0.0009  0.3455  4.1261
  779MOL0     H 5114   7.743   6.644   8.881 -1.7032 -0.0401 -1.2536
  779MOL0     H 5115   7.766   6.563   8.724  1.1677 -0.3491 -0.1329
  779MOL0     H 5116   7.724   6.683   8.547 -2.5979 -0.1414 -0.3947
  779MOL0     H 5117   7.746   7.072   8.402  3.1459  0.1930 -2.4968
  779MOL0     H 5118   7.807   6.926   8.334 -0.3331 -0.9027  0.5628
  779MOL0     H 5119   7.532   6.943   8.432  1.1305  2.7272  0.0809
  779MOL0     H 5120   7.607   6.803   8.354 -0.9371 -0.5138  3.1075
  779MOL0     H 5121   7.654   6.899   8.145  1.1073  1.6045 -0.2916
  779MOL0     H 5122   7.612   7.059   8.186  1.1483 -0.2020 -1.9153
  779MOL0     H 5123   7.431   6.811   8.208 -0.7291 -0.0284 -0.1133
  779MOL0     H 5124   7.469   6.892   8.060  0.2781  1.7714  0.0280
  779MOL0     H 5125   7.282   6.870   7.982  0.2031  0.8357  0.7370
  779MOL0     H 5126   6.988   6.849   7.800 -0.0377  0.9301  2.5205
  779MOL0     H 5127   7.115   6.935   7.707  0.8698  0.1633  0.1990
  779MOL0     H 5128   7.154   6.791   7.807 -1.4284 -0.2521  2.2177
  779MOL0     H 5129   6.667   6.939   7.808  4.0923 -1.9778 -0.7708
  779MOL0     H 5130   6.455   6.967   7.673 -0.9661  0.8777  0.3368
  779MOL0     H 5131   6.309   7.177   7.639  0.5608 -0.8566 -0.3579
  779MOL0     H 5132   6.369   7.299   7.526 -1.3161 -0.1982  0.4949
  779MOL0     H 5133   6.169   7.090   7.447  0.9214  0.1350  0.2367
  779MOL0     H 5134   6.111   7.243   7.511 -0.8905  1.2442 -0.6821
  779MOL0     H 5135   6.266   7.187   7.258 -2.2468 -0.7589 -2.4176
  779MOL0     H 5136   6.275   7.348   7.321  0.6207  0.4147 -0.0186
  779MOL0     H 5137   6.006   7.192   7.275  0.4741 -1.7737 -1.9858
  779MOL0     H 5138   6.028   7.366   7.317  1.5309 -0.1740 -0.2106
  779MOL0     H 5139   6.093   7.241   7.060  0.4034 -0.0836 -1.1299
  779MOL0     H 5140   6.150   7.405   7.120 -1.4106  1.6688  0.9088
  779MOL0     H 5141   5.853   7.315   7.110  0.3306  0.0138 -0.4770
  779MOL0     H 5142   5.919   7.474   7.112  0.6149 -1.0659  3.0316
  779MOL0     H 5143   5.902   7.244   6.900 -0.2492 -0.5059  2.7120
  779MOL0     H 5144   5.989   7.398   6.855  0.0352  1.1912  0.1638
  779MOL0     H 5145   5.761   7.412   6.763 -2.0984 -2.2114  0.5507
  779MOL0     H 5146   5.789   7.537   6.879  0.7632 -0.5127  1.2439
  779MOL0     H 5147   6.625   7.257   7.430 -1.6333 -0.2871  1.0146
  779MOL0     H 5148   6.835   7.250   7.570 -1.5656  1.6347 -1.7151
  779MOL0     H 5149   6.980   7.237   8.116  1.2601 -0.6877  0.7625
  779MOL0     H 5150   7.161   7.158   8.267  1.4639 -0.7008  0.6903
  779MOL0     H 5151   8.625   7.172   8.819  0.5261  2.9127  2.6349
  779MOL0     H 5152   8.850   7.173   8.714 -2.4528 -1.5319 -2.1918
  779MOL0     H 5153   9.301   7.410   8.916 -0.2568 -0.5146 -1.1795
  779MOL0     H 5154   9.538   7.426   8.879  1.0539  0.7062 -2.2400
  779MOL0     H 5155   9.803   7.080   8.800  1.4138  1.2693  0.1269
  779MOL0     H 5156   9.715   7.088   8.651 -1.2280 -0.4790  0.7362
  779MOL0     H 5157   9.935   7.284   8.714 -2.2640 -0.1477  1.3871
  779MOL0     H 5158   9.856   7.258   8.562 -2.7469  0.4255 -0.1872
  779MOL0     H 5159  10.085   7.153   8.578  1.3205 -1.4245 -0.9750
  779MOL0     H 5160   9.955   7.024   8.559 -0.5066  0.4752  0.0395
  779MOL0     H 5161  10.135   6.957   8.692 -0.4657  0.4209 -0.1688
  779MOL0     H 5162   9.996   6.964   8.806 -1.1067  1.0217 -0.5321
  779MOL0     H 5163  10.278   7.234   8.961  0.4686  0.0533  0.1390
  779MOL0     H 5164   9.555   7.012   8.767 -0.0362 -1.4942  1.5553
  779MOL0     H 5165   9.314   6.996   8.801  2.3302 -2.0015  0.8024
  780MOL0     O 5166   7.173   6.361   2.346 -0.0283  0.0136 -0.0940
  780MOL0     C 5167   7.287   6.327   2.321 -0.3308  0.2452 -0.8592
  780MOL0     O 5168   7.317   6.202   2.278  0.6645  0.4160  0.1078
  780MOL0     C 5169   7.222   6.111   2.249 -0.6039  0.1279  0.2951
  780MOL0     C 5170   7.208   5.982   2.304 -0.4870  0.4442  0.1655
  780MOL0     C 5171   7.106   5.893   2.257 -0.2508 -0.2374  0.1343
  780MOL0     C 5172   7.016   5.927   2.152  0.2171  0.0215  0.1526
  780MOL0     O 5173   6.918   5.842   2.106  0.6250  0.6585  0.2444
  780MOL0     C 5174   6.899   5.715   2.174 -1.0499 -0.5363  0.2858
  780MOL0     C 5175   6.769   5.646   2.124 -0.2870  0.4746  0.2728
  780MOL0     C 5176   6.782   5.589   1.982  0.1674  0.4213 -0.2737
  780MOL0     C 5177   6.650   5.510   1.942  0.4346  0.3283 -0.8273
  780MOL0     C 5178   6.666   5.455   1.796  0.4059  0.2246 -0.9819
  780MOL0     C 5179   6.559   5.363   1.766 -0.5656 -0.2443 -0.4459
  780MOL0     C 5180   6.555   5.317   1.617  1.0888 -0.1923  0.4960
  780MOL0     C 5181   6.444   5.210   1.599 -0.2817  0.3145 -1.0313
  780MOL0     N 5182   6.304   5.248   1.623  0.5242 -0.1696  0.7454
  780MOL0     C 5183   6.230   5.303   1.521  0.4207 -0.2539 -0.2525
  780MOL0     C 5184   6.105   5.335   1.578 -0.5163 -1.2142  0.3983
  780MOL0     C 5185   5.986   5.390   1.495 -1.0283 -0.1812  0.1214
  780MOL0     C 5186   5.928   5.304   1.379  0.0075 -0.1406 -0.1845
  780MOL0     C 5187   5.801   5.364   1.303 -0.3678  0.1423 -0.3191
  780MOL0     C 5188   5.673   5.341   1.387  0.0395 -1.3157  0.5820
  780MOL0     O 5189   5.649   5.201   1.418  0.5076  0.3322  0.7882
  780MOL0     C 5190   5.525   5.167   1.456  0.7329  0.2752 -0.7803
  780MOL0     C 5191   5.493   5.030   1.471 -0.1631  0.0918  0.3395
  780MOL0     C 5192   5.360   4.980   1.493  0.3851 -0.3155  0.8298
  780MOL0     C 5193   5.346   4.829   1.525 -0.4158  0.1878 -0.1935
  780MOL0     C 5194   5.253   5.073   1.516 -0.2878 -0.1494  0.6575
  780MOL0     C 5195   5.113   5.044   1.557  0.8776  0.5168 -0.2458
  780MOL0     O 5196   5.087   4.912   1.536 -0.2137 -0.3580  0.1703
  780MOL0     C 5197   4.975   4.852   1.593  0.3488  0.1434 -0.5510
  780MOL0     C 5198   4.949   4.864   1.730  0.0867  0.5634  0.9438
  780MOL0     C 5199   4.859   4.778   1.791  0.3051  0.0644 -0.3837
  780MOL0     C 5200   4.788   4.691   1.713 -0.2071 -0.4914  0.3150
  780MOL0     O 5201   4.682   4.617   1.767 -0.0032 -0.5407 -0.0794
  780MOL0     C 5202   4.581   4.686   1.836  0.1538 -0.1657 -0.5764
  780MOL0     C 5203   4.452   4.598   1.837  0.9322 -0.2463 -0.7683
  780MOL0     C 5204   4.337   4.667   1.921 -1.2682  0.5412 -0.0480
  780MOL0     C 5205   4.201   4.610   1.884  0.1669  0.0569 -0.2234
  780MOL0     C 5206   4.089   4.674   1.958 -0.7184 -0.0964  0.7141
  780MOL0     C 5207   3.953   4.607   1.926  0.6425 -0.2027  0.0172
  780MOL0     C 5208   3.836   4.658   2.006  0.5390  0.1775 -0.8010
  780MOL0     C 5209   3.714   4.586   1.957 -0.4690  0.4722 -0.0883
  780MOL0    Cl 5210   3.677   4.608   1.778  0.2030 -0.5946  0.0866
  780MOL0     C 5211   4.810   4.683   1.575 -0.5166  0.2768  0.3189
  780MOL0     C 5212   4.907   4.762   1.513 -0.1770 -0.7309 -0.1714
  780MOL0     O 5213   5.029   5.131   1.590 -0.1636 -0.0443  0.0640
  780MOL0     C 5214   5.292   5.209   1.513  0.0746 -0.1695  0.7771
  780MOL0     C 5215   5.420   5.252   1.485 -0.0898  0.1745 -0.4846
  780MOL0     N 5216   6.116   5.306   1.712 -0.0443 -0.5782 -0.2076
  780MOL0     N 5217   6.239   5.257   1.741  0.9005 -0.2802 -0.9893
  780MOL0     C 5218   7.033   6.054   2.099 -0.1402 -1.4111 -0.1094
  780MOL0     C 5219   7.132   6.140   2.149  0.2121  0.4009  0.2569
  780MOL0     C 5220   7.400   6.418   2.339 -0.2615  0.3412  0.7367
  780MOL0     C 5221   7.530   6.373   2.293 -0.1813  0.0684  0.3304
  780MOL0     C 5222   7.640   6.466   2.296 -0.2415  0.3858  0.2861
  780MOL0     C 5223   7.620   6.597   2.322 -0.2585  0.5260  0.0756
  780MOL0     O 5224   7.728   6.682   2.318 -0.4047  0.2925 -0.4639
  780MOL0     C 5225   7.728   6.811   2.372 -0.1044 -0.0948 -0.7539
  780MOL0     C 5226   7.876   6.857   2.396  0.3086 -0.0445  0.1137
  780MOL0     C 5227   7.959   6.884   2.263 -0.0405  0.0825 -0.3281
  780MOL0     C 5228   7.888   6.981   2.165  0.1885 -0.1584  0.3935
  780MOL0     C 5229   7.853   7.103   2.243 -0.3648  0.9294 -0.3515
  780MOL0     C 5230   7.814   7.205   2.292 -0.3334  1.2475 -0.1376
  780MOL0     C 5231   7.488   6.638   2.361 -1.0416 -0.1156  0.7349
  780MOL0     C 5232   7.386   6.548   2.382  0.2509 -0.1858 -0.8036
  780MOL0     H 5233   7.281   5.962   2.382 -0.9021  1.5188  0.8491
  780MOL0     H 5234   7.091   5.795   2.300 -2.2322 -0.4070 -0.8274
  780MOL0     H 5235   6.983   5.647   2.153 -0.1896 -0.0092  1.8533
  780MOL0     H 5236   6.897   5.734   2.282  2.8039 -2.9842  0.9987
  780MOL0     H 5237   6.752   5.568   2.198  1.7187 -0.5180 -0.2581
  780MOL0     H 5238   6.685   5.716   2.127  0.0589  0.9352 -0.3526
  780MOL0     H 5239   6.798   5.669   1.909 -0.9024 -1.2477 -2.4367
  780MOL0     H 5240   6.872   5.528   1.968  1.1438  1.1569  2.1921
  780MOL0     H 5241   6.647   5.427   2.012  1.4212 -0.3863 -1.6055
  780MOL0     H 5242   6.567   5.577   1.964 -0.0457 -0.2606 -0.8390
  780MOL0     H 5243   6.680   5.540   1.728  2.3247  0.1082 -0.7999
  780MOL0     H 5244   6.754   5.390   1.789  1.3762  1.3655  0.0736
  780MOL0     H 5245   6.556   5.280   1.837 -0.6786  0.4078  0.3183
  780MOL0     H 5246   6.463   5.416   1.771  1.3286  3.8889 -2.8419
  780MOL0     H 5247   6.551   5.407   1.556 -1.3496 -0.5651  0.0163
  780MOL0     H 5248   6.654   5.277   1.592  0.6288 -1.3747  0.4979
  780MOL0     H 5249   6.467   5.126   1.666 -1.0262  2.3559  1.9903
  780MOL0     H 5250   6.455   5.178   1.495  0.1276 -0.7211 -0.6791
  780MOL0     H 5251   6.271   5.326   1.423  0.1027  0.2812 -0.2615
  780MOL0     H 5252   5.904   5.409   1.564  0.9514  3.0016  1.8123
  780MOL0     H 5253   6.021   5.488   1.461  2.0036 -1.5217 -0.9781
  780MOL0     H 5254   5.888   5.211   1.419 -2.6758  1.5553  1.3393
  780MOL0     H 5255   6.009   5.271   1.312 -0.7346 -5.7889  1.2045
  780MOL0     H 5256   5.789   5.314   1.207  1.8805  2.1339 -1.7609
  780MOL0     H 5257   5.815   5.471   1.286  0.8242 -0.0169 -0.4290
  780MOL0     H 5258   5.594   5.388   1.328  0.0485 -0.3172  1.3412
  780MOL0     H 5259   5.675   5.404   1.476 -0.3851 -0.3746 -0.0579
  780MOL0     H 5260   5.573   4.955   1.469 -1.5681 -1.4597 -1.1563
  780MOL0     H 5261   5.442   4.783   1.498 -0.9438 -2.6637  2.2380
  780MOL0     H 5262   5.336   4.815   1.633  0.1973  2.8877  0.2925
  780MOL0     H 5263   5.269   4.782   1.464  1.0041 -0.8091 -1.3011
  780MOL0     H 5264   5.015   4.923   1.793  0.9824 -1.1273  1.6761
  780MOL0     H 5265   4.840   4.783   1.898  1.8012  2.4557 -0.1578
  780MOL0     H 5266   4.618   4.701   1.938 -0.7114 -0.0990 -0.2639
  780MOL0     H 5267   4.561   4.785   1.794 -1.1352  0.4361  1.3082
  780MOL0     H 5268   4.408   4.580   1.739 -1.2448 -0.4516  0.1607
  780MOL0     H 5269   4.479   4.498   1.871 -1.6406 -2.1356 -3.6779
  780MOL0     H 5270   4.332   4.774   1.900 -2.9012  1.1938  3.1380
  780MOL0     H 5271   4.366   4.655   2.026  0.7859  1.1001 -0.4962
  780MOL0     H 5272   4.190   4.626   1.777 -0.0707 -0.0238 -0.2102
  780MOL0     H 5273   4.204   4.502   1.901 -1.2222  0.2882  1.7825
  780MOL0     H 5274   4.094   4.783   1.945  0.1663 -0.3843 -2.2309
  780MOL0     H 5275   4.103   4.655   2.064  1.0372  1.3910  0.8019
  780MOL0     H 5276   3.941   4.631   1.820 -1.3148 -0.8234  0.0628
  780MOL0     H 5277   3.972   4.499   1.921  0.5917 -0.1524 -1.8383
  780MOL0     H 5278   3.820   4.766   2.011 -1.3023 -0.0540 -0.7722
  780MOL0     H 5279   3.871   4.640   2.108  1.0267  1.3981 -0.7338
  780MOL0     H 5280   3.629   4.624   2.015  0.2723  0.8575  0.7641
  780MOL0     H 5281   3.732   4.478   1.962  1.9126  0.7624 -1.2085
  780MOL0     H 5282   4.747   4.625   1.509  1.4198 -3.3347  1.3978
  780MOL0     H 5283   4.924   4.759   1.406  0.3158  0.0951 -0.1286
  780MOL0     H 5284   5.220   5.289   1.527 -1.3114 -1.2955  0.3869
  780MOL0     H 5285   5.442   5.358   1.484  0.0391  0.2248  1.5886
  780MOL0     H 5286   6.957   6.092   2.032  1.0654 -0.3513 -0.9266
  780MOL0     H 5287   7.143   6.239   2.106  0.5990  0.2590  0.0228
  780MOL0     H 5288   7.552   6.275   2.253 -2.3063 -0.4988  0.3905
  780MOL0     H 5289   7.742   6.438   2.272  0.3225  0.5783  2.3313
  780MOL0     H 5290   7.675   6.868   2.295 -0.2839 -0.9777 -1.2988
  780MOL0     H 5291   7.667   6.824   2.461 -0.1291  2.5851 -1.0957
  780MOL0     H 5292   7.923   6.775   2.451  0.9609 -1.6493 -2.6193
  780MOL0     H 5293   7.873   6.938   2.469  2.6159 -1.2104  1.6106
  780MOL0     H 5294   7.978   6.787   2.216  0.2578 -0.1688  0.2961
  780MOL0     H 5295   8.058   6.921   2.294 -0.5090 -0.8257  2.5905
  780MOL0     H 5296   7.800   6.929   2.126  0.9824  0.9131 -3.2898
  780MOL0     H 5297   7.941   6.999   2.071  0.2932  2.4783  0.8776
  780MOL0     H 5298   7.765   7.291   2.334 -1.6612 -1.3507  4.3516
  780MOL0     H 5299   7.467   6.739   2.396  1.9237  1.3115 -1.1959
  780MOL0     H 5300   7.290   6.577   2.422  0.3952 -0.9038  0.0923
  781MOL0     O 5301   3.564   9.121   8.553  0.1446 -1.2205 -0.8243
  781MOL0     C 5302   3.580   9.227   8.611 -0.0661  1.1604 -0.4919
  781MOL0     O 5303   3.480   9.305   8.677  0.2320  0.3867  0.2776
  781MOL0     C 5304   3.361   9.238   8.689 -0.6032  0.2063  1.2109
  781MOL0     C 5305   3.349   9.112   8.755 -0.0437  0.4062  0.2118
  781MOL0     C 5306   3.230   9.042   8.778 -0.0380 -0.6911  0.2546
  781MOL0     C 5307   3.113   9.092   8.715  1.0313 -0.0472  0.2695
  781MOL0     O 5308   2.998   9.023   8.736 -0.6233 -0.0349  0.0839
  781MOL0     C 5309   2.934   8.982   8.613  0.2057  0.9605 -0.0107
  781MOL0     C 5310   2.787   8.938   8.622  0.0004  0.0694  0.1863
  781MOL0     C 5311   2.750   8.823   8.516  0.8730 -0.3460  0.3628
  781MOL0     C 5312   2.601   8.841   8.475 -0.1524  0.2966 -0.3131
  781MOL0     C 5313   2.556   8.742   8.368  1.0192 -0.1445  0.6685
  781MOL0     C 5314   2.400   8.717   8.381 -0.0876  0.5643 -0.2121
  781MOL0     C 5315   2.331   8.627   8.274  0.6555 -0.5262 -0.0450
  781MOL0     C 5316   2.181   8.661   8.293 -0.4222 -0.4554  0.7699
  781MOL0     N 5317   2.102   8.572   8.211  0.0365 -0.3776  0.0142
  781MOL0     C 5318   2.004   8.617   8.128  0.3340 -0.1911  0.0449
  781MOL0     C 5319   1.952   8.505   8.071 -0.7206 -0.2247 -0.3223
  781MOL0     C 5320   1.840   8.483   7.978  0.2190  1.0448  0.6665
  781MOL0     C 5321   1.809   8.587   7.869  0.3503  0.1407 -0.3404
  781MOL0     C 5322   1.707   8.692   7.913 -0.1996  0.4474  0.7631
  781MOL0     C 5323   1.692   8.807   7.814  0.3018 -0.2024 -0.8501
  781MOL0     O 5324   1.635   8.765   7.685 -0.3394 -0.5035  0.1906
  781MOL0     C 5325   1.498   8.753   7.671 -0.9778  0.3067  0.8903
  781MOL0     C 5326   1.457   8.640   7.594  0.1784  0.3738  0.7368
  781MOL0     C 5327   1.333   8.592   7.565  0.4754  0.6552  0.1694
  781MOL0     C 5328   1.308   8.463   7.486 -0.2645 -0.2328 -0.0783
  781MOL0     C 5329   1.229   8.683   7.597 -0.5409 -0.8772  0.1019
  781MOL0     C 5330   1.089   8.662   7.553 -0.2481 -0.5539  0.2303
  781MOL0     O 5331   1.069   8.688   7.420 -0.2598 -0.7711 -0.3984
  781MOL0     C 5332   0.941   8.678   7.377 -0.6155  0.1146  0.3495
  781MOL0     C 5333   0.913   8.560   7.302  0.4510  0.0082  0.0665
  781MOL0     C 5334   0.788   8.562   7.234 -1.2976 -0.2388 -0.9817
  781MOL0     C 5335   0.690   8.673   7.231  0.3311  0.3911 -0.1586
  781MOL0     O 5336   0.558   8.658   7.181 -0.3426 -0.0054  0.5145
  781MOL0     C 5337   0.548   8.604   7.048 -1.2250  0.0203 -0.6404
  781MOL0     C 5338   0.446   8.687   6.969  0.0136  0.0357 -0.9646
  781MOL0     C 5339   0.432   8.630   6.827  0.2029  0.7450 -0.1937
  781MOL0     C 5340   0.364   8.745   6.748  1.0826 -0.0810 -0.0606
  781MOL0     C 5341   0.318   8.701   6.610  0.0841  0.2136  0.3020
  781MOL0     C 5342   0.242   8.816   6.544  0.9901 -0.1018 -0.6409
  781MOL0     C 5343   0.206   8.785   6.397 -0.0818 -0.1117 -0.0994
  781MOL0     C 5344   0.107   8.667   6.383 -0.4567  0.6131 -0.6613
  781MOL0    Cl 5345  -0.063   8.710   6.416 -0.0230 -0.2290  0.1635
  781MOL0     C 5346   0.729   8.781   7.303  0.4734 -0.9119  0.2656
  781MOL0     C 5347   0.844   8.782   7.382 -0.4879  0.8433  0.0717
  781MOL0     O 5348   0.998   8.633   7.632 -0.1391 -0.1949 -0.3773
  781MOL0     C 5349   1.263   8.799   7.676  0.5831  0.2142 -0.2460
  781MOL0     C 5350   1.394   8.835   7.716 -0.7020  0.4978 -0.4133
  781MOL0     N 5351   2.006   8.397   8.141 -0.6440 -0.3357  0.2168
  781MOL0     N 5352   2.093   8.440   8.214  0.4274  0.2994 -0.5218
  781MOL0     C 5353   3.127   9.219   8.649 -0.9439 -0.1056  0.0869
  781MOL0     C 5354   3.246   9.291   8.638 -0.2513  0.1587 -0.7049
  781MOL0     C 5355   3.710   9.288   8.597  0.8111  0.5150 -0.2587
  781MOL0     C 5356   3.731   9.420   8.643 -0.2116  0.0833 -0.5306
  781MOL0     C 5357   3.853   9.487   8.622  0.2277 -0.0840  0.2488
  781MOL0     C 5358   3.953   9.426   8.552 -0.6966  0.2045 -0.6236
  781MOL0     O 5359   4.074   9.492   8.525  0.3683  0.2281  0.2124
  781MOL0     C 5360   4.091   9.641   8.525 -0.1958  0.9701  0.4037
  781MOL0     C 5361   4.206   9.699   8.444 -0.7419 -0.0858 -0.2706
  781MOL0     C 5362   4.324   9.606   8.466  0.2458  1.5437  0.5378
  781MOL0     C 5363   4.456   9.686   8.430  0.4686 -0.0129 -0.5180
  781MOL0     C 5364   4.578   9.613   8.466 -0.8674 -0.3400  0.0225
  781MOL0     C 5365   4.677   9.554   8.506 -0.1004  0.3853  0.2412
  781MOL0     C 5366   3.939   9.298   8.512  0.4398  1.0457  0.1184
  781MOL0     C 5367   3.820   9.228   8.530  0.4237  0.3910  0.3812
  781MOL0     H 5368   3.444   9.082   8.796 -0.4233  0.6108  1.2807
  781MOL0     H 5369   3.224   8.945   8.827 -1.1563 -0.1937  1.1409
  781MOL0     H 5370   2.944   9.063   8.540 -1.4346  2.2762  1.1464
  781MOL0     H 5371   2.994   8.898   8.577 -1.8141  0.1383 -1.6582
  781MOL0     H 5372   2.763   8.906   8.724 -0.6361  1.5784  0.5359
  781MOL0     H 5373   2.738   9.033   8.599 -2.6516 -0.9817  1.0628
  781MOL0     H 5374   2.821   8.815   8.432  1.7173 -3.0028  1.2363
  781MOL0     H 5375   2.760   8.724   8.561  1.0590 -1.0748 -1.1935
  781MOL0     H 5376   2.544   8.844   8.569  1.3865  0.2384  0.6744
  781MOL0     H 5377   2.593   8.944   8.440  0.6245  1.1812  1.8867
  781MOL0     H 5378   2.592   8.768   8.268 -0.1524 -1.3269 -0.0955
  781MOL0     H 5379   2.604   8.645   8.382 -1.3122 -1.8097 -1.9603
  781MOL0     H 5380   2.383   8.679   8.482  1.7716  0.1455 -0.0271
  781MOL0     H 5381   2.352   8.816   8.379 -0.4770  0.3817 -1.7325
  781MOL0     H 5382   2.372   8.656   8.177 -2.4644  0.9816 -1.0514
  781MOL0     H 5383   2.358   8.523   8.290  1.4866 -1.2787 -4.8006
  781MOL0     H 5384   2.153   8.765   8.276  2.3311  0.5049  1.5396
  781MOL0     H 5385   2.148   8.637   8.394  1.9538 -1.4229  1.3916
  781MOL0     H 5386   1.985   8.723   8.109  0.6164  0.2625  2.0640
  781MOL0     H 5387   1.858   8.392   7.919  0.2662  2.5739 -1.8238
  781MOL0     H 5388   1.748   8.456   8.031 -0.1495 -0.3549 -0.6302
  781MOL0     H 5389   1.756   8.546   7.783 -1.7139  2.3320 -0.2458
  781MOL0     H 5390   1.897   8.637   7.827 -0.4160  0.6183 -1.4279
  781MOL0     H 5391   1.742   8.733   8.009 -1.5348 -0.5974  1.7309
  781MOL0     H 5392   1.608   8.646   7.912  0.8698 -2.0851 -0.6369
  781MOL0     H 5393   1.788   8.859   7.805 -0.1961  0.8253 -0.3860
  781MOL0     H 5394   1.626   8.876   7.867 -0.7973 -1.2238 -0.8475
  781MOL0     H 5395   1.536   8.580   7.550 -1.6102  0.5394 -3.1012
  781MOL0     H 5396   1.228   8.408   7.536 -1.2360  1.2791  0.1059
  781MOL0     H 5397   1.275   8.492   7.386  1.6512  2.5798 -0.0214
  781MOL0     H 5398   1.401   8.406   7.485  0.9221  1.5634  1.0393
  781MOL0     H 5399   0.972   8.469   7.301 -0.7135 -0.7810  0.6215
  781MOL0     H 5400   0.754   8.475   7.178 -2.2024 -0.7172  0.2671
  781MOL0     H 5401   0.643   8.597   6.993 -0.7426 -2.3124  0.3758
  781MOL0     H 5402   0.500   8.506   7.056 -1.9797  0.2355 -2.0898
  781MOL0     H 5403   0.349   8.688   7.020  1.8713 -3.8462  3.3143
  781MOL0     H 5404   0.497   8.784   6.959  1.5957 -0.7371 -0.6336
  781MOL0     H 5405   0.366   8.542   6.830  2.0141 -0.6520  1.8584
  781MOL0     H 5406   0.529   8.600   6.785  0.2611  0.2876  0.2628
  781MOL0     H 5407   0.282   8.780   6.812  1.4237 -0.5073  0.6199
  781MOL0     H 5408   0.432   8.828   6.728  0.4139  0.6349  0.5856
  781MOL0     H 5409   0.249   8.619   6.634  1.5296 -0.5656  2.0563
  781MOL0     H 5410   0.396   8.661   6.545 -0.8502 -1.1557 -0.0262
  781MOL0     H 5411   0.152   8.829   6.605  1.9198 -3.1196  1.6554
  781MOL0     H 5412   0.304   8.905   6.550  2.8985 -1.3324 -1.2275
  781MOL0     H 5413   0.297   8.757   6.345  0.1625  0.1083  0.2026
  781MOL0     H 5414   0.178   8.874   6.340 -0.8485 -0.6050 -0.5060
  781MOL0     H 5415   0.141   8.576   6.435 -0.5683 -0.0708 -1.7564
  781MOL0     H 5416   0.102   8.633   6.280 -1.0211 -3.8191  0.5918
  781MOL0     H 5417   0.662   8.867   7.304 -1.5535 -2.4043 -0.9107
  781MOL0     H 5418   0.860   8.875   7.434 -2.4852 -0.1278  2.5927
  781MOL0     H 5419   1.175   8.853   7.710 -0.4231 -1.0986 -0.6319
  781MOL0     H 5420   1.415   8.921   7.780 -1.8348  0.7593 -0.3693
  781MOL0     H 5421   3.038   9.261   8.602  0.8189  0.6484 -2.8369
  781MOL0     H 5422   3.236   9.389   8.591 -1.4064  1.5548  2.2279
  781MOL0     H 5423   3.659   9.489   8.686 -1.3130  0.3657 -2.6606
  781MOL0     H 5424   3.858   9.592   8.651 -3.5747  0.1526  0.5478
  781MOL0     H 5425   3.993   9.679   8.495  0.3864  1.4094 -1.0535
  781MOL0     H 5426   4.105   9.673   8.628  0.4365  1.5184  0.1604
  781MOL0     H 5427   4.223   9.800   8.482 -0.6875 -0.7197  1.4437
  781MOL0     H 5428   4.189   9.700   8.336  0.8291 -1.8592 -0.5884
  781MOL0     H 5429   4.334   9.516   8.405  3.2412  0.3317  2.5656
  781MOL0     H 5430   4.333   9.576   8.570 -1.2644  2.8623  1.0877
  781MOL0     H 5431   4.454   9.779   8.487  0.9362 -0.1639 -0.2472
  781MOL0     H 5432   4.458   9.711   8.323  0.9905 -1.4643 -0.8714
  781MOL0     H 5433   4.765   9.499   8.535  0.1738 -0.8527 -2.6154
  781MOL0     H 5434   4.029   9.255   8.469 -0.5857 -3.3284  1.8372
  781MOL0     H 5435   3.800   9.130   8.487 -0.3763  0.6547  0.1388
  782MOL0     O 5436   8.670  10.998   5.455  0.4150  0.8622 -0.6302
  782MOL0     C 5437   8.681  11.113   5.502 -0.1036  0.1799  0.3208
  782MOL0     O 5438   8.578  11.205   5.513  0.8702  0.1442 -0.0150
  782MOL0     C 5439   8.448  11.157   5.527  0.1903  0.2142  0.8528
  782MOL0     C 5440   8.375  11.107   5.416  0.5024  0.5753  0.3306
  782MOL0     C 5441   8.235  11.085   5.432  0.5595  0.1685  0.0525
  782MOL0     C 5442   8.183  11.091   5.561  0.6437  0.0395  0.0451
  782MOL0     O 5443   8.056  11.049   5.594 -0.0359  0.1662 -0.1070
  782MOL0     C 5444   7.996  10.965   5.495 -0.0689  0.0887 -0.2483
  782MOL0     C 5445   7.868  10.912   5.553 -0.2776 -0.0146 -1.4463
  782MOL0     C 5446   7.811  10.816   5.446 -0.0544 -0.5990  0.0472
  782MOL0     C 5447   7.680  10.748   5.496 -0.4576  0.8911  0.4916
  782MOL0     C 5448   7.559  10.836   5.474  0.1105 -1.0024 -0.0328
  782MOL0     C 5449   7.432  10.759   5.485  0.0695 -0.6355 -0.0457
  782MOL0     C 5450   7.311  10.853   5.511 -0.2967  0.1093  0.2850
  782MOL0     C 5451   7.192  10.776   5.479  0.0383 -0.1903  0.7543
  782MOL0     N 5452   7.083  10.842   5.548 -0.5819 -0.1116 -0.3789
  782MOL0     C 5453   7.031  10.965   5.516  0.3919  0.5675 -0.9805
  782MOL0     C 5454   6.939  10.989   5.615  0.7020  0.6600  0.0436
  782MOL0     C 5455   6.863  11.118   5.628 -0.1883 -0.1416 -0.0103
  782MOL0     C 5456   6.720  11.114   5.574 -0.2808  0.0251 -1.2141
  782MOL0     C 5457   6.635  11.028   5.668 -0.1004 -0.4294 -0.2658
  782MOL0     C 5458   6.488  11.024   5.639 -0.0209 -0.4534  0.3150
  782MOL0     O 5459   6.436  11.165   5.627  0.3489  0.1282  0.0880
  782MOL0     C 5460   6.297  11.176   5.644  0.3430 -0.4875 -0.2316
  782MOL0     C 5461   6.203  11.071   5.628  0.7370 -0.0453  0.3223
  782MOL0     C 5462   6.066  11.086   5.650  0.3190 -0.7119 -0.8160
  782MOL0     C 5463   5.986  10.953   5.624  0.7750 -0.7776  0.8700
  782MOL0     C 5464   6.011  11.217   5.671  1.0318  0.1134 -0.4953
  782MOL0     C 5465   5.868  11.245   5.684  0.4988 -0.6491 -0.9870
  782MOL0     O 5466   5.822  11.330   5.783 -0.4855 -0.0366 -0.5424
  782MOL0     C 5467   5.689  11.355   5.770  0.1776  0.3517  0.6941
  782MOL0     C 5468   5.641  11.456   5.685 -0.5084  0.2425 -0.2630
  782MOL0     C 5469   5.502  11.483   5.675  0.6467  0.3789 -0.0173
  782MOL0     C 5470   5.410  11.412   5.752  0.6949 -0.2099 -0.1662
  782MOL0     O 5471   5.275  11.441   5.749 -0.2640  0.1391  0.1413
  782MOL0     C 5472   5.235  11.565   5.690 -0.0923  0.2998 -0.2238
  782MOL0     C 5473   5.088  11.579   5.714  0.5054  0.3391 -0.0471
  782MOL0     C 5474   5.043  11.599   5.855  0.1582  0.2228  0.0264
  782MOL0     C 5475   4.898  11.653   5.866 -0.3059  0.3525  0.4018
  782MOL0     C 5476   4.855  11.720   5.999 -0.0774  0.5368 -0.1836
  782MOL0     C 5477   4.866  11.622   6.112 -0.0625  0.2605  0.5942
  782MOL0     C 5478   4.764  11.638   6.230  0.9651 -0.6912  0.2420
  782MOL0     C 5479   4.772  11.521   6.322  0.5639  0.3722  0.4109
  782MOL0    Cl 5480   4.935  11.508   6.397 -0.0696  0.3342 -0.4519
  782MOL0     C 5481   5.463  11.311   5.834  0.0252 -0.2863 -0.5277
  782MOL0     C 5482   5.603  11.270   5.835  0.7075  0.4003  0.0053
  782MOL0     O 5483   5.794  11.199   5.594  0.5027 -0.4590 -0.1461
  782MOL0     C 5484   6.105  11.328   5.679  0.1642  0.5995 -0.6596
  782MOL0     C 5485   6.238  11.305   5.661  0.0956  0.2166  0.2732
  782MOL0     N 5486   6.938  10.879   5.708 -0.8063 -0.4293  0.0376
  782MOL0     N 5487   7.021  10.787   5.660  0.3417 -0.0428  0.3964
  782MOL0     C 5488   8.251  11.140   5.661  0.0836 -0.2574  0.1098
  782MOL0     C 5489   8.381  11.183   5.643  0.8190 -0.1912 -0.5092
  782MOL0     C 5490   8.819  11.172   5.520  0.8467 -0.2586 -0.6571
  782MOL0     C 5491   8.934  11.093   5.530  0.6401  0.6645 -0.0101
  782MOL0     C 5492   9.061  11.150   5.546  0.1479  0.3566 -0.2438
  782MOL0     C 5493   9.070  11.291   5.548  0.3704  0.6441 -0.3878
  782MOL0     O 5494   9.184  11.365   5.567  0.4629  0.0948  0.1443
  782MOL0     C 5495   9.302  11.298   5.623 -0.3569  0.3908 -0.6758
  782MOL0     C 5496   9.417  11.396   5.632  0.0903 -0.6406  0.4220
  782MOL0     C 5497   9.463  11.442   5.493  0.3205 -0.4838  0.3136
  782MOL0     C 5498   9.570  11.551   5.499 -0.3547  0.1378 -0.7621
  782MOL0     C 5499   9.627  11.552   5.365 -0.2676  0.0520 -0.8949
  782MOL0     C 5500   9.676  11.554   5.251  0.0200  0.0523  0.0449
  782MOL0     C 5501   8.959  11.373   5.546  0.1622  0.5157  0.2267
  782MOL0     C 5502   8.833  11.313   5.535  0.4764  0.0366 -0.0682
  782MOL0     H 5503   8.415  11.112   5.315 -0.4670  1.7753 -0.0202
  782MOL0     H 5504   8.171  11.081   5.344 -2.0828 -1.0390  1.8857
  782MOL0     H 5505   7.967  11.022   5.406  0.7355  1.1745  0.1608
  782MOL0     H 5506   8.065  10.889   5.457 -0.7380 -0.9397  0.5324
  782MOL0     H 5507   7.876  10.857   5.648  1.1865  1.5884 -0.5889
  782MOL0     H 5508   7.799  10.996   5.567 -1.1672  0.3537 -6.4126
  782MOL0     H 5509   7.791  10.873   5.355 -1.3961  0.5987  1.0235
  782MOL0     H 5510   7.889  10.745   5.422  0.8839 -0.6529  2.9216
  782MOL0     H 5511   7.681  10.654   5.441  1.6902  1.5616 -0.7747
  782MOL0     H 5512   7.688  10.732   5.604 -0.8444 -0.6782  0.3052
  782MOL0     H 5513   7.553  10.917   5.548  0.1160 -0.8299 -0.2216
  782MOL0     H 5514   7.558  10.881   5.375 -4.4946 -1.5662 -0.4295
  782MOL0     H 5515   7.421  10.698   5.396 -1.2866 -1.4309  0.6312
  782MOL0     H 5516   7.433  10.692   5.572 -1.2804 -0.5407  0.0737
  782MOL0     H 5517   7.313  10.877   5.618  0.5485 -1.8533  0.7418
  782MOL0     H 5518   7.320  10.938   5.443 -3.8803 -0.5632 -1.2221
  782MOL0     H 5519   7.198  10.680   5.531 -3.9065 -0.7154  0.4772
  782MOL0     H 5520   7.187  10.764   5.370  1.3259  0.3943  0.6035
  782MOL0     H 5521   7.060  11.039   5.443 -0.1286  3.5097  1.5486
  782MOL0     H 5522   6.856  11.139   5.735 -2.5911  1.6911 -0.4532
  782MOL0     H 5523   6.901  11.207   5.576 -2.9219  1.0892 -0.1021
  782MOL0     H 5524   6.721  11.077   5.471  0.5670 -4.3899  0.1833
  782MOL0     H 5525   6.685  11.218   5.584  1.5823  0.5496  0.6195
  782MOL0     H 5526   6.628  11.084   5.762  1.7278  0.8314 -0.8184
  782MOL0     H 5527   6.676  10.927   5.675  0.1706 -0.3630 -0.8157
  782MOL0     H 5528   6.433  10.977   5.721  1.1112 -0.7177  0.9484
  782MOL0     H 5529   6.472  10.956   5.555  2.5156 -1.3660  0.4700
  782MOL0     H 5530   6.227  10.972   5.590  0.7474  0.4203 -0.9510
  782MOL0     H 5531   5.960  10.946   5.518  2.9561  1.4013  0.1157
  782MOL0     H 5532   6.035  10.857   5.641 -0.8475 -1.5692  1.3274
  782MOL0     H 5533   5.892  10.954   5.680 -1.2798 -0.7466 -2.3356
  782MOL0     H 5534   5.714  11.515   5.632  0.1948 -2.2721 -2.3354
  782MOL0     H 5535   5.467  11.557   5.603  0.0969 -0.4104 -0.5687
  782MOL0     H 5536   5.273  11.654   5.743 -0.8768 -0.8969  2.5368
  782MOL0     H 5537   5.254  11.577   5.583  1.3071 -2.2754 -0.3284
  782MOL0     H 5538   5.056  11.671   5.665 -1.6268 -0.9513 -1.2241
  782MOL0     H 5539   5.026  11.500   5.670 -1.1713  1.9749 -0.7863
  782MOL0     H 5540   5.104  11.678   5.899 -0.5833  1.6608 -1.3992
  782MOL0     H 5541   5.054  11.501   5.902  0.3584 -0.7385 -1.9338
  782MOL0     H 5542   4.885  11.722   5.782  0.2804  0.6602  0.5564
  782MOL0     H 5543   4.837  11.570   5.832 -0.7910  0.7938  0.1908
  782MOL0     H 5544   4.754  11.761   5.991 -0.3623 -0.5181 -3.4936
  782MOL0     H 5545   4.924  11.802   6.022  0.5461  0.1680 -0.7078
  782MOL0     H 5546   4.857  11.526   6.060 -3.5268  1.7657 -2.0170
  782MOL0     H 5547   4.971  11.624   6.142  0.9346 -0.7663 -2.4463
  782MOL0     H 5548   4.663  11.630   6.189  0.5933  0.8161  0.8086
  782MOL0     H 5549   4.780  11.735   6.278 -1.0957 -0.7460  1.1537
  782MOL0     H 5550   4.751  11.442   6.250 -0.5573  2.6865 -1.9561
  782MOL0     H 5551   4.687  11.516   6.391  1.2225  2.6125  1.5108
  782MOL0     H 5552   5.390  11.253   5.890  0.5548  1.0302  1.6416
  782MOL0     H 5553   5.627  11.183   5.894 -2.2588 -1.8303 -1.7409
  782MOL0     H 5554   6.064  11.428   5.681 -2.6245 -0.4490 -0.9746
  782MOL0     H 5555   6.308  11.388   5.658 -1.1500  1.2482 -1.6055
  782MOL0     H 5556   8.195  11.166   5.750  0.8533 -0.4270  0.6472
  782MOL0     H 5557   8.431  11.236   5.724 -1.2783  0.9447  0.1298
  782MOL0     H 5558   8.922  10.985   5.535 -1.2838  0.8308 -0.2395
  782MOL0     H 5559   9.148  11.086   5.556 -0.1989  0.1061  1.5214
  782MOL0     H 5560   9.283  11.264   5.725  0.1758  1.0524 -0.3537
  782MOL0     H 5561   9.330  11.216   5.556  1.2774  0.1960  0.2000
  782MOL0     H 5562   9.500  11.350   5.686  0.1156 -3.1223 -1.5421
  782MOL0     H 5563   9.381  11.476   5.697 -1.9474 -2.0936  1.2047
  782MOL0     H 5564   9.375  11.488   5.448  0.6193  0.7134  0.9088
  782MOL0     H 5565   9.493  11.364   5.423 -2.6754 -0.9026 -0.6297
  782MOL0     H 5566   9.648  11.532   5.573 -1.9073 -3.3153  0.2254
  782MOL0     H 5567   9.514  11.639   5.531  0.6378  0.4866  0.0398
  782MOL0     H 5568   9.709  11.566   5.150  0.6166 -1.3086  0.0535
  782MOL0     H 5569   8.963  11.481   5.547  2.5254  0.5382 -1.3303
  782MOL0     H 5570   8.738  11.365   5.535 -0.3458 -1.4027  0.4891
  783MOL0     O 5571   3.037   2.465  10.417  0.1150 -0.9635 -0.2378
  783MOL0     C 5572   3.033   2.487  10.301 -0.2499  0.2714 -0.0076
  783MOL0     O 5573   2.931   2.550  10.239 -0.0118  0.6072 -0.1137
  783MOL0     C 5574   2.817   2.585  10.305  0.7765 -0.2564 -0.7175
  783MOL0     C 5575   2.702   2.552  10.238  0.6072 -0.0922 -0.5402
  783MOL0     C 5576   2.581   2.568  10.307 -0.5220 -0.4685  0.9029
  783MOL0     C 5577   2.566   2.631  10.421 -0.4351  0.3542 -0.6518
  783MOL0     O 5578   2.438   2.653  10.462  0.0744 -0.3481  0.0199
  783MOL0     C 5579   2.410   2.716  10.583 -1.2719 -0.0224 -0.0538
  783MOL0     C 5580   2.258   2.720  10.599 -0.8626  1.0461  0.5746
  783MOL0     C 5581   2.226   2.781  10.732  0.0444 -0.3796 -1.1165
  783MOL0     C 5582   2.082   2.750  10.760  0.1379 -0.6965 -0.4436
  783MOL0     C 5583   2.052   2.794  10.913  0.2367 -1.7381  0.4550
  783MOL0     C 5584   2.038   2.949  10.932 -0.3238 -0.2247  0.0675
  783MOL0     C 5585   1.890   3.013  10.921 -0.1635 -0.7561  0.5476
  783MOL0     C 5586   1.777   2.933  10.986  0.2309  0.2839  0.1116
  783MOL0     N 5587   1.657   3.008  11.003 -0.2422 -0.2386  0.4064
  783MOL0     C 5588   1.617   3.081  11.111 -0.4604  0.3899 -0.8127
  783MOL0     C 5589   1.492   3.113  11.083 -0.4154  0.1700 -0.0346
  783MOL0     C 5590   1.401   3.187  11.174 -0.6075 -1.2539 -0.1649
  783MOL0     C 5591   1.269   3.107  11.187 -0.0484 -0.2866  0.2250
  783MOL0     C 5592   1.172   3.186  11.278  0.1891 -0.2522  0.1161
  783MOL0     C 5593   1.062   3.087  11.332 -0.4489  0.1657 -0.1878
  783MOL0     O 5594   0.956   3.063  11.240  0.3599  0.0226 -0.1392
  783MOL0     C 5595   0.839   3.010  11.287  0.0408  0.0986  0.2990
  783MOL0     C 5596   0.819   2.963  11.414 -0.2517 -0.2725  0.4355
  783MOL0     C 5597   0.692   2.932  11.461  0.4468  0.1614 -0.2447
  783MOL0     C 5598   0.684   2.875  11.603  0.0923  0.3213 -0.4321
  783MOL0     C 5599   0.573   2.945  11.383  0.1393 -0.7994 -0.1417
  783MOL0     C 5600   0.430   2.936  11.423  0.0090  0.2332 -0.0282
  783MOL0     O 5601   0.331   2.985  11.334  0.0365 -0.8204 -0.1655
  783MOL0     C 5602   0.204   2.937  11.343  0.8386 -0.6786 -0.3314
  783MOL0     C 5603   0.094   3.024  11.324 -0.6548 -0.2397  0.0007
  783MOL0     C 5604  -0.042   2.983  11.329  0.3694 -0.4785  0.5183
  783MOL0     C 5605  -0.072   2.850  11.350  0.3537  0.0592  0.4091
  783MOL0     O 5606  -0.209   2.816  11.345 -0.1798  0.4383  0.1658
  783MOL0     C 5607  -0.247   2.683  11.385  0.7448  0.2397  0.3637
  783MOL0     C 5608  -0.401   2.692  11.391  0.5933  0.5017 -0.6093
  783MOL0     C 5609  -0.442   2.791  11.496  0.0990  1.1437 -0.1308
  783MOL0     C 5610  -0.596   2.790  11.484 -0.6285  0.1869 -0.2385
  783MOL0     C 5611  -0.656   2.886  11.589 -0.5292 -0.3049  0.5798
  783MOL0     C 5612  -0.815   2.887  11.564 -0.0478 -0.7354  0.0966
  783MOL0     C 5613  -0.886   2.785  11.650 -0.3646  0.9427  0.0526
  783MOL0     C 5614  -1.034   2.777  11.614 -0.4720 -0.0368 -1.4287
  783MOL0    Cl 5615  -1.112   2.926  11.673 -0.0752  0.2642 -0.2282
  783MOL0     C 5616   0.037   2.763  11.383 -0.2218  0.5009 -0.1954
  783MOL0     C 5617   0.171   2.810  11.381  0.5538  0.5425  0.0464
  783MOL0     O 5618   0.406   2.892  11.537  0.0874 -0.2155  0.3492
  783MOL0     C 5619   0.598   2.982  11.247 -0.5994  0.1574 -0.1203
  783MOL0     C 5620   0.730   3.020  11.202  0.7659  0.5930 -0.4242
  783MOL0     N 5621   1.464   3.050  10.959 -1.4605  0.1803 -0.1362
  783MOL0     N 5622   1.564   2.976  10.907  0.3730 -1.0417  0.6482
  783MOL0     C 5623   2.682   2.670  10.490  0.0472 -0.7837  0.2947
  783MOL0     C 5624   2.808   2.641  10.433 -0.3999 -0.7533  1.1026
  783MOL0     C 5625   3.138   2.427  10.210  0.1474 -0.4245  0.1370
  783MOL0     C 5626   3.124   2.435  10.074 -0.2296 -0.4458  1.1207
  783MOL0     C 5627   3.220   2.376   9.993 -0.3208 -0.6298 -0.9031
  783MOL0     C 5628   3.324   2.306  10.046 -1.1631  0.3117  0.1023
  783MOL0     O 5629   3.420   2.257   9.962 -0.0839 -0.4292  0.3046
  783MOL0     C 5630   3.528   2.186  10.011  0.1925  0.0853  0.9727
  783MOL0     C 5631   3.629   2.295  10.034 -0.4561 -0.3735 -0.5072
  783MOL0     C 5632   3.749   2.239  10.106 -0.9945  0.6256 -0.4518
  783MOL0     C 5633   3.757   2.280  10.250 -0.2591 -0.4448  0.2437
  783MOL0     C 5634   3.880   2.230  10.315 -0.3659 -0.2898  0.6494
  783MOL0     C 5635   3.990   2.206  10.367  0.0146 -0.1611  0.8413
  783MOL0     C 5636   3.338   2.294  10.185 -0.1347 -0.2915  0.2445
  783MOL0     C 5637   3.240   2.350  10.270 -0.0020 -0.6793 -0.4271
  783MOL0     H 5638   2.712   2.504  10.141  1.8956 -0.8149 -0.0741
  783MOL0     H 5639   2.489   2.538  10.258 -0.2747 -0.1681  0.2467
  783MOL0     H 5640   2.462   2.657  10.658  1.3275  0.1977 -1.5753
  783MOL0     H 5641   2.448   2.819  10.579 -0.7634 -0.2310 -0.8907
  783MOL0     H 5642   2.229   2.781  10.513 -0.0168  2.3573  1.1951
  783MOL0     H 5643   2.221   2.617  10.589 -0.7697  1.1012 -0.5180
  783MOL0     H 5644   2.289   2.730  10.805  0.9296  1.4176 -0.5916
  783MOL0     H 5645   2.253   2.887  10.729  1.2028 -0.6898 -3.2486
  783MOL0     H 5646   2.020   2.805  10.689 -2.0784 -1.8029  0.5600
  783MOL0     H 5647   2.071   2.641  10.758  0.7421 -0.7591 -0.7120
  783MOL0     H 5648   1.967   2.741  10.957  0.3515 -0.5454  2.1877
  783MOL0     H 5649   2.130   2.762  10.983  0.0216  1.7749  2.5226
  783MOL0     H 5650   2.070   2.957  11.037 -0.6756 -1.0273  0.2491
  783MOL0     H 5651   2.102   3.009  10.866  0.0939 -0.1872  0.4989
  783MOL0     H 5652   1.900   3.104  10.981  3.0089 -1.8253  1.8534
  783MOL0     H 5653   1.858   3.035  10.818  3.3003 -1.4359 -0.8045
  783MOL0     H 5654   1.806   2.902  11.087  0.0773  1.1112  0.4145
  783MOL0     H 5655   1.754   2.850  10.918  1.9194  0.7456 -1.0846
  783MOL0     H 5656   1.666   3.110  11.203  0.1852 -0.6458 -0.8161
  783MOL0     H 5657   1.452   3.217  11.266  0.3885  2.8487 -1.8128
  783MOL0     H 5658   1.388   3.289  11.137 -5.1873 -1.4366  0.3068
  783MOL0     H 5659   1.292   3.010  11.233  1.8918  0.3602  0.6907
  783MOL0     H 5660   1.221   3.106  11.089 -2.0559 -2.2090  1.1368
  783MOL0     H 5661   1.129   3.267  11.218  0.2713  1.2718  2.0304
  783MOL0     H 5662   1.234   3.233  11.354 -0.1127  0.9730 -0.3792
  783MOL0     H 5663   1.016   3.133  11.420  0.4047 -0.3631  0.5584
  783MOL0     H 5664   1.104   2.991  11.365  2.1045  1.8773  1.8924
  783MOL0     H 5665   0.903   2.956  11.483  0.4323 -0.4463 -0.3938
  783MOL0     H 5666   0.628   2.781  11.614  0.3873  0.3602  1.6768
  783MOL0     H 5667   0.787   2.854  11.633  0.6367 -2.1404 -3.4062
  783MOL0     H 5668   0.639   2.946  11.672 -0.9439 -0.2095 -0.5320
  783MOL0     H 5669   0.089   3.131  11.305 -1.9456 -0.2448  0.2113
  783MOL0     H 5670  -0.125   3.051  11.312  1.3098  0.7039  0.4957
  783MOL0     H 5671  -0.208   2.606  11.318 -0.9950 -1.6562  1.4063
  783MOL0     H 5672  -0.201   2.661  11.482  0.5972 -0.8451  0.2041
  783MOL0     H 5673  -0.440   2.706  11.289 -2.4018  0.7306  0.4700
  783MOL0     H 5674  -0.437   2.594  11.421 -1.1909  0.6823 -1.9934
  783MOL0     H 5675  -0.403   2.892  11.482 -1.0000  1.4194 -1.5131
  783MOL0     H 5676  -0.416   2.765  11.599  1.5675  2.0965 -0.2406
  783MOL0     H 5677  -0.630   2.815  11.383 -0.3967  2.7303  0.2417
  783MOL0     H 5678  -0.636   2.694  11.518  1.7288 -0.6924  0.2458
  783MOL0     H 5679  -0.606   2.983  11.590 -1.7139  0.3635  2.9851
  783MOL0     H 5680  -0.641   2.854  11.693  0.1565 -1.6175  0.1003
  783MOL0     H 5681  -0.847   2.988  11.592 -1.2989 -0.9827 -0.3964
  783MOL0     H 5682  -0.836   2.881  11.457  1.4437 -0.3857 -0.2458
  783MOL0     H 5683  -0.871   2.808  11.756  0.9979 -1.4207  0.4377
  783MOL0     H 5684  -0.845   2.685  11.631 -3.0912 -0.4177  0.8566
  783MOL0     H 5685  -1.087   2.696  11.664 -1.2672  0.3566 -1.6125
  783MOL0     H 5686  -1.054   2.774  11.506  0.9009 -1.8030 -1.6723
  783MOL0     H 5687   0.015   2.659  11.406 -2.7131  1.3092  1.4953
  783MOL0     H 5688   0.239   2.744  11.434 -1.2371 -1.8537 -0.4678
  783MOL0     H 5689   0.523   2.986  11.169 -0.3945  0.1172 -0.3193
  783MOL0     H 5690   0.749   3.056  11.101 -0.4640  0.7845 -0.6021
  783MOL0     H 5691   2.683   2.715  10.589  1.1474 -0.4418  0.1441
  783MOL0     H 5692   2.908   2.655  10.475  1.4406 -0.8295 -2.8469
  783MOL0     H 5693   3.044   2.492  10.028  1.5281  2.3512  1.2209
  783MOL0     H 5694   3.222   2.381   9.885 -3.2755 -4.9455 -1.4025
  783MOL0     H 5695   3.509   2.134  10.105 -2.0443 -1.0760 -0.0468
  783MOL0     H 5696   3.558   2.115   9.933 -1.9186  2.9724 -2.8035
  783MOL0     H 5697   3.591   2.382  10.089 -1.1807  1.3667 -3.5030
  783MOL0     H 5698   3.651   2.341   9.936  0.8811 -2.5484 -1.2884
  783MOL0     H 5699   3.843   2.263  10.056 -0.4306  0.4253  0.4829
  783MOL0     H 5700   3.735   2.130  10.106  3.4832 -0.1479 -0.0418
  783MOL0     H 5701   3.668   2.245  10.303  0.0087  0.6631  1.4759
  783MOL0     H 5702   3.774   2.388  10.251 -0.3718 -0.3958  2.5460
  783MOL0     H 5703   4.080   2.181  10.418  0.0140 -1.1658  0.3724
  783MOL0     H 5704   3.406   2.230  10.240  2.7021  2.6489  0.4407
  783MOL0     H 5705   3.259   2.330  10.375  3.2247 -0.1877 -0.8171
  784MOL0     O 5706   4.023   6.241   0.194  0.8257 -0.7847  0.1011
  784MOL0     C 5707   4.070   6.178   0.289  0.4112 -0.6032  0.0212
  784MOL0     O 5708   3.994   6.098   0.367 -0.7309  0.7799  0.1271
  784MOL0     C 5709   3.871   6.057   0.321 -0.1228 -0.2851 -0.2487
  784MOL0     C 5710   3.856   6.010   0.186 -0.6694  0.7542  0.3154
  784MOL0     C 5711   3.732   5.973   0.143 -0.4345  0.2335  0.8980
  784MOL0     C 5712   3.618   5.995   0.227 -0.8008 -0.3163  0.7133
  784MOL0     O 5713   3.492   5.981   0.169 -0.7456 -0.0991  0.7295
  784MOL0     C 5714   3.386   5.928   0.246  0.5217 -0.3430 -0.5757
  784MOL0     C 5715   3.278   5.881   0.160  0.4144 -0.2118  0.2958
  784MOL0     C 5716   3.162   5.820   0.248  1.4076  0.4351 -0.4943
  784MOL0     C 5717   3.053   5.769   0.153  0.5015 -0.6508 -0.0254
  784MOL0     C 5718   2.936   5.714   0.241 -0.5854 -0.6201  1.4706
  784MOL0     C 5719   2.977   5.590   0.326 -0.2956 -0.2431 -0.0728
  784MOL0     C 5720   2.856   5.520   0.382 -0.6047 -0.2942 -0.5196
  784MOL0     C 5721   2.894   5.390   0.458  0.0385 -0.3241 -0.0730
  784MOL0     N 5722   2.930   5.409   0.606 -0.1180 -0.0716  0.3670
  784MOL0     C 5723   3.060   5.423   0.646  0.8530  0.6829 -1.0778
  784MOL0     C 5724   3.052   5.390   0.783 -0.0013 -0.7510 -0.1892
  784MOL0     C 5725   3.178   5.380   0.864  0.7526  0.1098  0.3652
  784MOL0     C 5726   3.251   5.515   0.850  0.5660  0.5441 -0.1358
  784MOL0     C 5727   3.351   5.530   0.963  0.5670  0.9381 -0.1849
  784MOL0     C 5728   3.478   5.449   0.955 -0.2463 -0.3346 -1.1177
  784MOL0     O 5729   3.550   5.488   0.837 -0.0831 -0.4839 -1.0122
  784MOL0     C 5730   3.650   5.415   0.782 -0.2049 -0.2992  0.7303
  784MOL0     C 5731   3.687   5.287   0.817 -0.9238  0.2982 -0.0871
  784MOL0     C 5732   3.798   5.223   0.760  0.5502  0.6233 -0.6932
  784MOL0     C 5733   3.818   5.087   0.802 -0.0817  1.0765 -0.2999
  784MOL0     C 5734   3.869   5.289   0.656  0.0530  0.1802  0.0183
  784MOL0     C 5735   3.962   5.219   0.565  0.1926 -0.1080  0.6921
  784MOL0     O 5736   4.063   5.294   0.516  0.5727 -0.4427  0.2838
  784MOL0     C 5737   4.157   5.243   0.429 -0.8350  0.0413 -0.8375
  784MOL0     C 5738   4.268   5.178   0.492  0.1528  0.0562 -0.0102
  784MOL0     C 5739   4.367   5.125   0.419 -0.3288  0.3470 -0.7236
  784MOL0     C 5740   4.361   5.122   0.277 -0.9546  0.4171 -0.5074
  784MOL0     O 5741   4.471   5.064   0.220  0.2188 -0.2546  0.2054
  784MOL0     C 5742   4.572   5.164   0.203 -0.2510 -1.0120 -0.2140
  784MOL0     C 5743   4.690   5.103   0.126  1.2387 -0.0806  0.6795
  784MOL0     C 5744   4.721   4.971   0.196  0.2056  0.2157  0.2417
  784MOL0     C 5745   4.830   4.901   0.116 -0.4695 -0.0981 -0.5705
  784MOL0     C 5746   4.892   4.791   0.201  0.6094  0.6090  0.1812
  784MOL0     C 5747   4.996   4.713   0.129 -0.4108 -0.0479  0.2844
  784MOL0     C 5748   5.108   4.796   0.066  0.1694 -0.1476 -0.0252
  784MOL0     C 5749   5.208   4.715  -0.027 -0.1894  0.3879  0.3148
  784MOL0    Cl 5750   5.129   4.621  -0.160  0.4374  0.2007 -0.0671
  784MOL0     C 5751   4.254   5.183   0.214 -0.0117 -0.5910 -0.2336
  784MOL0     C 5752   4.156   5.248   0.290  0.0392  0.2413  0.5855
  784MOL0     O 5753   3.929   5.103   0.528 -0.5358 -0.1489  0.1329
  784MOL0     C 5754   3.833   5.424   0.620 -0.4136 -0.7887 -0.0495
  784MOL0     C 5755   3.722   5.482   0.684  0.2383 -0.5495  0.5564
  784MOL0     N 5756   2.926   5.371   0.820  0.2573  0.2725 -0.7208
  784MOL0     N 5757   2.854   5.381   0.711 -0.0905 -0.7141  0.4068
  784MOL0     C 5758   3.636   6.029   0.364  0.2289 -0.6212 -0.0036
  784MOL0     C 5759   3.761   6.058   0.409  0.3682 -0.2376 -0.3645
  784MOL0     C 5760   4.216   6.156   0.298 -0.0517  0.0398  0.1211
  784MOL0     C 5761   4.298   6.210   0.193  0.1191 -1.1211 -0.4977
  784MOL0     C 5762   4.438   6.194   0.202 -0.1457 -0.3233  0.1568
  784MOL0     C 5763   4.504   6.118   0.309 -0.0034 -0.2633  0.5614
  784MOL0     O 5764   4.641   6.084   0.307  0.1061 -0.1448 -0.7033
  784MOL0     C 5765   4.725   6.201   0.345  0.2473 -0.5300  1.0308
  784MOL0     C 5766   4.773   6.176   0.497 -0.5500 -0.0947  0.4483
  784MOL0     C 5767   4.824   6.305   0.563 -0.3662  0.7324  0.0026
  784MOL0     C 5768   4.812   6.313   0.711 -0.8484  0.3142  0.1522
  784MOL0     C 5769   4.682   6.275   0.767 -0.0733 -0.3123  0.4729
  784MOL0     C 5770   4.574   6.246   0.799  0.2117  0.1468 -0.5792
  784MOL0     C 5771   4.415   6.068   0.405 -1.0660  0.2270 -0.2535
  784MOL0     C 5772   4.279   6.082   0.400 -0.2564 -0.2067 -0.1680
  784MOL0     H 5773   3.947   6.009   0.127  0.0604 -2.5016  1.3013
  784MOL0     H 5774   3.711   5.950   0.039  1.9390  2.7380 -0.2626
  784MOL0     H 5775   3.418   5.839   0.300 -0.1903  0.3434  1.0472
  784MOL0     H 5776   3.349   6.002   0.318 -1.6562 -3.2545  1.5713
  784MOL0     H 5777   3.233   5.964   0.106  0.1714 -0.9179 -0.6216
  784MOL0     H 5778   3.316   5.798   0.099  2.5418 -1.0549  2.5810
  784MOL0     H 5779   3.197   5.732   0.303 -0.4106 -1.2119 -1.8266
  784MOL0     H 5780   3.131   5.902   0.314  3.4268  0.4674  0.4922
  784MOL0     H 5781   3.015   5.856   0.100 -4.4558 -0.3805  3.3440
  784MOL0     H 5782   3.081   5.698   0.074 -0.9217  1.5545 -2.6633
  784MOL0     H 5783   2.899   5.790   0.311 -1.3412 -2.2639  2.9474
  784MOL0     H 5784   2.852   5.689   0.176 -0.3005 -2.2970  1.7039
  784MOL0     H 5785   3.037   5.518   0.271 -0.1245  0.3711 -0.7074
  784MOL0     H 5786   3.038   5.621   0.411  1.4465  2.7900 -2.2471
  784MOL0     H 5787   2.807   5.581   0.459  1.7357  2.5773 -1.1358
  784MOL0     H 5788   2.786   5.486   0.305 -1.8809 -3.1046  1.6683
  784MOL0     H 5789   2.983   5.344   0.413  1.4108  2.3544 -0.2774
  784MOL0     H 5790   2.809   5.323   0.443  1.9298 -2.6071 -1.3624
  784MOL0     H 5791   3.151   5.443   0.591  2.0344 -0.6679  0.2760
  784MOL0     H 5792   3.152   5.356   0.968 -3.7078  0.3461 -0.5017
  784MOL0     H 5793   3.239   5.301   0.819 -1.9854 -1.4798 -0.8097
  784MOL0     H 5794   3.183   5.599   0.863  1.5335  1.0722  1.9152
  784MOL0     H 5795   3.294   5.515   0.749 -2.1243 -1.6417 -1.4163
  784MOL0     H 5796   3.294   5.514   1.055 -1.7118 -1.2518 -1.8738
  784MOL0     H 5797   3.389   5.632   0.972  2.8864  0.0992  0.1198
  784MOL0     H 5798   3.466   5.340   0.956 -0.4403 -0.3296  0.9629
  784MOL0     H 5799   3.540   5.474   1.041 -0.9771 -1.5534 -0.1887
  784MOL0     H 5800   3.650   5.230   0.902  2.1219 -0.3456  0.9149
  784MOL0     H 5801   3.820   5.076   0.910  2.5259 -2.1733 -0.5372
  784MOL0     H 5802   3.752   5.014   0.754  3.8005 -1.1769 -2.7717
  784MOL0     H 5803   3.917   5.055   0.770  0.3122  0.2301  1.6594
  784MOL0     H 5804   4.278   5.170   0.600 -3.2741 -1.7460  0.3184
  784MOL0     H 5805   4.446   5.077   0.476  1.0857  0.9534 -2.1199
  784MOL0     H 5806   4.532   5.251   0.149 -1.2233 -0.7100  0.9245
  784MOL0     H 5807   4.603   5.202   0.301  1.8637  0.5961 -1.4259
  784MOL0     H 5808   4.663   5.095   0.020 -0.8401  1.0420  1.0585
  784MOL0     H 5809   4.773   5.174   0.127  1.6917 -0.6055  0.4589
  784MOL0     H 5810   4.632   4.907   0.198  0.4095 -0.0552  0.8095
  784MOL0     H 5811   4.756   5.001   0.295 -0.9132 -0.2967  0.8139
  784MOL0     H 5812   4.795   4.878   0.015 -1.7268  1.6063 -0.5689
  784MOL0     H 5813   4.909   4.975   0.099 -0.0753 -0.5984 -0.9474
  784MOL0     H 5814   4.816   4.720   0.233  2.3792 -1.0081  0.9534
  784MOL0     H 5815   4.929   4.839   0.292 -3.5564  2.4064  1.1803
  784MOL0     H 5816   5.038   4.643   0.201  1.0082  1.6905  1.2286
  784MOL0     H 5817   4.939   4.650   0.060 -3.7052  0.3658  2.3897
  784MOL0     H 5818   5.172   4.846   0.140  0.9540 -2.3432  0.8376
  784MOL0     H 5819   5.066   4.869  -0.004 -2.0042 -0.5360  0.7790
  784MOL0     H 5820   5.266   4.644   0.033 -0.2572  0.8224  0.8963
  784MOL0     H 5821   5.272   4.795  -0.067 -2.0591  1.5061 -0.5462
  784MOL0     H 5822   4.253   5.202   0.107 -1.4340 -0.7406 -0.2643
  784MOL0     H 5823   4.094   5.316   0.232  1.7496  2.6500  1.4347
  784MOL0     H 5824   3.877   5.470   0.532  1.6155  0.1487  1.3690
  784MOL0     H 5825   3.690   5.585   0.668 -0.3874 -0.6047  1.4009
  784MOL0     H 5826   3.550   6.039   0.428  2.2327  2.7798  2.5022
  784MOL0     H 5827   3.773   6.071   0.516 -0.2452 -0.5841 -0.2525
  784MOL0     H 5828   4.267   6.272   0.109 -0.7934  0.6330  1.0520
  784MOL0     H 5829   4.504   6.232   0.126  0.5152  0.0692  0.9181
  784MOL0     H 5830   4.808   6.210   0.275 -2.2057 -2.0449 -2.3487
  784MOL0     H 5831   4.663   6.291   0.342  0.5279 -0.2941  1.9085
  784MOL0     H 5832   4.850   6.099   0.495  1.9188  2.2322 -1.4625
  784MOL0     H 5833   4.686   6.144   0.557 -0.4222 -1.1746  0.0817
  784MOL0     H 5834   4.768   6.388   0.519  0.5399  1.5539  0.3633
  784MOL0     H 5835   4.930   6.308   0.537 -0.6568 -0.4746 -1.5128
  784MOL0     H 5836   4.846   6.416   0.727  2.0316 -0.1313 -2.2351
  784MOL0     H 5837   4.891   6.252   0.756 -1.4911  0.1688  1.1270
  784MOL0     H 5838   4.469   6.226   0.808  0.3038  0.1753  0.6989
  784MOL0     H 5839   4.462   6.012   0.486 -1.2569  2.2301  1.3141
  784MOL0     H 5840   4.217   6.029   0.473 -1.1761  1.2807  0.1796
  785MOL0     O 5841   9.515   2.226   1.851  0.1269  0.2145 -0.3454
  785MOL0     C 5842   9.574   2.128   1.793 -0.2002  0.5775  0.1869
  785MOL0     O 5843   9.511   2.012   1.768  0.0357 -0.9205  0.7042
  785MOL0     C 5844   9.379   2.002   1.803  0.6491 -0.7173 -0.3571
  785MOL0     C 5845   9.334   1.910   1.900 -0.7656  1.0109  0.4109
  785MOL0     C 5846   9.201   1.899   1.929 -0.6706  0.7680  0.8149
  785MOL0     C 5847   9.100   1.975   1.869  0.2268  0.0471  0.1571
  785MOL0     O 5848   8.966   1.964   1.906 -0.4872 -0.6708  0.0983
  785MOL0     C 5849   8.881   2.082   1.883 -0.6653 -0.4556 -0.0121
  785MOL0     C 5850   8.751   2.079   1.964 -0.1969 -0.1452  0.2638
  785MOL0     C 5851   8.627   2.155   1.906  0.4635 -1.2337  0.2109
  785MOL0     C 5852   8.501   2.110   1.979 -0.1887  0.0157 -1.5300
  785MOL0     C 5853   8.380   2.166   1.904 -0.1337  0.7759 -0.2690
  785MOL0     C 5854   8.346   2.136   1.763 -0.8175 -0.0152  0.2822
  785MOL0     C 5855   8.351   1.986   1.752 -1.1801 -0.0292 -0.8315
  785MOL0     C 5856   8.277   1.937   1.620  0.3056 -0.4724 -0.7197
  785MOL0     N 5857   8.134   1.962   1.629  0.4737  0.0131  0.1637
  785MOL0     C 5858   8.056   1.921   1.732  0.1125 -0.0846  0.5644
  785MOL0     C 5859   7.931   1.958   1.692 -0.5299 -0.7396  0.0001
  785MOL0     C 5860   7.803   1.944   1.777 -0.6228  0.3246 -0.7127
  785MOL0     C 5861   7.689   1.877   1.690  0.2824 -0.1531  0.2545
  785MOL0     C 5862   7.603   1.979   1.603 -0.2845  0.5315 -0.3805
  785MOL0     C 5863   7.464   1.928   1.572 -0.7313 -0.7007  0.0888
  785MOL0     O 5864   7.480   1.805   1.505 -0.7981  0.1939  0.0573
  785MOL0     C 5865   7.369   1.734   1.468  0.0403  0.2560  0.7320
  785MOL0     C 5866   7.377   1.592   1.449  0.2275  0.4545 -0.3322
  785MOL0     C 5867   7.268   1.514   1.411  0.3009 -0.3114  0.2347
  785MOL0     C 5868   7.305   1.363   1.397  0.0107 -0.7291 -0.4467
  785MOL0     C 5869   7.146   1.580   1.385 -0.4686 -0.4616 -0.2114
  785MOL0     C 5870   7.022   1.517   1.341  0.0939  0.3074  0.1557
  785MOL0     O 5871   6.928   1.606   1.275  0.0141  0.6619 -0.5663
  785MOL0     C 5872   6.802   1.559   1.227 -0.4683  0.9829  0.0688
  785MOL0     C 5873   6.687   1.644   1.213 -0.1188  0.1639 -0.5147
  785MOL0     C 5874   6.561   1.595   1.187 -0.2425 -0.3187 -0.3234
  785MOL0     C 5875   6.546   1.464   1.134  0.3729 -1.1405  0.0974
  785MOL0     O 5876   6.424   1.414   1.089  0.2888  0.5466 -0.0692
  785MOL0     C 5877   6.330   1.511   1.051  0.7226 -0.3991  0.2892
  785MOL0     C 5878   6.207   1.439   0.987 -0.1930 -0.9375  0.5141
  785MOL0     C 5879   6.112   1.544   0.917  0.3755  0.4744 -0.0564
  785MOL0     C 5880   5.967   1.501   0.937  1.1030 -1.3666  0.7271
  785MOL0     C 5881   5.857   1.585   0.862 -0.0483 -0.0874 -0.4737
  785MOL0     C 5882   5.716   1.529   0.894  1.3695  0.4688 -1.3592
  785MOL0     C 5883   5.611   1.611   0.812  0.7440  0.9763 -0.1536
  785MOL0     C 5884   5.474   1.546   0.823 -0.1601 -0.1784  0.6706
  785MOL0    Cl 5885   5.392   1.578   0.978 -0.3935  0.1908  0.1573
  785MOL0     C 5886   6.659   1.385   1.130 -0.1378 -0.3550  0.1255
  785MOL0     C 5887   6.788   1.425   1.179  0.1223  0.7139  0.3330
  785MOL0     O 5888   6.995   1.399   1.361  0.0902  0.9698 -0.4663
  785MOL0     C 5889   7.135   1.717   1.409  0.5580 -0.2855 -0.2627
  785MOL0     C 5890   7.242   1.794   1.451 -0.0190 -0.4834  0.3053
  785MOL0     N 5891   7.938   2.025   1.574 -0.9523  0.8489 -0.3242
  785MOL0     N 5892   8.057   2.021   1.529 -0.1407  0.0940  0.0810
  785MOL0     C 5893   9.148   2.065   1.769 -0.0012  0.4011  0.4911
  785MOL0     C 5894   9.285   2.077   1.738  0.2989  0.4247 -0.8891
  785MOL0     C 5895   9.720   2.144   1.771 -0.0525 -0.1116  0.0580
  785MOL0     C 5896   9.782   2.264   1.810 -0.6099  0.1270 -0.4537
  785MOL0     C 5897   9.923   2.288   1.773 -0.3583 -0.6299 -0.1120
  785MOL0     C 5898   9.999   2.192   1.713 -0.5306 -0.5722  0.2849
  785MOL0     O 5899  10.129   2.231   1.704 -0.2609  0.0245  0.3773
  785MOL0     C 5900  10.215   2.152   1.627 -0.4789  0.2009  0.5877
  785MOL0     C 5901  10.271   2.046   1.720 -0.6025  0.0835 -0.4971
  785MOL0     C 5902  10.384   2.109   1.814 -0.2709 -0.0643  0.5380
  785MOL0     C 5903  10.521   2.039   1.804 -0.2761  0.8731 -0.6938
  785MOL0     C 5904  10.573   2.027   1.664  0.1424 -0.1112 -0.0241
  785MOL0     C 5905  10.617   2.018   1.547  0.6285  0.4106  0.0514
  785MOL0     C 5906   9.930   2.074   1.670  0.2803 -0.1064  0.4856
  785MOL0     C 5907   9.792   2.053   1.694  0.1360  0.8044 -0.0011
  785MOL0     H 5908   9.402   1.844   1.953 -3.7808 -1.1299  1.9672
  785MOL0     H 5909   9.175   1.834   2.012  1.4932 -1.1721  0.1068
  785MOL0     H 5910   8.924   2.179   1.907  1.8401 -1.5540  0.1896
  785MOL0     H 5911   8.855   2.076   1.777  0.4700 -1.9539 -0.2382
  785MOL0     H 5912   8.716   1.976   1.975 -3.5627  0.8068 -0.2744
  785MOL0     H 5913   8.767   2.104   2.069  0.5822  0.7720 -0.0595
  785MOL0     H 5914   8.642   2.263   1.912 -0.2196 -1.2055  2.4087
  785MOL0     H 5915   8.619   2.136   1.799  1.1837 -0.7383  0.0580
  785MOL0     H 5916   8.486   2.001   1.982  3.5855 -0.6907  2.7194
  785MOL0     H 5917   8.501   2.131   2.086 -1.3698 -1.0775 -1.2796
  785MOL0     H 5918   8.296   2.134   1.966 -0.1707 -0.0471 -0.7236
  785MOL0     H 5919   8.391   2.274   1.910  1.2239  0.7881 -2.1580
  785MOL0     H 5920   8.240   2.156   1.746 -0.8711 -2.2474 -3.0423
  785MOL0     H 5921   8.405   2.192   1.690  0.7218 -1.2172  0.5522
  785MOL0     H 5922   8.450   1.940   1.747 -0.0409  2.0570  0.6761
  785MOL0     H 5923   8.299   1.950   1.842  0.0325  1.9891  0.7754
  785MOL0     H 5924   8.297   1.830   1.615  1.5981 -0.4012  1.6239
  785MOL0     H 5925   8.304   1.992   1.529  1.0270 -0.1847 -0.3373
  785MOL0     H 5926   8.086   1.873   1.826  0.2022 -0.4937  0.3308
  785MOL0     H 5927   7.815   1.867   1.854 -4.9160  0.4548  0.3294
  785MOL0     H 5928   7.766   2.026   1.839 -0.1349  0.1887 -0.2338
  785MOL0     H 5929   7.616   1.828   1.755  0.6404 -0.5775  0.3369
  785MOL0     H 5930   7.726   1.803   1.620 -0.0612  1.1879 -1.4187
  785MOL0     H 5931   7.652   1.985   1.506  1.8112 -2.0786  0.3880
  785MOL0     H 5932   7.605   2.083   1.635 -0.5306  0.2064  0.7574
  785MOL0     H 5933   7.408   2.003   1.516 -0.5860 -1.5041 -1.1711
  785MOL0     H 5934   7.409   1.922   1.667 -4.9950  0.5507 -2.0510
  785MOL0     H 5935   7.466   1.534   1.470  0.5363  0.2796 -2.0312
  785MOL0     H 5936   7.397   1.357   1.336  0.5018  1.8192 -0.0587
  785MOL0     H 5937   7.316   1.309   1.491 -1.9934 -1.2748 -0.4984
  785MOL0     H 5938   7.230   1.315   1.334 -2.4014  1.9425  0.1803
  785MOL0     H 5939   6.695   1.747   1.246 -1.3614 -0.0537  0.5391
  785MOL0     H 5940   6.485   1.666   1.216 -0.2597 -0.4597 -0.0174
  785MOL0     H 5941   6.304   1.572   1.138 -1.0909 -0.7142  0.0081
  785MOL0     H 5942   6.376   1.578   0.977 -1.7074 -0.5152 -1.4351
  785MOL0     H 5943   6.232   1.366   0.910 -3.7925 -1.0056 -0.7997
  785MOL0     H 5944   6.156   1.384   1.067  1.1646 -0.6625  1.6096
  785MOL0     H 5945   6.132   1.549   0.810 -0.5147 -3.2320 -0.5153
  785MOL0     H 5946   6.124   1.638   0.972  1.7466 -0.8089  1.9445
  785MOL0     H 5947   5.961   1.396   0.909 -3.5858 -1.0004 -0.5738
  785MOL0     H 5948   5.956   1.512   1.046 -2.5519  4.1510  0.1867
  785MOL0     H 5949   5.888   1.585   0.757  1.6199  1.8921 -0.0436
  785MOL0     H 5950   5.859   1.686   0.903  0.8331 -0.7311  1.1675
  785MOL0     H 5951   5.714   1.420   0.885  1.2292  0.4790 -1.4543
  785MOL0     H 5952   5.697   1.547   1.000  0.0327 -0.9889 -1.3228
  785MOL0     H 5953   5.645   1.603   0.708  0.0088  1.9392 -0.4754
  785MOL0     H 5954   5.613   1.719   0.824  0.6984  0.8472  1.1804
  785MOL0     H 5955   5.492   1.438   0.816 -2.6380 -0.5464 -1.5313
  785MOL0     H 5956   5.417   1.586   0.739 -0.9250  2.0790  2.1739
  785MOL0     H 5957   6.656   1.285   1.088  3.0001 -0.4273 -0.1639
  785MOL0     H 5958   6.870   1.358   1.154 -0.6437  0.3060 -1.1563
  785MOL0     H 5959   7.041   1.770   1.399  0.6061  0.0312  0.8412
  785MOL0     H 5960   7.229   1.900   1.473  1.5343 -0.2235  0.1112
  785MOL0     H 5961   9.077   2.114   1.702  0.6688 -0.2497 -0.7301
  785MOL0     H 5962   9.325   2.143   1.661 -0.1247 -0.0149 -1.5011
  785MOL0     H 5963   9.743   2.343   1.872  1.4724  0.5583  0.3973
  785MOL0     H 5964   9.967   2.383   1.802 -3.0402 -0.0380  2.4175
  785MOL0     H 5965  10.153   2.104   1.551  0.3555  0.0888 -0.0466
  785MOL0     H 5966  10.299   2.201   1.577  0.3222 -2.7552 -1.1895
  785MOL0     H 5967  10.311   1.961   1.663 -2.5724 -2.1974  1.2697
  785MOL0     H 5968  10.192   2.013   1.788 -0.8765  1.4511 -0.1284
  785MOL0     H 5969  10.352   2.094   1.918  1.3602 -2.7220  0.7337
  785MOL0     H 5970  10.387   2.217   1.794  2.0397 -0.2788 -0.5027
  785MOL0     H 5971  10.506   1.940   1.847 -1.3006  1.0486 -0.6262
  785MOL0     H 5972  10.592   2.089   1.871 -1.8741  2.2174  0.0675
  785MOL0     H 5973  10.647   2.037   1.446  2.1028 -2.2917 -0.1080
  785MOL0     H 5974   9.987   1.993   1.625  0.7279  1.1247 -1.2951
  785MOL0     H 5975   9.728   1.972   1.659  0.3072  1.0802 -1.0031
  786MOL0     O 5976   0.770   4.887   2.282  0.2400  0.2346  0.1063
  786MOL0     C 5977   0.745   4.993   2.225 -0.5984 -0.1580  0.4986
  786MOL0     O 5978   0.624   5.047   2.200 -0.4315 -0.0721  0.1696
  786MOL0     C 5979   0.513   4.983   2.255  0.1556 -0.3096  0.6907
  786MOL0     C 5980   0.399   4.982   2.174  0.9128  0.4749 -0.7018
  786MOL0     C 5981   0.275   4.930   2.225 -0.2137 -0.3279 -0.5232
  786MOL0     C 5982   0.269   4.888   2.353 -0.3423 -0.0245  0.1203
  786MOL0     O 5983   0.142   4.834   2.399  0.2890 -0.1821  0.6230
  786MOL0     C 5984   0.129   4.785   2.531 -0.1902 -0.7205  0.7371
  786MOL0     C 5985  -0.019   4.750   2.548 -0.2438 -0.6751 -0.1968
  786MOL0     C 5986  -0.110   4.874   2.514 -1.0136 -0.8746 -0.5112
  786MOL0     C 5987  -0.224   4.826   2.437  0.7000  0.1948 -0.0124
  786MOL0     C 5988  -0.320   4.941   2.413  0.0891  0.5028  0.0939
  786MOL0     C 5989  -0.419   4.894   2.301 -0.1299 -1.2612 -0.3458
  786MOL0     C 5990  -0.536   4.996   2.284  0.2403  0.1773 -0.0455
  786MOL0     C 5991  -0.638   4.963   2.169  1.0052 -0.5815 -0.7877
  786MOL0     N 5992  -0.674   4.817   2.176  0.0067 -0.3358 -0.5033
  786MOL0     C 5993  -0.618   4.721   2.094  0.6883  0.7233  0.5715
  786MOL0     C 5994  -0.687   4.608   2.105  0.4902 -0.6024 -0.0322
  786MOL0     C 5995  -0.656   4.475   2.039 -0.1430 -0.1376  0.4689
  786MOL0     C 5996  -0.729   4.469   1.904  0.6525 -0.1800 -0.1951
  786MOL0     C 5997  -0.887   4.448   1.930  0.1309  0.0433  0.0315
  786MOL0     C 5998  -0.962   4.489   1.805  0.6510 -0.6361 -0.0289
  786MOL0     O 5999  -1.098   4.524   1.838  0.2578 -0.0209 -0.0554
  786MOL0     C 6000  -1.194   4.424   1.840 -0.2801 -0.4999 -0.1314
  786MOL0     C 6001  -1.175   4.280   1.819  0.6361  0.5734  0.1579
  786MOL0     C 6002  -1.276   4.184   1.806  0.4177 -0.1225  0.3345
  786MOL0     C 6003  -1.239   4.034   1.796 -0.3917  0.2044  0.2909
  786MOL0     C 6004  -1.416   4.236   1.817 -0.4735 -0.8724 -0.0176
  786MOL0     C 6005  -1.546   4.159   1.815 -0.4650  0.5579 -0.3423
  786MOL0     O 6006  -1.661   4.225   1.833 -0.0528  0.0347 -0.5153
  786MOL0     C 6007  -1.778   4.164   1.807 -0.5889 -0.0539  0.2740
  786MOL0     C 6008  -1.864   4.133   1.912  0.0351 -0.4932  0.3137
  786MOL0     C 6009  -1.975   4.057   1.886  0.2284 -0.2971  0.5445
  786MOL0     C 6010  -2.009   4.025   1.756 -0.2093 -1.0413  0.2811
  786MOL0     O 6011  -2.117   3.949   1.726 -0.4772  0.6969 -0.3216
  786MOL0     C 6012  -2.211   3.904   1.827 -1.0826  0.0794  0.5366
  786MOL0     C 6013  -2.348   3.889   1.775 -0.5064  0.2436  0.5203
  786MOL0     C 6014  -2.398   4.018   1.713 -0.8298 -0.5864 -0.9972
  786MOL0     C 6015  -2.543   4.005   1.679 -0.1064  0.5327 -0.2910
  786MOL0     C 6016  -2.584   4.145   1.643  0.2637 -0.3982 -0.2851
  786MOL0     C 6017  -2.735   4.158   1.605 -0.6107 -0.1747 -0.4965
  786MOL0     C 6018  -2.773   4.304   1.576 -0.8939  0.4986  0.2476
  786MOL0     C 6019  -2.915   4.346   1.535 -0.4932 -0.0664  0.2205
  786MOL0    Cl 6020  -2.938   4.380   1.351  0.2555  0.5795 -0.1606
  786MOL0     C 6021  -1.928   4.061   1.642 -1.0080  0.9566  0.0603
  786MOL0     C 6022  -1.812   4.132   1.678  0.6947  0.4663  0.7606
  786MOL0     O 6023  -1.536   4.044   1.787  0.7207  0.4107  0.2665
  786MOL0     C 6024  -1.435   4.376   1.832 -0.0946 -0.3553 -0.2012
  786MOL0     C 6025  -1.328   4.466   1.853 -0.1341  0.1903  0.2627
  786MOL0     N 6026  -0.789   4.634   2.203 -0.0462  0.3513 -0.0045
  786MOL0     N 6027  -0.774   4.762   2.249  0.0151  0.0084  0.4416
  786MOL0     C 6028   0.380   4.892   2.436  1.0704  0.1944 -0.2689
  786MOL0     C 6029   0.501   4.938   2.385  1.1106  0.3932 -0.5099
  786MOL0     C 6030   0.861   5.067   2.170  0.3347  0.1291 -0.7167
  786MOL0     C 6031   0.841   5.188   2.096 -0.9716  0.4001  0.6129
  786MOL0     C 6032   0.955   5.242   2.036 -0.8148 -0.0923  0.0983
  786MOL0     C 6033   1.077   5.176   2.032 -0.1251 -0.2777 -1.0103
  786MOL0     O 6034   1.184   5.207   1.952 -0.2729 -0.0993 -1.0234
  786MOL0     C 6035   1.179   5.301   1.846 -0.5401  0.9970 -0.0143
  786MOL0     C 6036   1.294   5.286   1.741  0.5997 -0.0063 -1.0377
  786MOL0     C 6037   1.421   5.319   1.818 -0.5178 -0.3217  0.1667
  786MOL0     C 6038   1.547   5.308   1.730 -0.2532  0.2314  0.1719
  786MOL0     C 6039   1.672   5.321   1.804  0.7048 -0.3571 -0.0675
  786MOL0     C 6040   1.772   5.333   1.859 -0.1077  0.3493  0.2992
  786MOL0     C 6041   1.094   5.066   2.113 -0.2083  0.2419 -0.5904
  786MOL0     C 6042   0.987   5.014   2.187 -0.2065  0.1744  0.3728
  786MOL0     H 6043   0.402   5.001   2.067  2.0542  0.6990 -0.6340
  786MOL0     H 6044   0.180   4.932   2.171 -0.0143 -1.1744 -0.9269
  786MOL0     H 6045   0.199   4.707   2.562  0.5649  0.2930  1.5969
  786MOL0     H 6046   0.157   4.866   2.598  2.8758  2.4475 -3.8264
  786MOL0     H 6047  -0.045   4.663   2.486 -3.4964 -0.3623  0.5438
  786MOL0     H 6048  -0.034   4.718   2.652 -0.7411 -0.3416 -0.1620
  786MOL0     H 6049  -0.160   4.921   2.600 -0.3328 -0.2685 -0.4363
  786MOL0     H 6050  -0.052   4.953   2.465 -1.0529  0.4985  1.4959
  786MOL0     H 6051  -0.191   4.792   2.339  0.1894  0.7644 -0.3825
  786MOL0     H 6052  -0.277   4.739   2.477 -0.3757 -0.1230 -2.0103
  786MOL0     H 6053  -0.376   4.962   2.505  2.0442 -0.2117  1.5137
  786MOL0     H 6054  -0.275   5.034   2.376 -0.3611 -0.2816 -2.6508
  786MOL0     H 6055  -0.361   4.875   2.210 -0.3128 -0.2342 -0.6953
  786MOL0     H 6056  -0.466   4.800   2.332 -4.7660  0.7692 -0.4096
  786MOL0     H 6057  -0.598   5.009   2.374  0.2805 -0.1580  0.0325
  786MOL0     H 6058  -0.496   5.096   2.263  0.8870  0.2825  1.5434
  786MOL0     H 6059  -0.601   4.990   2.070 -1.4885 -2.2323 -2.2632
  786MOL0     H 6060  -0.730   5.023   2.172 -0.2978 -2.5570  0.8137
  786MOL0     H 6061  -0.539   4.730   2.021  0.4275 -3.2750 -0.4245
  786MOL0     H 6062  -0.547   4.466   2.028 -0.1175  0.0525  0.5486
  786MOL0     H 6063  -0.695   4.403   2.110 -0.0438 -0.4895  0.1678
  786MOL0     H 6064  -0.686   4.384   1.851 -1.4734 -2.8696  2.0732
  786MOL0     H 6065  -0.706   4.561   1.849 -2.0167  1.5578  1.3220
  786MOL0     H 6066  -0.920   4.503   2.019  0.5334 -1.6350  1.2724
  786MOL0     H 6067  -0.902   4.342   1.952  0.3195 -0.4877 -2.1816
  786MOL0     H 6068  -0.961   4.406   1.734 -2.9146 -1.6965  0.9510
  786MOL0     H 6069  -0.910   4.573   1.758  1.3731  0.2083  2.1350
  786MOL0     H 6070  -1.069   4.259   1.813  1.4200  4.0576 -0.0846
  786MOL0     H 6071  -1.135   4.015   1.824 -0.8041  2.3704  3.9757
  786MOL0     H 6072  -1.297   3.974   1.868  0.8244  0.3843  1.4518
  786MOL0     H 6073  -1.264   4.007   1.693  0.8001  0.8815 -0.1958
  786MOL0     H 6074  -1.835   4.145   2.016 -0.0546 -0.0663  0.2890
  786MOL0     H 6075  -2.045   4.027   1.963 -1.5083 -1.7378 -1.4788
  786MOL0     H 6076  -2.173   3.813   1.873 -0.4636  0.9960  1.8876
  786MOL0     H 6077  -2.232   3.982   1.901 -0.0161 -0.0024  0.9392
  786MOL0     H 6078  -2.353   3.809   1.700 -0.7585 -0.5786  1.3854
  786MOL0     H 6079  -2.414   3.867   1.859 -1.7919 -1.8719 -0.9348
  786MOL0     H 6080  -2.333   4.044   1.629 -0.2611  2.6191  0.3045
  786MOL0     H 6081  -2.395   4.102   1.783 -0.1155  0.4450 -2.2202
  786MOL0     H 6082  -2.559   3.936   1.596  1.2448 -1.0927  0.7308
  786MOL0     H 6083  -2.598   3.990   1.772  0.1240 -0.1242 -0.2592
  786MOL0     H 6084  -2.514   4.193   1.573 -0.6177  1.9242  0.3355
  786MOL0     H 6085  -2.580   4.196   1.739 -1.0392  0.2304 -0.5464
  786MOL0     H 6086  -2.755   4.100   1.514 -2.1438 -2.6923  1.3164
  786MOL0     H 6087  -2.796   4.109   1.681  0.4131  0.9471  1.1014
  786MOL0     H 6088  -2.697   4.337   1.505  0.9781 -1.1126  1.4013
  786MOL0     H 6089  -2.744   4.358   1.667  0.2104  0.7194 -0.2192
  786MOL0     H 6090  -2.956   4.431   1.592 -1.3339  1.0126 -1.8704
  786MOL0     H 6091  -2.983   4.264   1.561  0.6166 -0.9121  0.5258
  786MOL0     H 6092  -1.943   4.034   1.538 -0.0653  0.1975  0.1015
  786MOL0     H 6093  -1.743   4.158   1.599  0.7362  0.3450  0.7565
  786MOL0     H 6094  -1.536   4.414   1.847  0.0627 -0.0014 -0.0089
  786MOL0     H 6095  -1.341   4.572   1.876  2.4284  0.3696  1.1852
  786MOL0     H 6096   0.370   4.861   2.539  2.3019 -0.2181 -0.2629
  786MOL0     H 6097   0.576   4.956   2.462  1.9553  0.0435 -1.2228
  786MOL0     H 6098   0.750   5.246   2.087 -2.0642 -0.7133  3.3298
  786MOL0     H 6099   0.960   5.334   1.978 -2.1508  0.0836  0.2355
  786MOL0     H 6100   1.083   5.287   1.795  0.2660  2.1640 -1.9722
  786MOL0     H 6101   1.177   5.404   1.881 -0.5837  0.4044  1.8047
  786MOL0     H 6102   1.277   5.367   1.669 -1.9892  1.3591  0.9317
  786MOL0     H 6103   1.289   5.189   1.690 -0.5625 -0.7191  0.3455
  786MOL0     H 6104   1.434   5.245   1.898  1.9063 -0.3413 -0.1646
  786MOL0     H 6105   1.412   5.416   1.869  0.4664  0.3603 -0.9147
  786MOL0     H 6106   1.541   5.386   1.653  1.5155 -1.2903 -1.6312
  786MOL0     H 6107   1.560   5.213   1.677  0.9133 -0.1241  1.0741
  786MOL0     H 6108   1.870   5.330   1.904  0.4864 -1.2936 -1.0151
  786MOL0     H 6109   1.190   5.016   2.121  0.1499  1.0362  0.2695
  786MOL0     H 6110   0.995   4.929   2.253 -2.7201  0.5376  1.2539
  787MOL0     O 6111   7.016   8.357  10.690  0.4794 -0.9614  0.7862
  787MOL0     C 6112   7.011   8.445  10.779 -0.6555  0.2977  0.3052
  787MOL0     O 6113   6.904   8.498  10.825 -0.5434  0.5424  0.3862
  787MOL0     C 6114   6.784   8.464  10.773  0.5443  0.1782 -0.7313
  787MOL0     C 6115   6.750   8.490  10.639  0.4171 -0.2427 -0.4561
  787MOL0     C 6116   6.619   8.455  10.590  0.4243 -0.6942 -0.4909
  787MOL0     C 6117   6.526   8.395  10.675 -0.6983  0.4963 -0.1798
  787MOL0     O 6118   6.413   8.360  10.612 -0.0894 -0.3894 -0.2052
  787MOL0     C 6119   6.304   8.306  10.681 -0.4106 -0.6251  0.2061
  787MOL0     C 6120   6.181   8.344  10.596 -0.1251  0.2411 -0.1097
  787MOL0     C 6121   6.134   8.483  10.646  0.0249 -0.1705  0.2120
  787MOL0     C 6122   6.025   8.547  10.562  0.1067  0.1064 -0.6418
  787MOL0     C 6123   5.996   8.684  10.582  0.6160 -0.5308 -0.4642
  787MOL0     C 6124   5.898   8.753  10.483 -0.3302 -0.2715  0.0364
  787MOL0     C 6125   5.890   8.905  10.516  0.0445  0.2023  0.5463
  787MOL0     C 6126   5.805   8.998  10.438 -0.6285 -0.3764  0.0590
  787MOL0     N 6127   5.668   8.960  10.465 -0.1001 -0.0006  0.5202
  787MOL0     C 6128   5.571   8.905  10.378 -0.0678 -0.5523  0.1790
  787MOL0     C 6129   5.459   8.906  10.453  0.5196 -0.4143 -1.1590
  787MOL0     C 6130   5.320   8.870  10.397 -0.0617  0.7595 -0.0192
  787MOL0     C 6131   5.320   8.727  10.339 -0.1728  0.1149 -0.2930
  787MOL0     C 6132   5.330   8.619  10.450 -0.5284 -0.8802 -1.4778
  787MOL0     C 6133   5.190   8.601  10.516 -0.0759 -0.3817  0.6164
  787MOL0     O 6134   5.090   8.550  10.426  0.2816  0.6200  0.1561
  787MOL0     C 6135   4.961   8.520  10.478 -0.2265 -1.0068 -0.5876
  787MOL0     C 6136   4.920   8.520  10.615 -1.2339 -0.0903  0.2075
  787MOL0     C 6137   4.788   8.491  10.659 -0.8587  0.2925  0.4681
  787MOL0     C 6138   4.765   8.504  10.807  0.2518 -0.4599 -0.4497
  787MOL0     C 6139   4.699   8.442  10.559  0.9593  0.1290 -0.2988
  787MOL0     C 6140   4.550   8.415  10.587 -0.2116 -0.1174  0.3423
  787MOL0     O 6141   4.478   8.385  10.473  0.8630 -0.0808 -0.0275
  787MOL0     C 6142   4.360   8.329  10.480 -0.5794 -0.2372 -0.1936
  787MOL0     C 6143   4.241   8.404  10.462  0.0584  0.0859 -0.5073
  787MOL0     C 6144   4.113   8.342  10.461  0.3956 -0.5230 -0.7028
  787MOL0     C 6145   4.108   8.206  10.488  0.6894 -0.1444 -0.5307
  787MOL0     O 6146   3.985   8.150  10.503  0.5800  0.4350 -0.1720
  787MOL0     C 6147   3.976   8.009  10.530 -1.0036  0.1507  0.4789
  787MOL0     C 6148   3.830   7.957  10.510 -0.4910 -0.4251 -0.1248
  787MOL0     C 6149   3.727   8.011  10.614 -0.0319 -0.2721 -0.7862
  787MOL0     C 6150   3.586   7.959  10.592  0.3439  0.0544 -0.5169
  787MOL0     C 6151   3.484   8.026  10.683  0.5419 -0.5067  0.1201
  787MOL0     C 6152   3.347   7.954  10.670  0.1487 -0.0695 -0.3325
  787MOL0     C 6153   3.286   7.954  10.539 -0.3113 -0.5296  0.7447
  787MOL0     C 6154   3.153   7.885  10.522  0.2195  0.3365  0.0962
  787MOL0    Cl 6155   3.028   7.943  10.643 -0.0986  0.6909  0.1626
  787MOL0     C 6156   4.227   8.133  10.507 -0.9104 -0.8447  0.1478
  787MOL0     C 6157   4.352   8.190  10.505 -0.7348 -0.3049 -0.7456
  787MOL0     O 6158   4.499   8.438  10.697  0.3545  0.5997  0.1807
  787MOL0     C 6159   4.741   8.428  10.426  0.2813 -0.1878  0.4279
  787MOL0     C 6160   4.868   8.473  10.387 -0.1556 -0.4531 -0.6194
  787MOL0     N 6161   5.492   8.951  10.583  0.1979  0.1941 -0.3016
  787MOL0     N 6162   5.618   8.979  10.588  0.6062  0.0742  0.0662
  787MOL0     C 6163   6.567   8.358  10.804  1.2551  0.2571 -0.2614
  787MOL0     C 6164   6.689   8.397  10.852 -0.8225 -0.4066 -0.1598
  787MOL0     C 6165   7.146   8.502  10.825  0.2130  0.1554  0.2276
  787MOL0     C 6166   7.155   8.609  10.914  0.5015  0.6223 -0.4554
  787MOL0     C 6167   7.282   8.662  10.956 -1.0915 -0.3220 -0.2397
  787MOL0     C 6168   7.404   8.628  10.889  0.3005 -0.5468 -1.1238
  787MOL0     O 6169   7.505   8.705  10.931 -0.4274  0.7472 -0.4348
  787MOL0     C 6170   7.639   8.661  10.891 -0.9320 -0.5963  0.1374
  787MOL0     C 6171   7.734   8.707  11.001  0.3670 -0.0256 -0.0367
  787MOL0     C 6172   7.878   8.653  10.976 -0.4387  0.3639 -0.3433
  787MOL0     C 6173   7.941   8.711  10.853  0.2314 -0.7566  0.1897
  787MOL0     C 6174   8.085   8.716  10.836  1.0246  0.2863  0.3140
  787MOL0     C 6175   8.206   8.727  10.837  0.5150 -0.0144  0.5455
  787MOL0     C 6176   7.393   8.526  10.793  0.5555  0.7896  0.5391
  787MOL0     C 6177   7.271   8.457  10.775  0.3970 -0.1710  0.8774
  787MOL0     H 6178   6.815   8.531  10.563  2.2932  0.3237  1.3827
  787MOL0     H 6179   6.592   8.481  10.488  0.9690  0.4714 -0.3586
  787MOL0     H 6180   6.322   8.199  10.696  3.8903 -0.7382 -3.5031
  787MOL0     H 6181   6.302   8.349  10.781 -2.3079  1.3441 -0.6022
  787MOL0     H 6182   6.198   8.346  10.488 -2.2991  0.1268 -0.4994
  787MOL0     H 6183   6.106   8.268  10.619 -1.1903  0.8275 -1.4452
  787MOL0     H 6184   6.110   8.465  10.751  2.7001  0.1746  0.9627
  787MOL0     H 6185   6.215   8.555  10.631  0.6904 -1.0275 -0.4173
  787MOL0     H 6186   6.064   8.543  10.460  0.4290  0.2205 -0.5236
  787MOL0     H 6187   5.931   8.492  10.571 -0.3242  0.5880 -1.9391
  787MOL0     H 6188   5.955   8.700  10.683 -0.2738  1.6456 -1.1170
  787MOL0     H 6189   6.091   8.738  10.583  1.0286 -1.2257 -1.3299
  787MOL0     H 6190   5.940   8.752  10.382 -0.4659  1.8396 -0.0955
  787MOL0     H 6191   5.801   8.703  10.480 -0.4915  0.0268  0.2710
  787MOL0     H 6192   5.854   8.910  10.619 -2.7234 -2.2759 -0.1537
  787MOL0     H 6193   5.990   8.948  10.498 -0.4153  0.6235 -1.1898
  787MOL0     H 6194   5.829   9.009  10.332  1.7767  2.0630  0.7308
  787MOL0     H 6195   5.835   9.099  10.466 -2.7658  1.1276 -2.5985
  787MOL0     H 6196   5.582   8.866  10.277  0.5769 -0.4424  0.2012
  787MOL0     H 6197   5.238   8.869  10.469 -0.7202 -0.6505 -0.7524
  787MOL0     H 6198   5.295   8.944  10.320 -2.8253 -2.1388 -2.1752
  787MOL0     H 6199   5.405   8.724  10.270 -0.2445  0.2130 -0.3847
  787MOL0     H 6200   5.229   8.716  10.281 -0.3999 -3.5999  0.5262
  787MOL0     H 6201   5.408   8.641  10.524 -0.5393 -1.4859 -1.2863
  787MOL0     H 6202   5.365   8.528  10.401 -0.6042 -1.7140 -0.0328
  787MOL0     H 6203   5.144   8.696  10.542  1.4881  0.8327 -0.8369
  787MOL0     H 6204   5.191   8.539  10.607 -2.9607 -3.0174 -0.9510
  787MOL0     H 6205   4.993   8.542  10.692 -0.5917 -5.1721  1.3937
  787MOL0     H 6206   4.854   8.514  10.870 -1.4255 -3.6029  2.8176
  787MOL0     H 6207   4.696   8.587  10.822 -1.8820 -1.4820 -3.5726
  787MOL0     H 6208   4.718   8.409  10.835 -1.4775  0.5944  0.3856
  787MOL0     H 6209   4.245   8.512  10.466  2.3034  0.0450 -0.5504
  787MOL0     H 6210   4.027   8.407  10.450  1.5189  0.9568 -0.9634
  787MOL0     H 6211   4.029   7.959  10.448 -1.6524  1.3302 -0.7023
  787MOL0     H 6212   4.011   7.982  10.630  2.5995 -0.1976 -0.7662
  787MOL0     H 6213   3.800   7.988  10.410 -2.3479  3.3619  1.3967
  787MOL0     H 6214   3.824   7.848  10.504 -0.6880 -0.4052 -0.2819
  787MOL0     H 6215   3.737   8.120  10.610  0.3142 -0.1586  1.7063
  787MOL0     H 6216   3.755   7.993  10.718  2.0043  1.5180 -0.9527
  787MOL0     H 6217   3.560   7.980  10.488 -2.7429  1.1131  0.3753
  787MOL0     H 6218   3.585   7.852  10.615 -1.8786  0.1133 -0.1119
  787MOL0     H 6219   3.472   8.132  10.661 -0.2970 -0.7682 -0.7316
  787MOL0     H 6220   3.531   8.022  10.782  0.1048 -2.1469  0.2876
  787MOL0     H 6221   3.362   7.855  10.714 -0.7879 -0.2047 -0.3053
  787MOL0     H 6222   3.280   7.994  10.746 -0.3357 -0.3620 -0.6003
  787MOL0     H 6223   3.347   7.907  10.461 -0.6779 -2.2441  1.4623
  787MOL0     H 6224   3.262   8.054  10.500  0.4895 -0.7279 -0.3292
  787MOL0     H 6225   3.159   7.777  10.531  0.3599 -0.2214 -4.3693
  787MOL0     H 6226   3.112   7.904  10.422  0.0008 -1.2014 -0.1264
  787MOL0     H 6227   4.228   8.028  10.537  1.2540 -0.2587  2.5024
  787MOL0     H 6228   4.439   8.127  10.521  0.2695  1.0209 -0.7487
  787MOL0     H 6229   4.670   8.399  10.348 -0.4989  3.2201 -0.3197
  787MOL0     H 6230   4.900   8.462  10.284 -0.7491 -1.5548 -0.6984
  787MOL0     H 6231   6.498   8.288  10.850  0.2787 -1.4165 -3.9058
  787MOL0     H 6232   6.715   8.364  10.952 -3.8997  1.8565  1.5788
  787MOL0     H 6233   7.064   8.641  10.965  0.7989  0.6158  0.0862
  787MOL0     H 6234   7.281   8.736  11.036 -0.9309 -0.0756 -0.4637
  787MOL0     H 6235   7.644   8.552  10.890 -0.7848 -0.5881 -0.0518
  787MOL0     H 6236   7.673   8.698  10.794 -1.1222 -1.2614 -0.1936
  787MOL0     H 6237   7.682   8.674  11.092 -0.4131 -1.4886 -0.9698
  787MOL0     H 6238   7.736   8.817  11.005 -0.6258  0.0063  0.0584
  787MOL0     H 6239   7.864   8.545  10.981 -1.9592  0.5721  0.9701
  787MOL0     H 6240   7.941   8.674  11.063 -1.2734 -0.9995  0.6348
  787MOL0     H 6241   7.914   8.817  10.848 -2.2247 -1.2780  0.9452
  787MOL0     H 6242   7.892   8.647  10.779 -2.1766 -0.5461  1.4975
  787MOL0     H 6243   8.312   8.717  10.848  0.4135 -1.7280  0.2453
  787MOL0     H 6244   7.478   8.517  10.726  1.3188  0.2666  1.5490
  787MOL0     H 6245   7.276   8.385  10.694 -0.7420  2.0924 -1.3795
  788MOL0     O 6246   9.208   9.497   8.727 -0.3628 -0.0638 -0.4032
  788MOL0     C 6247   9.301   9.416   8.752 -0.4708 -0.9681  0.0694
  788MOL0     O 6248   9.339   9.366   8.872  0.4282 -0.0544  0.5990
  788MOL0     C 6249   9.275   9.403   8.985 -0.7086  0.3531 -0.4540
  788MOL0     C 6250   9.272   9.313   9.095  0.0945  0.4152 -0.7360
  788MOL0     C 6251   9.211   9.345   9.209 -0.3530 -0.2770  0.4062
  788MOL0     C 6252   9.145   9.464   9.232 -0.2918 -0.2241 -0.6475
  788MOL0     O 6253   9.117   9.486   9.366 -0.2973  0.0569  1.0764
  788MOL0     C 6254   9.031   9.606   9.376  0.1598  0.2261  0.4638
  788MOL0     C 6255   8.962   9.602   9.508 -0.4451 -0.0143 -0.1082
  788MOL0     C 6256   8.833   9.691   9.521 -0.0330  0.0683 -0.4651
  788MOL0     C 6257   8.844   9.836   9.493 -0.3541  0.5995  0.1029
  788MOL0     C 6258   8.726   9.916   9.549 -0.0895 -0.0795 -0.1363
  788MOL0     C 6259   8.728  10.064   9.507  0.6349  0.9283 -0.5579
  788MOL0     C 6260   8.841  10.151   9.573  0.8113  0.0599  0.0047
  788MOL0     C 6261   8.788  10.278   9.638 -0.0546  0.2238 -0.7479
  788MOL0     N 6262   8.691  10.264   9.754 -0.5289 -0.1002 -0.0004
  788MOL0     C 6263   8.703  10.189   9.871 -0.0951 -0.2764 -0.3644
  788MOL0     C 6264   8.587  10.224   9.937 -0.0872  0.2672  0.4587
  788MOL0     C 6265   8.559  10.163  10.071  0.0388  0.3389  0.0959
  788MOL0     C 6266   8.436  10.232  10.128  0.0183 -0.1910  0.0581
  788MOL0     C 6267   8.379  10.145  10.240  0.2462 -0.1322  1.1463
  788MOL0     C 6268   8.246  10.189  10.285  0.4863  0.2525  0.7404
  788MOL0     O 6269   8.154  10.164  10.177  0.0235 -0.0796  0.5135
  788MOL0     C 6270   8.109  10.034  10.153  0.4369  0.0345 -0.7940
  788MOL0     C 6271   8.046  10.011  10.030  0.6724  0.2489 -0.8213
  788MOL0     C 6272   7.999   9.885   9.994 -0.1388 -0.2444  0.0295
  788MOL0     C 6273   7.915   9.874   9.876  0.0702 -0.0689  0.3087
  788MOL0     C 6274   8.042   9.770  10.061  0.1850 -0.2156  0.3788
  788MOL0     C 6275   7.997   9.632  10.018 -0.8967  0.0755 -0.2369
  788MOL0     O 6276   7.873   9.616  10.020 -0.0516  0.2311  0.9519
  788MOL0     C 6277   7.814   9.493   9.986  0.0176  0.0532 -0.3549
  788MOL0     C 6278   7.801   9.451   9.854  0.9025 -0.2900 -0.3229
  788MOL0     C 6279   7.726   9.337   9.827  0.9560 -0.9726  0.4255
  788MOL0     C 6280   7.662   9.264   9.926 -0.0409 -0.4699  0.0459
  788MOL0     O 6281   7.584   9.153   9.900 -0.1312 -0.0739  0.0652
  788MOL0     C 6282   7.602   9.077   9.782 -0.5882 -0.9697 -0.0926
  788MOL0     C 6283   7.517   9.130   9.669 -0.5730 -0.3180  0.8138
  788MOL0     C 6284   7.377   9.079   9.693 -0.2730 -0.3338 -0.0199
  788MOL0     C 6285   7.270   9.097   9.576 -0.5731 -0.4366 -0.1245
  788MOL0     C 6286   7.124   9.096   9.623 -0.0979  0.1033 -1.1789
  788MOL0     C 6287   7.025   9.095   9.501 -0.2638  0.0665 -0.3665
  788MOL0     C 6288   6.904   9.189   9.521  0.1174 -0.3157 -0.2698
  788MOL0     C 6289   6.776   9.100   9.571  0.5449 -0.4543 -0.2487
  788MOL0    Cl 6290   6.746   8.953   9.474  0.0043  0.7797  0.4740
  788MOL0     C 6291   7.673   9.307  10.053  0.0850 -0.5454 -0.6175
  788MOL0     C 6292   7.755   9.418  10.090 -0.4548  0.1195  0.8102
  788MOL0     O 6293   8.086   9.547   9.987  0.7252 -0.0596  0.4120
  788MOL0     C 6294   8.106   9.791  10.188  0.6027 -0.5245  1.2542
  788MOL0     C 6295   8.134   9.923  10.236 -0.6012  0.5419  0.4378
  788MOL0     N 6296   8.522  10.325   9.862  0.3803  0.2429 -0.7423
  788MOL0     N 6297   8.583  10.348   9.758 -0.7411  0.1693  0.1141
  788MOL0     C 6298   9.153   9.557   9.129 -0.1460 -0.0394  0.2723
  788MOL0     C 6299   9.222   9.532   9.008 -0.4892 -0.8782 -0.1536
  788MOL0     C 6300   9.380   9.368   8.639  0.5051  0.1386 -0.7378
  788MOL0     C 6301   9.340   9.398   8.506  0.2217  0.0694  0.3332
  788MOL0     C 6302   9.413   9.365   8.402 -0.1431 -0.1743 -0.7115
  788MOL0     C 6303   9.532   9.306   8.415 -0.7817 -0.4959  0.0796
  788MOL0     O 6304   9.615   9.270   8.307 -0.0482 -0.5089  0.0603
  788MOL0     C 6305   9.605   9.339   8.176 -0.7395 -0.3005 -0.5875
  788MOL0     C 6306   9.677   9.474   8.181 -0.9687  0.5734  0.8449
  788MOL0     C 6307   9.806   9.460   8.275  0.5447  0.1481 -0.1187
  788MOL0     C 6308   9.901   9.574   8.251  0.2936  0.9020  0.1328
  788MOL0     C 6309   9.943   9.578   8.110  0.2621  0.1495  0.4880
  788MOL0     C 6310   9.962   9.573   7.990  0.2920  0.3212  0.1834
  788MOL0     C 6311   9.574   9.265   8.545  0.1810 -1.6474 -0.1284
  788MOL0     C 6312   9.501   9.303   8.655  0.5119  0.1720 -0.1724
  788MOL0     H 6313   9.323   9.217   9.097  0.7845  0.7742 -0.8649
  788MOL0     H 6314   9.211   9.270   9.287 -2.6615 -0.7178  0.0530
  788MOL0     H 6315   9.099   9.691   9.375 -0.8424  1.0421 -0.3666
  788MOL0     H 6316   8.958   9.620   9.296 -0.9864 -0.4964  1.3487
  788MOL0     H 6317   8.935   9.496   9.519  1.2696 -0.2868  2.3261
  788MOL0     H 6318   9.028   9.636   9.588  0.6730 -0.3899 -0.8436
  788MOL0     H 6319   8.756   9.650   9.454  0.8513  1.0620 -2.1502
  788MOL0     H 6320   8.802   9.679   9.626 -2.5097  4.4637 -0.4137
  788MOL0     H 6321   8.937   9.874   9.537 -0.1768 -2.4832  2.7473
  788MOL0     H 6322   8.861   9.852   9.386  0.1388 -3.2263 -0.5024
  788MOL0     H 6323   8.632   9.876   9.509 -0.9766  0.6464  1.1605
  788MOL0     H 6324   8.746   9.914   9.656  1.0243  3.3994 -0.1341
  788MOL0     H 6325   8.727  10.077   9.399 -0.2438  0.6521 -0.5919
  788MOL0     H 6326   8.629  10.100   9.540  0.7417  0.7424 -0.0244
  788MOL0     H 6327   8.905  10.097   9.643 -0.4353 -1.4495  0.0192
  788MOL0     H 6328   8.901  10.192   9.491  2.1057  0.5111  1.1391
  788MOL0     H 6329   8.723  10.330   9.568 -4.0115 -0.6010  1.9850
  788MOL0     H 6330   8.869  10.347   9.665  0.2563 -0.5711  0.4459
  788MOL0     H 6331   8.765  10.110   9.913 -0.5070 -0.5542 -0.2719
  788MOL0     H 6332   8.555  10.056  10.050 -0.1676  0.4687 -0.5405
  788MOL0     H 6333   8.641  10.187  10.139  0.2337  1.1232 -0.4014
  788MOL0     H 6334   8.359  10.255  10.053 -0.3225  0.5191  0.6185
  788MOL0     H 6335   8.464  10.329  10.168 -0.1743 -0.4455  0.8266
  788MOL0     H 6336   8.447  10.156  10.325 -0.8976  0.7585  1.9870
  788MOL0     H 6337   8.371  10.042  10.204  0.1754  0.8540 -1.9676
  788MOL0     H 6338   8.255  10.297  10.304  0.2760  0.7100 -1.4746
  788MOL0     H 6339   8.217  10.130  10.372  2.3571  0.2466  1.4113
  788MOL0     H 6340   8.034  10.093   9.960 -0.1285  1.0360  0.2015
  788MOL0     H 6341   7.894   9.973   9.835 -1.5549 -0.7781 -0.6766
  788MOL0     H 6342   7.973   9.828   9.794 -0.1619 -0.6938  0.4911
  788MOL0     H 6343   7.815   9.832   9.890  0.7204 -1.0691  2.2519
  788MOL0     H 6344   7.825   9.515   9.769  1.3607  0.0603  0.0659
  788MOL0     H 6345   7.719   9.313   9.721  2.3203  3.1940 -0.7913
  788MOL0     H 6346   7.708   9.089   9.759 -0.5278 -0.2138  0.5605
  788MOL0     H 6347   7.585   8.971   9.801 -1.1888 -1.0706 -1.0874
  788MOL0     H 6348   7.507   9.238   9.658 -2.9136 -0.4498  1.2653
  788MOL0     H 6349   7.565   9.090   9.579  0.2884 -0.5515  1.3594
  788MOL0     H 6350   7.347   9.129   9.785 -0.4294 -2.2493  1.0176
  788MOL0     H 6351   7.383   8.974   9.722 -0.6922 -0.8821 -1.7709
  788MOL0     H 6352   7.297   9.191   9.527  1.2026 -0.5872  0.4814
  788MOL0     H 6353   7.284   9.016   9.504  0.6598  0.3863 -0.8527
  788MOL0     H 6354   7.104   9.183   9.687  2.0851  0.6224 -1.1445
  788MOL0     H 6355   7.103   9.003   9.677  1.2761  1.7865  2.6224
  788MOL0     H 6356   7.092   9.125   9.420  2.8035  0.6733  2.1824
  788MOL0     H 6357   6.993   8.992   9.486 -1.0340  0.0685  1.0822
  788MOL0     H 6358   6.878   9.242   9.429 -1.4747  1.0763  0.9208
  788MOL0     H 6359   6.922   9.274   9.588 -1.5415  0.5804 -0.8838
  788MOL0     H 6360   6.681   9.154   9.569 -0.7225 -2.5726 -1.2599
  788MOL0     H 6361   6.789   9.075   9.677 -1.3417  0.3984  0.2182
  788MOL0     H 6362   7.634   9.234  10.123  0.5460  0.1537  0.3956
  788MOL0     H 6363   7.781   9.440  10.193  1.2358 -3.5893  1.3620
  788MOL0     H 6364   8.121   9.703  10.249 -1.7682 -1.2415  0.8964
  788MOL0     H 6365   8.180   9.935  10.333 -1.6599  2.7262  0.7456
  788MOL0     H 6366   9.119   9.659   9.144 -1.1806 -0.4401  0.7561
  788MOL0     H 6367   9.233   9.614   8.939 -2.1465 -0.4419  0.0690
  788MOL0     H 6368   9.251   9.446   8.469  0.3835 -1.9533 -3.0402
  788MOL0     H 6369   9.367   9.392   8.308 -5.1549  0.6616  1.6363
  788MOL0     H 6370   9.634   9.273   8.093 -1.9807  1.0943 -2.2316
  788MOL0     H 6371   9.502   9.368   8.154 -0.7851 -0.3629 -0.4515
  788MOL0     H 6372   9.607   9.556   8.202 -1.8200  0.2681 -0.5813
  788MOL0     H 6373   9.703   9.492   8.076  0.3774 -1.1694  0.8417
  788MOL0     H 6374   9.847   9.362   8.246 -1.0512 -0.2051 -1.3219
  788MOL0     H 6375   9.793   9.458   8.384  2.6123 -1.8688  0.1801
  788MOL0     H 6376   9.993   9.555   8.307  2.1841  3.2375 -1.9607
  788MOL0     H 6377   9.848   9.666   8.280 -0.1664  0.5820  0.3225
  788MOL0     H 6378   9.956   9.581   7.883 -4.5103  0.6202  0.2666
  788MOL0     H 6379   9.662   9.201   8.556 -0.0910 -1.5907  5.3449
  788MOL0     H 6380   9.543   9.280   8.752 -1.4934 -2.9236  0.0997
  789MOL0     O 6381   1.180   3.179   6.803  0.7963  0.6593  0.3885
  789MOL0     C 6382   1.218   3.289   6.758 -0.2238  0.2202  0.1303
  789MOL0     O 6383   1.147   3.370   6.671  0.6124 -0.3482 -0.5969
  789MOL0     C 6384   1.013   3.353   6.666  0.0719  0.3140 -0.4291
  789MOL0     C 6385   0.945   3.462   6.721  0.0920 -0.5727 -0.0254
  789MOL0     C 6386   0.804   3.451   6.740 -0.4688 -0.4318  1.0306
  789MOL0     C 6387   0.732   3.342   6.684  0.3724 -0.3766 -0.3147
  789MOL0     O 6388   0.595   3.340   6.707 -0.3888 -0.1915  0.3315
  789MOL0     C 6389   0.507   3.306   6.601 -0.4601 -1.5837  0.2401
  789MOL0     C 6390   0.370   3.358   6.636  1.0942  0.5040 -0.3799
  789MOL0     C 6391   0.263   3.284   6.547  0.0255  0.1122 -0.0753
  789MOL0     C 6392   0.125   3.288   6.608 -0.3369  0.2169 -0.3857
  789MOL0     C 6393   0.014   3.256   6.506  0.6167  0.8318  0.2219
  789MOL0     C 6394  -0.129   3.261   6.573 -0.5291  0.1188 -0.6455
  789MOL0     C 6395  -0.168   3.398   6.616  0.3045  0.2264 -0.4218
  789MOL0     C 6396  -0.315   3.417   6.641 -0.5982  0.0292 -0.8477
  789MOL0     N 6397  -0.363   3.338   6.759  0.5263 -0.4491  0.0276
  789MOL0     C 6398  -0.320   3.358   6.884  0.1066  0.3887 -0.8111
  789MOL0     C 6399  -0.360   3.245   6.959 -0.2551 -0.5256  0.0976
  789MOL0     C 6400  -0.342   3.234   7.112 -0.1214 -0.1707  0.8695
  789MOL0     C 6401  -0.201   3.253   7.153  0.1299  0.5663  0.3414
  789MOL0     C 6402  -0.168   3.146   7.266  0.5232 -0.5326 -0.5128
  789MOL0     C 6403  -0.016   3.155   7.309  0.7016 -0.0165  0.2311
  789MOL0     O 6404   0.025   3.288   7.339 -0.2900 -0.0006  0.8275
  789MOL0     C 6405   0.156   3.290   7.396  0.5064  0.3157  0.0139
  789MOL0     C 6406   0.191   3.405   7.458  0.4250  0.2538  0.5204
  789MOL0     C 6407   0.311   3.424   7.522 -0.3953 -0.2919 -0.5445
  789MOL0     C 6408   0.352   3.558   7.582  0.2288  0.9389 -0.3038
  789MOL0     C 6409   0.409   3.320   7.531 -0.7322 -0.1495  0.1077
  789MOL0     C 6410   0.552   3.338   7.579 -0.3084 -0.2343  0.0489
  789MOL0     O 6411   0.578   3.422   7.684  0.4630  0.6729  0.7943
  789MOL0     C 6412   0.701   3.407   7.747 -0.5054 -0.7495 -0.2978
  789MOL0     C 6413   0.779   3.522   7.749  0.0605 -0.0533 -0.4105
  789MOL0     C 6414   0.905   3.517   7.797 -0.1758 -0.8773 -0.6827
  789MOL0     C 6415   0.973   3.399   7.830 -0.0321 -0.3393  0.3485
  789MOL0     O 6416   1.107   3.385   7.830 -0.1318  0.7668 -0.5212
  789MOL0     C 6417   1.196   3.493   7.835  0.3759  0.4016  0.8556
  789MOL0     C 6418   1.182   3.563   7.969  0.3330 -0.8238 -0.4213
  789MOL0     C 6419   1.271   3.493   8.072 -0.4980  0.3043 -1.0172
  789MOL0     C 6420   1.411   3.548   8.057 -0.3177  0.0262 -0.6872
  789MOL0     C 6421   1.512   3.449   8.118  0.0135  0.4542 -0.3991
  789MOL0     C 6422   1.518   3.475   8.280 -0.4635 -0.2919  0.5131
  789MOL0     C 6423   1.643   3.408   8.342  0.1260 -0.4761 -0.0421
  789MOL0     C 6424   1.783   3.451   8.299 -0.1145  0.2364 -0.1092
  789MOL0    Cl 6425   1.793   3.631   8.311 -0.1630  0.1292 -0.2500
  789MOL0     C 6426   0.903   3.282   7.807  1.3718  0.5139  0.1903
  789MOL0     C 6427   0.763   3.281   7.781  0.3336  0.5888  0.0697
  789MOL0     O 6428   0.632   3.259   7.528 -0.1402 -0.6072  0.4864
  789MOL0     C 6429   0.374   3.202   7.468 -0.3948  0.1881  0.5050
  789MOL0     C 6430   0.246   3.182   7.411 -0.5309  0.5733 -0.2623
  789MOL0     N 6431  -0.420   3.160   6.873  0.0619 -0.1559  0.1411
  789MOL0     N 6432  -0.428   3.226   6.755  0.1641  0.2069 -0.1234
  789MOL0     C 6433   0.803   3.235   6.627 -0.6910 -0.5544  0.3835
  789MOL0     C 6434   0.945   3.249   6.610 -0.1592 -0.6101  0.1506
  789MOL0     C 6435   1.350   3.328   6.790  0.1977 -0.9267  0.7645
  789MOL0     C 6436   1.417   3.428   6.721 -0.7123 -0.3618  0.0039
  789MOL0     C 6437   1.546   3.469   6.762  0.3574 -0.3548  0.0329
  789MOL0     C 6438   1.610   3.417   6.878  0.1315  0.7588  0.3392
  789MOL0     O 6439   1.722   3.460   6.933 -0.3965  0.0678  0.5448
  789MOL0     C 6440   1.829   3.509   6.842  0.6944 -0.0993 -0.5024
  789MOL0     C 6441   1.960   3.515   6.932 -0.4454 -0.2883  0.6736
  789MOL0     C 6442   2.023   3.388   6.974 -0.1243 -0.1752 -0.1289
  789MOL0     C 6443   2.137   3.410   7.079 -0.0866  0.8553 -0.0856
  789MOL0     C 6444   2.086   3.417   7.213  0.1712  0.1369  0.6268
  789MOL0     C 6445   2.043   3.420   7.327  0.6035  0.1590 -0.0323
  789MOL0     C 6446   1.549   3.306   6.935  0.0682  0.2645 -0.5917
  789MOL0     C 6447   1.419   3.267   6.898 -0.0475  0.6182  0.3714
  789MOL0     H 6448   0.996   3.550   6.760  0.3341 -0.8886  0.3777
  789MOL0     H 6449   0.744   3.533   6.779  0.0343  0.9313 -0.9403
  789MOL0     H 6450   0.536   3.362   6.512 -1.7070 -0.0210  0.7732
  789MOL0     H 6451   0.520   3.200   6.574  0.0443 -1.5929  0.4955
  789MOL0     H 6452   0.364   3.349   6.745  1.1998 -0.5695 -0.4535
  789MOL0     H 6453   0.360   3.466   6.621  0.1631  0.2833 -1.5272
  789MOL0     H 6454   0.265   3.320   6.443  0.8459 -1.8324 -0.7640
  789MOL0     H 6455   0.295   3.180   6.539 -1.1986 -0.4011  1.2633
  789MOL0     H 6456   0.118   3.211   6.686 -0.3092  1.0397  0.4374
  789MOL0     H 6457   0.107   3.385   6.653 -1.8030  0.1192 -0.7240
  789MOL0     H 6458   0.020   3.328   6.424  0.5400  0.9950  0.3587
  789MOL0     H 6459   0.026   3.155   6.467  0.0959  1.1037 -0.6829
  789MOL0     H 6460  -0.200   3.225   6.498  0.2168 -2.6367 -0.1256
  789MOL0     H 6461  -0.149   3.181   6.645 -0.9586 -1.9935 -2.9687
  789MOL0     H 6462  -0.117   3.426   6.708  0.4860  1.9996 -1.0181
  789MOL0     H 6463  -0.137   3.465   6.535  2.5997 -2.7698 -2.2811
  789MOL0     H 6464  -0.363   3.394   6.546 -0.2378 -0.2427 -0.9654
  789MOL0     H 6465  -0.332   3.522   6.667  3.0772  0.3680  0.7639
  789MOL0     H 6466  -0.266   3.446   6.918  0.0594 -0.2503  1.0293
  789MOL0     H 6467  -0.403   3.308   7.164 -0.1564 -0.6782  1.5592
  789MOL0     H 6468  -0.386   3.138   7.139  1.0862 -1.0905 -0.3221
  789MOL0     H 6469  -0.177   3.353   7.191  1.1410 -0.0978  1.5504
  789MOL0     H 6470  -0.131   3.236   7.071  2.2344 -0.8397  2.3196
  789MOL0     H 6471  -0.186   3.045   7.227 -2.1522 -0.0751 -0.6752
  789MOL0     H 6472  -0.233   3.170   7.351  0.0029  1.1676 -1.3532
  789MOL0     H 6473   0.048   3.117   7.229 -0.0527 -1.1212  0.1245
  789MOL0     H 6474  -0.007   3.099   7.403  0.9270  0.7224  0.6574
  789MOL0     H 6475   0.124   3.490   7.453 -0.6903 -0.6699 -1.3241
  789MOL0     H 6476   0.267   3.622   7.557  0.0853  0.4353 -1.1800
  789MOL0     H 6477   0.362   3.552   7.690 -0.5376  1.7049 -0.1846
  789MOL0     H 6478   0.450   3.581   7.538  0.8300 -2.0218 -0.7491
  789MOL0     H 6479   0.735   3.619   7.730 -0.1986 -0.2765 -0.9590
  789MOL0     H 6480   0.964   3.608   7.801 -0.7652 -0.5029  2.5684
  789MOL0     H 6481   1.297   3.458   7.808 -0.2016 -1.1127  0.5656
  789MOL0     H 6482   1.170   3.556   7.749  2.0642 -1.7068 -1.3407
  789MOL0     H 6483   1.217   3.666   7.965  2.8295 -1.3787  2.7630
  789MOL0     H 6484   1.083   3.566   8.017  1.1423 -0.3108  1.3092
  789MOL0     H 6485   1.261   3.385   8.073  3.9255 -0.2739 -0.0098
  789MOL0     H 6486   1.247   3.531   8.172  0.6488 -0.3897 -0.4637
  789MOL0     H 6487   1.423   3.545   7.948 -0.6490 -0.8578 -0.7083
  789MOL0     H 6488   1.420   3.646   8.104  0.3320  0.9679 -2.6349
  789MOL0     H 6489   1.609   3.461   8.070  0.8226 -1.1559  0.7255
  789MOL0     H 6490   1.476   3.348   8.096 -1.5189  0.7973  0.3627
  789MOL0     H 6491   1.516   3.581   8.306  0.8991 -0.2942  0.6519
  789MOL0     H 6492   1.430   3.426   8.323 -1.3421  0.1125 -0.7432
  789MOL0     H 6493   1.644   3.299   8.336  1.6918 -0.4515 -0.8325
  789MOL0     H 6494   1.644   3.429   8.449  0.5700  1.3162 -0.3602
  789MOL0     H 6495   1.813   3.419   8.199 -0.3717  1.9817 -0.7820
  789MOL0     H 6496   1.857   3.409   8.368  1.8026  0.2152 -2.0612
  789MOL0     H 6497   0.944   3.181   7.809  1.5599  0.5935  0.3345
  789MOL0     H 6498   0.700   3.193   7.775 -3.3538  3.0716 -0.2993
  789MOL0     H 6499   0.449   3.125   7.485 -2.2598 -1.6277  0.8917
  789MOL0     H 6500   0.221   3.083   7.375  0.8564  0.4494 -0.9788
  789MOL0     H 6501   0.755   3.146   6.587  2.1143 -1.6381 -0.8292
  789MOL0     H 6502   1.013   3.181   6.560  2.3796  0.6115  1.7179
  789MOL0     H 6503   1.386   3.470   6.626  1.4766 -0.8703 -1.0079
  789MOL0     H 6504   1.602   3.548   6.713  1.2129  0.7641  2.6648
  789MOL0     H 6505   1.852   3.440   6.760  0.2593  0.6486 -1.2675
  789MOL0     H 6506   1.811   3.610   6.803 -1.1991 -0.3592 -0.4113
  789MOL0     H 6507   1.944   3.567   7.028  0.2363 -2.0731  1.8118
  789MOL0     H 6508   2.024   3.585   6.877 -2.3124 -0.6498 -2.1738
  789MOL0     H 6509   2.064   3.347   6.882 -0.9256  3.2531 -2.1802
  789MOL0     H 6510   1.949   3.318   7.015 -0.9627  1.7937  1.9260
  789MOL0     H 6511   2.186   3.502   7.047  1.2256  0.1990 -0.0293
  789MOL0     H 6512   2.202   3.324   7.062 -0.1361  0.4799  1.5209
  789MOL0     H 6513   2.006   3.423   7.427  1.0797  0.6743  0.1319
  789MOL0     H 6514   1.591   3.258   7.023 -2.3348 -2.1498 -0.6285
  789MOL0     H 6515   1.378   3.183   6.953 -0.0275 -3.5573 -5.1460
  790MOL0     O 6516   7.514   1.716   7.312 -0.5265 -0.3924 -0.1238
  790MOL0     C 6517   7.462   1.611   7.344  0.0783  0.1220  0.3718
  790MOL0     O 6518   7.476   1.494   7.279  0.1303  0.3338  0.9663
  790MOL0     C 6519   7.546   1.489   7.160 -0.4730  0.0346  0.0159
  790MOL0     C 6520   7.688   1.506   7.167 -0.1685 -1.2309  0.4391
  790MOL0     C 6521   7.764   1.494   7.059 -0.3450  0.4606 -0.1787
  790MOL0     C 6522   7.703   1.455   6.937  0.3411 -0.6133 -0.5330
  790MOL0     O 6523   7.772   1.415   6.827 -0.1850  0.0728 -0.4997
  790MOL0     C 6524   7.915   1.444   6.824  0.6287 -0.0964  0.4314
  790MOL0     C 6525   7.955   1.360   6.704 -0.3725  0.1202 -0.4099
  790MOL0     C 6526   8.110   1.368   6.678 -0.6193  0.1472 -0.5577
  790MOL0     C 6527   8.149   1.512   6.635  0.0546  0.5547 -0.3727
  790MOL0     C 6528   8.307   1.522   6.614 -0.9940 -1.0840 -0.8687
  790MOL0     C 6529   8.351   1.674   6.602  0.2189 -0.0760 -0.1937
  790MOL0     C 6530   8.494   1.711   6.591 -0.2046 -0.5163  0.0416
  790MOL0     C 6531   8.560   1.705   6.739 -0.3171 -0.2722 -0.8453
  790MOL0     N 6532   8.712   1.723   6.735  0.1641 -0.4998 -0.2567
  790MOL0     C 6533   8.797   1.764   6.630 -0.2781  0.3459 -0.3870
  790MOL0     C 6534   8.922   1.778   6.682 -0.0928  0.9214  0.3956
  790MOL0     C 6535   9.046   1.822   6.611 -0.0662  0.3744 -0.3439
  790MOL0     C 6536   9.148   1.904   6.690  0.0717  0.0721 -0.3246
  790MOL0     C 6537   9.083   2.012   6.783 -0.4640  0.5530  0.6222
  790MOL0     C 6538   8.997   2.107   6.707  0.1329 -0.9401  0.3604
  790MOL0     O 6539   9.003   2.246   6.745  0.8066  0.3127  0.4113
  790MOL0     C 6540   8.898   2.293   6.820  0.5109  0.0771 -0.4913
  790MOL0     C 6541   8.852   2.419   6.799 -0.0456 -1.2045 -0.0863
  790MOL0     C 6542   8.742   2.468   6.867 -0.1345  0.0896 -0.1358
  790MOL0     C 6543   8.679   2.605   6.838 -0.3673  0.7667 -0.2913
  790MOL0     C 6544   8.683   2.390   6.971  0.3459  0.4085  0.5274
  790MOL0     C 6545   8.568   2.431   7.055  1.0717  0.7008  0.4505
  790MOL0     O 6546   8.480   2.523   7.009  0.0359  0.2522  0.2334
  790MOL0     C 6547   8.348   2.518   7.037 -0.1051  0.2396 -0.1395
  790MOL0     C 6548   8.292   2.620   7.117  0.7825  0.1114  0.0025
  790MOL0     C 6549   8.157   2.619   7.146  0.1886  0.4328  0.3909
  790MOL0     C 6550   8.075   2.525   7.094  0.1271  0.3086  0.8004
  790MOL0     O 6551   7.935   2.543   7.111 -0.0459  0.5955  0.3427
  790MOL0     C 6552   7.851   2.424   7.112  0.0405 -0.0644  0.5762
  790MOL0     C 6553   7.707   2.457   7.169 -0.6573  0.0588  0.2594
  790MOL0     C 6554   7.717   2.523   7.304  0.2648  0.0409  0.0224
  790MOL0     C 6555   7.576   2.569   7.355 -0.6290  0.5907 -0.0064
  790MOL0     C 6556   7.569   2.600   7.505  0.3817 -0.5007  0.5826
  790MOL0     C 6557   7.666   2.711   7.562  0.4068 -0.7860  0.4336
  790MOL0     C 6558   7.628   2.854   7.516  0.1842 -0.1727  0.2871
  790MOL0     C 6559   7.719   2.968   7.569 -0.1642  0.7165  0.8210
  790MOL0    Cl 6560   7.671   3.002   7.731  0.3297 -0.0150 -0.3109
  790MOL0     C 6561   8.127   2.421   7.005  0.1479  0.6871  0.4212
  790MOL0     C 6562   8.263   2.422   6.983 -0.0254 -0.0128  0.6164
  790MOL0     O 6563   8.546   2.359   7.153 -0.0507 -0.3050  0.5287
  790MOL0     C 6564   8.747   2.265   6.998 -0.1840 -0.4380 -0.8494
  790MOL0     C 6565   8.842   2.217   6.915  0.5548 -0.4909  0.0075
  790MOL0     N 6566   8.916   1.761   6.813 -0.6915  0.1744  0.4211
  790MOL0     N 6567   8.792   1.735   6.845  0.6853  0.3145  0.3214
  790MOL0     C 6568   7.559   1.433   6.929 -0.6016  0.5416  0.0180
  790MOL0     C 6569   7.483   1.449   7.046 -0.1371 -0.8898  0.2008
  790MOL0     C 6570   7.374   1.616   7.468  0.2143 -0.4748  0.8395
  790MOL0     C 6571   7.390   1.707   7.572 -1.4244  0.1014 -0.0163
  790MOL0     C 6572   7.313   1.704   7.688  0.6322  0.3766 -0.2775
  790MOL0     C 6573   7.232   1.594   7.703  0.5285  0.1753 -0.1267
  790MOL0     O 6574   7.160   1.584   7.820 -0.1899 -0.9956  0.8151
  790MOL0     C 6575   7.103   1.462   7.865  0.6591 -0.3874 -0.0923
  790MOL0     C 6576   7.001   1.495   7.974 -0.4562 -0.0133 -0.6313
  790MOL0     C 6577   6.853   1.498   7.927 -0.2369 -0.4642 -0.9908
  790MOL0     C 6578   6.792   1.354   7.928 -0.1622 -0.0479  0.0059
  790MOL0     C 6579   6.834   1.275   7.809  0.6450 -0.2868 -0.6832
  790MOL0     C 6580   6.862   1.209   7.707  0.7698  0.6850  0.2817
  790MOL0     C 6581   7.213   1.499   7.595  0.0028  0.6331  0.3621
  790MOL0     C 6582   7.281   1.511   7.473  0.3475 -0.3377 -1.0734
  790MOL0     H 6583   7.727   1.528   7.266 -2.6207 -0.9792  1.4323
  790MOL0     H 6584   7.871   1.505   7.071 -0.7010  2.3014  1.8603
  790MOL0     H 6585   7.939   1.550   6.814 -2.6973  0.6471 -1.4511
  790MOL0     H 6586   7.963   1.403   6.913  0.2796  0.2174  0.7662
  790MOL0     H 6587   7.934   1.255   6.729  3.6976  0.2579  5.4427
  790MOL0     H 6588   7.898   1.383   6.613 -0.7640 -3.2609 -1.1474
  790MOL0     H 6589   8.174   1.349   6.765 -0.5321  1.6204 -0.2783
  790MOL0     H 6590   8.135   1.294   6.602  2.9167 -1.0094  1.4926
  790MOL0     H 6591   8.097   1.535   6.542 -1.9335 -2.1060 -0.0300
  790MOL0     H 6592   8.118   1.580   6.715  0.5745 -2.1351  2.3223
  790MOL0     H 6593   8.355   1.477   6.702 -0.7187 -3.7786 -2.2792
  790MOL0     H 6594   8.344   1.466   6.527  1.1678  0.2463 -0.8566
  790MOL0     H 6595   8.298   1.717   6.516 -0.7310  0.2676  0.5448
  790MOL0     H 6596   8.311   1.721   6.692  2.6669  1.8426  0.0065
  790MOL0     H 6597   8.557   1.642   6.534  0.3963 -0.8965  1.1417
  790MOL0     H 6598   8.492   1.811   6.547 -1.2812  0.6595  2.6219
  790MOL0     H 6599   8.534   1.610   6.787 -0.4633 -0.3925 -1.1610
  790MOL0     H 6600   8.524   1.787   6.801 -1.0754 -0.3364 -1.1887
  790MOL0     H 6601   8.772   1.784   6.526 -1.1215  0.4652 -0.1711
  790MOL0     H 6602   9.096   1.729   6.584  2.2710  1.3521  0.4026
  790MOL0     H 6603   9.019   1.873   6.518 -0.4488  3.2959  1.2316
  790MOL0     H 6604   9.216   1.953   6.620  1.8626  0.2414  1.4336
  790MOL0     H 6605   9.211   1.842   6.755  0.7738  1.5669  0.4910
  790MOL0     H 6606   9.172   2.061   6.824  0.6307 -0.7512 -0.0683
  790MOL0     H 6607   9.028   1.973   6.869  1.8390  0.5352  2.1837
  790MOL0     H 6608   8.894   2.071   6.706 -0.6397  1.0046  1.9217
  790MOL0     H 6609   9.027   2.119   6.602 -0.0662  5.1846  0.6336
  790MOL0     H 6610   8.891   2.481   6.719 -0.9435 -0.6567 -0.1104
  790MOL0     H 6611   8.733   2.660   6.761 -1.2405  1.7605 -0.2110
  790MOL0     H 6612   8.576   2.601   6.801 -0.5649  1.3813  0.1881
  790MOL0     H 6613   8.669   2.654   6.935  0.5046 -0.0626  0.2327
  790MOL0     H 6614   8.363   2.691   7.159 -0.9852  2.7598 -1.1954
  790MOL0     H 6615   8.113   2.703   7.200 -0.2301  0.2818  0.2886
  790MOL0     H 6616   7.831   2.382   7.013 -0.8313  0.5743  0.4674
  790MOL0     H 6617   7.891   2.352   7.184 -0.7574 -0.5864  0.5060
  790MOL0     H 6618   7.646   2.508   7.093  2.3307  1.7313 -1.2203
  790MOL0     H 6619   7.667   2.356   7.181 -1.0718  0.5521  3.9634
  790MOL0     H 6620   7.772   2.618   7.300 -0.0522  0.2446  0.4065
  790MOL0     H 6621   7.768   2.469   7.383 -1.4913  2.8311  3.3229
  790MOL0     H 6622   7.524   2.639   7.290 -0.0563  0.4576 -0.6142
  790MOL0     H 6623   7.507   2.484   7.344 -0.1121  0.5420 -4.0765
  790MOL0     H 6624   7.582   2.503   7.553 -1.7408 -0.1390  2.0650
  790MOL0     H 6625   7.468   2.632   7.533  0.3088  0.9103 -1.1492
  790MOL0     H 6626   7.671   2.710   7.672 -3.5648  2.3904  0.8907
  790MOL0     H 6627   7.768   2.684   7.533  0.1826 -0.8694 -0.3016
  790MOL0     H 6628   7.522   2.869   7.535  0.1972 -0.8527  0.9380
  790MOL0     H 6629   7.638   2.861   7.407  0.2177  4.4349  0.3866
  790MOL0     H 6630   7.703   3.058   7.510 -0.6900  1.0814  1.5033
  790MOL0     H 6631   7.827   2.950   7.565 -0.2738  0.3219 -1.4330
  790MOL0     H 6632   8.063   2.346   6.961  0.0194  0.0486  1.6401
  790MOL0     H 6633   8.292   2.346   6.911 -1.6250 -2.2822  2.2210
  790MOL0     H 6634   8.698   2.204   7.073 -1.1565  2.1700  0.8086
  790MOL0     H 6635   8.879   2.115   6.922 -1.6324 -2.0142 -5.3200
  790MOL0     H 6636   7.512   1.388   6.842  0.8751 -0.3002 -0.3895
  790MOL0     H 6637   7.377   1.426   7.055  0.4435 -3.2510  2.0074
  790MOL0     H 6638   7.469   1.781   7.564  1.4390 -2.5373  1.5857
  790MOL0     H 6639   7.326   1.785   7.759 -3.9057  1.7309 -0.6794
  790MOL0     H 6640   7.057   1.402   7.786 -0.8622  3.6065 -2.5933
  790MOL0     H 6641   7.183   1.407   7.915  1.6830  2.3461  1.5091
  790MOL0     H 6642   7.024   1.589   8.026 -2.4432  0.5976 -0.7874
  790MOL0     H 6643   7.001   1.411   8.045 -0.2795 -0.3340 -1.0058
  790MOL0     H 6644   6.856   1.550   7.831 -1.5342  0.2994 -0.6484
  790MOL0     H 6645   6.793   1.556   7.998 -2.4811 -0.2693 -2.9279
  790MOL0     H 6646   6.685   1.369   7.939 -0.0914 -0.4925  1.5065
  790MOL0     H 6647   6.825   1.311   8.023 -1.3791  3.0822  2.0234
  790MOL0     H 6648   6.878   1.151   7.618 -0.5714  0.8875 -0.1200
  790MOL0     H 6649   7.154   1.408   7.606  0.2251  0.6101  1.4580
  790MOL0     H 6650   7.269   1.435   7.397  1.2205 -1.5992  0.0128
  791MOL0     O 6651   2.142   2.358  10.613 -0.0614 -0.2026  0.1159
  791MOL0     C 6652   2.174   2.248  10.567 -0.7743 -0.0911 -0.6320
  791MOL0     O 6653   2.092   2.143  10.573 -0.5696 -0.0914 -0.2944
  791MOL0     C 6654   1.964   2.170  10.621  0.2985  0.2741  0.2648
  791MOL0     C 6655   1.864   2.249  10.561  0.0544 -0.1848  0.6042
  791MOL0     C 6656   1.732   2.257  10.611 -1.1994  0.0350 -0.1851
  791MOL0     C 6657   1.687   2.186  10.720 -0.4539  0.8859 -0.8088
  791MOL0     O 6658   1.557   2.188  10.755  0.5129  0.1559  0.4915
  791MOL0     C 6659   1.535   2.218  10.894  0.0566  0.4143 -0.1711
  791MOL0     C 6660   1.387   2.273  10.907  0.5275 -0.7029  0.0548
  791MOL0     C 6661   1.261   2.202  10.851 -0.1154  0.4997  0.0042
  791MOL0     C 6662   1.133   2.255  10.909 -0.0182  0.6178  0.3428
  791MOL0     C 6663   1.012   2.191  10.833  0.2909 -1.0007 -0.6162
  791MOL0     C 6664   0.879   2.260  10.870  0.6236  0.4898  0.1590
  791MOL0     C 6665   0.834   2.227  11.006 -0.1240 -0.0531 -0.4247
  791MOL0     C 6666   0.707   2.296  11.052  0.3368 -0.3841  0.7122
  791MOL0     N 6667   0.583   2.253  10.979  0.1706  0.2319 -0.4771
  791MOL0     C 6668   0.495   2.165  11.034 -0.7217  0.4482 -0.0007
  791MOL0     C 6669   0.389   2.168  10.954  0.7611 -0.5251  0.2062
  791MOL0     C 6670   0.276   2.069  10.972 -1.0390  0.4136  0.6004
  791MOL0     C 6671   0.154   2.126  11.029 -0.0631 -0.3022 -0.2520
  791MOL0     C 6672   0.069   2.196  10.926 -0.3476 -0.7320 -0.4545
  791MOL0     C 6673  -0.059   2.251  10.981 -0.4009 -0.3303 -0.3068
  791MOL0     O 6674  -0.152   2.149  11.000 -0.1568  0.5767  0.1070
  791MOL0     C 6675  -0.285   2.181  11.045  0.2832 -0.6063  0.6704
  791MOL0     C 6676  -0.374   2.079  11.068 -0.1942 -0.1375  0.1986
  791MOL0     C 6677  -0.505   2.098  11.107 -0.5917 -0.4650  0.1065
  791MOL0     C 6678  -0.581   1.974  11.119  0.3584 -0.0377  0.2216
  791MOL0     C 6679  -0.545   2.228  11.128  0.6706 -0.4527 -0.1568
  791MOL0     C 6680  -0.683   2.269  11.177 -0.6223  1.4708  0.2682
  791MOL0     O 6681  -0.722   2.398  11.143 -0.4861  0.2177  0.6387
  791MOL0     C 6682  -0.847   2.444  11.187 -0.1333  0.0264  0.5064
  791MOL0     C 6683  -0.964   2.453  11.110  0.6909 -0.6878  0.2375
  791MOL0     C 6684  -1.085   2.480  11.175  0.5815  0.4582 -0.0542
  791MOL0     C 6685  -1.099   2.523  11.307  0.8251  0.1731 -0.2574
  791MOL0     O 6686  -1.215   2.562  11.367  0.4079 -0.1801 -0.1180
  791MOL0     C 6687  -1.337   2.553  11.297 -0.0680 -0.2930  0.3842
  791MOL0     C 6688  -1.450   2.570  11.401 -0.6048 -0.1230  0.6124
  791MOL0     C 6689  -1.547   2.687  11.368  0.3991 -0.5181 -0.5979
  791MOL0     C 6690  -1.662   2.691  11.466  0.8347 -0.0694 -0.5120
  791MOL0     C 6691  -1.777   2.779  11.413  1.1400  0.3866 -0.5841
  791MOL0     C 6692  -1.902   2.787  11.507 -0.0400  0.3213 -0.3618
  791MOL0     C 6693  -2.021   2.858  11.432 -1.0171 -0.4042 -0.6543
  791MOL0     C 6694  -2.089   2.959  11.534 -0.0208 -0.0704  0.7075
  791MOL0    Cl 6695  -2.174   2.878  11.660  0.4305  0.0076 -0.2437
  791MOL0     C 6696  -0.975   2.518  11.378  0.0266  0.0787 -0.0284
  791MOL0     C 6697  -0.858   2.483  11.322 -0.0348  0.4450  0.4734
  791MOL0     O 6698  -0.751   2.188  11.244  1.1252 -0.5358  0.4010
  791MOL0     C 6699  -0.455   2.339  11.110  0.7267  0.5086 -0.6703
  791MOL0     C 6700  -0.321   2.307  11.071  0.5535  0.5948 -0.5206
  791MOL0     N 6701   0.408   2.266  10.852  0.7693 -0.0172  0.5685
  791MOL0     N 6702   0.526   2.315  10.872  0.2675 -0.3758  0.5314
  791MOL0     C 6703   1.781   2.102  10.786 -0.1570 -0.1650  0.2342
  791MOL0     C 6704   1.916   2.099  10.730  0.2762  0.1937  0.3552
  791MOL0     C 6705   2.306   2.217  10.508 -0.1578 -0.0126 -0.4171
  791MOL0     C 6706   2.339   2.083  10.477  0.1542  0.2029 -1.0764
  791MOL0     C 6707   2.467   2.053  10.436 -0.8394 -0.2040  1.1611
  791MOL0     C 6708   2.572   2.149  10.422 -0.2799  0.3403  0.0297
  791MOL0     O 6709   2.696   2.110  10.368  0.2645 -0.3597  0.1195
  791MOL0     C 6710   2.794   2.202  10.352 -0.2258  0.2798 -0.0265
  791MOL0     C 6711   2.919   2.120  10.327  0.5786  0.3042  0.4279
  791MOL0     C 6712   2.933   2.066  10.183 -0.2843 -0.2478 -0.0304
  791MOL0     C 6713   2.890   2.154  10.061 -0.1075  0.0120 -0.4399
  791MOL0     C 6714   2.923   2.104   9.929 -0.4376  0.7140 -0.7147
  791MOL0     C 6715   2.948   2.056   9.820  0.1373 -0.7169  0.2839
  791MOL0     C 6716   2.537   2.279  10.453 -0.5374  0.3746  0.2308
  791MOL0     C 6717   2.411   2.309  10.491  1.0141 -0.6069  0.3220
  791MOL0     H 6718   1.886   2.307  10.472 -1.7799  1.2710  1.0143
  791MOL0     H 6719   1.662   2.321  10.558  2.1618  2.3944 -2.1640
  791MOL0     H 6720   1.549   2.129  10.957  0.6206  1.0749  0.6547
  791MOL0     H 6721   1.599   2.300  10.926 -0.3442  1.0833 -1.0529
  791MOL0     H 6722   1.360   2.316  11.004  0.6272  0.6519 -0.4915
  791MOL0     H 6723   1.393   2.369  10.854 -4.2691 -0.8278 -1.2030
  791MOL0     H 6724   1.264   2.225  10.744 -2.0212  3.4243  0.4707
  791MOL0     H 6725   1.261   2.094  10.862  1.1467  0.4222 -0.5660
  791MOL0     H 6726   1.118   2.245  11.017  0.1658  2.3383  0.5554
  791MOL0     H 6727   1.136   2.365  10.911  0.7072  0.5987  2.3430
  791MOL0     H 6728   1.030   2.200  10.725  1.0172  2.8575 -0.3411
  791MOL0     H 6729   1.013   2.084  10.854 -0.0409 -0.9419 -0.2958
  791MOL0     H 6730   0.895   2.368  10.875  1.3799  0.3232  3.4393
  791MOL0     H 6731   0.810   2.226  10.792  2.4041 -1.4315 -0.6701
  791MOL0     H 6732   0.804   2.122  11.013  0.9003 -0.3120  0.1192
  791MOL0     H 6733   0.904   2.246  11.088  0.7795  3.0220 -1.7706
  791MOL0     H 6734   0.718   2.404  11.041  2.9890 -0.6389  0.3059
  791MOL0     H 6735   0.679   2.264  11.152 -1.0364 -0.7080  0.2558
  791MOL0     H 6736   0.505   2.107  11.126 -0.4676  0.3220 -0.1073
  791MOL0     H 6737   0.258   2.020  10.875  0.5035 -1.4095  1.1793
  791MOL0     H 6738   0.313   1.991  11.038 -2.1876 -0.6500  0.0447
  791MOL0     H 6739   0.174   2.194  11.113 -1.1246  0.1282 -0.3418
  791MOL0     H 6740   0.097   2.046  11.077 -0.3656  1.1839  2.0116
  791MOL0     H 6741   0.046   2.127  10.844  2.3772 -0.8360 -1.2069
  791MOL0     H 6742   0.128   2.276  10.881  2.1258 -1.4010  1.4087
  791MOL0     H 6743  -0.089   2.333  10.916 -0.9544  0.7441  1.2473
  791MOL0     H 6744  -0.037   2.296  11.078 -2.2035  2.3367 -1.0387
  791MOL0     H 6745  -0.329   1.982  11.048  1.0708  0.6259 -0.8888
  791MOL0     H 6746  -0.582   1.933  11.220 -2.9237 -2.6373 -0.6816
  791MOL0     H 6747  -0.688   1.991  11.103  0.5746  1.6328  0.4104
  791MOL0     H 6748  -0.552   1.899  11.044  0.6481  1.5550 -1.3465
  791MOL0     H 6749  -0.973   2.426  11.006 -2.6058  0.5235  0.0867
  791MOL0     H 6750  -1.172   2.468  11.110  1.4793  1.2163 -1.4494
  791MOL0     H 6751  -1.345   2.641  11.234  0.4971  0.0660  0.8110
  791MOL0     H 6752  -1.345   2.464  11.234  0.6545  2.0748 -3.3125
  791MOL0     H 6753  -1.500   2.473  11.414  1.2200 -0.9838  1.6197
  791MOL0     H 6754  -1.412   2.583  11.502 -0.4573 -1.4985  0.7591
  791MOL0     H 6755  -1.573   2.678  11.262 -0.1533 -1.5260 -0.3944
  791MOL0     H 6756  -1.491   2.781  11.373 -1.1564  0.3874  0.7849
  791MOL0     H 6757  -1.709   2.592  11.474  2.5126 -0.7697  1.7385
  791MOL0     H 6758  -1.634   2.734  11.563  0.1584  1.0979 -0.8141
  791MOL0     H 6759  -1.811   2.736  11.318 -1.5373  0.7739  0.1248
  791MOL0     H 6760  -1.746   2.880  11.386  0.0280  1.0637  0.5731
  791MOL0     H 6761  -1.940   2.689  11.537 -1.2974  1.1552  0.8990
  791MOL0     H 6762  -1.876   2.836  11.601  1.3822 -0.5631 -0.2715
  791MOL0     H 6763  -2.093   2.780  11.408 -0.9892 -1.0773  1.2477
  791MOL0     H 6764  -2.006   2.908  11.336  0.1958 -1.2502 -0.9226
  791MOL0     H 6765  -2.170   3.003  11.474 -0.2933  0.5633  1.5185
  791MOL0     H 6766  -2.021   3.038  11.569  0.7338  0.4058 -1.6611
  791MOL0     H 6767  -0.985   2.547  11.482  0.1088 -0.7423  0.2189
  791MOL0     H 6768  -0.768   2.466  11.381  0.9634 -0.6026 -1.2887
  791MOL0     H 6769  -0.485   2.440  11.139 -1.4438  0.1017 -1.2804
  791MOL0     H 6770  -0.255   2.391  11.049  0.8846  0.2040 -1.0279
  791MOL0     H 6771   1.750   2.038  10.868 -0.9273 -0.0347  0.0599
  791MOL0     H 6772   1.992   2.037  10.776 -0.2505 -0.1611  0.7601
  791MOL0     H 6773   2.258   2.011  10.486  0.0756  0.5361  1.5036
  791MOL0     H 6774   2.506   1.956  10.406  2.5299  1.6494 -1.2520
  791MOL0     H 6775   2.779   2.270  10.267 -0.7835 -1.0889 -1.0572
  791MOL0     H 6776   2.810   2.265  10.440  3.7760  0.4530 -0.6982
  791MOL0     H 6777   2.933   2.046  10.406  1.0260 -0.2955 -0.2010
  791MOL0     H 6778   3.008   2.183  10.336  0.4492  0.8399 -1.5080
  791MOL0     H 6779   2.879   1.971  10.171  0.7963 -0.6329 -2.7146
  791MOL0     H 6780   3.040   2.046  10.174  0.3712  3.3972 -2.8514
  791MOL0     H 6781   2.935   2.253  10.063  0.4447 -0.1857 -1.9473
  791MOL0     H 6782   2.782   2.166  10.073 -0.0159  0.0281  0.4300
  791MOL0     H 6783   2.959   2.015   9.721 -1.7297  0.4895 -0.4827
  791MOL0     H 6784   2.608   2.361  10.463  1.3700 -0.7927 -2.5344
  791MOL0     H 6785   2.390   2.416  10.497  0.3566 -0.7886  1.5179
  792MOL0     O 6786   0.234  10.418   7.422 -0.6508  0.9146  0.4423
  792MOL0     C 6787   0.322  10.454   7.500 -0.7066  0.4532 -0.1962
  792MOL0     O 6788   0.305  10.557   7.588  0.2707  0.9830  0.2957
  792MOL0     C 6789   0.167  10.608   7.598 -0.8002 -0.2494  0.6400
  792MOL0     C 6790   0.103  10.668   7.493 -0.0984 -0.0923 -0.7196
  792MOL0     C 6791  -0.017  10.728   7.496 -0.1956  0.1057  0.6185
  792MOL0     C 6792  -0.094  10.722   7.615  0.5583 -0.1675 -0.0012
  792MOL0     O 6793  -0.214  10.781   7.625 -0.1544  0.1845  0.0488
  792MOL0     C 6794  -0.257  10.872   7.514  0.4969  1.3470 -0.3261
  792MOL0     C 6795  -0.395  10.926   7.560 -0.7534  0.6026 -0.7626
  792MOL0     C 6796  -0.458  11.014   7.441 -0.5862 -0.2140  0.2029
  792MOL0     C 6797  -0.614  11.035   7.469  0.7147  0.5077  0.4207
  792MOL0     C 6798  -0.686  11.123   7.373  0.7983  0.8021  1.0088
  792MOL0     C 6799  -0.690  11.076   7.228  0.6746 -0.2663  0.1117
  792MOL0     C 6800  -0.775  10.948   7.206 -0.2750 -0.4553 -1.0257
  792MOL0     C 6801  -0.856  10.955   7.080  0.1691 -0.1864 -0.3138
  792MOL0     N 6802  -0.940  10.840   7.072 -0.1827 -0.2771 -0.1982
  792MOL0     C 6803  -0.891  10.726   7.020 -0.3662 -0.7867 -0.1284
  792MOL0     C 6804  -0.986  10.637   7.026 -0.4557 -0.2479  0.5179
  792MOL0     C 6805  -0.973  10.495   6.995  0.9148  0.5301 -0.8629
  792MOL0     C 6806  -1.098  10.441   6.942  0.5491  0.7429  0.3077
  792MOL0     C 6807  -1.061  10.305   6.874  0.3755 -0.1771 -0.7359
  792MOL0     C 6808  -1.181  10.206   6.861  0.3087 -0.0514  0.4485
  792MOL0     O 6809  -1.238  10.198   6.993 -0.6669  0.5564 -0.4576
  792MOL0     C 6810  -1.358  10.132   6.991  0.2914 -0.0102  1.7706
  792MOL0     C 6811  -1.410  10.038   6.895  0.3062 -0.3530  0.5051
  792MOL0     C 6812  -1.535   9.973   6.914  0.9167  0.4374  0.3625
  792MOL0     C 6813  -1.573   9.872   6.807  0.2545 -0.5335  1.0249
  792MOL0     C 6814  -1.623  10.011   7.020  0.2502 -0.6123  0.4158
  792MOL0     C 6815  -1.749   9.945   7.050  0.3864  0.2567  0.1913
  792MOL0     O 6816  -1.794   9.961   7.175 -0.5639 -0.2223 -0.0397
  792MOL0     C 6817  -1.931   9.976   7.191 -0.7744  0.3927  0.1096
  792MOL0     C 6818  -1.986  10.099   7.184 -0.2999 -0.0116 -0.5343
  792MOL0     C 6819  -2.120  10.119   7.217  0.0682  0.2704 -0.1718
  792MOL0     C 6820  -2.206  10.018   7.270 -0.0542  0.6219  1.3694
  792MOL0     O 6821  -2.335  10.050   7.310  0.1527  0.1500  0.2200
  792MOL0     C 6822  -2.412  10.124   7.214 -0.3626  0.0583 -0.2216
  792MOL0     C 6823  -2.549  10.153   7.272 -0.4374 -0.1312 -0.4305
  792MOL0     C 6824  -2.665  10.095   7.179  0.7687 -0.1783 -0.6632
  792MOL0     C 6825  -2.799  10.106   7.257  0.0278  0.3136  0.0378
  792MOL0     C 6826  -2.907   9.996   7.217  0.1717  0.3642 -0.3279
  792MOL0     C 6827  -3.019  10.010   7.325  0.0424 -0.0293 -0.5172
  792MOL0     C 6828  -2.977   9.964   7.471  0.6444  0.4663  0.0788
  792MOL0     C 6829  -3.102   9.974   7.568 -0.2990 -0.6139  0.1340
  792MOL0    Cl 6830  -3.154  10.146   7.599  0.2214  0.2319 -0.0968
  792MOL0     C 6831  -2.152   9.891   7.280  0.2043 -0.3528  0.1954
  792MOL0     C 6832  -2.015   9.864   7.241  0.0441 -0.1838 -0.5372
  792MOL0     O 6833  -1.817   9.902   6.954  0.2726 -0.1819  0.6597
  792MOL0     C 6834  -1.579  10.118   7.108 -0.7315 -0.4341  0.4903
  792MOL0     C 6835  -1.448  10.169   7.090 -0.3460  0.0254 -0.6579
  792MOL0     N 6836  -1.093  10.700   7.089  0.4154 -0.2342 -0.1368
  792MOL0     N 6837  -1.066  10.825   7.108 -0.3159 -0.4249 -0.0405
  792MOL0     C 6838  -0.031  10.668   7.723 -0.4287 -0.1958 -0.6999
  792MOL0     C 6839   0.093  10.599   7.717  0.5383 -0.7843 -0.5173
  792MOL0     C 6840   0.442  10.372   7.513 -0.8315 -0.0416 -0.1381
  792MOL0     C 6841   0.493  10.303   7.397  0.1334  0.2548 -0.1545
  792MOL0     C 6842   0.611  10.228   7.413  0.3087  0.3821 -0.2550
  792MOL0     C 6843   0.693  10.239   7.533 -0.0541 -0.0770  0.9164
  792MOL0     O 6844   0.819  10.187   7.541  0.3597  0.0018 -0.0952
  792MOL0     C 6845   0.877  10.119   7.429  1.1642  0.3099 -0.5673
  792MOL0     C 6846   1.016  10.072   7.467  0.7235  0.5661  0.0936
  792MOL0     C 6847   1.015   9.942   7.559 -0.2703 -0.2541  0.2442
  792MOL0     C 6848   1.155   9.901   7.616  0.1618 -0.1872  0.3515
  792MOL0     C 6849   1.196   9.991   7.719 -0.3313  0.3295 -0.9003
  792MOL0     C 6850   1.225  10.064   7.817  0.6992 -0.4632  0.1542
  792MOL0     C 6851   0.636  10.303   7.640 -0.1801  0.0575 -0.4046
  792MOL0     C 6852   0.512  10.362   7.636 -0.0191  0.1940 -0.5245
  792MOL0     H 6853   0.159  10.677   7.400 -2.3498  1.1747 -2.0472
  792MOL0     H 6854  -0.057  10.775   7.407 -0.5820 -2.4820 -0.6668
  792MOL0     H 6855  -0.184  10.952   7.504  2.6702 -0.4173  0.5512
  792MOL0     H 6856  -0.266  10.827   7.414  0.1168 -0.5601  0.5068
  792MOL0     H 6857  -0.471  10.850   7.579 -0.0217  0.1157  0.3178
  792MOL0     H 6858  -0.380  10.985   7.651  1.2825 -2.7459  1.2714
  792MOL0     H 6859  -0.405  11.110   7.439 -1.5001  0.3438  1.6642
  792MOL0     H 6860  -0.443  10.966   7.344 -2.3287 -2.4538  0.9613
  792MOL0     H 6861  -0.669  10.942   7.455  0.0929  1.1419 -1.7091
  792MOL0     H 6862  -0.625  11.077   7.569  1.7166  0.4835  0.5538
  792MOL0     H 6863  -0.789  11.129   7.409  0.8311 -1.4275  1.6465
  792MOL0     H 6864  -0.642  11.222   7.361 -1.9096  1.7437 -4.4520
  792MOL0     H 6865  -0.736  11.165   7.184  0.3251  1.2259  3.2728
  792MOL0     H 6866  -0.593  11.060   7.179  0.4286 -1.5931  0.0025
  792MOL0     H 6867  -0.709  10.861   7.201  0.0991 -0.1145 -3.0749
  792MOL0     H 6868  -0.840  10.947   7.293 -1.0121  2.0019 -1.4644
  792MOL0     H 6869  -0.781  10.951   7.000  1.6959 -1.2043  1.0987
  792MOL0     H 6870  -0.916  11.046   7.076 -0.5697 -0.6965 -1.4465
  792MOL0     H 6871  -0.788  10.724   6.986  1.0438  0.1732  3.5261
  792MOL0     H 6872  -0.890  10.479   6.926  0.7215 -1.4159 -0.6938
  792MOL0     H 6873  -0.945  10.446   7.089 -0.5670  1.3740  0.0627
  792MOL0     H 6874  -1.144  10.503   6.864  0.5094 -0.0750 -0.3397
  792MOL0     H 6875  -1.164  10.420   7.026 -0.6486 -2.4445 -1.2620
  792MOL0     H 6876  -0.988  10.252   6.935 -3.1023 -1.6819  2.5311
  792MOL0     H 6877  -1.018  10.328   6.776  2.5048  3.5277  0.8230
  792MOL0     H 6878  -1.146  10.113   6.817 -0.5959  0.4138 -1.3576
  792MOL0     H 6879  -1.256  10.245   6.792  0.1221  2.7000  2.0384
  792MOL0     H 6880  -1.347  10.011   6.811  0.0712 -2.4706  0.9679
  792MOL0     H 6881  -1.499   9.881   6.727 -0.3177 -1.2577  0.4060
  792MOL0     H 6882  -1.580   9.772   6.850  1.6494  0.2892  3.3076
  792MOL0     H 6883  -1.671   9.897   6.765  0.0434  2.9596  3.1826
  792MOL0     H 6884  -1.939  10.191   7.152 -0.7086 -0.3006 -2.0657
  792MOL0     H 6885  -2.155  10.222   7.212  1.2120  0.8979  2.6476
  792MOL0     H 6886  -2.375  10.221   7.179 -2.6081  0.6678 -1.1007
  792MOL0     H 6887  -2.413  10.068   7.121  2.6563 -2.3597  1.0580
  792MOL0     H 6888  -2.562  10.114   7.373 -1.6089 -0.6295 -0.7609
  792MOL0     H 6889  -2.560  10.261   7.282 -4.7131 -0.4953  0.9500
  792MOL0     H 6890  -2.643   9.991   7.151  3.4100 -0.0920  0.7906
  792MOL0     H 6891  -2.672  10.142   7.081 -1.5284 -0.0330 -0.4939
  792MOL0     H 6892  -2.783  10.089   7.364 -1.2322 -1.3075  0.0167
  792MOL0     H 6893  -2.833  10.209   7.242  0.8948  0.2710 -3.1618
  792MOL0     H 6894  -2.868   9.894   7.227  2.7148  1.2863  0.1101
  792MOL0     H 6895  -2.953  10.021   7.121  2.2935 -1.3036 -1.8774
  792MOL0     H 6896  -3.037  10.117   7.337 -1.8075 -0.3791  0.2413
  792MOL0     H 6897  -3.105   9.954   7.287  0.2509 -1.4106  0.9681
  792MOL0     H 6898  -2.890  10.018   7.510  1.5306 -0.3640 -0.6826
  792MOL0     H 6899  -2.952   9.858   7.475 -1.0243  0.0633  0.4347
  792MOL0     H 6900  -3.085   9.925   7.664  1.3325  0.7285  0.5788
  792MOL0     H 6901  -3.184   9.922   7.518 -0.8864  0.4236  0.0130
  792MOL0     H 6902  -2.207   9.810   7.327 -0.2727  0.2890  0.7675
  792MOL0     H 6903  -1.986   9.762   7.259  0.5029  0.1575  0.7720
  792MOL0     H 6904  -1.640  10.158   7.188  0.5656  0.2821  1.1637
  792MOL0     H 6905  -1.417  10.245   7.161 -1.9104 -0.4000  0.5345
  792MOL0     H 6906  -0.088  10.663   7.815 -1.4857 -2.3206 -1.3884
  792MOL0     H 6907   0.139  10.555   7.805 -0.4774 -0.3534  0.2460
  792MOL0     H 6908   0.447  10.297   7.299 -0.0708 -1.4353  0.0165
  792MOL0     H 6909   0.649  10.178   7.324  0.9739 -0.1518  0.3095
  792MOL0     H 6910   0.820  10.031   7.396  0.1190  0.8925 -0.3919
  792MOL0     H 6911   0.872  10.176   7.336 -1.3178  0.4692 -0.4045
  792MOL0     H 6912   1.062  10.160   7.512 -3.5261  1.2885  3.8080
  792MOL0     H 6913   1.065  10.049   7.372  0.7988 -5.0314  1.1580
  792MOL0     H 6914   0.978   9.853   7.506 -1.9458 -0.4277  1.6181
  792MOL0     H 6915   0.947   9.963   7.642 -0.9850  1.0662 -0.6552
  792MOL0     H 6916   1.235   9.902   7.541 -0.3515  1.1745 -0.2063
  792MOL0     H 6917   1.146   9.805   7.668  1.5569 -0.5038  0.0515
  792MOL0     H 6918   1.243  10.135   7.895  0.5088 -0.4885  0.2224
  792MOL0     H 6919   0.690  10.305   7.734 -1.1637  1.2928  0.1627
  792MOL0     H 6920   0.458  10.398   7.723  0.1752 -1.8413  0.5102
  793MOL0     O 6921   8.079   5.221   3.706  0.4710 -0.1611 -0.2279
  793MOL0     C 6922   8.107   5.328   3.651 -0.1483 -0.5497 -0.8352
  793MOL0     O 6923   8.021   5.406   3.573 -0.2195 -0.3508 -0.1751
  793MOL0     C 6924   7.899   5.358   3.543  0.8406  0.9483 -0.1310
  793MOL0     C 6925   7.791   5.417   3.607 -0.5847  0.3701 -0.4166
  793MOL0     C 6926   7.659   5.390   3.577 -1.1031 -0.1847 -0.2962
  793MOL0     C 6927   7.627   5.293   3.485 -0.7782  0.2138 -0.8944
  793MOL0     O 6928   7.501   5.236   3.455  0.8102  0.4570  0.3032
  793MOL0     C 6929   7.391   5.323   3.494 -0.0055  0.0557  0.1082
  793MOL0     C 6930   7.266   5.255   3.426  0.6782 -0.3218 -0.3290
  793MOL0     C 6931   7.131   5.325   3.452  0.1365  0.2144 -0.1987
  793MOL0     C 6932   7.117   5.463   3.391 -0.6318 -0.5614  0.4624
  793MOL0     C 6933   6.980   5.523   3.422  0.4991 -0.1845  0.0591
  793MOL0     C 6934   6.968   5.573   3.563  0.0017 -0.6374 -0.0701
  793MOL0     C 6935   7.083   5.674   3.598 -0.6897  0.7607 -0.4779
  793MOL0     C 6936   7.202   5.605   3.681 -1.0264  0.9370 -0.4112
  793MOL0     N 6937   7.311   5.703   3.685  0.2979 -0.4996  0.1092
  793MOL0     C 6938   7.411   5.704   3.588 -0.7465  0.6205 -0.3232
  793MOL0     C 6939   7.477   5.816   3.618  0.9014 -0.6056 -0.1758
  793MOL0     C 6940   7.601   5.864   3.557 -0.0100 -0.1590 -0.1257
  793MOL0     C 6941   7.681   5.750   3.491  0.1118  0.2491 -0.4250
  793MOL0     C 6942   7.778   5.819   3.398 -0.2748  0.4959  0.5728
  793MOL0     C 6943   7.893   5.726   3.372  1.2919  0.3827 -0.4641
  793MOL0     O 6944   7.972   5.798   3.269 -0.9786  0.1914 -0.0607
  793MOL0     C 6945   8.099   5.752   3.242 -0.7104 -0.2244 -0.2577
  793MOL0     C 6946   8.129   5.616   3.240  0.1311  0.5095 -1.2283
  793MOL0     C 6947   8.260   5.575   3.210 -0.6088 -0.3669  0.2998
  793MOL0     C 6948   8.290   5.431   3.206 -0.5071  0.6908 -0.0551
  793MOL0     C 6949   8.361   5.675   3.194  0.6150  0.3419 -0.2322
  793MOL0     C 6950   8.502   5.634   3.167 -0.7332 -0.4680 -0.3655
  793MOL0     O 6951   8.571   5.563   3.263 -0.2702  0.4605 -0.7468
  793MOL0     C 6952   8.696   5.510   3.229  0.2507 -0.0592 -0.3135
  793MOL0     C 6953   8.808   5.592   3.245  0.3659  0.3623 -0.2824
  793MOL0     C 6954   8.934   5.541   3.224  0.1747 -0.0860 -0.0733
  793MOL0     C 6955   8.952   5.407   3.187  0.6622 -0.8657 -0.0205
  793MOL0     O 6956   9.074   5.357   3.164  0.4989 -0.1334 -0.2118
  793MOL0     C 6957   9.142   5.432   3.064 -0.6611  0.4806 -0.2844
  793MOL0     C 6958   9.269   5.358   3.020 -0.4017  0.3893  0.5163
  793MOL0     C 6959   9.346   5.437   2.919  0.4678 -0.4598  0.5153
  793MOL0     C 6960   9.481   5.375   2.885 -0.8013 -1.2299 -0.1302
  793MOL0     C 6961   9.555   5.480   2.792 -0.2777 -0.5862  0.8992
  793MOL0     C 6962   9.611   5.600   2.857 -0.4584 -0.2087  0.0249
  793MOL0     C 6963   9.686   5.693   2.757  0.5243  1.0213 -0.1296
  793MOL0     C 6964   9.721   5.829   2.816 -0.4593  0.3859 -0.4869
  793MOL0    Cl 6965   9.848   5.808   2.939  0.4560  0.1271  0.8148
  793MOL0     C 6966   8.839   5.331   3.164  0.0271  0.2584 -0.4043
  793MOL0     C 6967   8.708   5.380   3.181  0.6576 -0.0740  0.4743
  793MOL0     O 6968   8.548   5.681   3.064 -0.4676 -0.0681  1.2307
  793MOL0     C 6969   8.325   5.810   3.194 -0.0376  0.3238 -0.1352
  793MOL0     C 6970   8.193   5.844   3.210  0.0531  0.8481  0.0112
  793MOL0     N 6971   7.427   5.866   3.741 -0.1712 -0.0955 -0.9758
  793MOL0     N 6972   7.324   5.800   3.781 -0.8330  0.2997  0.2290
  793MOL0     C 6973   7.735   5.231   3.417 -0.7618  0.4562  0.0930
  793MOL0     C 6974   7.870   5.255   3.452 -0.9820 -0.9598  0.2417
  793MOL0     C 6975   8.249   5.371   3.668  0.0802 -0.2144  0.9470
  793MOL0     C 6976   8.343   5.296   3.745  0.4263  0.1093 -0.2404
  793MOL0     C 6977   8.466   5.341   3.775 -1.2282 -0.4167  0.7463
  793MOL0     C 6978   8.506   5.465   3.715 -1.1613  0.3891 -0.7213
  793MOL0     O 6979   8.637   5.501   3.747 -0.0358  0.1638 -0.5425
  793MOL0     C 6980   8.732   5.505   3.645 -0.2450 -0.3717 -0.0905
  793MOL0     C 6981   8.846   5.400   3.673  0.2153 -0.4321  0.2238
  793MOL0     C 6982   8.965   5.411   3.574  0.1772 -0.0281 -0.5025
  793MOL0     C 6983   9.064   5.510   3.609 -0.0798 -1.0409 -0.0805
  793MOL0     C 6984   9.174   5.501   3.508 -0.4301  0.1338  0.1030
  793MOL0     C 6985   9.271   5.503   3.435  0.2312  0.3230 -0.2875
  793MOL0     C 6986   8.425   5.538   3.633 -0.0478  0.1432 -0.1168
  793MOL0     C 6987   8.292   5.491   3.616 -0.4345 -0.6497  1.0561
  793MOL0     H 6988   7.822   5.489   3.682  0.5073 -2.4903  2.0943
  793MOL0     H 6989   7.574   5.448   3.615 -0.2157  0.8722  0.1396
  793MOL0     H 6990   7.387   5.340   3.602 -1.7514  1.7823 -0.1678
  793MOL0     H 6991   7.399   5.424   3.452 -1.3162 -0.5025 -1.6353
  793MOL0     H 6992   7.290   5.250   3.319 -0.6260  1.0163 -0.7299
  793MOL0     H 6993   7.261   5.160   3.480 -0.2363  0.3623  0.8433
  793MOL0     H 6994   7.055   5.254   3.417 -0.7196  0.2795  1.4165
  793MOL0     H 6995   7.117   5.336   3.560 -2.3775  0.8412 -0.5366
  793MOL0     H 6996   7.197   5.529   3.426 -2.1101  1.1994  0.7216
  793MOL0     H 6997   7.133   5.460   3.283 -4.0099 -2.6972 -0.1124
  793MOL0     H 6998   6.949   5.601   3.351 -0.6692 -0.3513  0.3505
  793MOL0     H 6999   6.900   5.448   3.411 -1.1888  1.5550 -0.0304
  793MOL0     H 7000   6.871   5.620   3.581  0.0768 -0.4571 -0.1373
  793MOL0     H 7001   6.978   5.493   3.636  1.2179  0.0683  0.5740
  793MOL0     H 7002   7.110   5.726   3.505  0.3251  1.0690 -0.0200
  793MOL0     H 7003   7.037   5.745   3.667  2.0865  1.3773  0.8863
  793MOL0     H 7004   7.238   5.513   3.634 -1.3644 -0.3222  1.6711
  793MOL0     H 7005   7.173   5.586   3.785  1.3542 -3.4290 -0.3115
  793MOL0     H 7006   7.435   5.631   3.511 -0.7497  0.8908 -0.5804
  793MOL0     H 7007   7.572   5.932   3.477 -0.3691 -0.5624 -0.3423
  793MOL0     H 7008   7.659   5.918   3.632 -1.1914  2.3771 -0.9541
  793MOL0     H 7009   7.622   5.680   3.431  1.6612 -0.5601 -1.0860
  793MOL0     H 7010   7.744   5.692   3.559  1.4169 -0.1564 -1.8947
  793MOL0     H 7011   7.827   5.901   3.450  2.9707 -0.8968 -0.0768
  793MOL0     H 7012   7.731   5.854   3.305 -2.2784 -0.6462  1.0948
  793MOL0     H 7013   7.856   5.628   3.341 -2.7044  0.8930  1.9757
  793MOL0     H 7014   7.940   5.711   3.470 -0.7797 -0.8228  0.4237
  793MOL0     H 7015   8.056   5.536   3.240 -0.2191  0.8226 -0.5028
  793MOL0     H 7016   8.389   5.401   3.169 -1.6549 -1.9460 -1.2693
  793MOL0     H 7017   8.264   5.396   3.307 -1.6054  1.0048 -0.2117
  793MOL0     H 7018   8.221   5.381   3.137 -1.9472  1.7156  0.5818
  793MOL0     H 7019   8.798   5.695   3.277  1.5860  0.0163  1.3585
  793MOL0     H 7020   9.011   5.614   3.247 -0.3943 -0.1544  2.2578
  793MOL0     H 7021   9.077   5.442   2.977 -0.0216 -2.7540 -1.2784
  793MOL0     H 7022   9.155   5.536   3.095  1.0183  1.2974 -3.3206
  793MOL0     H 7023   9.332   5.347   3.109  1.1033  1.2004 -0.4176
  793MOL0     H 7024   9.243   5.257   2.985 -0.5021 -0.0965  1.9032
  793MOL0     H 7025   9.355   5.541   2.951 -0.9490 -0.1557 -0.0393
  793MOL0     H 7026   9.290   5.440   2.825  3.4511  0.1518 -1.3763
  793MOL0     H 7027   9.539   5.358   2.975  0.6254  1.5725 -0.4084
  793MOL0     H 7028   9.461   5.282   2.831 -0.1252 -0.6567 -1.4094
  793MOL0     H 7029   9.481   5.516   2.721 -0.2876 -1.2863  0.5463
  793MOL0     H 7030   9.640   5.427   2.748 -0.1512 -0.9338  1.5411
  793MOL0     H 7031   9.532   5.653   2.911 -2.2731 -2.5430 -0.1495
  793MOL0     H 7032   9.681   5.555   2.929  0.4007  2.7878  1.1936
  793MOL0     H 7033   9.622   5.708   2.669 -1.6253  0.5946  1.2894
  793MOL0     H 7034   9.775   5.640   2.723  0.9696  1.2077  0.7449
  793MOL0     H 7035   9.629   5.878   2.849 -1.2849 -1.3987 -0.0139
  793MOL0     H 7036   9.762   5.891   2.735  0.6832  2.0467  1.2899
  793MOL0     H 7037   8.867   5.234   3.123 -1.6885 -0.6887  0.5354
  793MOL0     H 7038   8.625   5.314   3.160  1.1180 -0.7194  0.6603
  793MOL0     H 7039   8.391   5.886   3.153  0.2235  0.7729  1.1000
  793MOL0     H 7040   8.171   5.951   3.206 -0.0302  0.8598  0.6242
  793MOL0     H 7041   7.714   5.158   3.339  0.4872  0.0568  0.1084
  793MOL0     H 7042   7.955   5.217   3.397 -0.9346 -0.0215 -0.3728
  793MOL0     H 7043   8.305   5.203   3.787 -0.0057  1.4234  2.5219
  793MOL0     H 7044   8.529   5.263   3.816 -0.3090 -0.5260 -0.8060
  793MOL0     H 7045   8.692   5.480   3.546  0.4141 -0.9030 -0.2328
  793MOL0     H 7046   8.778   5.604   3.648  1.5929 -1.1913  0.2674
  793MOL0     H 7047   8.809   5.298   3.665  0.2649 -0.4622  0.3665
  793MOL0     H 7048   8.880   5.407   3.777 -0.4562 -0.0204  0.4219
  793MOL0     H 7049   8.914   5.440   3.481  1.9079  1.6313 -0.9912
  793MOL0     H 7050   9.015   5.315   3.561  0.1867  0.0828 -1.3497
  793MOL0     H 7051   9.088   5.485   3.713 -0.5704 -3.5671 -0.5184
  793MOL0     H 7052   9.020   5.610   3.609  1.1444 -0.4610  1.1998
  793MOL0     H 7053   9.346   5.494   3.359 -1.3946 -0.8605 -1.8412
  793MOL0     H 7054   8.455   5.627   3.578 -0.0392 -0.0190 -0.3751
  793MOL0     H 7055   8.235   5.552   3.547 -1.0291 -1.7077  0.5872
  794MOL0     O 7056   8.827  10.587   4.788 -0.3825 -0.0572  0.3156
  794MOL0     C 7057   8.942  10.551   4.763  0.6865 -0.2899 -1.0954
  794MOL0     O 7058   8.979  10.434   4.708  0.1388  0.2112  0.8034
  794MOL0     C 7059   8.892  10.330   4.682 -0.1515 -0.7397 -0.2469
  794MOL0     C 7060   8.945  10.220   4.625  0.1225  0.2050  0.7361
  794MOL0     C 7061   8.879  10.104   4.608  0.6380  0.0775  0.0144
  794MOL0     C 7062   8.745  10.087   4.658 -0.0127  0.0415  0.3413
  794MOL0     O 7063   8.668   9.975   4.639 -0.4286  0.6536 -1.0920
  794MOL0     C 7064   8.728   9.846   4.647 -0.0520 -0.9417  0.2896
  794MOL0     C 7065   8.620   9.745   4.616  0.1140 -0.1447 -0.1202
  794MOL0     C 7066   8.528   9.725   4.736  0.3824  0.3907 -0.2554
  794MOL0     C 7067   8.450   9.591   4.731 -0.6704 -0.3170  0.4974
  794MOL0     C 7068   8.343   9.596   4.840 -0.0673 -0.4251 -0.0247
  794MOL0     C 7069   8.262   9.464   4.820 -0.1371 -0.1197 -0.0114
  794MOL0     C 7070   8.159   9.450   4.928  0.4973 -0.1993 -0.3685
  794MOL0     C 7071   8.046   9.360   4.876 -0.3970 -0.5897 -0.5795
  794MOL0     N 7072   7.977   9.307   4.992 -0.6944 -0.3505 -0.8017
  794MOL0     C 7073   7.910   9.371   5.095  0.4772 -0.1605  0.0807
  794MOL0     C 7074   7.845   9.286   5.173  0.7855  0.1155 -0.4277
  794MOL0     C 7075   7.747   9.318   5.280  0.1177  0.1282  0.6184
  794MOL0     C 7076   7.683   9.206   5.360  0.1612 -0.5572 -0.2986
  794MOL0     C 7077   7.563   9.257   5.447 -0.7873 -0.1471 -1.0875
  794MOL0     C 7078   7.441   9.257   5.355 -0.0987 -0.1217 -0.6048
  794MOL0     O 7079   7.319   9.258   5.430  0.0690  0.2222  0.2903
  794MOL0     C 7080   7.200   9.272   5.356  0.0328  0.0525 -0.2768
  794MOL0     C 7081   7.082   9.223   5.426  0.0860 -0.4928 -0.4776
  794MOL0     C 7082   6.961   9.251   5.374  0.3644 -0.0424 -0.3869
  794MOL0     C 7083   6.837   9.236   5.467 -0.0707  0.0897  0.0605
  794MOL0     C 7084   6.944   9.300   5.248 -0.3509  0.2508 -0.5449
  794MOL0     C 7085   6.814   9.310   5.178 -0.2384 -0.3957 -0.3628
  794MOL0     O 7086   6.817   9.402   5.068  0.2604 -0.5641 -0.0310
  794MOL0     C 7087   6.708   9.391   4.989  0.6090  0.5838  0.1480
  794MOL0     C 7088   6.574   9.419   5.032  0.7486  0.1513  0.5118
  794MOL0     C 7089   6.475   9.421   4.940 -0.0079  1.4928  0.6973
  794MOL0     C 7090   6.497   9.381   4.805  0.8628 -0.2805 -0.5860
  794MOL0     O 7091   6.394   9.364   4.713  0.2048 -0.1360  1.3434
  794MOL0     C 7092   6.297   9.465   4.698  0.1859 -0.1464 -0.0965
  794MOL0     C 7093   6.210   9.435   4.569  0.1990 -1.1756 -0.1712
  794MOL0     C 7094   6.090   9.520   4.578  0.2689  0.3916 -0.1413
  794MOL0     C 7095   6.097   9.653   4.515 -0.7757  0.4311 -0.7868
  794MOL0     C 7096   5.971   9.741   4.532 -0.6456 -0.2063 -0.3575
  794MOL0     C 7097   5.989   9.880   4.475  0.1002 -0.2193  0.4059
  794MOL0     C 7098   5.846   9.947   4.481 -0.2187 -0.3732  0.3970
  794MOL0     C 7099   5.858  10.066   4.393  0.6750  0.5315  0.4767
  794MOL0    Cl 7100   5.969  10.200   4.448 -0.0824  0.0861  0.3651
  794MOL0     C 7101   6.631   9.373   4.756  0.0552 -0.9193  0.0978
  794MOL0     C 7102   6.731   9.366   4.850 -0.1469 -0.3430 -0.0099
  794MOL0     O 7103   6.723   9.226   5.197 -0.2243 -0.6898 -0.1107
  794MOL0     C 7104   7.055   9.322   5.172 -0.3634 -0.1710 -0.2483
  794MOL0     C 7105   7.182   9.319   5.227 -0.1867  1.1827 -0.2270
  794MOL0     N 7106   7.880   9.169   5.120 -0.8342  0.3417  0.2810
  794MOL0     N 7107   7.955   9.174   5.015  0.0531  0.0963  0.4070
  794MOL0     C 7108   8.684  10.198   4.703 -0.1815 -0.0226 -0.1186
  794MOL0     C 7109   8.753  10.318   4.717  0.7132  0.5600  1.1224
  794MOL0     C 7110   9.052  10.639   4.812 -0.5475 -0.8445  0.5100
  794MOL0     C 7111   9.185  10.589   4.817  0.0661  0.3650 -1.1756
  794MOL0     C 7112   9.290  10.665   4.847  0.3749  0.0273  0.0628
  794MOL0     C 7113   9.261  10.792   4.895 -0.6037  0.2693  0.2146
  794MOL0     O 7114   9.375  10.864   4.925 -0.4932  0.3976  0.2131
  794MOL0     C 7115   9.398  10.994   4.864  0.6529 -0.0228 -0.3444
  794MOL0     C 7116   9.464  10.987   4.722  0.1982 -0.3231  0.1756
  794MOL0     C 7117   9.500  11.129   4.666  0.3032  0.0075 -0.7353
  794MOL0     C 7118   9.555  11.132   4.527 -0.0400  0.4289  0.2487
  794MOL0     C 7119   9.660  11.035   4.509  0.0375  0.5210  0.3535
  794MOL0     C 7120   9.752  10.948   4.496  0.6460 -0.0911 -1.2378
  794MOL0     C 7121   9.133  10.850   4.896 -0.8260  0.5994  0.8518
  794MOL0     C 7122   9.026  10.772   4.856  0.3677 -0.0713 -0.2162
  794MOL0     H 7123   9.053  10.214   4.621  0.1065 -1.4647  1.9299
  794MOL0     H 7124   8.927  10.012   4.576 -0.0762 -0.9897  1.8299
  794MOL0     H 7125   8.796   9.845   4.562 -1.5353  0.9464 -1.0083
  794MOL0     H 7126   8.782   9.828   4.740  4.6755 -1.9817 -2.3134
  794MOL0     H 7127   8.575   9.758   4.517  1.1891  1.0701 -0.4757
  794MOL0     H 7128   8.668   9.647   4.608 -0.0702 -0.1531 -1.1996
  794MOL0     H 7129   8.598   9.724   4.821  0.8221 -3.5052 -0.4683
  794MOL0     H 7130   8.455   9.806   4.743  1.5765  1.6287 -1.5906
  794MOL0     H 7131   8.402   9.577   4.634 -1.5268 -0.8703  0.9896
  794MOL0     H 7132   8.520   9.510   4.752 -0.4023 -0.4219 -0.7530
  794MOL0     H 7133   8.382   9.596   4.942 -1.7222  3.0761  0.7877
  794MOL0     H 7134   8.280   9.685   4.834  0.1960 -0.0178  2.3916
  794MOL0     H 7135   8.212   9.477   4.723  0.2047  1.1049 -0.0414
  794MOL0     H 7136   8.325   9.375   4.812  0.8552  0.4062  1.7194
  794MOL0     H 7137   8.202   9.418   5.022 -0.9175  3.3715  1.7123
  794MOL0     H 7138   8.114   9.548   4.948  0.4751 -0.1308 -0.7335
  794MOL0     H 7139   8.076   9.272   4.819 -4.2814 -4.1061  2.1536
  794MOL0     H 7140   7.976   9.425   4.822 -1.0606 -0.0017  0.9288
  794MOL0     H 7141   7.900   9.479   5.102  0.4181 -0.1825  0.3637
  794MOL0     H 7142   7.788   9.394   5.346 -1.0140 -0.2437  1.7884
  794MOL0     H 7143   7.664   9.367   5.227  2.3168  0.3508 -2.9800
  794MOL0     H 7144   7.766   9.175   5.424  0.6692  0.4141 -0.4585
  794MOL0     H 7145   7.646   9.123   5.299 -0.6458 -0.2164 -0.2812
  794MOL0     H 7146   7.579   9.362   5.473 -2.9308 -0.1843  0.6802
  794MOL0     H 7147   7.556   9.194   5.536 -0.3396  1.2352 -0.0445
  794MOL0     H 7148   7.437   9.169   5.291  2.8389 -0.5482 -0.3575
  794MOL0     H 7149   7.451   9.353   5.303 -1.3331  1.4882  1.8902
  794MOL0     H 7150   7.096   9.182   5.526 -0.1287  0.3281 -0.0988
  794MOL0     H 7151   6.746   9.290   5.437 -0.0335  0.2057  0.1580
  794MOL0     H 7152   6.806   9.132   5.479  0.6810  0.0553  2.0245
  794MOL0     H 7153   6.881   9.267   5.562  1.5288 -0.5424 -0.4393
  794MOL0     H 7154   6.551   9.449   5.134 -2.6690 -1.7601  0.4446
  794MOL0     H 7155   6.373   9.444   4.971  0.0608  0.0981  2.0739
  794MOL0     H 7156   6.224   9.465   4.779 -1.1544 -1.1831 -1.2473
  794MOL0     H 7157   6.348   9.562   4.693 -0.9224  0.4132 -0.7950
  794MOL0     H 7158   6.257   9.456   4.473 -1.7818  0.6034 -0.8195
  794MOL0     H 7159   6.176   9.332   4.581  2.0209 -1.6949  0.9813
  794MOL0     H 7160   6.062   9.547   4.680 -3.1163 -0.3453 -0.7622
  794MOL0     H 7161   6.010   9.466   4.527 -0.4220  0.9996  0.2871
  794MOL0     H 7162   6.181   9.706   4.559  2.3004 -0.3950 -5.0275
  794MOL0     H 7163   6.129   9.647   4.411  1.4082  4.4526 -0.5338
  794MOL0     H 7164   5.950   9.734   4.640  2.1071 -1.6377  0.1668
  794MOL0     H 7165   5.893   9.679   4.487  0.6355 -4.0828  2.1854
  794MOL0     H 7166   6.067   9.934   4.529 -0.4722 -1.3041  2.4082
  794MOL0     H 7167   6.023   9.862   4.373  1.4694 -1.2990  1.0259
  794MOL0     H 7168   5.835   9.979   4.585 -1.0321 -2.2017  0.9004
  794MOL0     H 7169   5.767   9.881   4.446 -1.1768  1.2934 -0.7573
  794MOL0     H 7170   5.755  10.100   4.397  0.4490 -0.0527 -0.1889
  794MOL0     H 7171   5.885  10.031   4.293  0.8698 -0.8218  0.9919
  794MOL0     H 7172   6.644   9.364   4.648  0.5371  3.2545 -0.3720
  794MOL0     H 7173   6.831   9.349   4.811 -0.4259  0.0214 -0.8951
  794MOL0     H 7174   7.041   9.334   5.065  1.6891  1.2578 -0.4193
  794MOL0     H 7175   7.269   9.365   5.182  0.8240  1.4387  1.8295
  794MOL0     H 7176   8.577  10.189   4.720 -0.3580 -0.9859 -1.5985
  794MOL0     H 7177   8.700  10.402   4.760  1.0743  2.6590 -2.1827
  794MOL0     H 7178   9.195  10.482   4.800  1.3621 -0.0537  1.6096
  794MOL0     H 7179   9.395  10.638   4.846  0.3151 -0.3174  1.2074
  794MOL0     H 7180   9.302  11.045   4.856  1.2153  0.9411 -1.4305
  794MOL0     H 7181   9.461  11.057   4.927  0.9139 -0.0938 -0.5299
  794MOL0     H 7182   9.403  10.936   4.646  0.1758  0.4495 -0.3370
  794MOL0     H 7183   9.556  10.929   4.732  0.6547  0.5950  1.4553
  794MOL0     H 7184   9.580  11.160   4.733 -0.4641 -2.1218  1.2977
  794MOL0     H 7185   9.411  11.191   4.678 -1.0994 -2.3307  2.3379
  794MOL0     H 7186   9.592  11.233   4.509  3.4795 -0.6726  0.4612
  794MOL0     H 7187   9.474  11.116   4.456 -1.0922  0.2445  1.4541
  794MOL0     H 7188   9.839  10.886   4.483  0.4844 -0.7016  0.3743
  794MOL0     H 7189   9.118  10.950   4.935  5.1020  1.8560  0.8074
  794MOL0     H 7190   8.923  10.805   4.859 -0.1813 -1.7367  3.1620
  795MOL0     O 7191   9.770   6.928   5.950  0.3284 -0.2852  0.4047
  795MOL0     C 7192   9.731   6.854   6.037  0.4744 -0.4653  0.0931
  795MOL0     O 7193   9.605   6.869   6.100 -0.2039 -0.1773  0.6041
  795MOL0     C 7194   9.518   6.959   6.045  0.6007 -0.0259 -0.4992
  795MOL0     C 7195   9.462   6.942   5.924  0.7069 -0.4951 -0.3056
  795MOL0     C 7196   9.378   7.041   5.873  0.0267 -0.3792 -0.5468
  795MOL0     C 7197   9.338   7.148   5.957 -0.2494  0.9092 -0.4921
  795MOL0     O 7198   9.257   7.243   5.909 -0.5121 -0.4585  0.4572
  795MOL0     C 7199   9.139   7.290   5.973  0.3759 -0.1011  0.4369
  795MOL0     C 7200   9.065   7.383   5.876  0.6837 -0.0799  0.4035
  795MOL0     C 7201   9.032   7.344   5.731 -1.1574  0.3192  0.3890
  795MOL0     C 7202   8.940   7.224   5.722  0.8773 -0.7520 -0.2478
  795MOL0     C 7203   8.944   7.172   5.578 -0.0087  0.8192  0.5249
  795MOL0     C 7204   8.862   7.251   5.469  0.3669  0.0889  0.7192
  795MOL0     C 7205   8.708   7.250   5.512  0.2491 -0.4849 -0.1064
  795MOL0     C 7206   8.619   7.248   5.386  0.3113 -0.4034 -0.3563
  795MOL0     N 7207   8.475   7.244   5.431 -0.0982  0.0539  0.1240
  795MOL0     C 7208   8.412   7.125   5.474 -0.2419  0.2908 -0.4355
  795MOL0     C 7209   8.306   7.175   5.546 -0.6379  0.7719 -0.3352
  795MOL0     C 7210   8.208   7.098   5.637 -0.4210  0.0038 -0.7600
  795MOL0     C 7211   8.257   6.948   5.657  0.9652 -0.2359  0.6334
  795MOL0     C 7212   8.191   6.879   5.778  0.4073  0.5739 -0.3727
  795MOL0     C 7213   8.042   6.852   5.767  0.8997 -0.4122 -0.2149
  795MOL0     O 7214   8.023   6.740   5.849 -0.1617 -0.4005  0.6551
  795MOL0     C 7215   7.894   6.667   5.857 -0.8976 -0.7108  0.0115
  795MOL0     C 7216   7.778   6.728   5.798 -0.6664  0.2567 -0.3659
  795MOL0     C 7217   7.658   6.661   5.789 -0.6002 -1.3906  0.5172
  795MOL0     C 7218   7.542   6.741   5.735  0.4621  0.6307  0.2314
  795MOL0     C 7219   7.647   6.534   5.851  0.0054 -1.1522  0.3226
  795MOL0     C 7220   7.513   6.466   5.849 -0.1942  0.5160  0.2889
  795MOL0     O 7221   7.519   6.326   5.868  0.0194 -0.4882  0.0427
  795MOL0     C 7222   7.409   6.249   5.855 -0.0290  0.2250 -0.4430
  795MOL0     C 7223   7.382   6.168   5.964 -0.2729  0.0374 -0.6810
  795MOL0     C 7224   7.260   6.090   5.971 -0.1546  0.0204  0.2874
  795MOL0     C 7225   7.173   6.085   5.855 -0.5860 -0.2904  0.0794
  795MOL0     O 7226   7.066   6.003   5.842 -0.0834  0.2328  0.4310
  795MOL0     C 7227   7.043   5.903   5.950 -0.5951 -0.0786  1.2726
  795MOL0     C 7228   6.918   5.823   5.902  0.2952  0.0928 -0.6152
  795MOL0     C 7229   6.780   5.875   5.949 -0.1438  0.1990  0.7589
  795MOL0     C 7230   6.676   5.765   5.917 -0.2474 -0.4394  1.1187
  795MOL0     C 7231   6.538   5.788   5.971  0.2914 -0.7643  0.2273
  795MOL0     C 7232   6.471   5.921   5.932  1.9515  0.5986  0.2282
  795MOL0     C 7233   6.314   5.931   5.962 -0.9757 -0.0094 -0.0929
  795MOL0     C 7234   6.262   6.062   5.899 -0.1345 -0.2496  0.2545
  795MOL0    Cl 7235   6.093   6.036   5.835  0.0012  0.1893  0.1900
  795MOL0     C 7236   7.206   6.169   5.747 -0.1096  0.6621 -0.8435
  795MOL0     C 7237   7.319   6.251   5.753  0.6189 -0.8795  0.0799
  795MOL0     O 7238   7.413   6.533   5.844 -0.1756  0.3986  0.0552
  795MOL0     C 7239   7.760   6.471   5.905 -0.5764  0.1274 -0.3072
  795MOL0     C 7240   7.889   6.538   5.907  0.8868 -0.0689 -0.8515
  795MOL0     N 7241   8.301   7.309   5.531  0.6291 -0.1635  0.0682
  795MOL0     N 7242   8.394   7.353   5.455 -0.5654  0.6276 -0.0270
  795MOL0     C 7243   9.379   7.149   6.091  1.0538  0.0548  0.8200
  795MOL0     C 7244   9.476   7.062   6.129  0.0377  0.5236 -0.1961
  795MOL0     C 7245   9.817   6.733   6.057 -0.2357 -0.4895 -0.1339
  795MOL0     C 7246   9.955   6.747   6.044 -0.1800  0.8058  1.5262
  795MOL0     C 7247  10.039   6.635   6.069 -0.5176 -0.7170  0.7693
  795MOL0     C 7248   9.985   6.509   6.113  0.0133 -0.1206  0.4884
  795MOL0     O 7249  10.080   6.415   6.143 -0.3086 -0.4336 -0.6216
  795MOL0     C 7250  10.037   6.278   6.149 -1.1221 -0.6272 -0.2265
  795MOL0     C 7251  10.151   6.190   6.095 -0.4624  0.0142 -0.1690
  795MOL0     C 7252  10.261   6.185   6.204 -0.8357  0.6263  0.1789
  795MOL0     C 7253  10.354   6.057   6.172 -0.2921 -0.1994  0.7016
  795MOL0     C 7254  10.463   6.082   6.082 -0.1111 -1.4340  0.5798
  795MOL0     C 7255  10.543   6.130   6.000 -0.4110 -0.5637 -0.3582
  795MOL0     C 7256   9.846   6.496   6.124  0.6334 -0.1171 -0.2154
  795MOL0     C 7257   9.767   6.606   6.093 -0.0204 -0.5460 -0.4023
  795MOL0     H 7258   9.487   6.851   5.869 -0.8900 -1.6782  0.8354
  795MOL0     H 7259   9.334   7.027   5.775  0.1767 -0.0536 -0.6600
  795MOL0     H 7260   9.075   7.205   5.997 -1.1289  0.1515 -2.2360
  795MOL0     H 7261   9.158   7.350   6.062  0.1925 -2.6467  2.3127
  795MOL0     H 7262   8.968   7.396   5.924 -0.7661 -1.7947 -1.8730
  795MOL0     H 7263   9.110   7.480   5.854  0.0462 -0.3691 -2.5648
  795MOL0     H 7264   8.982   7.430   5.685 -0.1704 -0.0076 -1.4208
  795MOL0     H 7265   9.125   7.319   5.678 -2.2042 -1.6507 -0.6341
  795MOL0     H 7266   8.972   7.146   5.791  2.9649 -0.0327 -0.3290
  795MOL0     H 7267   8.842   7.262   5.754  1.6754 -1.0152  2.7760
  795MOL0     H 7268   9.047   7.153   5.546 -0.5259  1.1380 -1.5164
  795MOL0     H 7269   8.903   7.071   5.572  1.1856  0.2695  1.1847
  795MOL0     H 7270   8.901   7.353   5.458 -0.1709  0.2936  0.6602
  795MOL0     H 7271   8.871   7.200   5.372  2.1766  0.2712  0.7686
  795MOL0     H 7272   8.690   7.160   5.571  2.5356 -0.4778  0.6923
  795MOL0     H 7273   8.687   7.342   5.566  0.8476  0.8657 -2.0388
  795MOL0     H 7274   8.633   7.168   5.313 -2.4167 -0.9039 -0.4007
  795MOL0     H 7275   8.633   7.342   5.331 -1.4214 -0.2095 -0.5205
  795MOL0     H 7276   8.450   7.024   5.473  2.2206  1.1509 -0.3137
  795MOL0     H 7277   8.195   7.161   5.726  0.6446  1.4920 -1.6084
  795MOL0     H 7278   8.112   7.101   5.585  0.1241  0.9555 -1.7454
  795MOL0     H 7279   8.366   6.945   5.673  1.7103  1.9856 -2.9131
  795MOL0     H 7280   8.247   6.888   5.565 -2.2746 -1.4701  1.6597
  795MOL0     H 7281   8.221   6.930   5.870  1.3467 -0.2679 -0.2001
  795MOL0     H 7282   8.229   6.777   5.784 -2.0887 -0.4212 -0.4238
  795MOL0     H 7283   8.023   6.831   5.661 -3.7720 -0.9467  0.5074
  795MOL0     H 7284   7.983   6.934   5.809 -1.7207 -2.4299  0.3321
  795MOL0     H 7285   7.780   6.828   5.755 -2.4607  1.0006  1.1201
  795MOL0     H 7286   7.472   6.688   5.668  1.0351  0.1609 -0.0040
  795MOL0     H 7287   7.487   6.783   5.820  0.1306  0.4847  0.0925
  795MOL0     H 7288   7.579   6.825   5.677  1.3139  1.2589  1.6278
  795MOL0     H 7289   7.448   6.157   6.050 -0.9986 -1.0639 -0.2360
  795MOL0     H 7290   7.231   6.031   6.057 -0.2132  0.2029  0.3929
  795MOL0     H 7291   7.121   5.827   5.959  1.1277  1.0648 -2.2475
  795MOL0     H 7292   7.030   5.950   6.048  2.9088  2.4003  0.6989
  795MOL0     H 7293   6.920   5.819   5.793  4.1204 -0.9945 -0.6377
  795MOL0     H 7294   6.927   5.719   5.937 -2.4363 -0.1440 -0.3901
  795MOL0     H 7295   6.761   5.974   5.906  1.6216  0.0750 -0.4523
  795MOL0     H 7296   6.782   5.889   6.057 -0.6480  0.8551  0.6881
  795MOL0     H 7297   6.676   5.751   5.808 -2.9010  0.5391  0.9097
  795MOL0     H 7298   6.698   5.666   5.958 -2.2045 -0.1082  3.1457
  795MOL0     H 7299   6.531   5.762   6.077  1.0947  2.6089  1.2554
  795MOL0     H 7300   6.474   5.714   5.924  3.3972 -1.3775 -3.5225
  795MOL0     H 7301   6.529   6.005   5.972  1.8622  1.3073 -1.0709
  795MOL0     H 7302   6.476   5.929   5.823  0.7531  1.4964  0.2222
  795MOL0     H 7303   6.296   5.932   6.070 -2.1871  1.9271 -0.2664
  795MOL0     H 7304   6.255   5.848   5.921 -1.3449 -0.4955  1.3605
  795MOL0     H 7305   6.330   6.094   5.819  2.8654 -3.4557  1.2661
  795MOL0     H 7306   6.262   6.139   5.977 -1.7464 -1.4861  1.5494
  795MOL0     H 7307   7.141   6.165   5.659 -1.0041  1.8076 -0.2657
  795MOL0     H 7308   7.346   6.319   5.673  2.8261 -0.2548  1.2652
  795MOL0     H 7309   7.760   6.365   5.929  1.6379  0.0065 -0.6701
  795MOL0     H 7310   7.980   6.496   5.949  0.5037 -0.1641 -0.0958
  795MOL0     H 7311   9.351   7.226   6.163 -2.3462 -1.8495  1.7794
  795MOL0     H 7312   9.522   7.054   6.226  0.5103  1.1891 -0.3546
  795MOL0     H 7313  10.001   6.844   6.029 -0.2102  0.5915 -0.1171
  795MOL0     H 7314  10.145   6.659   6.069 -0.8482  1.1429  2.9190
  795MOL0     H 7315  10.004   6.252   6.249 -0.5257  1.7724  0.6623
  795MOL0     H 7316   9.953   6.269   6.079 -1.4423  0.2656  0.0264
  795MOL0     H 7317  10.197   6.216   5.999 -0.9322  0.8395 -0.1772
  795MOL0     H 7318  10.115   6.089   6.073  0.1274  0.0582 -1.4480
  795MOL0     H 7319  10.219   6.176   6.304 -0.0643 -0.4231  0.4256
  795MOL0     H 7320  10.305   6.285   6.211 -0.9869  0.9405 -2.3918
  795MOL0     H 7321  10.293   5.981   6.122 -0.1975  2.1143 -3.3181
  795MOL0     H 7322  10.388   6.023   6.270 -1.2848  0.7286  1.3940
  795MOL0     H 7323  10.602   6.175   5.922  2.4070 -0.6560  1.5491
  795MOL0     H 7324   9.805   6.405   6.166  0.3442 -0.3616 -1.0065
  795MOL0     H 7325   9.659   6.602   6.097 -0.0022 -4.5871  0.9785
  796MOL0     O 7326   9.995   5.921   8.996  0.8030 -0.3439  0.4474
  796MOL0     C 7327  10.026   5.804   8.967  0.3293 -0.5243  0.3650
  796MOL0     O 7328   9.942   5.711   8.909  0.0651 -0.4252 -0.4385
  796MOL0     C 7329   9.816   5.745   8.871  0.5593  0.1919  0.5565
  796MOL0     C 7330   9.795   5.849   8.784 -1.2637 -0.6584 -0.3827
  796MOL0     C 7331   9.661   5.896   8.762 -0.7453 -0.3129 -0.2387
  796MOL0     C 7332   9.555   5.845   8.830  0.2733 -0.3099 -1.2583
  796MOL0     O 7333   9.436   5.901   8.814 -0.1741 -0.2352  0.2301
  796MOL0     C 7334   9.360   5.856   8.696 -1.2631  0.4766  0.0543
  796MOL0     C 7335   9.212   5.895   8.705  0.7026  0.2123 -0.9926
  796MOL0     C 7336   9.144   5.832   8.831  0.2350 -0.5728 -0.0146
  796MOL0     C 7337   9.093   5.693   8.801  0.0265  0.4705  0.6066
  796MOL0     C 7338   9.038   5.617   8.919  0.7508 -0.4431  0.1637
  796MOL0     C 7339   8.993   5.481   8.874 -0.1675 -0.7047  0.1646
  796MOL0     C 7340   8.931   5.394   8.987 -0.1935 -0.3346  0.1509
  796MOL0     C 7341   9.038   5.319   9.058 -0.3346  0.6769  0.4942
  796MOL0     N 7342   9.064   5.190   8.992 -0.7248 -0.6384  0.2262
  796MOL0     C 7343   8.987   5.082   8.973  0.5900  0.9007 -1.0562
  796MOL0     C 7344   9.051   4.990   8.901 -0.0083 -0.9884 -0.3240
  796MOL0     C 7345   9.004   4.851   8.877 -0.1056  0.7766 -0.1505
  796MOL0     C 7346   9.033   4.815   8.727  0.5715  0.3172 -0.3988
  796MOL0     C 7347   8.980   4.922   8.632  0.2301 -0.0212  0.4788
  796MOL0     C 7348   8.997   4.868   8.488  1.0133  0.1129  0.1510
  796MOL0     O 7349   8.940   4.954   8.389  0.6185 -0.0094  0.2957
  796MOL0     C 7350   8.807   4.987   8.381 -0.5373  0.3631 -0.5578
  796MOL0     C 7351   8.763   5.098   8.309 -0.1248 -0.2800 -0.8067
  796MOL0     C 7352   8.632   5.134   8.287  0.0117  0.0768  0.5506
  796MOL0     C 7353   8.603   5.256   8.201  0.3278  0.3365 -0.5781
  796MOL0     C 7354   8.530   5.048   8.350 -0.7001  0.7020 -0.0304
  796MOL0     C 7355   8.374   5.077   8.339 -0.5597 -0.0421 -0.0356
  796MOL0     O 7356   8.299   5.020   8.439  0.8977  0.0964  0.4704
  796MOL0     C 7357   8.159   5.024   8.428 -0.4503 -0.5016 -0.3663
  796MOL0     C 7358   8.092   4.905   8.456 -0.7756  0.2536  1.0713
  796MOL0     C 7359   7.956   4.905   8.447 -0.5451 -0.7731 -0.7388
  796MOL0     C 7360   7.881   5.017   8.420 -0.6917  0.2517  0.1504
  796MOL0     O 7361   7.748   4.993   8.413  0.0578 -0.8549 -0.7051
  796MOL0     C 7362   7.665   5.105   8.398 -0.3443  0.3077  0.9006
  796MOL0     C 7363   7.520   5.074   8.411 -0.0140 -0.1917 -0.6944
  796MOL0     C 7364   7.480   4.976   8.303 -0.0970  0.0476 -0.6447
  796MOL0     C 7365   7.327   4.970   8.291 -0.2474  0.0469  0.1361
  796MOL0     C 7366   7.279   4.855   8.200 -0.4078 -0.3159 -0.2266
  796MOL0     C 7367   7.137   4.886   8.158  0.0975 -0.8841  0.1522
  796MOL0     C 7368   7.031   4.867   8.265  0.3520  0.1188 -0.3680
  796MOL0     C 7369   6.894   4.918   8.213  0.9477  0.3696 -0.7665
  796MOL0    Cl 7370   6.756   4.921   8.339 -0.0592  0.1525 -0.0637
  796MOL0     C 7371   7.949   5.139   8.396  0.2326 -0.5975  0.0689
  796MOL0     C 7372   8.089   5.145   8.402 -0.9904 -0.5479  0.2257
  796MOL0     O 7373   8.334   5.123   8.227  0.1359  0.5175  0.2617
  796MOL0     C 7374   8.570   4.933   8.425  0.0625  0.7409 -0.6156
  796MOL0     C 7375   8.707   4.899   8.431 -0.5170 -0.5367  0.1142
  796MOL0     N 7376   9.174   5.043   8.869 -0.0122  1.0631 -0.1730
  796MOL0     N 7377   9.185   5.164   8.914 -0.1140  0.4143  0.1433
  796MOL0     C 7378   9.573   5.740   8.920 -0.4829  1.2035  0.4474
  796MOL0     C 7379   9.701   5.695   8.946  0.9169  0.6239 -0.0533
  796MOL0     C 7380  10.168   5.770   8.997  0.7989 -0.2699  0.8093
  796MOL0     C 7381  10.252   5.857   9.069  0.3193 -0.4341 -0.2679
  796MOL0     C 7382  10.391   5.814   9.100  0.5567  0.0974 -0.8317
  796MOL0     C 7383  10.439   5.697   9.051 -0.0576 -0.3303 -0.3746
  796MOL0     O 7384  10.563   5.645   9.070 -0.6148  0.4417 -0.5161
  796MOL0     C 7385  10.664   5.664   8.967  0.0033 -0.2330  0.5457
  796MOL0     C 7386  10.773   5.756   9.021  0.6338 -0.3963  0.3061
  796MOL0     C 7387  10.832   5.703   9.151 -0.6401 -0.4826 -0.5593
  796MOL0     C 7388  10.956   5.772   9.206 -0.6244  0.4955 -0.0615
  796MOL0     C 7389  11.011   5.718   9.331  0.1316 -0.4128  0.6028
  796MOL0     C 7390  11.069   5.660   9.425 -0.2828 -0.0080  0.4874
  796MOL0     C 7391  10.343   5.608   8.997 -1.0521 -0.0356 -0.8495
  796MOL0     C 7392  10.211   5.641   8.973 -0.6548  0.3234 -0.2868
  796MOL0     H 7393   9.877   5.894   8.729 -2.0769 -2.3005 -3.1636
  796MOL0     H 7394   9.645   5.975   8.689 -2.3137  1.2137  1.6503
  796MOL0     H 7395   9.393   5.907   8.605 -0.7197  0.3473  0.1738
  796MOL0     H 7396   9.381   5.750   8.685  1.5326  0.9008  0.5594
  796MOL0     H 7397   9.210   6.004   8.705 -0.5275  0.2109  0.0386
  796MOL0     H 7398   9.163   5.866   8.612 -1.4615 -1.2620  0.5093
  796MOL0     H 7399   9.213   5.824   8.916  0.7070 -0.6930 -0.4031
  796MOL0     H 7400   9.066   5.896   8.874  2.1358  1.5866  0.4542
  796MOL0     H 7401   9.009   5.708   8.732 -1.6787  0.5404  2.5891
  796MOL0     H 7402   9.166   5.636   8.743 -1.0766 -0.7391  0.3606
  796MOL0     H 7403   9.115   5.612   8.996  0.0580  1.2619  1.0128
  796MOL0     H 7404   8.946   5.661   8.959  1.0295  0.1145  0.1952
  796MOL0     H 7405   8.915   5.481   8.798 -0.7296  0.9813  0.7143
  796MOL0     H 7406   9.083   5.429   8.840  0.2091  0.7821 -1.2529
  796MOL0     H 7407   8.885   5.449   9.069 -0.8056  1.6030 -1.4117
  796MOL0     H 7408   8.852   5.326   8.955 -2.8039  1.0753  3.0975
  796MOL0     H 7409   9.010   5.295   9.161  2.4050  2.5706  1.8156
  796MOL0     H 7410   9.134   5.371   9.066 -0.1252  0.0467  3.3408
  796MOL0     H 7411   8.885   5.080   9.012  0.2632  4.0307 -1.4656
  796MOL0     H 7412   9.062   4.780   8.937  0.7702  2.4008  1.0383
  796MOL0     H 7413   8.898   4.841   8.901 -0.0632  0.7122  0.0157
  796MOL0     H 7414   8.990   4.716   8.710  0.1377  0.3325  0.5416
  796MOL0     H 7415   9.139   4.798   8.707  0.3817 -0.6695 -0.6144
  796MOL0     H 7416   9.036   5.015   8.644  1.7659 -0.7810 -0.4504
  796MOL0     H 7417   8.875   4.945   8.655 -1.3913 -3.3474 -2.4809
  796MOL0     H 7418   8.964   4.763   8.481 -2.4328  1.1070 -0.4974
  796MOL0     H 7419   9.104   4.873   8.469  0.6799  0.2114 -1.8604
  796MOL0     H 7420   8.832   5.174   8.275 -0.8775  0.9010  0.1886
  796MOL0     H 7421   8.696   5.300   8.164  0.3771  0.6878 -0.0367
  796MOL0     H 7422   8.531   5.233   8.121  0.7499  1.5900 -1.3330
  796MOL0     H 7423   8.555   5.320   8.276 -0.4667 -2.9072  1.9330
  796MOL0     H 7424   8.145   4.814   8.481 -0.5136 -0.3187 -1.3013
  796MOL0     H 7425   7.903   4.812   8.467 -0.3257 -1.1075 -1.6586
  796MOL0     H 7426   7.690   5.183   8.471 -1.0406 -0.3390  1.8457
  796MOL0     H 7427   7.676   5.147   8.297 -3.2386  2.2056  1.2440
  796MOL0     H 7428   7.506   5.024   8.507  0.6637 -0.3508 -0.6700
  796MOL0     H 7429   7.469   5.171   8.414  0.3791  0.1505 -2.8919
  796MOL0     H 7430   7.526   4.880   8.328 -0.0086  0.2271 -0.0914
  796MOL0     H 7431   7.513   5.003   8.203  0.6906  1.0416 -0.1368
  796MOL0     H 7432   7.276   4.960   8.387  0.1965  0.1754  0.3905
  796MOL0     H 7433   7.306   5.071   8.256 -2.1131  0.0734  1.1720
  796MOL0     H 7434   7.271   4.755   8.244  0.2127 -0.5246 -0.5735
  796MOL0     H 7435   7.346   4.842   8.115 -2.1572 -0.3504 -1.6807
  796MOL0     H 7436   7.135   4.990   8.122  1.6974 -0.4172  1.2956
  796MOL0     H 7437   7.111   4.839   8.063  1.6931  4.1661 -3.2392
  796MOL0     H 7438   7.054   4.933   8.349  0.4636 -0.5835  0.1604
  796MOL0     H 7439   7.026   4.762   8.294  1.4850 -0.1684 -1.1664
  796MOL0     H 7440   6.872   4.854   8.127  2.0385 -0.0205 -0.7665
  796MOL0     H 7441   6.899   5.020   8.174 -0.8964  0.3170 -1.2366
  796MOL0     H 7442   7.895   5.230   8.371  0.9421 -0.1612  0.1218
  796MOL0     H 7443   8.146   5.238   8.397 -0.7467 -0.7151 -0.1773
  796MOL0     H 7444   8.502   4.854   8.457  0.6902 -0.6137 -2.4053
  796MOL0     H 7445   8.746   4.806   8.471  1.6780 -1.3649 -3.5080
  796MOL0     H 7446   9.485   5.711   8.977 -0.5463 -2.1563 -1.1504
  796MOL0     H 7447   9.722   5.619   9.021 -0.4911 -0.7193 -0.9551
  796MOL0     H 7448  10.219   5.954   9.103 -1.6092 -1.4814  0.9943
  796MOL0     H 7449  10.458   5.889   9.141  1.8776 -2.1439  1.4262
  796MOL0     H 7450  10.705   5.569   8.930  0.2751  1.1122 -3.0210
  796MOL0     H 7451  10.626   5.705   8.873  0.9165  1.2670  0.8066
  796MOL0     H 7452  10.720   5.849   9.042  0.5316 -0.4515  0.2912
  796MOL0     H 7453  10.853   5.779   8.949  0.5656  1.9098  0.8882
  796MOL0     H 7454  10.868   5.602   9.127  0.3928  0.2077 -2.0744
  796MOL0     H 7455  10.759   5.701   9.232 -3.0470  4.4352 -2.2433
  796MOL0     H 7456  10.943   5.881   9.213 -0.5810  0.6483 -1.8668
  796MOL0     H 7457  11.039   5.766   9.135  0.8047  2.3169  1.3186
  796MOL0     H 7458  11.125   5.622   9.508  1.0224 -2.0914 -1.2095
  796MOL0     H 7459  10.385   5.511   8.973 -0.3801  0.4753 -1.7994
  796MOL0     H 7460  10.154   5.558   8.932  4.2501 -2.0531 -3.2646
  797MOL0     O 7461   2.625  11.201   9.731 -0.8175  0.1525  0.5158
  797MOL0     C 7462   2.601  11.131   9.827 -0.1508 -0.1716 -0.8404
  797MOL0     O 7463   2.496  11.055   9.848  0.3730 -0.3741  0.3365
  797MOL0     C 7464   2.390  11.059   9.760 -0.1291 -0.3892  0.2534
  797MOL0     C 7465   2.291  11.149   9.758  1.5195 -0.4083 -0.2160
  797MOL0     C 7466   2.184  11.135   9.664  0.5084  0.4929  0.0018
  797MOL0     C 7467   2.176  11.021   9.583 -1.2800 -0.0716 -0.3953
  797MOL0     O 7468   2.084  11.008   9.482 -0.1047 -0.4834 -0.4527
  797MOL0     C 7469   1.944  11.042   9.501 -0.8218  0.4825  0.7420
  797MOL0     C 7470   1.857  10.968   9.402  0.1116 -0.1825 -0.3679
  797MOL0     C 7471   1.705  11.000   9.427 -0.6066 -0.8931  0.2451
  797MOL0     C 7472   1.623  10.909   9.328  0.0571  0.5104  0.3246
  797MOL0     C 7473   1.474  10.920   9.358  0.1284 -0.5760  0.4625
  797MOL0     C 7474   1.396  10.818   9.272  0.2725  0.1122 -0.2611
  797MOL0     C 7475   1.246  10.814   9.298 -0.2401 -0.0088 -1.1143
  797MOL0     C 7476   1.183  10.702   9.207  0.3530  0.5600  0.0364
  797MOL0     N 7477   1.037  10.704   9.209 -0.3218  0.1138 -0.8773
  797MOL0     C 7478   0.956  10.600   9.182 -0.9945  0.6034  0.8839
  797MOL0     C 7479   0.834  10.647   9.196 -0.2396  0.1589  0.7578
  797MOL0     C 7480   0.703  10.576   9.180 -0.1936  0.4597  0.0135
  797MOL0     C 7481   0.587  10.662   9.125 -0.1477  0.6977  0.4838
  797MOL0     C 7482   0.621  10.708   8.974  0.3927  0.5174 -0.8153
  797MOL0     C 7483   0.505  10.774   8.905  0.7752  0.4105 -0.1043
  797MOL0     O 7484   0.528  10.757   8.767  0.2676  0.4748 -0.0514
  797MOL0     C 7485   0.402  10.767   8.709 -0.8926  0.1323  0.3383
  797MOL0     C 7486   0.389  10.866   8.617  0.4621  0.6688  0.3183
  797MOL0     C 7487   0.260  10.892   8.552 -0.1423 -0.3865 -0.2208
  797MOL0     C 7488   0.257  11.007   8.459  0.5711  1.0026 -0.3801
  797MOL0     C 7489   0.147  10.809   8.583 -0.9773 -0.1711  0.9315
  797MOL0     C 7490   0.000  10.837   8.562  0.2981 -0.3305  0.0507
  797MOL0     O 7491  -0.086  10.730   8.558  0.2511 -0.1452  0.0648
  797MOL0     C 7492  -0.229  10.763   8.557  0.0266  0.6782 -0.3186
  797MOL0     C 7493  -0.293  10.861   8.636 -0.3506  0.3404  0.8121
  797MOL0     C 7494  -0.429  10.871   8.625  0.4540  0.1454 -0.0370
  797MOL0     C 7495  -0.504  10.779   8.549  0.5305  0.4808 -0.2136
  797MOL0     O 7496  -0.640  10.804   8.543  0.0530  0.4024  0.2338
  797MOL0     C 7497  -0.727  10.719   8.486  0.0919  0.2551 -0.0447
  797MOL0     C 7498  -0.865  10.758   8.548 -0.9544 -0.9708 -0.9502
  797MOL0     C 7499  -0.931  10.861   8.464 -0.8540 -0.7273  0.1649
  797MOL0     C 7500  -1.080  10.886   8.486  0.3698 -0.7299 -0.4256
  797MOL0     C 7501  -1.113  10.979   8.603 -1.0325  0.0453  0.2541
  797MOL0     C 7502  -1.257  11.025   8.608 -0.0990  0.4428 -0.0338
  797MOL0     C 7503  -1.264  11.137   8.718  0.0741  0.2455  0.7657
  797MOL0     C 7504  -1.393  11.227   8.719  0.1232  0.2120  0.7409
  797MOL0    Cl 7505  -1.553  11.145   8.720 -0.1502 -0.4843  0.1547
  797MOL0     C 7506  -0.442  10.681   8.472  0.8716 -0.0275 -0.9029
  797MOL0     C 7507  -0.304  10.677   8.482  0.8299  0.6661  0.4262
  797MOL0     O 7508  -0.029  10.956   8.549 -0.3168 -0.3602  0.4387
  797MOL0     C 7509   0.177  10.696   8.655  0.4005 -0.0724 -0.3625
  797MOL0     C 7510   0.302  10.676   8.718  0.3567 -0.2797  0.3200
  797MOL0     N 7511   0.842  10.778   9.236 -0.2869  0.0653  0.2090
  797MOL0     N 7512   0.966  10.819   9.218  0.2785  0.4301 -0.1018
  797MOL0     C 7513   2.278  10.927   9.581 -0.6398 -0.2282 -0.6198
  797MOL0     C 7514   2.387  10.950   9.677  0.6874  0.6428  0.9274
  797MOL0     C 7515   2.709  11.118   9.928 -0.1087  0.5749  0.2116
  797MOL0     C 7516   2.704  11.006  10.015 -0.0197 -0.3976  0.2622
  797MOL0     C 7517   2.805  10.993  10.117  0.1221 -0.1838  0.1714
  797MOL0     C 7518   2.920  11.085  10.128  0.1316  0.1298 -0.2022
  797MOL0     O 7519   3.004  11.066  10.229 -0.0592  0.1452  0.1969
  797MOL0     C 7520   3.022  11.166  10.319 -1.0208 -0.2563 -0.0234
  797MOL0     C 7521   3.106  11.105  10.428  0.3721  0.1870  0.2679
  797MOL0     C 7522   3.255  11.068  10.393  0.2595 -0.4616  0.0839
  797MOL0     C 7523   3.334  11.050  10.533  0.3604  0.1470  0.2560
  797MOL0     C 7524   3.284  10.938  10.622 -0.6393 -0.4480  0.3389
  797MOL0     C 7525   3.247  10.864  10.706 -0.9298  0.1820 -0.8820
  797MOL0     C 7526   2.917  11.191  10.038  0.2606 -0.2956 -1.1109
  797MOL0     C 7527   2.812  11.211   9.949 -0.1932 -1.1639  0.0168
  797MOL0     H 7528   2.286  11.235   9.824 -0.6007  0.3355 -1.2270
  797MOL0     H 7529   2.105  11.208   9.654 -1.1053 -1.0560  0.8722
  797MOL0     H 7530   1.918  11.000   9.598  2.3462 -0.6655  1.2292
  797MOL0     H 7531   1.927  11.149   9.507 -0.1681  0.7798 -1.5218
  797MOL0     H 7532   1.874  10.992   9.297  0.1793  1.0375 -0.0945
  797MOL0     H 7533   1.878  10.862   9.418  1.9472  0.0426 -1.0498
  797MOL0     H 7534   1.666  10.989   9.529  2.8136 -3.7888  1.4398
  797MOL0     H 7535   1.696  11.103   9.391 -3.1074 -0.5353  1.5918
  797MOL0     H 7536   1.646  10.923   9.221 -1.1776 -0.2419 -0.0550
  797MOL0     H 7537   1.644  10.806   9.358 -1.7233 -0.2187 -0.7929
  797MOL0     H 7538   1.461  10.884   9.460 -0.8721 -0.5250  0.3555
  797MOL0     H 7539   1.442  11.024   9.360  3.7048  0.6538  2.2798
  797MOL0     H 7540   1.419  10.838   9.167  0.9123  2.4258  0.2648
  797MOL0     H 7541   1.431  10.718   9.296 -0.6447 -0.7166 -2.1809
  797MOL0     H 7542   1.223  10.783   9.400 -1.4725 -1.5982 -1.8219
  797MOL0     H 7543   1.210  10.916   9.281  0.5918  0.2664 -1.2783
  797MOL0     H 7544   1.222  10.607   9.244 -0.0462  0.1952 -0.4581
  797MOL0     H 7545   1.225  10.725   9.108 -0.9433 -0.8279 -0.8838
  797MOL0     H 7546   0.984  10.497   9.160 -1.8945  0.5188  0.0760
  797MOL0     H 7547   0.722  10.488   9.117  0.3206  1.3935 -1.1759
  797MOL0     H 7548   0.664  10.537   9.274  2.3591  0.0575  0.9851
  797MOL0     H 7549   0.575  10.748   9.190  0.2659  1.0612  0.0893
  797MOL0     H 7550   0.502  10.593   9.120  1.7444 -1.7871  0.5756
  797MOL0     H 7551   0.644  10.617   8.919 -3.6148 -0.7441 -0.7047
  797MOL0     H 7552   0.707  10.776   8.985 -0.9486  2.1803 -0.2681
  797MOL0     H 7553   0.487  10.876   8.939  1.6502  0.7749 -0.6758
  797MOL0     H 7554   0.420  10.710   8.930  0.2488 -0.3465 -3.3765
  797MOL0     H 7555   0.475  10.932   8.607  0.0828  1.2003  0.5284
  797MOL0     H 7556   0.168  10.994   8.398 -1.2117 -0.9629  2.4257
  797MOL0     H 7557   0.259  11.104   8.510  2.1501  0.0712  1.4467
  797MOL0     H 7558   0.337  10.998   8.384 -0.8689 -2.5920 -1.6683
  797MOL0     H 7559  -0.235  10.932   8.694  3.3011 -0.1064 -1.8838
  797MOL0     H 7560  -0.487  10.943   8.682 -1.5434 -1.1527 -0.3531
  797MOL0     H 7561  -0.715  10.739   8.379 -1.6303  2.6752  0.1165
  797MOL0     H 7562  -0.699  10.618   8.516  1.7277  0.7381  0.1258
  797MOL0     H 7563  -0.919  10.665   8.566 -0.5104 -0.8596  1.1980
  797MOL0     H 7564  -0.857  10.801   8.649  2.9151 -0.5397 -1.3024
  797MOL0     H 7565  -0.913  10.838   8.359 -1.2131 -0.2708  0.0036
  797MOL0     H 7566  -0.880  10.954   8.491 -1.7997  0.0568 -0.6823
  797MOL0     H 7567  -1.113  10.945   8.400  0.0868 -0.9676 -0.4838
  797MOL0     H 7568  -1.146  10.800   8.500 -0.6672  0.3443  1.7933
  797MOL0     H 7569  -1.040  11.060   8.597  2.3249 -2.8047 -4.9318
  797MOL0     H 7570  -1.086  10.930   8.696 -3.9548 -0.5369  0.9002
  797MOL0     H 7571  -1.297  11.062   8.513  0.3858  0.1661 -0.3519
  797MOL0     H 7572  -1.323  10.945   8.642 -1.5212  0.8659 -1.6498
  797MOL0     H 7573  -1.183  11.210   8.705 -0.3243  0.4211 -1.0210
  797MOL0     H 7574  -1.243  11.089   8.814 -0.5572  1.0545  1.3183
  797MOL0     H 7575  -1.396  11.300   8.637 -1.8912 -0.2841  0.3102
  797MOL0     H 7576  -1.386  11.286   8.811 -0.2219  0.4160  0.6410
  797MOL0     H 7577  -0.490  10.607   8.409  0.0716 -1.2743  1.1052
  797MOL0     H 7578  -0.258  10.601   8.418  1.6563 -0.9229  2.7914
  797MOL0     H 7579   0.094  10.630   8.680  0.3019 -0.0404 -0.6013
  797MOL0     H 7580   0.327  10.587   8.774 -0.1165 -0.7527 -0.2055
  797MOL0     H 7581   2.274  10.846   9.510  1.6545  0.3885 -1.5124
  797MOL0     H 7582   2.458  10.869   9.680 -1.5618 -1.4790 -0.0497
  797MOL0     H 7583   2.628  10.928  10.017 -0.1849 -0.2364  1.6706
  797MOL0     H 7584   2.794  10.904  10.177 -1.5073  1.2603  2.1767
  797MOL0     H 7585   3.084  11.242  10.270 -0.2851 -0.8216  0.0170
  797MOL0     H 7586   2.929  11.216  10.346 -0.5691  0.3090  0.5068
  797MOL0     H 7587   3.059  11.010  10.456 -1.0712  0.9089  0.3694
  797MOL0     H 7588   3.099  11.170  10.516 -0.1365 -0.0224  0.3858
  797MOL0     H 7589   3.299  11.148  10.332 -1.2839 -1.6272 -2.7597
  797MOL0     H 7590   3.268  10.978  10.332  1.3666  0.7861 -1.5929
  797MOL0     H 7591   3.330  11.145  10.587 -1.5055 -0.0946  0.5985
  797MOL0     H 7592   3.436  11.019  10.509  0.1452 -1.0724  0.8585
  797MOL0     H 7593   3.196  10.808  10.782  2.9900 -2.8150 -0.1550
  797MOL0     H 7594   2.989  11.270  10.050 -2.8164  2.3593  2.4550
  797MOL0     H 7595   2.823  11.298   9.885  1.2630 -0.8644  0.6441
  798MOL0     O 7596   9.086   9.375   0.252  0.1516  0.1277  0.1235
  798MOL0     C 7597   9.167   9.331   0.171 -0.3089  0.2641 -0.2804
  798MOL0     O 7598   9.134   9.241   0.068 -0.1826 -1.1714  0.2545
  798MOL0     C 7599   9.012   9.177   0.042  0.3776  0.9018  1.0088
  798MOL0     C 7600   8.891   9.245   0.062 -0.4295  0.1728 -0.5938
  798MOL0     C 7601   8.767   9.184   0.041  0.4417 -0.1446  0.1470
  798MOL0     C 7602   8.752   9.057  -0.014  0.4455  0.2258  0.9541
  798MOL0     O 7603   8.639   8.984  -0.042 -0.7501  0.0178 -0.1072
  798MOL0     C 7604   8.516   9.058  -0.027 -0.3541 -0.0919  0.4711
  798MOL0     C 7605   8.400   8.976  -0.079 -0.6616 -0.5550 -0.2702
  798MOL0     C 7606   8.268   9.045  -0.047  0.4399 -0.5606 -0.4750
  798MOL0     C 7607   8.150   8.939  -0.062 -0.3673 -0.0539 -0.0824
  798MOL0     C 7608   8.021   9.011  -0.048 -0.2547 -0.5762  0.3492
  798MOL0     C 7609   7.966   9.087  -0.178  0.3128  0.3317 -0.9926
  798MOL0     C 7610   7.826   9.159  -0.160  0.2091  0.7149  0.3520
  798MOL0     C 7611   7.770   9.195  -0.294 -0.0274  0.4923  0.5534
  798MOL0     N 7612   7.637   9.251  -0.283 -0.0303 -0.3885 -0.6032
  798MOL0     C 7613   7.514   9.179  -0.287  0.3283  0.1024  0.0061
  798MOL0     C 7614   7.424   9.285  -0.265 -0.1282  0.1554  0.2967
  798MOL0     C 7615   7.280   9.263  -0.278  0.6161  0.9050 -0.7298
  798MOL0     C 7616   7.224   9.385  -0.347 -0.7865 -0.0597  0.4413
  798MOL0     C 7617   7.074   9.373  -0.374  0.7004 -0.1639  0.2295
  798MOL0     C 7618   6.995   9.393  -0.241  0.6587  0.0746 -0.0601
  798MOL0     O 7619   6.966   9.530  -0.219  0.2045  0.4176 -0.0659
  798MOL0     C 7620   6.861   9.555  -0.142 -0.5155  0.3375 -0.0705
  798MOL0     C 7621   6.849   9.691  -0.111  0.4514  0.4593 -0.3039
  798MOL0     C 7622   6.742   9.738  -0.031  0.0138 -0.8601  0.2726
  798MOL0     C 7623   6.740   9.877   0.019 -0.1201 -0.5674 -0.4060
  798MOL0     C 7624   6.642   9.646   0.012  0.1015 -0.6856 -0.1922
  798MOL0     C 7625   6.514   9.685   0.077 -0.5606  0.5344  0.6596
  798MOL0     O 7626   6.474   9.811   0.065 -0.0903  0.4909  0.2219
  798MOL0     C 7627   6.361   9.841   0.121  0.3284  0.1278  0.3653
  798MOL0     C 7628   6.344   9.826   0.257 -0.8825  0.6183 -0.3949
  798MOL0     C 7629   6.225   9.872   0.320 -0.0747 -0.1175 -0.0905
  798MOL0     C 7630   6.118   9.926   0.253  0.2508 -0.8683 -0.4478
  798MOL0     O 7631   5.999   9.953   0.316  0.1096  0.5870  0.2028
  798MOL0     C 7632   5.886   9.982   0.235 -0.5829  0.7442 -0.2746
  798MOL0     C 7633   5.770   9.993   0.339  0.0349  0.2867  0.1301
  798MOL0     C 7634   5.707   9.858   0.381  0.5945 -0.5378  0.1454
  798MOL0     C 7635   5.596   9.875   0.484  0.4265  0.0683  0.8081
  798MOL0     C 7636   5.559   9.733   0.538 -0.4082 -0.1438 -0.7149
  798MOL0     C 7637   5.476   9.643   0.452 -0.2498  0.4379  0.7562
  798MOL0     C 7638   5.443   9.514   0.532 -1.3846 -0.0379  0.5598
  798MOL0     C 7639   5.300   9.521   0.594 -0.9107  0.4657 -0.6069
  798MOL0    Cl 7640   5.253   9.364   0.671  0.0284  0.1608  0.3135
  798MOL0     C 7641   6.142   9.940   0.117 -0.0768  0.8337 -0.0165
  798MOL0     C 7642   6.264   9.910   0.054  0.1370 -0.2795  0.3305
  798MOL0     O 7643   6.448   9.594   0.135 -0.0357 -0.7326 -0.0372
  798MOL0     C 7644   6.667   9.511  -0.000  0.0418 -0.3863  0.2976
  798MOL0     C 7645   6.775   9.464  -0.078  0.4771  0.4879 -0.4731
  798MOL0     N 7646   7.496   9.403  -0.255  0.1211 -0.2729 -1.0808
  798MOL0     N 7647   7.620   9.387  -0.256 -0.2140 -0.2227 -0.0355
  798MOL0     C 7648   8.871   8.990  -0.045 -0.1591 -0.0723 -0.0151
  798MOL0     C 7649   8.996   9.050  -0.022  0.4892  0.7672 -0.4154
  798MOL0     C 7650   9.306   9.383   0.172 -0.2985 -0.7076 -0.2339
  798MOL0     C 7651   9.349   9.462   0.278  0.1865 -0.1334  0.1491
  798MOL0     C 7652   9.482   9.502   0.287  0.1370  0.1124  0.1844
  798MOL0     C 7653   9.573   9.462   0.193 -0.1791  0.3576 -0.3709
  798MOL0     O 7654   9.705   9.499   0.216 -0.0916  0.1778  0.4512
  798MOL0     C 7655   9.746   9.455   0.345 -1.0995 -0.0824  0.4702
  798MOL0     C 7656   9.894   9.483   0.363  0.4431 -0.3045 -0.6413
  798MOL0     C 7657   9.989   9.412   0.257 -0.1378 -0.1892 -0.4965
  798MOL0     C 7658  10.110   9.505   0.227 -0.7179 -0.1767 -0.0671
  798MOL0     C 7659  10.199   9.439   0.130  0.9022 -0.3252 -0.4284
  798MOL0     C 7660  10.262   9.371   0.053  0.1776 -0.5441  0.1947
  798MOL0     C 7661   9.536   9.395   0.078 -0.1859 -0.1531 -0.0499
  798MOL0     C 7662   9.395   9.359   0.066  0.9625 -0.0297 -0.1553
  798MOL0     H 7663   8.895   9.346   0.102  1.7973 -0.2404  0.3495
  798MOL0     H 7664   8.680   9.241   0.069  1.0898  0.0660  1.8193
  798MOL0     H 7665   8.503   9.078   0.080  1.1129 -1.0643  0.8706
  798MOL0     H 7666   8.521   9.149  -0.087  2.0350 -0.6602 -0.3141
  798MOL0     H 7667   8.409   8.979  -0.188  0.1544 -1.1674 -0.2322
  798MOL0     H 7668   8.414   8.870  -0.054  2.1918  0.3160  2.4700
  798MOL0     H 7669   8.269   9.085   0.055 -3.4088  0.5795 -0.7152
  798MOL0     H 7670   8.251   9.129  -0.115 -0.8092  0.5449  1.0972
  798MOL0     H 7671   8.161   8.890  -0.159 -1.3834  0.0069 -0.2339
  798MOL0     H 7672   8.157   8.874   0.026 -0.3268 -1.0803 -0.8223
  798MOL0     H 7673   7.938   8.945  -0.019 -1.3296 -0.2048 -1.6664
  798MOL0     H 7674   8.018   9.083   0.034 -0.2188 -3.1664  2.7871
  798MOL0     H 7675   8.043   9.148  -0.227 -0.9448  3.4282  0.6305
  798MOL0     H 7676   7.963   9.001  -0.246 -1.3517 -1.7731  1.5337
  798MOL0     H 7677   7.757   9.094  -0.104 -0.2745  1.6696  0.8929
  798MOL0     H 7678   7.837   9.250  -0.101 -0.7661  0.3252  1.1755
  798MOL0     H 7679   7.761   9.108  -0.359  0.4614 -1.0543  2.4557
  798MOL0     H 7680   7.836   9.261  -0.352 -1.3250  1.6958  0.3845
  798MOL0     H 7681   7.486   9.075  -0.294 -1.4182  0.6471 -3.5627
  798MOL0     H 7682   7.258   9.180  -0.346 -1.2974  1.9528 -1.4700
  798MOL0     H 7683   7.247   9.238  -0.176  2.3598  1.6715  0.0596
  798MOL0     H 7684   7.275   9.383  -0.444  0.0239 -2.5758  0.8549
  798MOL0     H 7685   7.256   9.473  -0.289  1.7847 -1.5860  1.5178
  798MOL0     H 7686   7.051   9.275  -0.416 -1.3129 -0.8711  2.7278
  798MOL0     H 7687   7.047   9.453  -0.444  2.3539  1.3281  1.2392
  798MOL0     H 7688   7.042   9.360  -0.147 -1.1952 -1.4217  0.3926
  798MOL0     H 7689   6.909   9.327  -0.239  0.0573  0.8458  0.1251
  798MOL0     H 7690   6.925   9.754  -0.155  0.4192  0.3132 -0.5668
  798MOL0     H 7691   6.732   9.888   0.128  1.0865 -0.5909 -0.3014
  798MOL0     H 7692   6.833   9.929  -0.006 -0.8033  1.7127  1.4804
  798MOL0     H 7693   6.664   9.939  -0.028 -0.1402 -0.9384 -0.8630
  798MOL0     H 7694   6.424   9.786   0.319 -0.5595  2.2333  0.2814
  798MOL0     H 7695   6.214   9.852   0.426 -0.6525 -0.4576 -0.2102
  798MOL0     H 7696   5.904  10.072   0.177  1.2293 -0.1379 -1.1682
  798MOL0     H 7697   5.857   9.900   0.169 -3.9796  0.5724  1.1838
  798MOL0     H 7698   5.811  10.044   0.427  1.1900  0.6960 -0.6110
  798MOL0     H 7699   5.694  10.055   0.291 -0.4022 -1.0526 -0.9798
  798MOL0     H 7700   5.786   9.796   0.425  1.7191  0.2550 -0.7150
  798MOL0     H 7701   5.678   9.807   0.289  0.2127  3.0529 -1.9042
  798MOL0     H 7702   5.645   9.929   0.566  1.2227 -1.0096  1.0764
  798MOL0     H 7703   5.510   9.924   0.439  0.1670  0.5449  1.8007
  798MOL0     H 7704   5.501   9.743   0.631  0.0273 -0.1407 -0.4398
  798MOL0     H 7705   5.655   9.692   0.569  0.0504  1.5508  0.2363
  798MOL0     H 7706   5.391   9.705   0.421  0.6448  3.5322  3.7867
  798MOL0     H 7707   5.525   9.614   0.359 -0.4798 -0.4319  0.8987
  798MOL0     H 7708   5.522   9.499   0.607 -1.9367  0.1138  1.1834
  798MOL0     H 7709   5.445   9.430   0.462 -0.3434  0.4374 -0.0076
  798MOL0     H 7710   5.217   9.542   0.526 -2.6112 -0.7046  1.0171
  798MOL0     H 7711   5.294   9.605   0.664 -0.9369  1.2867 -1.5712
  798MOL0     H 7712   6.063   9.995   0.067 -0.0983  0.5615 -0.2829
  798MOL0     H 7713   6.273   9.934  -0.051 -3.3042 -0.3276 -0.0921
  798MOL0     H 7714   6.603   9.431   0.035  0.6906 -0.8120  0.5417
  798MOL0     H 7715   6.791   9.357  -0.076  0.5875  0.4756 -1.3309
  798MOL0     H 7716   8.870   8.885  -0.070  0.1533 -0.5322  1.7425
  798MOL0     H 7717   9.090   9.000  -0.045  0.5138  1.2375 -1.4094
  798MOL0     H 7718   9.290   9.501   0.361  2.7503  3.4924  0.4997
  798MOL0     H 7719   9.513   9.558   0.374  2.4511  2.3098 -1.8872
  798MOL0     H 7720   9.697   9.516   0.422 -1.2329 -0.0729  0.3797
  798MOL0     H 7721   9.727   9.349   0.357 -2.0046 -0.2293 -1.6949
  798MOL0     H 7722   9.925   9.447   0.461 -3.0216 -0.2073  0.6406
  798MOL0     H 7723   9.923   9.588   0.372  2.5067 -0.7464 -1.6442
  798MOL0     H 7724   9.931   9.403   0.164 -2.6651 -0.8374  1.0544
  798MOL0     H 7725  10.006   9.308   0.287 -1.1890  0.3368  2.1937
  798MOL0     H 7726  10.160   9.522   0.323 -0.9392 -2.6304  0.5610
  798MOL0     H 7727  10.075   9.597   0.179 -1.5375  0.1263  1.0529
  798MOL0     H 7728  10.314   9.297  -0.004 -1.7135 -1.7068 -0.1219
  798MOL0     H 7729   9.604   9.382  -0.006 -0.4829  1.5252 -0.5852
  798MOL0     H 7730   9.355   9.311  -0.023  0.4760  3.9025 -2.2509
  799MOL0     O 7731   5.830   6.243   2.295 -0.3314  0.6796  0.3393
  799MOL0     C 7732   5.847   6.132   2.345 -0.0411 -0.9673 -0.1930
  799MOL0     O 7733   5.750   6.059   2.419  0.1878  0.2319  0.5175
  799MOL0     C 7734   5.626   6.115   2.440 -0.3149 -0.5915  0.3514
  799MOL0     C 7735   5.555   6.184   2.335  0.3134 -0.9099 -0.5428
  799MOL0     C 7736   5.419   6.227   2.358 -1.0119 -1.0386  0.2030
  799MOL0     C 7737   5.369   6.216   2.485  0.2639  0.6619 -0.4124
  799MOL0     O 7738   5.238   6.241   2.500 -0.6632  0.2166  0.1113
  799MOL0     C 7739   5.153   6.126   2.541 -0.4321 -0.4045  0.8244
  799MOL0     C 7740   5.045   6.103   2.429 -0.0846  0.1674  0.1078
  799MOL0     C 7741   4.970   5.974   2.447  0.6755  0.0583  0.0218
  799MOL0     C 7742   4.862   5.951   2.339 -0.6261 -0.1925 -0.5035
  799MOL0     C 7743   4.802   5.814   2.359 -0.3075 -0.4916  0.4599
  799MOL0     C 7744   4.679   5.794   2.271 -0.2391  0.0580 -0.0391
  799MOL0     C 7745   4.639   5.644   2.275  0.2682  0.2469 -0.2905
  799MOL0     C 7746   4.526   5.610   2.174  0.3512 -0.0702  0.3504
  799MOL0     N 7747   4.395   5.647   2.244 -0.4791  0.3210  0.1900
  799MOL0     C 7748   4.336   5.774   2.236 -0.7664 -0.0194 -0.5615
  799MOL0     C 7749   4.221   5.759   2.304  0.6892 -0.1092 -0.7777
  799MOL0     C 7750   4.129   5.871   2.340  1.0744  0.9457  0.2236
  799MOL0     C 7751   3.988   5.830   2.292  0.7778 -0.3752 -0.0850
  799MOL0     C 7752   3.874   5.928   2.343 -0.1907 -0.5287  0.5675
  799MOL0     C 7753   3.876   5.945   2.497 -0.2644 -0.2543  0.0541
  799MOL0     O 7754   3.776   6.041   2.543 -0.6288 -0.6365  0.0204
  799MOL0     C 7755   3.657   5.986   2.575  0.2111 -0.6365  0.0574
  799MOL0     C 7756   3.641   5.913   2.684  0.8730 -0.0886 -0.4142
  799MOL0     C 7757   3.521   5.841   2.698 -0.3159  0.4952 -0.8149
  799MOL0     C 7758   3.508   5.768   2.831  0.1530 -0.5868 -0.9250
  799MOL0     C 7759   3.412   5.859   2.607 -0.2241  0.2427 -0.3501
  799MOL0     C 7760   3.274   5.795   2.632  0.3620 -0.5623  0.4143
  799MOL0     O 7761   3.264   5.670   2.697 -0.2143 -0.2135  0.4355
  799MOL0     C 7762   3.140   5.612   2.731  0.6713 -0.6886  1.0410
  799MOL0     C 7763   3.042   5.589   2.631 -0.5944 -0.6555 -0.0196
  799MOL0     C 7764   2.926   5.513   2.661 -0.5456 -0.8078  0.0261
  799MOL0     C 7765   2.905   5.465   2.789 -0.7279 -0.3351 -0.2519
  799MOL0     O 7766   2.784   5.407   2.832  0.0661  0.5100  0.5172
  799MOL0     C 7767   2.691   5.348   2.729  0.1922  0.5359 -0.4581
  799MOL0     C 7768   2.594   5.458   2.676 -0.3414  0.2225 -0.7790
  799MOL0     C 7769   2.466   5.398   2.605 -0.8497 -0.1316  0.1801
  799MOL0     C 7770   2.366   5.511   2.568 -0.6978 -0.1096  0.4493
  799MOL0     C 7771   2.231   5.455   2.540 -0.2466 -0.6931 -0.9842
  799MOL0     C 7772   2.128   5.445   2.651 -0.6887 -0.4438 -0.5057
  799MOL0     C 7773   1.994   5.406   2.592 -0.4181  0.4963 -1.1094
  799MOL0     C 7774   1.894   5.359   2.697 -0.1647  0.3606  0.5136
  799MOL0    Cl 7775   1.935   5.197   2.771 -0.1530 -0.1684  0.2804
  799MOL0     C 7776   2.998   5.498   2.895  0.7784 -0.2029  0.0611
  799MOL0     C 7777   3.114   5.563   2.864 -0.0808 -0.7285  0.8906
  799MOL0     O 7778   3.174   5.862   2.597 -1.6715  0.6619 -0.2428
  799MOL0     C 7779   3.428   5.954   2.498  0.2777 -0.1828 -0.4001
  799MOL0     C 7780   3.553   6.014   2.483  0.2340  0.2341  0.3527
  799MOL0     N 7781   4.208   5.623   2.341  0.5193  0.4026  0.2201
  799MOL0     N 7782   4.320   5.568   2.324 -0.2919 -0.4265  0.1462
  799MOL0     C 7783   5.444   6.152   2.585 -0.4051 -0.3334 -0.4022
  799MOL0     C 7784   5.570   6.108   2.559 -0.0083 -0.3617  0.0068
  799MOL0     C 7785   5.969   6.062   2.326  0.0105  0.2511 -0.0653
  799MOL0     C 7786   6.089   6.136   2.304 -0.2706  0.6821 -0.1387
  799MOL0     C 7787   6.216   6.080   2.314 -0.4292 -0.3471  0.9281
  799MOL0     C 7788   6.220   5.945   2.330 -0.6491  0.3403  0.2589
  799MOL0     O 7789   6.342   5.877   2.341 -0.3213  0.1705 -0.3663
  799MOL0     C 7790   6.468   5.944   2.347 -0.4999 -0.1558  0.1895
  799MOL0     C 7791   6.498   5.954   2.197  0.8410  0.8553  0.3261
  799MOL0     C 7792   6.628   6.028   2.171 -0.5953 -0.4156 -0.1782
  799MOL0     C 7793   6.609   6.176   2.196 -0.4074 -0.2951  0.6929
  799MOL0     C 7794   6.741   6.245   2.199  0.9551 -0.2764  0.7693
  799MOL0     C 7795   6.843   6.318   2.199  0.3661  0.1144 -0.0651
  799MOL0     C 7796   6.107   5.868   2.347 -0.3316 -0.0496 -0.2810
  799MOL0     C 7797   5.982   5.923   2.347 -0.6395  0.1637 -0.2245
  799MOL0     H 7798   5.605   6.191   2.239  3.2167 -0.5498  0.8801
  799MOL0     H 7799   5.360   6.277   2.282  0.2037  0.9306  0.4986
  799MOL0     H 7800   5.213   6.035   2.547  1.4242  0.7633  0.8849
  799MOL0     H 7801   5.107   6.148   2.638  0.5425  0.1537  1.1710
  799MOL0     H 7802   4.973   6.185   2.436  0.0895  0.4155 -0.8721
  799MOL0     H 7803   5.087   6.114   2.328 -0.5335  2.4537  0.1012
  799MOL0     H 7804   5.037   5.889   2.432  0.4018  0.2592 -3.1826
  799MOL0     H 7805   4.926   5.964   2.546 -2.2170 -2.9557 -1.3685
  799MOL0     H 7806   4.781   6.024   2.342 -0.5732 -0.1475  1.3081
  799MOL0     H 7807   4.910   5.945   2.241  0.4458  1.8555 -0.1689
  799MOL0     H 7808   4.869   5.735   2.325  0.0484  0.7583 -1.9586
  799MOL0     H 7809   4.765   5.801   2.461 -3.2271  4.4392  0.3769
  799MOL0     H 7810   4.595   5.855   2.307 -0.5218  2.4531 -4.1047
  799MOL0     H 7811   4.717   5.819   2.171  3.4097  0.0970  1.2217
  799MOL0     H 7812   4.724   5.582   2.249  0.7741  1.2129 -1.0290
  799MOL0     H 7813   4.613   5.621   2.378  3.5885 -1.0298  0.3703
  799MOL0     H 7814   4.534   5.506   2.140  0.6193 -0.4210  1.4447
  799MOL0     H 7815   4.532   5.672   2.084 -0.9046  0.1495  0.4006
  799MOL0     H 7816   4.387   5.865   2.206  0.1507  0.1982  1.5105
  799MOL0     H 7817   4.139   5.878   2.448 -0.9774 -1.1972  0.6330
  799MOL0     H 7818   4.166   5.964   2.297  1.1858  1.1186  0.6971
  799MOL0     H 7819   3.962   5.728   2.322 -1.4209 -0.0216 -0.5924
  799MOL0     H 7820   3.981   5.816   2.184  1.2364  0.1040 -0.1793
  799MOL0     H 7821   3.775   5.888   2.320 -0.6315  1.0403 -0.4220
  799MOL0     H 7822   3.889   6.024   2.292  2.0900 -2.3333 -2.4452
  799MOL0     H 7823   3.968   5.992   2.530 -1.1850  0.6779  1.4007
  799MOL0     H 7824   3.872   5.845   2.542  3.4132  0.0512  1.3374
  799MOL0     H 7825   3.725   5.917   2.752 -0.2566  1.5899  0.9741
  799MOL0     H 7826   3.591   5.785   2.899 -1.4621 -1.5827  1.4060
  799MOL0     H 7827   3.423   5.816   2.881  2.2020  2.0882  0.2288
  799MOL0     H 7828   3.494   5.660   2.830 -0.3254 -0.5254 -1.6031
  799MOL0     H 7829   3.065   5.635   2.535  2.9914  2.5068  2.0509
  799MOL0     H 7830   2.849   5.503   2.585 -1.1014 -0.5319  0.5484
  799MOL0     H 7831   2.748   5.301   2.649  3.4468 -1.5911  2.7861
  799MOL0     H 7832   2.643   5.261   2.776  2.6160  0.0015  1.1890
  799MOL0     H 7833   2.577   5.524   2.762 -0.4049  0.5569 -1.0459
  799MOL0     H 7834   2.643   5.510   2.593 -0.9703  2.8293  0.3663
  799MOL0     H 7835   2.419   5.335   2.681 -1.8237  0.5516  0.1599
  799MOL0     H 7836   2.496   5.338   2.518 -0.0019  1.4686 -0.6674
  799MOL0     H 7837   2.369   5.587   2.647  4.8537  1.0700 -0.4670
  799MOL0     H 7838   2.410   5.567   2.485 -0.8389  1.9410  1.6705
  799MOL0     H 7839   2.245   5.352   2.507  2.4167 -1.2741  1.5200
  799MOL0     H 7840   2.184   5.521   2.466  0.1815 -1.2934 -1.8048
  799MOL0     H 7841   2.158   5.371   2.727 -3.5049  2.2641  3.7097
  799MOL0     H 7842   2.122   5.543   2.699 -1.7398 -0.0615 -1.3889
  799MOL0     H 7843   2.017   5.326   2.521 -0.6122 -1.8565  1.2750
  799MOL0     H 7844   1.955   5.501   2.556 -3.2552 -0.3564 -0.4967
  799MOL0     H 7845   1.794   5.346   2.654 -0.6562  0.7462  1.4987
  799MOL0     H 7846   1.882   5.433   2.777 -2.4301 -0.1110  0.6787
  799MOL0     H 7847   2.973   5.474   2.998  1.5803  0.3823  0.3965
  799MOL0     H 7848   3.180   5.569   2.950  0.2589  1.1420  0.5262
  799MOL0     H 7849   3.339   5.986   2.445 -0.3908  1.7340  1.7242
  799MOL0     H 7850   3.567   6.084   2.402 -0.5908  1.2342  1.0389
  799MOL0     H 7851   5.388   6.136   2.676 -1.4533 -1.9380 -1.2763
  799MOL0     H 7852   5.630   6.068   2.640 -1.1130 -2.8169 -0.2761
  799MOL0     H 7853   6.090   6.244   2.292 -0.5933  0.5899 -1.0856
  799MOL0     H 7854   6.303   6.144   2.295  0.0886 -0.7407  1.9150
  799MOL0     H 7855   6.464   6.036   2.405  0.4579 -1.4201  2.3933
  799MOL0     H 7856   6.533   5.872   2.398 -1.2662 -1.4957 -0.6511
  799MOL0     H 7857   6.417   6.006   2.146  0.5891  1.2272  1.0918
  799MOL0     H 7858   6.496   5.853   2.154  0.7744  0.9456  0.1152
  799MOL0     H 7859   6.673   6.013   2.073  0.4096 -0.6449  0.3026
  799MOL0     H 7860   6.708   5.993   2.237  0.0835  1.9499  0.3701
  799MOL0     H 7861   6.566   6.190   2.295 -1.3372 -1.0174  0.4051
  799MOL0     H 7862   6.550   6.232   2.122 -0.3616  1.5582  1.9772
  799MOL0     H 7863   6.921   6.391   2.193 -0.0676  0.4831 -2.5026
  799MOL0     H 7864   6.096   5.762   2.363 -0.7939  0.0735  0.2403
  799MOL0     H 7865   5.901   5.853   2.366 -0.6060 -0.1084 -1.0336
  800MOL0     O 7866   1.890   4.782   6.081  0.9744 -0.5003  0.2233
  800MOL0     C 7867   1.846   4.810   5.964 -0.5891  0.0422 -0.6845
  800MOL0     O 7868   1.714   4.828   5.928 -0.5352  0.2009  0.3453
  800MOL0     C 7869   1.601   4.815   5.999  0.4338  0.4966  0.2461
  800MOL0     C 7870   1.578   4.773   6.131  0.7849  0.2980  0.0093
  800MOL0     C 7871   1.454   4.790   6.196  0.1773  0.4701  0.7990
  800MOL0     C 7872   1.348   4.818   6.127  0.4229 -0.6988  0.3810
  800MOL0     O 7873   1.228   4.830   6.191  0.3766 -0.2007  0.2454
  800MOL0     C 7874   1.126   4.743   6.150 -0.5434 -0.4549 -0.0950
  800MOL0     C 7875   1.006   4.832   6.155  0.9548  0.1908  0.9374
  800MOL0     C 7876   0.880   4.743   6.176  0.2055 -0.4331  0.3132
  800MOL0     C 7877   0.743   4.823   6.190 -0.3221  0.5629  0.3000
  800MOL0     C 7878   0.628   4.723   6.219  0.4554 -0.7853  0.0109
  800MOL0     C 7879   0.508   4.821   6.244 -0.0281  0.2268  0.1911
  800MOL0     C 7880   0.382   4.736   6.268 -0.5253 -0.4701  0.1427
  800MOL0     C 7881   0.255   4.822   6.288  0.1104 -0.5498  0.4428
  800MOL0     N 7882   0.136   4.738   6.294 -0.8744 -0.5560 -0.1740
  800MOL0     C 7883   0.056   4.709   6.187 -0.8097  0.0090 -0.8540
  800MOL0     C 7884  -0.032   4.631   6.254  0.0377  0.0436  0.1629
  800MOL0     C 7885  -0.138   4.554   6.174  0.1968  0.6782 -0.5889
  800MOL0     C 7886  -0.272   4.611   6.217 -0.0302 -0.7194 -0.0770
  800MOL0     C 7887  -0.380   4.529   6.132 -0.3021  0.4496 -0.6294
  800MOL0     C 7888  -0.522   4.535   6.176  0.1232  0.2424  0.3168
  800MOL0     O 7889  -0.616   4.463   6.095  0.9926 -0.7854  0.0882
  800MOL0     C 7890  -0.748   4.476   6.133  0.0086 -0.9046 -0.0722
  800MOL0     C 7891  -0.789   4.410   6.239 -0.0383  0.2027  0.3564
  800MOL0     C 7892  -0.920   4.414   6.277 -0.3072 -0.0919 -0.9969
  800MOL0     C 7893  -0.947   4.305   6.377  0.2916 -0.4411  0.2600
  800MOL0     C 7894  -1.015   4.500   6.210 -0.7568  0.3410  0.1470
  800MOL0     C 7895  -1.164   4.490   6.230 -0.7168  0.8216 -0.1340
  800MOL0     O 7896  -1.246   4.559   6.135 -0.7375 -0.1133 -0.7571
  800MOL0     C 7897  -1.380   4.580   6.153 -0.0326 -0.1019 -0.2521
  800MOL0     C 7898  -1.433   4.637   6.271  0.0908 -0.6050  0.5841
  800MOL0     C 7899  -1.562   4.682   6.266  0.1411 -0.2123  0.0522
  800MOL0     C 7900  -1.642   4.641   6.157  0.2990 -0.0470 -0.3650
  800MOL0     O 7901  -1.778   4.654   6.148 -0.9281  0.3278  0.2712
  800MOL0     C 7902  -1.848   4.635   6.278  0.0702 -0.5209  0.7893
  800MOL0     C 7903  -1.888   4.769   6.342  0.6300  0.5186 -0.1008
  800MOL0     C 7904  -1.994   4.850   6.267 -0.4290  0.1054 -0.6680
  800MOL0     C 7905  -2.023   4.970   6.341  0.2765  0.2423  0.3327
  800MOL0     C 7906  -2.151   5.032   6.273  0.2448 -0.6103  0.2552
  800MOL0     C 7907  -2.235   5.126   6.367  0.1554 -0.4298  0.4527
  800MOL0     C 7908  -2.356   5.184   6.284  1.1317  0.9148 -0.1460
  800MOL0     C 7909  -2.416   5.326   6.318 -0.3916  0.1066  0.4542
  800MOL0    Cl 7910  -2.471   5.324   6.490 -0.0792 -0.1221  0.4490
  800MOL0     C 7911  -1.589   4.575   6.044 -0.3140  0.1761 -0.3989
  800MOL0     C 7912  -1.458   4.545   6.046 -0.3666  0.5294  1.0364
  800MOL0     O 7913  -1.218   4.427   6.320 -0.4524  0.1217 -0.5773
  800MOL0     C 7914  -0.962   4.579   6.101 -0.5767 -0.1602 -0.3524
  800MOL0     C 7915  -0.828   4.561   6.060  0.1581 -0.2317  0.3189
  800MOL0     N 7916  -0.010   4.624   6.392  0.3337 -0.5889 -0.1494
  800MOL0     N 7917   0.090   4.704   6.415 -0.7441 -0.1259 -0.3643
  800MOL0     C 7918   1.357   4.825   5.986 -0.0574 -0.4595  0.3739
  800MOL0     C 7919   1.481   4.827   5.922  0.2461  0.3407  0.3780
  800MOL0     C 7920   1.951   4.804   5.860  0.0614 -0.4134 -0.0359
  800MOL0     C 7921   1.901   4.804   5.725 -0.4697 -0.3857  0.0655
  800MOL0     C 7922   1.995   4.792   5.617  0.3543 -0.0484 -0.0374
  800MOL0     C 7923   2.135   4.794   5.637  0.4623  0.1453 -0.7640
  800MOL0     O 7924   2.227   4.784   5.541  0.2156 -0.3971  0.3964
  800MOL0     C 7925   2.183   4.789   5.406  0.7558 -0.1382  0.0768
  800MOL0     C 7926   2.302   4.822   5.313 -0.4699 -0.2134 -0.0672
  800MOL0     C 7927   2.390   4.949   5.361  0.0904  0.9664  0.2365
  800MOL0     C 7928   2.332   5.082   5.325 -0.3496 -0.2003 -0.2523
  800MOL0     C 7929   2.218   5.118   5.412 -0.1943  1.4588 -0.4327
  800MOL0     C 7930   2.131   5.145   5.498 -0.1224 -0.3834  0.8304
  800MOL0     C 7931   2.179   4.798   5.771  0.6327  0.0388  0.5569
  800MOL0     C 7932   2.088   4.808   5.886 -0.2169 -0.2038  0.7072
  800MOL0     H 7933   1.655   4.743   6.202 -1.2236  0.0641  2.2113
  800MOL0     H 7934   1.449   4.777   6.304 -1.7172 -0.4698  0.6363
  800MOL0     H 7935   1.144   4.700   6.052  1.6993  0.1778 -0.0082
  800MOL0     H 7936   1.113   4.660   6.219 -1.5029 -1.1812 -1.1221
  800MOL0     H 7937   1.013   4.901   6.239  2.4858  1.7145 -0.3811
  800MOL0     H 7938   1.006   4.887   6.061  0.0768 -4.3681 -2.0460
  800MOL0     H 7939   0.880   4.676   6.089  2.8189  2.2344 -1.9675
  800MOL0     H 7940   0.894   4.694   6.273  1.5288  3.1535  2.0958
  800MOL0     H 7941   0.749   4.888   6.277  2.5827 -2.0548  2.2856
  800MOL0     H 7942   0.726   4.879   6.098  1.1212 -0.7318 -0.8188
  800MOL0     H 7943   0.612   4.655   6.135 -0.2275  0.9164 -1.3094
  800MOL0     H 7944   0.641   4.660   6.307 -0.1810 -4.2269 -2.1941
  800MOL0     H 7945   0.526   4.890   6.327 -0.9019 -1.3683  1.7578
  800MOL0     H 7946   0.503   4.888   6.158  4.7377  1.4548  0.5646
  800MOL0     H 7947   0.367   4.671   6.181  0.0298  0.1212 -0.4061
  800MOL0     H 7948   0.391   4.671   6.355 -1.3704 -1.1122 -0.2283
  800MOL0     H 7949   0.228   4.882   6.201 -0.1840  1.7473  2.0543
  800MOL0     H 7950   0.269   4.882   6.378  3.4447 -1.3662  0.6090
  800MOL0     H 7951   0.062   4.729   6.080  1.4534  0.9803 -0.6169
  800MOL0     H 7952  -0.130   4.574   6.067 -1.2745  0.0535 -0.8442
  800MOL0     H 7953  -0.139   4.446   6.195 -0.6039  0.6847 -0.5565
  800MOL0     H 7954  -0.280   4.715   6.184  1.4755  0.0644  1.8817
  800MOL0     H 7955  -0.280   4.600   6.325 -0.0030 -1.7828 -0.1750
  800MOL0     H 7956  -0.360   4.422   6.128 -3.5637 -0.2449 -0.4587
  800MOL0     H 7957  -0.352   4.564   6.033  2.9627  0.8097  0.2992
  800MOL0     H 7958  -0.550   4.641   6.185  0.1197  0.3061 -0.4002
  800MOL0     H 7959  -0.532   4.470   6.263  0.2680 -1.7126 -1.0756
  800MOL0     H 7960  -0.718   4.335   6.273  2.2171  1.2908 -1.6266
  800MOL0     H 7961  -0.966   4.213   6.323  3.4005 -0.9257 -0.2337
  800MOL0     H 7962  -0.857   4.296   6.439 -0.2261  1.6884  1.4503
  800MOL0     H 7963  -1.021   4.329   6.454  2.5774 -0.8752  2.7593
  800MOL0     H 7964  -1.371   4.656   6.358 -1.2256  3.6767  0.8197
  800MOL0     H 7965  -1.605   4.711   6.362 -1.2120  0.3472 -0.6865
  800MOL0     H 7966  -1.938   4.576   6.256 -0.6837  0.7571  0.3573
  800MOL0     H 7967  -1.800   4.565   6.348 -2.6326 -1.0457  2.2445
  800MOL0     H 7968  -1.936   4.740   6.436 -1.7358  0.7225 -1.1740
  800MOL0     H 7969  -1.794   4.820   6.366  0.9227  0.7183 -1.5917
  800MOL0     H 7970  -2.090   4.797   6.268 -0.0259 -0.6378 -0.1534
  800MOL0     H 7971  -1.970   4.865   6.162  1.4797 -0.1646 -0.3073
  800MOL0     H 7972  -2.052   4.948   6.444  0.0356 -1.1207 -0.0092
  800MOL0     H 7973  -1.934   5.034   6.341  1.5222 -1.4224  1.2117
  800MOL0     H 7974  -2.220   4.959   6.229 -0.6612  0.6177 -0.4006
  800MOL0     H 7975  -2.130   5.082   6.178  0.7187 -0.3201  0.5120
  800MOL0     H 7976  -2.270   5.081   6.461  0.4865  3.0504  2.4168
  800MOL0     H 7977  -2.183   5.219   6.394 -0.1111  0.0186 -0.5581
  800MOL0     H 7978  -2.433   5.106   6.286  2.5424 -0.5277  0.7562
  800MOL0     H 7979  -2.330   5.182   6.178 -3.3896 -2.3507 -1.5035
  800MOL0     H 7980  -2.494   5.356   6.247 -0.4612 -2.2883 -0.5956
  800MOL0     H 7981  -2.328   5.389   6.303 -1.0748  0.8536 -0.6094
  800MOL0     H 7982  -1.652   4.541   5.963 -1.2782  0.6028  0.1490
  800MOL0     H 7983  -1.413   4.498   5.959 -0.9231 -1.3636  1.7160
  800MOL0     H 7984  -1.023   4.646   6.041 -2.4265  0.3088  1.9201
  800MOL0     H 7985  -0.788   4.612   5.973 -1.9862  1.5601  0.2865
  800MOL0     H 7986   1.266   4.844   5.931  0.9016  2.0011 -0.4915
  800MOL0     H 7987   1.488   4.844   5.815 -4.3320 -1.2119 -0.3929
  800MOL0     H 7988   1.797   4.800   5.695 -0.6606 -3.6034  0.7647
  800MOL0     H 7989   1.956   4.767   5.519 -1.9254 -0.3154  0.8610
  800MOL0     H 7990   2.124   4.703   5.372  1.7730 -0.4492 -0.9872
  800MOL0     H 7991   2.122   4.879   5.394  1.3995  0.3805  0.6215
  800MOL0     H 7992   2.264   4.850   5.215 -0.4632  0.1818  0.0402
  800MOL0     H 7993   2.364   4.734   5.299  0.5085  0.3240  0.7179
  800MOL0     H 7994   2.486   4.946   5.309 -0.4531  0.5503 -0.7907
  800MOL0     H 7995   2.404   4.940   5.469 -1.7196 -0.3168  0.4156
  800MOL0     H 7996   2.297   5.087   5.221 -2.3324  0.6336  0.4102
  800MOL0     H 7997   2.408   5.159   5.344 -1.8391  0.7173  2.5219
  800MOL0     H 7998   2.071   5.169   5.584  0.0119  1.4637  0.4351
  800MOL0     H 7999   2.286   4.798   5.790  0.6345  0.5908  0.5708
  800MOL0     H 8000   2.129   4.828   5.984 -0.6081  0.5369  0.7199
  801MOL0     O 8001   4.288   5.917   4.408  0.7030  0.2981  0.6104
  801MOL0     C 8002   4.358   5.968   4.497 -0.2061  0.4312  0.4919
  801MOL0     O 8003   4.308   6.038   4.608  0.0987  0.0336 -0.1630
  801MOL0     C 8004   4.173   6.070   4.621 -0.1581  0.2812 -0.3289
  801MOL0     C 8005   4.085   6.121   4.529 -0.6775  0.9910  0.0251
  801MOL0     C 8006   3.956   6.156   4.570 -0.4681  0.4631 -0.3739
  801MOL0     C 8007   3.911   6.144   4.704 -0.9020 -0.1906  0.3861
  801MOL0     O 8008   3.787   6.189   4.738 -0.0881 -0.3466 -0.4791
  801MOL0     C 8009   3.707   6.099   4.814 -0.4682  0.6179 -0.9142
  801MOL0     C 8010   3.561   6.165   4.821 -0.3745 -0.8590  0.5852
  801MOL0     C 8011   3.457   6.088   4.905  0.1512 -0.1595  0.1291
  801MOL0     C 8012   3.309   6.120   4.893  0.0496  0.3285 -0.3701
  801MOL0     C 8013   3.239   6.044   4.998  0.2978 -0.8254  0.0921
  801MOL0     C 8014   3.093   6.096   4.996  0.7931 -0.1464 -0.5906
  801MOL0     C 8015   3.012   6.000   5.082 -0.0040  0.6274 -0.7669
  801MOL0     C 8016   2.867   6.053   5.106  0.5425 -0.0069 -0.1221
  801MOL0     N 8017   2.865   6.171   5.194 -0.0578  0.1673 -0.4153
  801MOL0     C 8018   2.841   6.303   5.155 -0.5925 -0.6763 -0.2759
  801MOL0     C 8019   2.822   6.364   5.274  0.4181 -0.4441  0.3987
  801MOL0     C 8020   2.769   6.503   5.304 -0.6472 -0.1314  0.3106
  801MOL0     C 8021   2.617   6.504   5.300 -0.6962  0.4063  1.4806
  801MOL0     C 8022   2.556   6.640   5.312  0.2604 -0.7732  0.0250
  801MOL0     C 8023   2.399   6.663   5.293  0.1256 -0.0335 -0.4385
  801MOL0     O 8024   2.393   6.801   5.328 -0.2141 -0.2402  0.1244
  801MOL0     C 8025   2.272   6.853   5.351  0.0647 -0.3108 -0.0023
  801MOL0     C 8026   2.267   6.992   5.360 -0.3041 -0.1742  0.6101
  801MOL0     C 8027   2.149   7.064   5.372 -0.4003 -0.1153 -0.6593
  801MOL0     C 8028   2.153   7.210   5.406  0.0614  0.4353  0.3808
  801MOL0     C 8029   2.028   6.992   5.381 -0.8121 -0.6954 -0.3938
  801MOL0     C 8030   1.902   7.049   5.407  0.5831  0.5482 -0.1029
  801MOL0     O 8031   1.812   6.965   5.477  0.0628 -0.1078 -0.3188
  801MOL0     C 8032   1.691   7.009   5.524  0.3446  0.5624 -0.1253
  801MOL0     C 8033   1.661   7.131   5.578 -0.2389 -0.8059 -0.6393
  801MOL0     C 8034   1.542   7.156   5.644  0.1358 -0.2703 -0.4876
  801MOL0     C 8035   1.444   7.060   5.655 -0.6805 -0.5110  1.2017
  801MOL0     O 8036   1.315   7.074   5.708  0.3537  0.8413 -0.8793
  801MOL0     C 8037   1.251   7.198   5.675 -0.5758 -0.5719  0.4496
  801MOL0     C 8038   1.103   7.185   5.642 -0.2392 -0.2171  0.3202
  801MOL0     C 8039   1.026   7.148   5.761  0.8072 -0.2470 -0.2601
  801MOL0     C 8040   0.882   7.196   5.762 -0.4075 -0.6109 -0.3088
  801MOL0     C 8041   0.788   7.110   5.848  0.8658  0.0685 -0.3045
  801MOL0     C 8042   0.642   7.152   5.827 -0.1420  0.8141 -0.3964
  801MOL0     C 8043   0.546   7.071   5.921 -0.9661 -0.3717  0.0338
  801MOL0     C 8044   0.397   7.070   5.884  0.2622  0.6529  0.0627
  801MOL0    Cl 8045   0.311   6.953   5.974  0.4922 -0.1359  0.3523
  801MOL0     C 8046   1.470   6.934   5.607  0.3843 -1.0870 -0.1549
  801MOL0     C 8047   1.594   6.907   5.551  0.3743  0.0352  0.2806
  801MOL0     O 8048   1.872   7.155   5.364  0.7684 -0.5542 -0.3429
  801MOL0     C 8049   2.031   6.850   5.380  0.1888  0.0007 -0.0117
  801MOL0     C 8050   2.149   6.786   5.352 -0.5238 -0.5444  0.7371
  801MOL0     N 8051   2.823   6.274   5.378  0.1486 -0.1619 -0.1428
  801MOL0     N 8052   2.842   6.162   5.329  0.6884  0.1774 -0.5671
  801MOL0     C 8053   4.009   6.093   4.791 -0.1916 -1.0738 -0.3481
  801MOL0     C 8054   4.129   6.052   4.753  0.8817  0.2388 -0.6518
  801MOL0     C 8055   4.505   5.952   4.482 -0.6115 -0.3874 -0.7155
  801MOL0     C 8056   4.557   5.896   4.369  1.0844 -0.1792 -0.5027
  801MOL0     C 8057   4.695   5.885   4.358 -0.0821 -0.3167  0.3246
  801MOL0     C 8058   4.784   5.917   4.464 -0.0557  1.5985  0.0682
  801MOL0     O 8059   4.918   5.893   4.459  0.1032 -0.7302  0.3526
  801MOL0     C 8060   4.963   5.792   4.376  0.4356  0.0446  0.1002
  801MOL0     C 8061   5.112   5.767   4.400  0.5280 -0.1300  0.2560
  801MOL0     C 8062   5.151   5.737   4.546 -0.1998 -0.5777 -0.0527
  801MOL0     C 8063   5.300   5.711   4.559  0.2113 -0.6516  0.1497
  801MOL0     C 8064   5.338   5.632   4.669 -0.0877  0.0710  0.5085
  801MOL0     C 8065   5.381   5.556   4.752 -0.9014 -0.0760  0.3497
  801MOL0     C 8066   4.727   5.979   4.583  0.3119 -0.1876 -0.1731
  801MOL0     C 8067   4.594   6.002   4.586 -0.1520 -0.2908  0.2559
  801MOL0     H 8068   4.105   6.111   4.423 -1.5304  0.1281 -0.0721
  801MOL0     H 8069   3.886   6.201   4.499  0.5096  1.9137 -0.4623
  801MOL0     H 8070   3.706   5.994   4.784  1.0339  0.1297  0.5850
  801MOL0     H 8071   3.754   6.100   4.913 -0.4289  1.6634 -0.9353
  801MOL0     H 8072   3.567   6.267   4.859 -1.8356 -1.1437  1.7041
  801MOL0     H 8073   3.526   6.170   4.718  0.8256  0.3703  0.2112
  801MOL0     H 8074   3.464   5.983   4.874 -2.9428 -1.0885  2.1975
  801MOL0     H 8075   3.496   6.103   5.006  1.2527  0.7982 -0.3999
  801MOL0     H 8076   3.295   6.227   4.915  5.0457  1.0558  0.3736
  801MOL0     H 8077   3.267   6.101   4.794  0.5403  2.8843 -1.1431
  801MOL0     H 8078   3.239   5.936   4.979 -0.4555 -0.7411 -0.4534
  801MOL0     H 8079   3.288   6.072   5.091 -1.8860 -0.8927  1.3226
  801MOL0     H 8080   3.094   6.195   5.042 -1.8911  1.0613 -2.8817
  801MOL0     H 8081   3.049   6.109   4.897 -1.2269 -1.5535  0.0488
  801MOL0     H 8082   3.015   5.906   5.026  0.5521 -0.4450  0.9675
  801MOL0     H 8083   3.057   5.984   5.180 -2.2708 -1.2004  0.0665
  801MOL0     H 8084   2.808   5.975   5.155 -1.8895  3.6375  3.4509
  801MOL0     H 8085   2.824   6.083   5.010  0.6408  1.7863  0.3602
  801MOL0     H 8086   2.814   6.334   5.054 -2.7239  1.6103  0.8729
  801MOL0     H 8087   2.806   6.541   5.400  2.6346  1.5251 -1.4594
  801MOL0     H 8088   2.823   6.562   5.230 -1.4308  0.7806  0.4389
  801MOL0     H 8089   2.577   6.449   5.385 -2.2650  0.6754  0.9502
  801MOL0     H 8090   2.586   6.454   5.208 -0.1326  0.9687  0.9726
  801MOL0     H 8091   2.598   6.705   5.234 -1.0568  0.9234  0.6590
  801MOL0     H 8092   2.586   6.677   5.410  2.3050  2.1927 -1.5514
  801MOL0     H 8093   2.338   6.596   5.355 -0.6554  0.7148 -0.3783
  801MOL0     H 8094   2.369   6.650   5.189 -2.3140  0.5144  0.1212
  801MOL0     H 8095   2.365   7.038   5.355  0.0643 -1.0749 -2.3493
  801MOL0     H 8096   2.105   7.230   5.502 -3.0470  0.3802 -1.0565
  801MOL0     H 8097   2.256   7.246   5.402 -0.2263  1.1550 -1.3430
  801MOL0     H 8098   2.092   7.269   5.338  0.4134 -1.9520 -2.2129
  801MOL0     H 8099   1.741   7.204   5.565  2.6557 -2.9407  3.0776
  801MOL0     H 8100   1.507   7.254   5.676 -0.4478 -1.0070  1.1952
  801MOL0     H 8101   1.272   7.276   5.750 -0.1600  0.0746 -0.3141
  801MOL0     H 8102   1.290   7.226   5.577  0.1473 -0.0784  0.8612
  801MOL0     H 8103   1.073   7.282   5.599  0.4513 -1.9488 -4.7762
  801MOL0     H 8104   1.070   7.112   5.568 -5.0122  0.1254  1.7831
  801MOL0     H 8105   1.077   7.186   5.850  1.1027 -3.8114  1.3010
  801MOL0     H 8106   1.017   7.041   5.782 -4.2899  0.0083 -0.0226
  801MOL0     H 8107   0.894   7.297   5.799  1.5021 -1.2391  0.9078
  801MOL0     H 8108   0.855   7.193   5.656  2.8469 -2.3141 -1.2334
  801MOL0     H 8109   0.816   7.122   5.953  2.2633 -1.2847 -0.4915
  801MOL0     H 8110   0.794   7.007   5.813  0.8184  0.4326 -1.4353
  801MOL0     H 8111   0.629   7.261   5.835  1.5100  1.0698 -0.8544
  801MOL0     H 8112   0.616   7.132   5.723  0.0039 -1.0826 -0.1036
  801MOL0     H 8113   0.568   7.111   6.020  2.0404  1.1263 -1.1144
  801MOL0     H 8114   0.580   6.967   5.927 -4.8098 -1.9397 -1.9745
  801MOL0     H 8115   0.370   7.048   5.780 -3.4046  2.0541  0.5706
  801MOL0     H 8116   0.362   7.172   5.904  1.8284  1.0459  1.0384
  801MOL0     H 8117   1.398   6.856   5.630 -0.4953 -0.8921 -2.1118
  801MOL0     H 8118   1.624   6.804   5.532  2.6203  1.1778 -3.4423
  801MOL0     H 8119   1.946   6.783   5.389  1.7518 -2.6743 -3.2787
  801MOL0     H 8120   2.141   6.680   5.332  0.2401 -0.1475 -2.2168
  801MOL0     H 8121   3.984   6.090   4.897  2.5977 -0.7036  0.3802
  801MOL0     H 8122   4.202   6.027   4.829 -0.6191  2.5237  1.7216
  801MOL0     H 8123   4.486   5.878   4.289 -1.9195  1.5364  1.5884
  801MOL0     H 8124   4.728   5.831   4.269  0.9672 -0.9697  1.0914
  801MOL0     H 8125   4.902   5.702   4.390 -0.5174  0.5913 -0.4303
  801MOL0     H 8126   4.952   5.824   4.272  0.9246 -3.8910 -1.3526
  801MOL0     H 8127   5.154   5.856   4.354 -3.5114  0.9295 -1.8537
  801MOL0     H 8128   5.135   5.683   4.333  0.6308  0.4435 -0.4281
  801MOL0     H 8129   5.101   5.643   4.574 -0.6365  0.2527  2.1375
  801MOL0     H 8130   5.122   5.812   4.620 -1.2705  0.3538 -1.3703
  801MOL0     H 8131   5.346   5.810   4.557  0.3806 -0.4254  4.4768
  801MOL0     H 8132   5.335   5.664   4.467 -0.7509  0.8329 -1.0152
  801MOL0     H 8133   5.412   5.496   4.835  1.5772 -0.5153 -0.8114
  801MOL0     H 8134   4.795   5.992   4.666  0.8305 -0.7014 -0.5147
  801MOL0     H 8135   4.554   6.051   4.674 -4.4659  1.8900 -2.5519
  802MOL0     O 8136   0.826   7.398   0.348  0.3914  0.0689 -0.4377
  802MOL0     C 8137   0.896   7.446   0.435  1.1794 -0.4929  0.1843
  802MOL0     O 8138   0.867   7.445   0.565 -0.1860  0.7845  0.4000
  802MOL0     C 8139   0.771   7.352   0.596 -0.0949  0.1952  0.1092
  802MOL0     C 8140   0.801   7.216   0.601 -0.1231  1.0833 -0.2754
  802MOL0     C 8141   0.708   7.116   0.626 -0.3145  0.2399  0.1337
  802MOL0     C 8142   0.572   7.141   0.659 -0.7859 -0.1315  0.7078
  802MOL0     O 8143   0.481   7.050   0.690 -0.0120  0.5358 -0.0656
  802MOL0     C 8144   0.495   6.918   0.623 -0.1509 -0.1279  0.0627
  802MOL0     C 8145   0.381   6.817   0.649 -0.4005 -0.5221 -0.4028
  802MOL0     C 8146   0.252   6.860   0.590  0.6390 -0.4832 -0.0325
  802MOL0     C 8147   0.177   6.983   0.645  0.2112 -0.0646 -0.7190
  802MOL0     C 8148   0.073   7.029   0.544  0.7885  1.1650  0.0050
  802MOL0     C 8149  -0.020   7.135   0.587  0.3347 -0.2552  0.2192
  802MOL0     C 8150   0.052   7.269   0.589  0.2226 -0.2857  0.5435
  802MOL0     C 8151  -0.041   7.393   0.639 -0.0308  0.6578 -0.4091
  802MOL0     N 8152  -0.154   7.415   0.548  0.1225  0.5403 -0.1151
  802MOL0     C 8153  -0.145   7.485   0.437 -0.2028 -0.2737  0.2073
  802MOL0     C 8154  -0.269   7.463   0.378  0.7960  1.2516  0.6063
  802MOL0     C 8155  -0.318   7.517   0.246 -0.4924  0.7750 -0.0233
  802MOL0     C 8156  -0.449   7.591   0.259  0.0095  1.0769  0.3343
  802MOL0     C 8157  -0.462   7.696   0.147 -0.2927  0.4258  0.2318
  802MOL0     C 8158  -0.577   7.784   0.177 -0.6880  0.6720 -0.4467
  802MOL0     O 8159  -0.576   7.908   0.092  0.1160  0.1235 -0.4724
  802MOL0     C 8160  -0.687   7.996   0.123  0.3655  0.4627  0.1106
  802MOL0     C 8161  -0.794   7.973   0.215 -0.2802 -0.5465  0.0119
  802MOL0     C 8162  -0.912   8.055   0.219  0.8309 -0.5319  0.6932
  802MOL0     C 8163  -1.025   8.010   0.316  0.1590 -0.3492  0.5714
  802MOL0     C 8164  -0.919   8.160   0.122 -0.1510  0.1514 -1.0976
  802MOL0     C 8165  -1.039   8.250   0.106 -0.1361  0.2350 -0.3927
  802MOL0     O 8166  -1.025   8.342   0.001 -0.4465  0.4023  0.0270
  802MOL0     C 8167  -1.139   8.404  -0.043 -1.0327  0.3050 -0.2619
  802MOL0     C 8168  -1.238   8.341  -0.121 -0.0996  0.0954  0.9126
  802MOL0     C 8169  -1.339   8.411  -0.185  0.7536  0.3796  0.1831
  802MOL0     C 8170  -1.351   8.549  -0.165 -0.4624  0.1853  0.0383
  802MOL0     O 8171  -1.454   8.635  -0.213 -0.1844 -0.0717 -0.6838
  802MOL0     C 8172  -1.557   8.563  -0.288 -0.6298  0.1755 -0.2992
  802MOL0     C 8173  -1.659   8.664  -0.337 -0.5996  0.0812 -0.2378
  802MOL0     C 8174  -1.593   8.772  -0.415 -1.3623 -0.0240 -0.4433
  802MOL0     C 8175  -1.702   8.862  -0.463 -0.3183  0.4158 -0.5108
  802MOL0     C 8176  -1.710   8.840  -0.615  0.7141  0.7897 -0.8474
  802MOL0     C 8177  -1.757   8.967  -0.683 -0.0786 -0.4023  0.0638
  802MOL0     C 8178  -1.882   9.025  -0.616 -0.9389 -0.3299  0.3318
  802MOL0     C 8179  -1.971   9.099  -0.712 -0.5743  0.3638 -0.3048
  802MOL0    Cl 8180  -1.866   9.204  -0.815 -0.6114 -0.1462 -0.3200
  802MOL0     C 8181  -1.254   8.610  -0.083  0.2140 -0.0275 -0.5920
  802MOL0     C 8182  -1.155   8.541  -0.020  0.1700  0.0739 -0.8738
  802MOL0     O 8183  -1.138   8.230   0.167 -0.1350 -0.5883 -0.3579
  802MOL0     C 8184  -0.806   8.188   0.033 -0.2270 -0.0112  0.3606
  802MOL0     C 8185  -0.693   8.110   0.040  0.1908 -0.3877 -1.0232
  802MOL0     N 8186  -0.347   7.370   0.452 -0.3996 -0.1800 -0.1614
  802MOL0     N 8187  -0.265   7.335   0.549 -0.5735  0.2431 -0.4486
  802MOL0     C 8188   0.529   7.278   0.655 -0.6330 -0.1977  0.5156
  802MOL0     C 8189   0.631   7.381   0.624  0.5990  0.0696 -0.0616
  802MOL0     C 8190   1.022   7.501   0.392  0.5099 -1.1919  0.1594
  802MOL0     C 8191   1.113   7.553   0.483 -0.5719  0.3960  0.1823
  802MOL0     C 8192   1.231   7.603   0.437 -0.4310 -0.5549 -0.0417
  802MOL0     C 8193   1.278   7.602   0.305 -0.5100  0.1821  0.2664
  802MOL0     O 8194   1.411   7.643   0.283  0.5332  0.3823 -0.1454
  802MOL0     C 8195   1.440   7.717   0.167  0.3093 -0.1984  0.2572
  802MOL0     C 8196   1.573   7.787   0.182 -0.2740  0.3467  0.7883
  802MOL0     C 8197   1.609   7.864   0.313 -0.2127  0.0833 -0.0474
  802MOL0     C 8198   1.750   7.913   0.305 -0.2722 -1.2127  0.1868
  802MOL0     C 8199   1.786   7.984   0.182  1.5822 -0.5149  0.0802
  802MOL0     C 8200   1.802   8.046   0.080  0.3145 -0.4977 -0.4261
  802MOL0     C 8201   1.194   7.547   0.209  0.1493 -0.0973 -0.7432
  802MOL0     C 8202   1.060   7.497   0.250  0.4306 -0.4530  0.0876
  802MOL0     H 8203   0.905   7.199   0.574 -0.2664  1.7898 -1.3180
  802MOL0     H 8204   0.752   7.017   0.631  2.6133  1.3291 -1.5815
  802MOL0     H 8205   0.508   6.939   0.517  0.8694  1.2066  0.4240
  802MOL0     H 8206   0.589   6.874   0.658  1.0972  0.5344 -2.2743
  802MOL0     H 8207   0.413   6.729   0.592  0.3841 -0.3722 -0.1960
  802MOL0     H 8208   0.376   6.788   0.755 -1.0864  1.2268  0.0689
  802MOL0     H 8209   0.256   6.876   0.482 -0.6879  1.9211  0.2123
  802MOL0     H 8210   0.174   6.786   0.610  0.3589  0.1009  1.1463
  802MOL0     H 8211   0.124   6.959   0.737 -0.3435 -0.2872 -1.0965
  802MOL0     H 8212   0.249   7.063   0.666  2.1548 -2.2319  1.5147
  802MOL0     H 8213   0.126   7.062   0.454 -0.8996  1.5404 -0.8975
  802MOL0     H 8214   0.015   6.939   0.519  1.2897  1.1375 -1.1139
  802MOL0     H 8215  -0.104   7.135   0.517  1.5928  0.8887 -1.3616
  802MOL0     H 8216  -0.064   7.116   0.685 -2.1768  0.0711 -0.7762
  802MOL0     H 8217   0.141   7.264   0.652  1.2126  0.8111 -0.6979
  802MOL0     H 8218   0.101   7.291   0.494  4.5546 -0.7127  2.4532
  802MOL0     H 8219   0.018   7.485   0.652  3.4862 -1.4460 -0.2032
  802MOL0     H 8220  -0.081   7.375   0.739  0.7680 -0.3024 -0.2448
  802MOL0     H 8221  -0.068   7.547   0.392 -0.0560  1.1715  2.2951
  802MOL0     H 8222  -0.235   7.579   0.211  1.1652 -0.6880  1.1667
  802MOL0     H 8223  -0.337   7.438   0.173  0.8914 -0.5962  1.0481
  802MOL0     H 8224  -0.447   7.647   0.354 -1.0888  0.0326  0.9917
  802MOL0     H 8225  -0.530   7.520   0.272 -0.5490  2.0475  2.5722
  802MOL0     H 8226  -0.481   7.659   0.046 -1.0084 -2.9031  1.4758
  802MOL0     H 8227  -0.371   7.758   0.144 -1.1702  1.7716  0.7108
  802MOL0     H 8228  -0.577   7.819   0.281 -0.8117  0.5534 -0.4070
  802MOL0     H 8229  -0.667   7.728   0.150 -0.5474 -1.4758  2.8950
  802MOL0     H 8230  -0.775   7.886   0.277 -0.3581 -1.0010 -0.5879
  802MOL0     H 8231  -1.029   8.077   0.402  1.1553  2.2914 -1.3137
  802MOL0     H 8232  -1.123   8.005   0.268 -1.0761 -1.4923  3.0063
  802MOL0     H 8233  -1.006   7.905   0.339  1.3032  0.4479  3.8544
  802MOL0     H 8234  -1.253   8.234  -0.130 -0.9902  0.2703  0.1601
  802MOL0     H 8235  -1.412   8.361  -0.247 -0.6923 -0.2210  2.2674
  802MOL0     H 8236  -1.516   8.517  -0.378  0.1108  3.6738 -1.9094
  802MOL0     H 8237  -1.602   8.485  -0.226 -1.2610 -0.6888 -1.8018
  802MOL0     H 8238  -1.727   8.605  -0.398 -0.7133 -0.8007  0.7303
  802MOL0     H 8239  -1.721   8.702  -0.255 -1.4491  1.9461 -1.6635
  802MOL0     H 8240  -1.527   8.733  -0.493 -0.1111  1.7220 -0.3128
  802MOL0     H 8241  -1.534   8.830  -0.343 -1.5032  0.3197 -0.6003
  802MOL0     H 8242  -1.800   8.849  -0.417 -1.6392  2.9220 -2.3995
  802MOL0     H 8243  -1.665   8.963  -0.445  0.3448  0.3523 -1.4451
  802MOL0     H 8244  -1.770   8.751  -0.636  1.8653 -0.0907 -0.4731
  802MOL0     H 8245  -1.613   8.823  -0.661 -0.6905 -2.9706 -2.8438
  802MOL0     H 8246  -1.679   9.044  -0.689 -2.0131  1.8732  1.9406
  802MOL0     H 8247  -1.774   8.945  -0.788  0.6732 -0.3448 -0.0750
  802MOL0     H 8248  -1.860   9.090  -0.530 -1.8165  1.2398 -0.5898
  802MOL0     H 8249  -1.951   8.953  -0.570 -2.2889  1.6821  1.6357
  802MOL0     H 8250  -2.033   9.178  -0.668  1.7537  2.6412 -0.8622
  802MOL0     H 8251  -2.038   9.037  -0.772 -2.0399 -0.1478  1.7356
  802MOL0     H 8252  -1.252   8.719  -0.080  1.3137 -0.0513  1.1858
  802MOL0     H 8253  -1.084   8.588   0.046 -0.9908  1.1144 -0.3152
  802MOL0     H 8254  -0.803   8.263  -0.045 -0.7929 -1.3657 -1.0238
  802MOL0     H 8255  -0.613   8.136  -0.029  0.4461 -0.6274 -0.8177
  802MOL0     H 8256   0.426   7.308   0.665  0.4246  3.8027  1.3019
  802MOL0     H 8257   0.595   7.482   0.607 -2.8850 -1.0733 -0.3027
  802MOL0     H 8258   1.104   7.556   0.591 -1.1585  0.1754  0.1435
  802MOL0     H 8259   1.285   7.662   0.510 -0.3509 -0.3535 -0.2630
  802MOL0     H 8260   1.451   7.643   0.087  0.3316 -1.8549  1.7285
  802MOL0     H 8261   1.357   7.779   0.130  0.2188 -0.2068  0.4419
  802MOL0     H 8262   1.589   7.849   0.094 -1.6925 -2.2553 -1.4449
  802MOL0     H 8263   1.645   7.705   0.174  0.2054  0.8694 -0.3606
  802MOL0     H 8264   1.595   7.794   0.397 -1.1482 -0.6958 -0.8280
  802MOL0     H 8265   1.537   7.946   0.325  0.4360  0.3227  3.0620
  802MOL0     H 8266   1.815   7.826   0.322 -2.5133 -2.5264  2.8038
  802MOL0     H 8267   1.755   7.987   0.385  1.1678 -1.3356  0.2308
  802MOL0     H 8268   1.821   8.111  -0.003  1.0105  0.4772  0.4722
  802MOL0     H 8269   1.219   7.544   0.103  0.7932 -0.0478 -0.5969
  802MOL0     H 8270   1.005   7.450   0.168  0.6916  0.0035 -0.3541
  803MOL0     O 8271   1.173   1.621   1.685 -0.5831 -0.4271 -0.1958
  803MOL0     C 8272   1.175   1.737   1.708 -0.0113  0.1006  0.4003
  803MOL0     O 8273   1.063   1.823   1.707 -1.3637  0.3361 -0.0683
  803MOL0     C 8274   0.939   1.782   1.686 -0.1976  0.4425  0.4234
  803MOL0     C 8275   0.848   1.876   1.630  0.2491  0.2496 -0.5228
  803MOL0     C 8276   0.722   1.839   1.594  0.2165  0.0616 -0.3510
  803MOL0     C 8277   0.667   1.713   1.604 -0.0337  0.4077  0.0297
  803MOL0     O 8278   0.530   1.692   1.571 -0.8230  0.1433  0.3014
  803MOL0     C 8279   0.507   1.564   1.504 -0.1794  0.0594 -0.9967
  803MOL0     C 8280   0.364   1.556   1.453 -0.8555 -0.5426  0.0139
  803MOL0     C 8281   0.328   1.700   1.393 -0.2895  0.1344  0.0116
  803MOL0     C 8282   0.228   1.686   1.280  0.4228  0.2421  0.7318
  803MOL0     C 8283   0.081   1.705   1.330 -0.0550  0.4011  0.1441
  803MOL0     C 8284   0.034   1.604   1.438  0.4487 -0.7398  0.0505
  803MOL0     C 8285  -0.116   1.615   1.463  0.4872 -0.0277 -0.0810
  803MOL0     C 8286  -0.208   1.550   1.348  0.2199 -0.0698  0.2090
  803MOL0     N 8287  -0.350   1.569   1.375  0.0604  0.0034 -0.5901
  803MOL0     C 8288  -0.410   1.567   1.501 -0.7108  0.0326 -0.1054
  803MOL0     C 8289  -0.539   1.600   1.473  0.2700  0.0161 -0.4420
  803MOL0     C 8290  -0.641   1.631   1.577  0.6597  0.2374  0.2979
  803MOL0     C 8291  -0.782   1.585   1.532 -0.9619 -0.4157 -0.5899
  803MOL0     C 8292  -0.892   1.599   1.634  0.4660 -0.8500 -0.3119
  803MOL0     C 8293  -1.025   1.534   1.588  0.6499  0.0714 -0.2042
  803MOL0     O 8294  -1.117   1.534   1.698 -0.0227 -0.1520 -0.5349
  803MOL0     C 8295  -1.249   1.555   1.682  0.2647 -0.8014 -0.1478
  803MOL0     C 8296  -1.339   1.493   1.767 -1.0489  0.1509 -0.1567
  803MOL0     C 8297  -1.481   1.500   1.760 -0.6867  0.5866 -0.2715
  803MOL0     C 8298  -1.554   1.413   1.861  0.4041 -0.3895 -0.9372
  803MOL0     C 8299  -1.537   1.563   1.644 -0.3605  0.9181 -0.3993
  803MOL0     C 8300  -1.679   1.564   1.607  0.1825 -0.2697 -0.7660
  803MOL0     O 8301  -1.764   1.519   1.713  0.8745 -1.7786 -0.0628
  803MOL0     C 8302  -1.899   1.511   1.677  0.0381  0.3869  0.3389
  803MOL0     C 8303  -1.959   1.384   1.660  0.5777  0.0188  0.1415
  803MOL0     C 8304  -2.097   1.373   1.619 -0.1309 -0.0263 -0.7537
  803MOL0     C 8305  -2.170   1.486   1.588 -0.3594 -0.1953 -0.1542
  803MOL0     O 8306  -2.286   1.483   1.525  0.1240  0.5465  0.4536
  803MOL0     C 8307  -2.382   1.388   1.557 -0.0327 -0.5404 -0.9078
  803MOL0     C 8308  -2.527   1.414   1.495  0.1762 -0.1210 -0.6987
  803MOL0     C 8309  -2.626   1.330   1.564  0.9812  0.5065  0.5162
  803MOL0     C 8310  -2.773   1.355   1.508 -1.3041  0.7587 -0.2848
  803MOL0     C 8311  -2.868   1.284   1.600 -0.4178  0.1790 -0.4016
  803MOL0     C 8312  -3.017   1.315   1.574  0.2492  0.1045 -0.0654
  803MOL0     C 8313  -3.117   1.211   1.612  0.3313  0.3206  0.5070
  803MOL0     C 8314  -3.082   1.131   1.734 -0.8788  0.3924 -0.4368
  803MOL0    Cl 8315  -3.064   1.209   1.890  0.1961  0.1336 -0.3706
  803MOL0     C 8316  -2.097   1.608   1.597 -0.4734  0.2008  0.1195
  803MOL0     C 8317  -1.963   1.627   1.642  0.7128  0.7913  0.6662
  803MOL0     O 8318  -1.724   1.618   1.504 -0.3652  0.1318 -1.0025
  803MOL0     C 8319  -1.446   1.624   1.559 -0.0194  0.3188  0.1685
  803MOL0     C 8320  -1.307   1.618   1.567  0.1739 -0.0348  0.1050
  803MOL0     N 8321  -0.553   1.641   1.342 -0.2966 -0.4852 -0.3926
  803MOL0     N 8322  -0.435   1.622   1.278  0.6601 -0.1623 -0.4807
  803MOL0     C 8323   0.755   1.613   1.660  1.3692 -0.8012  0.3823
  803MOL0     C 8324   0.881   1.651   1.703  0.0356 -0.8217  0.0804
  803MOL0     C 8325   1.314   1.797   1.718 -0.4516 -0.7256  0.6940
  803MOL0     C 8326   1.328   1.932   1.695 -0.6706 -0.1896  0.9071
  803MOL0     C 8327   1.449   2.000   1.709 -0.3460  0.0026 -0.9243
  803MOL0     C 8328   1.559   1.934   1.763 -0.1440  0.1033 -0.2642
  803MOL0     O 8329   1.666   2.007   1.791  0.4979  0.1456 -0.0884
  803MOL0     C 8330   1.776   1.939   1.844  0.1450  0.5898 -0.4690
  803MOL0     C 8331   1.893   2.030   1.882  0.1967 -0.1274  0.2382
  803MOL0     C 8332   1.851   2.128   1.991 -0.4240  0.2580 -0.1434
  803MOL0     C 8333   1.938   2.253   1.977 -0.3191  0.2865 -0.2012
  803MOL0     C 8334   2.066   2.235   2.047 -0.1624  0.0143  0.9272
  803MOL0     C 8335   2.173   2.221   2.103 -0.3057  0.3027 -0.2059
  803MOL0     C 8336   1.553   1.795   1.781  0.1215 -1.0377 -0.5656
  803MOL0     C 8337   1.427   1.731   1.762 -1.1757  0.1115  0.6537
  803MOL0     H 8338   0.884   1.978   1.617 -1.0931  0.7811 -0.2385
  803MOL0     H 8339   0.659   1.915   1.547  0.9017  0.5843 -0.4415
  803MOL0     H 8340   0.583   1.547   1.427 -0.4788 -0.8773 -1.1015
  803MOL0     H 8341   0.525   1.492   1.584 -0.9925  1.4711  0.5176
  803MOL0     H 8342   0.349   1.471   1.385  0.7448 -0.3978 -0.5701
  803MOL0     H 8343   0.296   1.531   1.535 -1.1734  2.0734  0.6093
  803MOL0     H 8344   0.302   1.779   1.464  2.0746  0.3084  0.7832
  803MOL0     H 8345   0.418   1.747   1.353 -0.4805  0.7762  0.3267
  803MOL0     H 8346   0.255   1.746   1.192  0.6874 -2.4016 -1.1046
  803MOL0     H 8347   0.238   1.585   1.241 -3.1987  1.3817 -4.1383
  803MOL0     H 8348   0.082   1.806   1.371  2.0035 -0.0817  1.3936
  803MOL0     H 8349   0.019   1.704   1.239  2.0254  0.1885 -1.3520
  803MOL0     H 8350   0.061   1.506   1.399  1.6308  0.0769 -1.2819
  803MOL0     H 8351   0.083   1.614   1.535 -1.3276 -2.3229  1.1941
  803MOL0     H 8352  -0.135   1.572   1.562 -3.5568  0.2455 -0.5714
  803MOL0     H 8353  -0.138   1.722   1.465 -2.5235 -0.5713 -0.1489
  803MOL0     H 8354  -0.184   1.444   1.335 -2.0044 -0.5855 -0.1226
  803MOL0     H 8355  -0.185   1.605   1.257  0.3445 -0.0565  0.2483
  803MOL0     H 8356  -0.366   1.545   1.598 -2.0014 -0.2252  0.4402
  803MOL0     H 8357  -0.618   1.588   1.676  0.6454  4.2679  2.2476
  803MOL0     H 8358  -0.650   1.739   1.588 -1.8321  0.3893 -2.2074
  803MOL0     H 8359  -0.778   1.478   1.511  0.3843 -1.2476  3.0843
  803MOL0     H 8360  -0.798   1.637   1.437 -0.3418  0.1628 -0.3876
  803MOL0     H 8361  -0.905   1.703   1.663 -0.7613 -0.8821 -0.6789
  803MOL0     H 8362  -0.850   1.544   1.719  0.9252 -1.5130 -0.9550
  803MOL0     H 8363  -1.009   1.433   1.548 -0.6945  0.0204 -0.6807
  803MOL0     H 8364  -1.054   1.589   1.498 -0.7214  1.4843  1.0500
  803MOL0     H 8365  -1.294   1.419   1.834  0.5966 -0.7923 -2.1873
  803MOL0     H 8366  -1.487   1.352   1.923 -0.6789 -0.4614  0.1962
  803MOL0     H 8367  -1.605   1.474   1.936 -2.7518 -1.8226 -1.7488
  803MOL0     H 8368  -1.621   1.338   1.819  0.6383 -2.1446  1.6024
  803MOL0     H 8369  -1.902   1.294   1.680  1.1838 -0.6769 -3.8255
  803MOL0     H 8370  -2.144   1.277   1.601 -0.4952 -0.3783  1.7225
  803MOL0     H 8371  -2.345   1.295   1.514 -1.5066 -0.9163 -1.4313
  803MOL0     H 8372  -2.392   1.384   1.666 -2.7258 -1.0335 -1.1005
  803MOL0     H 8373  -2.554   1.516   1.521 -0.0838 -0.5150  0.6675
  803MOL0     H 8374  -2.510   1.405   1.387  1.4025  1.0651 -0.6221
  803MOL0     H 8375  -2.616   1.361   1.668 -0.7925  1.3104  0.4864
  803MOL0     H 8376  -2.607   1.223   1.554 -3.6961 -0.6949  2.0224
  803MOL0     H 8377  -2.798   1.462   1.512 -0.5850  0.8725  2.5914
  803MOL0     H 8378  -2.776   1.314   1.406 -0.9911  0.1970 -0.0680
  803MOL0     H 8379  -2.839   1.323   1.698  0.7806  1.5157 -1.2491
  803MOL0     H 8380  -2.849   1.176   1.598 -0.4558  0.1500  0.4361
  803MOL0     H 8381  -3.050   1.415   1.601  0.3285  0.1964 -0.3013
  803MOL0     H 8382  -3.024   1.302   1.465  0.8673 -2.4751  0.1236
  803MOL0     H 8383  -3.135   1.139   1.531 -0.8876 -0.5734  1.5399
  803MOL0     H 8384  -3.218   1.253   1.617 -0.1385 -0.4918 -1.2659
  803MOL0     H 8385  -2.983   1.088   1.718  0.6342  3.7075 -0.6109
  803MOL0     H 8386  -3.148   1.049   1.766 -2.2524  2.7988  3.7061
  803MOL0     H 8387  -2.161   1.692   1.571 -5.5797 -3.5081 -0.8845
  803MOL0     H 8388  -1.922   1.727   1.656 -1.7592  1.7048  1.7889
  803MOL0     H 8389  -1.480   1.665   1.464 -1.0123 -0.3195  0.2286
  803MOL0     H 8390  -1.258   1.665   1.482  0.0173  1.3217  0.7424
  803MOL0     H 8391   0.720   1.512   1.680 -0.2715 -0.5275 -0.8068
  803MOL0     H 8392   0.946   1.575   1.746  0.7178 -0.3780 -0.1441
  803MOL0     H 8393   1.241   1.985   1.658 -0.8480 -0.6186  0.6939
  803MOL0     H 8394   1.455   2.108   1.708 -1.3451  0.0778 -0.4476
  803MOL0     H 8395   1.733   1.901   1.937  1.6956 -1.5233 -0.5530
  803MOL0     H 8396   1.805   1.864   1.770 -2.0496 -0.6010 -0.2054
  803MOL0     H 8397   1.936   2.077   1.793  1.1552  1.0738  1.2926
  803MOL0     H 8398   1.966   1.962   1.926 -1.7675 -2.3605  0.2194
  803MOL0     H 8399   1.878   2.079   2.085 -1.2528 -1.8699 -0.9331
  803MOL0     H 8400   1.744   2.151   1.981 -0.2703  1.8640  1.4389
  803MOL0     H 8401   1.881   2.337   2.018  1.9714  1.0994  1.5647
  803MOL0     H 8402   1.958   2.290   1.876  2.1639  0.9322  0.4631
  803MOL0     H 8403   2.263   2.194   2.154 -0.9036 -1.9419 -0.2167
  803MOL0     H 8404   1.640   1.733   1.798 -0.2675 -1.5253 -0.3099
  803MOL0     H 8405   1.416   1.626   1.787  4.4256 -0.2828  2.9916
  804MOL0     O 8406  10.630   2.131   3.778 -0.2523  1.0181  0.2066
  804MOL0     C 8407  10.655   2.232   3.711  0.7873 -0.4044  0.3128
  804MOL0     O 8408  10.772   2.295   3.696 -0.3033  0.3531 -0.3590
  804MOL0     C 8409  10.866   2.262   3.786 -0.0419 -0.5645 -0.4778
  804MOL0     C 8410  10.906   2.363   3.880  0.9437 -0.7857 -0.8351
  804MOL0     C 8411  10.983   2.327   3.997 -0.3677 -0.2831 -0.0337
  804MOL0     C 8412  11.042   2.203   4.010 -0.7140  0.3788  0.4923
  804MOL0     O 8413  11.129   2.161   4.110  0.6263 -0.0709 -0.3485
  804MOL0     C 8414  11.151   2.243   4.230  0.8639 -0.2577 -0.0447
  804MOL0     C 8415  11.262   2.194   4.314  0.9491 -0.4704  0.0268
  804MOL0     C 8416  11.385   2.183   4.235 -0.2026  0.2588  0.8578
  804MOL0     C 8417  11.499   2.133   4.321  0.1259  0.2005  0.1047
  804MOL0     C 8418  11.611   2.047   4.259 -0.0850  0.0753  0.2993
  804MOL0     C 8419  11.721   2.013   4.355  0.3084  0.2528  0.2668
  804MOL0     C 8420  11.693   1.891   4.454 -0.5775 -0.5806 -0.8925
  804MOL0     C 8421  11.808   1.869   4.559  0.2393 -0.5816 -0.0495
  804MOL0     N 8422  11.945   1.845   4.495  0.5174  0.1629  0.3543
  804MOL0     C 8423  12.025   1.944   4.453 -1.3108  0.8013  0.5368
  804MOL0     C 8424  12.143   1.880   4.430 -0.2306 -0.2811  0.6974
  804MOL0     C 8425  12.277   1.949   4.412  0.1627 -0.0956  0.0208
  804MOL0     C 8426  12.345   1.901   4.283  0.3747  0.4413  0.8755
  804MOL0     C 8427  12.268   1.942   4.155  0.5210  0.2365 -0.4146
  804MOL0     C 8428  12.291   2.087   4.106  0.7471  0.2122 -0.0330
  804MOL0     O 8429  12.223   2.181   4.186 -0.1302  0.0005  0.4979
  804MOL0     C 8430  12.100   2.212   4.165  1.0495  0.2792  0.1436
  804MOL0     C 8431  12.057   2.317   4.243  0.0513  0.5274  0.2914
  804MOL0     C 8432  11.926   2.368   4.235  0.0376  0.0014  0.0159
  804MOL0     C 8433  11.888   2.472   4.336  0.0866 -0.5712 -0.2553
  804MOL0     C 8434  11.834   2.315   4.134  0.4825 -0.1240 -0.0130
  804MOL0     C 8435  11.691   2.344   4.127 -0.0161  0.2768 -0.0888
  804MOL0     O 8436  11.629   2.314   4.006  0.3374  0.7947 -0.5577
  804MOL0     C 8437  11.527   2.390   3.968 -0.8174  0.5224  1.1594
  804MOL0     C 8438  11.445   2.341   3.862 -0.4032 -0.3134  0.1252
  804MOL0     C 8439  11.352   2.423   3.798 -0.5167 -0.8873 -0.3054
  804MOL0     C 8440  11.338   2.562   3.826 -0.8397  0.3117 -0.2786
  804MOL0     O 8441  11.252   2.632   3.754  0.3625  0.2229  0.4280
  804MOL0     C 8442  11.197   2.744   3.811  0.0989 -0.1529  0.2459
  804MOL0     C 8443  11.081   2.784   3.710 -0.3390  0.1933  0.3758
  804MOL0     C 8444  10.963   2.681   3.710 -0.5421  0.8485 -0.0816
  804MOL0     C 8445  10.860   2.706   3.589  0.1842 -1.1017  0.2611
  804MOL0     C 8446  10.915   2.707   3.448 -0.2107  0.5176 -0.4850
  804MOL0     C 8447  10.804   2.664   3.355  0.2389 -0.8248  0.2977
  804MOL0     C 8448  10.839   2.676   3.207 -0.0189  0.4491 -0.1419
  804MOL0     C 8449  10.780   2.555   3.131 -0.6068  0.4528 -0.0338
  804MOL0    Cl 8450  10.603   2.576   3.133  0.0324  0.1477  0.0586
  804MOL0     C 8451  11.420   2.612   3.922  0.1059 -0.0856  0.0510
  804MOL0     C 8452  11.506   2.528   3.994 -1.1504 -0.5062 -0.4115
  804MOL0     O 8453  11.644   2.405   4.222  0.0139  0.3202  0.0307
  804MOL0     C 8454  11.885   2.202   4.061  0.3362  0.0934  0.2028
  804MOL0     C 8455  12.016   2.154   4.076 -0.3809 -0.1301 -0.0637
  804MOL0     N 8456  12.128   1.746   4.460 -0.7788 -0.0574 -0.6445
  804MOL0     N 8457  12.009   1.728   4.503 -0.4675  0.5014 -0.0462
  804MOL0     C 8458  11.025   2.117   3.904  0.5152  1.1673  0.4207
  804MOL0     C 8459  10.931   2.140   3.801  0.8158  0.2102  0.4723
  804MOL0     C 8460  10.543   2.291   3.629  0.2489  0.2487 -0.1555
  804MOL0     C 8461  10.561   2.416   3.563  0.1736  0.2168 -0.3741
  804MOL0     C 8462  10.463   2.469   3.483  0.4954 -0.1574 -0.3783
  804MOL0     C 8463  10.339   2.399   3.465  0.4262  0.1706 -0.3164
  804MOL0     O 8464  10.240   2.457   3.391 -0.8140  0.1593 -0.5334
  804MOL0     C 8465  10.122   2.392   3.367  0.4808  0.1138  0.2969
  804MOL0     C 8466  10.049   2.490   3.280  0.0419  0.3203  0.9142
  804MOL0     C 8467   9.942   2.417   3.192  0.0822 -0.4963 -0.0071
  804MOL0     C 8468   9.823   2.379   3.272  0.4260  0.1262 -0.1164
  804MOL0     C 8469   9.724   2.296   3.198  0.9285 -0.4135  0.1287
  804MOL0     C 8470   9.652   2.247   3.107 -0.3853 -0.3235  0.4237
  804MOL0     C 8471  10.322   2.277   3.536  0.0699  0.8032  0.0151
  804MOL0     C 8472  10.417   2.224   3.620 -0.2557 -0.4873 -0.5561
  804MOL0     H 8473  10.856   2.459   3.877  1.0333 -0.7411 -0.8928
  804MOL0     H 8474  11.001   2.405   4.071 -2.3179 -1.1609  1.4594
  804MOL0     H 8475  11.176   2.345   4.202  4.0894 -1.2328 -1.1615
  804MOL0     H 8476  11.060   2.242   4.291  0.7210 -1.4299 -0.2611
  804MOL0     H 8477  11.283   2.264   4.396  0.5075  0.7883 -0.8883
  804MOL0     H 8478  11.238   2.094   4.351  0.6056 -1.1122 -1.8145
  804MOL0     H 8479  11.370   2.120   4.147 -1.6924  0.7329  0.7442
  804MOL0     H 8480  11.414   2.283   4.203 -1.4964  0.8565  1.4774
  804MOL0     H 8481  11.547   2.221   4.366 -0.3823  0.0088  1.0436
  804MOL0     H 8482  11.447   2.087   4.405 -4.8783  2.0141 -1.6358
  804MOL0     H 8483  11.570   1.949   4.233  1.4293 -0.3338 -0.6779
  804MOL0     H 8484  11.654   2.097   4.172 -0.4831 -0.3294 -0.1351
  804MOL0     H 8485  11.811   1.991   4.297  0.9168  3.6946 -0.2935
  804MOL0     H 8486  11.742   2.093   4.426 -0.0343 -0.3422  1.0537
  804MOL0     H 8487  11.603   1.920   4.510  0.3397  2.0930 -0.6643
  804MOL0     H 8488  11.678   1.803   4.390  1.1307 -0.5839 -1.3421
  804MOL0     H 8489  11.779   1.788   4.626  2.0695 -1.5353 -0.3415
  804MOL0     H 8490  11.820   1.965   4.610 -1.2214 -0.0239 -0.6915
  804MOL0     H 8491  11.997   2.049   4.450 -1.6212  0.7016 -0.1123
  804MOL0     H 8492  12.263   2.058   4.414  2.0029  0.2986 -2.8930
  804MOL0     H 8493  12.341   1.924   4.497  1.7418 -1.6468 -1.5475
  804MOL0     H 8494  12.361   1.793   4.272 -2.8115 -0.0337 -0.0970
  804MOL0     H 8495  12.449   1.933   4.281  0.9973 -1.4849  0.4673
  804MOL0     H 8496  12.161   1.925   4.164  0.2371  1.4048 -1.2830
  804MOL0     H 8497  12.313   1.878   4.078 -1.3007  0.3638 -1.6399
  804MOL0     H 8498  12.255   2.090   4.002  1.5763 -0.7856 -0.3723
  804MOL0     H 8499  12.399   2.102   4.093  0.8100  1.6680  1.8282
  804MOL0     H 8500  12.123   2.356   4.320  1.0596  1.2863 -0.9177
  804MOL0     H 8501  11.867   2.560   4.275  1.4765 -1.3245 -1.8767
  804MOL0     H 8502  11.803   2.448   4.400 -0.3450  0.8974 -0.2218
  804MOL0     H 8503  11.974   2.500   4.398  0.6086 -0.8086 -0.8608
  804MOL0     H 8504  11.452   2.234   3.852  0.9677 -0.5659  2.7523
  804MOL0     H 8505  11.286   2.376   3.726  0.2937 -0.7083 -1.1900
  804MOL0     H 8506  11.163   2.739   3.915 -0.1899  1.6976  0.2893
  804MOL0     H 8507  11.273   2.823   3.813 -0.1274  0.1558 -1.3973
  804MOL0     H 8508  11.037   2.881   3.735 -3.8582 -1.1824  0.1378
  804MOL0     H 8509  11.114   2.783   3.606  3.5295  2.2327  1.3712
  804MOL0     H 8510  10.918   2.694   3.809  0.6041 -1.5596  0.8463
  804MOL0     H 8511  11.001   2.579   3.699  0.7993  1.3378 -0.1280
  804MOL0     H 8512  10.784   2.628   3.603  0.9309 -1.5044  2.4531
  804MOL0     H 8513  10.819   2.806   3.603  1.5100 -0.4428 -0.5140
  804MOL0     H 8514  10.996   2.633   3.444  1.1354  1.6959  2.4321
  804MOL0     H 8515  10.955   2.805   3.420  1.2561 -0.4845 -2.1429
  804MOL0     H 8516  10.794   2.561   3.390 -0.0637 -0.4304  1.4167
  804MOL0     H 8517  10.707   2.710   3.374 -0.9080 -2.5425 -1.0835
  804MOL0     H 8518  10.946   2.680   3.185 -0.6715 -0.9988 -4.4705
  804MOL0     H 8519  10.787   2.767   3.176 -2.1284 -0.4022  0.6915
  804MOL0     H 8520  10.796   2.459   3.181  0.2262 -0.5707 -2.1077
  804MOL0     H 8521  10.815   2.537   3.028  0.1003  0.7104  0.1578
  804MOL0     H 8522  11.426   2.713   3.961 -1.2767  0.0846 -0.1269
  804MOL0     H 8523  11.561   2.582   4.071 -0.6505  0.5782 -1.4901
  804MOL0     H 8524  11.817   2.171   3.982  0.5012  2.2142 -0.8460
  804MOL0     H 8525  12.043   2.068   4.015  0.9034 -0.4786  0.9735
  804MOL0     H 8526  11.075   2.021   3.892  0.1669  1.2093 -1.7161
  804MOL0     H 8527  10.914   2.071   3.719  0.8014  1.7991 -0.9219
  804MOL0     H 8528  10.658   2.463   3.569  0.8430 -0.8837 -1.8353
  804MOL0     H 8529  10.478   2.565   3.435 -2.3605 -0.4253 -2.0002
  804MOL0     H 8530  10.137   2.303   3.305 -2.9764 -0.2676 -0.1814
  804MOL0     H 8531  10.065   2.351   3.451  0.7227  0.2569  0.5325
  804MOL0     H 8532  10.118   2.528   3.204  2.0817 -0.5958  2.1961
  804MOL0     H 8533  10.011   2.572   3.340  1.2045  1.1098  0.6106
  804MOL0     H 8534   9.973   2.329   3.135 -0.5012  0.3994 -1.7612
  804MOL0     H 8535   9.901   2.486   3.118  0.6159 -1.7162 -1.4934
  804MOL0     H 8536   9.767   2.463   3.315 -0.4993  0.1898 -1.3905
  804MOL0     H 8537   9.853   2.312   3.354 -1.0736 -0.2414  0.1572
  804MOL0     H 8538   9.583   2.217   3.031 -2.0598 -0.7904  2.0513
  804MOL0     H 8539  10.243   2.206   3.516 -0.2837  0.4386  2.3949
  804MOL0     H 8540  10.401   2.128   3.668 -2.1976  0.6262  1.1644
  805MOL0     O 8541   8.139   9.458   2.870  0.1825  0.2870  0.9606
  805MOL0     C 8542   8.128   9.489   2.751 -0.1384 -0.2785 -0.6118
  805MOL0     O 8543   8.032   9.456   2.672 -0.6761  0.7080 -0.2449
  805MOL0     C 8544   7.915   9.387   2.697 -0.3602  0.1675 -0.1272
  805MOL0     C 8545   7.853   9.372   2.817  0.5330 -0.7433 -0.1023
  805MOL0     C 8546   7.723   9.316   2.826  0.3199 -0.9145  0.3836
  805MOL0     C 8547   7.648   9.289   2.708  0.1390 -1.0172 -0.5916
  805MOL0     O 8548   7.515   9.255   2.735 -0.2203 -0.2707  0.0686
  805MOL0     C 8549   7.429   9.172   2.658  0.3337 -0.3663  0.5066
  805MOL0     C 8550   7.306   9.249   2.605  0.6588  0.3075 -0.5108
  805MOL0     C 8551   7.221   9.140   2.534 -0.1264  0.1079 -0.1172
  805MOL0     C 8552   7.094   9.216   2.477 -0.2355  0.5899  0.2635
  805MOL0     C 8553   7.000   9.112   2.407 -0.1304  0.8121  1.0882
  805MOL0     C 8554   6.868   9.167   2.356  0.3326 -0.0724 -0.8923
  805MOL0     C 8555   6.880   9.287   2.262 -0.2421  0.7916 -0.1807
  805MOL0     C 8556   6.933   9.243   2.122 -0.3535 -0.1890 -0.2823
  805MOL0     N 8557   6.823   9.211   2.030 -0.5013  0.7226 -0.0213
  805MOL0     C 8558   6.810   9.288   1.918  0.1849  0.6228 -0.3422
  805MOL0     C 8559   6.710   9.232   1.848 -0.3106  0.2381 -0.3213
  805MOL0     C 8560   6.654   9.284   1.725  0.2242 -0.0943  0.8260
  805MOL0     C 8561   6.717   9.213   1.601 -0.5309 -0.4534  0.4959
  805MOL0     C 8562   6.776   9.324   1.507  0.2762  0.0248  0.9052
  805MOL0     C 8563   6.931   9.342   1.539 -0.1317  0.1401  0.5354
  805MOL0     O 8564   7.005   9.219   1.536  0.2094  0.4735 -0.2303
  805MOL0     C 8565   7.141   9.221   1.564  0.3467  0.9427 -0.8551
  805MOL0     C 8566   7.195   9.094   1.556  0.2871  0.0223 -0.3269
  805MOL0     C 8567   7.335   9.073   1.582 -0.6014  0.3980 -0.4914
  805MOL0     C 8568   7.382   8.926   1.585 -0.7382 -0.8965  0.0749
  805MOL0     C 8569   7.411   9.186   1.615  0.8790  0.5235 -0.1127
  805MOL0     C 8570   7.557   9.173   1.638  0.0121 -0.4410 -0.0396
  805MOL0     O 8571   7.614   9.247   1.740  0.4158  0.6818  0.1487
  805MOL0     C 8572   7.750   9.275   1.748 -0.6545  0.1259  0.5288
  805MOL0     C 8573   7.826   9.328   1.638 -0.5386  0.3429  0.0330
  805MOL0     C 8574   7.962   9.356   1.646  0.3786  0.1673 -0.1259
  805MOL0     C 8575   8.030   9.345   1.763 -0.1605 -0.0866 -0.0177
  805MOL0     O 8576   8.159   9.380   1.783 -0.5987 -0.5456 -0.2662
  805MOL0     C 8577   8.201   9.504   1.733 -0.1975  0.1872 -0.5927
  805MOL0     C 8578   8.351   9.526   1.758  0.2555 -0.7561 -0.0370
  805MOL0     C 8579   8.394   9.589   1.898 -0.0644 -0.4797 -0.0271
  805MOL0     C 8580   8.509   9.691   1.881  0.0824 -0.1715  0.4380
  805MOL0     C 8581   8.559   9.754   2.018 -0.6898  0.0602 -0.5098
  805MOL0     C 8582   8.608   9.641   2.111 -0.3709  0.7093 -0.3745
  805MOL0     C 8583   8.734   9.568   2.062 -0.2814 -0.0146  0.1239
  805MOL0     C 8584   8.859   9.650   2.025 -0.0682  0.0893 -0.4176
  805MOL0    Cl 8585   8.898   9.749   2.181 -0.5626 -0.2089 -0.5044
  805MOL0     C 8586   7.956   9.289   1.866 -0.0876 -0.9950 -0.9298
  805MOL0     C 8587   7.821   9.258   1.870 -0.1740  0.7309 -0.1625
  805MOL0     O 8588   7.617   9.097   1.559  0.6146  0.1707  0.8332
  805MOL0     C 8589   7.348   9.306   1.635 -0.4263 -0.0441  0.1207
  805MOL0     C 8590   7.214   9.329   1.606 -1.1760  0.1026 -0.0065
  805MOL0     N 8591   6.664   9.123   1.920 -0.6770 -0.0298 -0.3737
  805MOL0     N 8592   6.735   9.111   2.028  0.6506  0.6638  0.3539
  805MOL0     C 8593   7.711   9.304   2.586  0.2373 -0.3152  0.5759
  805MOL0     C 8594   7.844   9.355   2.577  0.2593 -0.7005 -0.3697
  805MOL0     C 8595   8.238   9.556   2.685  0.8777  0.2108  0.7882
  805MOL0     C 8596   8.245   9.602   2.552 -0.3605  0.6227  0.3485
  805MOL0     C 8597   8.361   9.654   2.497 -0.0926  0.3164  0.3058
  805MOL0     C 8598   8.473   9.672   2.577  0.0734  0.7721  0.5527
  805MOL0     O 8599   8.587   9.716   2.506  1.1344 -0.1404  0.3297
  805MOL0     C 8600   8.685   9.791   2.575 -0.2198 -0.1900 -0.3356
  805MOL0     C 8601   8.785   9.693   2.638  0.7117  1.2912 -0.0711
  805MOL0     C 8602   8.876   9.617   2.536  0.5722 -0.2241  0.9108
  805MOL0     C 8603   8.802   9.486   2.486 -0.5083  0.4429 -0.9097
  805MOL0     C 8604   8.852   9.366   2.554  0.2656 -0.7552 -0.7735
  805MOL0     C 8605   8.898   9.278   2.620  0.4281  0.2703 -0.0763
  805MOL0     C 8606   8.464   9.644   2.710  0.5387 -0.4553 -0.7053
  805MOL0     C 8607   8.346   9.586   2.761 -0.1481  0.5462 -0.1219
  805MOL0     H 8608   7.889   9.411   2.911 -2.0442 -1.6645  1.3817
  805MOL0     H 8609   7.680   9.293   2.923  1.7476  1.2113  1.6009
  805MOL0     H 8610   7.484   9.125   2.575  2.8042  4.0079 -0.6778
  805MOL0     H 8611   7.392   9.089   2.719 -1.5400  0.2934  0.3394
  805MOL0     H 8612   7.262   9.309   2.685 -0.2126 -0.1457 -0.6324
  805MOL0     H 8613   7.326   9.327   2.531 -0.7194 -0.4811 -1.7855
  805MOL0     H 8614   7.291   9.103   2.458 -1.2896 -0.3943 -0.9638
  805MOL0     H 8615   7.190   9.059   2.600 -0.3343  1.6666  1.7796
  805MOL0     H 8616   7.045   9.266   2.562  0.8817  0.9695  0.6998
  805MOL0     H 8617   7.127   9.295   2.408 -0.8120  1.4784  0.9726
  805MOL0     H 8618   7.056   9.071   2.323 -2.0352 -0.8135  0.5269
  805MOL0     H 8619   6.976   9.036   2.482  2.6011 -1.1080  0.1556
  805MOL0     H 8620   6.808   9.086   2.314 -2.3711  0.2961  1.9231
  805MOL0     H 8621   6.816   9.192   2.449  2.8545  0.3166  0.5079
  805MOL0     H 8622   6.781   9.331   2.247 -0.6779 -0.9167 -3.0431
  805MOL0     H 8623   6.942   9.364   2.309  0.8242 -0.8191  1.1600
  805MOL0     H 8624   7.002   9.157   2.125 -0.5234 -0.3028  1.4124
  805MOL0     H 8625   6.994   9.327   2.089  1.6711 -1.6247 -0.4130
  805MOL0     H 8626   6.879   9.369   1.899 -0.7962  2.5053  3.2233
  805MOL0     H 8627   6.547   9.261   1.725  0.3177 -0.6347 -0.4410
  805MOL0     H 8628   6.663   9.393   1.722  1.8127 -0.2176  0.1741
  805MOL0     H 8629   6.638   9.165   1.542 -2.0862  2.0676  0.3720
  805MOL0     H 8630   6.798   9.148   1.634 -0.2354  0.4357  1.6011
  805MOL0     H 8631   6.735   9.424   1.524  0.6931  0.5989 -1.1502
  805MOL0     H 8632   6.747   9.301   1.404 -1.7397  2.7795  0.7253
  805MOL0     H 8633   6.944   9.380   1.641  2.5874  0.5893  0.0975
  805MOL0     H 8634   6.980   9.409   1.468  2.3215 -1.4348  0.6175
  805MOL0     H 8635   7.126   9.012   1.539 -0.1881  0.0789  1.1903
  805MOL0     H 8636   7.446   8.910   1.498  0.4183  1.3704  0.4424
  805MOL0     H 8637   7.431   8.909   1.682  0.4784  0.8443 -0.1934
  805MOL0     H 8638   7.293   8.864   1.571 -0.1541 -1.5584 -0.8058
  805MOL0     H 8639   7.768   9.341   1.547  2.2466 -0.5348 -1.9897
  805MOL0     H 8640   7.999   9.379   1.546 -0.3195  1.4822 -0.0996
  805MOL0     H 8641   8.196   9.489   1.625  1.4064 -0.1860 -0.6399
  805MOL0     H 8642   8.142   9.589   1.767  0.0673  0.3144 -0.4461
  805MOL0     H 8643   8.413   9.436   1.751 -1.8850 -2.2412 -0.8514
  805MOL0     H 8644   8.373   9.588   1.671 -1.3445  0.0997  0.1312
  805MOL0     H 8645   8.400   9.510   1.973 -1.2838 -0.6892 -0.1251
  805MOL0     H 8646   8.311   9.649   1.937  0.0636  0.5841 -1.2926
  805MOL0     H 8647   8.587   9.639   1.825 -1.9548 -1.8849 -0.9882
  805MOL0     H 8648   8.483   9.764   1.805  2.2072 -2.8887 -3.2311
  805MOL0     H 8649   8.476   9.804   2.070 -1.3280 -0.3694 -1.1034
  805MOL0     H 8650   8.645   9.820   2.001  0.8409 -2.0712 -1.5018
  805MOL0     H 8651   8.644   9.678   2.208  1.1551  1.0771 -1.0605
  805MOL0     H 8652   8.530   9.571   2.142 -0.3901 -0.0360 -2.0495
  805MOL0     H 8653   8.704   9.524   1.966  0.2326  1.8919 -0.9826
  805MOL0     H 8654   8.758   9.493   2.138  1.8536  2.9544  2.6339
  805MOL0     H 8655   8.844   9.713   1.938  0.2065 -1.5817 -1.7284
  805MOL0     H 8656   8.942   9.582   2.002 -1.0223 -1.4555  0.5071
  805MOL0     H 8657   8.011   9.289   1.960 -2.1758  1.0937  0.4085
  805MOL0     H 8658   7.778   9.224   1.963 -0.4879  1.2732 -0.1063
  805MOL0     H 8659   7.415   9.386   1.663  0.1799  0.4204 -2.4321
  805MOL0     H 8660   7.183   9.432   1.616  2.4816  1.3787 -0.4029
  805MOL0     H 8661   7.647   9.296   2.499 -0.4351 -1.8594  1.1723
  805MOL0     H 8662   7.882   9.384   2.479  0.4277 -0.2139 -0.1665
  805MOL0     H 8663   8.170   9.582   2.476  0.3004 -0.6901  0.0068
  805MOL0     H 8664   8.366   9.675   2.390  0.4668 -1.3926 -0.0422
  805MOL0     H 8665   8.732   9.860   2.505  0.6520 -0.4780 -0.0454
  805MOL0     H 8666   8.645   9.859   2.651  0.2707  1.5722 -1.5892
  805MOL0     H 8667   8.734   9.620   2.701  2.1282  0.3304 -0.0066
  805MOL0     H 8668   8.845   9.748   2.711 -0.8867 -0.4386  2.6802
  805MOL0     H 8669   8.969   9.590   2.587 -0.4009 -0.1606  2.8315
  805MOL0     H 8670   8.908   9.675   2.450  1.0308 -0.0492  1.1946
  805MOL0     H 8671   8.829   9.469   2.381  1.0123 -1.4117 -0.2879
  805MOL0     H 8672   8.692   9.484   2.482 -0.5663 -3.4574 -2.7764
  805MOL0     H 8673   8.942   9.210   2.690  1.1144 -1.2590 -1.8992
  805MOL0     H 8674   8.554   9.665   2.768  0.6866 -1.9033 -0.3677
  805MOL0     H 8675   8.354   9.560   2.866  1.1558  1.9295  0.1632
  806MOL0     O 8676  10.960   4.234   6.337 -0.1755  0.0026 -0.6064
  806MOL0     C 8677  10.848   4.201   6.377 -0.5568  0.0969 -0.9683
  806MOL0     O 8678  10.768   4.277   6.454 -0.1353 -0.9324 -0.7282
  806MOL0     C 8679  10.825   4.392   6.508 -1.2258 -0.3597  0.3226
  806MOL0     C 8680  10.737   4.495   6.522 -0.0920 -0.1077  0.6501
  806MOL0     C 8681  10.773   4.620   6.579 -1.1751  0.1230 -0.1923
  806MOL0     C 8682  10.901   4.643   6.635 -0.3178 -0.2303  0.6786
  806MOL0     O 8683  10.928   4.768   6.690 -0.3849  0.2913  0.1960
  806MOL0     C 8684  11.013   4.767   6.805  0.6128  0.6767 -0.0000
  806MOL0     C 8685  10.945   4.740   6.937 -1.6228 -0.2290 -0.3470
  806MOL0     C 8686  10.802   4.787   6.959  0.6529  0.2458  0.1283
  806MOL0     C 8687  10.811   4.942   6.964 -0.0764  0.8573 -0.0807
  806MOL0     C 8688  10.678   5.008   7.023  0.0685  0.0721 -0.3599
  806MOL0     C 8689  10.700   5.158   7.041 -0.3121 -0.3126  0.1695
  806MOL0     C 8690  10.585   5.243   7.090 -0.6307 -0.3526 -0.1333
  806MOL0     C 8691  10.462   5.246   6.998  0.0632 -0.3959  0.5096
  806MOL0     N 8692  10.495   5.329   6.883 -0.1112  0.6457  0.9047
  806MOL0     C 8693  10.476   5.469   6.886 -0.0339 -0.1451 -1.2108
  806MOL0     C 8694  10.501   5.505   6.760 -0.4445 -0.4550  0.3531
  806MOL0     C 8695  10.521   5.644   6.701 -0.2688  0.9748 -0.8046
  806MOL0     C 8696  10.409   5.740   6.718  0.8057  0.3551 -0.0736
  806MOL0     C 8697  10.433   5.875   6.659 -0.6542 -0.5469  0.3557
  806MOL0     C 8698  10.301   5.959   6.680 -0.5035  0.5435 -0.1450
  806MOL0     O 8699  10.304   6.091   6.617  0.1090 -0.5749  0.0857
  806MOL0     C 8700  10.187   6.165   6.604 -0.6928 -0.3100 -0.0943
  806MOL0     C 8701  10.207   6.301   6.578  0.1086 -0.6322 -1.3618
  806MOL0     C 8702  10.098   6.389   6.572 -0.0291  0.2706 -0.3227
  806MOL0     C 8703  10.129   6.537   6.546 -0.1253  0.5467  0.1152
  806MOL0     C 8704   9.964   6.341   6.582  0.2817 -0.1485 -0.3469
  806MOL0     C 8705   9.841   6.429   6.569 -0.8541  0.0126  0.5140
  806MOL0     O 8706   9.859   6.564   6.547 -0.1946  0.1446 -0.0057
  806MOL0     C 8707   9.757   6.647   6.540  0.8070 -0.4756  0.2955
  806MOL0     C 8708   9.743   6.736   6.429  0.1273 -0.2273  0.8932
  806MOL0     C 8709   9.648   6.839   6.434  0.7226  1.2397 -0.2993
  806MOL0     C 8710   9.555   6.841   6.543  0.0557 -0.0168 -0.1523
  806MOL0     O 8711   9.481   6.960   6.539  0.2267  1.2580 -0.6202
  806MOL0     C 8712   9.420   7.000   6.659  0.1733 -0.0266  0.1577
  806MOL0     C 8713   9.360   7.146   6.636 -0.2295 -0.8320  0.1793
  806MOL0     C 8714   9.341   7.208   6.770 -0.2272 -0.0012 -0.1086
  806MOL0     C 8715   9.247   7.328   6.761 -0.0031  0.0632 -1.3449
  806MOL0     C 8716   9.170   7.359   6.891 -0.5442 -1.1457 -0.2642
  806MOL0     C 8717   9.094   7.492   6.908 -0.2421  0.3090 -0.4950
  806MOL0     C 8718   8.981   7.516   6.804 -0.0157  0.1791 -0.7599
  806MOL0     C 8719   8.900   7.638   6.840 -0.5143 -0.0896 -0.0178
  806MOL0    Cl 8720   8.823   7.642   6.992 -0.3110  0.2400  0.0962
  806MOL0     C 8721   9.562   6.747   6.639 -0.3816  0.8127 -0.6761
  806MOL0     C 8722   9.655   6.649   6.642 -1.6117 -0.4879  0.1369
  806MOL0     O 8723   9.732   6.370   6.585  0.6143  0.0533 -0.2285
  806MOL0     C 8724   9.941   6.197   6.608 -0.1733 -0.5287 -0.8729
  806MOL0     C 8725  10.061   6.117   6.615  0.4350 -0.0566  1.0747
  806MOL0     N 8726  10.535   5.392   6.687  0.2373  0.0779  0.1030
  806MOL0     N 8727  10.529   5.287   6.761  0.2552  0.1897 -0.1543
  806MOL0     C 8728  10.995   4.540   6.619  0.4422 -1.0044 -0.1709
  806MOL0     C 8729  10.957   4.413   6.563 -0.4682  0.4016 -0.1432
  806MOL0     C 8730  10.796   4.065   6.337  0.2454  0.4020 -0.3922
  806MOL0     C 8731  10.860   3.982   6.243 -0.5758 -0.7790  0.4358
  806MOL0     C 8732  10.828   3.851   6.226 -0.2992 -0.3918  0.2489
  806MOL0     C 8733  10.722   3.794   6.288 -0.5857 -0.3363  0.1764
  806MOL0     O 8734  10.692   3.661   6.296  0.3780 -0.5126 -0.2070
  806MOL0     C 8735  10.809   3.574   6.298  0.2492 -0.4061  0.1457
  806MOL0     C 8736  10.772   3.424   6.302  0.0200 -0.0480  0.2965
  806MOL0     C 8737  10.677   3.393   6.420  0.5174 -0.0276 -0.0665
  806MOL0     C 8738  10.689   3.247   6.456 -0.0160  0.5153  0.4297
  806MOL0     C 8739  10.583   3.204   6.553 -0.0301  0.6874  1.4168
  806MOL0     C 8740  10.495   3.175   6.626  0.0880 -1.0010  0.3644
  806MOL0     C 8741  10.647   3.886   6.373  0.2351  0.8049 -0.6479
  806MOL0     C 8742  10.680   4.019   6.396 -0.3144 -0.2853 -0.4476
  806MOL0     H 8743  10.633   4.498   6.490  0.4324  2.1155 -1.0924
  806MOL0     H 8744  10.698   4.696   6.599 -1.4205 -0.7086  2.5681
  806MOL0     H 8745  11.101   4.704   6.792 -0.3411 -0.3038 -2.3448
  806MOL0     H 8746  11.044   4.869   6.827 -0.9390  1.1154  0.2646
  806MOL0     H 8747  10.940   4.631   6.934 -1.5134 -0.2309 -3.5841
  806MOL0     H 8748  10.998   4.767   7.029 -3.1082 -1.7890  1.0374
  806MOL0     H 8749  10.741   4.768   6.870  0.3634 -0.6632  0.5131
  806MOL0     H 8750  10.758   4.740   7.047  0.5100  1.0205  0.4805
  806MOL0     H 8751  10.895   4.976   7.026  2.0213 -1.4068 -1.5122
  806MOL0     H 8752  10.841   4.979   6.865  1.2045 -0.1174 -0.0931
  806MOL0     H 8753  10.591   4.991   6.960 -1.3399  1.5606  1.0942
  806MOL0     H 8754  10.655   4.969   7.123 -3.2435 -2.5316 -1.9497
  806MOL0     H 8755  10.784   5.186   7.106  0.1503  1.4300 -1.0978
  806MOL0     H 8756  10.721   5.199   6.942 -2.5765  2.3057  0.6529
  806MOL0     H 8757  10.555   5.195   7.184 -0.4984 -1.2220 -0.5326
  806MOL0     H 8758  10.623   5.344   7.109  0.4633 -0.1894 -2.7788
  806MOL0     H 8759  10.379   5.284   7.058 -1.7897 -1.5298 -1.2088
  806MOL0     H 8760  10.438   5.143   6.972  0.9661 -0.2313 -1.1833
  806MOL0     H 8761  10.478   5.542   6.966 -1.4557 -0.4704 -0.8396
  806MOL0     H 8762  10.610   5.682   6.752  0.5393 -0.0806 -1.4034
  806MOL0     H 8763  10.553   5.634   6.597  1.9764  1.6360 -0.2386
  806MOL0     H 8764  10.370   5.744   6.821 -1.1897 -3.1058 -0.5262
  806MOL0     H 8765  10.336   5.683   6.661 -0.8077 -1.8543  3.7568
  806MOL0     H 8766  10.457   5.867   6.552  2.3134  0.8077  0.8193
  806MOL0     H 8767  10.523   5.920   6.701  0.8718 -0.4317 -2.6946
  806MOL0     H 8768  10.274   5.967   6.786 -0.4891  3.4201 -0.2692
  806MOL0     H 8769  10.219   5.913   6.624 -1.5405  2.8311 -0.6200
  806MOL0     H 8770  10.310   6.334   6.573 -0.7586  2.3542 -1.5350
  806MOL0     H 8771  10.238   6.548   6.547 -0.0479 -0.1152  2.1042
  806MOL0     H 8772  10.077   6.570   6.455 -2.0968  1.0532  1.3660
  806MOL0     H 8773  10.089   6.594   6.629 -0.8161  0.7981 -0.3807
  806MOL0     H 8774   9.827   6.728   6.361 -0.6291 -1.8863  0.1138
  806MOL0     H 8775   9.642   6.923   6.365  0.7545  1.2767 -0.2568
  806MOL0     H 8776   9.338   6.930   6.681  1.4911 -1.6244  0.1976
  806MOL0     H 8777   9.486   7.005   6.746 -0.5283 -0.9199  0.7551
  806MOL0     H 8778   9.422   7.211   6.573  2.1296 -0.1266  3.0230
  806MOL0     H 8779   9.262   7.140   6.587 -0.8821 -0.2985  1.3733
  806MOL0     H 8780   9.437   7.251   6.799 -1.3376  2.1350  0.6493
  806MOL0     H 8781   9.298   7.134   6.839  0.4793 -0.4709 -0.1635
  806MOL0     H 8782   9.303   7.416   6.726  1.1814  0.0461  0.3656
  806MOL0     H 8783   9.166   7.307   6.691 -0.7039  1.1505 -0.8896
  806MOL0     H 8784   9.247   7.357   6.969 -0.9068  0.9426  0.2067
  806MOL0     H 8785   9.097   7.278   6.906 -0.5459 -1.0843  0.0583
  806MOL0     H 8786   9.056   7.494   7.011 -0.0930  0.5502 -0.4435
  806MOL0     H 8787   9.167   7.572   6.894  1.5304 -1.1596 -0.0603
  806MOL0     H 8788   8.906   7.437   6.810  1.1667 -0.8532  1.7549
  806MOL0     H 8789   9.015   7.511   6.701  1.0113  2.2927 -0.5800
  806MOL0     H 8790   8.829   7.662   6.760  0.6403  0.5322 -0.8858
  806MOL0     H 8791   8.970   7.722   6.841 -1.5624  0.8347 -0.6609
  806MOL0     H 8792   9.505   6.749   6.731  0.1748  1.1134 -0.3300
  806MOL0     H 8793   9.668   6.593   6.734  2.3256  2.0398  1.3550
  806MOL0     H 8794   9.843   6.158   6.631  0.0182 -1.4764 -1.5709
  806MOL0     H 8795  10.046   6.014   6.646  1.6804 -0.5179  0.1999
  806MOL0     H 8796  11.098   4.541   6.653  1.2274  0.7080 -2.3645
  806MOL0     H 8797  11.028   4.333   6.577  2.0469  2.2919 -1.2618
  806MOL0     H 8798  10.942   4.027   6.188  1.2041 -0.9879  2.7762
  806MOL0     H 8799  10.901   3.808   6.158  0.6690 -0.9901  1.6211
  806MOL0     H 8800  10.872   3.573   6.209  0.4144 -2.7862  0.2258
  806MOL0     H 8801  10.865   3.602   6.388 -1.1368 -0.2594  0.9858
  806MOL0     H 8802  10.864   3.364   6.307  0.4815  0.7078  1.5034
  806MOL0     H 8803  10.715   3.391   6.215  1.7288 -0.7082 -0.6378
  806MOL0     H 8804  10.578   3.414   6.378  1.5270 -0.0855 -2.6667
  806MOL0     H 8805  10.698   3.443   6.515 -1.8649  0.6920  0.1354
  806MOL0     H 8806  10.781   3.220   6.508 -0.9364  1.1380  2.4623
  806MOL0     H 8807  10.695   3.182   6.367  2.6931  1.0960  0.1038
  806MOL0     H 8808  10.423   3.134   6.695  1.3897 -1.6708  1.3802
  806MOL0     H 8809  10.568   3.829   6.422  1.4340 -0.1715  0.2214
  806MOL0     H 8810  10.613   4.065   6.467  1.1465 -1.5107  1.8751
  807MOL0     O 8811   4.120   7.741   7.859 -1.1191 -0.0883  0.2277
  807MOL0     C 8812   4.179   7.650   7.797  0.1613  0.5200 -0.4416
  807MOL0     O 8813   4.125   7.572   7.699  0.2349  0.7164  0.3552
  807MOL0     C 8814   3.988   7.567   7.693  0.3138  0.1499  0.0373
  807MOL0     C 8815   3.929   7.614   7.580 -0.2014 -0.3313 -0.3542
  807MOL0     C 8816   3.791   7.630   7.560  0.1981 -0.2333  0.4504
  807MOL0     C 8817   3.703   7.586   7.661  0.2125  0.3010  0.4364
  807MOL0     O 8818   3.568   7.601   7.638  0.3850  0.2441  0.2810
  807MOL0     C 8819   3.474   7.538   7.733 -0.4145 -0.1070 -0.2482
  807MOL0     C 8820   3.337   7.521   7.670  0.1429 -0.5010  0.7907
  807MOL0     C 8821   3.333   7.431   7.543  0.2911 -0.3613 -0.0689
  807MOL0     C 8822   3.194   7.431   7.473 -0.8213 -0.0802 -1.3491
  807MOL0     C 8823   3.191   7.390   7.326 -0.0054  0.3182 -0.0265
  807MOL0     C 8824   3.058   7.421   7.277 -0.2409 -0.3415 -0.4780
  807MOL0     C 8825   3.057   7.388   7.134  0.2637  0.1926  0.4848
  807MOL0     C 8826   2.941   7.445   7.062  0.1237  0.5192 -0.0520
  807MOL0     N 8827   2.942   7.415   6.920 -0.5004 -0.0220 -0.6260
  807MOL0     C 8828   3.032   7.465   6.824 -0.4140 -0.4642 -0.3768
  807MOL0     C 8829   2.967   7.462   6.703 -0.2942 -0.5040 -1.1098
  807MOL0     C 8830   3.036   7.539   6.586  0.0555  0.3344 -1.1955
  807MOL0     C 8831   3.153   7.452   6.538  0.7352  0.0014 -0.2034
  807MOL0     C 8832   3.121   7.339   6.440 -0.4271  0.2556  0.0087
  807MOL0     C 8833   3.248   7.260   6.404 -0.0883 -0.3420  0.1086
  807MOL0     O 8834   3.339   7.343   6.334  0.8604 -0.0437  0.3373
  807MOL0     C 8835   3.456   7.291   6.286 -0.1451 -0.2397  0.9434
  807MOL0     C 8836   3.506   7.166   6.320 -0.1288 -0.2357  0.5100
  807MOL0     C 8837   3.630   7.121   6.279 -0.0667  0.3939 -0.0311
  807MOL0     C 8838   3.677   6.991   6.329  0.1045  0.1173 -0.1048
  807MOL0     C 8839   3.703   7.194   6.173  0.4573 -0.8849 -0.8792
  807MOL0     C 8840   3.845   7.168   6.119 -0.0623  0.1679  0.4005
  807MOL0     O 8841   3.927   7.066   6.165  0.4195 -1.1514  0.2428
  807MOL0     C 8842   4.053   7.066   6.130 -0.0137  0.2291 -0.4450
  807MOL0     C 8843   4.112   6.943   6.138 -0.8424  0.0829 -0.1284
  807MOL0     C 8844   4.245   6.921   6.099  0.2746  0.6601  0.1466
  807MOL0     C 8845   4.328   7.023   6.053 -0.2170 -0.3201  0.6792
  807MOL0     O 8846   4.464   6.991   6.039 -0.5480 -0.5138  0.3289
  807MOL0     C 8847   4.521   7.039   5.921 -0.2696  0.3406  1.2265
  807MOL0     C 8848   4.645   6.955   5.890  0.0691  0.2396 -0.0309
  807MOL0     C 8849   4.735   7.007   5.777 -0.2361  0.4811 -0.0644
  807MOL0     C 8850   4.667   7.031   5.636  0.3657  0.1087 -0.6836
  807MOL0     C 8851   4.631   7.180   5.602  0.3092  0.8385 -0.1822
  807MOL0     C 8852   4.747   7.249   5.528 -0.3548 -0.4315  0.2026
  807MOL0     C 8853   4.867   7.277   5.620  0.0300 -0.2145 -1.0216
  807MOL0     C 8854   4.959   7.374   5.562 -0.1753  0.0494  1.3230
  807MOL0    Cl 8855   4.912   7.550   5.577 -0.4543 -0.1834  0.8109
  807MOL0     C 8856   4.273   7.147   6.046  0.4659  0.0199  0.5289
  807MOL0     C 8857   4.143   7.172   6.080  0.2354 -0.1665 -0.1472
  807MOL0     O 8858   3.878   7.239   6.020 -0.2745 -0.1570 -0.0085
  807MOL0     C 8859   3.642   7.314   6.126 -0.0465  0.2838 -0.5086
  807MOL0     C 8860   3.525   7.360   6.188  0.4223 -0.7918  0.0477
  807MOL0     N 8861   2.840   7.417   6.723  1.1584 -0.1276 -0.4147
  807MOL0     N 8862   2.828   7.386   6.848 -0.2024  0.3678 -0.3507
  807MOL0     C 8863   3.757   7.530   7.784 -0.1907 -0.3397  0.0506
  807MOL0     C 8864   3.903   7.526   7.795 -0.1691  1.0390  0.1329
  807MOL0     C 8865   4.320   7.634   7.838 -0.6306  0.8971  0.4404
  807MOL0     C 8866   4.413   7.554   7.766  1.0427  0.8819 -0.7036
  807MOL0     C 8867   4.545   7.543   7.796 -0.6750  0.1411  0.2727
  807MOL0     C 8868   4.593   7.610   7.917  0.1437 -0.0084 -0.7004
  807MOL0     O 8869   4.721   7.594   7.970 -0.2478  1.1031  0.3331
  807MOL0     C 8870   4.825   7.523   7.898 -0.8080  0.1151  0.3622
  807MOL0     C 8871   4.880   7.599   7.771  0.8001 -0.5861 -0.6392
  807MOL0     C 8872   5.003   7.679   7.817  0.1142  0.0459  0.0682
  807MOL0     C 8873   5.069   7.749   7.701  0.2514 -0.1113 -0.5089
  807MOL0     C 8874   5.110   7.655   7.597 -0.4933  0.3488 -0.0884
  807MOL0     C 8875   5.159   7.574   7.517 -0.4286  0.1263 -0.7410
  807MOL0     C 8876   4.505   7.687   7.993 -0.4791 -0.4684 -0.3912
  807MOL0     C 8877   4.370   7.699   7.951  0.4022  0.2476  0.2985
  807MOL0     H 8878   4.003   7.641   7.506  0.1431  0.1164  0.1449
  807MOL0     H 8879   3.763   7.682   7.470  3.7195  0.8551 -0.2014
  807MOL0     H 8880   3.512   7.441   7.767 -0.2578  0.1516  0.3193
  807MOL0     H 8881   3.471   7.601   7.822 -1.2940 -0.5725  0.0679
  807MOL0     H 8882   3.255   7.493   7.736 -1.5288 -0.5139 -1.1973
  807MOL0     H 8883   3.300   7.618   7.636 -0.7253 -0.2799  2.2845
  807MOL0     H 8884   3.397   7.471   7.464 -0.7454 -0.7211 -1.1238
  807MOL0     H 8885   3.378   7.334   7.566  4.0144  1.9497  3.7298
  807MOL0     H 8886   3.120   7.377   7.532 -1.2352  0.2484 -1.5659
  807MOL0     H 8887   3.168   7.537   7.477  0.8749  0.3437  1.4014
  807MOL0     H 8888   3.268   7.432   7.261 -0.0832 -1.6306 -1.4576
  807MOL0     H 8889   3.219   7.284   7.323  4.4232  1.3062 -0.3774
  807MOL0     H 8890   2.992   7.352   7.332 -2.0883 -0.2182 -2.4355
  807MOL0     H 8891   3.023   7.523   7.297 -1.4813 -0.9958  0.9379
  807MOL0     H 8892   3.141   7.432   7.079  0.5887 -0.5280  0.3897
  807MOL0     H 8893   3.075   7.283   7.112 -0.3791  0.6758 -3.1033
  807MOL0     H 8894   2.946   7.555   7.063  1.0519  0.5839 -2.8142
  807MOL0     H 8895   2.843   7.409   7.096 -1.0641  2.4698 -1.1850
  807MOL0     H 8896   3.135   7.497   6.838  0.5598 -3.0254 -1.1511
  807MOL0     H 8897   2.962   7.568   6.510 -0.6177  1.0085 -0.2989
  807MOL0     H 8898   3.074   7.631   6.631  0.4563 -0.2055 -0.4091
  807MOL0     H 8899   3.195   7.399   6.624 -2.5426  0.0415  1.6010
  807MOL0     H 8900   3.228   7.515   6.488 -1.7399 -0.0970 -4.5552
  807MOL0     H 8901   3.080   7.396   6.357 -0.5742  1.9053  1.1784
  807MOL0     H 8902   3.042   7.270   6.471  0.0393  0.6068  2.1394
  807MOL0     H 8903   3.223   7.177   6.338  0.2172 -0.0638 -0.3654
  807MOL0     H 8904   3.290   7.211   6.492  0.4759  0.7629  0.4798
  807MOL0     H 8905   3.446   7.112   6.393 -2.1842  0.6778 -0.4305
  807MOL0     H 8906   3.757   7.017   6.399 -1.1461 -0.4582  1.5894
  807MOL0     H 8907   3.607   6.931   6.388  0.4349 -0.5901 -0.4175
  807MOL0     H 8908   3.713   6.924   6.251 -0.2830  0.2860 -0.4339
  807MOL0     H 8909   4.067   6.849   6.167 -0.1181  0.1260  1.1842
  807MOL0     H 8910   4.296   6.826   6.107 -0.7740  0.2050  2.1304
  807MOL0     H 8911   4.457   7.027   5.833  1.3534  0.6858 -0.0707
  807MOL0     H 8912   4.554   7.144   5.916  1.8816 -0.3158 -2.5241
  807MOL0     H 8913   4.704   6.945   5.981 -0.3208 -3.5925 -0.0646
  807MOL0     H 8914   4.610   6.855   5.866 -1.4732  0.6324  0.4932
  807MOL0     H 8915   4.798   6.921   5.753  0.5612  0.4305  1.9742
  807MOL0     H 8916   4.785   7.099   5.810  2.1247 -0.1234 -1.6562
  807MOL0     H 8917   4.736   7.003   5.556  0.6498 -2.6426  0.4315
  807MOL0     H 8918   4.572   6.979   5.620 -0.4962  1.3455  0.2543
  807MOL0     H 8919   4.605   7.238   5.690 -2.1688 -1.3511  0.6585
  807MOL0     H 8920   4.552   7.176   5.525  1.0396  1.2747 -0.9703
  807MOL0     H 8921   4.776   7.195   5.437 -0.6783 -1.6001  0.7730
  807MOL0     H 8922   4.699   7.341   5.494 -0.2323 -0.0110  1.1499
  807MOL0     H 8923   4.920   7.182   5.634 -2.3306 -1.6563 -1.3892
  807MOL0     H 8924   4.851   7.322   5.719  1.6932  0.2856 -0.9524
  807MOL0     H 8925   4.980   7.353   5.456  0.9456  0.5751  1.4301
  807MOL0     H 8926   5.057   7.369   5.611  0.3892 -2.6525  0.1362
  807MOL0     H 8927   4.327   7.232   6.005  0.0633 -1.1548 -2.7272
  807MOL0     H 8928   4.106   7.274   6.087 -0.4936 -0.5667  3.4605
  807MOL0     H 8929   3.690   7.365   6.043  2.8472 -3.8635 -1.7516
  807MOL0     H 8930   3.482   7.454   6.157  0.6485 -0.1751  1.5070
  807MOL0     H 8931   3.698   7.489   7.865  1.5695  0.1706  1.6625
  807MOL0     H 8932   3.946   7.491   7.888 -0.7081 -0.7914 -0.2665
  807MOL0     H 8933   4.367   7.509   7.680 -0.6725  2.0739 -0.4685
  807MOL0     H 8934   4.613   7.498   7.724  1.2919  1.5979  1.1101
  807MOL0     H 8935   4.909   7.487   7.959  0.6396  1.1517 -0.9510
  807MOL0     H 8936   4.782   7.426   7.872  0.2118 -0.0169 -0.9263
  807MOL0     H 8937   4.811   7.667   7.720 -0.9264 -1.0684  0.9364
  807MOL0     H 8938   4.912   7.522   7.700 -0.7070  0.0949 -2.1044
  807MOL0     H 8939   5.072   7.610   7.866  0.2604  0.2099  0.0965
  807MOL0     H 8940   4.971   7.751   7.893 -1.1052 -0.2149 -0.1731
  807MOL0     H 8941   5.153   7.795   7.755 -1.9834  2.7629  0.8337
  807MOL0     H 8942   5.003   7.826   7.659 -2.3336 -1.0622  1.4770
  807MOL0     H 8943   5.198   7.500   7.451  3.3482  1.1342  0.1375
  807MOL0     H 8944   4.549   7.736   8.079 -1.5486  0.5412 -0.4045
  807MOL0     H 8945   4.304   7.768   8.003  0.5445 -0.1191  0.9704
  808MOL0     O 8946   0.609   1.556   3.082  0.6424 -0.5865 -0.4363
  808MOL0     C 8947   0.681   1.570   3.188  0.6229  0.5933 -0.1791
  808MOL0     O 8948   0.636   1.582   3.318  0.5214  0.3904 -0.3649
  808MOL0     C 8949   0.507   1.539   3.348  0.4272  0.1864  0.3407
  808MOL0     C 8950   0.417   1.614   3.421 -0.7215 -0.4679  0.0523
  808MOL0     C 8951   0.284   1.566   3.431  0.1741 -0.1130  0.2205
  808MOL0     C 8952   0.237   1.448   3.372 -0.3736  0.6295  0.0630
  808MOL0     O 8953   0.105   1.421   3.360  0.5690 -0.7202  0.1225
  808MOL0     C 8954   0.024   1.456   3.472  0.6332  0.5840 -0.6452
  808MOL0     C 8955  -0.112   1.377   3.460 -0.5519  1.0525 -0.0021
  808MOL0     C 8956  -0.089   1.222   3.440 -0.4070  0.4329 -0.2392
  808MOL0     C 8957  -0.215   1.144   3.493 -0.2111 -1.7496 -0.5512
  808MOL0     C 8958  -0.284   1.076   3.378  0.7937 -0.0748  0.1433
  808MOL0     C 8959  -0.402   0.992   3.425 -1.2545  0.4555  0.5617
  808MOL0     C 8960  -0.500   0.949   3.311 -0.2998  0.7219  0.5873
  808MOL0     C 8961  -0.603   0.846   3.369 -0.7016  0.4381  0.0431
  808MOL0     N 8962  -0.731   0.856   3.306 -0.8471  0.8349  0.3699
  808MOL0     C 8963  -0.838   0.947   3.334 -0.2299  0.1453  0.2955
  808MOL0     C 8964  -0.930   0.935   3.238  0.6127  0.9657  0.0601
  808MOL0     C 8965  -1.057   1.017   3.207 -0.7796  0.1273  0.2113
  808MOL0     C 8966  -1.167   0.942   3.142  0.3932  0.1438 -0.6864
  808MOL0     C 8967  -1.273   1.040   3.082  0.6222  0.8330 -0.9889
  808MOL0     C 8968  -1.395   0.972   3.021  0.8677 -0.9777  0.2750
  808MOL0     O 8969  -1.489   1.081   2.986  0.7877  0.1896 -1.0513
  808MOL0     C 8970  -1.625   1.055   2.975 -0.9881  0.3426 -0.4919
  808MOL0     C 8971  -1.692   0.935   2.986 -0.3874 -0.5538  0.0236
  808MOL0     C 8972  -1.827   0.926   2.950  0.0322 -0.5489 -0.6541
  808MOL0     C 8973  -1.880   0.787   2.938  0.4573  0.3909 -0.7524
  808MOL0     C 8974  -1.907   1.041   2.929  0.1312 -0.0368  0.6046
  808MOL0     C 8975  -2.057   1.045   2.892 -0.4341  0.0579  0.2344
  808MOL0     O 8976  -2.132   0.931   2.898 -0.6126  0.2363  0.8331
  808MOL0     C 8977  -2.246   0.943   2.840  1.1286 -0.4954  0.3875
  808MOL0     C 8978  -2.353   1.000   2.909  0.0878 -0.0029  0.1719
  808MOL0     C 8979  -2.475   1.023   2.843 -0.1923 -0.3799 -0.3810
  808MOL0     C 8980  -2.491   0.987   2.705  0.3531 -0.1028 -0.4996
  808MOL0     O 8981  -2.611   1.016   2.652  0.2774  0.3320  0.0685
  808MOL0     C 8982  -2.634   0.991   2.511  0.2907 -0.3905 -0.8249
  808MOL0     C 8983  -2.770   1.050   2.484  0.7386 -0.6320  0.3330
  808MOL0     C 8984  -2.887   0.993   2.574  0.1655  0.1681  0.1634
  808MOL0     C 8985  -3.024   1.049   2.527 -0.1664 -0.4152 -0.5537
  808MOL0     C 8986  -3.131   1.015   2.629 -0.5276 -0.0772 -0.1500
  808MOL0     C 8987  -3.258   1.088   2.603  0.6076  0.5098  0.0245
  808MOL0     C 8988  -3.334   1.043   2.479  0.0153  0.3143 -0.6816
  808MOL0     C 8989  -3.473   1.092   2.469 -0.4128 -0.6600  0.4908
  808MOL0    Cl 8990  -3.556   1.032   2.612  0.1834 -0.2800  0.2490
  808MOL0     C 8991  -2.384   0.926   2.640  0.1286 -0.2191 -0.0155
  808MOL0     C 8992  -2.256   0.903   2.711  0.4124  0.0609 -0.4113
  808MOL0     O 8993  -2.102   1.155   2.863  0.0110 -0.2484 -0.1293
  808MOL0     C 8994  -1.842   1.162   2.936  0.7987 -0.2995 -0.1472
  808MOL0     C 8995  -1.702   1.165   2.942 -0.2886  0.5627  0.5167
  808MOL0     N 8996  -0.893   0.823   3.157 -0.0873 -0.2429  0.4362
  808MOL0     N 8997  -0.781   0.782   3.200 -0.7799 -0.8214 -0.2041
  808MOL0     C 8998   0.327   1.371   3.300 -0.1785 -0.4146  0.2417
  808MOL0     C 8999   0.465   1.416   3.290 -0.2436 -0.3362 -0.0017
  808MOL0     C 9000   0.830   1.582   3.161  0.3130  0.2321 -0.9859
  808MOL0     C 9001   0.906   1.654   3.251 -0.2505 -0.0670 -1.3216
  808MOL0     C 9002   1.043   1.683   3.232  0.3945  0.5294  0.6902
  808MOL0     C 9003   1.110   1.643   3.114 -0.0674 -0.3364  0.0024
  808MOL0     O 9004   1.244   1.666   3.092 -0.5518 -0.1912  0.4059
  808MOL0     C 9005   1.310   1.773   3.149 -0.2958  0.1685  0.2147
  808MOL0     C 9006   1.456   1.785   3.106  0.1477 -0.5091 -0.6784
  808MOL0     C 9007   1.513   1.897   3.200 -0.1794  0.6781  0.5662
  808MOL0     C 9008   1.662   1.938   3.180  0.8483  0.1898 -0.2728
  808MOL0     C 9009   1.703   2.038   3.278  0.2966 -0.1426  0.4619
  808MOL0     C 9010   1.741   2.084   3.384  0.4570 -0.0061 -0.5647
  808MOL0     C 9011   1.034   1.563   3.034 -0.6553  0.3508  0.5410
  808MOL0     C 9012   0.899   1.533   3.052  0.2889  0.1261 -0.0018
  808MOL0     H 9013   0.451   1.713   3.449 -0.6641 -0.6299  0.5535
  808MOL0     H 9014   0.216   1.639   3.473 -0.4777  0.0022 -0.9845
  808MOL0     H 9015   0.081   1.435   3.563 -1.4510 -0.4424  0.5095
  808MOL0     H 9016  -0.001   1.562   3.472  0.1314  0.4672 -0.5135
  808MOL0     H 9017  -0.157   1.397   3.558 -0.0868 -0.7127  0.6061
  808MOL0     H 9018  -0.173   1.426   3.385  1.7846  1.4174 -1.7810
  808MOL0     H 9019  -0.073   1.196   3.335  0.1251 -0.9726  0.1661
  808MOL0     H 9020   0.003   1.195   3.491  1.9481  1.4209 -3.6127
  808MOL0     H 9021  -0.168   1.080   3.567  0.1069 -0.3896  0.4531
  808MOL0     H 9022  -0.277   1.218   3.545  0.3855  1.0857 -3.4806
  808MOL0     H 9023  -0.319   1.145   3.301 -1.0025 -1.6614 -0.5415
  808MOL0     H 9024  -0.219   1.007   3.322  0.9527 -2.8845  3.4127
  808MOL0     H 9025  -0.365   0.903   3.477 -0.6133  0.4525  0.1170
  808MOL0     H 9026  -0.446   1.056   3.502 -1.0097  1.5700 -0.2024
  808MOL0     H 9027  -0.561   1.029   3.267  0.9087  0.1102 -2.4718
  808MOL0     H 9028  -0.446   0.903   3.228 -1.1323  0.5021  0.1566
  808MOL0     H 9029  -0.616   0.858   3.477  1.6211  2.0638  0.2039
  808MOL0     H 9030  -0.551   0.749   3.373 -0.0711  0.7087 -1.3041
  808MOL0     H 9031  -0.844   1.022   3.413  0.7635  3.8355 -2.8150
  808MOL0     H 9032  -1.085   1.063   3.302  0.9336  1.2723  0.2242
  808MOL0     H 9033  -1.022   1.103   3.148  2.0039 -1.0320 -0.0013
  808MOL0     H 9034  -1.212   0.865   3.206 -0.3614 -0.0543 -1.4401
  808MOL0     H 9035  -1.120   0.886   3.061  1.3219  1.3120 -0.9633
  808MOL0     H 9036  -1.236   1.119   3.016  1.9212  3.1275  2.2382
  808MOL0     H 9037  -1.313   1.084   3.173 -1.5497 -1.8889 -0.4769
  808MOL0     H 9038  -1.446   0.902   3.089  0.3951 -0.5722  0.3448
  808MOL0     H 9039  -1.366   0.918   2.930 -0.5953  0.3548 -1.0482
  808MOL0     H 9040  -1.640   0.843   3.011  0.8663 -0.2953 -1.4759
  808MOL0     H 9041  -1.934   0.778   2.843 -0.4665  2.6877 -0.5060
  808MOL0     H 9042  -1.805   0.707   2.938 -0.0681 -0.1564 -2.4170
  808MOL0     H 9043  -1.948   0.758   3.019  0.3132  0.6387 -0.7850
  808MOL0     H 9044  -2.330   1.007   3.015  0.1044  1.5446  0.0905
  808MOL0     H 9045  -2.553   1.076   2.897 -0.5616 -1.0596 -0.2457
  808MOL0     H 9046  -2.558   1.050   2.460  2.7739 -1.4892  1.3506
  808MOL0     H 9047  -2.630   0.883   2.494  2.6536 -0.8845  1.9519
  808MOL0     H 9048  -2.767   1.158   2.499 -2.5526 -0.3211 -0.4793
  808MOL0     H 9049  -2.776   1.020   2.379  0.5987 -3.2476  1.0043
  808MOL0     H 9050  -2.871   1.031   2.676  0.5930 -1.1062  0.5928
  808MOL0     H 9051  -2.898   0.885   2.568  0.0555  0.1496  0.6447
  808MOL0     H 9052  -3.007   1.157   2.521  2.3279 -0.6814  0.4748
  808MOL0     H 9053  -3.045   1.003   2.430  0.4175  0.4909 -1.1304
  808MOL0     H 9054  -3.097   1.059   2.723 -2.7188  1.6345 -0.0886
  808MOL0     H 9055  -3.136   0.905   2.632  2.3275 -0.2794 -0.3758
  808MOL0     H 9056  -3.321   1.085   2.693  1.0793 -0.4810  0.3430
  808MOL0     H 9057  -3.237   1.194   2.591  0.4459  0.4225 -1.1412
  808MOL0     H 9058  -3.342   0.934   2.472  0.3605  0.2201  0.2443
  808MOL0     H 9059  -3.283   1.070   2.386 -2.0779  0.6133 -1.8042
  808MOL0     H 9060  -3.518   1.044   2.382  0.6937  1.7897 -1.6068
  808MOL0     H 9061  -3.486   1.200   2.458 -1.4358 -0.7613  0.6191
  808MOL0     H 9062  -2.385   0.899   2.534 -0.4393  0.6591 -0.2444
  808MOL0     H 9063  -2.178   0.854   2.655 -2.2034 -0.6403 -3.8087
  808MOL0     H 9064  -1.897   1.254   2.916 -2.5515 -1.6864  1.7652
  808MOL0     H 9065  -1.658   1.264   2.937  1.5353 -0.1974  0.7169
  808MOL0     H 9066   0.296   1.283   3.244 -0.0744  0.7609 -1.7540
  808MOL0     H 9067   0.540   1.349   3.250 -1.3942 -3.1623  2.2066
  808MOL0     H 9068   0.860   1.701   3.338  2.1389  1.0374 -0.5715
  808MOL0     H 9069   1.086   1.750   3.305  2.0661  0.5574 -0.2575
  808MOL0     H 9070   1.256   1.865   3.124  0.9138  0.9478  0.3915
  808MOL0     H 9071   1.309   1.766   3.258 -0.9617 -1.6111  0.1215
  808MOL0     H 9072   1.471   1.805   2.999  0.1390 -0.9466 -0.7617
  808MOL0     H 9073   1.507   1.690   3.124 -0.1262 -0.3793  0.9156
  808MOL0     H 9074   1.489   1.869   3.303 -1.3130 -2.0044 -0.3332
  808MOL0     H 9075   1.449   1.982   3.172 -0.9027 -0.6443 -2.1061
  808MOL0     H 9076   1.678   1.980   3.080  1.0472 -2.4202 -1.4079
  808MOL0     H 9077   1.722   1.848   3.193  0.6132 -0.3245 -2.3641
  808MOL0     H 9078   1.759   2.112   3.486 -2.0279  1.0919 -0.3604
  808MOL0     H 9079   1.067   1.539   2.934 -2.5405 -0.7287  0.1337
  808MOL0     H 9080   0.842   1.459   2.997 -0.2888 -2.0293  3.2067
  809MOL0     O 9081   9.525   1.722   5.639  0.3275  0.3235 -0.0469
  809MOL0     C 9082   9.573   1.630   5.701  0.1961 -0.2343 -0.0657
  809MOL0     O 9083   9.501   1.521   5.750 -0.3619  0.5976 -0.0131
  809MOL0     C 9084   9.368   1.527   5.722  0.5248  0.9035  1.0594
  809MOL0     C 9085   9.320   1.519   5.594  0.1684  0.0734  0.8277
  809MOL0     C 9086   9.188   1.500   5.557  1.0493  0.4263  0.4620
  809MOL0     C 9087   9.094   1.490   5.659  0.1767 -0.0128 -0.0703
  809MOL0     O 9088   8.964   1.467   5.629  0.0145 -0.4904  0.4070
  809MOL0     C 9089   8.917   1.344   5.681  0.3390 -0.6238 -0.3242
  809MOL0     C 9090   8.777   1.333   5.637 -0.4440  0.6241  0.2738
  809MOL0     C 9091   8.687   1.424   5.716 -0.0803 -0.0223 -0.5333
  809MOL0     C 9092   8.553   1.428   5.643 -0.4909  0.1421  0.1971
  809MOL0     C 9093   8.437   1.508   5.706  0.1247  0.4366 -0.0302
  809MOL0     C 9094   8.461   1.655   5.701  0.3902  0.2359 -0.5858
  809MOL0     C 9095   8.384   1.744   5.797 -0.4866  0.3230 -0.2290
  809MOL0     C 9096   8.251   1.785   5.744 -0.4739 -0.1702  0.4190
  809MOL0     N 9097   8.147   1.693   5.787  0.0033  0.1102 -0.1902
  809MOL0     C 9098   8.085   1.588   5.719  0.0202 -1.0483 -0.1075
  809MOL0     C 9099   7.980   1.552   5.796  0.3777 -0.0898  0.1166
  809MOL0     C 9100   7.903   1.428   5.784 -0.4193  0.0735 -0.1864
  809MOL0     C 9101   7.760   1.471   5.788 -0.1400 -0.5792  0.1760
  809MOL0     C 9102   7.684   1.340   5.815  0.6149 -0.2293  0.0120
  809MOL0     C 9103   7.532   1.359   5.823  0.2319 -0.2574 -0.2771
  809MOL0     O 9104   7.478   1.360   5.691  0.8725 -0.2034 -0.0306
  809MOL0     C 9105   7.342   1.377   5.676 -0.2648 -0.6066  0.0082
  809MOL0     C 9106   7.253   1.386   5.784  0.0807 -1.5230 -0.1274
  809MOL0     C 9107   7.113   1.389   5.767 -0.1652  0.7815  0.6358
  809MOL0     C 9108   7.023   1.412   5.885 -0.7234  0.7677 -0.3923
  809MOL0     C 9109   7.059   1.361   5.632 -0.7639 -0.0321  0.0563
  809MOL0     C 9110   6.913   1.352   5.594  0.2089  0.3802  0.2587
  809MOL0     O 9111   6.898   1.328   5.464  0.0440 -0.0547  0.7204
  809MOL0     C 9112   6.777   1.313   5.404 -0.3300  0.6625  0.3852
  809MOL0     C 9113   6.739   1.399   5.307 -0.8397 -0.3898 -0.0455
  809MOL0     C 9114   6.613   1.385   5.251  0.3792  0.7064 -0.2020
  809MOL0     C 9115   6.524   1.287   5.290 -0.7375  0.2120 -0.1257
  809MOL0     O 9116   6.400   1.295   5.247  0.0142 -0.6323  0.0796
  809MOL0     C 9117   6.291   1.207   5.287 -0.1515  0.1235  0.3414
  809MOL0     C 9118   6.156   1.254   5.240  0.1106 -0.5761  0.0183
  809MOL0     C 9119   6.046   1.157   5.305 -0.6048  0.1129 -0.1036
  809MOL0     C 9120   5.906   1.216   5.290  0.0498 -0.2425 -0.2937
  809MOL0     C 9121   5.797   1.113   5.338 -0.1224 -0.2717 -0.4693
  809MOL0     C 9122   5.656   1.162   5.283  0.0653 -0.0477  0.0096
  809MOL0     C 9123   5.553   1.071   5.345  0.0003 -0.8602  0.2869
  809MOL0     C 9124   5.410   1.104   5.300 -0.5592  0.3222  0.0734
  809MOL0    Cl 9125   5.371   1.280   5.318  0.3218 -0.1055  0.3226
  809MOL0     C 9126   6.567   1.183   5.385 -0.9419 -0.0695  0.3241
  809MOL0     C 9127   6.695   1.202   5.442 -0.2859  0.2940 -0.6335
  809MOL0     O 9128   6.822   1.353   5.674 -0.2533  0.1965 -0.6434
  809MOL0     C 9129   7.154   1.353   5.525  0.1032 -0.0140 -0.5287
  809MOL0     C 9130   7.291   1.369   5.550  0.0767 -0.2774  0.9603
  809MOL0     N 9131   7.974   1.639   5.907  0.3247 -1.0189  0.6157
  809MOL0     N 9132   8.072   1.724   5.896  0.0210  0.4154  0.2764
  809MOL0     C 9133   9.143   1.505   5.792  0.2901  0.0218 -0.2953
  809MOL0     C 9134   9.280   1.519   5.823  0.0622  0.8502 -0.2883
  809MOL0     C 9135   9.721   1.639   5.726  0.8098  1.3884  0.0184
  809MOL0     C 9136   9.803   1.735   5.660  0.9769  0.0879  0.1103
  809MOL0     C 9137   9.939   1.738   5.660 -0.5041 -0.0991 -0.7539
  809MOL0     C 9138  10.010   1.645   5.733 -0.5968  0.2636  0.7314
  809MOL0     O 9139  10.144   1.647   5.720  0.4041 -0.4144 -0.0542
  809MOL0     C 9140  10.234   1.558   5.786 -0.4472 -0.5649 -0.4955
  809MOL0     C 9141  10.385   1.611   5.761  0.9676 -0.4918 -0.3766
  809MOL0     C 9142  10.387   1.767   5.759  0.2545 -0.1702 -0.1092
  809MOL0     C 9143  10.540   1.806   5.755  0.4337 -0.2411 -0.4909
  809MOL0     C 9144  10.618   1.754   5.641 -1.0117 -0.0757 -0.0934
  809MOL0     C 9145  10.674   1.722   5.538 -0.1482 -0.4205  0.4262
  809MOL0     C 9146   9.937   1.552   5.817 -0.1233  0.4596  0.9963
  809MOL0     C 9147   9.789   1.545   5.808 -0.8648 -0.5582  0.6675
  809MOL0     H 9148   9.394   1.511   5.515 -2.7116  2.0140 -2.3673
  809MOL0     H 9149   9.166   1.490   5.451 -1.4170  0.6939  0.8956
  809MOL0     H 9150   8.975   1.263   5.635 -0.7270 -2.0661  0.7971
  809MOL0     H 9151   8.919   1.336   5.790  1.4725  2.8736  0.0445
  809MOL0     H 9152   8.765   1.365   5.533 -2.9294  0.5490  0.4703
  809MOL0     H 9153   8.745   1.228   5.643 -1.1432  0.7929 -0.3538
  809MOL0     H 9154   8.674   1.374   5.812 -1.1823  2.2920  0.6088
  809MOL0     H 9155   8.728   1.522   5.742  1.7913 -1.4156  2.3342
  809MOL0     H 9156   8.566   1.474   5.545  0.5740  1.0083  0.7144
  809MOL0     H 9157   8.522   1.324   5.631  0.1063 -0.1831  1.2838
  809MOL0     H 9158   8.344   1.472   5.660  1.5370 -0.6249 -2.2342
  809MOL0     H 9159   8.420   1.491   5.813 -0.2576  2.9984  0.3653
  809MOL0     H 9160   8.563   1.675   5.734  0.4335  1.2343 -1.2765
  809MOL0     H 9161   8.447   1.695   5.600 -0.9343 -0.9689 -0.9170
  809MOL0     H 9162   8.368   1.691   5.891  0.5610  0.5256  0.0765
  809MOL0     H 9163   8.443   1.835   5.813 -1.8158  1.1797 -0.0228
  809MOL0     H 9164   8.244   1.798   5.636 -2.0395  3.6209  0.7847
  809MOL0     H 9165   8.227   1.887   5.778 -0.0078 -1.0398  3.7365
  809MOL0     H 9166   8.109   1.530   5.631  2.9994 -0.4703  0.2202
  809MOL0     H 9167   7.928   1.371   5.694  0.0523 -0.6569  0.4004
  809MOL0     H 9168   7.930   1.364   5.869 -2.0083 -0.9190 -0.3925
  809MOL0     H 9169   7.738   1.523   5.694 -0.7462 -1.4770 -0.1888
  809MOL0     H 9170   7.737   1.544   5.866 -0.9893  0.8466 -1.3302
  809MOL0     H 9171   7.708   1.310   5.917  1.3154 -0.8090 -0.3101
  809MOL0     H 9172   7.714   1.262   5.744  2.7699 -1.1002  1.7537
  809MOL0     H 9173   7.525   1.457   5.871  0.6609 -1.1789  1.7826
  809MOL0     H 9174   7.497   1.277   5.886  2.2148 -1.6257 -0.8625
  809MOL0     H 9175   7.285   1.395   5.887 -3.0093  2.5652  0.7465
  809MOL0     H 9176   7.072   1.429   5.982 -1.4267 -2.2032  0.5944
  809MOL0     H 9177   6.943   1.487   5.885 -2.1006 -0.5906  1.3552
  809MOL0     H 9178   6.965   1.320   5.899 -0.4879  0.5815 -0.6407
  809MOL0     H 9179   6.795   1.489   5.286 -1.4283  0.3594  1.4406
  809MOL0     H 9180   6.589   1.465   5.182  0.6686  1.3213  0.3988
  809MOL0     H 9181   6.304   1.106   5.246  3.7926  1.1589 -1.4805
  809MOL0     H 9182   6.300   1.199   5.396  1.5440 -2.3351  0.1041
  809MOL0     H 9183   6.135   1.352   5.285 -2.2662 -1.7623  1.7867
  809MOL0     H 9184   6.136   1.257   5.133 -0.6801  1.8181  0.1685
  809MOL0     H 9185   6.072   1.147   5.411 -1.8672 -0.1822  0.1979
  809MOL0     H 9186   6.045   1.061   5.254 -2.4062 -0.6185  1.1951
  809MOL0     H 9187   5.890   1.299   5.360 -2.6328 -1.9318  1.2668
  809MOL0     H 9188   5.877   1.252   5.191 -3.5335  3.4718  1.7442
  809MOL0     H 9189   5.800   1.107   5.447 -2.2249 -0.1170 -0.3455
  809MOL0     H 9190   5.821   1.015   5.297 -1.0624 -0.6744 -0.0754
  809MOL0     H 9191   5.649   1.269   5.307  0.4062  0.6336 -2.6402
  809MOL0     H 9192   5.647   1.151   5.175 -1.7503  0.9495  0.0287
  809MOL0     H 9193   5.548   1.083   5.454 -0.2686 -1.2031  0.3121
  809MOL0     H 9194   5.582   0.969   5.320  1.7578  0.3799 -3.5815
  809MOL0     H 9195   5.348   1.036   5.359  1.4011 -3.2158 -1.6505
  809MOL0     H 9196   5.394   1.063   5.200  0.7446 -0.4123  0.1494
  809MOL0     H 9197   6.502   1.109   5.430 -0.9155  0.0467  0.5544
  809MOL0     H 9198   6.735   1.134   5.517 -1.8248 -2.1767 -1.9075
  809MOL0     H 9199   7.126   1.333   5.422  3.8281 -0.6954 -1.5707
  809MOL0     H 9200   7.358   1.358   5.466 -0.2244  1.2891  0.4827
  809MOL0     H 9201   9.070   1.500   5.872  1.1801  1.2925  0.6543
  809MOL0     H 9202   9.320   1.501   5.923  0.2647 -0.6452 -0.6112
  809MOL0     H 9203   9.749   1.800   5.592  1.2547 -0.4766 -0.6758
  809MOL0     H 9204   9.994   1.817   5.608 -3.1083  1.0521 -1.9405
  809MOL0     H 9205  10.212   1.557   5.894 -0.6968  1.3606 -0.4877
  809MOL0     H 9206  10.229   1.459   5.741  2.8358 -1.4820  0.8889
  809MOL0     H 9207  10.415   1.569   5.665  0.3533 -0.3887 -0.6228
  809MOL0     H 9208  10.459   1.574   5.832  0.5078  2.3946  1.7903
  809MOL0     H 9209  10.346   1.808   5.852  0.5934 -0.1172  0.0204
  809MOL0     H 9210  10.340   1.817   5.674  2.2410  1.6337 -0.2386
  809MOL0     H 9211  10.583   1.756   5.843 -0.7925  1.1127  0.9479
  809MOL0     H 9212  10.549   1.915   5.769 -2.3793 -0.1181  0.9606
  809MOL0     H 9213  10.730   1.693   5.451  0.6888  1.0047  0.4511
  809MOL0     H 9214   9.996   1.483   5.876 -0.0948 -2.0981 -1.7960
  809MOL0     H 9215   9.739   1.469   5.867 -0.9029 -1.5580 -0.6161
  810MOL0     O 9216   0.608   2.854   8.089  0.2720  0.1485  0.3678
  810MOL0     C 9217   0.663   2.956   8.052 -0.0482  0.8107 -0.1805
  810MOL0     O 9218   0.613   3.043   7.961  0.6794 -0.1747  0.0922
  810MOL0     C 9219   0.504   3.002   7.886 -0.5308  0.4361  0.1550
  810MOL0     C 9220   0.380   2.995   7.948  0.9411 -0.2045  0.3129
  810MOL0     C 9221   0.267   2.963   7.868 -0.3153 -0.0878 -0.4243
  810MOL0     C 9222   0.281   2.935   7.736  0.5844  0.6449 -0.0840
  810MOL0     O 9223   0.169   2.904   7.663 -0.2192  0.4059 -0.1136
  810MOL0     C 9224   0.034   2.888   7.725  0.0732 -0.4581  0.4523
  810MOL0     C 9225  -0.071   2.866   7.620  0.0051 -0.1574  0.1152
  810MOL0     C 9226  -0.010   2.786   7.496 -0.0905 -0.5758 -0.8548
  810MOL0     C 9227  -0.128   2.762   7.397 -0.1392  0.1472 -1.0958
  810MOL0     C 9228  -0.069   2.703   7.274  0.1388  0.4879 -0.9179
  810MOL0     C 9229  -0.188   2.645   7.193  0.3262 -0.3459 -0.1858
  810MOL0     C 9230  -0.144   2.608   7.053  0.0991  0.7094 -0.5055
  810MOL0     C 9231  -0.201   2.697   6.944 -0.1543  0.1004  0.0788
  810MOL0     N 9232  -0.346   2.666   6.922 -0.4152  0.4335 -0.0120
  810MOL0     C 9233  -0.441   2.763   6.949 -0.5840 -0.4315  0.2124
  810MOL0     C 9234  -0.549   2.731   6.872 -0.2564  0.5065  0.1425
  810MOL0     C 9235  -0.679   2.811   6.852 -0.4604  0.6041  0.0806
  810MOL0     C 9236  -0.802   2.743   6.900  0.6768 -0.6760 -0.2464
  810MOL0     C 9237  -0.929   2.814   6.848 -0.2636 -0.6340 -0.1773
  810MOL0     C 9238  -1.048   2.737   6.867  0.1712 -0.2576 -0.4547
  810MOL0     O 9239  -1.165   2.821   6.846 -0.0097 -0.5313  0.4842
  810MOL0     C 9240  -1.225   2.886   6.959  0.4557 -0.5330 -0.0672
  810MOL0     C 9241  -1.195   2.873   7.096 -0.2970  0.0825 -0.7765
  810MOL0     C 9242  -1.253   2.936   7.199  0.3896 -0.7483  0.1826
  810MOL0     C 9243  -1.209   2.918   7.347  0.2544 -0.0469 -0.2172
  810MOL0     C 9244  -1.362   3.024   7.162  0.6761 -0.4659 -0.4450
  810MOL0     C 9245  -1.456   3.082   7.264 -0.7168  0.1968 -0.0701
  810MOL0     O 9246  -1.554   3.153   7.211 -0.2419 -0.2592  0.4913
  810MOL0     C 9247  -1.654   3.203   7.287 -0.5184 -0.6254  0.5185
  810MOL0     C 9248  -1.737   3.120   7.368 -0.0430  0.0177  0.6013
  810MOL0     C 9249  -1.858   3.164   7.419  0.0163  0.1172 -0.3940
  810MOL0     C 9250  -1.895   3.293   7.408  0.3563 -0.8177  0.4813
  810MOL0     O 9251  -2.012   3.343   7.463  0.3600 -0.7279  0.1278
  810MOL0     C 9252  -2.138   3.293   7.408  0.2804 -0.3033  0.2916
  810MOL0     C 9253  -2.271   3.350   7.480 -0.4449  0.3757  0.0205
  810MOL0     C 9254  -2.279   3.508   7.467  0.5322  0.3820  0.2592
  810MOL0     C 9255  -2.419   3.563   7.436 -0.1653 -0.4340  0.2431
  810MOL0     C 9256  -2.461   3.525   7.291  0.3199 -1.0533  0.7347
  810MOL0     C 9257  -2.599   3.588   7.266  0.1754  0.0243  0.6810
  810MOL0     C 9258  -2.718   3.496   7.309 -0.1203 -0.5023 -0.1109
  810MOL0     C 9259  -2.849   3.569   7.329  0.8262  0.1160 -0.5804
  810MOL0    Cl 9260  -2.892   3.574   7.509  0.1220  0.0758  0.0675
  810MOL0     C 9261  -1.813   3.383   7.346 -0.7663  0.0387  0.6237
  810MOL0     C 9262  -1.696   3.341   7.278 -0.6939 -0.0408  0.2527
  810MOL0     O 9263  -1.458   3.041   7.378  0.8039 -0.0179  0.1453
  810MOL0     C 9264  -1.391   3.043   7.026  0.0386 -0.2437 -0.4498
  810MOL0     C 9265  -1.327   2.973   6.928 -0.4876  0.4785 -0.8439
  810MOL0     N 9266  -0.513   2.616   6.795 -0.1420  0.3699  0.4367
  810MOL0     N 9267  -0.395   2.578   6.823 -0.5105 -0.6070 -0.0343
  810MOL0     C 9268   0.400   2.924   7.677 -0.1018 -0.2469 -0.6102
  810MOL0     C 9269   0.511   2.970   7.752 -0.3492  1.1066  0.4865
  810MOL0     C 9270   0.795   2.974   8.113 -1.1722  0.0706  0.2545
  810MOL0     C 9271   0.863   2.875   8.193 -0.0769 -0.0804 -0.2598
  810MOL0     C 9272   0.990   2.898   8.247 -0.4551 -0.0834 -0.0284
  810MOL0     C 9273   1.043   3.031   8.242  0.2829  0.1542  0.3691
  810MOL0     O 9274   1.169   3.066   8.287 -0.0487  0.3327 -0.3900
  810MOL0     C 9275   1.265   2.969   8.333  0.6351 -0.6746 -0.2479
  810MOL0     C 9276   1.323   2.883   8.230  0.2115 -1.2428 -0.1220
  810MOL0     C 9277   1.356   2.955   8.096  0.2427 -0.4819  0.9445
  810MOL0     C 9278   1.465   3.060   8.101 -0.3465  0.4361 -0.1054
  810MOL0     C 9279   1.595   3.017   8.167  0.1537 -0.1505 -0.1338
  810MOL0     C 9280   1.700   2.975   8.213 -0.2080 -0.1678 -0.5613
  810MOL0     C 9281   0.974   3.122   8.168  0.0644 -0.0220 -0.0964
  810MOL0     C 9282   0.854   3.098   8.104  0.0909 -1.3615 -0.7713
  810MOL0     H 9283   0.376   3.025   8.052  3.1655  0.2076  0.3349
  810MOL0     H 9284   0.176   2.961   7.926  0.4688 -1.6555  0.8070
  810MOL0     H 9285   0.027   2.806   7.797  0.4622 -2.2321 -1.4515
  810MOL0     H 9286  -0.002   2.970   7.788 -0.7006 -0.6483  0.2701
  810MOL0     H 9287  -0.153   2.815   7.672  0.2158  1.2615  1.9297
  810MOL0     H 9288  -0.097   2.963   7.577  2.2331 -0.7949 -2.9741
  810MOL0     H 9289   0.072   2.842   7.450 -1.1560 -1.1573 -3.7215
  810MOL0     H 9290   0.023   2.686   7.527 -0.2579 -0.6889 -1.0321
  810MOL0     H 9291  -0.180   2.685   7.455  0.1698  2.2472  2.1635
  810MOL0     H 9292  -0.179   2.856   7.373  1.6800  0.8266 -2.5404
  810MOL0     H 9293  -0.011   2.780   7.222  2.2078 -0.6557 -0.4084
  810MOL0     H 9294  -0.000   2.620   7.292 -1.3741 -0.2089  2.2688
  810MOL0     H 9295  -0.225   2.558   7.248  1.2411 -0.2870  0.5571
  810MOL0     H 9296  -0.258   2.728   7.195 -0.0689 -0.6827  0.7329
  810MOL0     H 9297  -0.037   2.611   7.030  0.1368 -1.5814 -0.9074
  810MOL0     H 9298  -0.170   2.505   7.028 -0.9602  1.4232 -2.5811
  810MOL0     H 9299  -0.152   2.688   6.846  1.9186  0.3623  1.0417
  810MOL0     H 9300  -0.191   2.804   6.965  0.5368  0.4802 -1.9442
  810MOL0     H 9301  -0.431   2.847   7.018  2.1921 -0.4531 -0.0605
  810MOL0     H 9302  -0.668   2.907   6.903  0.2199  0.4746  0.1946
  810MOL0     H 9303  -0.681   2.837   6.746  0.7683 -0.1669 -0.1583
  810MOL0     H 9304  -0.802   2.751   7.009 -0.6829  0.5425 -0.2985
  810MOL0     H 9305  -0.805   2.638   6.867 -2.5250 -0.7809  0.0084
  810MOL0     H 9306  -0.904   2.831   6.742 -0.0001 -1.4117 -0.2476
  810MOL0     H 9307  -0.936   2.904   6.909  1.0094  0.3337 -1.3860
  810MOL0     H 9308  -1.051   2.685   6.964 -2.9386  2.9920  1.4429
  810MOL0     H 9309  -1.055   2.661   6.789  0.8713 -1.1757  0.3481
  810MOL0     H 9310  -1.107   2.818   7.126 -0.8184  1.2060  3.4983
  810MOL0     H 9311  -1.267   2.844   7.403  1.3191 -0.0967  0.8415
  810MOL0     H 9312  -1.107   2.881   7.336 -0.7353 -2.7059 -1.3508
  810MOL0     H 9313  -1.193   3.007   7.408  3.0794 -0.0986 -0.7736
  810MOL0     H 9314  -1.717   3.013   7.365  2.9312  0.5065 -0.2479
  810MOL0     H 9315  -1.939   3.108   7.464  0.2587 -0.7336 -0.9909
  810MOL0     H 9316  -2.141   3.312   7.300  2.0240  0.2533  0.3084
  810MOL0     H 9317  -2.143   3.186   7.430  0.0017 -0.2892  0.2952
  810MOL0     H 9318  -2.357   3.300   7.435  0.0009 -2.8025  2.3098
  810MOL0     H 9319  -2.277   3.312   7.583 -2.1858 -0.4435 -0.3381
  810MOL0     H 9320  -2.209   3.546   7.391 -2.0322  3.0442 -0.9573
  810MOL0     H 9321  -2.245   3.544   7.565 -0.5866  0.7513  0.5199
  810MOL0     H 9322  -2.494   3.529   7.507  0.6612 -1.8298  0.4866
  810MOL0     H 9323  -2.405   3.672   7.432  1.0625 -0.5717  0.2438
  810MOL0     H 9324  -2.452   3.419   7.267  0.9727 -0.9061  0.3082
  810MOL0     H 9325  -2.390   3.580   7.229 -0.5621 -1.5966 -0.8026
  810MOL0     H 9326  -2.608   3.685   7.315 -0.6320  0.3473 -0.0752
  810MOL0     H 9327  -2.615   3.594   7.158 -0.1342  1.0206  0.7715
  810MOL0     H 9328  -2.683   3.443   7.398 -0.4304  0.2287  0.4609
  810MOL0     H 9329  -2.736   3.415   7.238  1.5804 -2.5308  1.6309
  810MOL0     H 9330  -2.933   3.517   7.282 -0.3768  1.7950 -0.3996
  810MOL0     H 9331  -2.855   3.672   7.291  0.6167  0.0735 -0.6650
  810MOL0     H 9332  -1.837   3.489   7.338 -0.8553 -0.0872 -0.9706
  810MOL0     H 9333  -1.638   3.403   7.211  0.3681 -0.7742  0.4768
  810MOL0     H 9334  -1.463   3.114   6.986  0.6487 -0.2501 -1.6072
  810MOL0     H 9335  -1.355   2.973   6.823 -1.3710  0.0420 -0.6178
  810MOL0     H 9336   0.415   2.900   7.572  0.7981  1.4557 -0.8970
  810MOL0     H 9337   0.607   2.970   7.702  0.5787 -0.2918  2.1805
  810MOL0     H 9338   0.815   2.778   8.203 -0.6082  0.1957 -0.1328
  810MOL0     H 9339   1.038   2.817   8.300 -0.3294 -1.4918 -2.1767
  810MOL0     H 9340   1.339   3.016   8.399 -0.0573 -0.8675  0.6875
  810MOL0     H 9341   1.212   2.905   8.404 -0.9482  0.8182 -0.0234
  810MOL0     H 9342   1.261   2.797   8.206 -0.2385 -0.4171 -2.0561
  810MOL0     H 9343   1.418   2.849   8.273  0.9913  0.3861 -0.4559
  810MOL0     H 9344   1.269   3.005   8.054  1.0345 -0.8730 -1.2865
  810MOL0     H 9345   1.392   2.873   8.032  3.1788  0.4050  1.2804
  810MOL0     H 9346   1.422   3.141   8.160 -0.3510  1.0332 -0.9067
  810MOL0     H 9347   1.486   3.098   8.000 -2.4341  0.2622 -0.6556
  810MOL0     H 9348   1.784   2.926   8.258 -0.3420 -0.8589 -1.0343
  810MOL0     H 9349   1.013   3.223   8.161 -2.7672  1.1309 -1.0393
  810MOL0     H 9350   0.802   3.177   8.051  0.1151 -2.0417 -1.8419
  811MOL0     O 9351   4.019   3.305   9.128  0.2398  0.3391 -0.6371
  811MOL0     C 9352   4.019   3.370   9.234 -0.8156  0.1708 -0.4830
  811MOL0     O 9353   3.943   3.473   9.259  0.4142  0.4322 -0.1380
  811MOL0     C 9354   3.851   3.529   9.172 -0.3367 -1.1223 -0.7813
  811MOL0     C 9355   3.812   3.472   9.056 -0.4148  0.5769  0.9422
  811MOL0     C 9356   3.719   3.537   8.970  0.1981  0.1436  0.2062
  811MOL0     C 9357   3.664   3.659   9.004 -0.3954 -0.0734  0.0915
  811MOL0     O 9358   3.586   3.722   8.913  0.4359  0.2074  0.2108
  811MOL0     C 9359   3.546   3.863   8.919  0.1204  0.1481 -0.3715
  811MOL0     C 9360   3.431   3.878   8.820 -1.5552 -0.0103  0.6319
  811MOL0     C 9361   3.305   3.821   8.877  0.1511 -0.0796  0.5041
  811MOL0     C 9362   3.183   3.891   8.808  0.1441  0.8539 -0.2587
  811MOL0     C 9363   3.054   3.831   8.869  0.6002  0.4611  0.2112
  811MOL0     C 9364   3.024   3.690   8.809  0.1965 -0.2275 -0.1004
  811MOL0     C 9365   2.882   3.640   8.847  0.4396  0.0701 -0.0156
  811MOL0     C 9366   2.846   3.643   8.992  0.0355  0.4737  0.1976
  811MOL0     N 9367   2.715   3.596   9.012 -0.2582  0.2344  0.0424
  811MOL0     C 9368   2.662   3.488   8.948 -1.1487 -0.1599  0.1021
  811MOL0     C 9369   2.543   3.476   9.002  0.9010  0.7513  0.0782
  811MOL0     C 9370   2.452   3.361   8.961 -0.0882 -0.4412  0.2070
  811MOL0     C 9371   2.295   3.389   8.972 -0.4468 -0.2608  0.6731
  811MOL0     C 9372   2.216   3.256   8.941 -0.5193  0.1241 -0.2189
  811MOL0     C 9373   2.075   3.284   8.983  0.4972  0.8819 -0.0799
  811MOL0     O 9374   2.021   3.152   9.002  0.1694 -0.5930 -0.2193
  811MOL0     C 9375   1.919   3.122   9.084 -0.4598 -0.1779 -0.7111
  811MOL0     C 9376   1.884   2.989   9.086  0.9069  0.5597 -0.3453
  811MOL0     C 9377   1.787   2.946   9.175  0.6050 -0.4032 -0.3833
  811MOL0     C 9378   1.754   2.804   9.182 -0.2804  0.1982  0.5072
  811MOL0     C 9379   1.719   3.033   9.261  0.0884  0.1053 -0.3046
  811MOL0     C 9380   1.623   2.989   9.357 -0.6183  0.1983  0.0243
  811MOL0     O 9381   1.652   2.884   9.439 -1.0893  0.5279  0.5471
  811MOL0     C 9382   1.555   2.842   9.531 -0.3322  0.2330  0.4935
  811MOL0     C 9383   1.516   2.705   9.530  0.5354  0.0934  0.2114
  811MOL0     C 9384   1.428   2.654   9.627  0.1132  0.2523  0.9403
  811MOL0     C 9385   1.386   2.736   9.732  0.1048  0.1164  0.1670
  811MOL0     O 9386   1.303   2.697   9.838  0.4919  0.4791 -0.2619
  811MOL0     C 9387   1.337   2.569   9.905  0.8842 -0.0624 -0.5569
  811MOL0     C 9388   1.335   2.596  10.057  0.2984  0.2947  0.0880
  811MOL0     C 9389   1.202   2.639  10.116  0.6192  0.6167  0.7308
  811MOL0     C 9390   1.231   2.701  10.254 -0.0932 -0.0076 -0.2422
  811MOL0     C 9391   1.123   2.786  10.305 -0.6492  0.3086  0.0417
  811MOL0     C 9392   0.988   2.721  10.334 -0.2250 -0.1545 -0.3861
  811MOL0     C 9393   0.892   2.808  10.426 -0.5074 -0.2082  0.5962
  811MOL0     C 9394   0.858   2.950  10.366 -0.9335 -0.5152 -0.4513
  811MOL0    Cl 9395   0.759   3.021  10.484  0.0553  0.4350  0.4081
  811MOL0     C 9396   1.432   2.879   9.735 -0.9760  0.0404 -0.2742
  811MOL0     C 9397   1.517   2.921   9.637 -0.2574 -0.3214 -0.1600
  811MOL0     O 9398   1.522   3.058   9.359 -0.1211 -0.0510  0.3333
  811MOL0     C 9399   1.744   3.170   9.246  0.7912  0.0426 -0.2670
  811MOL0     C 9400   1.845   3.213   9.156  0.8537 -0.4061 -0.0567
  811MOL0     N 9401   2.516   3.573   9.089  0.9859 -0.0432 -0.1370
  811MOL0     N 9402   2.625   3.637   9.103 -0.3466  0.3743 -0.7778
  811MOL0     C 9403   3.691   3.711   9.128  0.3551  0.0187 -0.3426
  811MOL0     C 9404   3.778   3.649   9.214 -0.0312 -0.2579  0.1876
  811MOL0     C 9405   4.112   3.317   9.341 -0.6170 -0.8518 -0.1813
  811MOL0     C 9406   4.217   3.222   9.309  0.3099 -0.4154 -0.8078
  811MOL0     C 9407   4.303   3.175   9.410  0.6121 -0.3466 -0.5236
  811MOL0     C 9408   4.281   3.208   9.541 -0.6436 -0.4515 -0.6146
  811MOL0     O 9409   4.351   3.139   9.639 -0.1465 -0.0153  0.0142
  811MOL0     C 9410   4.346   3.176   9.780 -0.3930 -0.4036  0.5668
  811MOL0     C 9411   4.424   3.067   9.853 -0.2607 -0.2269 -0.1443
  811MOL0     C 9412   4.577   3.094   9.843 -0.6701 -0.6745  0.5765
  811MOL0     C 9413   4.657   2.984   9.897  0.4573  0.0296  0.1464
  811MOL0     C 9414   4.799   3.001   9.867  1.5366 -0.4775 -0.0582
  811MOL0     C 9415   4.918   2.999   9.845  0.6363  0.0565  0.3926
  811MOL0     C 9416   4.188   3.307   9.568  0.4800  0.5425  0.1118
  811MOL0     C 9417   4.102   3.360   9.471  0.6877  0.5530 -0.2152
  811MOL0     H 9418   3.836   3.375   9.013 -3.8484  0.6880 -1.5994
  811MOL0     H 9419   3.679   3.493   8.879  3.4382 -0.8037 -0.8928
  811MOL0     H 9420   3.515   3.886   9.021 -2.5976 -0.6560 -0.9330
  811MOL0     H 9421   3.624   3.937   8.897  0.3370  0.8511  2.3619
  811MOL0     H 9422   3.416   3.986   8.811  0.0046  0.1589 -0.1467
  811MOL0     H 9423   3.456   3.838   8.722  0.5095  1.8944  0.2910
  811MOL0     H 9424   3.300   3.714   8.854  1.7891 -0.7076  2.7866
  811MOL0     H 9425   3.290   3.833   8.984 -3.0744  1.5623 -0.0150
  811MOL0     H 9426   3.191   3.996   8.837 -1.4261  1.1370 -0.7610
  811MOL0     H 9427   3.181   3.894   8.698  1.1272  1.6051 -0.2686
  811MOL0     H 9428   3.058   3.833   8.979 -1.1211  1.5773  0.2889
  811MOL0     H 9429   2.972   3.894   8.836  0.6443  0.9733  1.0345
  811MOL0     H 9430   3.049   3.681   8.703  0.7487 -1.8241  0.1491
  811MOL0     H 9431   3.097   3.631   8.865  0.5589  1.8102  1.7440
  811MOL0     H 9432   2.808   3.696   8.790  0.1777  1.1754  1.3716
  811MOL0     H 9433   2.894   3.538   8.810  0.1996  0.5043 -1.3228
  811MOL0     H 9434   2.841   3.748   9.023  0.8511  0.7025 -0.4100
  811MOL0     H 9435   2.925   3.601   9.055 -0.4402 -2.0357 -0.7736
  811MOL0     H 9436   2.712   3.426   8.875 -1.0525 -1.8841  1.5597
  811MOL0     H 9437   2.473   3.338   8.856  0.2535  0.9652 -0.0451
  811MOL0     H 9438   2.500   3.279   9.015  0.3178 -0.0673  0.4160
  811MOL0     H 9439   2.266   3.464   8.898 -1.4618 -0.5033  0.8207
  811MOL0     H 9440   2.275   3.435   9.069 -0.9205  1.5773 -0.2647
  811MOL0     H 9441   2.258   3.174   9.000 -0.6480 -1.3165 -2.0248
  811MOL0     H 9442   2.214   3.221   8.837  0.9917  1.9087 -0.9097
  811MOL0     H 9443   2.015   3.333   8.906 -0.4339  1.3474  0.9157
  811MOL0     H 9444   2.071   3.348   9.071 -1.4631  0.4032  0.2249
  811MOL0     H 9445   1.945   2.920   9.027 -0.2964 -1.7505  0.9595
  811MOL0     H 9446   1.799   2.763   9.273 -1.4413  1.9416  1.9385
  811MOL0     H 9447   1.646   2.786   9.188 -0.3878  0.2099 -1.0035
  811MOL0     H 9448   1.784   2.752   9.090  1.2965 -0.0416  1.1202
  811MOL0     H 9449   1.568   2.651   9.452 -2.8819  0.9350 -2.9835
  811MOL0     H 9450   1.407   2.548   9.614 -1.6253  0.6074  0.7049
  811MOL0     H 9451   1.261   2.493   9.882  0.3881  0.8140 -1.9101
  811MOL0     H 9452   1.434   2.534   9.870  1.2124  0.8265 -0.5638
  811MOL0     H 9453   1.373   2.507  10.107 -1.2422  0.5136  1.7317
  811MOL0     H 9454   1.404   2.680  10.073  2.5150 -1.6260  1.1769
  811MOL0     H 9455   1.145   2.547  10.128 -1.2732  1.0759 -3.1363
  811MOL0     H 9456   1.139   2.702  10.053 -1.5987 -2.0046  0.1357
  811MOL0     H 9457   1.261   2.621  10.324  2.6931  0.3587 -0.8823
  811MOL0     H 9458   1.322   2.762  10.248 -0.5812  0.5766 -4.2004
  811MOL0     H 9459   1.104   2.873  10.242 -1.5702  1.6970  2.1366
  811MOL0     H 9460   1.153   2.835  10.399 -0.5114 -3.4826  2.1718
  811MOL0     H 9461   0.932   2.702  10.242 -1.2073  0.4743  0.0616
  811MOL0     H 9462   1.005   2.621  10.377  2.6364  1.3093  2.3640
  811MOL0     H 9463   0.939   2.813  10.525  2.3897  3.5389 -0.7162
  811MOL0     H 9464   0.802   2.747  10.432  1.0737 -2.7952 -0.2524
  811MOL0     H 9465   0.815   2.945  10.266 -1.8160  5.6791 -0.7473
  811MOL0     H 9466   0.947   3.013  10.361 -2.1988  1.5365  1.1466
  811MOL0     H 9467   1.405   2.947   9.815  0.3354 -1.7062  1.7759
  811MOL0     H 9468   1.564   3.019   9.648  1.3847 -0.8157 -2.0389
  811MOL0     H 9469   1.698   3.244   9.310 -1.2251 -1.5434  0.2082
  811MOL0     H 9470   1.865   3.318   9.139  0.5900 -0.5573 -1.3836
  811MOL0     H 9471   3.641   3.804   9.155  1.7518  0.1651  2.0566
  811MOL0     H 9472   3.793   3.691   9.313 -1.2076 -0.4306  0.4625
  811MOL0     H 9473   4.240   3.187   9.209  0.1882  1.5868 -1.5669
  811MOL0     H 9474   4.376   3.097   9.391 -0.1133 -0.8659 -1.2558
  811MOL0     H 9475   4.402   3.269   9.791  1.3372 -1.4943  1.5285
  811MOL0     H 9476   4.242   3.187   9.812 -2.5704 -1.8602 -4.8990
  811MOL0     H 9477   4.388   2.969   9.818 -2.6127 -0.1432  1.7751
  811MOL0     H 9478   4.402   3.073   9.960  0.2131  2.0627 -0.1369
  811MOL0     H 9479   4.604   3.192   9.883 -0.5198 -0.2582 -0.5244
  811MOL0     H 9480   4.615   3.102   9.741  2.8669  2.4581  1.9006
  811MOL0     H 9481   4.626   2.889   9.854 -2.3334  0.2537  1.4593
  811MOL0     H 9482   4.650   2.980  10.006  2.4255 -0.0916  0.2981
  811MOL0     H 9483   5.024   3.010   9.834  0.7022 -1.8247 -1.7046
  811MOL0     H 9484   4.183   3.333   9.673  1.5477 -0.0314  0.3225
  811MOL0     H 9485   4.032   3.436   9.505 -1.5589 -2.3736  2.2441
  812MOL0     O 9486  10.988   0.760   2.145  0.5226 -0.2059  0.4945
  812MOL0     C 9487  11.034   0.850   2.218 -0.7556  0.2577  0.0686
  812MOL0     O 9488  10.955   0.941   2.280  0.2825 -0.0225 -0.6791
  812MOL0     C 9489  10.818   0.939   2.256  0.3673 -0.3808  0.1911
  812MOL0     C 9490  10.768   1.006   2.143 -0.6027  0.3464 -0.3715
  812MOL0     C 9491  10.638   1.006   2.116 -0.1730  0.7701 -1.1038
  812MOL0     C 9492  10.550   0.949   2.206  0.2850 -0.2212  0.6566
  812MOL0     O 9493  10.420   0.978   2.175  0.1239  0.5232  0.1929
  812MOL0     C 9494  10.316   0.882   2.214 -0.1815 -0.3125 -0.0592
  812MOL0     C 9495  10.343   0.754   2.133  0.3367 -0.3342 -0.2299
  812MOL0     C 9496  10.217   0.670   2.096 -0.0842  0.5507  0.3459
  812MOL0     C 9497  10.161   0.598   2.218 -0.1423 -0.0736  0.0845
  812MOL0     C 9498  10.020   0.538   2.201  0.6231  0.1807 -0.5694
  812MOL0     C 9499   9.950   0.503   2.337  0.5442  0.7427  0.1721
  812MOL0     C 9500   9.818   0.426   2.306 -0.2255 -0.1786  0.8838
  812MOL0     C 9501   9.712   0.517   2.238 -0.1162 -0.6307 -0.2482
  812MOL0     N 9502   9.587   0.451   2.228  0.1975  0.0873 -0.1484
  812MOL0     C 9503   9.509   0.451   2.111  1.5656  0.3554  0.0161
  812MOL0     C 9504   9.437   0.335   2.122 -0.5593 -0.1670  0.5419
  812MOL0     C 9505   9.333   0.281   2.025 -0.1952 -0.3478 -1.3026
  812MOL0     C 9506   9.196   0.342   2.054  0.1694  1.1334  0.5711
  812MOL0     C 9507   9.105   0.314   1.927  0.7819 -0.0567 -0.3840
  812MOL0     C 9508   8.953   0.349   1.931  0.1101  0.1391 -0.9197
  812MOL0     O 9509   8.869   0.230   1.933 -0.5337  0.5553 -0.2989
  812MOL0     C 9510   8.729   0.249   1.938 -0.3562  0.0614  0.6929
  812MOL0     C 9511   8.653   0.140   1.987 -0.4713  0.1654 -0.0001
  812MOL0     C 9512   8.509   0.153   2.004  0.0287 -0.3795  0.0119
  812MOL0     C 9513   8.445   0.027   2.061  0.0076 -1.4568 -0.4737
  812MOL0     C 9514   8.443   0.272   1.956 -0.7837  0.2602  0.2408
  812MOL0     C 9515   8.296   0.286   1.951  0.6422 -0.7104 -0.5305
  812MOL0     O 9516   8.249   0.410   1.918  0.3216 -0.7224 -1.2312
  812MOL0     C 9517   8.112   0.424   1.922  0.1093  0.3937 -0.1404
  812MOL0     C 9518   8.046   0.467   2.035  0.4884 -0.3908 -0.6590
  812MOL0     C 9519   7.908   0.493   2.034 -0.2771  0.3325 -0.7260
  812MOL0     C 9520   7.832   0.485   1.919 -0.3663 -1.1601  0.0410
  812MOL0     O 9521   7.704   0.509   1.907  0.0687 -0.2861 -0.2243
  812MOL0     C 9522   7.632   0.447   2.015  0.6119 -0.6937 -0.4784
  812MOL0     C 9523   7.487   0.431   1.975  0.3803  0.4003 -0.1668
  812MOL0     C 9524   7.402   0.420   2.108 -0.2122  0.1297  0.2732
  812MOL0     C 9525   7.253   0.392   2.097 -0.3311  0.0722  0.2701
  812MOL0     C 9526   7.196   0.301   1.985 -0.5509  0.0607  0.5399
  812MOL0     C 9527   7.045   0.279   1.980  0.2130  0.1764  0.2398
  812MOL0     C 9528   6.984   0.181   1.872 -0.4571  0.6241 -0.1466
  812MOL0     C 9529   6.841   0.152   1.905 -0.1086  0.3723  0.1924
  812MOL0    Cl 9530   6.793   0.006   1.809 -0.2223 -0.4246  0.3947
  812MOL0     C 9531   7.899   0.443   1.810 -0.5366  0.6480  0.3282
  812MOL0     C 9532   8.035   0.406   1.806  0.3783  0.4231 -0.4334
  812MOL0     O 9533   8.223   0.186   1.977 -0.3946 -0.3593  0.1040
  812MOL0     C 9534   8.528   0.375   1.910 -0.3584  0.7571  0.0055
  812MOL0     C 9535   8.666   0.358   1.890 -0.4696  0.0456  0.2750
  812MOL0     N 9536   9.472   0.271   2.240 -0.3772  0.1493 -0.7517
  812MOL0     N 9537   9.556   0.340   2.300 -0.4445  0.8381  0.0934
  812MOL0     C 9538  10.589   0.881   2.321  0.1453  0.2200 -1.0534
  812MOL0     C 9539  10.734   0.870   2.343  0.0296 -0.1593  1.1006
  812MOL0     C 9540  11.182   0.855   2.229  0.4554 -0.5759  0.1356
  812MOL0     C 9541  11.266   0.762   2.173 -0.5688 -0.2467  0.2533
  812MOL0     C 9542  11.398   0.760   2.219 -0.3436 -1.0972 -0.0171
  812MOL0     C 9543  11.461   0.866   2.285  0.2012 -0.0468  0.1721
  812MOL0     O 9544  11.597   0.868   2.318 -0.2453 -0.4538 -0.5148
  812MOL0     C 9545  11.684   0.774   2.253 -0.1979 -0.1953 -0.3884
  812MOL0     C 9546  11.834   0.803   2.280 -0.1463  1.0562 -0.1852
  812MOL0     C 9547  11.935   0.700   2.229 -0.3982 -1.0671  0.4757
  812MOL0     C 9548  12.079   0.720   2.287  0.6587 -0.4284 -0.9294
  812MOL0     C 9549  12.154   0.604   2.259  0.4493  0.7095  0.9244
  812MOL0     C 9550  12.213   0.501   2.230  0.8460 -0.4754 -0.2780
  812MOL0     C 9551  11.381   0.970   2.332 -0.2060  0.1671 -0.6429
  812MOL0     C 9552  11.243   0.960   2.316  0.8495  0.1574  0.3690
  812MOL0     H 9553  10.840   1.052   2.076 -0.5803 -0.8109 -1.1889
  812MOL0     H 9554  10.608   1.058   2.026  1.6589  0.2484 -2.0496
  812MOL0     H 9555  10.311   0.850   2.318  0.8192  2.4885  0.9538
  812MOL0     H 9556  10.222   0.925   2.178  0.2237 -0.6411 -1.5850
  812MOL0     H 9557  10.397   0.790   2.045  1.2597  1.6542  1.0572
  812MOL0     H 9558  10.410   0.695   2.196 -2.2702 -1.9273  1.2256
  812MOL0     H 9559  10.148   0.741   2.050  0.4978  1.6428  1.1026
  812MOL0     H 9560  10.248   0.601   2.017 -1.4376  1.6632 -1.2174
  812MOL0     H 9561  10.232   0.522   2.252 -0.0652  0.4303  1.1001
  812MOL0     H 9562  10.148   0.674   2.296 -0.1542  1.2565 -1.1846
  812MOL0     H 9563   9.961   0.606   2.139 -0.2756 -2.3067 -2.6396
  812MOL0     H 9564  10.027   0.452   2.133 -0.8978  1.5566 -2.6044
  812MOL0     H 9565  10.022   0.446   2.396  2.0365 -0.1373 -2.3370
  812MOL0     H 9566   9.930   0.596   2.390  0.7113  0.2297  1.1482
  812MOL0     H 9567   9.832   0.337   2.244 -1.5207 -0.3214  0.7595
  812MOL0     H 9568   9.779   0.390   2.401 -0.5018 -1.3732  0.3387
  812MOL0     H 9569   9.754   0.553   2.144  1.7843 -0.2010  0.7037
  812MOL0     H 9570   9.689   0.598   2.309 -2.5722 -3.7802  2.9247
  812MOL0     H 9571   9.504   0.513   2.022 -0.4944 -0.9628 -0.8523
  812MOL0     H 9572   9.381   0.301   1.928  2.2122 -1.1288 -0.3611
  812MOL0     H 9573   9.338   0.172   2.033  2.3608 -0.2247 -0.2465
  812MOL0     H 9574   9.190   0.445   2.092 -0.9408  1.9300 -1.5967
  812MOL0     H 9575   9.145   0.275   2.124 -1.6351 -1.8348 -3.2364
  812MOL0     H 9576   9.108   0.208   1.900 -0.0004  0.0079 -0.7458
  812MOL0     H 9577   9.141   0.373   1.842 -0.6244 -1.9309 -2.3936
  812MOL0     H 9578   8.937   0.404   1.838 -0.2159  1.1043 -0.3038
  812MOL0     H 9579   8.936   0.423   2.009 -0.4187  1.2597 -2.0544
  812MOL0     H 9580   8.701   0.045   2.008 -0.6499 -0.3277 -1.6324
  812MOL0     H 9581   8.524  -0.028   2.113  2.1848  1.8310  0.0050
  812MOL0     H 9582   8.366   0.030   2.137  3.7946 -0.1497  3.8925
  812MOL0     H 9583   8.418  -0.025   1.969  0.5761  2.4226 -3.0970
  812MOL0     H 9584   8.091   0.478   2.133  1.0959  1.1790 -1.0721
  812MOL0     H 9585   7.859   0.520   2.127 -0.3394  1.4530 -1.0621
  812MOL0     H 9586   7.671   0.347   2.035 -0.1507 -0.9072 -0.0098
  812MOL0     H 9587   7.639   0.499   2.111  0.6289 -1.8734  0.1760
  812MOL0     H 9588   7.452   0.520   1.923  0.1260  0.7208  0.5354
  812MOL0     H 9589   7.486   0.339   1.916  1.7850 -1.0629  1.9293
  812MOL0     H 9590   7.407   0.510   2.169 -0.7911  0.7940 -0.6322
  812MOL0     H 9591   7.439   0.334   2.165 -4.8142  0.0085  3.5558
  812MOL0     H 9592   7.223   0.331   2.183 -3.2954 -1.0372 -1.4053
  812MOL0     H 9593   7.186   0.478   2.108 -0.2456  0.4709 -1.8308
  812MOL0     H 9594   7.244   0.205   2.009  2.6696  1.0118 -1.4807
  812MOL0     H 9595   7.228   0.327   1.884 -1.0487 -1.3132 -0.0052
  812MOL0     H 9596   7.011   0.237   2.075 -3.3633 -0.3578 -1.1404
  812MOL0     H 9597   6.996   0.376   1.973  0.8942  0.4934 -0.3323
  812MOL0     H 9598   7.048   0.092   1.876  1.3440  1.6735 -2.5533
  812MOL0     H 9599   6.989   0.220   1.770 -1.0677  0.0553 -0.3959
  812MOL0     H 9600   6.785   0.240   1.873  1.6442  0.8445 -1.8228
  812MOL0     H 9601   6.829   0.125   2.010 -0.6700  1.2055  0.3497
  812MOL0     H 9602   7.834   0.438   1.723 -1.4890  0.9042  1.0012
  812MOL0     H 9603   8.085   0.360   1.720 -0.3711 -0.7331 -0.2766
  812MOL0     H 9604   8.490   0.469   1.871 -2.7969  0.4725  1.4573
  812MOL0     H 9605   8.711   0.446   1.846  0.2939 -0.3488  0.2495
  812MOL0     H 9606  10.519   0.838   2.391  2.7163 -1.1309  0.8484
  812MOL0     H 9607  10.773   0.821   2.432  0.2178 -0.3776  0.9000
  812MOL0     H 9608  11.235   0.670   2.125  1.0631 -1.5653  1.6121
  812MOL0     H 9609  11.447   0.675   2.172 -0.0678 -0.3619 -1.1000
  812MOL0     H 9610  11.662   0.667   2.260  0.9473 -0.3451  2.1599
  812MOL0     H 9611  11.680   0.789   2.144 -0.3590  3.4733 -0.0130
  812MOL0     H 9612  11.853   0.825   2.386  1.0758  2.1073 -0.6002
  812MOL0     H 9613  11.854   0.893   2.222  0.6163  1.3244  0.4705
  812MOL0     H 9614  11.928   0.714   2.120 -2.1396 -0.0305  0.6813
  812MOL0     H 9615  11.900   0.599   2.247 -0.9409 -0.7522  1.2263
  812MOL0     H 9616  12.076   0.752   2.392  1.7357  0.8605 -1.2525
  812MOL0     H 9617  12.124   0.815   2.256 -3.0372  1.6111 -0.5976
  812MOL0     H 9618  12.275   0.419   2.202 -1.3633 -2.3459  0.0362
  812MOL0     H 9619  11.420   1.053   2.390  0.8231 -0.1682 -0.8510
  812MOL0     H 9620  11.185   1.032   2.372 -0.5247 -0.9665  0.4377
  813MOL0     O 9621   1.835   3.323   4.982 -0.1994  0.3258 -0.3166
  813MOL0     C 9622   1.834   3.224   5.058  0.0150 -0.0327 -0.6510
  813MOL0     O 9623   1.721   3.153   5.097 -0.6714 -0.2311 -0.2298
  813MOL0     C 9624   1.605   3.191   5.037  0.2552 -0.8727 -0.3187
  813MOL0     C 9625   1.578   3.155   4.904  0.0110 -0.3822 -0.2771
  813MOL0     C 9626   1.454   3.198   4.844 -1.4436  0.1205  0.4514
  813MOL0     C 9627   1.372   3.279   4.910  0.5113 -0.1270  0.2943
  813MOL0     O 9628   1.254   3.304   4.838 -0.1433  0.0169 -0.3499
  813MOL0     C 9629   1.143   3.349   4.913 -0.0336  0.5658 -0.3758
  813MOL0     C 9630   1.023   3.368   4.821  0.2241  0.3526 -0.1304
  813MOL0     C 9631   0.897   3.410   4.908 -0.0717 -0.1384  0.2977
  813MOL0     C 9632   0.795   3.446   4.802  0.3637  0.9201  0.7390
  813MOL0     C 9633   0.679   3.536   4.865 -0.1222 -0.1831  0.6132
  813MOL0     C 9634   0.587   3.564   4.748  0.4438  0.5438 -0.3153
  813MOL0     C 9635   0.632   3.660   4.646 -0.0821 -0.2163 -0.0997
  813MOL0     C 9636   0.662   3.803   4.699  0.5801 -0.8202  0.1283
  813MOL0     N 9637   0.542   3.882   4.727  0.0598 -0.7377 -0.6867
  813MOL0     C 9638   0.467   3.964   4.642 -0.2254 -0.1556 -0.0141
  813MOL0     C 9639   0.366   4.016   4.708 -0.3697  0.3295 -0.1085
  813MOL0     C 9640   0.252   4.093   4.654  0.1561  0.1173  1.1272
  813MOL0     C 9641   0.139   4.067   4.739 -0.4587 -0.0386 -0.0974
  813MOL0     C 9642   0.005   4.101   4.674 -0.5437  0.9277  1.1698
  813MOL0     C 9643  -0.039   3.989   4.571  0.2621 -0.0934  0.2813
  813MOL0     O 9644  -0.177   4.031   4.555 -0.1436  0.5306 -0.0558
  813MOL0     C 9645  -0.253   3.971   4.456  0.2931 -0.0888 -1.2226
  813MOL0     C 9646  -0.391   3.975   4.470  1.1658 -0.7852 -0.3289
  813MOL0     C 9647  -0.474   3.905   4.389  0.9046  1.1855  0.0032
  813MOL0     C 9648  -0.625   3.937   4.408 -0.4034  0.4371 -0.3389
  813MOL0     C 9649  -0.430   3.833   4.278 -0.1836 -0.0229  0.3102
  813MOL0     C 9650  -0.514   3.748   4.183 -0.3803 -0.7062 -0.5860
  813MOL0     O 9651  -0.632   3.709   4.225 -0.0869  0.3603  0.2003
  813MOL0     C 9652  -0.704   3.625   4.139  0.3237  0.5382  0.2679
  813MOL0     C 9653  -0.816   3.680   4.071 -0.2325 -0.1996 -0.0157
  813MOL0     C 9654  -0.908   3.597   4.002  0.2118  0.3802  0.4983
  813MOL0     C 9655  -0.881   3.460   3.993  0.1836 -0.5655 -0.7150
  813MOL0     O 9656  -0.976   3.382   3.947  0.2598 -0.2263  0.3606
  813MOL0     C 9657  -0.937   3.284   3.849 -0.3483  0.3266  0.5745
  813MOL0     C 9658  -1.069   3.261   3.776 -0.5870  0.6384 -1.0741
  813MOL0     C 9659  -1.137   3.130   3.838  0.2827  0.2400  0.8277
  813MOL0     C 9660  -1.280   3.116   3.778  0.6294 -0.4758 -0.4491
  813MOL0     C 9661  -1.373   3.032   3.875 -0.4979 -0.1418 -0.1925
  813MOL0     C 9662  -1.519   3.073   3.869  0.2398 -0.5951  0.2539
  813MOL0     C 9663  -1.599   2.996   3.971  0.7599  0.4464 -0.3853
  813MOL0     C 9664  -1.744   2.979   3.931  0.2876 -0.4937 -0.1272
  813MOL0    Cl 9665  -1.824   2.866   4.043 -0.4560 -0.0623  0.3656
  813MOL0     C 9666  -0.766   3.411   4.044 -0.2321 -0.1809 -0.3004
  813MOL0     C 9667  -0.675   3.488   4.116  0.0188 -0.6327 -0.3070
  813MOL0     O 9668  -0.468   3.731   4.069 -0.2776 -0.1302 -0.2626
  813MOL0     C 9669  -0.283   3.833   4.255 -0.0120  0.6656 -0.6454
  813MOL0     C 9670  -0.201   3.898   4.349 -0.2649  0.4682 -0.2750
  813MOL0     N 9671   0.390   3.988   4.839  0.1202 -0.3577  0.1738
  813MOL0     N 9672   0.496   3.916   4.852  0.0087  0.0811 -0.6523
  813MOL0     C 9673   1.395   3.309   5.041  0.1826 -0.3286  1.0719
  813MOL0     C 9674   1.506   3.261   5.111 -0.2746 -1.2622  0.7387
  813MOL0     C 9675   1.966   3.177   5.106  0.4631 -0.7455  0.1014
  813MOL0     C 9676   2.081   3.255   5.098 -1.0462  0.5415  0.3414
  813MOL0     C 9677   2.206   3.213   5.149  0.1206 -0.4343  0.4062
  813MOL0     C 9678   2.218   3.087   5.217 -0.1933  0.4608 -0.1466
  813MOL0     O 9679   2.332   3.031   5.265 -0.1341  0.4824  0.4389
  813MOL0     C 9680   2.453   3.104   5.284  0.2153  1.3711  0.0694
  813MOL0     C 9681   2.552   3.002   5.350  1.2492  0.4426  0.1793
  813MOL0     C 9682   2.689   3.063   5.374 -0.0593  0.1602  0.0127
  813MOL0     C 9683   2.741   2.990   5.497  0.2362 -0.4641 -0.4257
  813MOL0     C 9684   2.879   3.018   5.535 -0.0828 -0.9188 -0.4826
  813MOL0     C 9685   2.995   3.037   5.563  0.1132  0.3331 -0.4876
  813MOL0     C 9686   2.094   3.012   5.232  0.6971 -0.6283  0.0582
  813MOL0     C 9687   1.971   3.058   5.181  0.5844 -0.9256  0.8041
  813MOL0     H 9688   1.652   3.095   4.852 -0.1332 -0.1148 -0.8009
  813MOL0     H 9689   1.435   3.147   4.750 -1.2322 -2.5774  1.7920
  813MOL0     H 9690   1.117   3.275   4.989 -1.1111  1.6073  0.3020
  813MOL0     H 9691   1.159   3.444   4.965 -3.0295  1.0027 -0.0643
  813MOL0     H 9692   1.046   3.451   4.754 -1.7200  1.4849  0.5337
  813MOL0     H 9693   1.013   3.271   4.771  2.3021  0.0741 -0.0775
  813MOL0     H 9694   0.859   3.331   4.973 -2.2790 -0.2633 -1.0379
  813MOL0     H 9695   0.919   3.487   4.982  1.7225  1.0651 -1.3884
  813MOL0     H 9696   0.840   3.503   4.720 -2.6881 -0.7911 -2.3778
  813MOL0     H 9697   0.749   3.359   4.755  2.0055  0.5146 -0.1701
  813MOL0     H 9698   0.626   3.473   4.937 -0.9330  0.7750  0.8751
  813MOL0     H 9699   0.712   3.631   4.906 -0.8103 -0.6245  2.2820
  813MOL0     H 9700   0.559   3.467   4.706  0.7585 -1.1537  3.0689
  813MOL0     H 9701   0.497   3.611   4.788  1.7366  1.8230  1.2055
  813MOL0     H 9702   0.724   3.632   4.594 -0.2453  1.7639 -1.5604
  813MOL0     H 9703   0.556   3.670   4.568  0.5450  2.4601 -0.4472
  813MOL0     H 9704   0.708   3.855   4.615 -0.2704  1.4658  1.0104
  813MOL0     H 9705   0.726   3.797   4.788  1.0793 -1.4409 -0.2628
  813MOL0     H 9706   0.485   3.971   4.535 -1.8785 -0.3633 -0.3256
  813MOL0     H 9707   0.286   4.195   4.636  3.5369 -0.9357  0.8903
  813MOL0     H 9708   0.226   4.049   4.557  3.5037  0.4910 -0.0731
  813MOL0     H 9709   0.148   4.129   4.828 -2.8962 -2.0788  1.7120
  813MOL0     H 9710   0.125   3.963   4.769 -1.9874  0.5754  1.5017
  813MOL0     H 9711   0.015   4.198   4.625  4.1809 -0.2757 -0.7855
  813MOL0     H 9712  -0.069   4.095   4.754 -0.1437 -2.0094  1.4290
  813MOL0     H 9713  -0.026   3.886   4.604  0.4713 -0.3594 -0.6209
  813MOL0     H 9714   0.025   3.998   4.483  0.3480  2.4514  0.5348
  813MOL0     H 9715  -0.432   4.022   4.559 -1.2088 -0.8877 -1.3256
  813MOL0     H 9716  -0.678   3.843   4.429  4.3892 -2.2388  1.4550
  813MOL0     H 9717  -0.635   4.007   4.491 -2.5386 -0.0069 -0.1542
  813MOL0     H 9718  -0.669   3.975   4.316  0.2545 -1.4102 -1.4804
  813MOL0     H 9719  -0.843   3.783   4.088  0.0464 -0.5155  2.7752
  813MOL0     H 9720  -1.004   3.627   3.961 -0.0048  0.7019  1.2384
  813MOL0     H 9721  -0.877   3.324   3.767 -1.5701 -1.8053 -1.4716
  813MOL0     H 9722  -0.891   3.205   3.910  3.4602  2.5174  0.8514
  813MOL0     H 9723  -1.137   3.346   3.783  0.7568  1.6942 -0.5685
  813MOL0     H 9724  -1.051   3.235   3.671  1.0917 -3.7587  0.0548
  813MOL0     H 9725  -1.135   3.133   3.947 -1.0673 -3.0931  1.0654
  813MOL0     H 9726  -1.077   3.039   3.825 -0.5103 -0.2639  0.6174
  813MOL0     H 9727  -1.319   3.218   3.777 -0.4615 -0.8809  0.0680
  813MOL0     H 9728  -1.269   3.080   3.675  1.4993  3.2531 -1.8128
  813MOL0     H 9729  -1.343   3.039   3.980 -0.0203 -1.1541 -0.2536
  813MOL0     H 9730  -1.367   2.925   3.853  2.7810 -0.3876  1.2803
  813MOL0     H 9731  -1.522   3.180   3.893  2.7639  0.2827 -2.6782
  813MOL0     H 9732  -1.555   3.063   3.766  1.0450 -0.0345 -0.0919
  813MOL0     H 9733  -1.585   3.045   4.068 -1.5599 -2.6556  1.7499
  813MOL0     H 9734  -1.566   2.892   3.983  0.9155  0.6116  0.7124
  813MOL0     H 9735  -1.747   2.935   3.831 -0.4985  0.5543 -0.5784
  813MOL0     H 9736  -1.793   3.075   3.912  0.8547 -0.2394 -0.3611
  813MOL0     H 9737  -0.751   3.303   4.035 -0.9833 -0.5389  2.1204
  813MOL0     H 9738  -0.585   3.445   4.159 -0.8161  0.4908  2.8531
  813MOL0     H 9739  -0.234   3.767   4.185 -0.3523 -0.6498  0.2970
  813MOL0     H 9740  -0.097   3.872   4.336 -0.2968 -0.4031  0.9500
  813MOL0     H 9741   1.326   3.379   5.087 -1.8556 -1.4426 -0.1460
  813MOL0     H 9742   1.524   3.284   5.215  1.1755 -2.5266  0.8048
  813MOL0     H 9743   2.085   3.346   5.039 -2.5107  1.6360  1.8305
  813MOL0     H 9744   2.283   3.284   5.119 -1.5070  0.3542 -2.3241
  813MOL0     H 9745   2.488   3.142   5.187 -1.6095  0.2625 -1.0858
  813MOL0     H 9746   2.435   3.189   5.350 -3.3163  0.0696  0.9726
  813MOL0     H 9747   2.554   2.916   5.283 -1.5093  0.8180 -0.4841
  813MOL0     H 9748   2.500   2.965   5.438 -2.0554  0.9642 -1.4053
  813MOL0     H 9749   2.693   3.172   5.388 -2.5472  0.2794  0.2360
  813MOL0     H 9750   2.759   3.041   5.292 -1.5396 -0.3987 -1.1560
  813MOL0     H 9751   2.732   2.884   5.472 -2.1874 -0.9380  1.9208
  813MOL0     H 9752   2.673   2.998   5.583 -1.4395  1.7422 -1.8324
  813MOL0     H 9753   3.092   3.068   5.597  0.3655  1.5371 -2.1667
  813MOL0     H 9754   2.095   2.934   5.307 -1.7906  1.6385  2.7253
  813MOL0     H 9755   1.884   2.995   5.196 -0.1621 -1.5248 -4.2399
  814MOL0     O 9756   4.498   2.733   5.157  0.1008 -0.2065  0.2981
  814MOL0     C 9757   4.601   2.738   5.228  0.0735 -0.0277  0.5885
  814MOL0     O 9758   4.602   2.748   5.360 -0.5512  0.6708 -0.0872
  814MOL0     C 9759   4.483   2.745   5.429  0.4875  0.3231  0.5209
  814MOL0     C 9760   4.423   2.847   5.498  0.6379  0.4547  0.3767
  814MOL0     C 9761   4.303   2.829   5.575 -0.0319 -0.5714  0.5336
  814MOL0     C 9762   4.239   2.709   5.575 -0.0356  0.2153  0.1184
  814MOL0     O 9763   4.119   2.705   5.644  0.1449 -0.1635  0.1178
  814MOL0     C 9764   4.059   2.577   5.661  0.1033  0.3700 -0.2899
  814MOL0     C 9765   3.944   2.596   5.755  0.8452  0.1531  0.4141
  814MOL0     C 9766   3.833   2.689   5.693 -0.0308 -0.2544 -0.3372
  814MOL0     C 9767   3.732   2.735   5.803  0.5491 -0.0424  0.9116
  814MOL0     C 9768   3.618   2.828   5.764  0.2084  0.3105  0.9034
  814MOL0     C 9769   3.523   2.754   5.675  0.3274  0.6062  0.2710
  814MOL0     C 9770   3.397   2.849   5.643  0.3297 -0.1759  0.8055
  814MOL0     C 9771   3.287   2.806   5.554  0.2389 -0.5046  1.0013
  814MOL0     N 9772   3.223   2.685   5.603  0.4241  0.2548 -0.0832
  814MOL0     C 9773   3.104   2.683   5.669  0.6094 -0.3075 -1.2305
  814MOL0     C 9774   3.091   2.550   5.697 -0.1965  0.0463  0.1955
  814MOL0     C 9775   2.977   2.510   5.775  0.3298 -0.1674  0.3873
  814MOL0     C 9776   2.869   2.439   5.696 -0.4830 -0.7229 -0.8019
  814MOL0     C 9777   2.782   2.548   5.633  0.3837 -0.3772 -0.8715
  814MOL0     C 9778   2.690   2.489   5.525  0.0642  0.1000  0.0778
  814MOL0     O 9779   2.603   2.597   5.489 -0.2670  0.5957 -0.6524
  814MOL0     C 9780   2.512   2.579   5.390 -0.1319  0.4051 -0.3688
  814MOL0     C 9781   2.510   2.482   5.290 -0.2682 -0.2979 -0.8559
  814MOL0     C 9782   2.398   2.466   5.207 -0.5533  0.3475 -0.2664
  814MOL0     C 9783   2.406   2.369   5.097 -0.0388 -0.7136  0.0336
  814MOL0     C 9784   2.288   2.546   5.228 -0.8253  0.1863  0.0584
  814MOL0     C 9785   2.162   2.538   5.154  0.1596  0.5640 -0.6362
  814MOL0     O 9786   2.073   2.638   5.177 -0.5612 -0.4122  0.2371
  814MOL0     C 9787   1.957   2.629   5.114 -0.4286 -0.2440 -0.2967
  814MOL0     C 9788   1.847   2.566   5.175  0.3481  0.2084  0.0243
  814MOL0     C 9789   1.721   2.555   5.117 -0.1657 -0.1826 -0.7056
  814MOL0     C 9790   1.699   2.624   4.997 -0.0545  0.6952  0.7429
  814MOL0     O 9791   1.570   2.619   4.950 -0.4808  0.4609  0.2613
  814MOL0     C 9792   1.519   2.487   4.912 -0.2014 -0.3480 -0.5766
  814MOL0     C 9793   1.478   2.488   4.767  1.0295 -0.0666  0.6167
  814MOL0     C 9794   1.586   2.526   4.666 -0.0519 -1.1119 -0.0610
  814MOL0     C 9795   1.544   2.491   4.534 -0.1021 -0.3760 -0.4977
  814MOL0     C 9796   1.657   2.499   4.427 -0.3601  0.0879  0.7539
  814MOL0     C 9797   1.611   2.456   4.286  0.7723  0.0637 -0.2093
  814MOL0     C 9798   1.725   2.442   4.186 -0.0158 -0.0555  0.7661
  814MOL0     C 9799   1.788   2.298   4.189 -1.2391 -0.2757 -0.2211
  814MOL0    Cl 9800   1.948   2.288   4.116 -0.2451 -0.1678 -0.0919
  814MOL0     C 9801   1.800   2.706   4.942  0.3217 -0.1565  0.4964
  814MOL0     C 9802   1.931   2.704   4.996 -0.3644 -0.1204 -0.3671
  814MOL0     O 9803   2.140   2.441   5.085 -0.6611  0.6798 -0.5061
  814MOL0     C 9804   2.298   2.652   5.320  0.0059  0.2696  0.4400
  814MOL0     C 9805   2.408   2.661   5.401  0.5706 -0.0485  0.2321
  814MOL0     N 9806   3.193   2.472   5.643  0.9205 -0.6129  0.8104
  814MOL0     N 9807   3.278   2.557   5.582  0.0965  0.3249 -0.2757
  814MOL0     C 9808   4.307   2.595   5.518 -0.2445 -0.2760 -0.4547
  814MOL0     C 9809   4.420   2.616   5.437 -0.5802 -1.2757 -0.0696
  814MOL0     C 9810   4.734   2.724   5.158 -0.2193  0.3243  0.2623
  814MOL0     C 9811   4.738   2.743   5.017  0.4620 -0.0630  0.0424
  814MOL0     C 9812   4.863   2.742   4.961 -0.7370 -0.2774 -0.0831
  814MOL0     C 9813   4.980   2.700   5.033  0.4350  0.3693 -0.4221
  814MOL0     O 9814   5.105   2.691   4.988  0.4890 -0.4359 -0.1808
  814MOL0     C 9815   5.121   2.699   4.847 -0.2476 -0.2251  0.4608
  814MOL0     C 9816   5.270   2.658   4.804  0.1154  0.1352  0.6968
  814MOL0     C 9817   5.381   2.743   4.841 -0.1323  1.1310 -0.0789
  814MOL0     C 9818   5.518   2.696   4.790  0.1968  0.1833 -0.1355
  814MOL0     C 9819   5.567   2.573   4.859 -0.7127 -0.6941 -0.4287
  814MOL0     C 9820   5.611   2.481   4.927 -0.4951  0.5102 -0.3305
  814MOL0     C 9821   4.966   2.664   5.170 -0.2337 -0.1139  0.1643
  814MOL0     C 9822   4.841   2.679   5.226 -0.1051  0.5968 -0.2137
  814MOL0     H 9823   4.475   2.943   5.489  2.6092 -0.6779 -1.3584
  814MOL0     H 9824   4.263   2.915   5.627  3.6598  0.7257  1.4858
  814MOL0     H 9825   4.034   2.524   5.569 -0.9167  1.4870 -0.6733
  814MOL0     H 9826   4.135   2.517   5.713  0.7583 -1.2312 -2.9095
  814MOL0     H 9827   3.901   2.500   5.785 -2.6389  0.8752 -1.6956
  814MOL0     H 9828   3.976   2.646   5.847  2.0459 -1.2425  0.7833
  814MOL0     H 9829   3.889   2.769   5.644  0.5774  0.4423  1.4093
  814MOL0     H 9830   3.780   2.632   5.617  0.1906 -0.7166 -0.1512
  814MOL0     H 9831   3.691   2.645   5.851  1.4274 -1.1327 -0.2937
  814MOL0     H 9832   3.791   2.776   5.886  0.7016 -1.9302  1.7906
  814MOL0     H 9833   3.569   2.860   5.856  1.7649 -0.2230  1.9615
  814MOL0     H 9834   3.656   2.915   5.710 -0.7172 -0.7522 -1.6516
  814MOL0     H 9835   3.574   2.728   5.582  1.8334  0.0417  1.2310
  814MOL0     H 9836   3.490   2.659   5.718 -0.3191 -0.3510 -2.1451
  814MOL0     H 9837   3.354   2.875   5.740  0.0563 -0.1092  0.6664
  814MOL0     H 9838   3.435   2.940   5.595  1.4434 -0.9196  0.2323
  814MOL0     H 9839   3.324   2.778   5.455  0.3902  5.0304 -0.8515
  814MOL0     H 9840   3.215   2.888   5.547 -0.3100 -0.9027  1.7931
  814MOL0     H 9841   3.026   2.748   5.707 -0.9018 -1.2441 -2.6369
  814MOL0     H 9842   3.005   2.437   5.852  3.0976  1.0384  0.6566
  814MOL0     H 9843   2.934   2.594   5.831 -1.3013 -1.7995  1.6979
  814MOL0     H 9844   2.810   2.380   5.767  1.1418 -1.1247  0.2899
  814MOL0     H 9845   2.916   2.361   5.635  0.7897 -0.8616  0.3065
  814MOL0     H 9846   2.841   2.631   5.594  1.4680 -0.4999  0.4398
  814MOL0     H 9847   2.730   2.604   5.711  1.0378 -1.3729  0.3124
  814MOL0     H 9848   2.640   2.398   5.560  2.0191 -2.3906 -3.0644
  814MOL0     H 9849   2.747   2.455   5.438  1.5573 -1.1103  1.4791
  814MOL0     H 9850   2.600   2.425   5.269 -1.5570 -1.9959 -2.1119
  814MOL0     H 9851   2.506   2.325   5.091  0.9967  1.3411  0.9494
  814MOL0     H 9852   2.323   2.299   5.104 -2.6266  1.4862 -4.3962
  814MOL0     H 9853   2.389   2.418   5.001  0.1894 -2.9438 -1.2227
  814MOL0     H 9854   1.852   2.530   5.278 -2.7126 -0.5704  0.0066
  814MOL0     H 9855   1.641   2.501   5.167  0.8212 -2.3974 -1.3898
  814MOL0     H 9856   1.591   2.405   4.913 -1.1967 -1.2304  0.1291
  814MOL0     H 9857   1.438   2.449   4.975 -0.2200 -3.6442 -2.3871
  814MOL0     H 9858   1.451   2.386   4.737 -1.5665  0.9436 -0.7746
  814MOL0     H 9859   1.392   2.550   4.741 -2.1029 -4.1775  0.1687
  814MOL0     H 9860   1.684   2.487   4.694  1.5901  3.6000  1.7010
  814MOL0     H 9861   1.599   2.635   4.671  3.4835 -1.4571  2.0199
  814MOL0     H 9862   1.521   2.384   4.527 -1.5408 -0.0418 -1.1075
  814MOL0     H 9863   1.453   2.548   4.514  1.3038  2.4232  0.6020
  814MOL0     H 9864   1.742   2.436   4.456 -1.2568 -1.4676  0.1269
  814MOL0     H 9865   1.691   2.599   4.403 -0.3552 -0.4511 -1.6833
  814MOL0     H 9866   1.543   2.371   4.290 -1.2367  1.6223  0.2492
  814MOL0     H 9867   1.549   2.537   4.247 -4.2795 -3.4088 -0.2085
  814MOL0     H 9868   1.794   2.526   4.197  0.9428 -1.0759  3.2320
  814MOL0     H 9869   1.676   2.453   4.089 -0.3584  2.0137  1.1294
  814MOL0     H 9870   1.736   2.214   4.143  2.2666 -1.8991 -1.5628
  814MOL0     H 9871   1.795   2.262   4.292 -2.1012 -0.0733 -0.0864
  814MOL0     H 9872   1.787   2.774   4.859 -0.1369 -3.9023 -2.8142
  814MOL0     H 9873   2.008   2.764   4.948  1.1367 -2.6706 -1.3429
  814MOL0     H 9874   2.223   2.727   5.344 -1.4901 -1.5009  1.5587
  814MOL0     H 9875   2.408   2.749   5.464 -1.0083 -0.2655  0.5816
  814MOL0     H 9876   4.274   2.493   5.532  0.6633 -0.3773  1.3300
  814MOL0     H 9877   4.459   2.532   5.380 -3.4542 -1.4632 -1.9536
  814MOL0     H 9878   4.652   2.769   4.957 -0.4314  1.3656  1.8246
  814MOL0     H 9879   4.870   2.761   4.854  1.9304 -0.7622 -0.0740
  814MOL0     H 9880   5.049   2.635   4.795  1.4367  1.4840 -4.5788
  814MOL0     H 9881   5.098   2.795   4.801 -2.0830 -1.1889 -0.7646
  814MOL0     H 9882   5.266   2.639   4.696 -1.9091  3.0566  0.1500
  814MOL0     H 9883   5.291   2.563   4.854  0.1317 -0.5397 -0.5434
  814MOL0     H 9884   5.381   2.763   4.949 -0.2232  0.2776  0.0842
  814MOL0     H 9885   5.349   2.841   4.803 -2.0017  0.9363  0.8860
  814MOL0     H 9886   5.585   2.781   4.804  0.1402  0.1562  0.2927
  814MOL0     H 9887   5.508   2.694   4.681 -4.1954  1.0931  0.0564
  814MOL0     H 9888   5.655   2.416   5.000  2.4760  3.1965  0.5357
  814MOL0     H 9889   5.055   2.634   5.226  0.9976 -0.8892 -2.1002
  814MOL0     H 9890   4.831   2.653   5.331  0.4424 -2.0089 -0.7390
  815MOL0     O 9891   5.277   1.786   5.720  0.2274  0.0168 -0.2173
  815MOL0     C 9892   5.294   1.691   5.642  0.5192 -0.1863 -0.2665
  815MOL0     O 9893   5.195   1.638   5.560 -0.7384  0.2491  0.0603
  815MOL0     C 9894   5.082   1.710   5.517  0.3276 -0.3291 -1.3759
  815MOL0     C 9895   5.091   1.839   5.473 -0.5010  0.3001 -1.3662
  815MOL0     C 9896   4.983   1.910   5.439  0.3272 -0.6385 -0.0979
  815MOL0     C 9897   4.856   1.857   5.463 -0.3179 -0.4183  0.3299
  815MOL0     O 9898   4.759   1.945   5.429  0.3817  0.1681  1.0929
  815MOL0     C 9899   4.632   1.884   5.398  1.1305 -0.3103  0.3301
  815MOL0     C 9900   4.552   1.990   5.340  0.1194 -0.0661  0.1055
  815MOL0     C 9901   4.392   1.940   5.340 -0.3318 -0.0878 -0.2871
  815MOL0     C 9902   4.352   1.839   5.229 -0.0900 -0.7564 -0.1785
  815MOL0     C 9903   4.199   1.848   5.210 -0.4527 -0.3525  0.0886
  815MOL0     C 9904   4.152   1.744   5.121 -0.2076  0.2190 -0.2480
  815MOL0     C 9905   4.005   1.747   5.096  0.2346  0.7896 -0.5828
  815MOL0     C 9906   3.915   1.729   5.231  0.0643 -0.3735  0.1530
  815MOL0     N 9907   3.942   1.600   5.294  0.1322 -0.3177  0.3448
  815MOL0     C 9908   3.905   1.478   5.233 -0.2510 -0.5854  0.4039
  815MOL0     C 9909   3.976   1.384   5.310 -0.1663  0.5702  0.8349
  815MOL0     C 9910   3.945   1.236   5.312  0.0049 -0.3763  0.0080
  815MOL0     C 9911   3.792   1.215   5.331 -0.5336  0.1355  0.1149
  815MOL0     C 9912   3.722   1.291   5.454  0.1314  0.5293  0.8783
  815MOL0     C 9913   3.780   1.263   5.594 -0.4352  0.6029 -0.8366
  815MOL0     O 9914   3.760   1.126   5.642 -0.0077 -0.2568 -0.1174
  815MOL0     C 9915   3.644   1.096   5.714  0.5514  0.3078 -0.1173
  815MOL0     C 9916   3.636   0.973   5.772  0.2275 -0.0891  0.3160
  815MOL0     C 9917   3.522   0.938   5.851 -0.1993 -1.2402  0.1978
  815MOL0     C 9918   3.492   0.798   5.895 -0.5072 -0.2169 -0.1569
  815MOL0     C 9919   3.420   1.035   5.875  0.2042 -0.8412  0.3449
  815MOL0     C 9920   3.307   1.008   5.954  0.7863  0.1610  0.3800
  815MOL0     O 9921   3.328   0.937   6.064 -0.9188  0.5976  0.3812
  815MOL0     C 9922   3.221   0.906   6.137  0.3575  0.6168 -0.4401
  815MOL0     C 9923   3.207   0.960   6.268  0.0176 -0.3553 -0.3150
  815MOL0     C 9924   3.097   0.926   6.340 -0.6073  0.3913  0.0813
  815MOL0     C 9925   2.994   0.842   6.287  1.2435 -0.4372 -0.6419
  815MOL0     O 9926   2.867   0.836   6.342 -0.1718  0.0323 -0.4911
  815MOL0     C 9927   2.847   0.917   6.463  0.2378 -0.7230 -0.5341
  815MOL0     C 9928   2.712   0.889   6.520  0.2183  0.3221  0.3489
  815MOL0     C 9929   2.598   0.938   6.434  0.2376 -0.0887 -0.1978
  815MOL0     C 9930   2.465   0.918   6.506  0.6502  0.8666  0.3268
  815MOL0     C 9931   2.344   0.930   6.411 -0.4768  0.0162 -0.1147
  815MOL0     C 9932   2.218   0.872   6.486  0.3420 -0.2574 -0.1302
  815MOL0     C 9933   2.166   0.956   6.608  0.9003 -0.2122  0.0846
  815MOL0     C 9934   2.042   0.904   6.682 -0.0187  0.9773  0.3096
  815MOL0    Cl 9935   2.074   0.731   6.722 -0.1764  0.5335  0.2742
  815MOL0     C 9936   3.014   0.795   6.160  0.5857 -0.0489  0.0056
  815MOL0     C 9937   3.125   0.817   6.086 -0.2169  0.4058 -0.0555
  815MOL0     O 9938   3.196   1.057   5.918  0.4208  0.5536 -0.3352
  815MOL0     C 9939   3.426   1.156   5.810 -0.0394 -0.1714 -0.2410
  815MOL0     C 9940   3.537   1.188   5.735 -0.1041  0.0946  0.2497
  815MOL0     N 9941   4.033   1.448   5.419 -1.1898 -0.0561  0.4441
  815MOL0     N 9942   4.018   1.579   5.402  0.1219  1.0474  0.1810
  815MOL0     C 9943   4.844   1.728   5.511  0.2888 -0.5349 -0.8685
  815MOL0     C 9944   4.951   1.655   5.535 -0.5721  0.3906  0.1398
  815MOL0     C 9945   5.427   1.624   5.648 -0.1114 -0.2305 -0.1651
  815MOL0     C 9946   5.535   1.686   5.708 -1.3522 -0.3787 -0.1186
  815MOL0     C 9947   5.666   1.625   5.709 -0.0316 -0.7998  0.3748
  815MOL0     C 9948   5.685   1.501   5.661 -0.4108  0.3042  0.0324
  815MOL0     O 9949   5.804   1.434   5.648  0.3133 -0.1944 -0.3950
  815MOL0     C 9950   5.923   1.513   5.668  0.7040 -0.1772  0.0987
  815MOL0     C 9951   6.050   1.444   5.604  0.0729  0.3536  0.3006
  815MOL0     C 9952   6.121   1.323   5.658  0.2313  0.7343  0.2126
  815MOL0     C 9953   6.221   1.338   5.767 -0.1393  0.0232  0.2771
  815MOL0     C 9954   6.356   1.385   5.714 -0.6770  0.5191 -0.4618
  815MOL0     C 9955   6.464   1.416   5.678 -0.6403 -0.0142 -0.0755
  815MOL0     C 9956   5.579   1.435   5.603 -0.5734 -0.4632 -0.0651
  815MOL0     C 9957   5.453   1.498   5.598  0.7517  0.6385  0.0916
  815MOL0     H 9958   5.185   1.895   5.466  2.3388 -3.7756  0.3612
  815MOL0     H 9959   4.993   2.015   5.414 -3.0979  0.2060  1.4666
  815MOL0     H 9960   4.644   1.809   5.319  1.5940 -0.9039  0.9489
  815MOL0     H 9961   4.588   1.845   5.490  0.2105 -0.5191 -0.1855
  815MOL0     H 9962   4.563   2.087   5.390  0.8439  0.2868 -0.7110
  815MOL0     H 9963   4.590   2.000   5.238  0.5160 -1.9111  0.0472
  815MOL0     H 9964   4.367   1.909   5.442  1.0792  1.9282  0.7441
  815MOL0     H 9965   4.337   2.033   5.323  0.9792  0.6509 -0.6608
  815MOL0     H 9966   4.403   1.860   5.134 -0.0278 -1.2185 -0.2493
  815MOL0     H 9967   4.394   1.740   5.247  3.4440  0.8355  1.3453
  815MOL0     H 9968   4.153   1.840   5.309  4.2966 -0.2721  2.6229
  815MOL0     H 9969   4.177   1.943   5.162  1.3038 -0.5474 -1.2072
  815MOL0     H 9970   4.201   1.767   5.026  2.0827  0.4117  0.9295
  815MOL0     H 9971   4.177   1.642   5.153 -3.5790 -1.6153 -2.7539
  815MOL0     H 9972   3.970   1.839   5.048 -0.3357 -0.2648 -2.3264
  815MOL0     H 9973   3.981   1.668   5.024 -1.9066  2.7540 -2.1800
  815MOL0     H 9974   3.810   1.737   5.201  0.3474  3.3123 -0.2780
  815MOL0     H 9975   3.940   1.806   5.305  0.0221 -0.7950  0.6091
  815MOL0     H 9976   3.843   1.469   5.145  2.6886 -0.8295 -1.8164
  815MOL0     H 9977   3.978   1.197   5.215 -4.2663 -0.6047 -1.5799
  815MOL0     H 9978   4.009   1.183   5.383 -2.6576 -1.8733  1.4887
  815MOL0     H 9979   3.786   1.108   5.351 -1.5477  0.0891 -0.3878
  815MOL0     H 9980   3.747   1.251   5.238 -2.6225 -0.0940  0.9931
  815MOL0     H 9981   3.615   1.271   5.457  0.2961 -0.4093  0.8533
  815MOL0     H 9982   3.731   1.398   5.434  1.8980  0.1599 -0.6290
  815MOL0     H 9983   3.750   1.342   5.663  0.8449 -0.4474  1.0097
  815MOL0     H 9984   3.889   1.267   5.604 -0.6097 -0.4260  5.7503
  815MOL0     H 9985   3.714   0.908   5.733  0.0159  0.5575 -1.2358
  815MOL0     H 9986   3.547   0.719   5.843 -0.7655  0.1069 -0.9306
  815MOL0     H 9987   3.503   0.776   6.002 -2.0910 -0.4629 -0.0257
  815MOL0     H 9988   3.391   0.767   5.866  0.0462 -1.8027 -0.4922
  815MOL0     H 9989   3.274   1.040   6.295  2.0990 -2.6827  1.9819
  815MOL0     H 9990   3.085   0.976   6.435 -1.1309  0.4905 -0.0325
  815MOL0     H 9991   2.919   0.878   6.535 -0.4032 -1.0270 -0.0404
  815MOL0     H 9992   2.857   1.024   6.442 -0.8030 -0.6567 -0.7842
  815MOL0     H 9993   2.699   0.782   6.538 -0.2961 -0.0555 -1.9408
  815MOL0     H 9994   2.705   0.947   6.613  0.4166  5.3734 -2.4192
  815MOL0     H 9995   2.594   0.874   6.346  2.4305 -0.8131  0.1592
  815MOL0     H 9996   2.606   1.042   6.401 -3.4495  0.0513 -0.9814
  815MOL0     H 9997   2.461   0.814   6.539 -0.8038  0.5691 -0.6663
  815MOL0     H 9998   2.459   0.986   6.591 -2.8594 -0.9649  1.7549
  815MOL0     H 9999   2.357   0.872   6.319 -1.5256  0.2150 -0.4013
  815MOL0     H10000   2.339   1.035   6.381  2.7723 -0.3961 -2.6681
  815MOL0     H10001   2.132   0.861   6.419 -1.9535 -0.9574  2.7215
  815MOL0     H10002   2.234   0.768   6.516 -1.9553  0.1990  3.2628
  815MOL0     H10003   2.151   1.058   6.572  0.2601 -0.5119 -0.5051
  815MOL0     H10004   2.243   0.956   6.686 -0.6367  0.5814  1.6733
  815MOL0     H10005   1.959   0.909   6.611  1.4542  3.9102 -1.4006
  815MOL0     H10006   2.018   0.969   6.766 -0.6998  1.3577 -0.1662
  815MOL0     H10007   2.943   0.722   6.122 -3.8286  2.9744  1.6371
  815MOL0     H10008   3.131   0.780   5.984 -1.8811  0.3692 -0.1631
  815MOL0     H10009   3.355   1.234   5.835 -0.3668  0.0382 -1.7257
  815MOL0     H10010   3.537   1.288   5.694  0.2511  0.0560  0.1575
  815MOL0     H10011   4.754   1.672   5.535 -0.6811  0.8957 -1.0293
  815MOL0     H10012   4.942   1.555   5.578 -0.8186 -0.3705 -1.5789
  815MOL0     H10013   5.524   1.785   5.751 -1.4972 -1.1105  1.6540
  815MOL0     H10014   5.743   1.682   5.761 -1.1405 -1.0989  2.4686
  815MOL0     H10015   5.910   1.611   5.622 -3.6279 -1.2223 -1.3565
  815MOL0     H10016   5.943   1.532   5.774 -0.1901  1.9942 -0.0787
  815MOL0     H10017   6.126   1.522   5.611 -0.6145  1.0020  0.6704
  815MOL0     H10018   6.019   1.421   5.501  1.3327  0.1476 -0.0466
  815MOL0     H10019   6.159   1.264   5.575 -1.4050 -1.3319  0.8572
  815MOL0     H10020   6.046   1.255   5.699 -1.5834  0.8632 -2.6229
  815MOL0     H10021   6.233   1.243   5.820 -0.7607  0.1041  0.5720
  815MOL0     H10022   6.178   1.411   5.836  0.0129  0.1672  0.2226
  815MOL0     H10023   6.553   1.459   5.636 -1.0288 -1.0951 -2.1127
  815MOL0     H10024   5.598   1.334   5.567  0.2088 -0.3130 -0.1001
  815MOL0     H10025   5.362   1.448   5.564 -0.0940  3.4578 -2.2603
  816MOL0     O10026   6.322   6.454   3.177 -0.1970 -1.5225  0.8691
  816MOL0     C10027   6.438   6.463   3.221 -0.1978 -1.3402  0.0127
  816MOL0     O10028   6.498   6.581   3.264 -0.0228 -0.2676  0.0375
  816MOL0     C10029   6.422   6.691   3.301  0.4002 -0.0426 -0.4372
  816MOL0     C10030   6.478   6.814   3.281  0.6463 -0.1550 -0.4772
  816MOL0     C10031   6.413   6.929   3.331  0.1514 -0.1118 -0.1140
  816MOL0     C10032   6.287   6.914   3.393  0.2872  0.2813  0.0427
  816MOL0     O10033   6.226   7.029   3.442 -0.3534 -0.3000  0.0929
  816MOL0     C10034   6.095   7.017   3.502 -0.7086  0.1431 -0.0232
  816MOL0     C10035   6.063   7.157   3.558  0.1420  0.3773 -0.2857
  816MOL0     C10036   5.920   7.174   3.606  0.5063 -0.7931 -0.0572
  816MOL0     C10037   5.845   7.221   3.482 -1.1746 -0.1479 -0.0790
  816MOL0     C10038   5.698   7.207   3.496  0.0485 -0.0199  0.5826
  816MOL0     C10039   5.628   7.291   3.380 -0.0777 -0.0619 -0.5476
  816MOL0     C10040   5.483   7.246   3.375  0.1568  0.8047  0.9543
  816MOL0     C10041   5.395   7.306   3.483  0.3750  0.3198 -0.0414
  816MOL0     N10042   5.248   7.274   3.452  0.3753 -0.0608  0.5609
  816MOL0     C10043   5.169   7.355   3.372  0.1112 -0.1085 -0.2969
  816MOL0     C10044   5.044   7.302   3.382 -0.3547  0.5707  0.1801
  816MOL0     C10045   4.912   7.350   3.328 -0.2206 -1.1289  0.4243
  816MOL0     C10046   4.783   7.273   3.381 -0.1365 -0.2699  0.5234
  816MOL0     C10047   4.649   7.328   3.316 -0.4159  0.1020  0.0507
  816MOL0     C10048   4.533   7.245   3.359  0.1044 -0.3807  0.2696
  816MOL0     O10049   4.418   7.266   3.273 -0.0189 -0.0997 -0.4061
  816MOL0     C10050   4.287   7.232   3.312  0.6011  0.6666 -0.5402
  816MOL0     C10051   4.199   7.178   3.214  0.7342 -0.1955  0.2195
  816MOL0     C10052   4.066   7.150   3.245  0.2227  0.5891  0.6704
  816MOL0     C10053   3.989   7.127   3.128 -0.2958 -0.2417 -0.1367
  816MOL0     C10054   4.021   7.188   3.375  0.8960  0.3672 -0.1007
  816MOL0     C10055   3.883   7.167   3.425 -0.1871 -0.3499 -0.1765
  816MOL0     O10056   3.857   7.173   3.560 -0.0125  0.6318 -0.3962
  816MOL0     C10057   3.733   7.152   3.621 -0.0922  0.0641 -0.5914
  816MOL0     C10058   3.607   7.139   3.565 -0.0887  0.6641  0.4290
  816MOL0     C10059   3.497   7.129   3.642  0.6788  0.5465  0.9381
  816MOL0     C10060   3.500   7.133   3.781  0.8162  0.0574  0.2896
  816MOL0     O10061   3.389   7.120   3.862  0.5060 -0.3885  0.1652
  816MOL0     C10062   3.349   7.247   3.922 -0.7830 -0.6864  1.0629
  816MOL0     C10063   3.229   7.321   3.858  0.1406 -0.9704 -0.3251
  816MOL0     C10064   3.112   7.228   3.818  0.4163  0.1956  0.8568
  816MOL0     C10065   2.994   7.310   3.757  0.2030  0.1051  0.2405
  816MOL0     C10066   2.894   7.219   3.677  0.7182  0.0551 -0.4682
  816MOL0     C10067   2.763   7.287   3.630  0.1289  0.3985 -0.2413
  816MOL0     C10068   2.661   7.348   3.717  0.3754  0.5034 -0.8100
  816MOL0     C10069   2.615   7.256   3.825 -0.2295 -0.1695 -0.6210
  816MOL0    Cl10070   2.730   7.264   3.966 -0.1563  0.4286 -0.5823
  816MOL0     C10071   3.621   7.137   3.841 -0.2479 -1.2106 -0.0577
  816MOL0     C10072   3.742   7.149   3.768  0.6446 -0.4806  0.2313
  816MOL0     O10073   3.797   7.141   3.345  0.7792  0.1991  0.1174
  816MOL0     C10074   4.115   7.236   3.477  1.1466 -0.7099  0.1092
  816MOL0     C10075   4.244   7.263   3.442 -0.3374  0.0932  0.4911
  816MOL0     N10076   5.047   7.188   3.465 -0.1270 -0.1306 -0.4587
  816MOL0     N10077   5.168   7.180   3.517 -0.2470 -0.5542  0.5225
  816MOL0     C10078   6.239   6.794   3.412  0.5717  0.4064  0.5881
  816MOL0     C10079   6.296   6.678   3.361  0.0590 -1.1605 -0.1817
  816MOL0     C10080   6.526   6.335   3.222 -0.6475  0.0261 -0.3887
  816MOL0     C10081   6.470   6.214   3.195  0.3251 -0.5461  0.1305
  816MOL0     C10082   6.543   6.098   3.186 -0.7592 -0.5759  0.1914
  816MOL0     C10083   6.688   6.108   3.182 -0.3470 -0.8014  0.7879
  816MOL0     O10084   6.766   6.002   3.148  0.2008 -1.0726  1.2524
  816MOL0     C10085   6.703   5.877   3.113  0.0926 -0.0101 -1.0574
  816MOL0     C10086   6.816   5.771   3.116  1.2010  0.1766 -0.4571
  816MOL0     C10087   6.750   5.639   3.070 -0.1912 -0.9879 -0.4317
  816MOL0     C10088   6.840   5.519   3.083  0.0769  0.3067 -0.5743
  816MOL0     C10089   6.973   5.541   3.023 -0.5199  0.5405 -0.2601
  816MOL0     C10090   7.079   5.563   2.970 -0.1027 -0.0447 -0.9078
  816MOL0     C10091   6.745   6.238   3.195  0.2888 -0.3558  0.6372
  816MOL0     C10092   6.666   6.343   3.224 -0.2952 -0.8767 -0.1781
  816MOL0     H10093   6.572   6.820   3.226  1.8959 -2.1901  1.2891
  816MOL0     H10094   6.454   7.029   3.323  0.9531 -0.4071  0.1894
  816MOL0     H10095   6.017   6.977   3.436  0.1676  1.1040 -1.7324
  816MOL0     H10096   6.103   6.947   3.585 -2.8616  1.0246  1.0038
  816MOL0     H10097   6.127   7.189   3.641 -1.7393  0.4043  1.2384
  816MOL0     H10098   6.087   7.223   3.475  3.1009 -1.1847 -0.8290
  816MOL0     H10099   5.877   7.083   3.648 -4.3337  1.9298  1.7260
  816MOL0     H10100   5.907   7.244   3.689  2.5499 -1.1048  0.5802
  816MOL0     H10101   5.869   7.326   3.466 -0.7420 -0.6814 -3.6976
  816MOL0     H10102   5.876   7.163   3.395  2.0379  1.5857 -0.2378
  816MOL0     H10103   5.663   7.104   3.490  3.1019 -1.1930  1.1545
  816MOL0     H10104   5.672   7.256   3.590 -0.5718  0.8524 -0.0250
  816MOL0     H10105   5.646   7.397   3.399 -0.0153  0.0884 -1.4068
  816MOL0     H10106   5.675   7.278   3.282 -0.0794  3.5883 -1.1631
  816MOL0     H10107   5.440   7.282   3.280  1.6481 -1.2910 -0.5963
  816MOL0     H10108   5.473   7.139   3.391 -0.0281  0.9542  1.9286
  816MOL0     H10109   5.414   7.414   3.475 -0.5220  0.5527  0.7636
  816MOL0     H10110   5.415   7.266   3.583 -0.0292 -0.7424 -0.3670
  816MOL0     H10111   5.207   7.440   3.316 -1.4018  1.8055  1.4424
  816MOL0     H10112   4.893   7.453   3.361  1.7219 -0.2699 -0.9533
  816MOL0     H10113   4.919   7.345   3.219  0.4948 -2.4281  0.5219
  816MOL0     H10114   4.764   7.288   3.488  1.6412 -1.6425  1.0862
  816MOL0     H10115   4.796   7.166   3.366 -1.5330 -0.1009 -2.6190
  816MOL0     H10116   4.652   7.315   3.208  0.7195 -1.7607  0.2587
  816MOL0     H10117   4.630   7.432   3.346 -0.6698  0.4003 -1.1092
  816MOL0     H10118   4.518   7.275   3.463  4.0110 -1.5272  1.3100
  816MOL0     H10119   4.556   7.138   3.367 -0.7836 -0.8259 -2.2714
  816MOL0     H10120   4.249   7.168   3.118  0.3292  0.9949 -0.1303
  816MOL0     H10121   4.048   7.101   3.040  1.3743  2.4650  0.0666
  816MOL0     H10122   3.913   7.049   3.140  0.0906 -0.7310 -0.8523
  816MOL0     H10123   3.934   7.217   3.100  0.0931 -0.5107 -1.8389
  816MOL0     H10124   3.582   7.133   3.460 -0.7475  0.9784  0.5546
  816MOL0     H10125   3.408   7.116   3.582  1.4426  1.8519 -0.5695
  816MOL0     H10126   3.334   7.239   4.030 -1.4026  1.2141  1.1461
  816MOL0     H10127   3.425   7.324   3.901  0.3766 -2.2725 -0.9137
  816MOL0     H10128   3.193   7.403   3.920 -1.0183  1.3218 -3.7526
  816MOL0     H10129   3.269   7.365   3.766  0.9723 -0.1991  0.3822
  816MOL0     H10130   3.075   7.177   3.908 -0.5948  1.7098  1.3338
  816MOL0     H10131   3.140   7.155   3.742  3.5464  0.8312  1.2626
  816MOL0     H10132   2.937   7.362   3.835 -1.2007 -0.7723 -0.1658
  816MOL0     H10133   3.043   7.386   3.696  0.4054  1.7069  2.2814
  816MOL0     H10134   2.861   7.129   3.729  0.9077 -0.9933 -2.0943
  816MOL0     H10135   2.945   7.176   3.590 -0.1745 -0.6672 -0.6460
  816MOL0     H10136   2.796   7.374   3.572 -2.0517 -0.0030 -2.2472
  816MOL0     H10137   2.704   7.227   3.559  0.7876  1.0171 -1.3358
  816MOL0     H10138   2.574   7.371   3.654 -0.6262  0.7328  0.6106
  816MOL0     H10139   2.684   7.445   3.763 -2.0118  0.0731  1.5245
  816MOL0     H10140   2.596   7.154   3.789  0.9828 -0.9787  0.9030
  816MOL0     H10141   2.522   7.302   3.860  0.3613  0.2645  0.4213
  816MOL0     H10142   3.626   7.146   3.949  2.1186 -2.2734 -0.0188
  816MOL0     H10143   3.839   7.172   3.813  0.7346  2.3015 -1.1626
  816MOL0     H10144   4.084   7.268   3.576 -0.5826  0.6705 -0.8104
  816MOL0     H10145   4.313   7.307   3.513  0.2210  0.3652 -0.2012
  816MOL0     H10146   6.141   6.778   3.457  1.1490 -1.0946  1.3835
  816MOL0     H10147   6.239   6.586   3.363 -0.6072 -0.9589 -3.4143
  816MOL0     H10148   6.361   6.210   3.198  0.1767  1.5302 -0.8402
  816MOL0     H10149   6.487   6.007   3.166 -0.1722 -0.8500 -0.2491
  816MOL0     H10150   6.636   5.849   3.195 -1.4242  3.1050 -1.1138
  816MOL0     H10151   6.655   5.878   3.015 -0.9290 -1.5523 -0.6091
  816MOL0     H10152   6.854   5.765   3.218  0.3450  1.9663 -0.0039
  816MOL0     H10153   6.899   5.794   3.049  0.6971 -0.2176 -1.2327
  816MOL0     H10154   6.722   5.640   2.964  1.2604  0.0779 -0.8296
  816MOL0     H10155   6.662   5.615   3.131  0.7647 -0.8965  1.0210
  816MOL0     H10156   6.785   5.440   3.031  2.8692 -0.9707 -1.7983
  816MOL0     H10157   6.846   5.485   3.187 -4.3362 -1.8925 -0.7672
  816MOL0     H10158   7.179   5.585   2.938  0.3550 -1.4182 -0.4971
  816MOL0     H10159   6.852   6.256   3.195  0.2079  0.1781 -0.6562
  816MOL0     H10160   6.717   6.436   3.247  1.1271 -0.5820 -3.8175
  817MOL0     O10161   3.488   7.930   9.110 -0.5864 -0.1062 -0.2032
  817MOL0     C10162   3.534   7.940   9.225 -0.6732 -0.8451  0.3762
  817MOL0     O10163   3.457   7.964   9.339 -0.2538  0.1761 -0.1904
  817MOL0     C10164   3.322   7.949   9.341  0.1418  0.1448  0.4766
  817MOL0     C10165   3.240   7.869   9.257  0.1751  1.1646 -0.7498
  817MOL0     C10166   3.102   7.853   9.268 -0.0724  0.1896 -0.1230
  817MOL0     C10167   3.043   7.924   9.374 -0.2521  0.1189 -1.2172
  817MOL0     O10168   2.911   7.923   9.403 -0.4044  0.0579  0.5499
  817MOL0     C10169   2.835   7.810   9.354 -0.1002  0.0773  0.0383
  817MOL0     C10170   2.681   7.813   9.396  0.5785  0.0706  0.2418
  817MOL0     C10171   2.623   7.676   9.370 -0.2940  0.2106  0.4316
  817MOL0     C10172   2.472   7.682   9.401  0.6023  0.7687  0.5283
  817MOL0     C10173   2.388   7.694   9.274 -0.1959 -0.2782  0.1607
  817MOL0     C10174   2.242   7.703   9.315  0.4042 -0.0321  1.1430
  817MOL0     C10175   2.148   7.679   9.198 -0.0896  0.1947  0.2168
  817MOL0     C10176   2.007   7.671   9.232 -0.7336  0.0761  0.1467
  817MOL0     N10177   1.927   7.638   9.116  1.1768 -0.0117  0.0270
  817MOL0     C10178   1.856   7.518   9.118 -0.2852  0.1997  0.4266
  817MOL0     C10179   1.767   7.521   9.013  0.2393 -0.6213 -0.8262
  817MOL0     C10180   1.652   7.426   8.970  0.5994 -0.2524 -0.5541
  817MOL0     C10181   1.525   7.480   9.026  0.7989  0.7300  0.1973
  817MOL0     C10182   1.420   7.369   9.002 -1.3854 -0.0498 -0.3270
  817MOL0     C10183   1.282   7.421   9.039  1.0061  0.5484 -0.1711
  817MOL0     O10184   1.181   7.335   8.979  0.0040  0.4709 -0.0110
  817MOL0     C10185   1.052   7.352   8.999  1.4188 -0.4619 -1.0774
  817MOL0     C10186   0.966   7.253   8.942 -0.2143 -0.7612 -0.3990
  817MOL0     C10187   0.824   7.246   8.954  0.1826 -0.1413 -0.1261
  817MOL0     C10188   0.755   7.129   8.889 -0.0737  0.1150 -0.2566
  817MOL0     C10189   0.760   7.358   9.007 -1.2131  0.2411  0.6708
  817MOL0     C10190   0.612   7.391   9.014  0.2563 -0.0034  0.4985
  817MOL0     O10191   0.570   7.505   9.075  0.3842  0.1760  0.1068
  817MOL0     C10192   0.443   7.547   9.061  0.7677  0.0936 -0.2390
  817MOL0     C10193   0.378   7.590   9.179  0.0290  0.3210  0.1119
  817MOL0     C10194   0.247   7.635   9.178  0.2741 -0.4710  0.5395
  817MOL0     C10195   0.171   7.662   9.063  0.0295  0.6054  0.1381
  817MOL0     O10196   0.040   7.698   9.060 -0.8183 -0.2928 -1.0275
  817MOL0     C10197  -0.012   7.797   8.965  0.0588 -0.6103  0.1045
  817MOL0     C10198  -0.091   7.900   9.037  0.2409  0.8126  0.0675
  817MOL0     C10199  -0.214   7.847   9.107  0.5564 -0.3716 -0.2736
  817MOL0     C10200  -0.303   7.958   9.165  0.3949 -0.0126 -0.3523
  817MOL0     C10201  -0.369   8.057   9.064 -0.0212  0.3146  0.2534
  817MOL0     C10202  -0.448   7.991   8.948  0.6794  0.1004  0.3339
  817MOL0     C10203  -0.563   7.910   8.995  0.7490  0.2204 -0.5287
  817MOL0     C10204  -0.598   7.804   8.894  0.0074 -0.1151  0.8005
  817MOL0    Cl10205  -0.766   7.756   8.913 -0.2071 -0.1654 -0.5187
  817MOL0     C10206   0.231   7.624   8.942 -0.4687 -0.6107 -0.3489
  817MOL0     C10207   0.364   7.561   8.942 -0.7863 -0.6962 -0.8453
  817MOL0     O10208   0.536   7.298   8.979 -0.3011 -0.2457  0.0890
  817MOL0     C10209   0.844   7.456   9.068  0.0210  0.0554 -0.5733
  817MOL0     C10210   0.987   7.458   9.061 -0.0096 -0.0489  0.2612
  817MOL0     N10211   1.781   7.647   8.963  0.4071  0.5417 -0.3499
  817MOL0     N10212   1.866   7.713   9.023 -0.6490 -0.4193  0.0774
  817MOL0     C10213   3.124   7.997   9.456  0.8587 -0.9644 -0.3408
  817MOL0     C10214   3.264   8.015   9.442  0.6023  0.2699 -0.2660
  817MOL0     C10215   3.676   7.908   9.234  0.8276 -0.2716  0.2177
  817MOL0     C10216   3.762   7.968   9.330 -0.1878  0.1467  0.2949
  817MOL0     C10217   3.896   7.937   9.334  0.5315 -0.1148  0.0474
  817MOL0     C10218   3.948   7.839   9.250  0.0631  0.3708  0.3059
  817MOL0     O10219   4.072   7.783   9.257 -0.1804  0.0129 -0.1273
  817MOL0     C10220   4.119   7.779   9.389  0.4379  0.1403  0.3827
  817MOL0     C10221   4.255   7.704   9.388  0.0378  0.5169 -0.0609
  817MOL0     C10222   4.367   7.745   9.285  1.0831  0.7114 -0.0807
  817MOL0     C10223   4.405   7.891   9.309 -0.2371 -0.1032  0.3554
  817MOL0     C10224   4.507   7.939   9.214 -1.0274  0.6560  0.4239
  817MOL0     C10225   4.570   7.978   9.118  0.1232 -0.5680  0.4068
  817MOL0     C10226   3.863   7.788   9.143  0.1337  0.1945 -0.4286
  817MOL0     C10227   3.733   7.822   9.137 -0.0707 -0.2176 -0.1962
  817MOL0     H10228   3.286   7.811   9.178 -3.1004  0.0670 -1.9970
  817MOL0     H10229   3.036   7.790   9.210 -1.5231 -1.0701  2.6807
  817MOL0     H10230   2.827   7.805   9.245 -0.2321 -0.8275  0.0797
  817MOL0     H10231   2.880   7.717   9.391  0.4204  0.4611  0.3828
  817MOL0     H10232   2.668   7.843   9.501  1.9537  0.3623  0.3466
  817MOL0     H10233   2.631   7.888   9.335 -2.2827 -0.7018  1.4598
  817MOL0     H10234   2.646   7.625   9.276 -1.8593 -2.8391  1.5608
  817MOL0     H10235   2.682   7.618   9.442  4.2025  4.0247  0.3342
  817MOL0     H10236   2.448   7.585   9.446  0.5046  0.5597  0.0316
  817MOL0     H10237   2.452   7.764   9.470 -0.2076  1.3080 -0.3198
  817MOL0     H10238   2.420   7.787   9.227 -2.4171  0.8656  0.7923
  817MOL0     H10239   2.410   7.602   9.219  2.3417  0.1499  0.3494
  817MOL0     H10240   2.226   7.618   9.382 -2.2315  0.6765  1.5052
  817MOL0     H10241   2.219   7.798   9.364  0.0911  0.4997 -0.0064
  817MOL0     H10242   2.160   7.768   9.137  0.1468 -1.8600 -2.9827
  817MOL0     H10243   2.176   7.596   9.132  0.3118 -0.4213  1.1313
  817MOL0     H10244   1.970   7.769   9.266 -1.2885  0.0721 -0.4256
  817MOL0     H10245   2.002   7.603   9.317  0.7776 -1.6984 -1.1117
  817MOL0     H10246   1.881   7.439   9.187  0.4758 -1.7144 -1.8922
  817MOL0     H10247   1.658   7.423   8.861  0.7401 -0.5040 -0.5423
  817MOL0     H10248   1.662   7.321   9.001 -3.1198 -0.3074  1.0670
  817MOL0     H10249   1.498   7.574   8.977 -1.8845  1.8774  3.4583
  817MOL0     H10250   1.540   7.489   9.134 -4.0431 -0.2152  1.1604
  817MOL0     H10251   1.459   7.278   9.050  1.9301 -0.2238 -2.9985
  817MOL0     H10252   1.410   7.355   8.894 -2.3956 -0.1408 -0.2299
  817MOL0     H10253   1.266   7.524   9.006  0.2362  0.6447  0.4580
  817MOL0     H10254   1.270   7.435   9.147  3.0021  0.2499  0.1287
  817MOL0     H10255   1.014   7.172   8.889  0.3519 -1.6248  1.3677
  817MOL0     H10256   0.830   7.052   8.865  0.9308  1.1666 -0.5827
  817MOL0     H10257   0.691   7.077   8.961  1.1486 -1.4438 -0.2195
  817MOL0     H10258   0.693   7.154   8.803 -1.9880 -1.3720  0.6011
  817MOL0     H10259   0.425   7.595   9.277 -1.7164  0.4426  0.9794
  817MOL0     H10260   0.201   7.656   9.275  0.8696 -2.0975  1.2133
  817MOL0     H10261   0.062   7.841   8.897 -1.3415  1.6472 -0.0755
  817MOL0     H10262  -0.089   7.748   8.904 -0.6101  0.1553  0.3145
  817MOL0     H10263  -0.013   7.942   9.101  1.7242 -0.4029 -0.8788
  817MOL0     H10264  -0.130   7.968   8.960  3.0968  0.0383 -2.2194
  817MOL0     H10265  -0.180   7.778   9.185 -1.5607 -1.0045  0.1656
  817MOL0     H10266  -0.272   7.787   9.037 -0.2781 -1.5160  1.3222
  817MOL0     H10267  -0.383   7.909   9.221  1.2999  0.6615  1.6567
  817MOL0     H10268  -0.242   8.018   9.234 -1.1732 -1.8954  2.9260
  817MOL0     H10269  -0.288   8.118   9.023  2.1981 -2.8699 -0.5582
  817MOL0     H10270  -0.441   8.121   9.115 -2.7852 -2.5279  0.2536
  817MOL0     H10271  -0.468   8.075   8.881  1.4196  0.6134  0.7363
  817MOL0     H10272  -0.381   7.923   8.894  0.4000  0.5556 -0.6052
  817MOL0     H10273  -0.646   7.980   9.005 -0.2131 -0.9173 -0.3275
  817MOL0     H10274  -0.553   7.862   9.093 -3.6926 -5.2057 -2.2263
  817MOL0     H10275  -0.528   7.721   8.900  4.6428  3.2966 -0.4218
  817MOL0     H10276  -0.604   7.851   8.795  0.2610  0.4910  1.0662
  817MOL0     H10277   0.191   7.645   8.843  0.7178  1.7135 -0.3994
  817MOL0     H10278   0.414   7.542   8.847  1.3223 -1.5909  0.3940
  817MOL0     H10279   0.808   7.542   9.123  1.5281  0.2830  0.1167
  817MOL0     H10280   1.038   7.546   9.100 -2.9175  1.3576  1.1256
  817MOL0     H10281   3.082   8.034   9.549  1.6243  0.4573 -0.5394
  817MOL0     H10282   3.300   8.078   9.523 -1.5896  0.3367  0.7167
  817MOL0     H10283   3.725   8.044   9.398  0.1183 -1.1304  1.9500
  817MOL0     H10284   3.964   7.997   9.394  0.2060  1.1828 -0.8242
  817MOL0     H10285   4.130   7.883   9.423 -0.7305  0.6099 -0.6119
  817MOL0     H10286   4.042   7.718   9.437 -0.1906  0.8339  0.2773
  817MOL0     H10287   4.229   7.599   9.376  1.3160  0.1891 -0.0756
  817MOL0     H10288   4.297   7.714   9.488  2.5076  2.2722 -1.1673
  817MOL0     H10289   4.324   7.717   9.188  0.9743  1.4451 -0.2488
  817MOL0     H10290   4.451   7.681   9.314 -0.2580 -1.2214 -0.2764
  817MOL0     H10291   4.439   7.912   9.411 -3.4090 -1.5237  1.8303
  817MOL0     H10292   4.311   7.943   9.288 -1.1278 -0.9693  2.0357
  817MOL0     H10293   4.623   8.027   9.038 -2.9373  0.2455 -1.2912
  817MOL0     H10294   3.887   7.723   9.059 -1.3171  0.0831 -0.7879
  817MOL0     H10295   3.676   7.774   9.058 -2.1854  0.4102  0.8685
  818MOL0     O10296   3.209  10.544   1.480 -0.0095 -0.5550  0.7388
  818MOL0     C10297   3.249  10.662   1.468 -0.0756  0.6166  0.6696
  818MOL0     O10298   3.199  10.768   1.533  0.0609 -0.1524 -0.5720
  818MOL0     C10299   3.076  10.769   1.596 -0.3508 -0.5632 -0.4518
  818MOL0     C10300   3.000  10.888   1.600  0.7823 -0.4895 -1.2633
  818MOL0     C10301   2.869  10.895   1.649 -0.0394 -0.2055 -0.3773
  818MOL0     C10302   2.811  10.785   1.704  0.4642  0.2106 -0.3789
  818MOL0     O10303   2.691  10.767   1.772 -0.6547  0.7080  0.0024
  818MOL0     C10304   2.596  10.877   1.773 -0.1145 -0.1904  0.1488
  818MOL0     C10305   2.460  10.828   1.830  0.0933  0.0893  0.4108
  818MOL0     C10306   2.486  10.777   1.976  0.3624  0.5105  0.7339
  818MOL0     C10307   2.368  10.762   2.058  0.6293 -1.8372 -0.5619
  818MOL0     C10308   2.409  10.727   2.200  0.2767  1.2999 -0.7724
  818MOL0     C10309   2.283  10.718   2.294 -0.0969 -0.0531 -1.2020
  818MOL0     C10310   2.162  10.638   2.249 -0.0146 -0.4680  0.4731
  818MOL0     C10311   2.039  10.632   2.348 -0.0538  0.5627  0.2266
  818MOL0     N10312   1.925  10.564   2.276 -0.3373  0.1106 -0.2472
  818MOL0     C10313   1.841  10.482   2.351 -0.1657 -0.1695 -0.0494
  818MOL0     C10314   1.724  10.516   2.299  0.2461 -0.2031 -0.0498
  818MOL0     C10315   1.587  10.486   2.356  0.7005 -1.0266  0.3296
  818MOL0     C10316   1.501  10.610   2.391 -0.3996  0.4005 -0.2385
  818MOL0     C10317   1.563  10.677   2.516 -0.0458  0.0206  0.0432
  818MOL0     C10318   1.473  10.789   2.550 -0.3566  0.1693 -0.1109
  818MOL0     O10319   1.355  10.751   2.612  0.5739 -0.7789 -1.1690
  818MOL0     C10320   1.268  10.851   2.649 -0.5859 -0.3559  0.8279
  818MOL0     C10321   1.291  10.991   2.628  0.1866 -0.3693  0.6347
  818MOL0     C10322   1.201  11.088   2.666 -0.4593  0.1814  0.1007
  818MOL0     C10323   1.244  11.229   2.649  0.4165  0.3556 -0.4047
  818MOL0     C10324   1.082  11.049   2.723 -0.7267 -0.4767  0.0104
  818MOL0     C10325   0.975  11.139   2.761 -0.8011  0.4814  0.7585
  818MOL0     O10326   0.909  11.105   2.872 -0.1062  0.0597 -0.1433
  818MOL0     C10327   0.784  11.164   2.884  0.4240  0.5990  0.2981
  818MOL0     C10328   0.673  11.081   2.885  0.3184  1.0949  0.1770
  818MOL0     C10329   0.550  11.127   2.930  0.3204  0.1785  0.1231
  818MOL0     C10330   0.532  11.264   2.968  0.3667  0.1305  0.3839
  818MOL0     O10331   0.417  11.314   3.009  0.9175  0.1190 -0.4075
  818MOL0     C10332   0.392  11.434   3.082  0.1447 -0.4380  0.0051
  818MOL0     C10333   0.381  11.548   2.986  0.2090  0.0264  0.8285
  818MOL0     C10334   0.241  11.618   2.989 -0.9473  0.2328  0.2160
  818MOL0     C10335   0.138  11.538   2.898  0.3629  0.3447 -1.0335
  818MOL0     C10336  -0.012  11.586   2.925 -0.4655  0.8312  0.5660
  818MOL0     C10337  -0.112  11.538   2.816 -0.1815  0.1550  0.2085
  818MOL0     C10338  -0.258  11.580   2.850 -0.2383 -0.9949  0.5432
  818MOL0     C10339  -0.359  11.545   2.742 -0.5156 -0.3988 -0.2362
  818MOL0    Cl10340  -0.338  11.375   2.686 -0.4042  0.0644  0.3781
  818MOL0     C10341   0.643  11.345   2.951  0.0261 -0.2858  0.1842
  818MOL0     C10342   0.764  11.298   2.918  0.1732  0.0459 -0.6383
  818MOL0     O10343   0.955  11.231   2.686  0.1189 -0.0729  0.6464
  818MOL0     C10344   1.052  10.915   2.738  0.4088  0.1179 -0.0744
  818MOL0     C10345   1.140  10.814   2.696 -0.2760 -0.3697 -0.3727
  818MOL0     N10346   1.735  10.587   2.188 -0.4943 -0.1079  0.1185
  818MOL0     N10347   1.860  10.622   2.166 -0.5567 -0.1971 -0.0558
  818MOL0     C10348   2.895  10.666   1.721  0.3936 -0.2282  0.3661
  818MOL0     C10349   3.025  10.661   1.670  0.4152 -1.2165 -0.0460
  818MOL0     C10350   3.355  10.688   1.363 -0.5171  0.2550 -0.3580
  818MOL0     C10351   3.436  10.582   1.318 -1.2958  0.2666  0.1809
  818MOL0     C10352   3.533  10.607   1.222 -0.9202  0.6769 -0.3835
  818MOL0     C10353   3.562  10.731   1.172  0.2087  0.3122 -0.1339
  818MOL0     O10354   3.663  10.754   1.084  0.1215 -0.0389 -0.6863
  818MOL0     C10355   3.629  10.716   0.951  0.4421  0.3172 -0.3256
  818MOL0     C10356   3.684  10.818   0.852 -0.1160  0.1480 -0.1620
  818MOL0     C10357   3.684  10.961   0.892  0.6896 -0.1980 -0.0087
  818MOL0     C10358   3.729  11.039   0.770 -0.4198 -1.4610  0.0495
  818MOL0     C10359   3.750  11.180   0.798  0.0543 -0.2651  0.2818
  818MOL0     C10360   3.760  11.295   0.825  0.4909 -0.1812  0.0359
  818MOL0     C10361   3.494  10.835   1.229  0.2713 -0.5269 -0.0632
  818MOL0     C10362   3.389  10.821   1.318  0.2661  0.3171  0.1268
  818MOL0     H10363   3.056  10.972   1.560  1.5255  1.0475  2.5809
  818MOL0     H10364   2.814  10.988   1.647 -2.5992 -1.5512  1.5296
  818MOL0     H10365   2.638  10.962   1.826  0.5670 -1.3210  1.5016
  818MOL0     H10366   2.590  10.906   1.668  1.6301  4.6910  1.1708
  818MOL0     H10367   2.391  10.913   1.828  0.2126  0.2489  1.9489
  818MOL0     H10368   2.441  10.737   1.772  2.7189 -1.6059  2.0001
  818MOL0     H10369   2.540  10.682   1.981 -1.2122 -0.3447  2.9775
  818MOL0     H10370   2.557  10.847   2.020  0.3912 -0.3087  2.0397
  818MOL0     H10371   2.309  10.854   2.053  0.6104 -1.8207 -0.1148
  818MOL0     H10372   2.301  10.680   2.032 -1.7841 -0.2083  0.1748
  818MOL0     H10373   2.462  10.631   2.198 -0.3756  0.8929  0.4544
  818MOL0     H10374   2.479  10.797   2.246 -0.2831  1.4537 -0.1425
  818MOL0     H10375   2.306  10.671   2.390  1.7858  0.4963 -1.3376
  818MOL0     H10376   2.250  10.819   2.321 -0.2146 -0.6740  1.1699
  818MOL0     H10377   2.130  10.678   2.152  1.4165 -0.4820 -0.0272
  818MOL0     H10378   2.185  10.533   2.230  0.2670 -0.2604 -0.4074
  818MOL0     H10379   2.002  10.733   2.368 -0.8784  0.1378  0.9028
  818MOL0     H10380   2.060  10.579   2.441  1.0031  0.3574 -0.1072
  818MOL0     H10381   1.860  10.432   2.446  1.0957  0.9996  0.3544
  818MOL0     H10382   1.531  10.425   2.284 -1.2566  0.7004  0.2961
  818MOL0     H10383   1.597  10.429   2.449 -0.8818 -2.3277 -0.2564
  818MOL0     H10384   1.396  10.584   2.410 -1.0817  1.2621 -2.4522
  818MOL0     H10385   1.503  10.671   2.300 -1.3291  0.9979  0.1267
  818MOL0     H10386   1.664  10.718   2.508 -0.0679 -0.3191 -2.7201
  818MOL0     H10387   1.566  10.611   2.604  2.1095 -1.4748 -1.0684
  818MOL0     H10388   1.451  10.830   2.452  0.2101 -0.0841 -0.3434
  818MOL0     H10389   1.533  10.868   2.597  1.2037 -0.3294 -1.2091
  818MOL0     H10390   1.385  11.024   2.584 -0.3003  1.0418  0.6048
  818MOL0     H10391   1.161  11.276   2.595  0.0362 -0.7255 -0.7956
  818MOL0     H10392   1.256  11.275   2.747  0.6179 -0.0993 -0.2172
  818MOL0     H10393   1.327  11.247   2.580 -0.0381  0.8182 -0.8370
  818MOL0     H10394   0.672  10.981   2.842 -0.5808  0.6652  1.1543
  818MOL0     H10395   0.467  11.057   2.935  0.1753  0.1562 -1.8402
  818MOL0     H10396   0.305  11.411   3.143  1.1655 -2.2244  0.8730
  818MOL0     H10397   0.481  11.457   3.142  0.1609  0.2694 -0.2828
  818MOL0     H10398   0.460  11.622   3.001 -0.8957  1.2241  0.9771
  818MOL0     H10399   0.402  11.520   2.882 -0.6582  1.3084  0.2791
  818MOL0     H10400   0.248  11.720   2.949 -0.7104 -0.6271 -2.1072
  818MOL0     H10401   0.210  11.635   3.092 -0.5017 -3.5498  1.1050
  818MOL0     H10402   0.170  11.549   2.794  1.6633  0.6205 -0.6215
  818MOL0     H10403   0.152  11.430   2.912  2.8718  0.9584  2.3928
  818MOL0     H10404  -0.018  11.694   2.938 -1.0212  0.7797  0.7887
  818MOL0     H10405  -0.036  11.542   3.023  1.7090  2.2006  1.7802
  818MOL0     H10406  -0.063  11.576   2.726  4.7238  0.6440  2.7318
  818MOL0     H10407  -0.103  11.429   2.816 -1.9771 -0.0199 -0.3966
  818MOL0     H10408  -0.263  11.687   2.868 -0.0099 -0.4345 -2.2773
  818MOL0     H10409  -0.296  11.513   2.928  1.5482  0.6113  2.9556
  818MOL0     H10410  -0.357  11.612   2.655 -2.3019  2.1798  1.5750
  818MOL0     H10411  -0.460  11.558   2.782 -0.6066  1.8562 -1.0423
  818MOL0     H10412   0.636  11.453   2.964 -0.7808 -0.2480 -0.4886
  818MOL0     H10413   0.861  11.347   2.918  2.1228 -3.4740 -1.3894
  818MOL0     H10414   0.951  10.886   2.764  0.2139  0.1044 -0.8257
  818MOL0     H10415   1.123  10.707   2.703 -0.1240 -0.5385 -2.0857
  818MOL0     H10416   2.857  10.574   1.764 -3.2227  0.7661 -0.3560
  818MOL0     H10417   3.081  10.568   1.678 -1.5616 -2.4403  0.5015
  818MOL0     H10418   3.426  10.482   1.360 -1.6247 -0.4014 -1.3968
  818MOL0     H10419   3.595  10.522   1.196  2.0491  1.2758  3.6425
  818MOL0     H10420   3.656  10.611   0.936 -1.2037 -0.9103  3.8588
  818MOL0     H10421   3.522  10.730   0.932 -0.4043 -4.4552 -0.4914
  818MOL0     H10422   3.631  10.818   0.757 -1.6680  1.1051  0.6525
  818MOL0     H10423   3.789  10.789   0.846  0.3342  1.9174 -1.7992
  818MOL0     H10424   3.758  10.970   0.973 -0.4118 -1.2913  1.1831
  818MOL0     H10425   3.588  10.993   0.935 -0.2351 -0.3191 -1.8862
  818MOL0     H10426   3.653  11.038   0.691  0.2463 -0.9363 -0.6046
  818MOL0     H10427   3.824  10.990   0.744  0.9634 -0.6854  3.1547
  818MOL0     H10428   3.770  11.392   0.871 -0.3776 -0.2139  0.3053
  818MOL0     H10429   3.514  10.933   1.186 -0.0892 -0.0407  0.8432
  818MOL0     H10430   3.332  10.905   1.356  1.3517  2.0111 -1.7688
  819MOL0     O10431   2.271   4.184  11.223 -0.1936  0.0677  0.1437
  819MOL0     C10432   2.277   4.202  11.346 -0.2553 -0.5163 -1.0493
  819MOL0     O10433   2.175   4.242  11.427 -1.1568  0.1433  0.0718
  819MOL0     C10434   2.048   4.263  11.369 -0.5573  0.6326  0.6601
  819MOL0     C10435   1.959   4.150  11.366 -0.2916 -0.2152  0.5352
  819MOL0     C10436   1.842   4.170  11.292  0.6258 -0.3679 -0.4219
  819MOL0     C10437   1.808   4.293  11.250  0.2455 -0.0533  0.5462
  819MOL0     O10438   1.676   4.291  11.210  0.0420  0.2399  0.1137
  819MOL0     C10439   1.608   4.422  11.188 -0.5803 -0.3697  0.1758
  819MOL0     C10440   1.465   4.400  11.139 -0.4601  0.0697  0.1290
  819MOL0     C10441   1.392   4.530  11.108 -0.3059 -0.7667  0.3600
  819MOL0     C10442   1.386   4.624  11.229 -0.4858 -0.5169  0.3180
  819MOL0     C10443   1.311   4.761  11.215  0.1675 -0.9367 -0.1697
  819MOL0     C10444   1.161   4.751  11.237  0.2279 -0.1450 -0.0867
  819MOL0     C10445   1.088   4.880  11.208  0.2599 -0.2550 -0.1121
  819MOL0     C10446   1.078   4.913  11.054 -0.6812  0.8403  0.1839
  819MOL0     N10447   0.982   4.824  11.000  1.0247  0.3389 -0.2106
  819MOL0     C10448   0.844   4.843  11.001  0.0599  0.1177 -0.8242
  819MOL0     C10449   0.797   4.732  10.934  0.2928  0.1773 -0.2673
  819MOL0     C10450   0.656   4.689  10.898  0.7981 -0.0238  0.4515
  819MOL0     C10451   0.557   4.698  11.009 -0.4582  0.9314 -0.0788
  819MOL0     C10452   0.421   4.636  10.975 -0.5131  0.4007  0.4035
  819MOL0     C10453   0.319   4.658  11.084 -0.2449 -0.3602  0.5073
  819MOL0     O10454   0.197   4.598  11.026  0.2268  0.3230 -0.4613
  819MOL0     C10455   0.091   4.605  11.114 -0.3297 -0.6558 -0.1858
  819MOL0     C10456   0.008   4.492  11.121 -0.3483  0.0177 -1.0124
  819MOL0     C10457  -0.093   4.484  11.217 -0.1006 -0.1829  0.3140
  819MOL0     C10458  -0.171   4.350  11.221 -0.2117 -0.4639  0.6745
  819MOL0     C10459  -0.140   4.604  11.280 -0.1536 -0.2944 -0.6947
  819MOL0     C10460  -0.263   4.613  11.363  0.0464 -0.3635  0.0978
  819MOL0     O10461  -0.349   4.510  11.365  0.9692 -0.0893  0.0595
  819MOL0     C10462  -0.468   4.536  11.432  0.1026 -0.5931  0.0882
  819MOL0     C10463  -0.468   4.546  11.570  1.0619 -0.6655  0.1058
  819MOL0     C10464  -0.585   4.582  11.637 -0.0602 -0.1495  0.2089
  819MOL0     C10465  -0.711   4.596  11.571  0.1230  0.2110  0.0746
  819MOL0     O10466  -0.837   4.621  11.619  0.2943  0.4321  0.6110
  819MOL0     C10467  -0.846   4.624  11.764  0.1038 -0.2644 -0.0893
  819MOL0     C10468  -0.981   4.677  11.811  0.6919  0.0484  0.1845
  819MOL0     C10469  -1.094   4.587  11.746 -0.2047  0.2662 -0.0505
  819MOL0     C10470  -1.234   4.646  11.760 -0.0101  0.2299  0.5508
  819MOL0     C10471  -1.336   4.532  11.721 -0.0920  0.3142  0.0298
  819MOL0     C10472  -1.475   4.583  11.709 -1.0646 -0.6515 -0.5125
  819MOL0     C10473  -1.577   4.467  11.709 -0.0072  0.2192 -0.7025
  819MOL0     C10474  -1.728   4.518  11.697  0.0136 -0.1605 -0.8622
  819MOL0    Cl10475  -1.845   4.386  11.690  0.0700 -0.2960 -0.0365
  819MOL0     C10476  -0.700   4.577  11.427  0.7369 -0.3257 -1.3084
  819MOL0     C10477  -0.581   4.551  11.358  0.4353  0.2631  0.4577
  819MOL0     O10478  -0.281   4.725  11.408 -0.2121  0.0084 -0.1711
  819MOL0     C10479  -0.054   4.716  11.270 -0.0051  0.1628 -0.2590
  819MOL0     C10480   0.065   4.713  11.193  0.2646  0.2939 -1.4069
  819MOL0     N10481   0.904   4.666  10.878  0.0436  0.1333 -0.8181
  819MOL0     N10482   1.005   4.723  10.913  0.2031 -0.1483  0.5266
  819MOL0     C10483   1.894   4.408  11.263  0.5530  0.5489  0.1809
  819MOL0     C10484   2.016   4.393  11.324  0.1070  0.4531  0.9764
  819MOL0     C10485   2.409   4.193  11.399 -1.2394 -0.0759 -0.6530
  819MOL0     C10486   2.444   4.224  11.530 -0.3169  0.0769  0.3599
  819MOL0     C10487   2.579   4.221  11.575  1.2871 -0.2945 -0.1878
  819MOL0     C10488   2.678   4.195  11.493 -0.4274 -0.4865  0.2440
  819MOL0     O10489   2.818   4.200  11.542  0.6320 -0.1358 -0.6684
  819MOL0     C10490   2.923   4.122  11.494  0.2997  0.0233  0.8711
  819MOL0     C10491   3.014   4.113  11.624 -0.5993 -1.0979 -0.0762
  819MOL0     C10492   2.947   4.023  11.732  0.4592 -0.4635 -0.3499
  819MOL0     C10493   3.021   4.023  11.864  0.6026  0.2497 -0.5345
  819MOL0     C10494   3.035   4.162  11.918 -0.2072  0.1542 -0.4289
  819MOL0     C10495   3.062   4.262  11.979  0.4108  0.5506  1.0615
  819MOL0     C10496   2.659   4.176  11.360  1.2312  1.2058  0.1458
  819MOL0     C10497   2.525   4.177  11.316  0.8765 -0.2440 -0.2444
  819MOL0     H10498   1.991   4.057  11.411  1.8015  0.4966  0.6107
  819MOL0     H10499   1.776   4.084  11.277 -0.6872  0.5429 -0.0536
  819MOL0     H10500   1.612   4.458  11.291  0.6964 -0.5727  0.2152
  819MOL0     H10501   1.672   4.486  11.126 -0.5602  0.5947  1.1609
  819MOL0     H10502   1.475   4.349  11.043  0.1512  1.3141 -0.4884
  819MOL0     H10503   1.407   4.322  11.189  0.2914 -2.0479 -2.1246
  819MOL0     H10504   1.430   4.589  11.023  0.9260 -0.7029  0.9343
  819MOL0     H10505   1.287   4.505  11.087  0.0264 -0.6634 -1.6312
  819MOL0     H10506   1.334   4.566  11.306  0.5686 -1.0722  0.6273
  819MOL0     H10507   1.484   4.652  11.268  1.0152 -1.6774 -2.3849
  819MOL0     H10508   1.343   4.821  11.300 -2.4221  2.5933 -1.3883
  819MOL0     H10509   1.329   4.818  11.123 -0.2092  0.6074  0.6717
  819MOL0     H10510   1.121   4.668  11.178  0.7335 -0.7246  0.3843
  819MOL0     H10511   1.148   4.728  11.343 -1.2335 -0.8925 -0.4024
  819MOL0     H10512   0.989   4.876  11.255 -0.3723  1.2881 -1.2234
  819MOL0     H10513   1.138   4.960  11.264  0.1879 -0.6311  0.4965
  819MOL0     H10514   1.172   4.920  10.999 -2.9647  2.0198 -3.9467
  819MOL0     H10515   1.033   5.011  11.038 -1.4483  0.2609 -1.5135
  819MOL0     H10516   0.788   4.915  11.060  2.0153  1.0144  0.0217
  819MOL0     H10517   0.614   4.746  10.815 -1.5335 -2.4558 -0.1737
  819MOL0     H10518   0.660   4.586  10.863 -0.1130  0.1781 -0.2879
  819MOL0     H10519   0.547   4.802  11.039  2.2090  0.9842  0.9076
  819MOL0     H10520   0.597   4.651  11.099 -4.1045  1.1883  1.8555
  819MOL0     H10521   0.414   4.527  10.969  0.0768  0.3300  0.9087
  819MOL0     H10522   0.389   4.666  10.875 -1.8931 -2.4809 -0.1340
  819MOL0     H10523   0.316   4.763  11.114  2.8504  0.0212 -0.1937
  819MOL0     H10524   0.354   4.605  11.173  1.3644  1.1168  0.8209
  819MOL0     H10525   0.038   4.403  11.067 -2.3488  0.0213 -2.2687
  819MOL0     H10526  -0.174   4.318  11.326  1.8931 -1.4377  0.4749
  819MOL0     H10527  -0.275   4.369  11.193 -0.3026 -1.4611  0.3218
  819MOL0     H10528  -0.138   4.272  11.153 -2.4850  0.1157 -1.2440
  819MOL0     H10529  -0.376   4.535  11.627 -0.5421 -2.1920  2.5760
  819MOL0     H10530  -0.576   4.602  11.744  0.1003  0.8098  0.0307
  819MOL0     H10531  -0.833   4.521  11.798  0.7728 -0.0666  0.2836
  819MOL0     H10532  -0.770   4.689  11.809  2.9720 -1.6320 -2.5987
  819MOL0     H10533  -0.970   4.683  11.920  1.5495  0.8438  0.0674
  819MOL0     H10534  -0.995   4.781  11.780 -0.3721 -0.1570 -0.0563
  819MOL0     H10535  -1.091   4.489  11.795 -0.5814 -0.7271 -1.9524
  819MOL0     H10536  -1.063   4.561  11.645  3.9813 -4.1020  1.9287
  819MOL0     H10537  -1.257   4.675  11.863 -2.7930  0.5922 -0.0789
  819MOL0     H10538  -1.245   4.738  11.702  1.6174 -0.6507 -1.2814
  819MOL0     H10539  -1.327   4.462  11.805  1.1514 -1.8502 -1.7960
  819MOL0     H10540  -1.293   4.478  11.636  2.6148 -0.2177  1.6162
  819MOL0     H10541  -1.493   4.648  11.795 -1.8499 -0.8164 -0.5416
  819MOL0     H10542  -1.479   4.634  11.612 -0.9927 -2.5295 -1.5444
  819MOL0     H10543  -1.562   4.418  11.805 -1.7666  1.8581  0.4757
  819MOL0     H10544  -1.552   4.392  11.633 -0.0919 -0.3594 -0.1680
  819MOL0     H10545  -1.736   4.581  11.608 -2.5671 -1.4485 -1.6390
  819MOL0     H10546  -1.753   4.585  11.780 -0.1616 -1.4827  0.1839
  819MOL0     H10547  -0.791   4.579  11.369  1.2175  0.4039 -2.0505
  819MOL0     H10548  -0.581   4.544  11.249  1.0038  0.2177  0.4555
  819MOL0     H10549  -0.080   4.805  11.327 -0.2081 -0.2301  0.2588
  819MOL0     H10550   0.124   4.804  11.201 -0.7284  0.9785 -1.5676
  819MOL0     H10551   1.858   4.508  11.243 -0.6647  0.0756 -0.0490
  819MOL0     H10552   2.075   4.477  11.359  1.5762 -0.5288  0.9376
  819MOL0     H10553   2.362   4.246  11.598 -0.0242 -0.2044  0.8062
  819MOL0     H10554   2.595   4.236  11.681 -1.7343  0.2543  0.2645
  819MOL0     H10555   2.881   4.024  11.469  0.8863 -0.2583  0.9816
  819MOL0     H10556   2.975   4.160  11.406 -2.2694 -3.3056 -2.3974
  819MOL0     H10557   3.033   4.217  11.653 -1.9295  0.5279 -4.2190
  819MOL0     H10558   3.108   4.067  11.594 -0.1819 -1.0660  1.1500
  819MOL0     H10559   2.935   3.921  11.696 -0.9556 -0.3052 -0.3970
  819MOL0     H10560   2.844   4.056  11.754  1.1443  1.6229 -0.0006
  819MOL0     H10561   3.122   3.986  11.845 -0.1291 -0.1933 -4.4666
  819MOL0     H10562   2.966   3.963  11.936 -3.1643  2.9855 -0.8184
  819MOL0     H10563   3.082   4.344  12.044 -1.8952  2.2724 -0.2536
  819MOL0     H10564   2.740   4.167  11.288  0.0137  4.1503 -1.7699
  819MOL0     H10565   2.502   4.156  11.212 -0.7595 -3.0612  0.5576
  820MOL0     O10566   1.077  10.048   8.767 -0.3559 -0.3761  0.8882
  820MOL0     C10567   1.171   9.974   8.775 -0.0256 -0.9021  0.6144
  820MOL0     O10568   1.166   9.842   8.801 -0.2682 -0.5289  0.1455
  820MOL0     C10569   1.046   9.772   8.801  0.2389 -1.1690  0.3913
  820MOL0     C10570   0.970   9.765   8.915 -0.1382  1.3651 -0.0883
  820MOL0     C10571   0.853   9.680   8.920  0.4994 -1.0605 -0.2008
  820MOL0     C10572   0.807   9.622   8.801 -0.2756 -0.1112 -0.5279
  820MOL0     O10573   0.690   9.549   8.810  0.0171 -0.2346 -0.0164
  820MOL0     C10574   0.590   9.528   8.702 -0.3538 -0.8085  0.6522
  820MOL0     C10575   0.456   9.464   8.762  0.7830 -0.0864 -0.1791
  820MOL0     C10576   0.397   9.549   8.879 -0.6140 -0.3636  0.6480
  820MOL0     C10577   0.250   9.513   8.900  0.3550  0.4654 -0.0404
  820MOL0     C10578   0.183   9.594   9.013 -0.2193  0.3084  0.2508
  820MOL0     C10579   0.031   9.556   9.016  0.4148 -0.5546  0.1360
  820MOL0     C10580  -0.048   9.625   9.119 -0.6172  0.5593 -0.3382
  820MOL0     C10581  -0.071   9.776   9.104 -0.5950 -0.5911  0.6175
  820MOL0     N10582  -0.128   9.826   8.978  0.1388 -0.3698 -0.1833
  820MOL0     C10583  -0.229   9.766   8.915 -0.1841  0.0763  0.4787
  820MOL0     C10584  -0.280   9.860   8.830 -0.0476  0.8692  0.1873
  820MOL0     C10585  -0.399   9.849   8.737  0.2474  0.3649  0.0203
  820MOL0     C10586  -0.533   9.878   8.820  0.4353  0.1591  0.6496
  820MOL0     C10587  -0.543  10.031   8.846 -0.1943 -0.2819  0.3257
  820MOL0     C10588  -0.675  10.073   8.915 -1.3747 -0.2469  0.2966
  820MOL0     O10589  -0.775  10.070   8.802  0.2236 -0.3646  0.4479
  820MOL0     C10590  -0.901  10.104   8.825  0.1470  0.7095 -0.3934
  820MOL0     C10591  -0.958  10.111   8.955 -0.0338 -0.6489 -0.1586
  820MOL0     C10592  -1.099  10.146   8.964  0.0234 -0.1112  0.2593
  820MOL0     C10593  -1.162  10.157   9.103  0.6773  0.3973 -0.5951
  820MOL0     C10594  -1.179  10.171   8.843  0.3011 -0.1793  1.0143
  820MOL0     C10595  -1.322  10.221   8.842 -0.5401 -0.0726  0.4195
  820MOL0     O10596  -1.370  10.249   8.716 -0.3465 -0.2109  0.4899
  820MOL0     C10597  -1.492  10.275   8.674  0.7484  0.4827  0.8961
  820MOL0     C10598  -1.608  10.224   8.740  0.7493 -0.1290  0.5180
  820MOL0     C10599  -1.738  10.249   8.680  0.3702  1.1054 -0.3161
  820MOL0     C10600  -1.752  10.318   8.563 -0.1890  0.4872 -0.0083
  820MOL0     O10601  -1.863  10.345   8.496 -0.6939 -0.3867 -0.1126
  820MOL0     C10602  -1.919  10.225   8.437  0.6212 -0.7164 -0.0203
  820MOL0     C10603  -2.050  10.255   8.360 -0.6558 -0.5728  0.4307
  820MOL0     C10604  -2.032  10.342   8.235 -0.5537 -0.2403 -0.4292
  820MOL0     C10605  -2.088  10.476   8.264 -0.0237 -0.6853 -0.1689
  820MOL0     C10606  -2.097  10.553   8.129 -0.5543  0.0010 -0.5966
  820MOL0     C10607  -2.113  10.711   8.154  0.2704 -0.1217  0.3007
  820MOL0     C10608  -2.069  10.794   8.029 -0.4475 -0.1751  1.1931
  820MOL0     C10609  -1.911  10.794   8.010  0.8139  0.1253 -0.2145
  820MOL0    Cl10610  -1.865  10.867   7.851 -0.3005  0.0036 -0.1211
  820MOL0     C10611  -1.636  10.364   8.496 -1.4471 -0.2689  0.1195
  820MOL0     C10612  -1.503  10.339   8.545 -0.1407 -0.0736  0.3826
  820MOL0     O10613  -1.382  10.239   8.952  0.5479 -0.1829  0.1983
  820MOL0     C10614  -1.113  10.159   8.718  0.5320 -0.1937 -0.0109
  820MOL0     C10615  -0.979  10.130   8.713  0.2115  0.2094 -0.0542
  820MOL0     N10616  -0.196   9.973   8.835  0.1184 -0.1927 -0.6758
  820MOL0     N10617  -0.114   9.954   8.929  0.1358  0.4868  0.2107
  820MOL0     C10618   0.888   9.643   8.684  0.4882 -0.3561  0.4844
  820MOL0     C10619   0.996   9.721   8.682 -0.4023  0.3699 -0.1236
  820MOL0     C10620   1.300  10.038   8.742 -0.2267  1.0422 -0.1195
  820MOL0     C10621   1.415   9.961   8.726 -0.2574 -0.5581 -0.1817
  820MOL0     C10622   1.542  10.016   8.700 -0.1737 -0.8492  0.6774
  820MOL0     C10623   1.559  10.157   8.684 -1.1414  0.1307 -0.0322
  820MOL0     O10624   1.689  10.198   8.648  0.3996 -0.4879 -0.1760
  820MOL0     C10625   1.700  10.338   8.604  0.0850  0.3688 -0.1319
  820MOL0     C10626   1.744  10.426   8.718 -0.2604 -0.4624 -0.5545
  820MOL0     C10627   1.874  10.377   8.794  0.0510  0.1948  0.6885
  820MOL0     C10628   1.999  10.440   8.743  0.1368  0.9614 -0.8862
  820MOL0     C10629   2.105  10.416   8.840  0.1764  0.4452 -0.4993
  820MOL0     C10630   2.191  10.419   8.924 -0.5179  0.8573 -0.1334
  820MOL0     C10631   1.439  10.237   8.694  0.0091  0.0185 -0.2188
  820MOL0     C10632   1.317  10.174   8.729 -0.6592 -0.2621 -0.2002
  820MOL0     H10633   1.013   9.808   9.006 -1.4243  0.2205  1.0981
  820MOL0     H10634   0.787   9.666   9.005 -0.9614 -0.2897 -1.1635
  820MOL0     H10635   0.562   9.627   8.667  1.2264 -0.9906 -1.2422
  820MOL0     H10636   0.626   9.459   8.626 -1.7564 -1.3118  0.4140
  820MOL0     H10637   0.388   9.473   8.677  1.1954 -1.2166 -0.6376
  820MOL0     H10638   0.478   9.359   8.781  0.5338 -0.0011  0.6153
  820MOL0     H10639   0.444   9.542   8.978 -1.6270  3.1038  1.5370
  820MOL0     H10640   0.413   9.654   8.852  3.4390 -0.5393  1.6310
  820MOL0     H10641   0.198   9.542   8.808  2.1404  4.0823 -0.1107
  820MOL0     H10642   0.249   9.406   8.920  0.5744  0.6656  1.0762
  820MOL0     H10643   0.241   9.568   9.102 -0.9983 -3.5118 -0.1527
  820MOL0     H10644   0.186   9.701   8.991  0.8054  0.5318  1.3776
  820MOL0     H10645  -0.013   9.575   8.918  1.4905  1.5560  0.0046
  820MOL0     H10646   0.023   9.448   9.031  2.3444 -1.2884 -3.0439
  820MOL0     H10647  -0.148   9.582   9.131 -0.2407 -1.1765 -2.6968
  820MOL0     H10648  -0.004   9.610   9.218 -4.1764 -4.9302  0.8291
  820MOL0     H10649   0.028   9.822   9.116 -0.2861 -1.3527  1.0362
  820MOL0     H10650  -0.130   9.823   9.183 -2.6459  2.6109 -2.5167
  820MOL0     H10651  -0.283   9.673   8.925 -2.5489  0.9250 -2.7437
  820MOL0     H10652  -0.385   9.912   8.648 -0.8244  1.6689  0.7406
  820MOL0     H10653  -0.407   9.747   8.700  0.6982  1.3734 -3.1932
  820MOL0     H10654  -0.522   9.824   8.915  0.7460 -0.9345  0.0081
  820MOL0     H10655  -0.625   9.857   8.765 -0.0620 -0.0644  1.5343
  820MOL0     H10656  -0.560  10.081   8.750  0.3528 -0.6584  0.0295
  820MOL0     H10657  -0.452  10.063   8.898 -0.3649 -0.6233  0.8397
  820MOL0     H10658  -0.669  10.173   8.958 -0.9828 -0.5752  1.0240
  820MOL0     H10659  -0.701  10.009   9.000  1.0473  0.5102  1.7145
  820MOL0     H10660  -0.891  10.089   9.038  2.6995  0.5415 -1.9045
  820MOL0     H10661  -1.184  10.263   9.121  1.0496  0.9155 -2.9196
  820MOL0     H10662  -1.254  10.098   9.099  1.0060 -0.1180 -0.6032
  820MOL0     H10663  -1.092  10.122   9.179  0.3660 -2.5647 -1.5522
  820MOL0     H10664  -1.607  10.163   8.829  1.2860 -1.4982 -0.3885
  820MOL0     H10665  -1.824  10.201   8.725  1.4548 -0.5467  0.0931
  820MOL0     H10666  -1.846  10.184   8.366 -0.1912 -2.8828  0.3144
  820MOL0     H10667  -1.932  10.146   8.511 -1.0236  0.7349  1.3304
  820MOL0     H10668  -2.084  10.159   8.319  1.2908 -0.0146 -2.8510
  820MOL0     H10669  -2.131  10.287   8.426 -2.1988 -1.1774 -1.1055
  820MOL0     H10670  -2.084  10.303   8.147  0.7731  1.5474 -2.0863
  820MOL0     H10671  -1.926  10.355   8.213 -1.3643  2.5944 -3.4505
  820MOL0     H10672  -2.187  10.478   8.310  0.3340 -0.8893  0.6506
  820MOL0     H10673  -2.022  10.530   8.333 -1.0730 -0.7367  0.9193
  820MOL0     H10674  -2.188  10.521   8.076 -0.5554 -0.4522 -0.3293
  820MOL0     H10675  -2.011  10.525   8.067 -0.8576 -1.0235 -0.5787
  820MOL0     H10676  -2.219  10.727   8.173 -1.0399 -3.6870 -2.7686
  820MOL0     H10677  -2.042  10.741   8.233 -1.5647  2.8862  0.9575
  820MOL0     H10678  -2.111  10.894   8.043  0.5076  0.8562 -2.1835
  820MOL0     H10679  -2.108  10.740   7.942  1.1155 -0.7538  0.8059
  820MOL0     H10680  -1.875  10.691   8.008  1.7655  0.4228  0.4341
  820MOL0     H10681  -1.855  10.846   8.089 -1.1109  3.0084 -0.6286
  820MOL0     H10682  -1.643  10.414   8.399  0.5710  2.2399  1.1392
  820MOL0     H10683  -1.412  10.373   8.496  0.2244 -2.8479 -1.0359
  820MOL0     H10684  -1.169  10.172   8.626  0.2111 -0.9085  0.0781
  820MOL0     H10685  -0.931  10.130   8.616 -1.3673  2.6673 -0.9194
  820MOL0     H10686   0.852   9.596   8.593 -0.9301 -1.0279  1.3513
  820MOL0     H10687   1.039   9.746   8.585  2.0150 -1.4196  0.3878
  820MOL0     H10688   1.417   9.853   8.729 -1.3799 -0.5582  1.3196
  820MOL0     H10689   1.628   9.962   8.663  1.5031  2.0601 -0.0054
  820MOL0     H10690   1.771  10.347   8.521 -1.4751 -1.0680 -1.7069
  820MOL0     H10691   1.603  10.371   8.568 -0.2879 -0.7925 -0.2295
  820MOL0     H10692   1.665  10.418   8.794  0.9892 -1.0238  0.7390
  820MOL0     H10693   1.757  10.529   8.683  1.2025 -0.0072  1.1667
  820MOL0     H10694   1.881  10.268   8.799  0.9267 -0.0451 -2.8683
  820MOL0     H10695   1.860  10.404   8.899 -1.5303 -0.4295  0.6594
  820MOL0     H10696   1.988  10.547   8.726  0.8045  1.1353 -0.2830
  820MOL0     H10697   2.030  10.418   8.640  1.0364  4.4295 -1.4797
  820MOL0     H10698   2.271  10.423   8.995 -1.7731  1.5242  1.3070
  820MOL0     H10699   1.440  10.343   8.674 -0.5787  0.3231  1.2603
  820MOL0     H10700   1.231  10.237   8.751 -0.4017 -0.1043  0.3715
  821MOL0     O10701   5.556  10.681  10.582  0.1248  0.0150 -0.1266
  821MOL0     C10702   5.591  10.613  10.679 -0.6931 -0.2657  0.3676
  821MOL0     O10703   5.505  10.551  10.768 -0.4485  1.0112  0.1281
  821MOL0     C10704   5.373  10.545  10.757  0.1931 -0.0011 -0.8395
  821MOL0     C10705   5.325  10.436  10.831  0.3430 -0.4228  0.0767
  821MOL0     C10706   5.191  10.409  10.831 -0.9823  0.0512 -0.7371
  821MOL0     C10707   5.100  10.483  10.757  0.1281 -0.3022  0.2119
  821MOL0     O10708   4.960  10.475  10.764 -0.2688  0.1076 -0.6796
  821MOL0     C10709   4.911  10.342  10.761  0.3877 -0.1488  0.7085
  821MOL0     C10710   4.828  10.317  10.885 -0.5254  0.1527  0.7895
  821MOL0     C10711   4.791  10.163  10.893  0.6580  0.2479 -0.4005
  821MOL0     C10712   4.717  10.108  10.766 -0.1630 -0.1659 -0.0236
  821MOL0     C10713   4.606  10.023  10.825  0.0315  0.5703 -0.7650
  821MOL0     C10714   4.532   9.944  10.706  0.6587 -0.6063 -0.0855
  821MOL0     C10715   4.460   9.815  10.763 -0.0804  0.8440  0.1901
  821MOL0     C10716   4.331   9.854  10.846 -0.5850  0.2371  0.4757
  821MOL0     N10717   4.237   9.747  10.859  0.5520 -0.1660 -0.1007
  821MOL0     C10718   4.182   9.717  10.981  0.6358 -0.8835  0.2886
  821MOL0     C10719   4.082   9.627  10.960  0.5574  0.0166 -0.7516
  821MOL0     C10720   3.978   9.592  11.063  0.8696 -0.1556 -0.4160
  821MOL0     C10721   4.015   9.454  11.114 -0.3841  0.3451  0.1838
  821MOL0     C10722   3.929   9.420  11.239  0.1988 -0.4500  0.0961
  821MOL0     C10723   3.786   9.389  11.206  0.1457  0.3897 -0.0948
  821MOL0     O10724   3.716   9.374  11.326 -0.4556 -0.0594 -0.1075
  821MOL0     C10725   3.580   9.364  11.331  0.1994 -0.0328  0.4188
  821MOL0     C10726   3.502   9.325  11.216 -0.6188 -0.1265  0.4146
  821MOL0     C10727   3.364   9.316  11.229 -0.7637  1.3240  1.0183
  821MOL0     C10728   3.291   9.276  11.103  0.6735 -0.2253 -0.1330
  821MOL0     C10729   3.300   9.359  11.343 -0.5498 -0.5103  0.0476
  821MOL0     C10730   3.160   9.370  11.353  0.8062  0.0818 -0.1311
  821MOL0     O10731   3.079   9.279  11.294 -0.2317 -0.5566 -0.0459
  821MOL0     C10732   2.942   9.310  11.275 -0.2508 -0.7500  0.7762
  821MOL0     C10733   2.851   9.219  11.323 -0.0572  0.8775  0.2694
  821MOL0     C10734   2.720   9.229  11.301  0.2041 -0.9088 -0.2274
  821MOL0     C10735   2.664   9.337  11.233 -0.1244 -0.5325  0.0744
  821MOL0     O10736   2.528   9.347  11.217 -0.7118 -0.4029  0.0637
  821MOL0     C10737   2.444   9.311  11.329 -0.2339 -0.8193 -0.5245
  821MOL0     C10738   2.394   9.164  11.322 -0.6523  0.7898  0.2117
  821MOL0     C10739   2.257   9.142  11.370  0.3728  0.1879  0.0870
  821MOL0     C10740   2.160   9.198  11.262 -0.7368  0.0504 -0.5158
  821MOL0     C10741   2.027   9.145  11.307 -0.4301  0.9776 -0.1801
  821MOL0     C10742   1.907   9.198  11.229  0.3746  0.4306  0.2787
  821MOL0     C10743   1.789   9.130  11.286  0.9234 -0.0737 -0.3982
  821MOL0     C10744   1.661   9.164  11.204  0.0704 -0.4462  0.1364
  821MOL0    Cl10745   1.524   9.074  11.269  0.4318  0.3981 -0.1311
  821MOL0     C10746   2.752   9.441  11.190 -0.5700  0.1133  1.2243
  821MOL0     C10747   2.892   9.432  11.214 -0.1957  0.4753 -0.5733
  821MOL0     O10748   3.129   9.482  11.397 -0.0027  0.6617  0.1561
  821MOL0     C10749   3.377   9.408  11.448  0.2089  0.3941 -0.6924
  821MOL0     C10750   3.516   9.406  11.446 -0.1503 -1.1525  1.1184
  821MOL0     N10751   4.085   9.591  10.829 -0.5486 -0.4005 -0.9192
  821MOL0     N10752   4.177   9.663  10.767 -0.1971  0.5234  0.0043
  821MOL0     C10753   5.146  10.593  10.680 -0.4278  0.1480 -0.2729
  821MOL0     C10754   5.282  10.618  10.667 -0.5552 -0.4575 -0.1480
  821MOL0     C10755   5.740  10.615  10.704  0.2579  0.7828  0.4034
  821MOL0     C10756   5.779  10.548  10.818 -0.2761  0.7983  0.6792
  821MOL0     C10757   5.915  10.518  10.841  0.1998  0.7614  0.0086
  821MOL0     C10758   6.009  10.567  10.747  0.4562  0.3161 -0.0621
  821MOL0     O10759   6.147  10.544  10.748 -0.5720 -0.7554 -0.0997
  821MOL0     C10760   6.196  10.433  10.827 -0.3848  0.0483  0.7525
  821MOL0     C10761   6.333  10.378  10.774  0.6831  0.2446 -0.0421
  821MOL0     C10762   6.344  10.339  10.622 -1.0346 -0.6653 -0.4876
  821MOL0     C10763   6.346  10.469  10.535 -0.7771 -0.2767  0.6011
  821MOL0     C10764   6.479  10.536  10.546 -0.2842  0.4699  0.0919
  821MOL0     C10765   6.591  10.572  10.552 -0.0182 -0.2104  0.8900
  821MOL0     C10766   5.964  10.637  10.634 -0.1099 -0.6029  0.2322
  821MOL0     C10767   5.835  10.653  10.606  0.0023  0.3241  0.3919
  821MOL0     H10768   5.398  10.379  10.888 -1.0116  0.5452  2.9822
  821MOL0     H10769   5.162  10.335  10.905  1.1501 -0.8529 -0.7374
  821MOL0     H10770   4.845  10.339  10.673 -2.9767 -2.2087  3.0779
  821MOL0     H10771   4.987  10.264  10.753  0.9006  0.2097  1.9356
  821MOL0     H10772   4.893  10.337  10.971  0.7867 -0.0103 -0.1312
  821MOL0     H10773   4.733  10.372  10.889  0.3851  2.5753 -3.7321
  821MOL0     H10774   4.877  10.100  10.915 -0.0154 -0.7129 -0.4855
  821MOL0     H10775   4.733  10.143  10.984  1.3229 -5.0679 -0.8763
  821MOL0     H10776   4.672  10.187  10.705  1.4297  0.3552 -0.5679
  821MOL0     H10777   4.787  10.045  10.710 -0.9063 -0.2199 -0.9193
  821MOL0     H10778   4.635   9.960  10.910 -0.6749 -0.1859 -1.0856
  821MOL0     H10779   4.533  10.097  10.859 -1.5024 -0.4291 -1.7685
  821MOL0     H10780   4.461  10.009  10.656 -0.5028 -1.5959  0.2323
  821MOL0     H10781   4.601   9.920  10.625  1.9263  0.1498  0.7255
  821MOL0     H10782   4.418   9.749  10.687 -1.8856  1.1967  0.8077
  821MOL0     H10783   4.521   9.761  10.835 -3.1439 -0.6059  1.9287
  821MOL0     H10784   4.285   9.938  10.794 -1.1478 -1.8784 -2.6760
  821MOL0     H10785   4.373   9.893  10.940  0.9929  1.0683 -0.5210
  821MOL0     H10786   4.187   9.757  11.082 -0.0111  1.1631 -0.4397
  821MOL0     H10787   3.991   9.670  11.138 -0.4927 -1.2141  0.9866
  821MOL0     H10788   3.873   9.597  11.030 -0.3350 -3.0779  2.4602
  821MOL0     H10789   4.121   9.444  11.138  0.2172  0.4362 -2.1686
  821MOL0     H10790   3.989   9.391  11.028 -1.7291 -0.0635  0.8645
  821MOL0     H10791   3.929   9.506  11.306 -1.5255 -0.1693 -0.2099
  821MOL0     H10792   3.981   9.339  11.291  1.9848  0.8048  0.3673
  821MOL0     H10793   3.782   9.297  11.147  0.0114  0.6441 -0.4851
  821MOL0     H10794   3.741   9.471  11.150 -0.3268  1.0371  1.1804
  821MOL0     H10795   3.547   9.302  11.120  1.6398 -0.7339  1.5488
  821MOL0     H10796   3.223   9.356  11.072 -1.8135 -1.9496  0.4808
  821MOL0     H10797   3.363   9.260  11.022  1.4048 -0.9661  0.6401
  821MOL0     H10798   3.231   9.185  11.117 -0.5756  0.5193 -0.4808
  821MOL0     H10799   2.884   9.126  11.368 -0.4871  0.4508 -0.2712
  821MOL0     H10800   2.662   9.145  11.337 -1.0029 -0.3433 -0.7632
  821MOL0     H10801   2.502   9.331  11.420  0.3342 -1.5905 -0.7110
  821MOL0     H10802   2.354   9.373  11.330  0.4797  0.2489  0.3139
  821MOL0     H10803   2.421   9.105  11.234 -1.4685  0.6764  0.0291
  821MOL0     H10804   2.454   9.110  11.396  0.2044  0.2177 -0.8758
  821MOL0     H10805   2.252   9.194  11.466  0.5532  0.0570  0.1663
  821MOL0     H10806   2.231   9.041  11.401 -1.3426  0.4994 -0.1803
  821MOL0     H10807   2.153   9.306  11.250 -1.2787 -0.0291 -0.9378
  821MOL0     H10808   2.178   9.154  11.163  1.7275  2.3029 -1.1917
  821MOL0     H10809   2.006   9.185  11.407 -2.9712 -0.0046 -0.2460
  821MOL0     H10810   2.015   9.036  11.307 -0.3190  0.9632 -0.6980
  821MOL0     H10811   1.898   9.306  11.237  3.2743  0.9400 -1.5065
  821MOL0     H10812   1.910   9.164  11.125 -2.8478  0.1177  0.1974
  821MOL0     H10813   1.777   9.179  11.383 -0.2013  1.6537 -1.3536
  821MOL0     H10814   1.801   9.022  11.294  1.5153  0.0491  0.5390
  821MOL0     H10815   1.671   9.148  11.097  0.1205 -3.2320  0.4805
  821MOL0     H10816   1.635   9.270  11.218 -0.9843 -0.7444  0.5046
  821MOL0     H10817   2.721   9.525  11.129 -1.3004 -0.4518  0.7864
  821MOL0     H10818   2.944   9.514  11.167 -0.1580  0.6991 -0.1455
  821MOL0     H10819   3.321   9.450  11.532  0.3982  0.8409 -0.7836
  821MOL0     H10820   3.580   9.455  11.518 -0.0395  2.7446 -1.3652
  821MOL0     H10821   5.068  10.652  10.633 -0.0978  1.1545  0.4171
  821MOL0     H10822   5.322  10.698  10.606  2.8488 -2.5403 -0.8906
  821MOL0     H10823   5.704  10.508  10.886 -1.0169 -1.3270 -1.2712
  821MOL0     H10824   5.935  10.466  10.934 -1.2862 -0.0262 -0.0774
  821MOL0     H10825   6.214  10.456  10.932 -0.2672 -1.9672  1.2106
  821MOL0     H10826   6.122  10.353  10.827 -2.2728  1.6915  1.7848
  821MOL0     H10827   6.356  10.281  10.818 -0.0583  0.2868  0.4573
  821MOL0     H10828   6.417  10.445  10.795 -1.2994  2.2074  2.2955
  821MOL0     H10829   6.253  10.285  10.595 -2.8107  1.7238  0.4503
  821MOL0     H10830   6.441  10.288  10.613 -0.5773  0.0120  0.4597
  821MOL0     H10831   6.264  10.540  10.555 -2.5691 -1.5650 -1.7013
  821MOL0     H10832   6.344  10.436  10.431  1.8142  0.3903  0.2577
  821MOL0     H10833   6.691  10.611  10.551  1.0492 -2.7265 -0.2764
  821MOL0     H10834   6.031  10.657  10.551 -3.1422  2.4646 -1.7329
  821MOL0     H10835   5.804  10.701  10.514  2.8035 -0.9703 -1.3744
  822MOL0     O10836   8.822   6.738   9.238 -0.2689  0.2780  0.3210
  822MOL0     C10837   8.843   6.807   9.337 -0.1866 -0.0545  0.1857
  822MOL0     O10838   8.960   6.849   9.391 -0.3748  0.7370 -0.1003
  822MOL0     C10839   9.077   6.841   9.317 -0.7261  0.3287  0.2223
  822MOL0     C10840   9.123   6.724   9.253 -0.6110 -0.3751 -0.2384
  822MOL0     C10841   9.227   6.732   9.161  0.7149  0.5137  0.9291
  822MOL0     C10842   9.311   6.852   9.147  0.6317  0.7382 -0.5671
  822MOL0     O10843   9.414   6.862   9.053  0.2425  0.1910  0.0828
  822MOL0     C10844   9.501   6.749   9.039  0.1100 -0.1650 -0.4144
  822MOL0     C10845   9.645   6.784   8.988  0.2253 -0.0200 -0.3834
  822MOL0     C10846   9.726   6.661   8.960 -1.1226 -0.2819  0.1862
  822MOL0     C10847   9.720   6.549   9.063  0.7872 -0.4232  0.2929
  822MOL0     C10848   9.746   6.411   8.987  0.2212  0.0505 -0.1438
  822MOL0     C10849   9.762   6.296   9.092  0.3081 -0.4356 -1.0781
  822MOL0     C10850   9.732   6.158   9.031  0.1489 -0.3200 -0.2115
  822MOL0     C10851   9.739   6.052   9.143  0.5751 -0.6191 -0.0143
  822MOL0     N10852   9.632   6.067   9.245  0.0458 -0.2666 -0.3938
  822MOL0     C10853   9.513   6.004   9.224 -0.0435 -0.4098  0.4290
  822MOL0     C10854   9.437   6.033   9.333  0.3709 -0.1238  0.1967
  822MOL0     C10855   9.310   5.974   9.373 -1.1018 -0.1372 -0.3902
  822MOL0     C10856   9.224   5.943   9.251 -0.9174  0.1332 -0.3659
  822MOL0     C10857   9.079   5.927   9.291 -0.1309  0.3853 -0.2894
  822MOL0     C10858   8.987   5.904   9.168 -0.3874  0.4061 -0.3132
  822MOL0     O10859   8.859   5.853   9.208  0.3683  0.2497  0.1264
  822MOL0     C10860   8.755   5.861   9.117 -0.1429 -0.3437  0.6604
  822MOL0     C10861   8.770   5.900   8.986 -0.5491  0.3063 -0.1915
  822MOL0     C10862   8.652   5.910   8.901 -0.0987 -1.1201  0.0287
  822MOL0     C10863   8.675   5.953   8.761  0.5660  0.2480 -0.2262
  822MOL0     C10864   8.526   5.861   8.946 -0.0947 -0.1980 -0.1090
  822MOL0     C10865   8.407   5.857   8.859  0.0822  0.1128  0.5519
  822MOL0     O10866   8.405   5.925   8.744  0.3310  0.0921  0.3456
  822MOL0     C10867   8.293   5.936   8.665  0.2493 -0.4002  0.9670
  822MOL0     C10868   8.161   5.937   8.709  0.0019  0.3829 -0.3457
  822MOL0     C10869   8.054   5.922   8.616 -0.1838  0.1559  0.6143
  822MOL0     C10870   8.077   5.913   8.483  0.6257  1.0936  0.3419
  822MOL0     O10871   7.966   5.889   8.406  0.1400 -0.3380  0.1530
  822MOL0     C10872   7.974   5.928   8.268 -1.0959 -0.5267  0.5251
  822MOL0     C10873   7.833   5.937   8.205  0.7573 -0.2037  0.4585
  822MOL0     C10874   7.767   5.804   8.195 -0.4552  0.1796  0.4255
  822MOL0     C10875   7.629   5.831   8.129 -0.0984  0.3283  0.3072
  822MOL0     C10876   7.551   5.705   8.109 -0.3388 -0.3127 -0.6047
  822MOL0     C10877   7.430   5.731   8.016 -0.3171 -0.2944  0.0416
  822MOL0     C10878   7.475   5.750   7.871  0.6985  0.2405 -0.2503
  822MOL0     C10879   7.364   5.724   7.762 -0.2945 -0.3275  0.1480
  822MOL0    Cl10880   7.243   5.854   7.769  0.1708  0.2670  0.1303
  822MOL0     C10881   8.208   5.908   8.438 -0.0547 -0.4953 -0.2562
  822MOL0     C10882   8.315   5.927   8.530  0.2407  0.0141 -1.0122
  822MOL0     O10883   8.317   5.770   8.890 -0.1555 -1.0408 -0.4414
  822MOL0     C10884   8.522   5.797   9.071 -0.2888  0.4049 -0.3867
  822MOL0     C10885   8.635   5.799   9.151  0.0895 -0.4759  0.1619
  822MOL0     N10886   9.520   6.104   9.425 -0.1867 -0.3348  0.9089
  822MOL0     N10887   9.639   6.115   9.374  0.1774 -0.1802  0.2048
  822MOL0     C10888   9.269   6.967   9.221  0.2760  0.3597 -0.0149
  822MOL0     C10889   9.159   6.954   9.309 -0.2448  0.0008  0.5393
  822MOL0     C10890   8.721   6.839   9.426 -0.1805  0.3336 -0.3282
  822MOL0     C10891   8.599   6.781   9.408 -0.2792  0.1285  0.5123
  822MOL0     C10892   8.485   6.805   9.482  0.8468  0.3381 -0.0702
  822MOL0     C10893   8.500   6.881   9.596 -0.9269  0.2054  0.5682
  822MOL0     O10894   8.399   6.907   9.689  0.0648 -0.2416 -0.0822
  822MOL0     C10895   8.279   6.829   9.688  0.6760 -0.0074  0.7831
  822MOL0     C10896   8.201   6.849   9.818  0.7476  0.1766  0.2126
  822MOL0     C10897   8.142   7.000   9.824 -0.8552  0.4618  0.2474
  822MOL0     C10898   8.056   7.022   9.943  0.1020  0.4496 -0.7857
  822MOL0     C10899   7.949   6.920   9.952  0.5854  0.9452  0.3785
  822MOL0     C10900   7.859   6.838   9.944 -0.6883  0.1785 -0.5923
  822MOL0     C10901   8.619   6.944   9.623 -0.3303  0.3004 -0.0873
  822MOL0     C10902   8.730   6.915   9.541  0.0473 -0.1884 -0.1502
  822MOL0     H10903   9.052   6.643   9.265  0.0452 -0.8053  0.9025
  822MOL0     H10904   9.248   6.652   9.090 -0.1424  0.6416  0.5114
  822MOL0     H10905   9.507   6.710   9.141  0.3394  0.9955  0.0358
  822MOL0     H10906   9.454   6.671   8.979  0.3439 -1.7202  1.3406
  822MOL0     H10907   9.638   6.842   8.896 -0.0854  2.2171  0.9757
  822MOL0     H10908   9.697   6.847   9.060  1.4191 -1.3636 -0.0363
  822MOL0     H10909   9.699   6.614   8.865  3.6893 -0.2795 -1.4742
  822MOL0     H10910   9.830   6.697   8.954 -0.9568 -0.5495  1.2310
  822MOL0     H10911   9.807   6.566   9.127 -1.5193  2.7011  2.9448
  822MOL0     H10912   9.633   6.536   9.128 -0.7181 -1.3582 -1.7933
  822MOL0     H10913   9.646   6.400   8.944 -0.9662  2.9441  1.5845
  822MOL0     H10914   9.825   6.420   8.911 -1.5256 -0.6587 -2.1225
  822MOL0     H10915   9.861   6.290   9.140 -0.1965 -0.3954 -0.0039
  822MOL0     H10916   9.699   6.309   9.181  0.7465 -1.4868 -0.5910
  822MOL0     H10917   9.635   6.155   8.981 -0.0439  2.2046 -0.1154
  822MOL0     H10918   9.808   6.139   8.954 -2.6906 -1.4660 -2.9418
  822MOL0     H10919   9.841   6.039   9.181  0.8240 -3.2349 -1.3555
  822MOL0     H10920   9.717   5.958   9.091 -0.7093 -0.6307  0.5223
  822MOL0     H10921   9.493   5.947   9.134  0.8688 -0.1513  0.0518
  822MOL0     H10922   9.318   5.891   9.444 -1.8202 -2.1106 -2.4937
  822MOL0     H10923   9.254   6.045   9.434  2.6981  0.1068  3.3223
  822MOL0     H10924   9.258   5.845   9.217  0.1102  0.0653  0.7849
  822MOL0     H10925   9.223   6.021   9.174 -4.0911 -1.5169 -2.2037
  822MOL0     H10926   9.059   6.019   9.348  0.9272 -0.0011  0.7260
  822MOL0     H10927   9.059   5.842   9.356 -1.7519  0.0934 -1.0956
  822MOL0     H10928   9.039   5.836   9.101  0.3281  0.4467  0.1943
  822MOL0     H10929   8.982   6.001   9.117 -0.9470  0.5170 -0.0580
  822MOL0     H10930   8.860   5.945   8.947 -0.4886  0.2173 -0.1555
  822MOL0     H10931   8.607   6.033   8.730 -0.3419  0.0336  1.1215
  822MOL0     H10932   8.783   5.970   8.749  1.1375 -0.8145  2.7082
  822MOL0     H10933   8.654   5.862   8.704  1.7598 -0.3199  0.2151
  822MOL0     H10934   8.130   5.936   8.813  2.9080 -3.2284  0.6950
  822MOL0     H10935   7.949   5.923   8.645 -0.4551  0.8591 -0.3192
  822MOL0     H10936   8.026   6.024   8.261  0.4362 -1.4155 -0.7455
  822MOL0     H10937   8.038   5.857   8.216 -0.8235 -1.2771  1.8539
  822MOL0     H10938   7.776   6.005   8.268  1.6762  0.1605  0.9246
  822MOL0     H10939   7.843   5.972   8.102  4.3810 -1.2341  0.2975
  822MOL0     H10940   7.763   5.753   8.291  0.4838 -0.3322  0.2038
  822MOL0     H10941   7.831   5.750   8.125  1.3223  3.6042 -0.8633
  822MOL0     H10942   7.583   5.912   8.188 -0.0703  1.2788 -0.9473
  822MOL0     H10943   7.649   5.869   8.029  2.3367 -0.0595  0.5975
  822MOL0     H10944   7.521   5.666   8.207  0.0905  0.4329 -0.1652
  822MOL0     H10945   7.620   5.633   8.062  0.0433 -0.1131 -0.3603
  822MOL0     H10946   7.349   5.660   8.037 -1.5650  1.5765  1.9346
  822MOL0     H10947   7.386   5.826   8.047 -0.9982 -1.2239  2.0811
  822MOL0     H10948   7.552   5.676   7.852  1.7566  0.9615  1.0259
  822MOL0     H10949   7.524   5.846   7.852  1.5108 -0.0992  0.0788
  822MOL0     H10950   7.317   5.625   7.757 -1.3435  0.2051 -1.1633
  822MOL0     H10951   7.412   5.724   7.664  1.1347 -1.7805  0.8190
  822MOL0     H10952   8.231   5.900   8.332  1.7479  0.6655 -0.0037
  822MOL0     H10953   8.413   5.944   8.485  1.7449  0.8939  2.2798
  822MOL0     H10954   8.430   5.747   9.100 -1.5329  1.3930 -2.3941
  822MOL0     H10955   8.639   5.743   9.244 -0.8265 -0.7963  0.0160
  822MOL0     H10956   9.318   7.063   9.208 -1.2275  0.9928 -1.3520
  822MOL0     H10957   9.127   7.034   9.375  0.3245 -0.6762  1.6648
  822MOL0     H10958   8.579   6.715   9.324  2.7021  2.1815 -2.0535
  822MOL0     H10959   8.392   6.775   9.436  0.6516  1.2136 -0.2633
  822MOL0     H10960   8.212   6.855   9.605  2.5835 -0.4453 -0.9698
  822MOL0     H10961   8.306   6.723   9.681 -3.7128 -1.4058  1.6832
  822MOL0     H10962   8.272   6.833   9.899 -0.5808 -1.1497  1.1648
  822MOL0     H10963   8.120   6.776   9.816 -0.4879  1.2368 -5.0008
  822MOL0     H10964   8.074   7.011   9.739 -1.1172 -3.0357 -0.1524
  822MOL0     H10965   8.227   7.066   9.803  1.1017 -2.1136 -0.4782
  822MOL0     H10966   8.012   7.122   9.939 -0.4971  0.3508  1.8927
  822MOL0     H10967   8.114   7.018  10.035 -1.2077  1.1738  0.1082
  822MOL0     H10968   7.776   6.772   9.929 -0.4536  0.1246 -1.7543
  822MOL0     H10969   8.622   7.015   9.706  0.8715  1.9156 -1.4407
  822MOL0     H10970   8.826   6.960   9.566  0.7033 -1.3178 -0.5760
  823MOL0     O10971   2.579   8.740   7.959  0.6347  0.3482 -0.2655
  823MOL0     C10972   2.624   8.650   7.890 -0.0861 -0.3576 -0.4767
  823MOL0     O10973   2.558   8.585   7.788  0.2384  0.4856  0.4529
  823MOL0     C10974   2.434   8.627   7.751 -0.5602  1.4571 -0.1034
  823MOL0     C10975   2.326   8.549   7.783  0.4022 -1.4074 -0.0603
  823MOL0     C10976   2.203   8.591   7.728 -0.3861 -0.2611 -0.2296
  823MOL0     C10977   2.187   8.702   7.646  0.0089  0.3409 -0.1768
  823MOL0     O10978   2.064   8.722   7.601  0.1384  0.0293 -0.1374
  823MOL0     C10979   2.048   8.748   7.459 -1.1020  0.1705  0.1495
  823MOL0     C10980   1.907   8.812   7.453 -0.2603 -0.3715 -0.1160
  823MOL0     C10981   1.845   8.813   7.310  0.1778 -0.4692  0.0254
  823MOL0     C10982   1.706   8.878   7.327  0.2258 -0.2018  0.7815
  823MOL0     C10983   1.642   8.880   7.189  0.7832  0.1148  0.7913
  823MOL0     C10984   1.509   8.955   7.192  0.3668  0.0726 -0.4989
  823MOL0     C10985   1.402   8.864   7.260 -0.4977 -0.0004  0.4337
  823MOL0     C10986   1.269   8.934   7.251  0.1863  0.0722  0.0170
  823MOL0     N10987   1.220   8.931   7.112 -0.4740 -0.8361 -0.2571
  823MOL0     C10988   1.156   8.832   7.034 -0.0221  0.4066  0.6679
  823MOL0     C10989   1.130   8.890   6.919 -0.2230 -0.4658  1.0916
  823MOL0     C10990   1.041   8.831   6.816 -0.3761  0.0642 -0.0767
  823MOL0     C10991   0.985   8.934   6.716 -0.4208  0.4181 -0.1836
  823MOL0     C10992   0.875   8.871   6.614  0.3599  0.4989  0.6542
  823MOL0     C10993   0.779   8.769   6.682  0.2200 -0.5473 -0.1832
  823MOL0     O10994   0.663   8.736   6.600  0.5537  0.3395  0.2789
  823MOL0     C10995   0.624   8.814   6.500  0.1434  0.0071  0.0713
  823MOL0     C10996   0.583   8.944   6.526  0.2226 -0.3561  1.0443
  823MOL0     C10997   0.520   9.029   6.433 -0.1971 -0.2859 -0.6971
  823MOL0     C10998   0.480   9.170   6.483  0.0469 -0.2111  0.8748
  823MOL0     C10999   0.505   8.983   6.293 -0.4147  0.6379 -0.0669
  823MOL0     C11000   0.462   9.065   6.177  1.0147 -0.9847 -0.4366
  823MOL0     O11001   0.524   9.038   6.064 -0.2617  0.1542 -0.2842
  823MOL0     C11002   0.480   9.112   5.953  0.0114  0.2160 -0.1099
  823MOL0     C11003   0.355   9.085   5.895 -0.2212 -0.3176  0.1998
  823MOL0     C11004   0.318   9.143   5.774  0.2742  0.1518 -1.0452
  823MOL0     C11005   0.399   9.243   5.726 -0.8652  0.0784  0.4605
  823MOL0     O11006   0.358   9.309   5.611  0.7770 -0.5320  0.1899
  823MOL0     C11007   0.438   9.304   5.488 -0.9164 -0.3613 -0.0849
  823MOL0     C11008   0.353   9.345   5.363  0.2507 -0.6795  0.8557
  823MOL0     C11009   0.255   9.231   5.342 -0.3381  0.3840 -0.4530
  823MOL0     C11010   0.159   9.274   5.222  0.1191  0.8661 -0.1261
  823MOL0     C11011   0.028   9.192   5.224 -0.0646  0.0211 -0.1527
  823MOL0     C11012  -0.066   9.238   5.119 -0.2543  0.4331  0.4377
  823MOL0     C11013  -0.194   9.148   5.109  0.2694 -0.5458 -0.2338
  823MOL0     C11014  -0.325   9.223   5.075 -0.9518 -0.2248 -0.1786
  823MOL0    Cl11015  -0.461   9.115   5.084 -0.0205 -0.0069  0.5762
  823MOL0     C11016   0.522   9.276   5.784  0.2488 -0.4749  0.3548
  823MOL0     C11017   0.564   9.208   5.893 -0.8155  0.2993 -0.2917
  823MOL0     O11018   0.378   9.153   6.194  0.5931  0.0633  0.2092
  823MOL0     C11019   0.562   8.848   6.271  0.8911 -0.3542 -0.2019
  823MOL0     C11020   0.615   8.769   6.369  0.1502  0.3929 -0.0504
  823MOL0     N11021   1.173   9.027   6.929  0.3147  0.1764 -0.2699
  823MOL0     N11022   1.221   9.052   7.044  0.1652 -0.6637  0.9503
  823MOL0     C11023   2.302   8.775   7.613 -0.2766  0.7007  0.6222
  823MOL0     C11024   2.427   8.734   7.661  0.6572 -0.9556  0.0739
  823MOL0     C11025   2.762   8.601   7.922 -0.1764  0.1591  0.9416
  823MOL0     C11026   2.830   8.519   7.823  1.1196  0.3207 -0.1102
  823MOL0     C11027   2.957   8.475   7.856 -0.8380 -0.2600  0.2541
  823MOL0     C11028   3.024   8.511   7.976  0.4903 -0.0958  0.3866
  823MOL0     O11029   3.164   8.481   7.994  0.3669  0.1431 -0.5707
  823MOL0     C11030   3.242   8.426   7.893 -0.2142 -0.7465  0.8776
  823MOL0     C11031   3.383   8.473   7.895 -0.1465  0.3566  0.5583
  823MOL0     C11032   3.478   8.410   8.004 -0.1495 -0.1215 -0.2628
  823MOL0     C11033   3.608   8.485   8.021  0.0007  0.1421 -0.2621
  823MOL0     C11034   3.590   8.613   8.074 -0.6412  0.3927 -0.5848
  823MOL0     C11035   3.564   8.723   8.115  0.0950  0.4738  0.7040
  823MOL0     C11036   2.958   8.589   8.067  0.4855  0.2305 -0.5176
  823MOL0     C11037   2.829   8.633   8.044  0.3329  0.5104 -0.2833
  823MOL0     H11038   2.338   8.468   7.856  1.8525 -0.5371  0.7113
  823MOL0     H11039   2.114   8.537   7.757 -0.0509 -1.6701 -1.6346
  823MOL0     H11040   2.111   8.828   7.421 -0.0910 -0.5476  0.2901
  823MOL0     H11041   2.051   8.656   7.399 -3.1974 -0.6428  1.1831
  823MOL0     H11042   1.842   8.748   7.514 -3.2656 -1.3415 -3.9072
  823MOL0     H11043   1.916   8.912   7.496  0.2874 -1.1580  1.6973
  823MOL0     H11044   1.910   8.875   7.249 -0.7249  0.8852  0.3910
  823MOL0     H11045   1.815   8.717   7.267  1.3145 -0.1112 -1.6698
  823MOL0     H11046   1.648   8.807   7.386 -1.2969 -0.0769 -0.5148
  823MOL0     H11047   1.708   8.985   7.350 -2.0169  0.6711 -2.4988
  823MOL0     H11048   1.710   8.944   7.133 -1.0050  2.3735  1.0530
  823MOL0     H11049   1.626   8.780   7.147 -1.0583  0.3476  0.8397
  823MOL0     H11050   1.499   9.054   7.237 -1.1916  0.3843 -1.4464
  823MOL0     H11051   1.486   8.974   7.087 -0.0355 -3.8926 -1.2840
  823MOL0     H11052   1.399   8.766   7.211  1.6301  0.0218  0.1459
  823MOL0     H11053   1.435   8.852   7.364  0.2547  1.3143  0.3827
  823MOL0     H11054   1.283   9.037   7.284 -0.9113  0.9455 -2.0941
  823MOL0     H11055   1.193   8.887   7.314 -0.1139  0.0392 -0.3657
  823MOL0     H11056   1.131   8.734   7.074  0.1017 -0.7925 -1.9661
  823MOL0     H11057   1.089   8.752   6.758 -0.4875 -0.4203  0.4836
  823MOL0     H11058   0.969   8.779   6.880  0.8900  2.8045  3.9854
  823MOL0     H11059   1.068   8.972   6.656  1.9941 -2.0864  1.2928
  823MOL0     H11060   0.939   9.019   6.766  1.2355  1.1383  0.1836
  823MOL0     H11061   0.922   8.811   6.535 -0.2681 -0.6251  1.1097
  823MOL0     H11062   0.820   8.953   6.568 -1.4571 -1.7314 -1.3945
  823MOL0     H11063   0.751   8.821   6.774  3.4962 -0.9367  1.1494
  823MOL0     H11064   0.824   8.677   6.717 -1.7329  0.0612  4.6999
  823MOL0     H11065   0.595   8.978   6.628 -0.5125 -0.9108  1.3263
  823MOL0     H11066   0.383   9.169   6.534 -0.3992  2.8284  0.2564
  823MOL0     H11067   0.541   9.220   6.559  0.3603  0.2834  0.3030
  823MOL0     H11068   0.478   9.240   6.399  1.0353 -1.3950 -0.1698
  823MOL0     H11069   0.290   9.015   5.946 -3.6198  1.4504 -1.4237
  823MOL0     H11070   0.226   9.113   5.726 -0.3931 -0.3485  0.4765
  823MOL0     H11071   0.524   9.371   5.500 -0.5030 -1.1975  1.9886
  823MOL0     H11072   0.482   9.205   5.472 -2.3539 -1.1942  0.8914
  823MOL0     H11073   0.306   9.441   5.385 -1.1473 -0.5090 -2.3261
  823MOL0     H11074   0.418   9.354   5.276  0.1796 -1.2646  0.7316
  823MOL0     H11075   0.205   9.213   5.438  0.8610  0.1281  0.1566
  823MOL0     H11076   0.297   9.134   5.312 -1.8536 -0.1558 -0.9163
  823MOL0     H11077   0.145   9.382   5.234  0.0364  0.7576  0.9009
  823MOL0     H11078   0.196   9.259   5.121 -1.8588  2.9702 -1.2536
  823MOL0     H11079  -0.015   9.200   5.324  0.6803 -2.5342  0.4619
  823MOL0     H11080   0.048   9.084   5.218 -0.8929 -0.0874 -1.1781
  823MOL0     H11081  -0.094   9.343   5.125  0.2944  0.6248 -0.1885
  823MOL0     H11082  -0.012   9.231   5.024 -3.3845  1.1241 -1.5624
  823MOL0     H11083  -0.202   9.092   5.202  1.0005  3.6792  2.6405
  823MOL0     H11084  -0.177   9.073   5.030  1.2220 -0.4468 -0.1355
  823MOL0     H11085  -0.322   9.273   4.978  2.2349 -2.4683 -1.4201
  823MOL0     H11086  -0.336   9.294   5.158  1.2373 -1.2409  1.0616
  823MOL0     H11087   0.581   9.355   5.739 -1.3875  1.1658  0.9383
  823MOL0     H11088   0.659   9.231   5.941  0.3978 -0.8259 -2.0300
  823MOL0     H11089   0.551   8.810   6.170 -2.2648  1.5213 -0.7419
  823MOL0     H11090   0.652   8.671   6.342  0.3793  0.4900 -0.0897
  823MOL0     H11091   2.285   8.849   7.535  2.7157  1.7256  0.7971
  823MOL0     H11092   2.519   8.779   7.624  0.6076 -0.6214  0.3608
  823MOL0     H11093   2.788   8.481   7.730 -0.1137 -0.7924  0.8618
  823MOL0     H11094   2.999   8.405   7.785 -1.7983  1.8005 -2.4933
  823MOL0     H11095   3.243   8.318   7.910 -0.7182 -0.8283  0.4288
  823MOL0     H11096   3.203   8.447   7.793 -1.9956 -0.8636  1.5177
  823MOL0     H11097   3.380   8.581   7.906 -1.1190  0.2067  2.0679
  823MOL0     H11098   3.435   8.451   7.802 -0.4793  0.3163  0.3796
  823MOL0     H11099   3.500   8.310   7.967 -1.7320 -0.2147 -1.0645
  823MOL0     H11100   3.429   8.410   8.102  1.1876  0.1363  0.4236
  823MOL0     H11101   3.662   8.484   7.926  0.3144  1.3016 -0.1152
  823MOL0     H11102   3.659   8.422   8.094 -0.1071 -1.4838 -1.5292
  823MOL0     H11103   3.529   8.820   8.140 -0.7676  0.4647 -0.3895
  823MOL0     H11104   3.009   8.617   8.159  2.6937 -0.5534 -1.4427
  823MOL0     H11105   2.780   8.689   8.123  1.5996  1.9630 -0.4926
  824MOL0     O11106   3.792   5.145   3.417 -0.8862 -0.5186 -0.3768
  824MOL0     C11107   3.835   5.086   3.518  0.1348  0.5448 -0.6418
  824MOL0     O11108   3.777   5.078   3.648  0.5836 -0.1708 -0.0126
  824MOL0     C11109   3.682   5.173   3.671  0.3178 -0.5413 -0.1426
  824MOL0     C11110   3.718   5.307   3.705  0.5543  0.2377  0.4742
  824MOL0     C11111   3.616   5.400   3.724  0.9983 -0.3335 -0.3505
  824MOL0     C11112   3.485   5.362   3.714  0.4466  0.3765  0.0976
  824MOL0     O11113   3.394   5.459   3.721  0.2766 -0.1804 -0.4135
  824MOL0     C11114   3.283   5.424   3.807  0.5909 -0.2636  0.7633
  824MOL0     C11115   3.226   5.553   3.871  0.3146 -0.1820  0.2373
  824MOL0     C11116   3.073   5.537   3.889 -0.1787  0.2564  0.4089
  824MOL0     C11117   3.022   5.445   3.994  0.4688 -0.1422  0.1863
  824MOL0     C11118   2.870   5.441   4.011 -0.3311  0.7792  0.5317
  824MOL0     C11119   2.828   5.304   4.075 -0.4166  0.4688  0.0712
  824MOL0     C11120   2.675   5.294   4.111  0.2820  0.2289 -0.1382
  824MOL0     C11121   2.636   5.151   4.150  0.2613 -0.1859 -0.2386
  824MOL0     N11122   2.503   5.123   4.196  0.8922  0.7929 -0.2200
  824MOL0     C11123   2.435   5.163   4.306  0.0729  0.0414  0.1543
  824MOL0     C11124   2.312   5.112   4.313  0.6112  0.4284  0.3288
  824MOL0     C11125   2.219   5.118   4.425 -0.1582 -0.5753 -0.6648
  824MOL0     C11126   2.139   4.983   4.434  0.4961  0.5286  0.9025
  824MOL0     C11127   2.057   4.959   4.562 -0.0128  0.3932  0.3907
  824MOL0     C11128   1.942   5.057   4.590 -0.2194 -0.5127 -0.4109
  824MOL0     O11129   1.878   5.030   4.719 -0.4460  0.2931 -0.0651
  824MOL0     C11130   1.778   5.117   4.751  0.3785  0.9265 -0.0454
  824MOL0     C11131   1.705   5.207   4.668  0.6526  0.6442  0.7387
  824MOL0     C11132   1.588   5.273   4.715  1.5373  0.4882  0.5276
  824MOL0     C11133   1.517   5.370   4.622 -0.6198 -0.3692 -0.1719
  824MOL0     C11134   1.536   5.240   4.840 -0.6162  0.8154 -0.7393
  824MOL0     C11135   1.411   5.300   4.903 -0.4158  0.0428  0.1199
  824MOL0     O11136   1.303   5.349   4.830 -0.4445  0.3346 -0.6784
  824MOL0     C11137   1.186   5.387   4.894  0.6526 -0.5051  0.3163
  824MOL0     C11138   1.088   5.453   4.810  0.0677  0.0945 -0.7290
  824MOL0     C11139   0.965   5.489   4.860  0.4551 -0.3114 -0.5834
  824MOL0     C11140   0.923   5.456   4.994  0.7682 -0.2210  0.5656
  824MOL0     O11141   0.800   5.481   5.047 -0.5439 -0.0668 -0.1364
  824MOL0     C11142   0.755   5.613   5.006  0.0673  0.8233  0.1574
  824MOL0     C11143   0.667   5.675   5.113 -0.4265 -0.5087  0.4602
  824MOL0     C11144   0.537   5.606   5.139 -0.1167  0.7890 -0.4537
  824MOL0     C11145   0.450   5.698   5.229 -0.0570  0.0142  0.6163
  824MOL0     C11146   0.302   5.691   5.183 -0.3170 -0.0599 -0.2251
  824MOL0     C11147   0.206   5.769   5.272  0.4301 -0.3022 -0.3872
  824MOL0     C11148   0.191   5.701   5.410  0.3865 -1.0122  0.1168
  824MOL0     C11149   0.082   5.761   5.496  0.4105  0.0846  0.0449
  824MOL0    Cl11150   0.072   5.661   5.640 -0.0860  0.1074 -0.2004
  824MOL0     C11151   1.022   5.392   5.076 -0.1702  0.6687  0.1671
  824MOL0     C11152   1.139   5.351   5.021 -0.8713  0.1072 -1.1638
  824MOL0     O11153   1.424   5.323   5.021 -0.0449  0.1102 -0.6832
  824MOL0     C11154   1.610   5.146   4.923  0.0694  1.0620 -0.7739
  824MOL0     C11155   1.727   5.090   4.875  0.1398 -0.2873 -0.6623
  824MOL0     N11156   2.299   5.039   4.196  0.2079  0.1000 -0.1895
  824MOL0     N11157   2.407   5.048   4.126  0.3404 -0.0735 -0.2884
  824MOL0     C11158   3.452   5.228   3.687  0.6761 -0.0381  0.6560
  824MOL0     C11159   3.554   5.131   3.670  1.2876 -0.3590 -0.1175
  824MOL0     C11160   3.957   5.013   3.509  0.0606 -0.3009  0.1250
  824MOL0     C11161   4.022   4.941   3.615 -0.2137 -0.4160  0.6897
  824MOL0     C11162   4.147   4.868   3.603 -0.3035 -0.4693  0.7636
  824MOL0     C11163   4.199   4.851   3.468  0.5405 -0.1149  0.2236
  824MOL0     O11164   4.304   4.768   3.450  0.4941  0.5659 -0.3398
  824MOL0     C11165   4.318   4.686   3.332  0.3238 -1.0194 -0.4753
  824MOL0     C11166   4.460   4.643   3.320 -0.4387  0.3855 -0.5790
  824MOL0     C11167   4.566   4.748   3.366  0.2778 -0.3738 -0.3165
  824MOL0     C11168   4.696   4.680   3.334  0.0509 -0.2930  0.8501
  824MOL0     C11169   4.808   4.766   3.373 -0.0581 -0.0848 -0.1880
  824MOL0     C11170   4.892   4.841   3.414  0.3922 -0.6478  0.4289
  824MOL0     C11171   4.137   4.916   3.359 -0.6726 -0.5976  0.3713
  824MOL0     C11172   4.017   4.989   3.380 -0.1383  0.0083 -0.3473
  824MOL0     H11173   3.821   5.338   3.720 -0.2606  2.7840  1.3982
  824MOL0     H11174   3.633   5.507   3.730 -3.4394  0.6528 -2.0166
  824MOL0     H11175   3.200   5.378   3.752 -0.3566  0.7854  1.2622
  824MOL0     H11176   3.312   5.351   3.883  0.2013  0.3372  1.5004
  824MOL0     H11177   3.266   5.573   3.971 -0.5476  1.1134  0.3447
  824MOL0     H11178   3.243   5.638   3.804 -3.2892  0.8703  0.4296
  824MOL0     H11179   3.037   5.636   3.920  0.4549  0.3904  0.7311
  824MOL0     H11180   3.031   5.520   3.789  0.8202 -2.5051  0.3796
  824MOL0     H11181   3.045   5.344   3.958  0.1846  0.0926 -0.6861
  824MOL0     H11182   3.079   5.457   4.087  2.3230  0.5610 -0.9810
  824MOL0     H11183   2.841   5.525   4.074 -2.3629 -0.0133  0.7157
  824MOL0     H11184   2.821   5.449   3.913  0.1318  0.4513  0.2654
  824MOL0     H11185   2.858   5.220   4.012  0.3604 -1.6554  3.0551
  824MOL0     H11186   2.889   5.291   4.165  1.9397 -2.4775 -1.7667
  824MOL0     H11187   2.654   5.347   4.204  1.6691 -0.0536  0.3706
  824MOL0     H11188   2.608   5.339   4.038  0.9877  1.9459  0.2234
  824MOL0     H11189   2.715   5.115   4.217  0.4587 -0.8940 -0.8312
  824MOL0     H11190   2.648   5.099   4.054  0.3749 -1.7431  0.5917
  824MOL0     H11191   2.479   5.234   4.375 -1.6536  1.1648  0.1487
  824MOL0     H11192   2.278   5.144   4.514  2.4650 -0.3482 -2.3544
  824MOL0     H11193   2.145   5.196   4.405  1.4231  0.7192 -1.7152
  824MOL0     H11194   2.212   4.902   4.426  2.3706  2.3526 -2.3291
  824MOL0     H11195   2.065   4.972   4.354 -0.2373  0.3721  1.5797
  824MOL0     H11196   2.129   4.970   4.644 -1.7260  0.2398  1.9619
  824MOL0     H11197   2.012   4.860   4.563 -0.3067  0.5156 -0.4051
  824MOL0     H11198   1.879   5.045   4.501  2.9813 -0.0577 -2.9409
  824MOL0     H11199   1.979   5.160   4.599 -2.9254  0.4542  0.5706
  824MOL0     H11200   1.733   5.225   4.565 -0.4424 -0.7525  0.1560
  824MOL0     H11201   1.588   5.408   4.548  1.3784 -2.4727  0.5243
  824MOL0     H11202   1.436   5.320   4.567 -1.5373  0.3819  0.4739
  824MOL0     H11203   1.483   5.459   4.674 -1.1513  0.1838 -1.4088
  824MOL0     H11204   1.118   5.478   4.709  2.8129  0.5347  0.1097
  824MOL0     H11205   0.890   5.530   4.794 -2.6566 -4.1719  0.2404
  824MOL0     H11206   0.838   5.680   4.981  1.5880  0.0352  2.7267
  824MOL0     H11207   0.692   5.610   4.917  2.2425 -1.1791 -1.4549
  824MOL0     H11208   0.723   5.668   5.207 -1.8776  1.0008  1.4885
  824MOL0     H11209   0.643   5.781   5.098  0.0893 -0.0881  2.3198
  824MOL0     H11210   0.565   5.513   5.189 -3.9757 -0.4294 -0.2114
  824MOL0     H11211   0.492   5.571   5.046  1.5312 -0.7283 -0.7202
  824MOL0     H11212   0.459   5.658   5.330 -0.2395 -4.0521 -0.7738
  824MOL0     H11213   0.470   5.806   5.230  0.5057 -0.0598 -0.4916
  824MOL0     H11214   0.279   5.584   5.175  1.2967 -1.1419  5.1690
  824MOL0     H11215   0.297   5.734   5.083  0.9732  1.2090  0.2274
  824MOL0     H11216   0.248   5.869   5.285  1.0605 -0.4056 -1.4903
  824MOL0     H11217   0.112   5.778   5.216 -0.1491  2.2999  0.8544
  824MOL0     H11218   0.277   5.728   5.472 -1.3207  1.0614  1.7517
  824MOL0     H11219   0.170   5.594   5.397  1.5887 -1.7345  3.1554
  824MOL0     H11220  -0.014   5.768   5.444  0.8106  3.3199 -0.4923
  824MOL0     H11221   0.115   5.863   5.521 -1.1803  0.2240  1.8532
  824MOL0     H11222   1.003   5.342   5.171  0.3368 -0.9769 -0.5729
  824MOL0     H11223   1.200   5.290   5.087  0.5537 -0.1425 -2.6350
  824MOL0     H11224   1.579   5.108   5.020  2.5848 -0.4330 -0.4837
  824MOL0     H11225   1.782   5.022   4.939 -1.1793  0.0589  0.9198
  824MOL0     H11226   3.351   5.194   3.668  0.9681  0.4698 -2.1867
  824MOL0     H11227   3.535   5.024   3.663  0.9623 -0.6895  3.6313
  824MOL0     H11228   3.975   4.944   3.713 -1.8108 -0.8365 -0.0278
  824MOL0     H11229   4.178   4.826   3.698  1.7214 -1.2289 -0.1677
  824MOL0     H11230   4.260   4.593   3.332  0.0652 -0.8593 -0.7886
  824MOL0     H11231   4.293   4.745   3.243  0.8379  0.5655  0.3976
  824MOL0     H11232   4.480   4.617   3.215  0.5503 -1.5872  0.0574
  824MOL0     H11233   4.472   4.555   3.383 -0.2291 -0.2305 -1.4591
  824MOL0     H11234   4.560   4.778   3.471  0.6471 -0.2910 -0.3175
  824MOL0     H11235   4.554   4.841   3.309  0.4945 -0.7566 -1.0027
  824MOL0     H11236   4.705   4.680   3.225 -2.4574 -1.6930  0.5777
  824MOL0     H11237   4.715   4.584   3.383  0.7566  0.2625  1.7040
  824MOL0     H11238   4.976   4.900   3.443  0.3842 -1.4883  2.2765
  824MOL0     H11239   4.167   4.904   3.256  1.7408 -2.5068  1.1908
  824MOL0     H11240   3.962   5.028   3.295 -2.9050  1.6500  2.0264
  825MOL0     O11241   6.581   2.211   3.412 -0.2331 -0.2344 -0.4456
  825MOL0     C11242   6.625   2.221   3.530 -0.4200 -0.0412 -1.0615
  825MOL0     O11243   6.546   2.219   3.648 -0.0482  0.2166 -0.4572
  825MOL0     C11244   6.414   2.199   3.629  0.4757  1.2181 -0.3021
  825MOL0     C11245   6.362   2.068   3.642  0.5942 -0.3527 -0.0506
  825MOL0     C11246   6.223   2.049   3.607  0.5762  0.2257 -0.0143
  825MOL0     C11247   6.127   2.156   3.575  0.3769  0.1929 -0.3894
  825MOL0     O11248   5.988   2.147   3.552 -0.4628 -0.5832  0.5399
  825MOL0     C11249   5.929   2.034   3.599  0.3907  0.5501 -0.5512
  825MOL0     C11250   5.780   2.044   3.610 -0.4911  1.0741  0.5360
  825MOL0     C11251   5.714   2.055   3.471  0.0232  0.0666  0.0332
  825MOL0     C11252   5.559   2.051   3.480 -0.0052 -0.0806 -0.3742
  825MOL0     C11253   5.498   2.160   3.579 -1.1445 -0.0647 -0.3754
  825MOL0     C11254   5.347   2.188   3.552  0.6876 -0.6485  0.0857
  825MOL0     C11255   5.274   2.083   3.629  0.2099  0.1669 -0.6037
  825MOL0     C11256   5.137   2.150   3.642 -0.3998 -0.0869 -0.6981
  825MOL0     N11257   5.031   2.054   3.639  0.0174  0.6477  0.8295
  825MOL0     C11258   4.978   1.998   3.749  0.6155 -0.0193 -0.5880
  825MOL0     C11259   4.853   1.943   3.717 -0.3670  0.4829 -0.9134
  825MOL0     C11260   4.761   1.862   3.796 -0.7075  0.4298  0.5224
  825MOL0     C11261   4.628   1.928   3.838  0.9058  0.9249 -0.3942
  825MOL0     C11262   4.554   1.830   3.925 -0.0974  0.4856  0.3620
  825MOL0     C11263   4.422   1.889   3.980 -0.4720 -0.4182  0.4160
  825MOL0     O11264   4.464   2.002   4.062  0.1116  0.7163  0.0613
  825MOL0     C11265   4.363   2.058   4.131 -0.4021  0.8036 -0.0329
  825MOL0     C11266   4.230   2.031   4.131 -0.0279 -0.2991 -0.5616
  825MOL0     C11267   4.143   2.111   4.208  0.6705 -0.1970 -0.7801
  825MOL0     C11268   3.994   2.067   4.203  0.3677 -0.2045  0.9504
  825MOL0     C11269   4.204   2.206   4.298 -0.0133 -0.2533 -0.8693
  825MOL0     C11270   4.118   2.287   4.398 -0.1642 -0.8160  1.2393
  825MOL0     O11271   4.191   2.357   4.495 -0.3054 -0.2881 -0.0395
  825MOL0     C11272   4.147   2.422   4.605  0.0520  0.3757  0.4860
  825MOL0     C11273   4.246   2.500   4.668 -0.2399  0.4569 -0.8966
  825MOL0     C11274   4.219   2.568   4.786 -0.7311 -0.7637 -0.3977
  825MOL0     C11275   4.089   2.564   4.847  0.5667 -0.0627 -0.6756
  825MOL0     O11276   4.051   2.623   4.967 -0.7289  0.2059  0.0008
  825MOL0     C11277   4.160   2.686   5.034 -0.0270 -0.5648  0.3053
  825MOL0     C11278   4.122   2.728   5.171  0.6843  0.8139 -0.1917
  825MOL0     C11279   4.006   2.835   5.184 -0.1165  0.1882  0.5909
  825MOL0     C11280   3.976   2.891   5.322 -0.1473  0.6105  1.0137
  825MOL0     C11281   3.895   3.009   5.312 -0.4044  0.2131  0.2599
  825MOL0     C11282   3.851   3.062   5.448  0.4156 -0.7365 -0.1251
  825MOL0     C11283   3.718   3.144   5.438 -0.0434 -0.1388  0.8805
  825MOL0     C11284   3.727   3.248   5.327 -0.7039 -0.2831  0.6348
  825MOL0    Cl11285   3.585   3.347   5.336 -0.0378  0.0955  0.1078
  825MOL0     C11286   3.990   2.488   4.774  1.0032 -0.3595  0.4397
  825MOL0     C11287   4.013   2.419   4.657 -0.0616 -0.6366  0.0496
  825MOL0     O11288   3.996   2.295   4.387 -0.1216 -0.4817 -0.5736
  825MOL0     C11289   4.344   2.227   4.302  0.6204  0.0038 -0.6962
  825MOL0     C11290   4.417   2.156   4.218  0.2899 -0.0451 -0.6331
  825MOL0     N11291   4.841   1.959   3.582 -0.4496  0.5297  0.1914
  825MOL0     N11292   4.939   2.033   3.535  0.4045 -0.0044  0.7452
  825MOL0     C11293   6.192   2.278   3.560  0.2468  0.4251  0.4815
  825MOL0     C11294   6.327   2.301   3.585 -0.1664 -0.0994 -1.5789
  825MOL0     C11295   6.765   2.247   3.546 -0.9130 -0.0820  0.1449
  825MOL0     C11296   6.838   2.193   3.655 -0.7845  0.1267  0.0473
  825MOL0     C11297   6.975   2.225   3.676  0.3560  0.5903 -0.1245
  825MOL0     C11298   7.051   2.294   3.579 -0.8082 -0.2751  0.5622
  825MOL0     O11299   7.192   2.324   3.589  0.3935 -0.6387  1.1601
  825MOL0     C11300   7.279   2.277   3.697  0.0384 -0.6670  0.1554
  825MOL0     C11301   7.406   2.359   3.686  0.8969  0.0983 -0.7832
  825MOL0     C11302   7.500   2.340   3.804  0.1039  0.2146 -0.6270
  825MOL0     C11303   7.645   2.350   3.763  0.1618 -0.8078 -0.0989
  825MOL0     C11304   7.739   2.338   3.875  0.1292  0.8695  0.1117
  825MOL0     C11305   7.829   2.305   3.951  0.0205 -0.4406  0.2200
  825MOL0     C11306   6.981   2.357   3.472  0.7998 -0.1304  0.5229
  825MOL0     C11307   6.839   2.328   3.457 -1.0948 -0.7039  0.2164
  825MOL0     H11308   6.417   1.983   3.681 -1.4892 -1.3159  0.9069
  825MOL0     H11309   6.188   1.946   3.612  1.6384 -0.1919 -0.8865
  825MOL0     H11310   5.962   1.951   3.536  0.2830 -0.1479  0.2898
  825MOL0     H11311   5.955   2.027   3.705  2.2556 -0.7564 -1.0402
  825MOL0     H11312   5.749   1.945   3.644  0.7145 -0.1774 -1.7876
  825MOL0     H11313   5.741   2.118   3.681 -0.7261  2.4338 -0.9641
  825MOL0     H11314   5.746   2.147   3.422 -0.1936  0.0628 -0.1168
  825MOL0     H11315   5.741   1.970   3.407 -0.9615 -0.6549  0.5363
  825MOL0     H11316   5.520   2.077   3.381  1.8334  2.8319 -0.4565
  825MOL0     H11317   5.536   1.952   3.520  2.2068 -0.3676  0.3373
  825MOL0     H11318   5.527   2.125   3.679  0.1114  2.3111  0.1583
  825MOL0     H11319   5.555   2.252   3.564  0.8992 -1.8134 -5.0332
  825MOL0     H11320   5.322   2.290   3.581  0.5377  0.4790 -3.5581
  825MOL0     H11321   5.327   2.172   3.446  1.5052 -1.0934 -0.0133
  825MOL0     H11322   5.265   1.993   3.567 -1.7758  1.2605 -1.9969
  825MOL0     H11323   5.322   2.061   3.726  0.4003 -1.3918 -1.0131
  825MOL0     H11324   5.113   2.216   3.558 -0.7534  0.0810 -0.4676
  825MOL0     H11325   5.143   2.208   3.734  2.3376 -1.2510 -0.0389
  825MOL0     H11326   5.024   2.009   3.847  1.9037 -1.9835 -0.8989
  825MOL0     H11327   4.731   1.776   3.735 -3.9111  0.9512  1.1934
  825MOL0     H11328   4.822   1.818   3.876 -0.5281  2.0271  1.2952
  825MOL0     H11329   4.576   1.952   3.745  3.2730  1.4138 -1.6694
  825MOL0     H11330   4.658   2.020   3.889  4.3322  1.2188 -2.6856
  825MOL0     H11331   4.620   1.794   4.004 -1.0008 -1.2286  0.3730
  825MOL0     H11332   4.543   1.742   3.861  3.5643 -0.3292  0.6478
  825MOL0     H11333   4.367   1.807   4.027 -2.6737 -0.6512 -2.2961
  825MOL0     H11334   4.373   1.935   3.894  0.6386 -1.0230 -0.5875
  825MOL0     H11335   4.181   1.956   4.071 -2.3945  0.9999 -0.3610
  825MOL0     H11336   3.944   2.126   4.126  1.9809 -0.5725 -0.4375
  825MOL0     H11337   3.980   1.962   4.173  0.4278 -0.0549  0.3913
  825MOL0     H11338   3.937   2.076   4.296  0.1785  1.1317  0.7283
  825MOL0     H11339   4.350   2.502   4.636  0.6157  1.2702  1.6720
  825MOL0     H11340   4.301   2.621   4.834 -0.1819  0.1471 -2.2619
  825MOL0     H11341   4.246   2.621   5.052 -0.4165 -0.4312  2.9431
  825MOL0     H11342   4.186   2.778   4.979 -0.8292  0.6526  1.9045
  825MOL0     H11343   4.083   2.637   5.217  0.2600  1.4020  0.6379
  825MOL0     H11344   4.213   2.758   5.224  0.9235  1.5515 -0.9940
  825MOL0     H11345   3.913   2.806   5.134  1.2579 -0.6478 -1.6008
  825MOL0     H11346   4.035   2.919   5.120  0.1225 -1.2280 -1.2492
  825MOL0     H11347   3.921   2.814   5.377  0.3307  0.4155  1.2226
  825MOL0     H11348   4.067   2.919   5.377 -0.7920  0.1037  2.3945
  825MOL0     H11349   3.805   2.993   5.252 -0.6581 -1.0970  0.9611
  825MOL0     H11350   3.947   3.094   5.267 -0.8211  1.8818  2.7309
  825MOL0     H11351   3.842   2.980   5.520 -0.1049 -0.6819 -0.1250
  825MOL0     H11352   3.927   3.134   5.481  1.3718 -0.4424 -2.7564
  825MOL0     H11353   3.704   3.183   5.539 -1.8153  0.8588  0.2916
  825MOL0     H11354   3.631   3.079   5.424 -0.9267  0.1097  4.4378
  825MOL0     H11355   3.719   3.204   5.227  0.3455  1.7778 -0.4068
  825MOL0     H11356   3.814   3.310   5.347  0.3618 -2.1651  2.3150
  825MOL0     H11357   3.891   2.490   4.818  0.7637  2.5607 -0.0143
  825MOL0     H11358   3.941   2.353   4.610 -0.2100 -0.7633  0.4552
  825MOL0     H11359   4.393   2.309   4.354 -0.7137  1.8666 -2.2382
  825MOL0     H11360   4.525   2.165   4.224  0.1924  0.2192  1.6334
  825MOL0     H11361   6.127   2.357   3.523  0.3883  1.9634  3.2099
  825MOL0     H11362   6.363   2.403   3.595  2.0916 -0.9188 -0.5328
  825MOL0     H11363   6.785   2.129   3.725  0.6066 -0.5518  0.5238
  825MOL0     H11364   7.025   2.195   3.768  2.0205  0.4274 -1.0476
  825MOL0     H11365   7.221   2.301   3.787 -1.4056 -1.3039 -0.5660
  825MOL0     H11366   7.298   2.169   3.692 -5.1852 -1.8939  1.0824
  825MOL0     H11367   7.380   2.464   3.671  0.6275  0.2134  0.4085
  825MOL0     H11368   7.458   2.327   3.595 -0.0736 -0.0848 -1.2899
  825MOL0     H11369   7.477   2.243   3.849  1.3288 -0.5343 -1.5541
  825MOL0     H11370   7.472   2.419   3.875  1.8787  0.5205 -0.2190
  825MOL0     H11371   7.663   2.447   3.715 -1.0334 -1.7238 -2.5924
  825MOL0     H11372   7.670   2.281   3.681  0.5276  0.8468 -1.4436
  825MOL0     H11373   7.905   2.254   4.007 -0.6226  0.0702  1.5995
  825MOL0     H11374   7.031   2.413   3.393 -1.5591  1.4445  0.0235
  825MOL0     H11375   6.786   2.379   3.377 -0.5902  2.1902  1.5913
  826MOL0     O11376   1.679  11.218   9.134  0.5318 -0.0711 -0.6858
  826MOL0     C11377   1.750  11.302   9.188 -0.2299 -0.1436  1.4026
  826MOL0     O11378   1.710  11.427   9.230  0.4939 -0.1735 -0.6315
  826MOL0     C11379   1.572  11.451   9.245  0.0592 -0.2575  0.4977
  826MOL0     C11380   1.495  11.481   9.137  0.0481  0.5223 -0.0668
  826MOL0     C11381   1.363  11.526   9.142 -0.0915 -0.3616  0.0462
  826MOL0     C11382   1.296  11.531   9.271 -0.7753 -0.2413 -0.2714
  826MOL0     O11383   1.165  11.561   9.301 -0.3183  0.3277  0.4414
  826MOL0     C11384   1.085  11.597   9.190 -0.2605 -0.4825  0.9156
  826MOL0     C11385   0.943  11.589   9.230 -0.7226 -0.0092 -0.4332
  826MOL0     C11386   0.842  11.641   9.126 -0.4992 -0.4366 -0.6099
  826MOL0     C11387   0.704  11.669   9.183 -0.7483  0.0517  0.4706
  826MOL0     C11388   0.606  11.679   9.059 -0.5462 -0.4185 -0.5619
  826MOL0     C11389   0.463  11.696   9.121  0.3282 -0.0572 -0.1226
  826MOL0     C11390   0.355  11.692   9.000  0.5310 -0.1454 -0.1491
  826MOL0     C11391   0.214  11.729   9.053 -0.7640  0.6982 -0.6292
  826MOL0     N11392   0.138  11.611   9.110 -0.0799 -0.1156 -0.2316
  826MOL0     C11393   0.152  11.567   9.241 -0.6430  0.4543 -0.0266
  826MOL0     C11394   0.071  11.460   9.265 -0.2456  0.0112  0.0807
  826MOL0     C11395   0.024  11.413   9.396 -0.3091 -0.2737  0.3489
  826MOL0     C11396  -0.110  11.350   9.402 -0.2187 -0.0809 -0.1837
  826MOL0     C11397  -0.234  11.441   9.379 -0.1479 -0.1908  0.3164
  826MOL0     C11398  -0.266  11.521   9.505  0.6081 -0.4982 -0.3041
  826MOL0     O11399  -0.376  11.601   9.468 -0.0316 -0.7329  0.5892
  826MOL0     C11400  -0.502  11.558   9.481 -0.6857 -0.7532  0.2865
  826MOL0     C11401  -0.542  11.451   9.552  0.5940  0.3696 -0.3589
  826MOL0     C11402  -0.684  11.411   9.568  0.0548 -0.2978 -0.4514
  826MOL0     C11403  -0.715  11.288   9.654  0.1932 -0.2482 -0.7774
  826MOL0     C11404  -0.781  11.485   9.493  0.1696 -0.7805 -0.7351
  826MOL0     C11405  -0.928  11.476   9.504  0.2014 -0.0295  0.4672
  826MOL0     O11406  -0.982  11.452   9.620 -1.1375 -0.4017 -0.2493
  826MOL0     C11407  -1.118  11.436   9.621 -0.0699  0.5718  0.1455
  826MOL0     C11408  -1.206  11.533   9.678  0.1457  0.5820  0.0281
  826MOL0     C11409  -1.348  11.518   9.678 -0.0283 -0.7356  0.5900
  826MOL0     C11410  -1.407  11.399   9.613  0.5156 -0.5121  0.3327
  826MOL0     O11411  -1.542  11.374   9.616 -0.6511 -0.9428  0.0076
  826MOL0     C11412  -1.613  11.457   9.526  0.3196 -0.4962 -0.0415
  826MOL0     C11413  -1.656  11.592   9.587  0.3840 -0.2473 -0.5635
  826MOL0     C11414  -1.777  11.653   9.519  0.3707 -0.3440 -0.0353
  826MOL0     C11415  -1.909  11.570   9.526 -0.4292 -0.1674  0.0462
  826MOL0     C11416  -2.038  11.664   9.489 -0.6970  0.2373 -0.4423
  826MOL0     C11417  -2.080  11.737   9.611 -0.2137 -1.0307 -0.4028
  826MOL0     C11418  -2.210  11.815   9.589 -0.3321 -0.3423  0.1528
  826MOL0     C11419  -2.179  11.954   9.517 -0.3419  0.1422 -0.0316
  826MOL0    Cl11420  -2.328  12.038   9.477 -0.2625  0.0279  0.0956
  826MOL0     C11421  -1.320  11.304   9.562 -0.1656 -0.0131 -0.6378
  826MOL0     C11422  -1.177  11.321   9.569  0.8207 -1.2309  0.0654
  826MOL0     O11423  -0.994  11.488   9.394  0.3143 -0.0854  0.0942
  826MOL0     C11424  -0.733  11.591   9.404 -0.0464 -0.2737 -0.4346
  826MOL0     C11425  -0.596  11.626   9.403  0.6632  0.4261 -0.5398
  826MOL0     N11426   0.007  11.439   9.143 -0.2607  0.0088 -0.4262
  826MOL0     N11427   0.040  11.525   9.057 -0.3119 -0.2904 -0.4463
  826MOL0     C11428   1.380  11.507   9.379 -0.2889 -0.0299  0.7562
  826MOL0     C11429   1.514  11.469   9.367 -0.3962 -1.1899  0.7334
  826MOL0     C11430   1.896  11.284   9.198 -0.8167  0.4701  0.4886
  826MOL0     C11431   1.972  11.345   9.306 -0.6065  0.3219  0.3503
  826MOL0     C11432   2.115  11.344   9.300  0.2425  0.4588  0.1731
  826MOL0     C11433   2.187  11.263   9.211 -0.4084 -0.6536 -0.7351
  826MOL0     O11434   2.324  11.256   9.221 -0.7110  0.1863 -0.9211
  826MOL0     C11435   2.365  11.177   9.336  0.6351  0.0137  0.3088
  826MOL0     C11436   2.513  11.201   9.382 -0.3077 -0.2103  0.5063
  826MOL0     C11437   2.541  11.349   9.432 -0.1514 -0.5261  0.1628
  826MOL0     C11438   2.695  11.363   9.438 -0.1506  0.0195 -0.3565
  826MOL0     C11439   2.748  11.487   9.485  0.6986 -0.2028  0.0546
  826MOL0     C11440   2.781  11.596   9.526  0.0464  0.5067 -0.7520
  826MOL0     C11441   2.115  11.196   9.113  0.4056 -0.2541 -0.3723
  826MOL0     C11442   1.974  11.202   9.110  0.3712  0.0188 -0.2162
  826MOL0     H11443   1.540  11.464   9.040  1.9301  1.7248  0.5434
  826MOL0     H11444   1.307  11.532   9.050  0.5402  0.8107 -0.2785
  826MOL0     H11445   1.108  11.698   9.156 -1.0760 -0.0944  1.4764
  826MOL0     H11446   1.093  11.531   9.103  1.1875  1.3557 -0.4155
  826MOL0     H11447   0.915  11.486   9.251 -1.4932  0.0602 -1.0644
  826MOL0     H11448   0.927  11.638   9.327  1.4971 -1.9706  1.0291
  826MOL0     H11449   0.880  11.727   9.070 -2.6139  0.9143 -0.0336
  826MOL0     H11450   0.833  11.562   9.050  1.8858 -1.4093  0.0099
  826MOL0     H11451   0.674  11.593   9.255 -1.0362  1.2692  1.6768
  826MOL0     H11452   0.707  11.768   9.230 -0.5812  2.9514 -4.8639
  826MOL0     H11453   0.625  11.758   8.985  1.0397 -1.5197 -1.3957
  826MOL0     H11454   0.613  11.589   8.998  1.6500 -0.1390 -0.8227
  826MOL0     H11455   0.438  11.612   9.187 -0.1658  1.8678  2.2536
  826MOL0     H11456   0.465  11.789   9.178  1.1456 -0.8432  1.1741
  826MOL0     H11457   0.375  11.778   8.935  1.2349  2.3913  3.1406
  826MOL0     H11458   0.351  11.607   8.931  0.7406  0.4782 -0.9505
  826MOL0     H11459   0.155  11.759   8.966 -0.8493  0.0075 -0.8129
  826MOL0     H11460   0.220  11.808   9.129  0.6780 -1.3882  1.5765
  826MOL0     H11461   0.202  11.619   9.322 -1.1387 -1.2649  1.4416
  826MOL0     H11462   0.099  11.343   9.433 -1.3221 -2.1326 -0.9304
  826MOL0     H11463   0.020  11.505   9.455  1.6300  0.1759 -0.1307
  826MOL0     H11464  -0.116  11.311   9.504  0.5504 -1.8525 -0.7833
  826MOL0     H11465  -0.103  11.257   9.345  2.0921 -0.6836  0.9816
  826MOL0     H11466  -0.317  11.376   9.350 -1.3706  0.6907  1.6511
  826MOL0     H11467  -0.211  11.515   9.302  0.7128 -2.0593 -1.2890
  826MOL0     H11468  -0.178  11.585   9.517 -0.0101  0.4815 -0.8614
  826MOL0     H11469  -0.279  11.451   9.587  2.8054 -0.5136  0.0875
  826MOL0     H11470  -0.470  11.387   9.602 -0.6365 -0.8836 -0.1132
  826MOL0     H11471  -0.743  11.208   9.585  0.3101 -2.4403  1.5931
  826MOL0     H11472  -0.624  11.266   9.711 -1.7689 -0.7958  2.3636
  826MOL0     H11473  -0.805  11.302   9.715 -0.0097  0.0120 -1.1291
  826MOL0     H11474  -1.157  11.619   9.723  2.2890 -0.8206  0.5077
  826MOL0     H11475  -1.416  11.592   9.719 -1.7153  2.5868 -6.5953
  826MOL0     H11476  -1.557  11.477   9.434  1.2285 -0.2376  0.5588
  826MOL0     H11477  -1.700  11.402   9.488 -0.5651  0.5698  0.3947
  826MOL0     H11478  -1.673  11.556   9.689  0.2898  1.5694  0.1094
  826MOL0     H11479  -1.573  11.663   9.595 -0.8420  1.0414  2.4315
  826MOL0     H11480  -1.751  11.681   9.417  0.1828 -1.0584 -0.2811
  826MOL0     H11481  -1.809  11.741   9.576  0.6781 -2.3199  3.5176
  826MOL0     H11482  -1.909  11.490   9.451 -3.8500 -3.1946  2.8741
  826MOL0     H11483  -1.917  11.532   9.629  0.2692 -0.1814  0.1002
  826MOL0     H11484  -2.109  11.583   9.473 -0.2888 -1.2385  3.8557
  826MOL0     H11485  -2.023  11.731   9.404 -1.0335  2.7547  1.3497
  826MOL0     H11486  -2.096  11.676   9.700 -1.4299 -1.3729 -0.8385
  826MOL0     H11487  -1.994  11.799   9.638 -1.6429  0.5971  0.5884
  826MOL0     H11488  -2.259  11.844   9.683 -0.5013  1.7428 -0.5136
  826MOL0     H11489  -2.275  11.758   9.523 -1.3942 -2.2581  2.6714
  826MOL0     H11490  -2.132  11.936   9.420  0.6001  1.9309  0.0543
  826MOL0     H11491  -2.112  12.009   9.584  1.0447 -2.5642  0.9678
  826MOL0     H11492  -1.362  11.213   9.521 -0.4334 -0.5037  0.6582
  826MOL0     H11493  -1.104  11.251   9.529  0.8037 -1.4518  0.4208
  826MOL0     H11494  -0.800  11.655   9.346  4.1899  1.8683 -3.5122
  826MOL0     H11495  -0.564  11.709   9.341 -4.5715  1.0109 -2.9758
  826MOL0     H11496   1.333  11.527   9.475  0.6084  2.9876  0.6567
  826MOL0     H11497   1.577  11.453   9.454  0.4467 -2.2786 -0.0429
  826MOL0     H11498   1.920  11.384   9.392 -1.8758 -1.3566  0.3943
  826MOL0     H11499   2.178  11.391   9.375 -1.1600  2.5582  0.1129
  826MOL0     H11500   2.292  11.201   9.414  0.1040  0.6964 -0.3822
  826MOL0     H11501   2.359  11.072   9.305  1.6559 -0.1350  0.5665
  826MOL0     H11502   2.568  11.182   9.289 -0.6005 -0.7260  0.4376
  826MOL0     H11503   2.537  11.131   9.462 -0.8661  0.1048  0.9531
  826MOL0     H11504   2.500  11.361   9.532 -0.4764 -0.9947  0.0877
  826MOL0     H11505   2.511  11.427   9.361  0.3607 -1.7883 -1.5101
  826MOL0     H11506   2.739  11.334   9.342 -2.0069 -1.8294 -0.7128
  826MOL0     H11507   2.726  11.292   9.515  0.2345  0.7903  0.2165
  826MOL0     H11508   2.804  11.698   9.553  2.5422  0.2093 -1.4841
  826MOL0     H11509   2.177  11.140   9.044  2.4051  0.1300  1.0470
  826MOL0     H11510   1.925  11.153   9.026  0.2642  0.9364 -0.7103
  827MOL0     O11511   2.171   1.925   9.312  0.8328 -0.2456 -0.0348
  827MOL0     C11512   2.192   1.890   9.196 -0.8810  0.5364  0.1048
  827MOL0     O11513   2.103   1.850   9.098 -0.4719  0.1287  0.0364
  827MOL0     C11514   1.974   1.831   9.131  0.0170 -0.0908 -0.7845
  827MOL0     C11515   1.926   1.745   9.227 -0.1684 -0.2716 -0.3139
  827MOL0     C11516   1.792   1.720   9.253  0.6923  0.1501  0.5878
  827MOL0     C11517   1.683   1.786   9.179 -0.1315 -0.4667 -0.3989
  827MOL0     O11518   1.554   1.741   9.201  0.6920  0.2140 -0.7098
  827MOL0     C11519   1.457   1.784   9.106  0.1806 -0.8544 -0.4970
  827MOL0     C11520   1.346   1.696   9.130  0.2058  0.4281  0.2786
  827MOL0     C11521   1.218   1.719   9.037  0.5850 -0.1075  0.0171
  827MOL0     C11522   1.098   1.626   9.053  0.5682  0.1090  0.3916
  827MOL0     C11523   0.974   1.681   8.983  0.4904  0.2549  0.4136
  827MOL0     C11524   0.853   1.591   9.009 -0.4759 -0.1301  0.2608
  827MOL0     C11525   0.736   1.645   8.938 -0.2017  0.0034 -0.3423
  827MOL0     C11526   0.666   1.767   9.004  1.0697 -0.4569 -0.8412
  827MOL0     N11527   0.540   1.805   8.938 -0.1159 -0.1117  0.4411
  827MOL0     C11528   0.419   1.734   8.931 -0.1374 -0.4961  1.0764
  827MOL0     C11529   0.344   1.815   8.853 -0.3894  0.5385 -0.1558
  827MOL0     C11530   0.208   1.778   8.818  0.4678  0.5472  0.4353
  827MOL0     C11531   0.105   1.840   8.909  0.4852  0.3100  0.7558
  827MOL0     C11532  -0.038   1.792   8.863  0.1816 -0.1210  0.3475
  827MOL0     C11533  -0.139   1.896   8.905  0.4266  0.8281  0.1277
  827MOL0     O11534  -0.268   1.836   8.862 -0.1126 -0.4025 -0.4177
  827MOL0     C11535  -0.375   1.908   8.893 -0.3375 -0.0278  0.0792
  827MOL0     C11536  -0.385   2.023   8.965  0.2416  0.7924  0.3209
  827MOL0     C11537  -0.508   2.067   9.017 -0.5270  0.2468  0.6805
  827MOL0     C11538  -0.500   2.192   9.093  1.4307  0.3008  0.4617
  827MOL0     C11539  -0.624   1.990   8.984  0.5837 -0.0897  0.0353
  827MOL0     C11540  -0.764   2.031   9.016 -0.0607 -0.1636  0.4723
  827MOL0     O11541  -0.863   1.982   8.933 -0.9394  0.4700 -0.0475
  827MOL0     C11542  -0.983   2.031   8.948  1.3589  0.1549  0.4460
  827MOL0     C11543  -1.038   2.099   8.835  0.1869 -0.9009 -0.8529
  827MOL0     C11544  -1.179   2.118   8.840 -0.0743  0.4799  0.0654
  827MOL0     C11545  -1.260   2.079   8.945 -0.4722  0.7536  0.9280
  827MOL0     O11546  -1.393   2.109   8.932  0.1912 -0.1517 -0.4079
  827MOL0     C11547  -1.472   2.083   9.050  0.2171  0.6007  0.1857
  827MOL0     C11548  -1.624   2.114   9.046 -0.3563 -0.0568  0.5136
  827MOL0     C11549  -1.644   2.262   9.004  0.3351 -0.4523  0.0068
  827MOL0     C11550  -1.796   2.287   9.015 -0.5914  0.7449  0.2843
  827MOL0     C11551  -1.840   2.435   8.991  0.8544 -0.1064 -0.2425
  827MOL0     C11552  -1.989   2.465   9.037  0.5820  0.2461 -0.1297
  827MOL0     C11553  -2.088   2.378   8.958 -0.7741 -0.0371  0.5652
  827MOL0     C11554  -2.233   2.413   8.990 -1.0831  1.1445  0.3408
  827MOL0    Cl11555  -2.286   2.330   9.137  0.3663  0.0675  0.0732
  827MOL0     C11556  -1.202   2.025   9.063  0.4415 -0.0913  0.0564
  827MOL0     C11557  -1.060   1.997   9.064  0.0287 -0.2946 -0.1305
  827MOL0     O11558  -0.788   2.096   9.114 -0.3852 -1.0568 -0.4429
  827MOL0     C11559  -0.615   1.867   8.908 -0.5589  0.3350  0.1416
  827MOL0     C11560  -0.491   1.826   8.870 -0.6929  1.3291  0.0171
  827MOL0     N11561   0.415   1.925   8.806  0.3346  0.1589 -0.2333
  827MOL0     N11562   0.526   1.910   8.856  0.2147 -0.1163 -1.1781
  827MOL0     C11563   1.729   1.896   9.094  0.6261  0.4322  0.0408
  827MOL0     C11564   1.871   1.916   9.072 -0.5674  0.3027  0.3038
  827MOL0     C11565   2.332   1.883   9.147 -0.7956 -0.7475  0.3008
  827MOL0     C11566   2.364   1.877   9.013  0.9514 -0.1219  0.0594
  827MOL0     C11567   2.494   1.899   8.970  0.7429 -0.9782 -0.0508
  827MOL0     C11568   2.596   1.908   9.063 -0.1758  0.1206  0.0473
  827MOL0     O11569   2.723   1.902   9.024 -0.5629  0.1638  0.3052
  827MOL0     C11570   2.835   1.906   9.119  1.1100  0.0222 -0.2492
  827MOL0     C11571   2.968   1.907   9.039  0.0149 -0.2744  0.3695
  827MOL0     C11572   3.100   1.911   9.117 -0.0667  0.1497  0.1790
  827MOL0     C11573   3.115   2.038   9.201 -1.1791  0.2894  0.2128
  827MOL0     C11574   3.117   2.161   9.116 -0.8471 -0.6981  0.0785
  827MOL0     C11575   3.125   2.265   9.051 -0.1197 -0.5294 -0.8293
  827MOL0     C11576   2.565   1.913   9.196 -0.6382  0.1244 -0.2098
  827MOL0     C11577   2.436   1.903   9.241 -0.2086  0.9455  0.9279
  827MOL0     H11578   1.997   1.677   9.274  1.1683  1.9974  1.1528
  827MOL0     H11579   1.770   1.633   9.315 -0.5161  1.3977  1.9973
  827MOL0     H11580   1.448   1.892   9.125  1.8740 -0.3575 -2.1639
  827MOL0     H11581   1.493   1.771   9.004 -3.2211 -1.7633 -1.7061
  827MOL0     H11582   1.377   1.593   9.111  1.5552  0.7742  0.5430
  827MOL0     H11583   1.312   1.697   9.234  1.5870 -1.5302  0.8061
  827MOL0     H11584   1.181   1.818   9.065  0.2570  0.2623 -1.6486
  827MOL0     H11585   1.245   1.726   8.932 -4.5467  1.5465 -1.4732
  827MOL0     H11586   1.121   1.525   9.019  0.2310  0.1843 -0.0812
  827MOL0     H11587   1.075   1.614   9.159  2.5161 -1.2215  0.7188
  827MOL0     H11588   0.954   1.780   9.025 -1.3077 -1.0156  2.7945
  827MOL0     H11589   1.000   1.683   8.877 -0.3127  2.8144  0.2147
  827MOL0     H11590   0.877   1.491   8.972  0.1469  0.5693 -1.2830
  827MOL0     H11591   0.834   1.592   9.117 -0.3280 -0.3934  0.2889
  827MOL0     H11592   0.770   1.690   8.844 -1.8205 -2.4652 -2.2254
  827MOL0     H11593   0.672   1.558   8.922  2.0938 -1.6208 -1.3632
  827MOL0     H11594   0.722   1.855   9.036 -1.2012  0.0878  2.0477
  827MOL0     H11595   0.633   1.712   9.093 -0.3786  0.1326 -0.9850
  827MOL0     H11596   0.392   1.640   8.977 -1.8700 -0.1308  0.8803
  827MOL0     H11597   0.182   1.804   8.715  0.3216 -1.0181  0.0416
  827MOL0     H11598   0.210   1.669   8.827  1.3738  0.2531 -2.4444
  827MOL0     H11599   0.109   1.949   8.903 -1.8718  0.4243 -0.1763
  827MOL0     H11600   0.120   1.801   9.010  0.4204 -1.5993  0.0700
  827MOL0     H11601  -0.063   1.698   8.912 -0.6885 -0.7954 -1.3057
  827MOL0     H11602  -0.044   1.775   8.755  1.6963 -1.8443  0.4856
  827MOL0     H11603  -0.124   1.995   8.861  1.6663  0.8202  0.4998
  827MOL0     H11604  -0.129   1.903   9.014 -1.3080  0.1196  0.3594
  827MOL0     H11605  -0.293   2.077   8.986  0.8751 -0.0913 -0.0989
  827MOL0     H11606  -0.557   2.272   9.045  0.1210 -1.4996 -1.1365
  827MOL0     H11607  -0.533   2.180   9.197  2.6938 -0.6941  0.7638
  827MOL0     H11608  -0.396   2.223   9.101  1.3489  0.5512  0.5623
  827MOL0     H11609  -0.987   2.132   8.745  0.1245 -0.3834 -0.7000
  827MOL0     H11610  -1.226   2.161   8.752 -1.5916  0.6232  0.9213
  827MOL0     H11611  -1.457   1.979   9.081  3.2046  0.6867 -0.6314
  827MOL0     H11612  -1.440   2.128   9.145 -2.8719 -1.2042  2.2253
  827MOL0     H11613  -1.683   2.040   8.993 -3.7727  3.6185 -1.3587
  827MOL0     H11614  -1.653   2.114   9.151 -0.4597  1.9301  0.5359
  827MOL0     H11615  -1.600   2.290   8.908  0.7937 -0.2980  0.2568
  827MOL0     H11616  -1.586   2.326   9.071 -0.7793  2.2057 -1.3983
  827MOL0     H11617  -1.837   2.218   8.941 -1.4832  0.3571  1.1069
  827MOL0     H11618  -1.833   2.245   9.109 -0.1192 -0.6833 -0.1338
  827MOL0     H11619  -1.828   2.464   8.886  1.6743 -1.1197 -0.4503
  827MOL0     H11620  -1.776   2.497   9.054 -0.0528  0.5327  0.0608
  827MOL0     H11621  -2.005   2.450   9.144 -1.2942  0.4591 -0.3586
  827MOL0     H11622  -2.012   2.568   9.011  0.2333  0.3300  0.5240
  827MOL0     H11623  -2.073   2.271   8.976  1.5950  0.0150 -0.6007
  827MOL0     H11624  -2.073   2.389   8.850  0.3316 -3.5166  0.2257
  827MOL0     H11625  -2.298   2.383   8.907  0.8294 -1.8091 -0.2743
  827MOL0     H11626  -2.233   2.522   9.001 -1.4520  1.0632  1.1958
  827MOL0     H11627  -1.263   1.995   9.148 -1.0860 -0.6030 -1.1656
  827MOL0     H11628  -1.020   1.956   9.156 -1.1824  2.7188  1.8860
  827MOL0     H11629  -0.698   1.801   8.885  1.1258 -0.7412 -3.6508
  827MOL0     H11630  -0.481   1.731   8.819  1.4399  2.7704 -2.4629
  827MOL0     H11631   1.668   1.960   9.031  0.7275 -0.1853 -0.6975
  827MOL0     H11632   1.902   1.999   9.009 -0.6647 -0.1503 -0.3586
  827MOL0     H11633   2.297   1.865   8.928  0.9805 -0.4315  0.0791
  827MOL0     H11634   2.529   1.890   8.868  0.8992 -1.6265  0.0555
  827MOL0     H11635   2.838   1.994   9.184  2.4804 -2.5086  3.5426
  827MOL0     H11636   2.833   1.817   9.183  0.4383 -1.6488 -2.4842
  827MOL0     H11637   2.968   1.986   8.964  0.2576 -1.2136 -0.6445
  827MOL0     H11638   2.955   1.813   8.984 -1.8796 -0.0798  0.4215
  827MOL0     H11639   3.170   1.910   9.033  1.1081  0.1142  1.1285
  827MOL0     H11640   3.109   1.822   9.180 -4.0236  0.1656  1.0036
  827MOL0     H11641   3.217   2.030   9.239 -0.9704  2.0542  0.1113
  827MOL0     H11642   3.040   2.045   9.280 -0.2840 -1.8486  1.3229
  827MOL0     H11643   3.134   2.362   9.008  1.3700 -0.8717 -1.3215
  827MOL0     H11644   2.638   1.946   9.270 -0.8813  0.5434 -0.1534
  827MOL0     H11645   2.417   1.917   9.347 -1.9807 -0.4768  0.8486
  828MOL0     O11646   9.570   1.618   7.965 -0.2570 -1.0315  0.1940
  828MOL0     C11647   9.636   1.701   7.899 -0.4691  0.5397  0.5489
  828MOL0     O11648   9.588   1.775   7.795  0.6732  0.3893  0.6145
  828MOL0     C11649   9.451   1.805   7.798 -0.2847 -0.4954  0.4148
  828MOL0     C11650   9.384   1.865   7.908 -0.7693  0.6765  0.0905
  828MOL0     C11651   9.257   1.920   7.888 -0.1384 -0.3831  0.0911
  828MOL0     C11652   9.190   1.913   7.766  0.2004 -0.2795  0.2937
  828MOL0     O11653   9.060   1.966   7.743 -0.4682 -0.4900 -0.6796
  828MOL0     C11654   8.964   1.882   7.677 -0.0375  0.5570 -0.5299
  828MOL0     C11655   8.828   1.948   7.698 -0.2543  0.3834 -0.0704
  828MOL0     C11656   8.760   1.938   7.845 -0.5020 -0.0949  0.2396
  828MOL0     C11657   8.614   1.963   7.825 -0.2546 -0.6305 -1.3065
  828MOL0     C11658   8.534   1.950   7.955 -0.5655 -0.1831 -0.0962
  828MOL0     C11659   8.389   1.919   7.928 -0.4487 -0.6445 -0.5551
  828MOL0     C11660   8.289   1.964   8.024 -0.1221  1.1545 -0.6623
  828MOL0     C11661   8.151   1.899   7.994 -0.0033  0.8057  0.7931
  828MOL0     N11662   8.037   1.952   8.066  0.1300 -0.5006 -0.4287
  828MOL0     C11663   7.977   2.078   8.037 -0.0015  0.3853  0.3032
  828MOL0     C11664   7.866   2.083   8.111 -0.3372 -0.3612  0.0977
  828MOL0     C11665   7.762   2.193   8.122 -0.3676 -0.1005 -0.0152
  828MOL0     C11666   7.626   2.173   8.046  0.1108  0.3859 -0.6804
  828MOL0     C11667   7.542   2.063   8.098 -0.4205  0.1874 -0.3309
  828MOL0     C11668   7.406   2.043   8.014  0.2628  0.4569  0.1354
  828MOL0     O11669   7.309   2.134   8.064  0.0710 -0.6411  0.4070
  828MOL0     C11670   7.179   2.133   8.028 -0.1573  0.6580 -0.0793
  828MOL0     C11671   7.104   2.013   8.011 -0.1226  0.1933 -0.1085
  828MOL0     C11672   6.971   2.012   7.978  0.6275 -0.4244 -0.2442
  828MOL0     C11673   6.902   1.883   7.977  0.3494 -0.1107 -0.4886
  828MOL0     C11674   6.907   2.141   7.945  0.4951  0.0006 -0.6001
  828MOL0     C11675   6.762   2.157   7.901  0.4682  0.0733 -0.5862
  828MOL0     O11676   6.697   2.041   7.876 -0.2401 -0.1511 -0.3313
  828MOL0     C11677   6.561   2.020   7.863 -0.0768 -0.7084 -0.8148
  828MOL0     C11678   6.476   2.114   7.807  0.4359 -0.6853  0.3369
  828MOL0     C11679   6.337   2.083   7.793  0.1324  0.4268 -0.7274
  828MOL0     C11680   6.296   1.952   7.826 -0.4277 -0.6891  0.2995
  828MOL0     O11681   6.161   1.934   7.822  0.1514  0.3131  1.0262
  828MOL0     C11682   6.115   1.801   7.777 -0.2634 -0.1416  0.2090
  828MOL0     C11683   5.956   1.798   7.777  0.1859 -0.7399 -0.5388
  828MOL0     C11684   5.896   1.843   7.909  0.0635 -0.1327  0.3095
  828MOL0     C11685   5.746   1.842   7.919 -0.6771  0.5533  0.3838
  828MOL0     C11686   5.697   1.850   8.067  0.3356 -0.6640 -0.1119
  828MOL0     C11687   5.724   1.726   8.138  0.3045  0.2422  0.6502
  828MOL0     C11688   5.662   1.709   8.273 -0.6690  0.6236  0.4753
  828MOL0     C11689   5.515   1.749   8.295  0.0982  0.4007  0.3426
  828MOL0    Cl11690   5.485   1.923   8.292  0.2656  0.5304  0.1693
  828MOL0     C11691   6.384   1.862   7.877 -0.2164  0.8982  0.1077
  828MOL0     C11692   6.516   1.896   7.896  0.0521 -0.4445 -0.0497
  828MOL0     O11693   6.715   2.266   7.891 -0.2250  0.1356 -0.5515
  828MOL0     C11694   6.983   2.263   7.965 -0.5753  0.0789 -0.4039
  828MOL0     C11695   7.116   2.257   8.007  0.0087 -1.3588  0.2514
  828MOL0     N11696   7.860   1.968   8.181 -0.4582  0.2041  0.0424
  828MOL0     N11697   7.955   1.888   8.150  0.4570  0.0196 -0.8628
  828MOL0     C11698   9.261   1.862   7.657  0.1536 -0.0425 -0.7902
  828MOL0     C11699   9.384   1.807   7.675  0.5606  0.2978  0.0626
  828MOL0     C11700   9.785   1.719   7.914 -0.1569  0.2831 -0.1744
  828MOL0     C11701   9.852   1.644   8.017  0.7715  0.3684 -0.2604
  828MOL0     C11702   9.987   1.662   8.039  0.5956 -0.3330 -0.3834
  828MOL0     C11703  10.061   1.745   7.961 -0.6576 -0.6148 -0.0611
  828MOL0     O11704  10.199   1.748   7.981  0.4125 -0.1419 -0.6138
  828MOL0     C11705  10.286   1.817   7.882 -0.6903  0.6776 -0.6477
  828MOL0     C11706  10.317   1.731   7.751 -0.3721 -0.4392 -0.1135
  828MOL0     C11707  10.388   1.591   7.772 -0.5081 -0.9922 -0.9222
  828MOL0     C11708  10.541   1.616   7.811  0.5701  0.0523 -0.2133
  828MOL0     C11709  10.608   1.487   7.838  1.4698  0.3175 -1.0531
  828MOL0     C11710  10.678   1.389   7.865  0.3974 -0.4634 -0.3962
  828MOL0     C11711   9.994   1.820   7.874  0.7821 -0.9191  0.0233
  828MOL0     C11712   9.857   1.811   7.846 -0.0142  0.4384  0.6711
  828MOL0     H11713   9.441   1.879   7.999 -1.0544  0.2833  0.3278
  828MOL0     H11714   9.211   1.962   7.977 -0.5950 -0.8367  0.0704
  828MOL0     H11715   8.994   1.868   7.573 -1.3714 -0.5514 -0.8094
  828MOL0     H11716   8.965   1.780   7.715 -2.0091  0.4921 -0.5175
  828MOL0     H11717   8.832   2.050   7.658  0.2597  0.1115 -0.7178
  828MOL0     H11718   8.764   1.887   7.633  2.1923 -0.9694 -1.3279
  828MOL0     H11719   8.774   1.835   7.879 -0.7747 -0.1614  0.1536
  828MOL0     H11720   8.801   2.016   7.910  2.0517  1.2270 -2.6698
  828MOL0     H11721   8.596   2.063   7.785  2.1653  0.0652 -0.7942
  828MOL0     H11722   8.574   1.888   7.755  0.6885 -2.0895 -0.3438
  828MOL0     H11723   8.574   1.865   8.012 -1.1367 -1.3135 -1.3081
  828MOL0     H11724   8.533   2.045   8.009 -0.9951 -0.1112 -0.2299
  828MOL0     H11725   8.358   1.954   7.829 -0.3905 -0.9609 -0.6850
  828MOL0     H11726   8.381   1.810   7.924  2.5036 -0.9560 -0.5788
  828MOL0     H11727   8.311   1.928   8.125 -2.0580 -2.7931 -1.4442
  828MOL0     H11728   8.272   2.071   8.011 -2.7479  0.7329 -1.3543
  828MOL0     H11729   8.164   1.794   8.021  3.5725  0.8981  0.0318
  828MOL0     H11730   8.128   1.899   7.887  1.8924 -0.1086  0.3450
  828MOL0     H11731   8.014   2.145   7.960 -0.4663 -1.9653 -2.1110
  828MOL0     H11732   7.745   2.213   8.229  1.4273  0.8834  0.1203
  828MOL0     H11733   7.812   2.282   8.083 -2.7010  0.5241 -1.8174
  828MOL0     H11734   7.641   2.144   7.941 -3.6319 -2.6000 -0.5905
  828MOL0     H11735   7.568   2.266   8.042 -1.6273 -0.6703 -1.2912
  828MOL0     H11736   7.522   2.080   8.204 -1.1850 -0.5639 -0.3387
  828MOL0     H11737   7.599   1.970   8.087 -0.3004  0.3816 -1.5132
  828MOL0     H11738   7.383   1.938   8.033  3.9015 -0.2480  1.5913
  828MOL0     H11739   7.428   2.066   7.909 -1.2826  2.0535  0.1153
  828MOL0     H11740   7.145   1.914   8.027 -2.6931 -0.9634 -0.2826
  828MOL0     H11741   6.976   1.808   8.007  0.5553 -0.8152 -2.6438
  828MOL0     H11742   6.817   1.877   8.047 -0.9877  0.3538 -2.0280
  828MOL0     H11743   6.870   1.855   7.877  1.2336  0.3462 -0.9145
  828MOL0     H11744   6.507   2.214   7.777 -0.1876  0.1614  2.3159
  828MOL0     H11745   6.266   2.162   7.772 -1.3831  0.6803  4.1484
  828MOL0     H11746   6.150   1.789   7.675 -1.1294 -0.2777 -0.0823
  828MOL0     H11747   6.139   1.716   7.842  0.6528  1.8123  2.5865
  828MOL0     H11748   5.915   1.854   7.692 -0.7672  0.5237  0.6957
  828MOL0     H11749   5.921   1.699   7.747 -0.4798  0.4107 -3.9749
  828MOL0     H11750   5.922   1.949   7.922 -0.4475 -0.1909  1.9779
  828MOL0     H11751   5.941   1.783   7.988  0.2728  1.8117  1.7456
  828MOL0     H11752   5.696   1.915   7.854 -2.5254 -0.3233  0.7623
  828MOL0     H11753   5.718   1.748   7.870  0.8339  0.7355 -0.9253
  828MOL0     H11754   5.590   1.871   8.069  0.4490 -0.1232  0.6185
  828MOL0     H11755   5.741   1.942   8.106 -1.2623  0.1838 -0.2146
  828MOL0     H11756   5.676   1.650   8.077 -0.4575 -0.0174  1.5506
  828MOL0     H11757   5.833   1.724   8.148  0.5875 -0.7471 -1.9877
  828MOL0     H11758   5.723   1.769   8.340 -0.0470 -2.3462  2.7745
  828MOL0     H11759   5.665   1.604   8.302 -1.6649  0.0238 -1.3586
  828MOL0     H11760   5.474   1.711   8.389 -0.4870  2.1306  0.8161
  828MOL0     H11761   5.454   1.717   8.210 -1.0987  2.7274  0.2514
  828MOL0     H11762   6.368   1.765   7.922 -0.6726  0.5216 -0.8580
  828MOL0     H11763   6.591   1.823   7.927  0.2384  0.6781  2.3346
  828MOL0     H11764   6.934   2.359   7.955 -0.7424  0.3418  2.2785
  828MOL0     H11765   7.171   2.345   8.040  2.5173 -2.3083 -1.0796
  828MOL0     H11766   9.205   1.849   7.565 -0.4920 -2.1307 -0.1562
  828MOL0     H11767   9.423   1.767   7.581 -3.2058 -0.3926 -1.4214
  828MOL0     H11768   9.809   1.567   8.080  4.2360 -2.0514 -0.5440
  828MOL0     H11769  10.036   1.593   8.106 -0.8984 -1.7844 -0.7253
  828MOL0     H11770  10.248   1.917   7.859  0.5198  1.2562 -0.2291
  828MOL0     H11771  10.379   1.841   7.935 -1.4913 -1.3910  1.9109
  828MOL0     H11772  10.384   1.783   7.682  0.3058  0.8331  1.4390
  828MOL0     H11773  10.224   1.723   7.694  0.5377 -0.6578 -1.6168
  828MOL0     H11774  10.386   1.538   7.676 -0.8554 -1.5934 -0.5872
  828MOL0     H11775  10.342   1.529   7.850 -0.9276  0.9615  0.4592
  828MOL0     H11776  10.558   1.683   7.897 -1.6643 -0.8467  1.0041
  828MOL0     H11777  10.590   1.665   7.726  2.1594 -0.0925  0.5753
  828MOL0     H11778  10.733   1.300   7.888 -0.2986 -0.6012  0.8236
  828MOL0     H11779  10.045   1.895   7.814  2.5488  0.3985  2.9611
  828MOL0     H11780   9.804   1.877   7.778 -2.4449 -0.4677  1.5854
  829MOL0     O11781   5.148   0.533   0.204  0.1241 -0.1187  0.2201
  829MOL0     C11782   5.230   0.513   0.116 -1.7262  0.6796  0.3366
  829MOL0     O11783   5.191   0.498  -0.013 -0.4972 -0.2982 -0.0181
  829MOL0     C11784   5.066   0.532  -0.046 -0.2159 -1.0467 -0.7033
  829MOL0     C11785   4.967   0.458   0.004 -0.2640 -0.6607 -0.1860
  829MOL0     C11786   4.834   0.480  -0.050  0.6396  0.1293  0.5023
  829MOL0     C11787   4.804   0.576  -0.147  0.5168 -0.2087  0.0319
  829MOL0     O11788   4.678   0.603  -0.191 -0.1912 -0.7676  0.5345
  829MOL0     C11789   4.567   0.532  -0.138  0.2294  0.4608 -0.6021
  829MOL0     C11790   4.451   0.574  -0.216  0.9269  0.3892  0.3556
  829MOL0     C11791   4.334   0.475  -0.226 -0.1764  0.6387 -0.4676
  829MOL0     C11792   4.219   0.530  -0.312  0.1309 -0.4038 -0.0088
  829MOL0     C11793   4.089   0.441  -0.315  0.1295  0.2274 -0.8474
  829MOL0     C11794   3.983   0.510  -0.399  0.0294 -0.1501  0.7898
  829MOL0     C11795   3.855   0.426  -0.416 -0.6521 -0.8162  0.8191
  829MOL0     C11796   3.763   0.511  -0.505 -0.5669 -0.1387 -0.1736
  829MOL0     N11797   3.642   0.447  -0.550 -0.0393  0.6300  0.0028
  829MOL0     C11798   3.638   0.328  -0.618  0.1882 -0.0874 -1.5787
  829MOL0     C11799   3.502   0.318  -0.628  1.1421  0.3981 -0.3873
  829MOL0     C11800   3.442   0.187  -0.672 -0.6378  1.7894  0.0879
  829MOL0     C11801   3.498   0.140  -0.805 -0.7484 -0.9637 -0.0910
  829MOL0     C11802   3.443   0.232  -0.913 -0.1355 -1.0820 -0.2664
  829MOL0     C11803   3.483   0.202  -1.059 -0.8642  0.5378  0.1120
  829MOL0     O11804   3.474   0.058  -1.092  0.1626 -0.3264  0.2025
  829MOL0     C11805   3.462   0.047  -1.227  0.6216 -0.2706 -0.5523
  829MOL0     C11806   3.572   0.016  -1.306  0.2569  1.3917 -0.0351
  829MOL0     C11807   3.559  -0.007  -1.445  0.2897 -0.6076  0.4674
  829MOL0     C11808   3.684  -0.050  -1.515  0.5150 -0.2487  0.1095
  829MOL0     C11809   3.426   0.003  -1.505 -0.0188 -0.5105  0.7385
  829MOL0     C11810   3.383  -0.026  -1.637 -0.2002 -0.3732  0.0392
  829MOL0     O11811   3.251  -0.032  -1.674 -0.7536  0.7017 -1.1624
  829MOL0     C11812   3.212  -0.075  -1.797  0.0302 -0.6266 -0.6882
  829MOL0     C11813   3.268  -0.191  -1.857  1.0658 -0.2203  0.4056
  829MOL0     C11814   3.227  -0.227  -1.990  0.2883  0.0732 -0.5630
  829MOL0     C11815   3.119  -0.150  -2.056 -0.7522  0.8120 -0.7910
  829MOL0     O11816   3.087  -0.198  -2.186  0.1179 -0.6332 -0.5271
  829MOL0     C11817   2.964  -0.151  -2.241  0.4380 -0.5744 -0.0953
  829MOL0     C11818   2.931  -0.219  -2.374 -0.6206 -0.1822  0.1921
  829MOL0     C11819   2.873  -0.364  -2.370 -0.4336  0.3514 -0.2522
  829MOL0     C11820   2.978  -0.464  -2.348 -0.5810  0.0216 -0.5400
  829MOL0     C11821   2.924  -0.610  -2.303  0.2685 -0.2065  0.3342
  829MOL0     C11822   2.838  -0.677  -2.405 -0.4127 -0.0429  0.6665
  829MOL0     C11823   2.813  -0.823  -2.370  0.2687  0.1217 -0.3329
  829MOL0     C11824   2.704  -0.886  -2.460  0.4101  0.0306 -0.2716
  829MOL0    Cl11825   2.539  -0.816  -2.425 -0.1375 -0.3758  0.4415
  829MOL0     C11826   3.074  -0.029  -1.997 -0.7715  0.0870  0.7390
  829MOL0     C11827   3.122   0.007  -1.874 -0.0601 -0.3877 -0.5411
  829MOL0     O11828   3.479  -0.030  -1.714 -0.5689  0.6926  0.3561
  829MOL0     C11829   3.321   0.046  -1.414  0.0800  0.1213 -0.6129
  829MOL0     C11830   3.338   0.067  -1.283 -0.6981 -0.0577  0.0657
  829MOL0     N11831   3.432   0.425  -0.577  0.3040  0.3214  0.1869
  829MOL0     N11832   3.520   0.503  -0.529 -0.1698  0.3138 -1.2324
  829MOL0     C11833   4.912   0.638  -0.201 -0.8274 -0.2162  1.0383
  829MOL0     C11834   5.046   0.616  -0.153  0.0596 -0.5790  0.9023
  829MOL0     C11835   5.370   0.484   0.159 -0.4655 -0.1663 -0.5938
  829MOL0     C11836   5.469   0.460   0.067 -0.0782 -0.2353 -0.0794
  829MOL0     C11837   5.600   0.415   0.103  0.2361 -0.2928 -0.7008
  829MOL0     C11838   5.640   0.402   0.239  0.6696 -0.1386  0.0566
  829MOL0     O11839   5.768   0.379   0.289  0.0617  0.3585  0.1055
  829MOL0     C11840   5.864   0.322   0.193  0.2177 -0.3554 -0.0679
  829MOL0     C11841   5.944   0.434   0.136  0.8352 -0.3185  0.0077
  829MOL0     C11842   6.059   0.396   0.043 -0.1349 -0.3564  0.3806
  829MOL0     C11843   6.050   0.484  -0.082  0.1790 -0.4483  0.0516
  829MOL0     C11844   6.134   0.431  -0.185 -0.3741  1.2504  1.1295
  829MOL0     C11845   6.198   0.363  -0.254 -0.2078  0.2702  0.6775
  829MOL0     C11846   5.539   0.417   0.332 -0.4229  0.3054  0.5190
  829MOL0     C11847   5.407   0.466   0.295  0.0434  0.1178 -0.9899
  829MOL0     H11848   4.988   0.375   0.071 -0.3427 -0.6517 -0.1504
  829MOL0     H11849   4.761   0.423   0.006 -0.4109  0.2423 -0.7135
  829MOL0     H11850   4.580   0.424  -0.148 -1.5820 -0.2276  2.8778
  829MOL0     H11851   4.548   0.560  -0.033 -0.1221 -2.3230  0.1432
  829MOL0     H11852   4.409   0.661  -0.165  3.0550  1.0390  1.1080
  829MOL0     H11853   4.487   0.591  -0.318 -0.2092 -4.4678 -1.1342
  829MOL0     H11854   4.357   0.377  -0.270 -0.3725  0.4892 -0.2403
  829MOL0     H11855   4.312   0.443  -0.123 -1.4554  1.8213 -0.3484
  829MOL0     H11856   4.182   0.618  -0.259 -0.2790  0.6346 -1.9039
  829MOL0     H11857   4.248   0.556  -0.414  1.3275 -0.2893  0.3458
  829MOL0     H11858   4.111   0.343  -0.358 -0.0386  0.9320 -2.6109
  829MOL0     H11859   4.049   0.428  -0.214 -0.4149  1.8870 -0.8202
  829MOL0     H11860   3.960   0.611  -0.365 -1.4817  0.1864 -1.0297
  829MOL0     H11861   4.019   0.532  -0.500 -2.9382  1.3658 -0.0360
  829MOL0     H11862   3.874   0.336  -0.476 -1.0547  0.0911 -0.7177
  829MOL0     H11863   3.813   0.407  -0.316 -0.3824  1.2350  1.3712
  829MOL0     H11864   3.814   0.538  -0.598  3.0963 -1.8053  1.1603
  829MOL0     H11865   3.731   0.601  -0.451 -0.5465  0.3899 -1.0183
  829MOL0     H11866   3.716   0.264  -0.659  0.7225 -2.6123  2.7402
  829MOL0     H11867   3.476   0.111  -0.601 -0.3769 -0.0128 -1.8518
  829MOL0     H11868   3.333   0.191  -0.664 -0.6256  3.7689 -0.2201
  829MOL0     H11869   3.457   0.040  -0.826 -0.3757 -1.3124  0.8125
  829MOL0     H11870   3.606   0.123  -0.798 -0.5088  0.3602 -0.4255
  829MOL0     H11871   3.478   0.335  -0.898  0.1698 -1.4974  2.2763
  829MOL0     H11872   3.333   0.236  -0.905 -0.2243 -1.1922 -1.3721
  829MOL0     H11873   3.588   0.229  -1.072 -0.9341  0.9323  0.3490
  829MOL0     H11874   3.415   0.263  -1.118 -0.8439  1.7387  1.2825
  829MOL0     H11875   3.671  -0.008  -1.268  0.0849  1.2708  0.3404
  829MOL0     H11876   3.767  -0.067  -1.446  3.0749 -0.7202 -2.8971
  829MOL0     H11877   3.665  -0.144  -1.568  1.6416 -0.0092 -0.7321
  829MOL0     H11878   3.721   0.026  -1.585  2.0480 -0.7572  0.3339
  829MOL0     H11879   3.348  -0.253  -1.820  1.5818  0.0160 -0.2884
  829MOL0     H11880   3.267  -0.314  -2.043  0.4774 -1.1995  1.5490
  829MOL0     H11881   2.882  -0.167  -2.171  0.2134  1.6514  0.2418
  829MOL0     H11882   2.978  -0.043  -2.258 -1.9366  0.2209  2.3537
  829MOL0     H11883   2.856  -0.166  -2.434 -2.0967 -2.0605  0.2871
  829MOL0     H11884   3.018  -0.223  -2.440 -1.1382 -1.9027 -0.4380
  829MOL0     H11885   2.820  -0.388  -2.463  0.7222 -2.2832 -0.3061
  829MOL0     H11886   2.792  -0.369  -2.297  0.9739 -1.2746  1.2877
  829MOL0     H11887   3.041  -0.483  -2.436  1.1018 -0.9996  0.8281
  829MOL0     H11888   3.042  -0.442  -2.262 -2.2299  1.5450  0.3485
  829MOL0     H11889   2.862  -0.598  -2.215 -3.5115  1.3911 -2.2840
  829MOL0     H11890   3.008  -0.678  -2.282  1.5774 -0.2030 -3.8530
  829MOL0     H11891   2.739  -0.631  -2.419 -0.3371 -0.5600 -1.9781
  829MOL0     H11892   2.883  -0.675  -2.504  1.6920 -0.6585  1.5671
  829MOL0     H11893   2.776  -0.822  -2.267  2.1052  0.1906  0.3637
  829MOL0     H11894   2.900  -0.890  -2.378 -1.1588 -1.7948 -0.6305
  829MOL0     H11895   2.697  -0.994  -2.444 -1.7810 -0.4601 -3.5224
  829MOL0     H11896   2.726  -0.877  -2.567  2.6984 -1.6180 -0.0255
  829MOL0     H11897   3.004   0.036  -2.048  1.2963  1.0934 -0.9399
  829MOL0     H11898   3.079   0.092  -1.822 -0.6553 -1.1845  0.3148
  829MOL0     H11899   3.220   0.059  -1.451  0.3931  1.0004 -1.1969
  829MOL0     H11900   3.258   0.092  -1.214 -0.3821 -3.1220  1.7160
  829MOL0     H11901   4.913   0.706  -0.286  3.7375  1.4921  2.1503
  829MOL0     H11902   5.131   0.657  -0.208  1.0992 -3.1718  0.4427
  829MOL0     H11903   5.438   0.470  -0.037  1.2265 -1.0214 -0.5673
  829MOL0     H11904   5.678   0.405   0.029 -1.1292  2.6146 -2.7506
  829MOL0     H11905   5.935   0.258   0.246 -0.3546 -3.5998 -2.8482
  829MOL0     H11906   5.821   0.253   0.120  1.7180  1.0513 -2.4478
  829MOL0     H11907   5.982   0.477   0.229  0.3415 -1.3579  0.7040
  829MOL0     H11908   5.881   0.512   0.092  0.6639 -0.2123  0.4367
  829MOL0     H11909   6.052   0.297  -0.002  0.0844  0.5596 -1.7899
  829MOL0     H11910   6.149   0.404   0.105 -0.3468 -2.3841  1.0178
  829MOL0     H11911   6.089   0.583  -0.058  1.9447 -1.5231  1.9478
  829MOL0     H11912   5.946   0.485  -0.116  0.3589  1.5483 -0.5572
  829MOL0     H11913   6.273   0.305  -0.304 -0.7924 -3.1472  3.4052
  829MOL0     H11914   5.565   0.404   0.436 -0.7758  0.6159  0.6514
  829MOL0     H11915   5.342   0.489   0.379  1.3488  1.6493 -0.3463
  830MOL0     O11916   1.775   1.312   9.149  0.4717  0.4784  0.5868
  830MOL0     C11917   1.848   1.343   9.059 -0.3147  0.0377 -0.2002
  830MOL0     O11918   1.808   1.342   8.929  0.0426 -0.6351  0.3820
  830MOL0     C11919   1.684   1.315   8.880 -0.0642  0.5046 -0.0964
  830MOL0     C11920   1.673   1.218   8.781  0.2889  0.2427  0.0189
  830MOL0     C11921   1.553   1.202   8.713  0.7097  1.0349  0.3023
  830MOL0     C11922   1.432   1.265   8.762  0.3226 -1.0722 -0.2123
  830MOL0     O11923   1.310   1.233   8.699  0.9901 -0.2566  0.3062
  830MOL0     C11924   1.197   1.324   8.734 -0.0388 -0.1419  0.8207
  830MOL0     C11925   1.082   1.340   8.635 -0.3817 -0.2176 -0.3959
  830MOL0     C11926   0.957   1.408   8.695 -0.4012  0.4452  0.7871
  830MOL0     C11927   0.857   1.410   8.578 -0.4203 -0.2016 -0.4307
  830MOL0     C11928   0.720   1.474   8.614  0.0039  0.0454  0.3888
  830MOL0     C11929   0.613   1.457   8.499  0.2684  0.5748  0.5139
  830MOL0     C11930   0.486   1.542   8.526 -0.2685  0.8173  0.7687
  830MOL0     C11931   0.397   1.540   8.394  0.0885 -0.2051  0.0325
  830MOL0     N11932   0.259   1.590   8.416 -0.7055 -0.1856 -0.1381
  830MOL0     C11933   0.171   1.546   8.521 -1.3214  0.6277  0.4304
  830MOL0     C11934   0.059   1.617   8.486  0.7622 -0.4609 -0.0836
  830MOL0     C11935  -0.068   1.596   8.564  1.0840  0.3399 -0.2890
  830MOL0     C11936  -0.148   1.467   8.525  0.2946 -0.1331 -0.1168
  830MOL0     C11937  -0.284   1.459   8.598 -0.3057  0.8172 -0.6837
  830MOL0     C11938  -0.378   1.559   8.537 -0.5082 -0.0372  1.1372
  830MOL0     O11939  -0.449   1.502   8.422  0.3013  0.4271 -0.1246
  830MOL0     C11940  -0.583   1.475   8.429  0.0777  0.0260 -0.1486
  830MOL0     C11941  -0.664   1.476   8.317  0.0738  0.8435  0.6734
  830MOL0     C11942  -0.802   1.464   8.330  0.3764 -0.0198  0.5975
  830MOL0     C11943  -0.886   1.495   8.209  0.2997 -0.4498  1.1734
  830MOL0     C11944  -0.857   1.426   8.453  0.0212 -0.4744 -0.2526
  830MOL0     C11945  -1.002   1.389   8.475 -0.9021  0.1817  0.4342
  830MOL0     O11946  -1.088   1.433   8.387 -0.0369 -0.0190 -0.7638
  830MOL0     C11947  -1.226   1.420   8.415 -0.9586 -0.0659  0.8893
  830MOL0     C11948  -1.303   1.308   8.377 -0.0785 -0.3874  0.1769
  830MOL0     C11949  -1.438   1.295   8.414  0.0455 -0.5648  0.2003
  830MOL0     C11950  -1.501   1.403   8.486 -0.3152  0.7133  0.0385
  830MOL0     O11951  -1.633   1.408   8.511  0.1199  0.0894  0.0884
  830MOL0     C11952  -1.718   1.307   8.464 -0.3553  0.2062 -0.0738
  830MOL0     C11953  -1.853   1.349   8.533  0.9263 -0.2017 -0.5325
  830MOL0     C11954  -1.965   1.252   8.514  1.0244  0.6372  0.5684
  830MOL0     C11955  -1.953   1.133   8.613 -0.0290 -0.2586 -0.1777
  830MOL0     C11956  -2.099   1.093   8.658 -0.1733  0.4217  0.7039
  830MOL0     C11957  -2.114   0.992   8.769  0.4905 -0.5875 -0.7273
  830MOL0     C11958  -2.058   0.853   8.720  0.0050  0.1983 -0.1209
  830MOL0     C11959  -2.150   0.765   8.639  0.0503 -0.3379  0.0530
  830MOL0    Cl11960  -2.294   0.724   8.723  0.2072 -0.1949 -0.3030
  830MOL0     C11961  -1.426   1.521   8.519 -0.1165 -0.5316  0.9491
  830MOL0     C11962  -1.289   1.525   8.491  0.3458 -0.1326 -1.0060
  830MOL0     O11963  -1.033   1.329   8.578  0.1638  0.3630 -0.4821
  830MOL0     C11964  -0.773   1.410   8.564  1.1040 -0.5693 -0.1058
  830MOL0     C11965  -0.639   1.437   8.550 -0.5673  0.3532  0.7190
  830MOL0     N11966   0.082   1.701   8.379 -0.1829 -0.3462 -0.1324
  830MOL0     N11967   0.203   1.683   8.330 -0.1757 -0.2524 -0.1786
  830MOL0     C11968   1.452   1.355   8.874  0.2417 -0.1938  1.2465
  830MOL0     C11969   1.576   1.387   8.929 -0.0797 -0.0276 -0.3798
  830MOL0     C11970   1.996   1.382   9.082  0.2002 -0.1016 -0.8190
  830MOL0     C11971   2.067   1.450   8.979 -0.1774  0.5617 -0.3654
  830MOL0     C11972   2.200   1.488   9.001 -0.2349  0.0767 -0.3099
  830MOL0     C11973   2.267   1.461   9.112  0.5165  0.0396 -0.0666
  830MOL0     O11974   2.398   1.505   9.119  0.4403 -0.4286 -0.1056
  830MOL0     C11975   2.457   1.511   9.246 -0.7436  0.5907  0.1868
  830MOL0     C11976   2.602   1.555   9.241  0.3227  0.1172 -0.7968
  830MOL0     C11977   2.680   1.462   9.154 -0.3927  0.6665  0.2675
  830MOL0     C11978   2.809   1.526   9.111  0.0304  0.4600 -0.3322
  830MOL0     C11979   2.898   1.425   9.054 -1.0165 -0.7599 -0.5571
  830MOL0     C11980   2.964   1.347   8.988 -0.4215  0.0696  0.6785
  830MOL0     C11981   2.202   1.397   9.214 -0.2758  0.6738 -0.3060
  830MOL0     C11982   2.066   1.352   9.197  0.7497  0.3972  0.0386
  830MOL0     H11983   1.768   1.178   8.750  1.1758  0.0686  2.7101
  830MOL0     H11984   1.540   1.138   8.626 -2.5596  0.9762  0.7126
  830MOL0     H11985   1.165   1.282   8.830  1.1950 -1.5520  0.6577
  830MOL0     H11986   1.234   1.425   8.753 -1.7658  0.7449 -0.2482
  830MOL0     H11987   1.116   1.386   8.542 -0.2852 -1.0847 -0.8013
  830MOL0     H11988   1.052   1.237   8.613  0.6044 -0.5292 -0.3418
  830MOL0     H11989   0.919   1.347   8.778 -1.2352  0.4782  0.4384
  830MOL0     H11990   0.977   1.511   8.729 -0.5202  0.1865  1.6796
  830MOL0     H11991   0.897   1.451   8.485 -0.3831  4.1040  1.2884
  830MOL0     H11992   0.830   1.309   8.546  2.3370 -0.4306 -2.4182
  830MOL0     H11993   0.686   1.439   8.712  3.0891 -0.8897  1.2378
  830MOL0     H11994   0.724   1.583   8.623  4.3813  0.2399 -1.5730
  830MOL0     H11995   0.649   1.495   8.403  1.4361  1.1762  1.1726
  830MOL0     H11996   0.587   1.351   8.504 -4.1752  1.4860  0.4424
  830MOL0     H11997   0.432   1.492   8.608 -1.2420  0.7198  0.0824
  830MOL0     H11998   0.512   1.643   8.558  0.1058  1.1997 -0.7019
  830MOL0     H11999   0.393   1.438   8.353 -1.5454 -0.8077  1.5457
  830MOL0     H12000   0.443   1.609   8.323  0.5754  1.5964  1.9737
  830MOL0     H12001   0.192   1.465   8.590 -2.3527 -3.0127 -3.1641
  830MOL0     H12002  -0.048   1.578   8.670  0.4550 -0.3014 -0.2681
  830MOL0     H12003  -0.131   1.685   8.557 -2.5217 -1.6388  3.0703
  830MOL0     H12004  -0.087   1.382   8.558 -0.5006 -1.0116 -0.8414
  830MOL0     H12005  -0.154   1.456   8.416  0.2424  2.7767 -0.4679
  830MOL0     H12006  -0.271   1.485   8.703  0.9216 -0.0378 -0.6050
  830MOL0     H12007  -0.327   1.359   8.605  2.4762 -0.3628  0.9833
  830MOL0     H12008  -0.326   1.642   8.488 -1.3648 -0.2114 -0.1376
  830MOL0     H12009  -0.456   1.604   8.599 -1.9486 -0.8391  0.0031
  830MOL0     H12010  -0.619   1.493   8.220 -1.3134  1.5535  0.1380
  830MOL0     H12011  -0.957   1.415   8.190 -3.2277  2.3613  1.4306
  830MOL0     H12012  -0.955   1.577   8.230 -2.6832 -2.1301 -1.2892
  830MOL0     H12013  -0.824   1.519   8.122 -0.2109 -1.6258  0.4669
  830MOL0     H12014  -1.251   1.230   8.321 -0.0550  1.4753 -2.6037
  830MOL0     H12015  -1.485   1.210   8.367 -0.8915  1.3403 -2.5306
  830MOL0     H12016  -1.723   1.312   8.355  0.1455  1.4700 -0.0625
  830MOL0     H12017  -1.683   1.208   8.496  0.6844  0.3941 -0.5678
  830MOL0     H12018  -1.833   1.358   8.640 -2.3053 -0.2290  0.1719
  830MOL0     H12019  -1.894   1.440   8.489  1.5789 -1.3341 -3.7505
  830MOL0     H12020  -1.958   1.223   8.409 -0.8561  3.2163 -0.3594
  830MOL0     H12021  -2.053   1.316   8.526  1.0005  0.9255 -0.9442
  830MOL0     H12022  -1.908   1.044   8.567 -1.5827 -2.7280  2.6848
  830MOL0     H12023  -1.889   1.154   8.699 -1.6115 -2.4301  1.6607
  830MOL0     H12024  -2.166   1.062   8.577  3.0360 -3.4433 -0.7895
  830MOL0     H12025  -2.134   1.189   8.698  2.8081  0.6167  3.2034
  830MOL0     H12026  -2.044   1.026   8.846  2.1231 -1.7652 -1.6238
  830MOL0     H12027  -2.214   0.988   8.812  0.3011 -3.7333 -1.1973
  830MOL0     H12028  -2.037   0.792   8.808  0.1978  1.8749  1.0429
  830MOL0     H12029  -1.956   0.852   8.681  0.8675  0.2276  2.0358
  830MOL0     H12030  -2.078   0.683   8.627  0.7212  0.2408  0.0020
  830MOL0     H12031  -2.164   0.826   8.549  0.1055  2.4917  1.8220
  830MOL0     H12032  -1.481   1.603   8.563  0.1673  1.3317 -1.9244
  830MOL0     H12033  -1.231   1.608   8.531 -0.4537  0.7714 -1.6673
  830MOL0     H12034  -0.812   1.379   8.660  0.2519 -3.1128 -1.1962
  830MOL0     H12035  -0.584   1.444   8.643 -1.7546 -1.9613  1.6831
  830MOL0     H12036   1.367   1.421   8.894  0.5182  0.3185  0.7722
  830MOL0     H12037   1.580   1.463   9.007 -0.0155 -0.1694 -0.2444
  830MOL0     H12038   2.018   1.469   8.884 -2.5546  1.3174  0.9076
  830MOL0     H12039   2.251   1.529   8.914 -1.9562  1.9702 -0.4965
  830MOL0     H12040   2.405   1.580   9.314  0.3904  2.1697 -0.4904
  830MOL0     H12041   2.464   1.412   9.292  2.8952  1.0340  0.8457
  830MOL0     H12042   2.655   1.545   9.336  4.2255 -1.1834 -2.9024
  830MOL0     H12043   2.619   1.659   9.215  5.6303  0.6710  3.1582
  830MOL0     H12044   2.617   1.441   9.067  0.3991  0.1174 -0.1828
  830MOL0     H12045   2.687   1.362   9.199  1.4555  0.1440 -1.0982
  830MOL0     H12046   2.859   1.579   9.193 -1.5325  2.1267 -0.3816
  830MOL0     H12047   2.780   1.599   9.035 -2.3543 -1.6043 -1.5606
  830MOL0     H12048   3.028   1.284   8.931 -0.7220  0.6431 -0.3076
  830MOL0     H12049   2.243   1.367   9.310 -0.4621 -2.1283 -1.0323
  830MOL0     H12050   2.013   1.296   9.273  1.1357 -1.9134 -1.2813
  831MOL0     O12051   8.841   6.966  10.073 -0.1700  0.0738  0.0871
  831MOL0     C12052   8.856   7.081  10.115  0.4552  0.7721  0.5953
  831MOL0     O12053   8.936   7.169  10.049  0.0797  0.2420  0.4780
  831MOL0     C12054   9.020   7.135   9.951 -0.2750  0.8336 -0.3606
  831MOL0     C12055   9.135   7.214   9.947  0.5274 -0.0106 -0.1724
  831MOL0     C12056   9.215   7.221   9.834 -0.4080 -0.0585 -0.0240
  831MOL0     C12057   9.194   7.138   9.722 -0.1332  0.6027  0.3221
  831MOL0     O12058   9.272   7.142   9.604 -0.3421  0.0947 -0.2066
  831MOL0     C12059   9.407   7.190   9.619  0.5051  0.1209 -0.1406
  831MOL0     C12060   9.492   7.105   9.526 -0.0283 -0.3832 -0.1082
  831MOL0     C12061   9.483   6.949   9.544  0.6259 -0.7241 -0.2930
  831MOL0     C12062   9.585   6.892   9.448  0.3718 -0.4888 -0.6079
  831MOL0     C12063   9.577   6.744   9.466 -0.6169  0.5348  0.4099
  831MOL0     C12064   9.707   6.687   9.403  0.0151 -0.4724 -0.2163
  831MOL0     C12065   9.694   6.532   9.395  0.1060 -0.1200 -0.0832
  831MOL0     C12066   9.713   6.467   9.526 -0.2841 -0.1190  0.1558
  831MOL0     N12067   9.843   6.501   9.596 -0.2323  0.4390  1.0109
  831MOL0     C12068   9.856   6.567   9.714  1.3416  0.1807  0.3521
  831MOL0     C12069   9.989   6.573   9.732 -0.1131 -0.2288 -0.8060
  831MOL0     C12070  10.050   6.651   9.858 -0.5384  0.1537  0.5833
  831MOL0     C12071   9.961   6.639   9.978 -0.2301 -0.5342 -0.3372
  831MOL0     C12072  10.032   6.625  10.112 -0.9328 -0.4243  0.4402
  831MOL0     C12073   9.930   6.609  10.219 -0.1281  0.1451 -0.2279
  831MOL0     O12074   9.860   6.735  10.239 -0.0338  0.1537 -0.2305
  831MOL0     C12075   9.749   6.726  10.314  0.1700 -0.1369 -0.2567
  831MOL0     C12076   9.694   6.612  10.374 -1.1045 -0.3145 -0.7769
  831MOL0     C12077   9.565   6.632  10.436  0.7064  1.0858  0.2633
  831MOL0     C12078   9.503   6.504  10.490  0.4010 -0.4280  0.9605
  831MOL0     C12079   9.498   6.760  10.437  0.6266 -0.2680  0.2432
  831MOL0     C12080   9.359   6.793  10.485  0.2105  0.2626  0.1202
  831MOL0     O12081   9.279   6.689  10.518  0.1106  0.6386  0.1169
  831MOL0     C12082   9.152   6.706  10.566 -0.4712 -0.7070  0.3968
  831MOL0     C12083   9.052   6.771  10.490  0.0407 -0.5044 -1.1350
  831MOL0     C12084   8.917   6.782  10.524  0.3738  0.0642 -0.5592
  831MOL0     C12085   8.872   6.716  10.640 -0.1214 -0.1926  0.1265
  831MOL0     O12086   8.736   6.730  10.666 -0.0434 -0.5336  0.8305
  831MOL0     C12087   8.693   6.718  10.799 -0.3393 -0.6732 -0.3281
  831MOL0     C12088   8.541   6.708  10.809  0.4324  0.5208  0.4515
  831MOL0     C12089   8.469   6.833  10.742 -0.1753  0.3168  0.0112
  831MOL0     C12090   8.310   6.823  10.773 -0.3923 -0.1410  0.3318
  831MOL0     C12091   8.229   6.947  10.730  0.5584 -0.2648 -0.2125
  831MOL0     C12092   8.080   6.932  10.772 -1.8649  0.9604  0.4392
  831MOL0     C12093   8.006   7.065  10.816 -0.5577 -0.1148  0.2548
  831MOL0     C12094   7.861   7.026  10.866  0.7021  0.4964  0.3721
  831MOL0    Cl12095   7.861   6.927  11.012 -0.0198  0.0086  0.1696
  831MOL0     C12096   8.964   6.634  10.711  0.5546 -0.2942 -0.0034
  831MOL0     C12097   9.097   6.635  10.673  0.0277 -0.8148 -1.1425
  831MOL0     O12098   9.324   6.911  10.487  0.8570 -0.0627  0.0308
  831MOL0     C12099   9.567   6.874  10.393 -0.5144  0.0706  0.4478
  831MOL0     C12100   9.689   6.852  10.318 -1.3901  0.9737 -0.2049
  831MOL0     N12101  10.058   6.489   9.639  0.0274 -0.3642 -0.1112
  831MOL0     N12102   9.970   6.457   9.556  0.6651 -0.3004  0.4501
  831MOL0     C12103   9.090   7.043   9.730 -0.2059 -0.0840  0.4218
  831MOL0     C12104   9.005   7.042   9.841 -0.0518 -0.0921  0.1835
  831MOL0     C12105   8.778   7.118  10.238 -0.5618 -1.1931 -0.0116
  831MOL0     C12106   8.706   7.015  10.307 -0.6527 -0.6456 -0.2575
  831MOL0     C12107   8.623   7.049  10.418 -0.3857  0.1266 -0.3874
  831MOL0     C12108   8.608   7.185  10.462 -0.2168  0.8156  0.0743
  831MOL0     O12109   8.517   7.204  10.563  0.0224  0.0858  0.4968
  831MOL0     C12110   8.496   7.344  10.592  0.2200  0.5202 -1.1255
  831MOL0     C12111   8.382   7.357  10.700 -0.8777 -0.0949 -0.8350
  831MOL0     C12112   8.237   7.342  10.651  0.0311 -0.1719  0.1837
  831MOL0     C12113   8.139   7.420  10.731  0.2483  0.6072  0.4473
  831MOL0     C12114   8.008   7.393  10.668 -0.2218 -0.4885 -0.3108
  831MOL0     C12115   7.897   7.376  10.619  0.3825  0.0415  0.4129
  831MOL0     C12116   8.680   7.289  10.391  0.1774  0.0401 -0.1922
  831MOL0     C12117   8.763   7.256  10.282  0.4856  0.5010  0.3840
  831MOL0     H12118   9.138   7.291  10.024 -0.2159 -1.1652  1.0410
  831MOL0     H12119   9.303   7.283   9.840  1.0304 -1.9715 -0.5071
  831MOL0     H12120   9.424   7.293   9.587  0.0307 -0.7725 -3.7544
  831MOL0     H12121   9.440   7.166   9.721  0.0662 -2.7475 -0.5859
  831MOL0     H12122   9.487   7.137   9.422  1.0495  0.8028  0.1818
  831MOL0     H12123   9.586   7.147   9.563 -0.7810  0.6856  0.6816
  831MOL0     H12124   9.502   6.932   9.650 -1.6300  0.7782  0.4184
  831MOL0     H12125   9.381   6.916   9.525 -1.4416  3.1562  2.6905
  831MOL0     H12126   9.549   6.918   9.348 -1.7742  2.5345  0.8087
  831MOL0     H12127   9.683   6.936   9.467  0.2009 -1.5024  4.0922
  831MOL0     H12128   9.568   6.722   9.573 -0.2769 -0.2557  0.2784
  831MOL0     H12129   9.491   6.711   9.407 -2.5016  3.2872  1.3794
  831MOL0     H12130   9.729   6.736   9.308  1.4300 -3.1243 -1.3598
  831MOL0     H12131   9.784   6.715   9.476 -1.0212 -0.0029  0.7352
  831MOL0     H12132   9.603   6.489   9.354 -0.9367  1.3063  0.6699
  831MOL0     H12133   9.778   6.482   9.344 -0.3522 -2.2477  1.1537
  831MOL0     H12134   9.718   6.361   9.502 -1.0229 -0.0802 -0.2036
  831MOL0     H12135   9.627   6.478   9.593  0.0188 -0.3938  0.5885
  831MOL0     H12136   9.789   6.624   9.777  0.8435  2.7003 -2.2703
  831MOL0     H12137  10.149   6.611   9.885  1.0279  4.3667  1.8933
  831MOL0     H12138  10.065   6.754   9.825 -4.4089  0.9917  0.9427
  831MOL0     H12139   9.891   6.555   9.966  0.4176 -1.3466  1.2140
  831MOL0     H12140   9.908   6.735   9.977  0.4644 -0.1379 -1.9383
  831MOL0     H12141  10.100   6.705  10.140 -0.6178 -0.6254  0.2615
  831MOL0     H12142  10.095   6.537  10.096  0.4003  0.7366 -1.0481
  831MOL0     H12143   9.980   6.587  10.314 -0.9214  2.6958  0.8598
  831MOL0     H12144   9.863   6.526  10.193 -1.3385  1.0215 -0.0004
  831MOL0     H12145   9.739   6.513  10.372  0.7716  0.4182 -4.5695
  831MOL0     H12146   9.469   6.525  10.591  0.4353  2.2085  0.4885
  831MOL0     H12147   9.418   6.476  10.426  0.2063  2.2528 -0.1085
  831MOL0     H12148   9.580   6.427  10.491  0.6851 -0.2778 -1.6479
  831MOL0     H12149   9.083   6.832  10.406  3.1247 -2.0979 -1.2738
  831MOL0     H12150   8.853   6.845  10.463 -0.0465 -0.7267 -0.9484
  831MOL0     H12151   8.730   6.632  10.854  2.1321  1.0179  0.8418
  831MOL0     H12152   8.723   6.807  10.856 -2.4841 -0.5751  0.7482
  831MOL0     H12153   8.496   6.623  10.758  1.7054  0.7264 -1.1059
  831MOL0     H12154   8.519   6.713  10.916 -1.8401  2.0301 -0.0287
  831MOL0     H12155   8.468   6.833  10.632  0.5090  0.8530 -0.0016
  831MOL0     H12156   8.516   6.926  10.775 -1.2688  1.9198 -2.5370
  831MOL0     H12157   8.265   6.730  10.735 -0.5817  0.5749 -1.3035
  831MOL0     H12158   8.294   6.813  10.880 -3.9101  3.7400  0.4401
  831MOL0     H12159   8.236   6.977  10.625  0.7128 -0.8222 -0.3678
  831MOL0     H12160   8.255   7.027  10.799 -3.3251  0.5968  0.4683
  831MOL0     H12161   8.022   6.891  10.689  0.7156 -0.8765 -0.5970
  831MOL0     H12162   8.078   6.864  10.858 -2.0485  1.1154  0.5575
  831MOL0     H12163   7.989   7.128  10.728 -0.1829 -1.2458 -0.6580
  831MOL0     H12164   8.061   7.127  10.887  1.7952 -1.9980  0.2018
  831MOL0     H12165   7.829   6.966  10.781 -1.2582  1.1439  0.6102
  831MOL0     H12166   7.802   7.117  10.872 -1.7473 -0.9597 -0.4584
  831MOL0     H12167   8.929   6.577  10.796  1.1084 -0.3167  0.2116
  831MOL0     H12168   9.171   6.575  10.724 -1.0135 -0.6880  0.5904
  831MOL0     H12169   9.522   6.973  10.391 -0.4970  0.0983  1.2145
  831MOL0     H12170   9.745   6.928  10.266 -2.9403  1.0991 -1.7809
  831MOL0     H12171   9.072   6.974   9.648  0.1155 -2.0657  1.9489
  831MOL0     H12172   8.919   6.975   9.844 -0.6634  0.6919  0.4558
  831MOL0     H12173   8.715   6.917  10.261 -1.9954 -0.2571 -1.4071
  831MOL0     H12174   8.577   6.967  10.473  0.7186 -0.1566  0.1430
  831MOL0     H12175   8.587   7.390  10.630 -0.8046 -0.9618  3.8794
  831MOL0     H12176   8.474   7.403  10.503 -0.1529 -0.5879 -1.7910
  831MOL0     H12177   8.394   7.460  10.733  2.9821  0.1198 -2.3662
  831MOL0     H12178   8.402   7.297  10.790  1.5951  4.3736  1.9889
  831MOL0     H12179   8.201   7.239  10.653 -3.2262  0.8114  3.1469
  831MOL0     H12180   8.235   7.374  10.547  3.0439  0.9179  0.3557
  831MOL0     H12181   8.158   7.528  10.731 -0.0365  0.6740  1.9019
  831MOL0     H12182   8.157   7.377  10.830  1.0519 -2.6055 -0.9680
  831MOL0     H12183   7.800   7.371  10.573  0.5127  1.0129  0.0076
  831MOL0     H12184   8.681   7.395  10.415  1.7862  0.0937 -0.3564
  831MOL0     H12185   8.816   7.330  10.222  0.1133  0.5530  0.1120
  832MOL0     O12186   8.629   7.787   5.910  0.5396 -0.0727  0.2862
  832MOL0     C12187   8.742   7.740   5.884 -0.2563 -0.1589 -0.2759
  832MOL0     O12188   8.789   7.719   5.759 -1.5768 -0.0677 -0.2296
  832MOL0     C12189   8.719   7.759   5.650  0.1362 -0.4936 -0.0415
  832MOL0     C12190   8.717   7.886   5.598 -0.5244 -0.6839 -0.8286
  832MOL0     C12191   8.654   7.915   5.479 -0.0062  0.2042  0.2259
  832MOL0     C12192   8.594   7.810   5.404  0.2825  0.3124 -0.3612
  832MOL0     O12193   8.518   7.825   5.293  0.2567 -0.3903 -0.8427
  832MOL0     C12194   8.407   7.917   5.305  0.3066  0.2828 -0.4953
  832MOL0     C12195   8.265   7.861   5.281  0.3601  0.6494 -0.3440
  832MOL0     C12196   8.231   7.746   5.379 -0.7408  0.4499  0.6368
  832MOL0     C12197   8.082   7.709   5.382  0.0302 -0.4129 -0.3788
  832MOL0     C12198   8.051   7.601   5.489 -0.1054  0.0326  0.4635
  832MOL0     C12199   7.899   7.578   5.470 -0.1690  0.0059  0.4003
  832MOL0     C12200   7.839   7.482   5.572  0.1001 -0.5630 -0.2028
  832MOL0     C12201   7.929   7.370   5.618 -0.1747  0.6811  0.2909
  832MOL0     N12202   7.850   7.280   5.706  0.5777  0.4281  0.7280
  832MOL0     C12203   7.822   7.293   5.839 -0.4188 -0.6626 -0.2818
  832MOL0     C12204   7.783   7.169   5.888  0.4511  0.3498  0.1934
  832MOL0     C12205   7.739   7.159   6.031 -0.0231  0.2960 -0.1268
  832MOL0     C12206   7.755   7.014   6.083 -0.2908 -0.5292  0.3723
  832MOL0     C12207   7.636   6.935   6.051 -0.3233 -1.3298  0.6981
  832MOL0     C12208   7.625   6.808   6.122 -0.3182  0.1711 -0.4771
  832MOL0     O12209   7.622   6.817   6.272  0.1838 -0.5386  0.1409
  832MOL0     C12210   7.496   6.837   6.322 -0.6351 -0.3669 -0.7665
  832MOL0     C12211   7.487   6.851   6.464 -0.1436 -0.2213  0.1124
  832MOL0     C12212   7.362   6.880   6.526 -0.4588 -0.7171  0.0257
  832MOL0     C12213   7.353   6.871   6.676  0.1438  0.1839  0.4288
  832MOL0     C12214   7.253   6.920   6.440 -0.2904  0.0114 -1.0816
  832MOL0     C12215   7.123   6.983   6.488  0.7026  0.2213 -0.5148
  832MOL0     O12216   7.019   6.963   6.407  0.8213  0.4848 -0.5648
  832MOL0     C12217   6.899   7.023   6.439 -1.1381  0.1311  0.1061
  832MOL0     C12218   6.790   6.941   6.462  0.2532  0.0823  0.0511
  832MOL0     C12219   6.662   6.985   6.476 -0.0991  0.5600 -0.6428
  832MOL0     C12220   6.636   7.124   6.489  0.6318  0.9129  0.0946
  832MOL0     O12221   6.515   7.184   6.508  0.3625  0.1728 -0.0783
  832MOL0     C12222   6.408   7.096   6.493 -0.0832  0.9106  0.6746
  832MOL0     C12223   6.285   7.173   6.527  0.5735 -0.9796 -1.0604
  832MOL0     C12224   6.150   7.094   6.499 -0.2735  0.0259 -0.4340
  832MOL0     C12225   6.028   7.189   6.509 -0.3028  0.0576  0.0945
  832MOL0     C12226   5.889   7.125   6.460 -0.3302 -0.5199  0.1643
  832MOL0     C12227   5.766   7.213   6.488  0.8052  0.1251  0.6343
  832MOL0     C12228   5.633   7.164   6.408  0.3465 -0.2738 -0.0217
  832MOL0     C12229   5.505   7.233   6.455 -0.3357  0.5436  0.2855
  832MOL0    Cl12230   5.515   7.416   6.424  0.4259  0.0163  0.3046
  832MOL0     C12231   6.746   7.210   6.489 -0.4213 -0.0241  0.4344
  832MOL0     C12232   6.872   7.161   6.464 -0.5362  0.5168 -0.9035
  832MOL0     O12233   7.120   7.045   6.595  0.4121  0.3136  0.1725
  832MOL0     C12234   7.262   6.905   6.299 -0.8550 -0.3144 -0.1361
  832MOL0     C12235   7.378   6.856   6.244 -0.3011  0.1680  0.5657
  832MOL0     N12236   7.774   7.081   5.775 -0.4115  0.9383 -0.1118
  832MOL0     N12237   7.826   7.142   5.683  0.0758 -0.4196  0.2482
  832MOL0     C12238   8.576   7.686   5.471  0.2822  0.1200  0.0181
  832MOL0     C12239   8.643   7.659   5.595  0.3395 -0.8347 -0.0711
  832MOL0     C12240   8.831   7.708   5.993  0.7352  0.3410 -0.2252
  832MOL0     C12241   8.962   7.696   5.984 -1.1442  0.1357 -0.5133
  832MOL0     C12242   9.045   7.659   6.097 -0.0479  0.1832 -0.5013
  832MOL0     C12243   8.989   7.635   6.222 -0.3876 -0.2742 -1.0311
  832MOL0     O12244   9.052   7.631   6.347 -0.2444 -0.4391  0.2411
  832MOL0     C12245   9.185   7.587   6.341 -0.3491 -0.1693 -0.2515
  832MOL0     C12246   9.239   7.566   6.486  0.3908  0.5556 -0.3257
  832MOL0     C12247   9.221   7.690   6.587 -0.3932  0.5732 -0.5365
  832MOL0     C12248   9.278   7.820   6.525 -0.2935 -0.3364  0.1627
  832MOL0     C12249   9.425   7.817   6.531  0.2182 -0.2401  0.1280
  832MOL0     C12250   9.546   7.824   6.561  0.6828  0.3315  0.1843
  832MOL0     C12251   8.851   7.658   6.228  0.5794  0.6525 -0.4574
  832MOL0     C12252   8.771   7.697   6.124  0.6039  1.1427 -0.4521
  832MOL0     H12253   8.781   7.961   5.645 -0.8185 -0.9475  0.0099
  832MOL0     H12254   8.656   8.016   5.439 -1.1803 -0.1902 -0.9190
  832MOL0     H12255   8.406   7.955   5.408  0.3130 -0.0198 -0.3820
  832MOL0     H12256   8.424   7.997   5.232  1.4872 -1.5879 -2.3810
  832MOL0     H12257   8.193   7.942   5.296  1.6094  1.3292  2.6442
  832MOL0     H12258   8.252   7.826   5.178  0.4529 -2.8890  0.7080
  832MOL0     H12259   8.293   7.658   5.362 -0.4156 -0.3212  4.7352
  832MOL0     H12260   8.261   7.784   5.477 -0.5960  3.9286 -0.6143
  832MOL0     H12261   8.026   7.803   5.389 -0.3106 -0.5556 -1.0906
  832MOL0     H12262   8.055   7.667   5.284  0.2648  0.9383 -1.0508
  832MOL0     H12263   8.114   7.512   5.480  1.2173  0.7122  2.4785
  832MOL0     H12264   8.066   7.635   5.591 -0.8434  4.2143 -0.6186
  832MOL0     H12265   7.842   7.670   5.484 -1.9664 -1.1092  0.7608
  832MOL0     H12266   7.877   7.545   5.368 -0.7748  0.9061  0.2296
  832MOL0     H12267   7.813   7.545   5.658  1.0090  1.9253 -1.6535
  832MOL0     H12268   7.752   7.435   5.525  0.1444 -0.3930 -0.4590
  832MOL0     H12269   8.021   7.407   5.663  1.6677 -1.6305 -1.3311
  832MOL0     H12270   7.970   7.318   5.531  0.4857  1.3694  0.1787
  832MOL0     H12271   7.829   7.385   5.896 -1.3205 -1.9992  2.1318
  832MOL0     H12272   7.804   7.224   6.090  1.2680 -0.3973 -0.7361
  832MOL0     H12273   7.634   7.188   6.039 -0.6893 -1.1270 -2.5921
  832MOL0     H12274   7.769   7.010   6.191 -1.3106 -1.7878  0.4893
  832MOL0     H12275   7.847   6.967   6.046  1.7382  1.5580  2.4357
  832MOL0     H12276   7.647   6.915   5.944 -1.4427  0.2164  0.2565
  832MOL0     H12277   7.553   7.001   6.078  0.9989  1.1950 -0.9941
  832MOL0     H12278   7.709   6.743   6.098  0.3560 -0.0415  2.0851
  832MOL0     H12279   7.541   6.760   6.071 -0.2808 -0.0516 -0.3322
  832MOL0     H12280   7.573   6.826   6.525 -0.5503 -0.2297  0.6878
  832MOL0     H12281   7.256   6.822   6.693 -0.6974  0.0379 -3.7147
  832MOL0     H12282   7.431   6.811   6.724 -1.4154  0.4433  3.6004
  832MOL0     H12283   7.349   6.971   6.719 -0.9908  0.1274  0.4820
  832MOL0     H12284   6.812   6.835   6.448 -1.2781 -0.5149  1.7762
  832MOL0     H12285   6.580   6.914   6.475 -1.2693  1.8716 -1.6000
  832MOL0     H12286   6.402   7.054   6.392  1.1058  0.4526  0.7805
  832MOL0     H12287   6.420   7.015   6.565 -0.7831  2.6801  2.8935
  832MOL0     H12288   6.296   7.206   6.630  1.5953 -0.0578 -1.4461
  832MOL0     H12289   6.289   7.267   6.471 -3.3030 -1.0288 -1.6610
  832MOL0     H12290   6.134   7.007   6.563 -1.0293 -0.4085 -1.1980
  832MOL0     H12291   6.147   7.046   6.401 -1.2991  0.2748 -0.5406
  832MOL0     H12292   6.021   7.218   6.615 -1.8076 -1.3653  0.4383
  832MOL0     H12293   6.051   7.279   6.452 -1.7361  1.9426  2.2828
  832MOL0     H12294   5.882   7.023   6.500 -0.3072 -0.8985 -0.7864
  832MOL0     H12295   5.906   7.117   6.353 -2.2124 -0.2055 -0.1885
  832MOL0     H12296   5.728   7.212   6.591 -1.6798  0.0052 -0.1976
  832MOL0     H12297   5.780   7.318   6.460 -4.4645  1.0637  0.4810
  832MOL0     H12298   5.607   7.060   6.427 -1.4792  0.3819  1.4232
  832MOL0     H12299   5.641   7.182   6.300  0.2919  0.0265  0.0232
  832MOL0     H12300   5.490   7.206   6.560  2.1864 -2.9353 -0.0906
  832MOL0     H12301   5.418   7.189   6.406 -0.6935 -1.6135  2.6079
  832MOL0     H12302   6.725   7.313   6.515 -1.1612 -0.1563  0.3819
  832MOL0     H12303   6.954   7.231   6.448  2.2292 -1.6320  2.4036
  832MOL0     H12304   7.176   6.930   6.238  0.1457  2.4305 -0.5390
  832MOL0     H12305   7.388   6.853   6.136  3.7153  1.4347  0.7580
  832MOL0     H12306   8.509   7.617   5.420  2.1614 -0.2782 -2.0961
  832MOL0     H12307   8.636   7.558   5.634  1.5906 -1.0397 -0.3255
  832MOL0     H12308   9.015   7.719   5.892 -0.6325  2.6804  0.3276
  832MOL0     H12309   9.153   7.652   6.086 -0.1748 -1.0012 -1.1495
  832MOL0     H12310   9.198   7.498   6.278  0.4252  1.3945 -2.4157
  832MOL0     H12311   9.256   7.653   6.291  1.4389 -0.9340  1.1790
  832MOL0     H12312   9.347   7.547   6.485  0.0669 -1.4844 -1.4077
  832MOL0     H12313   9.192   7.475   6.524  2.2214 -1.3223 -2.3161
  832MOL0     H12314   9.259   7.654   6.683 -1.4483 -1.2239 -0.7480
  832MOL0     H12315   9.112   7.693   6.595 -0.5159 -0.3710 -1.5854
  832MOL0     H12316   9.242   7.903   6.587 -1.0150  1.3344 -2.3697
  832MOL0     H12317   9.242   7.845   6.425 -3.0952  2.3940  1.6512
  832MOL0     H12318   9.649   7.813   6.588  0.2236 -4.8390  0.7539
  832MOL0     H12319   8.807   7.655   6.327 -0.4683 -2.6231 -0.8824
  832MOL0     H12320   8.666   7.706   6.152  0.5732 -0.5772  0.1254
  833MOL0     O12321   7.448   5.213   1.615  0.6274 -0.4434  0.4555
  833MOL0     C12322   7.412   5.180   1.724  0.1020  0.8069 -0.1035
  833MOL0     O12323   7.334   5.066   1.745 -0.2806 -0.6364 -0.7393
  833MOL0     C12324   7.273   5.013   1.633  0.6299  0.0081 -1.3634
  833MOL0     C12325   7.311   4.883   1.603 -0.2793 -0.1942  0.0411
  833MOL0     C12326   7.237   4.823   1.500 -0.0179 -0.1162  0.0023
  833MOL0     C12327   7.134   4.890   1.425 -0.0235 -0.6613 -0.4622
  833MOL0     O12328   7.071   4.815   1.327  0.3100  0.5466 -0.0167
  833MOL0     C12329   6.934   4.861   1.300  0.2099  0.6789 -0.0579
  833MOL0     C12330   6.872   4.761   1.194  0.0164 -0.2756 -1.0204
  833MOL0     C12331   6.740   4.820   1.143 -0.9719 -0.3692  0.3280
  833MOL0     C12332   6.678   4.708   1.053  0.6401 -0.1261 -0.0439
  833MOL0     C12333   6.551   4.769   0.999  0.7062  0.5536  0.5882
  833MOL0     C12334   6.452   4.663   0.956  0.2955  1.2849 -0.7229
  833MOL0     C12335   6.337   4.722   0.873  0.1498 -0.3204 -0.1395
  833MOL0     C12336   6.394   4.774   0.728  0.0896 -0.1079 -0.9673
  833MOL0     N12337   6.469   4.675   0.653  0.0566 -0.8131 -0.3669
  833MOL0     C12338   6.606   4.661   0.626 -0.4509 -1.0640 -0.0953
  833MOL0     C12339   6.619   4.568   0.534  0.0340 -0.5003  0.1860
  833MOL0     C12340   6.750   4.538   0.465  0.0349  0.3247 -0.0200
  833MOL0     C12341   6.838   4.459   0.572  0.0173 -0.1651  0.5916
  833MOL0     C12342   6.942   4.368   0.510 -0.1973  0.8382  0.2812
  833MOL0     C12343   7.009   4.270   0.618  0.7884 -0.5335 -0.1499
  833MOL0     O12344   6.914   4.163   0.676 -0.7832  0.3630  0.8068
  833MOL0     C12345   6.852   4.088   0.584  0.5828 -0.0014  0.8362
  833MOL0     C12346   6.717   4.092   0.557  0.5045  0.1540 -0.6464
  833MOL0     C12347   6.664   4.011   0.460  0.7170  0.4002 -0.2578
  833MOL0     C12348   6.518   4.034   0.444 -0.3589  0.7818  0.0935
  833MOL0     C12349   6.736   3.909   0.391 -1.0883 -0.6126 -0.0385
  833MOL0     C12350   6.685   3.818   0.287 -0.0310  1.0738  0.1882
  833MOL0     O12351   6.771   3.709   0.254  0.3196 -0.9668  0.2165
  833MOL0     C12352   6.750   3.615   0.152  0.6788  0.1414 -0.2669
  833MOL0     C12353   6.657   3.628   0.046 -0.0424  0.7558  0.2561
  833MOL0     C12354   6.641   3.526  -0.051  0.7500  0.4274 -0.6449
  833MOL0     C12355   6.725   3.416  -0.037  0.2259  0.1026  0.8792
  833MOL0     O12356   6.712   3.331  -0.141 -0.8252  0.0641  0.0761
  833MOL0     C12357   6.821   3.239  -0.154  0.7890  0.2581 -0.0293
  833MOL0     C12358   6.801   3.178  -0.292 -0.7629 -0.3090 -0.6207
  833MOL0     C12359   6.658   3.141  -0.335  0.2756 -0.0761  0.2153
  833MOL0     C12360   6.651   3.078  -0.471  0.0830  0.5977  0.0974
  833MOL0     C12361   6.705   2.935  -0.472  0.3681  0.3368  0.0752
  833MOL0     C12362   6.742   2.886  -0.616 -0.3172  0.2671  0.5681
  833MOL0     C12363   6.745   2.740  -0.637 -0.1391 -0.2532  1.1423
  833MOL0     C12364   6.803   2.708  -0.782 -0.6733  0.1825  0.6121
  833MOL0    Cl12365   6.705   2.800  -0.915  0.0711 -0.1368  0.1403
  833MOL0     C12366   6.803   3.389   0.073 -0.1964  1.4360 -0.1871
  833MOL0     C12367   6.818   3.487   0.165  0.3411  1.0320 -0.9159
  833MOL0     O12368   6.569   3.827   0.246  0.1132 -0.0571  0.5588
  833MOL0     C12369   6.874   3.898   0.421  1.0766 -1.1395 -1.1602
  833MOL0     C12370   6.927   3.986   0.518  0.2497 -0.6747 -0.5115
  833MOL0     N12371   6.493   4.526   0.498  0.0916 -0.4027 -0.4698
  833MOL0     N12372   6.406   4.586   0.576 -0.0099  0.1506  0.0112
  833MOL0     C12373   7.107   5.032   1.451 -0.6343  0.0560 -0.4860
  833MOL0     C12374   7.177   5.086   1.559  0.0446 -0.4340 -0.1631
  833MOL0     C12375   7.492   5.227   1.842 -0.5212 -0.5567 -0.3191
  833MOL0     C12376   7.471   5.160   1.965 -0.1511 -0.5106  0.2442
  833MOL0     C12377   7.538   5.207   2.077  0.1787  0.7821  0.5976
  833MOL0     C12378   7.615   5.319   2.082  0.8337  0.0464 -0.2970
  833MOL0     O12379   7.671   5.344   2.202 -0.0012 -0.3004 -0.6403
  833MOL0     C12380   7.751   5.455   2.216  0.1523  0.5858 -0.0500
  833MOL0     C12381   7.896   5.425   2.171  0.2768 -0.4131 -0.6898
  833MOL0     C12382   7.995   5.494   2.269 -0.4611  0.7966 -0.6382
  833MOL0     C12383   8.107   5.397   2.308 -0.2125  0.6103 -0.2886
  833MOL0     C12384   8.212   5.479   2.376 -0.5598 -0.1133 -0.0650
  833MOL0     C12385   8.294   5.547   2.433 -0.6163  0.4681 -0.5098
  833MOL0     C12386   7.644   5.375   1.959 -0.3777  0.3585  0.5653
  833MOL0     C12387   7.585   5.331   1.841 -0.1587  0.6349  1.1811
  833MOL0     H12388   7.400   4.841   1.647  2.6642  2.5875 -2.6707
  833MOL0     H12389   7.259   4.720   1.473 -0.1458 -0.4596  1.1412
  833MOL0     H12390   6.874   4.863   1.392 -0.7703 -2.4709 -0.5282
  833MOL0     H12391   6.939   4.955   1.244 -0.1501  1.2510  0.8384
  833MOL0     H12392   6.945   4.742   1.115  0.5212  2.6952 -1.3775
  833MOL0     H12393   6.877   4.668   1.251  1.8996  0.7758  0.6417
  833MOL0     H12394   6.682   4.849   1.231 -0.0705 -0.8540  1.0938
  833MOL0     H12395   6.757   4.908   1.081 -0.2364 -1.1404 -0.5996
  833MOL0     H12396   6.739   4.660   0.975 -0.7109 -2.1960  0.0864
  833MOL0     H12397   6.659   4.622   1.118 -3.3300 -0.8291 -1.8272
  833MOL0     H12398   6.496   4.840   1.062 -0.8419  1.6794 -1.8695
  833MOL0     H12399   6.573   4.829   0.910 -3.4699 -0.2192 -1.1826
  833MOL0     H12400   6.510   4.584   0.907 -1.6275 -1.0773  0.6212
  833MOL0     H12401   6.402   4.615   1.040  0.6425  0.3017 -1.0644
  833MOL0     H12402   6.252   4.656   0.856  1.8187 -2.0420 -2.4660
  833MOL0     H12403   6.293   4.805   0.930  1.0176 -0.9220  1.4622
  833MOL0     H12404   6.448   4.869   0.736 -0.9110  0.4225 -0.3065
  833MOL0     H12405   6.304   4.800   0.671 -1.6764 -0.9847  1.2552
  833MOL0     H12406   6.683   4.728   0.661 -2.8440  2.0431 -0.3111
  833MOL0     H12407   6.733   4.478   0.375  1.0676 -0.5465  0.3397
  833MOL0     H12408   6.806   4.628   0.439  0.0698  1.3762  3.2122
  833MOL0     H12409   6.779   4.383   0.625 -0.6950  0.0596  0.1342
  833MOL0     H12410   6.891   4.531   0.635 -1.9452  3.1493 -1.2451
  833MOL0     H12411   7.018   4.430   0.462 -2.1890  3.2490  0.0294
  833MOL0     H12412   6.900   4.309   0.428 -2.0723  2.0106  0.3302
  833MOL0     H12413   7.043   4.331   0.702  1.5861 -1.9525  0.5821
  833MOL0     H12414   7.097   4.236   0.564  0.2875  1.9739 -2.8075
  833MOL0     H12415   6.657   4.168   0.606 -0.3851 -0.6507 -0.4487
  833MOL0     H12416   6.477   4.122   0.495 -1.0054  1.7785 -2.0086
  833MOL0     H12417   6.490   4.044   0.339 -0.5137  1.1974  0.1711
  833MOL0     H12418   6.463   3.946   0.479  0.5741 -1.1567 -2.9389
  833MOL0     H12419   6.607   3.724   0.040  1.1818  1.3549 -0.9239
  833MOL0     H12420   6.570   3.536  -0.132  0.9288  0.6784 -0.7730
  833MOL0     H12421   6.921   3.283  -0.153  0.5613  0.8680 -1.3241
  833MOL0     H12422   6.800   3.164  -0.078 -2.7816  2.2332  1.2101
  833MOL0     H12423   6.837   3.253  -0.362  1.8485  0.1464  1.0818
  833MOL0     H12424   6.856   3.083  -0.291 -1.1690 -0.5622 -1.4081
  833MOL0     H12425   6.606   3.237  -0.342 -0.6295 -0.6530 -3.7937
  833MOL0     H12426   6.612   3.082  -0.256  0.6825  2.8167  2.7977
  833MOL0     H12427   6.553   3.076  -0.519  0.2958 -0.6234 -0.3276
  833MOL0     H12428   6.704   3.143  -0.542 -1.1370 -0.6031 -2.0263
  833MOL0     H12429   6.626   2.873  -0.428  0.4612  1.7235  2.4179
  833MOL0     H12430   6.788   2.931  -0.400  0.0897  0.3925  0.4034
  833MOL0     H12431   6.679   2.935  -0.691 -1.1310 -3.4965 -1.4342
  833MOL0     H12432   6.848   2.908  -0.634  0.4855 -1.6707  2.3829
  833MOL0     H12433   6.640   2.710  -0.631 -0.2383  0.3270  2.7642
  833MOL0     H12434   6.806   2.686  -0.564  1.2627 -2.6147 -1.5985
  833MOL0     H12435   6.784   2.602  -0.797 -2.0694  0.2536  1.6727
  833MOL0     H12436   6.908   2.736  -0.788 -1.4162  3.1371 -0.4544
  833MOL0     H12437   6.859   3.297   0.088 -2.5435  0.0275  0.6750
  833MOL0     H12438   6.884   3.470   0.250  0.2337 -0.4140 -1.0940
  833MOL0     H12439   6.939   3.823   0.379  1.5491  0.1238 -2.8157
  833MOL0     H12440   7.034   3.988   0.540  0.5340  1.8856 -1.7580
  833MOL0     H12441   7.050   5.097   1.386  0.2218  2.0407  0.6564
  833MOL0     H12442   7.147   5.187   1.581 -1.0957 -0.8260  0.1656
  833MOL0     H12443   7.412   5.070   1.974 -1.1344  0.1867  1.0400
  833MOL0     H12444   7.521   5.150   2.167  0.6003  0.2285  0.3303
  833MOL0     H12445   7.713   5.546   2.168  0.7405  3.5664  4.4987
  833MOL0     H12446   7.751   5.476   2.323  0.5066 -3.0420  0.7857
  833MOL0     H12447   7.909   5.471   2.072 -1.3851  1.2501 -0.1672
  833MOL0     H12448   7.893   5.316   2.184 -1.3410 -0.1996  0.9951
  833MOL0     H12449   7.946   5.537   2.356  1.8953  1.1047  0.6040
  833MOL0     H12450   8.031   5.589   2.228 -1.1274  1.3390  0.0112
  833MOL0     H12451   8.147   5.347   2.219  1.9062 -1.0579  1.5008
  833MOL0     H12452   8.073   5.317   2.374  0.3479  0.2770 -0.3989
  833MOL0     H12453   8.365   5.605   2.488  0.2416  0.1853 -1.2928
  833MOL0     H12454   7.713   5.457   1.949  0.1152 -0.1588 -0.4631
  833MOL0     H12455   7.609   5.372   1.744  1.0262 -2.6887 -0.0747
  834MOL0     O12456   6.687   3.211   5.977 -0.2999 -0.3389  0.3904
  834MOL0     C12457   6.686   3.335   5.952  0.7376  0.9915 -0.6918
  834MOL0     O12458   6.579   3.417   5.926  0.4833  0.6654  0.4632
  834MOL0     C12459   6.449   3.367   5.944 -0.4110 -0.8111 -1.1507
  834MOL0     C12460   6.348   3.412   5.858 -0.1087 -0.1746  0.1236
  834MOL0     C12461   6.205   3.376   5.870 -0.3564 -0.0510 -0.6657
  834MOL0     C12462   6.179   3.295   5.978 -0.2160 -0.3359 -0.5491
  834MOL0     O12463   6.056   3.244   5.991  0.4717  0.0761 -0.0849
  834MOL0     C12464   5.941   3.332   5.982  0.6252 -0.5292 -0.6074
  834MOL0     C12465   5.837   3.299   6.090 -0.9470  0.3549  0.6900
  834MOL0     C12466   5.831   3.144   6.102 -0.3461  1.4507  0.1146
  834MOL0     C12467   5.698   3.114   6.180 -0.4631  0.3575 -0.0425
  834MOL0     C12468   5.667   2.969   6.173  0.0729  0.4069  0.1031
  834MOL0     C12469   5.520   2.950   6.206 -0.3746  0.1976  0.7992
  834MOL0     C12470   5.479   2.806   6.195 -0.2396 -0.3740 -0.9263
  834MOL0     C12471   5.437   2.771   6.049 -0.0831  0.3756 -0.5143
  834MOL0     N12472   5.374   2.635   6.050 -0.0858  0.0420  0.6206
  834MOL0     C12473   5.266   2.584   5.975 -0.8924  0.7878 -0.8081
  834MOL0     C12474   5.263   2.453   5.996 -0.2333  0.2322  0.3620
  834MOL0     C12475   5.171   2.340   5.937 -0.1698 -0.1465 -0.7975
  834MOL0     C12476   5.036   2.362   5.993  0.6739  0.8162 -1.1897
  834MOL0     C12477   5.040   2.342   6.150  0.0218  0.3530 -0.0303
  834MOL0     C12478   4.900   2.349   6.205 -0.6013 -0.7377 -0.0633
  834MOL0     O12479   4.832   2.224   6.179  0.2466 -0.1274 -0.2744
  834MOL0     C12480   4.695   2.239   6.177  0.4123 -0.7409 -0.0923
  834MOL0     C12481   4.617   2.147   6.251  1.1987 -0.2484  0.0683
  834MOL0     C12482   4.480   2.138   6.247 -0.1090 -0.1669  0.7578
  834MOL0     C12483   4.423   2.037   6.337 -0.9960 -0.2301 -0.3312
  834MOL0     C12484   4.409   2.218   6.153  0.1605 -0.4365  0.3424
  834MOL0     C12485   4.264   2.206   6.125  0.2240  0.6157 -0.7789
  834MOL0     O12486   4.205   2.302   6.048 -0.0467 -0.3269 -0.2763
  834MOL0     C12487   4.068   2.309   6.042  0.2253  0.3137  1.1809
  834MOL0     C12488   3.999   2.215   5.962 -0.6069  0.4238  0.4390
  834MOL0     C12489   3.862   2.231   5.932  0.0035  0.3845  0.3916
  834MOL0     C12490   3.788   2.340   5.990  0.5469 -0.7293  0.2547
  834MOL0     O12491   3.650   2.362   5.980 -0.5651  0.0922  0.2168
  834MOL0     C12492   3.590   2.315   5.863  0.4326  0.1755  0.5673
  834MOL0     C12493   3.451   2.352   5.868 -0.5369 -0.5752 -0.9674
  834MOL0     C12494   3.381   2.301   6.004 -0.3278  0.0268 -0.3108
  834MOL0     C12495   3.287   2.413   6.042  0.9067  0.7865  0.3281
  834MOL0     C12496   3.204   2.358   6.161  0.9741  0.2457 -1.5724
  834MOL0     C12497   3.089   2.449   6.204 -0.0564 -0.8598  0.3170
  834MOL0     C12498   3.139   2.576   6.285  0.1392  0.3142 -0.4084
  834MOL0     C12499   3.003   2.644   6.324  0.4054 -0.3333 -0.4986
  834MOL0    Cl12500   2.922   2.548   6.457 -0.2413  0.2887  0.2427
  834MOL0     C12501   3.853   2.432   6.067 -0.8473 -0.0652  0.1683
  834MOL0     C12502   3.991   2.419   6.092  0.3687  0.4407  0.3423
  834MOL0     O12503   4.209   2.111   6.170  0.1063 -0.0437 -0.8294
  834MOL0     C12504   4.480   2.318   6.084 -0.1367  0.3445  0.6929
  834MOL0     C12505   4.616   2.331   6.093 -0.1014  0.1877  0.5947
  834MOL0     N12506   5.375   2.423   6.070  0.4249  0.3640 -0.1800
  834MOL0     N12507   5.438   2.531   6.100  0.0667  0.2542 -0.4537
  834MOL0     C12508   6.281   3.248   6.068 -0.5066  0.9571 -0.1311
  834MOL0     C12509   6.415   3.293   6.054  0.2517  0.4673  0.1145
  834MOL0     C12510   6.823   3.388   5.955 -0.7775 -0.3583 -0.3361
  834MOL0     C12511   6.842   3.517   5.905  0.6891  0.4382  0.6530
  834MOL0     C12512   6.968   3.575   5.908  0.4391 -0.1378 -0.5695
  834MOL0     C12513   7.077   3.503   5.964 -0.0666 -0.8380 -0.4901
  834MOL0     O12514   7.197   3.571   5.951  0.2768  0.2973  0.2755
  834MOL0     C12515   7.320   3.494   5.973 -0.0432  0.0200  1.6035
  834MOL0     C12516   7.454   3.580   5.959 -0.4587  0.1175 -0.2359
  834MOL0     C12517   7.580   3.491   5.958 -0.2260 -0.4197 -0.2991
  834MOL0     C12518   7.701   3.582   5.972 -0.3537  0.2077  1.0578
  834MOL0     C12519   7.821   3.504   5.999  0.3352 -0.2900  0.8446
  834MOL0     C12520   7.924   3.459   6.029 -0.0093 -0.5248 -0.6363
  834MOL0     C12521   7.053   3.381   6.014 -0.4954 -0.0486 -0.1298
  834MOL0     C12522   6.933   3.316   6.004 -0.7614  0.2041  0.4651
  834MOL0     H12523   6.370   3.474   5.771  0.9607 -0.6524  0.0374
  834MOL0     H12524   6.128   3.400   5.798 -0.9899  0.7817  0.2726
  834MOL0     H12525   5.957   3.440   5.991  0.8175 -0.1599 -3.9485
  834MOL0     H12526   5.902   3.315   5.881  0.0578 -1.9361 -0.1746
  834MOL0     H12527   5.874   3.339   6.184 -0.2739 -1.1695  1.1121
  834MOL0     H12528   5.740   3.344   6.067  0.1720  1.9588 -1.1490
  834MOL0     H12529   5.831   3.104   6.000 -0.6293 -1.3090  1.1066
  834MOL0     H12530   5.904   3.102   6.172 -1.7206  1.3690  1.5351
  834MOL0     H12531   5.703   3.150   6.283 -0.9267  0.8458 -0.1847
  834MOL0     H12532   5.624   3.173   6.125  0.9235  3.3304  1.0575
  834MOL0     H12533   5.688   2.921   6.077  0.2305  0.3410  0.1704
  834MOL0     H12534   5.727   2.909   6.242  0.1400 -1.8034 -1.7532
  834MOL0     H12535   5.501   2.994   6.305 -0.7510  0.2654  0.6954
  834MOL0     H12536   5.465   3.009   6.133  1.8197 -0.0309 -1.1675
  834MOL0     H12537   5.560   2.741   6.231  0.0650  1.3155  1.6719
  834MOL0     H12538   5.401   2.784   6.268 -0.0257  0.4880 -0.4285
  834MOL0     H12539   5.521   2.777   5.979  1.8446 -2.3004  1.3751
  834MOL0     H12540   5.362   2.843   6.016  0.4601 -0.3126 -3.6264
  834MOL0     H12541   5.194   2.633   5.910 -1.2217  1.0178 -0.2807
  834MOL0     H12542   5.180   2.349   5.828  2.0190  0.7762 -0.5875
  834MOL0     H12543   5.212   2.243   5.967 -0.5383  0.3227  1.4111
  834MOL0     H12544   4.969   2.287   5.949  1.6569 -0.7490 -0.1417
  834MOL0     H12545   5.002   2.460   5.960 -0.8352 -0.2649 -3.0848
  834MOL0     H12546   5.093   2.433   6.180  0.9507 -0.7552  1.8758
  834MOL0     H12547   5.095   2.262   6.199 -1.0988  0.7118  1.9182
  834MOL0     H12548   4.845   2.435   6.165  0.8313 -0.4700 -1.5628
  834MOL0     H12549   4.896   2.355   6.315 -2.1839 -0.9736 -0.0761
  834MOL0     H12550   4.676   2.076   6.308  0.0076 -0.5465  0.9648
  834MOL0     H12551   4.329   2.073   6.381  0.4120  0.0692  2.6572
  834MOL0     H12552   4.410   1.939   6.291 -1.9866 -1.5053  2.4309
  834MOL0     H12553   4.500   2.021   6.412 -0.4918  1.4515 -0.4453
  834MOL0     H12554   4.040   2.128   5.911 -1.5016  1.2324 -1.7701
  834MOL0     H12555   3.811   2.153   5.877  0.5563 -1.4365  2.3170
  834MOL0     H12556   3.632   2.363   5.774  0.2091  0.1876  0.4675
  834MOL0     H12557   3.597   2.206   5.852 -0.4004 -0.2244  3.4247
  834MOL0     H12558   3.453   2.461   5.865  2.1019 -0.4776  0.8700
  834MOL0     H12559   3.415   2.312   5.772  4.2241 -0.5624 -3.0830
  834MOL0     H12560   3.449   2.277   6.087  0.6219  1.1813 -0.7260
  834MOL0     H12561   3.334   2.203   5.989  3.7640 -2.2215 -0.1513
  834MOL0     H12562   3.338   2.508   6.064  0.2086  1.6200 -1.4640
  834MOL0     H12563   3.227   2.441   5.955  1.1867 -0.5148 -0.3132
  834MOL0     H12564   3.270   2.337   6.246  1.8455  0.9760 -2.0566
  834MOL0     H12565   3.156   2.265   6.127  1.1978 -1.5827  2.4256
  834MOL0     H12566   3.024   2.483   6.123  0.8356  2.4274  0.8627
  834MOL0     H12567   3.024   2.384   6.263  1.6341 -2.0609  0.9323
  834MOL0     H12568   3.199   2.643   6.222 -1.3413  3.2735  1.0975
  834MOL0     H12569   3.186   2.550   6.380 -1.6342  1.4379  0.8438
  834MOL0     H12570   2.940   2.654   6.235  0.2824 -0.9062 -0.4767
  834MOL0     H12571   3.020   2.744   6.366  2.0930 -1.7432  2.4826
  834MOL0     H12572   3.795   2.520   6.090  0.1299  1.0037 -1.2669
  834MOL0     H12573   4.045   2.498   6.143  0.4935  1.1908 -0.8976
  834MOL0     H12574   4.430   2.379   6.009 -3.9257 -3.6580 -0.4860
  834MOL0     H12575   4.674   2.400   6.032 -2.6123  0.5381 -1.5632
  834MOL0     H12576   6.246   3.184   6.149 -0.8714  2.3552  0.8503
  834MOL0     H12577   6.489   3.261   6.128 -0.6015 -3.0748 -0.3811
  834MOL0     H12578   6.758   3.575   5.868  1.3481  1.0495  0.0715
  834MOL0     H12579   6.989   3.672   5.864  1.0881  0.8416  1.7743
  834MOL0     H12580   7.321   3.449   6.073 -2.2893 -2.3710  0.6626
  834MOL0     H12581   7.318   3.419   5.894 -2.9484  0.5403  1.0663
  834MOL0     H12582   7.456   3.652   6.041  0.1199  0.7240 -0.7660
  834MOL0     H12583   7.445   3.639   5.868 -1.6523  0.4120  0.0538
  834MOL0     H12584   7.588   3.437   5.863 -0.8320 -0.4576 -0.3340
  834MOL0     H12585   7.576   3.419   6.039 -2.1718 -0.1019 -0.0779
  834MOL0     H12586   7.690   3.653   6.055 -0.8978  0.2382  0.9619
  834MOL0     H12587   7.703   3.640   5.879 -3.4835  0.1391  0.8353
  834MOL0     H12588   8.019   3.429   6.067  0.8433  1.7793 -0.8241
  834MOL0     H12589   7.137   3.321   6.047 -2.1464 -3.1259 -1.1161
  834MOL0     H12590   6.903   3.217   6.035  2.8756 -1.7943 -1.7314
  835MOL0     O12591   1.115   1.843   8.162 -0.1356  0.5466 -0.0005
  835MOL0     C12592   1.121   1.714   8.162  0.9065 -0.8730 -0.2123
  835MOL0     O12593   1.023   1.629   8.115  0.3212 -0.0859  0.1626
  835MOL0     C12594   0.914   1.687   8.055 -0.0535 -0.5928 -0.0373
  835MOL0     C12595   0.909   1.746   7.926  0.1475  0.3158 -0.3667
  835MOL0     C12596   0.789   1.784   7.873  0.0486  0.0911  0.1588
  835MOL0     C12597   0.666   1.783   7.947 -0.1823  0.2079  0.4916
  835MOL0     O12598   0.549   1.831   7.895 -0.3967 -0.1160  0.5077
  835MOL0     C12599   0.447   1.871   7.987  0.0597  0.0025 -0.3378
  835MOL0     C12600   0.332   1.919   7.902  0.0291 -0.0961  0.5761
  835MOL0     C12601   0.197   1.931   7.968 -0.1950 -0.2814  0.0779
  835MOL0     C12602   0.083   1.984   7.873  0.4283 -0.1830  0.0834
  835MOL0     C12603  -0.032   2.021   7.963 -0.5947 -0.7022  0.1991
  835MOL0     C12604  -0.144   2.094   7.894  1.5576 -0.4682 -0.1246
  835MOL0     C12605  -0.273   2.071   7.978  0.3418  0.1068  0.2322
  835MOL0     C12606  -0.390   2.160   7.934  0.4790 -0.0625  0.2516
  835MOL0     N12607  -0.514   2.127   8.001  0.0430 -0.1510  0.2627
  835MOL0     C12608  -0.558   2.183   8.119  0.2782  0.1410 -0.6854
  835MOL0     C12609  -0.681   2.125   8.145 -0.0849 -0.2869  0.1615
  835MOL0     C12610  -0.778   2.153   8.264 -0.0941  0.3801 -0.5563
  835MOL0     C12611  -0.762   2.290   8.343 -0.6782  0.2613  0.0103
  835MOL0     C12612  -0.823   2.302   8.486 -0.2529  0.1423  0.1500
  835MOL0     C12613  -0.970   2.285   8.481  1.0778 -0.2364 -0.6557
  835MOL0     O12614  -1.034   2.362   8.587 -0.5032 -0.3311 -0.1141
  835MOL0     C12615  -1.174   2.355   8.579 -0.4349 -0.2416  0.0260
  835MOL0     C12616  -1.235   2.443   8.666 -0.8459  0.9397  0.4704
  835MOL0     C12617  -1.370   2.452   8.680  1.6541 -0.2418 -0.1665
  835MOL0     C12618  -1.421   2.534   8.797 -0.4257 -0.7062 -0.0118
  835MOL0     C12619  -1.452   2.385   8.590 -0.0864  0.9224  0.6002
  835MOL0     C12620  -1.605   2.392   8.581  0.4098 -0.6771  0.5241
  835MOL0     O12621  -1.677   2.289   8.519  0.1074  0.0931 -1.2973
  835MOL0     C12622  -1.815   2.298   8.523 -0.6777 -0.8502 -0.3235
  835MOL0     C12623  -1.889   2.191   8.566  0.5261 -0.6519 -0.2621
  835MOL0     C12624  -2.026   2.191   8.563  0.4248 -0.0053 -0.1200
  835MOL0     C12625  -2.095   2.304   8.512 -0.0508  0.4279 -0.2887
  835MOL0     O12626  -2.226   2.311   8.492  0.6620 -0.4210  0.0838
  835MOL0     C12627  -2.305   2.194   8.457 -0.2410  0.4043 -0.4117
  835MOL0     C12628  -2.425   2.203   8.552 -0.1588 -0.2408 -0.3901
  835MOL0     C12629  -2.504   2.071   8.571  0.1662  0.4626  0.5615
  835MOL0     C12630  -2.651   2.097   8.602  0.0989 -0.3983 -0.0385
  835MOL0     C12631  -2.724   1.968   8.631  0.0388 -0.6451 -0.2895
  835MOL0     C12632  -2.874   1.997   8.668 -0.7747 -0.1209  0.0462
  835MOL0     C12633  -2.953   1.877   8.698 -0.0604  0.4486  0.0225
  835MOL0     C12634  -3.081   1.910   8.768 -0.1383 -0.6785  0.0858
  835MOL0    Cl12635  -3.050   1.978   8.928  0.2225 -0.2379 -0.0132
  835MOL0     C12636  -2.015   2.417   8.479  0.7229 -0.9884 -0.9760
  835MOL0     C12637  -1.875   2.413   8.479 -0.3005 -0.9618 -0.6701
  835MOL0     O12638  -1.651   2.498   8.615 -0.6058 -0.4495  0.4334
  835MOL0     C12639  -1.390   2.296   8.496  0.5387  0.1704 -0.3472
  835MOL0     C12640  -1.252   2.279   8.492  0.3047  0.4053  0.3883
  835MOL0     N12641  -0.698   2.039   8.032  0.3013 -0.5028 -0.0204
  835MOL0     N12642  -0.602   2.039   7.952 -0.5216  0.0273  1.0594
  835MOL0     C12643   0.674   1.729   8.074  0.5866  0.5191  0.0212
  835MOL0     C12644   0.796   1.683   8.124  0.2340  0.4764  0.3955
  835MOL0     C12645   1.235   1.654   8.228  0.3571  0.5118  0.0418
  835MOL0     C12646   1.244   1.514   8.248  0.2239  0.0047  0.3350
  835MOL0     C12647   1.361   1.454   8.295 -0.8215 -0.7685 -1.2488
  835MOL0     C12648   1.478   1.527   8.318  0.5873 -0.8671 -0.3684
  835MOL0     O12649   1.590   1.451   8.339 -0.4124  0.2429  0.1106
  835MOL0     C12650   1.720   1.510   8.316 -0.4605  0.5312 -0.0854
  835MOL0     C12651   1.823   1.399   8.341  0.1060 -0.0376  0.4221
  835MOL0     C12652   1.787   1.261   8.274  1.0850 -0.3168  0.8297
  835MOL0     C12653   1.900   1.161   8.269 -0.5657 -0.1051 -1.2032
  835MOL0     C12654   1.905   1.099   8.401 -0.5143  0.1327  0.2752
  835MOL0     C12655   1.924   1.039   8.504 -0.4273 -0.4490  0.4763
  835MOL0     C12656   1.463   1.669   8.307 -0.5635  0.2972  0.3576
  835MOL0     C12657   1.348   1.731   8.265  0.2628  0.1576  1.3576
  835MOL0     H12658   1.003   1.745   7.872 -0.9979  0.5111 -2.4817
  835MOL0     H12659   0.784   1.826   7.773  1.4066  0.8290  0.3822
  835MOL0     H12660   0.405   1.791   8.049 -1.1815  0.7488 -0.1732
  835MOL0     H12661   0.493   1.944   8.055  0.7332  0.7943 -1.6188
  835MOL0     H12662   0.357   2.014   7.854 -0.8918 -0.5444 -0.8629
  835MOL0     H12663   0.324   1.851   7.817  1.0071 -0.2290  0.5790
  835MOL0     H12664   0.159   1.832   7.995 -2.7714  0.8498  0.9416
  835MOL0     H12665   0.218   2.007   8.045  1.4133  1.2068 -1.7306
  835MOL0     H12666   0.112   2.071   7.812  0.3263 -0.2836 -0.1074
  835MOL0     H12667   0.057   1.908   7.799 -3.6895  0.6322  0.4742
  835MOL0     H12668  -0.062   1.923   8.003 -3.1219 -1.0894 -2.3635
  835MOL0     H12669   0.007   2.090   8.039  2.2207 -1.2163 -0.6567
  835MOL0     H12670  -0.123   2.201   7.882 -0.4053 -0.1505 -1.1513
  835MOL0     H12671  -0.165   2.049   7.796 -0.8586  0.9548 -0.3389
  835MOL0     H12672  -0.287   1.962   7.973  0.5133  0.1099 -0.3472
  835MOL0     H12673  -0.259   2.100   8.083  0.3545  2.6055 -0.4117
  835MOL0     H12674  -0.405   2.153   7.826  1.5280  0.3702  0.0648
  835MOL0     H12675  -0.370   2.266   7.957 -0.1642  0.1417 -0.1255
  835MOL0     H12676  -0.514   2.257   8.184  0.8040 -0.4784 -0.3206
  835MOL0     H12677  -0.882   2.134   8.235  0.4864 -3.1263 -0.7940
  835MOL0     H12678  -0.759   2.074   8.337  0.1284  1.2144  0.3149
  835MOL0     H12679  -0.808   2.363   8.277  1.1625  0.6025 -0.9371
  835MOL0     H12680  -0.655   2.313   8.347 -0.9025  1.6355 -1.2816
  835MOL0     H12681  -0.802   2.404   8.519 -2.8825  0.5921  0.6632
  835MOL0     H12682  -0.783   2.228   8.556 -0.7579  1.1295  1.5317
  835MOL0     H12683  -0.995   2.180   8.498  0.5280 -0.1195 -0.7330
  835MOL0     H12684  -1.014   2.324   8.389 -1.6585 -0.2854  0.5225
  835MOL0     H12685  -1.162   2.481   8.737  0.1776 -0.9339  0.4714
  835MOL0     H12686  -1.469   2.619   8.747  2.5777 -0.8150 -3.4763
  835MOL0     H12687  -1.499   2.489   8.860 -0.0630  0.4790  1.3242
  835MOL0     H12688  -1.340   2.569   8.861 -1.0393 -2.5368  1.9215
  835MOL0     H12689  -1.833   2.108   8.608 -2.3686 -1.7648  1.7365
  835MOL0     H12690  -2.079   2.103   8.596 -0.3327  0.4894  0.0094
  835MOL0     H12691  -2.336   2.198   8.352 -0.1787  0.8739 -0.4156
  835MOL0     H12692  -2.253   2.100   8.473  0.3351  0.6429 -0.8594
  835MOL0     H12693  -2.391   2.225   8.654 -1.5809 -1.5817  0.4222
  835MOL0     H12694  -2.489   2.288   8.526 -1.2346 -0.1397  2.2979
  835MOL0     H12695  -2.455   2.001   8.639 -2.3817  0.1158  2.1911
  835MOL0     H12696  -2.504   2.011   8.480  1.2160 -2.0617  2.1077
  835MOL0     H12697  -2.656   2.161   8.690 -1.3025  0.3548 -0.6411
  835MOL0     H12698  -2.707   2.154   8.528 -0.9242  0.9462  1.6963
  835MOL0     H12699  -2.674   1.919   8.716  2.7124  1.5258 -0.4630
  835MOL0     H12700  -2.724   1.896   8.549 -1.4596 -2.8395  1.5097
  835MOL0     H12701  -2.879   2.074   8.746 -1.3036  0.6709 -0.7525
  835MOL0     H12702  -2.919   2.049   8.584  1.9440  1.2891 -0.6763
  835MOL0     H12703  -2.899   1.808   8.764  2.2149  0.6712 -1.4868
  835MOL0     H12704  -2.981   1.826   8.605 -0.2182 -0.0311  0.3279
  835MOL0     H12705  -3.144   1.820   8.768 -2.4788  0.8343 -1.9057
  835MOL0     H12706  -3.136   1.988   8.715  0.7375  0.4471  0.7880
  835MOL0     H12707  -2.069   2.504   8.444  1.2713  0.8801  2.3355
  835MOL0     H12708  -1.819   2.503   8.454 -2.5408  0.5615 -0.5044
  835MOL0     H12709  -1.445   2.234   8.427 -1.8935  3.0441 -1.1691
  835MOL0     H12710  -1.218   2.208   8.417 -2.0320  0.6813 -1.0523
  835MOL0     H12711   0.580   1.713   8.126  1.5106  2.5712  2.5820
  835MOL0     H12712   0.803   1.624   8.215 -2.0665 -0.9993 -0.3018
  835MOL0     H12713   1.146   1.470   8.255  0.6020 -0.8498  0.3929
  835MOL0     H12714   1.366   1.349   8.323 -0.3710  0.4727  4.4589
  835MOL0     H12715   1.724   1.542   8.212 -0.5053 -1.0494 -0.5923
  835MOL0     H12716   1.738   1.602   8.373 -3.1329  1.4281 -0.5352
  835MOL0     H12717   1.866   1.387   8.441 -0.0196 -0.0464  0.4749
  835MOL0     H12718   1.905   1.436   8.279 -0.9503  1.4461 -0.1395
  835MOL0     H12719   1.753   1.273   8.171 -1.6337  0.3502  1.7083
  835MOL0     H12720   1.699   1.220   8.325 -1.1100  1.3164 -1.3752
  835MOL0     H12721   1.994   1.209   8.239 -0.9754  0.7489 -1.1472
  835MOL0     H12722   1.887   1.083   8.193  2.2924  2.2303 -4.3764
  835MOL0     H12723   1.945   0.985   8.595  1.3882  0.2579  0.5227
  835MOL0     H12724   1.547   1.734   8.330 -2.0326  2.3717  0.0813
  835MOL0     H12725   1.355   1.838   8.245  0.4304 -0.1043 -0.0904
  836MOL0     O12726   8.821  10.202   0.428 -0.0614 -0.0790 -0.5481
  836MOL0     C12727   8.897  10.294   0.395 -0.8852 -0.3602  0.0126
  836MOL0     O12728   8.857  10.401   0.311  0.3607 -0.4270 -0.8619
  836MOL0     C12729   8.725  10.408   0.282  0.1642 -0.4302 -0.0864
  836MOL0     C12730   8.688  10.357   0.164 -0.0120  0.6410  0.0984
  836MOL0     C12731   8.554  10.375   0.125 -0.1215  0.0445  0.5214
  836MOL0     C12732   8.459  10.443   0.202 -0.8406  0.2857 -0.9440
  836MOL0     O12733   8.336  10.463   0.156 -0.2921 -0.0213  0.2411
  836MOL0     C12734   8.227  10.483   0.251 -0.5375 -0.0967  0.2044
  836MOL0     C12735   8.105  10.496   0.166  0.2639 -0.4747  0.8193
  836MOL0     C12736   7.993  10.459   0.257 -0.3749  0.3184 -0.7338
  836MOL0     C12737   7.855  10.481   0.194 -0.1402 -0.1668 -0.3573
  836MOL0     C12738   7.740  10.433   0.296 -0.1312 -0.4646  0.1421
  836MOL0     C12739   7.605  10.417   0.223  0.3851 -0.1778  1.1557
  836MOL0     C12740   7.498  10.347   0.319 -0.1180 -0.0435  1.1100
  836MOL0     C12741   7.460  10.444   0.425  0.1913 -0.4270  0.1361
  836MOL0     N12742   7.347  10.387   0.511  0.5569 -0.5503  0.3865
  836MOL0     C12743   7.214  10.435   0.514 -0.6305  0.0071 -0.4854
  836MOL0     C12744   7.156  10.349   0.595  0.0074  0.2169  0.2865
  836MOL0     C12745   7.012  10.347   0.650  0.3715  0.3565 -0.0590
  836MOL0     C12746   6.946  10.483   0.633 -0.1445  0.3063 -0.2431
  836MOL0     C12747   6.799  10.484   0.683 -0.3705  0.0478 -1.2350
  836MOL0     C12748   6.799  10.494   0.832 -0.1122 -0.0309 -0.3100
  836MOL0     O12749   6.668  10.528   0.871  0.2207 -0.2926  0.0859
  836MOL0     C12750   6.633  10.572   1.001 -0.7355  0.0699 -0.2616
  836MOL0     C12751   6.502  10.598   1.018  0.3141  0.3262 -0.1818
  836MOL0     C12752   6.449  10.626   1.145  0.0338 -0.5217  0.6148
  836MOL0     C12753   6.302  10.624   1.156 -0.2408 -0.0931 -0.5182
  836MOL0     C12754   6.538  10.649   1.257 -0.5558 -0.2938 -0.6931
  836MOL0     C12755   6.487  10.705   1.391 -0.2190  0.2988 -0.6099
  836MOL0     O12756   6.577  10.789   1.447 -0.0335 -0.3594 -0.0618
  836MOL0     C12757   6.560  10.840   1.573 -1.1610 -0.0280 -0.3413
  836MOL0     C12758   6.600  10.972   1.597 -0.4035  0.6180  0.2183
  836MOL0     C12759   6.575  11.019   1.729  0.5551 -0.4470  0.8661
  836MOL0     C12760   6.540  10.937   1.836 -0.0005  0.0706 -0.0822
  836MOL0     O12761   6.532  10.989   1.964 -0.5925  0.5430 -1.0583
  836MOL0     C12762   6.421  11.077   1.982  0.0033  0.0895 -0.5250
  836MOL0     C12763   6.396  11.110   2.128 -0.7419  0.0595 -0.7626
  836MOL0     C12764   6.502  11.201   2.193  0.4508 -0.7596  0.8181
  836MOL0     C12765   6.496  11.215   2.343  0.2181 -0.1562 -0.5012
  836MOL0     C12766   6.602  11.315   2.387 -0.3110 -0.2774 -1.0631
  836MOL0     C12767   6.599  11.352   2.542  0.0463 -0.5136  1.0091
  836MOL0     C12768   6.667  11.240   2.626  0.2117  0.9926 -0.5959
  836MOL0     C12769   6.817  11.261   2.637 -0.5464  0.4150  0.1409
  836MOL0    Cl12770   6.849  11.398   2.750  0.3485  0.0898 -0.5000
  836MOL0     C12771   6.514  10.802   1.814 -0.5862 -0.8830 -0.1619
  836MOL0     C12772   6.516  10.757   1.678 -0.5646  0.3755 -0.1685
  836MOL0     O12773   6.381  10.670   1.446 -0.3021  0.3341 -0.1944
  836MOL0     C12774   6.677  10.629   1.230  1.0768  0.3840  0.0583
  836MOL0     C12775   6.723  10.585   1.106  0.2359 -0.4282 -0.7950
  836MOL0     N12776   7.240  10.245   0.637 -0.0227  0.0292 -0.1769
  836MOL0     N12777   7.357  10.277   0.591  0.5244 -0.1968 -0.6756
  836MOL0     C12778   8.506  10.501   0.322 -0.2359  0.6974 -0.4844
  836MOL0     C12779   8.638  10.480   0.361 -0.4105 -0.0917 -0.4968
  836MOL0     C12780   9.034  10.276   0.436  1.1639 -1.7264  0.5661
  836MOL0     C12781   9.078  10.156   0.499  0.8239  0.4034 -0.5670
  836MOL0     C12782   9.207  10.136   0.543 -0.3736 -0.0699  0.1040
  836MOL0     C12783   9.307  10.234   0.510  0.3691  0.7650 -0.0633
  836MOL0     O12784   9.436  10.213   0.556 -0.1093  0.6020  0.3306
  836MOL0     C12785   9.496  10.321   0.630 -0.4796  0.5549 -0.3989
  836MOL0     C12786   9.626  10.282   0.706 -0.5874 -0.3140  0.1395
  836MOL0     C12787   9.680  10.405   0.778 -0.0886  0.8605 -0.3244
  836MOL0     C12788   9.803  10.369   0.860 -0.1483  0.5521  0.2587
  836MOL0     C12789   9.921  10.368   0.779 -0.2305  0.0453 -0.1447
  836MOL0     C12790  10.013  10.374   0.700  0.2141  0.8897 -0.1581
  836MOL0     C12791   9.267  10.352   0.448  0.5997 -0.6283 -0.5401
  836MOL0     C12792   9.131  10.371   0.410 -0.9128  0.8290 -0.2937
  836MOL0     H12793   8.758  10.310   0.096 -1.0567 -1.2937  0.3019
  836MOL0     H12794   8.516  10.330   0.034 -1.5031 -1.7535  1.9201
  836MOL0     H12795   8.224  10.398   0.321  0.2872 -1.6884 -1.5910
  836MOL0     H12796   8.238  10.573   0.312  0.5634 -0.9746  1.3456
  836MOL0     H12797   8.093  10.593   0.116 -0.8437 -0.7688  0.4761
  836MOL0     H12798   8.114  10.431   0.079 -0.3058  5.4651 -4.4338
  836MOL0     H12799   8.000  10.353   0.281 -0.8795  0.3130 -0.5977
  836MOL0     H12800   8.001  10.519   0.348  3.9686 -1.2659  0.1748
  836MOL0     H12801   7.855  10.589   0.176  0.2382 -0.0936  0.0614
  836MOL0     H12802   7.847  10.423   0.102  1.2774 -2.7818  1.0823
  836MOL0     H12803   7.763  10.331   0.329 -0.1102 -0.5021  0.0134
  836MOL0     H12804   7.738  10.500   0.382  1.1041  1.1626 -1.0280
  836MOL0     H12805   7.563  10.509   0.183 -0.6942 -0.6078  1.2397
  836MOL0     H12806   7.616  10.350   0.137 -1.0349  3.3419 -2.0219
  836MOL0     H12807   7.409  10.319   0.261 -0.7754 -1.5877  2.7345
  836MOL0     H12808   7.543  10.258   0.364  2.4373 -0.2244 -1.5393
  836MOL0     H12809   7.413  10.535   0.387 -0.7070 -0.3261  1.4009
  836MOL0     H12810   7.548  10.472   0.484 -0.0559  3.5020 -1.0597
  836MOL0     H12811   7.175  10.524   0.465  4.1726  2.4402 -0.4999
  836MOL0     H12812   6.953  10.271   0.597 -1.0964  1.5984 -0.2891
  836MOL0     H12813   7.032  10.315   0.752  2.7770  0.5550 -0.4284
  836MOL0     H12814   6.947  10.513   0.528 -0.2921  1.6664  0.1183
  836MOL0     H12815   7.010  10.560   0.678  1.2221 -0.7051 -0.3862
  836MOL0     H12816   6.740  10.395   0.659 -1.1332  0.4145 -0.7211
  836MOL0     H12817   6.747  10.571   0.643 -2.5019 -0.2227  0.7572
  836MOL0     H12818   6.859  10.582   0.856 -2.2389  3.1967 -5.2173
  836MOL0     H12819   6.846  10.405   0.875  0.6996  0.4588 -0.1475
  836MOL0     H12820   6.447  10.583   0.925 -2.2683 -2.4029  1.6134
  836MOL0     H12821   6.261  10.543   1.218 -0.1325  0.2255 -0.0206
  836MOL0     H12822   6.263  10.712   1.208 -3.5968 -0.4009 -2.2869
  836MOL0     H12823   6.255  10.603   1.060 -1.1384 -0.9050  0.0818
  836MOL0     H12824   6.652  11.019   1.515  1.4576  1.5931  1.8448
  836MOL0     H12825   6.589  11.126   1.743 -0.4671 -0.4306  1.8173
  836MOL0     H12826   6.432  11.172   1.929  3.9301  1.2836  1.9933
  836MOL0     H12827   6.331  11.026   1.946 -2.5774  1.3484  3.4576
  836MOL0     H12828   6.299  11.159   2.143 -0.1385  0.4469  2.4911
  836MOL0     H12829   6.394  11.015   2.182 -1.1200 -0.6548 -1.9960
  836MOL0     H12830   6.500  11.299   2.145 -0.7487 -1.6662 -1.0807
  836MOL0     H12831   6.601  11.159   2.178 -0.4087 -2.6075  0.0309
  836MOL0     H12832   6.392  11.245   2.350 -0.4338 -2.0678 -1.2390
  836MOL0     H12833   6.499  11.121   2.399 -2.2766 -0.1899 -0.3123
  836MOL0     H12834   6.595  11.408   2.328  0.1092  0.0598 -0.5904
  836MOL0     H12835   6.696  11.266   2.362  0.9227  2.3767 -2.1139
  836MOL0     H12836   6.642  11.448   2.572  2.4248 -1.5579  1.1775
  836MOL0     H12837   6.494  11.355   2.573 -0.4484 -2.5205 -0.2878
  836MOL0     H12838   6.643  11.144   2.578 -1.6514  0.4477  1.2593
  836MOL0     H12839   6.625  11.246   2.726 -2.3474  3.4539 -1.6869
  836MOL0     H12840   6.861  11.287   2.541 -1.0671 -1.1691 -0.5566
  836MOL0     H12841   6.861  11.167   2.672 -0.9409  0.2015  0.0754
  836MOL0     H12842   6.480  10.740   1.897  0.7799 -2.8678 -1.0077
  836MOL0     H12843   6.473  10.659   1.661 -0.6172  0.0682  1.5631
  836MOL0     H12844   6.753  10.637   1.308 -1.6273  2.6221  2.7145
  836MOL0     H12845   6.830  10.567   1.095  0.6939  1.6120 -0.0738
  836MOL0     H12846   8.429  10.549   0.382 -1.4740 -2.9903  1.2130
  836MOL0     H12847   8.698  10.512   0.445  2.3355 -2.3892 -1.4458
  836MOL0     H12848   9.011  10.078   0.535  0.0569  0.7889 -1.1151
  836MOL0     H12849   9.240  10.053   0.605  0.6682  2.3807  3.0547
  836MOL0     H12850   9.518  10.406   0.565 -0.4718  0.2916 -0.7488
  836MOL0     H12851   9.428  10.364   0.703  1.3260 -0.8347  2.2966
  836MOL0     H12852   9.697  10.231   0.641  2.4079  1.0629  2.0995
  836MOL0     H12853   9.605  10.212   0.788  1.3229 -0.9855  0.0969
  836MOL0     H12854   9.595  10.431   0.842 -1.2925 -1.8151 -0.6999
  836MOL0     H12855   9.709  10.487   0.712  1.2445  1.4490  0.9188
  836MOL0     H12856   9.789  10.271   0.907 -2.9097 -1.0583 -3.4380
  836MOL0     H12857   9.817  10.446   0.937  0.6640  2.9711 -2.1492
  836MOL0     H12858  10.097  10.375   0.633  0.1774 -0.0677 -0.2405
  836MOL0     H12859   9.343  10.425   0.421 -0.8314  0.0455 -3.1954
  836MOL0     H12860   9.114  10.461   0.351 -0.2314  1.6409  0.7199
  837MOL0     O12861   7.843   9.684   4.662  0.1273 -0.6854  0.1864
  837MOL0     C12862   7.839   9.748   4.557  0.0368  0.3168  0.8086
  837MOL0     O12863   7.765   9.858   4.533 -0.0990  0.3567 -0.3726
  837MOL0     C12864   7.663   9.900   4.623 -0.6970 -0.4222 -0.1552
  837MOL0     C12865   7.685   9.955   4.747  0.0063 -0.5993 -0.2492
  837MOL0     C12866   7.578   9.971   4.842  0.0372  0.2044  0.1420
  837MOL0     C12867   7.449   9.953   4.801 -0.3762  0.4072 -0.4053
  837MOL0     O12868   7.334   9.983   4.870  1.5035  0.0630 -0.3943
  837MOL0     C12869   7.345   9.989   5.014  0.8525 -0.2341 -2.2787
  837MOL0     C12870   7.219   9.943   5.083 -0.6831 -0.1348  0.2741
  837MOL0     C12871   7.093  10.030   5.043 -0.3199 -0.6024  0.0360
  837MOL0     C12872   6.969   9.982   5.120 -0.0949  0.1177 -0.0285
  837MOL0     C12873   6.837  10.055   5.073 -0.7583  0.2316 -0.8223
  837MOL0     C12874   6.719  10.045   5.186 -0.3649  0.3628  0.2336
  837MOL0     C12875   6.603  10.137   5.142 -0.4210  0.0769  0.4118
  837MOL0     C12876   6.626  10.279   5.183  1.2564 -0.7815 -0.2636
  837MOL0     N12877   6.504  10.354   5.150 -0.0216 -0.9356 -0.2438
  837MOL0     C12878   6.468  10.387   5.019  0.6122  0.4550 -0.5981
  837MOL0     C12879   6.351  10.447   5.038  0.3904 -0.4929 -0.8840
  837MOL0     C12880   6.258  10.507   4.939  0.1539 -0.1373  1.0999
  837MOL0     C12881   6.178  10.391   4.878  1.0546 -0.1807 -0.4563
  837MOL0     C12882   6.072  10.341   4.969 -0.4593  0.8530 -0.3954
  837MOL0     C12883   5.994  10.227   4.900  0.1726  0.3603 -0.2239
  837MOL0     O12884   5.933  10.281   4.782 -0.4147  0.3347  0.8176
  837MOL0     C12885   5.803  10.338   4.787  0.0160  0.7737  0.6920
  837MOL0     C12886   5.741  10.382   4.666 -0.0906  0.6309  0.5386
  837MOL0     C12887   5.608  10.436   4.660  0.1782  0.3601 -0.4862
  837MOL0     C12888   5.554  10.474   4.530  0.7457 -0.1061  0.1772
  837MOL0     C12889   5.530  10.437   4.777 -0.3005 -0.0780  0.2966
  837MOL0     C12890   5.398  10.500   4.783  0.1344 -0.3169 -0.0918
  837MOL0     O12891   5.367  10.597   4.693  0.4645 -0.0546 -0.1853
  837MOL0     C12892   5.247  10.661   4.711  0.5886  0.6888  1.0916
  837MOL0     C12893   5.214  10.733   4.829 -0.5690 -0.7039 -0.2789
  837MOL0     C12894   5.083  10.788   4.840 -1.1500 -0.5293 -0.7653
  837MOL0     C12895   4.989  10.780   4.742  0.3071  0.9944  0.8173
  837MOL0     O12896   4.861  10.839   4.743  0.1252 -0.5798  0.7683
  837MOL0     C12897   4.814  10.849   4.881 -0.3031  0.1697  0.4724
  837MOL0     C12898   4.665  10.884   4.897 -0.9667  0.4338 -0.6354
  837MOL0     C12899   4.603  10.954   4.775 -0.4971 -0.1500  0.0683
  837MOL0     C12900   4.463  10.978   4.819  0.0440 -1.0245  0.0999
  837MOL0     C12901   4.377  11.034   4.701 -0.2817 -0.1088 -0.0874
  837MOL0     C12902   4.249  11.088   4.756  0.0166 -0.6702  0.7185
  837MOL0     C12903   4.277  11.217   4.839 -0.5093 -0.0302  0.0091
  837MOL0     C12904   4.151  11.305   4.837 -0.6151 -0.1017  0.4899
  837MOL0    Cl12905   4.016  11.207   4.904  0.1388 -0.4033  0.4157
  837MOL0     C12906   5.021  10.705   4.626  0.2023  0.7102 -0.8668
  837MOL0     C12907   5.150  10.654   4.614  0.0883  0.4622  0.0688
  837MOL0     O12908   5.320  10.465   4.872 -0.2985  0.0500  0.7836
  837MOL0     C12909   5.586  10.394   4.898 -0.2322  0.0135  1.2898
  837MOL0     C12910   5.721  10.355   4.902 -0.8842 -0.2043 -0.1021
  837MOL0     N12911   6.313  10.444   5.172 -0.1228 -0.3800 -1.4146
  837MOL0     N12912   6.409  10.398   5.236 -0.0190  0.3568  0.2148
  837MOL0     C12913   7.429   9.909   4.669 -0.4274  0.1488 -0.1817
  837MOL0     C12914   7.535   9.874   4.586  0.3949 -0.5791 -1.1541
  837MOL0     C12915   7.930   9.689   4.459 -0.1146  0.3214  0.4746
  837MOL0     C12916   8.043   9.609   4.488 -0.6518  0.3047  0.6750
  837MOL0     C12917   8.134   9.559   4.391  0.0199 -0.4844 -0.1424
  837MOL0     C12918   8.110   9.599   4.262  0.1627 -0.3700 -0.1455
  837MOL0     O12919   8.201   9.576   4.159 -0.0292 -0.2454 -0.3029
  837MOL0     C12920   8.291   9.467   4.174 -0.3199  0.7987  0.3993
  837MOL0     C12921   8.358   9.429   4.035  0.8088  0.4933 -0.6657
  837MOL0     C12922   8.450   9.528   3.972  0.7855  0.2109  0.1202
  837MOL0     C12923   8.578   9.553   4.029 -0.6171 -0.4308  0.3658
  837MOL0     C12924   8.681   9.469   3.972 -0.2989 -0.4777 -1.1948
  837MOL0     C12925   8.774   9.402   3.926  0.7441  0.0383 -0.3068
  837MOL0     C12926   8.006   9.684   4.228  0.0779 -1.0680 -0.5471
  837MOL0     C12927   7.918   9.721   4.328 -0.2096  0.0035 -0.3894
  837MOL0     H12928   7.783   9.976   4.790  0.7379 -2.0939 -1.0948
  837MOL0     H12929   7.608   9.996   4.943 -0.6603  0.6245  0.2524
  837MOL0     H12930   7.427   9.921   5.041  0.0072 -0.9212 -1.3805
  837MOL0     H12931   7.370  10.089   5.050  0.9532 -0.8609 -0.4882
  837MOL0     H12932   7.213   9.835   5.066  1.5305  0.0706 -2.6867
  837MOL0     H12933   7.228   9.961   5.190  1.4466 -0.5843  0.2074
  837MOL0     H12934   7.100  10.134   5.074  2.6903 -0.8810  0.5699
  837MOL0     H12935   7.072  10.040   4.936  2.5615  3.1160 -0.3702
  837MOL0     H12936   6.962   9.873   5.109  2.0039 -0.1068  0.3819
  837MOL0     H12937   6.979  10.006   5.226 -0.0144 -0.9979  0.2297
  837MOL0     H12938   6.864  10.160   5.057 -1.1398  0.6550  0.9994
  837MOL0     H12939   6.794  10.006   4.985 -1.0939  0.0206 -0.5464
  837MOL0     H12940   6.692   9.939   5.187  0.1587  0.1939 -0.9000
  837MOL0     H12941   6.760  10.076   5.282  1.7264  0.5674 -0.6638
  837MOL0     H12942   6.588  10.126   5.034 -1.5838 -0.3504  0.5973
  837MOL0     H12943   6.516  10.099   5.196 -1.0915  0.9933 -0.0079
  837MOL0     H12944   6.712  10.319   5.129  0.3582  2.8075  0.6855
  837MOL0     H12945   6.654  10.280   5.289 -1.7608  0.1356  0.6539
  837MOL0     H12946   6.524  10.360   4.930 -0.1992 -3.8141 -0.0447
  837MOL0     H12947   6.192  10.581   4.986 -1.4203 -1.1326  0.5276
  837MOL0     H12948   6.323  10.554   4.864 -1.4988 -1.8693 -1.5910
  837MOL0     H12949   6.247  10.311   4.852 -1.5027 -2.7910  0.1766
  837MOL0     H12950   6.118  10.425   4.793 -0.0611 -1.1574 -0.0880
  837MOL0     H12951   6.002  10.420   4.997 -2.7051 -1.5882  1.4193
  837MOL0     H12952   6.124  10.298   5.055  1.4435  1.0682 -1.3659
  837MOL0     H12953   5.922  10.190   4.974  0.6975  1.3191  0.7981
  837MOL0     H12954   6.054  10.139   4.874 -0.6957 -0.1499 -0.5561
  837MOL0     H12955   5.805  10.378   4.578 -1.3303 -0.0494 -0.3628
  837MOL0     H12956   5.447  10.454   4.521  1.2142 -1.6990 -3.6438
  837MOL0     H12957   5.582  10.578   4.510 -0.3750  0.2113  0.1953
  837MOL0     H12958   5.603  10.417   4.451 -0.7755 -2.3103  0.7165
  837MOL0     H12959   5.282  10.734   4.914  0.4664 -3.1724 -1.0102
  837MOL0     H12960   5.075  10.850   4.929  1.2287 -0.9762 -0.1573
  837MOL0     H12961   4.818  10.759   4.942 -2.0323 -0.1631  0.1381
  837MOL0     H12962   4.873  10.923   4.935  1.4939 -0.6749 -0.2297
  837MOL0     H12963   4.599  10.800   4.919  1.4001 -1.3959 -0.0917
  837MOL0     H12964   4.656  10.948   4.985 -2.5275 -1.4688  0.6525
  837MOL0     H12965   4.602  10.884   4.691  3.6337  0.4603 -0.7090
  837MOL0     H12966   4.659  11.041   4.738  2.9757 -1.5654  1.5822
  837MOL0     H12967   4.431  10.881   4.858  0.4485 -1.3216 -0.2997
  837MOL0     H12968   4.471  11.040   4.909  0.6288 -1.8422  0.6280
  837MOL0     H12969   4.352  10.959   4.626 -3.2049 -0.8215  1.4256
  837MOL0     H12970   4.433  11.115   4.653 -0.3500  0.2536  0.4250
  837MOL0     H12971   4.185  11.100   4.668  1.7027 -2.8039 -0.9035
  837MOL0     H12972   4.201  11.008   4.812 -1.2876 -1.8004 -1.8204
  837MOL0     H12973   4.352  11.285   4.797  0.9427 -0.0247  2.4275
  837MOL0     H12974   4.305  11.184   4.939 -2.0214 -1.9804 -0.1481
  837MOL0     H12975   4.114  11.354   4.746  2.0009 -0.1068 -0.6633
  837MOL0     H12976   4.174  11.388   4.905 -0.0829  0.9408 -0.9166
  837MOL0     H12977   4.944  10.702   4.550  1.1377 -4.3350 -1.9841
  837MOL0     H12978   5.173  10.591   4.529 -0.4134 -0.5258  0.6334
  837MOL0     H12979   5.536  10.419   4.991  0.3053  2.6412  0.9495
  837MOL0     H12980   5.755  10.324   5.000 -2.3341 -1.1620  0.1237
  837MOL0     H12981   7.327   9.899   4.631 -0.6456  0.5391  0.2952
  837MOL0     H12982   7.505   9.830   4.492  1.4081  1.5552 -2.5576
  837MOL0     H12983   8.050   9.589   4.594 -0.8812 -0.7868  0.4940
  837MOL0     H12984   8.222   9.498   4.409  0.3918  0.4751  1.4522
  837MOL0     H12985   8.363   9.489   4.253 -0.6160  0.3437  0.8011
  837MOL0     H12986   8.243   9.375   4.206  0.3717  0.6384  0.9959
  837MOL0     H12987   8.277   9.397   3.969  0.1712 -1.7497  1.0543
  837MOL0     H12988   8.417   9.337   4.051  1.3034  1.0113  0.6966
  837MOL0     H12989   8.387   9.618   3.977  1.6052  0.8271 -0.3509
  837MOL0     H12990   8.466   9.513   3.865 -1.1525 -0.4579 -0.1116
  837MOL0     H12991   8.578   9.541   4.137  0.5975 -0.8663  0.3323
  837MOL0     H12992   8.608   9.655   4.002 -1.2628  0.4980  2.9232
  837MOL0     H12993   8.855   9.347   3.884  0.8957 -1.8394  2.2028
  837MOL0     H12994   8.000   9.712   4.123 -0.1502  0.3375 -0.1832
  837MOL0     H12995   7.833   9.781   4.296 -0.8670 -0.0083  1.2673
  838MOL0     O12996   8.359   0.116   0.382  0.1809 -0.0916 -0.8643
  838MOL0     C12997   8.428   0.018   0.409 -0.3082  0.1471  0.1309
  838MOL0     O12998   8.393  -0.087   0.484 -0.3141  0.1588  0.2326
  838MOL0     C12999   8.264  -0.106   0.530  0.2442  0.6829  0.4083
  838MOL0     C13000   8.188  -0.005   0.600 -0.3121 -0.5253 -0.7285
  838MOL0     C13001   8.058  -0.029   0.648  0.4420  0.4068  0.2397
  838MOL0     C13002   8.007  -0.155   0.629  0.2048  0.6124  0.2714
  838MOL0     O13003   7.886  -0.180   0.682 -0.1605  0.4960  0.3390
  838MOL0     C13004   7.808  -0.302   0.660  0.4257 -0.3722 -0.4729
  838MOL0     C13005   7.691  -0.310   0.762  0.2121  0.6562  0.1260
  838MOL0     C13006   7.580  -0.408   0.723  0.3807  0.7326  0.7170
  838MOL0     C13007   7.624  -0.546   0.742  0.3055  0.3299 -0.0733
  838MOL0     C13008   7.602  -0.601   0.879 -0.2663 -0.0645 -0.6330
  838MOL0     C13009   7.611  -0.755   0.888 -0.2650 -0.0613 -0.0391
  838MOL0     C13010   7.507  -0.831   0.972 -0.9491 -0.1336 -0.2528
  838MOL0     C13011   7.375  -0.818   0.904  0.2779  0.9947  0.3961
  838MOL0     N13012   7.265  -0.876   0.983  0.1862  0.2542  0.0553
  838MOL0     C13013   7.278  -0.995   1.041  0.1942  0.1110 -1.0190
  838MOL0     C13014   7.160  -1.015   1.104 -0.7514  0.2986 -0.2692
  838MOL0     C13015   7.123  -1.132   1.195 -0.8677  1.2039 -0.2827
  838MOL0     C13016   7.242  -1.157   1.293 -0.3588 -0.8182  0.2119
  838MOL0     C13017   7.295  -1.027   1.362  0.4544 -0.0040 -0.2642
  838MOL0     C13018   7.418  -1.057   1.448 -0.1770 -0.3679  0.3322
  838MOL0     O13019   7.526  -1.063   1.353  0.0164 -0.1970 -0.1869
  838MOL0     C13020   7.602  -0.948   1.326  0.1195  0.2592 -0.2474
  838MOL0     C13021   7.564  -0.818   1.349  1.5245 -0.3397  0.1700
  838MOL0     C13022   7.639  -0.704   1.318  0.4911  0.6521 -0.2368
  838MOL0     C13023   7.576  -0.571   1.340  0.4773 -0.7045  0.3808
  838MOL0     C13024   7.766  -0.726   1.257  0.2100  0.0317  0.7513
  838MOL0     C13025   7.862  -0.620   1.207  0.1016  0.3657  0.1384
  838MOL0     O13026   7.976  -0.664   1.141  0.0377 -0.4913  0.5123
  838MOL0     C13027   8.069  -0.571   1.098 -0.2008 -0.2343  0.0592
  838MOL0     C13028   8.025  -0.462   1.011  0.1517 -0.2044 -0.6257
  838MOL0     C13029   8.136  -0.379   0.960  0.4787  0.2107 -0.1165
  838MOL0     C13030   8.270  -0.397   0.996 -0.0168 -0.1986 -0.4996
  838MOL0     O13031   8.381  -0.331   0.949  0.1549 -0.0891 -0.6902
  838MOL0     C13032   8.368  -0.234   0.847 -0.2853 -0.7970  0.2035
  838MOL0     C13033   8.490  -0.143   0.833  0.2686 -0.0644  0.1051
  838MOL0     C13034   8.612  -0.211   0.773 -0.3208  0.6138 -0.2310
  838MOL0     C13035   8.729  -0.119   0.750  0.4071  0.3455  0.0138
  838MOL0     C13036   8.851  -0.186   0.694  0.0833 -1.0879  0.0486
  838MOL0     C13037   8.962  -0.085   0.684 -0.1260  0.0613 -0.0684
  838MOL0     C13038   9.079  -0.141   0.605  0.2960  0.1413  0.0971
  838MOL0     C13039   9.193  -0.039   0.595 -0.3259  0.5024  0.6981
  838MOL0    Cl13040   9.331  -0.142   0.538 -0.2510 -0.5276  0.1183
  838MOL0     C13041   8.300  -0.499   1.092 -0.8138  0.7245  0.7176
  838MOL0     C13042   8.204  -0.589   1.141  0.2942  0.1337  0.5236
  838MOL0     O13043   7.839  -0.501   1.228  0.4444  0.4020  0.0603
  838MOL0     C13044   7.805  -0.860   1.230 -0.2037 -0.3506 -0.2322
  838MOL0     C13045   7.725  -0.969   1.266 -0.2536 -0.7601  0.6649
  838MOL0     N13046   7.082  -0.906   1.096 -0.0118 -0.1526  0.0006
  838MOL0     N13047   7.146  -0.818   1.015  0.1323 -0.3556 -0.8754
  838MOL0     C13048   8.077  -0.260   0.572  0.2440 -0.3937  0.4409
  838MOL0     C13049   8.209  -0.235   0.526 -0.5531 -0.5305  0.3547
  838MOL0     C13050   8.575   0.026   0.376 -0.2423 -0.3881 -0.1058
  838MOL0     C13051   8.668  -0.075   0.405 -0.1624  1.2631 -0.2271
  838MOL0     C13052   8.806  -0.045   0.386 -0.3165  0.5987 -1.0856
  838MOL0     C13053   8.855   0.071   0.333 -0.6653  0.4447  0.2991
  838MOL0     O13054   8.993   0.088   0.325  0.2212  0.6185  0.4062
  838MOL0     C13055   9.044   0.195   0.249 -0.3431 -0.3525 -0.3565
  838MOL0     C13056   9.201   0.191   0.251  0.2856 -0.1687  0.9459
  838MOL0     C13057   9.257   0.051   0.209  0.5605  0.0401 -0.3422
  838MOL0     C13058   9.405   0.052   0.183  1.1002  0.3301 -0.4128
  838MOL0     C13059   9.453   0.134   0.072 -0.0248 -0.3031  0.2407
  838MOL0     C13060   9.522   0.184  -0.013  0.9926  0.4319  0.7542
  838MOL0     C13061   8.759   0.167   0.302 -0.3328  0.3014  0.5571
  838MOL0     C13062   8.624   0.142   0.321  1.2362  0.7293 -0.1359
  838MOL0     H13063   8.226   0.096   0.615 -2.0641 -0.1640  1.8019
  838MOL0     H13064   8.017   0.055   0.704  0.2168  0.7558 -0.4355
  838MOL0     H13065   7.772  -0.299   0.557 -2.7776  4.1413  0.5098
  838MOL0     H13066   7.860  -0.396   0.680 -0.6694 -0.8511  0.1948
  838MOL0     H13067   7.716  -0.328   0.867 -0.9115 -0.3366  0.2424
  838MOL0     H13068   7.646  -0.211   0.772 -0.5530  0.1759  1.6586
  838MOL0     H13069   7.486  -0.393   0.776  1.6691 -1.8359  4.0267
  838MOL0     H13070   7.552  -0.397   0.617  1.7223  0.6438  0.3329
  838MOL0     H13071   7.565  -0.608   0.674 -2.4100 -0.0141  2.4058
  838MOL0     H13072   7.727  -0.551   0.706  0.7743  2.6224  0.8145
  838MOL0     H13073   7.682  -0.565   0.944  0.2308 -0.4800 -1.0080
  838MOL0     H13074   7.503  -0.569   0.914 -0.3135  0.2518 -1.0583
  838MOL0     H13075   7.606  -0.789   0.784 -3.1679  0.9225 -0.3001
  838MOL0     H13076   7.708  -0.788   0.926 -0.3232 -1.1683 -0.7857
  838MOL0     H13077   7.540  -0.935   0.985  1.8559  0.6049 -0.8615
  838MOL0     H13078   7.506  -0.785   1.071 -0.0549  0.8391 -0.6760
  838MOL0     H13079   7.384  -0.873   0.810 -3.3653  0.1698  0.3897
  838MOL0     H13080   7.348  -0.718   0.870  0.0778  0.1984 -1.9248
  838MOL0     H13081   7.363  -1.064   1.040  0.1616  0.0749 -2.1088
  838MOL0     H13082   7.027  -1.122   1.246 -1.2258 -0.5580 -0.5285
  838MOL0     H13083   7.114  -1.221   1.132  3.6312 -0.0522  0.4593
  838MOL0     H13084   7.326  -1.203   1.240  1.3106  1.5114  0.6850
  838MOL0     H13085   7.214  -1.226   1.373  1.0365 -0.1585  1.2967
  838MOL0     H13086   7.213  -0.996   1.429  1.4967  0.8541  0.6547
  838MOL0     H13087   7.317  -0.950   1.287  1.4809 -0.6236 -0.6131
  838MOL0     H13088   7.397  -1.150   1.503 -1.9734 -0.1887  0.0128
  838MOL0     H13089   7.433  -0.975   1.518 -1.4519  0.0441  0.1450
  838MOL0     H13090   7.461  -0.800   1.379  1.3986 -1.4713  0.4683
  838MOL0     H13091   7.500  -0.568   1.418  1.4127  2.5125  1.3571
  838MOL0     H13092   7.650  -0.504   1.386 -1.7868  1.9040  0.4614
  838MOL0     H13093   7.543  -0.526   1.246 -0.8267 -1.4577  0.4554
  838MOL0     H13094   7.920  -0.454   0.986 -0.6680 -2.0205  1.8675
  838MOL0     H13095   8.105  -0.303   0.888 -4.5033 -3.1100 -2.0272
  838MOL0     H13096   8.351  -0.287   0.753  2.1643  2.1021 -2.0558
  838MOL0     H13097   8.281  -0.175   0.879 -1.2237 -2.5155  0.9650
  838MOL0     H13098   8.462  -0.061   0.766  2.0758 -3.1186 -5.0099
  838MOL0     H13099   8.515  -0.100   0.930 -0.3033  0.8076 -0.1233
  838MOL0     H13100   8.586  -0.241   0.672  1.5979  0.1728 -0.6243
  838MOL0     H13101   8.648  -0.293   0.835 -0.0089 -1.7178 -3.2906
  838MOL0     H13102   8.691  -0.039   0.686  2.5775  2.3608  1.0479
  838MOL0     H13103   8.756  -0.079   0.848  0.4387  1.0643 -0.2784
  838MOL0     H13104   8.816  -0.232   0.601 -0.9710 -2.3226  1.0128
  838MOL0     H13105   8.877  -0.268   0.761 -1.3578 -1.5218  0.1318
  838MOL0     H13106   8.922   0.009   0.645 -0.0713  0.8625  1.7490
  838MOL0     H13107   8.999  -0.063   0.784  0.8523  3.1961 -1.0090
  838MOL0     H13108   9.064  -0.161   0.498 -0.9415  2.3135 -0.1957
  838MOL0     H13109   9.120  -0.235   0.645  0.5744  0.4229  0.4741
  838MOL0     H13110   9.227   0.006   0.689 -1.0397  0.2430  1.0887
  838MOL0     H13111   9.179   0.042   0.523  1.0357  0.3059  0.1844
  838MOL0     H13112   8.402  -0.513   1.128 -0.2274 -3.0410 -1.8001
  838MOL0     H13113   8.224  -0.668   1.213 -0.9894 -0.2423  0.4869
  838MOL0     H13114   7.905  -0.891   1.203  1.4782  0.1490  4.5661
  838MOL0     H13115   7.763  -1.069   1.251 -1.5811 -1.0785 -0.8290
  838MOL0     H13116   8.038  -0.361   0.568  3.0769 -1.5639 -0.1180
  838MOL0     H13117   8.255  -0.316   0.470 -0.1680 -0.4860  0.6005
  838MOL0     H13118   8.628  -0.163   0.454 -0.0043  1.3854  0.1231
  838MOL0     H13119   8.879  -0.119   0.418  1.4784  2.3163 -1.0479
  838MOL0     H13120   9.007   0.199   0.146  0.3296  2.5540 -0.5785
  838MOL0     H13121   9.010   0.286   0.299 -0.7909 -0.4193 -0.5311
  838MOL0     H13122   9.236   0.229   0.347 -1.2338 -0.0770  1.4994
  838MOL0     H13123   9.216   0.264   0.171 -2.1946  0.2393  0.7497
  838MOL0     H13124   9.196   0.024   0.123  0.4771  0.2158 -0.3383
  838MOL0     H13125   9.235  -0.030   0.279 -0.2507 -1.1563 -1.9368
  838MOL0     H13126   9.445  -0.045   0.153  2.3153  0.8644 -0.5876
  838MOL0     H13127   9.456   0.084   0.274 -1.3486  1.2771  0.7102
  838MOL0     H13128   9.588   0.212  -0.093  2.5384 -0.7613  1.5469
  838MOL0     H13129   8.772   0.268   0.264 -0.3135  0.9100  2.0891
  838MOL0     H13130   8.559   0.226   0.302 -0.0833 -0.2548 -0.1642
  839MOL0     O13131  11.172   5.276   1.331  0.3828  0.1946 -0.1876
  839MOL0     C13132  11.237   5.372   1.368 -0.1428 -0.3627 -0.3349
  839MOL0     O13133  11.195   5.499   1.376  0.0480 -0.8998 -0.4842
  839MOL0     C13134  11.063   5.529   1.358 -0.2647  0.4892  0.2508
  839MOL0     C13135  11.008   5.519   1.228  0.8185 -0.2657 -0.1140
  839MOL0     C13136  10.872   5.554   1.211 -0.5146  0.5451 -0.2870
  839MOL0     C13137  10.788   5.579   1.319 -0.5031  0.2852 -0.9095
  839MOL0     O13138  10.656   5.579   1.289 -0.1926  0.2701  0.8545
  839MOL0     C13139  10.561   5.646   1.380  0.7256 -0.3795 -0.1789
  839MOL0     C13140  10.415   5.605   1.333 -0.5472  0.0614  0.3295
  839MOL0     C13141  10.394   5.621   1.180  0.0111  0.2009  0.3246
  839MOL0     C13142  10.238   5.605   1.151  0.5489  0.2912  0.6835
  839MOL0     C13143  10.175   5.628   1.008 -0.4185  0.6540 -0.3915
  839MOL0     C13144  10.241   5.740   0.923  0.8499  0.2253  0.3894
  839MOL0     C13145  10.162   5.793   0.803  0.6677 -0.5026  0.3568
  839MOL0     C13146  10.117   5.691   0.703 -0.0040  0.5809 -0.3552
  839MOL0     N13147  10.043   5.750   0.591 -0.6601 -0.9045 -0.2068
  839MOL0     C13148   9.910   5.761   0.582  0.1719 -0.1901 -0.6407
  839MOL0     C13149   9.879   5.844   0.478 -0.8284  0.0174  0.7192
  839MOL0     C13150   9.743   5.902   0.447 -0.3522 -0.2145  0.2553
  839MOL0     C13151   9.631   5.799   0.419 -1.0513  0.2288  0.3002
  839MOL0     C13152   9.496   5.859   0.400  0.0614 -0.6361  0.8933
  839MOL0     C13153   9.384   5.756   0.387 -0.5212 -0.5219  0.4401
  839MOL0     O13154   9.264   5.831   0.367  0.0683 -0.3225 -0.1797
  839MOL0     C13155   9.155   5.771   0.320  0.0690 -0.3119  0.2962
  839MOL0     C13156   9.070   5.871   0.271  1.0397  0.1270 -0.7647
  839MOL0     C13157   8.937   5.849   0.238 -0.1929  0.3402 -0.2308
  839MOL0     C13158   8.856   5.978   0.208  0.2115  0.4187 -0.1047
  839MOL0     C13159   8.897   5.708   0.222  0.2724  0.6856  0.0654
  839MOL0     C13160   8.759   5.658   0.177 -0.3022  0.5783 -0.4442
  839MOL0     O13161   8.737   5.522   0.201 -0.2075  0.3691  0.2678
  839MOL0     C13162   8.619   5.476   0.139  0.1265  0.1759  0.0392
  839MOL0     C13163   8.621   5.448   0.003 -0.1843  1.3174 -0.2745
  839MOL0     C13164   8.522   5.381  -0.058 -0.4255  0.8670  0.5070
  839MOL0     C13165   8.403   5.354   0.007 -0.2265  0.2938 -0.4574
  839MOL0     O13166   8.293   5.304  -0.057 -0.0643 -1.0687 -0.3423
  839MOL0     C13167   8.287   5.288  -0.201 -0.1477  0.1351 -0.8906
  839MOL0     C13168   8.159   5.206  -0.238  0.4434  0.8988  0.1288
  839MOL0     C13169   8.030   5.268  -0.191 -0.1676  0.4513  0.2966
  839MOL0     C13170   7.901   5.186  -0.235 -0.5637  0.0941  1.1211
  839MOL0     C13171   7.764   5.238  -0.194 -0.1801  0.3078 -0.5675
  839MOL0     C13172   7.657   5.132  -0.229  0.1382 -0.6337 -0.4591
  839MOL0     C13173   7.525   5.167  -0.155  1.2304  0.3807 -0.1584
  839MOL0     C13174   7.506   5.062  -0.049 -0.1525 -0.3732 -0.2414
  839MOL0    Cl13175   7.467   4.909  -0.123 -0.2499 -0.5133 -0.0938
  839MOL0     C13176   8.396   5.381   0.147  0.1355  0.1731  0.0234
  839MOL0     C13177   8.499   5.452   0.213 -0.4118  0.9611  0.3910
  839MOL0     O13178   8.679   5.740   0.140  0.0363 -0.3954  0.3537
  839MOL0     C13179   8.992   5.601   0.261  0.0490 -0.5986  0.0946
  839MOL0     C13180   9.111   5.637   0.316  0.0866 -0.3865 -0.2478
  839MOL0     N13181  10.002   5.876   0.417  0.3402  0.5028  0.4254
  839MOL0     N13182  10.098   5.822   0.485 -0.2774 -0.1450 -0.2822
  839MOL0     C13183  10.844   5.583   1.445 -0.1250 -0.5024  0.1355
  839MOL0     C13184  10.982   5.564   1.464  0.6599 -0.3234  0.8830
  839MOL0     C13185  11.379   5.358   1.401  0.4805 -0.5111 -0.2715
  839MOL0     C13186  11.465   5.266   1.344 -0.5542 -0.6267  0.2836
  839MOL0     C13187  11.603   5.260   1.378 -0.7587 -0.9582  0.9176
  839MOL0     C13188  11.658   5.359   1.458 -0.2702  0.3080 -0.6005
  839MOL0     O13189  11.784   5.367   1.507 -0.5035  0.5341  0.9765
  839MOL0     C13190  11.882   5.285   1.442  0.1892 -0.1429  0.1075
  839MOL0     C13191  12.010   5.342   1.484 -0.2489  0.1579 -0.3732
  839MOL0     C13192  12.033   5.486   1.418  0.8634 -0.1514 -0.5536
  839MOL0     C13193  12.120   5.468   1.295 -0.2605 -0.5798  0.3558
  839MOL0     C13194  12.250   5.409   1.333 -0.0303  0.2080  0.2411
  839MOL0     C13195  12.357   5.353   1.352 -0.0061  0.1070  0.3608
  839MOL0     C13196  11.576   5.445   1.521  0.7613 -0.5734 -0.1813
  839MOL0     C13197  11.435   5.446   1.500  0.4031 -0.0177  0.8222
  839MOL0     H13198  11.067   5.503   1.139  0.0388  0.3237 -0.7574
  839MOL0     H13199  10.844   5.562   1.107 -1.1523  1.7175 -0.0430
  839MOL0     H13200  10.569   5.606   1.481 -1.6977  1.3081  0.7701
  839MOL0     H13201  10.575   5.754   1.377 -0.5977 -0.0803  1.9955
  839MOL0     H13202  10.386   5.502   1.354 -0.8641 -0.5539 -2.6264
  839MOL0     H13203  10.341   5.671   1.380 -2.3819  0.1731 -2.4147
  839MOL0     H13204  10.434   5.717   1.146 -1.9400  2.0814  2.9253
  839MOL0     H13205  10.448   5.542   1.127 -0.6501 -1.0635  1.4545
  839MOL0     H13206  10.207   5.506   1.188  1.5539 -0.9080 -1.4699
  839MOL0     H13207  10.192   5.680   1.216 -1.0887 -1.6945  1.9494
  839MOL0     H13208  10.174   5.530   0.958 -1.4767 -0.9220  2.4526
  839MOL0     H13209  10.073   5.660   1.031 -1.0721 -0.8736 -1.0274
  839MOL0     H13210  10.259   5.822   0.993  0.9546  0.8768 -0.3887
  839MOL0     H13211  10.336   5.718   0.873  0.1003  0.4247 -1.2102
  839MOL0     H13212  10.069   5.844   0.830  0.1490 -0.4024 -1.5027
  839MOL0     H13213  10.221   5.876   0.764  2.4939 -1.7244  0.3842
  839MOL0     H13214  10.052   5.614   0.745  0.5102  0.3365  0.0011
  839MOL0     H13215  10.204   5.634   0.669 -1.4765 -2.5173  0.7021
  839MOL0     H13216   9.839   5.726   0.656 -0.0209 -0.2069 -0.8317
  839MOL0     H13217   9.707   5.966   0.527  1.0826 -0.7506  1.3784
  839MOL0     H13218   9.760   5.973   0.366 -0.5031  1.6513  1.8055
  839MOL0     H13219   9.622   5.727   0.501  1.1859 -1.7836 -1.0768
  839MOL0     H13220   9.676   5.750   0.332 -1.0002  1.7314 -0.5415
  839MOL0     H13221   9.511   5.912   0.305  0.9923  0.3257  1.5674
  839MOL0     H13222   9.467   5.918   0.487 -1.2739 -1.8079  1.3043
  839MOL0     H13223   9.357   5.712   0.484 -2.4474  0.7062  0.5175
  839MOL0     H13224   9.405   5.693   0.301  4.3679 -0.3057  1.2050
  839MOL0     H13225   9.087   5.975   0.298  0.2141 -0.4105  2.1595
  839MOL0     H13226   8.920   6.067   0.213  0.8922 -0.0713  0.0261
  839MOL0     H13227   8.817   5.980   0.106  1.8996 -1.8018 -0.8654
  839MOL0     H13228   8.772   5.980   0.278 -1.7774 -2.1911 -2.2701
  839MOL0     H13229   8.705   5.476  -0.060  0.8091 -0.7750  0.0393
  839MOL0     H13230   8.546   5.357  -0.161  2.7042 -0.2659  1.3814
  839MOL0     H13231   8.283   5.388  -0.245  2.4191 -0.3432 -2.3933
  839MOL0     H13232   8.370   5.224  -0.232 -0.1110 -0.0216 -0.4858
  839MOL0     H13233   8.169   5.193  -0.346  0.5690  0.8349  0.1479
  839MOL0     H13234   8.176   5.108  -0.194 -3.4350  0.7725  1.8171
  839MOL0     H13235   8.020   5.368  -0.233 -1.3896  1.1624  2.1106
  839MOL0     H13236   8.032   5.266  -0.081  0.2258  1.6419  0.3256
  839MOL0     H13237   7.914   5.176  -0.343 -3.6877  1.4682  0.5065
  839MOL0     H13238   7.900   5.080  -0.208  0.8676 -0.2527 -0.0838
  839MOL0     H13239   7.733   5.339  -0.221  0.0125  0.5139 -0.0161
  839MOL0     H13240   7.786   5.248  -0.088  2.1563 -2.9793 -0.5679
  839MOL0     H13241   7.632   5.126  -0.335 -1.4059  1.0216 -0.2438
  839MOL0     H13242   7.686   5.032  -0.194  0.4042 -1.8205 -3.7696
  839MOL0     H13243   7.441   5.165  -0.225  2.0358 -2.9957 -1.2127
  839MOL0     H13244   7.526   5.267  -0.112 -0.0335 -0.0169  0.8401
  839MOL0     H13245   7.435   5.102   0.023 -0.0400 -0.5771 -0.0183
  839MOL0     H13246   7.603   5.048  -0.000 -1.0259  0.1234  1.7269
  839MOL0     H13247   8.300   5.359   0.193  0.3861 -2.6830 -0.6268
  839MOL0     H13248   8.503   5.486   0.316  1.1875 -1.3873  1.1853
  839MOL0     H13249   8.967   5.495   0.258  2.4187 -1.1807 -1.1552
  839MOL0     H13250   9.168   5.555   0.358 -0.1476 -0.2585  0.3310
  839MOL0     H13251  10.773   5.612   1.521 -1.9173  0.3811 -1.7786
  839MOL0     H13252  11.018   5.559   1.567 -0.6627  0.7826  1.4403
  839MOL0     H13253  11.421   5.200   1.270  0.8384 -1.1402 -0.1142
  839MOL0     H13254  11.655   5.180   1.327 -0.4494 -0.8836  1.1115
  839MOL0     H13255  11.875   5.181   1.472  0.9032  0.3815  2.2241
  839MOL0     H13256  11.868   5.309   1.336 -0.8675  4.8565  1.0972
  839MOL0     H13257  12.083   5.268   1.452  3.7257  2.9338  1.5236
  839MOL0     H13258  12.013   5.353   1.592 -3.0406 -1.8204  0.0312
  839MOL0     H13259  12.073   5.556   1.492  2.0212 -1.8768  0.5017
  839MOL0     H13260  11.940   5.528   1.379  0.3195 -0.1790  0.6832
  839MOL0     H13261  12.142   5.570   1.261 -2.1032  0.3351  1.7604
  839MOL0     H13262  12.071   5.408   1.218  2.3048 -2.1975 -0.1527
  839MOL0     H13263  12.456   5.312   1.361 -0.5869 -1.6764 -0.8124
  839MOL0     H13264  11.620   5.513   1.594  1.9765 -0.7789 -0.6916
  839MOL0     H13265  11.368   5.512   1.553 -1.3052 -1.4568  0.5495
  840MOL0     O13266   6.125   6.584   3.855  0.4979  0.4620  0.0242
  840MOL0     C13267   6.155   6.513   3.763  0.1226  0.5559  0.5979
  840MOL0     O13268   6.078   6.481   3.650  0.2292  0.0368  0.3873
  840MOL0     C13269   5.964   6.553   3.623  0.8350  1.1062 -0.6478
  840MOL0     C13270   5.867   6.584   3.721  0.1303 -0.1148  0.5031
  840MOL0     C13271   5.752   6.652   3.686  0.4299  0.4764 -0.5343
  840MOL0     C13272   5.736   6.705   3.558 -0.1488 -0.0001  0.3079
  840MOL0     O13273   5.620   6.782   3.525 -0.8356  0.1406 -0.0265
  840MOL0     C13274   5.498   6.775   3.607 -0.1905 -0.2209  0.5267
  840MOL0     C13275   5.406   6.887   3.551 -0.0052  0.4538  0.6485
  840MOL0     C13276   5.261   6.864   3.610 -0.3651  0.7428 -0.3328
  840MOL0     C13277   5.178   6.766   3.528  0.5079 -0.7536  0.0159
  840MOL0     C13278   5.105   6.839   3.415 -0.7751 -0.5015  0.0049
  840MOL0     C13279   4.995   6.762   3.344 -0.9576 -0.1087 -0.5534
  840MOL0     C13280   4.865   6.746   3.422  0.1507 -0.3320 -0.3157
  840MOL0     C13281   4.809   6.881   3.475  0.0155  0.4729  0.3761
  840MOL0     N13282   4.667   6.861   3.510 -0.2881 -0.1460 -0.5186
  840MOL0     C13283   4.572   6.874   3.417  0.3327  0.1001  0.0503
  840MOL0     C13284   4.454   6.846   3.475  0.2820  0.7838  1.3614
  840MOL0     C13285   4.330   6.854   3.398 -0.3516  0.2200 -0.0667
  840MOL0     C13286   4.209   6.895   3.484 -1.1057  0.1247 -0.6426
  840MOL0     C13287   4.159   6.780   3.581 -0.5961 -0.2321 -0.0042
  840MOL0     C13288   4.043   6.839   3.657 -0.7058  0.0760 -0.4970
  840MOL0     O13289   3.976   6.723   3.703 -0.2497 -0.1790 -0.1700
  840MOL0     C13290   3.840   6.743   3.732 -0.5401  0.5892 -0.5869
  840MOL0     C13291   3.752   6.779   3.631  0.4275  0.1881 -0.5530
  840MOL0     C13292   3.611   6.774   3.649  0.4118  0.0006 -0.1323
  840MOL0     C13293   3.522   6.814   3.527 -0.7745  0.2273  0.2668
  840MOL0     C13294   3.552   6.743   3.775 -0.4318 -0.5790  0.2061
  840MOL0     C13295   3.407   6.735   3.810  1.1063 -0.2794  0.6054
  840MOL0     O13296   3.369   6.741   3.940  0.1882 -0.3854  0.4887
  840MOL0     C13297   3.233   6.767   3.962 -0.8817 -0.1889  0.5308
  840MOL0     C13298   3.190   6.702   4.073  0.7525 -0.2214  0.5159
  840MOL0     C13299   3.060   6.711   4.127 -0.3053 -0.4411 -1.2328
  840MOL0     C13300   2.975   6.805   4.071 -0.7607 -0.2889  0.0200
  840MOL0     O13301   2.848   6.814   4.117  0.1965  0.8686  0.4334
  840MOL0     C13302   2.770   6.935   4.099 -0.6296  0.0546  0.7084
  840MOL0     C13303   2.642   6.912   4.175  0.2931 -0.9736  0.6767
  840MOL0     C13304   2.546   7.021   4.137  0.8838  0.0507 -0.1058
  840MOL0     C13305   2.400   6.985   4.193  0.4709  0.0452 -0.6568
  840MOL0     C13306   2.316   7.118   4.214  0.2768  0.2981  0.2789
  840MOL0     C13307   2.277   7.188   4.086  0.7991 -0.2071 -0.5691
  840MOL0     C13308   2.193   7.312   4.122  0.4992  0.2236 -0.9748
  840MOL0     C13309   2.210   7.413   4.010 -0.2217 -0.2228 -1.3355
  840MOL0    Cl13310   2.045   7.412   3.924 -0.0204 -0.2398 -0.6690
  840MOL0     C13311   3.023   6.880   3.960 -0.1916  0.0753  0.9663
  840MOL0     C13312   3.149   6.858   3.904  0.0545 -0.2322 -0.1725
  840MOL0     O13313   3.323   6.716   3.722  0.4533 -0.8149 -0.0103
  840MOL0     C13314   3.649   6.703   3.877  0.4123  0.4199  0.1114
  840MOL0     C13315   3.784   6.700   3.851 -0.4188  0.2587  0.1596
  840MOL0     N13316   4.483   6.808   3.604  0.4593 -0.8104  0.0128
  840MOL0     N13317   4.610   6.825   3.627 -0.1088  0.0728 -0.7050
  840MOL0     C13318   5.830   6.676   3.458  0.5757 -0.5139  0.1384
  840MOL0     C13319   5.943   6.604   3.488 -0.3658  0.6317 -0.7048
  840MOL0     C13320   6.301   6.487   3.764  0.0523  2.0142  0.3269
  840MOL0     C13321   6.386   6.490   3.881  0.2164 -0.3544  0.1727
  840MOL0     C13322   6.520   6.442   3.879 -0.3732 -0.2433 -0.5158
  840MOL0     C13323   6.570   6.406   3.758 -0.8759 -0.2769 -0.1622
  840MOL0     O13324   6.698   6.360   3.732 -0.2282  0.0913 -0.3847
  840MOL0     C13325   6.809   6.417   3.812  0.1994  0.1393 -0.5395
  840MOL0     C13326   6.926   6.438   3.708  0.3835  0.2881 -0.5935
  840MOL0     C13327   6.898   6.539   3.608  1.0242 -0.1720 -0.3323
  840MOL0     C13328   6.966   6.521   3.477  0.5755  0.6400 -1.0212
  840MOL0     C13329   7.096   6.590   3.480  1.0109 -0.1208  0.2470
  840MOL0     C13330   7.203   6.647   3.478  0.1622  0.9421 -0.3126
  840MOL0     C13331   6.493   6.416   3.640 -0.5386 -0.3196  0.4372
  840MOL0     C13332   6.359   6.450   3.643 -0.7756  0.4278 -0.3948
  840MOL0     H13333   5.877   6.538   3.819  0.5104  0.2961  0.6579
  840MOL0     H13334   5.686   6.672   3.770  0.4576  2.3311 -0.9146
  840MOL0     H13335   5.456   6.674   3.606  0.8616 -0.6701  0.1746
  840MOL0     H13336   5.523   6.811   3.707  0.6439  1.3912 -0.2244
  840MOL0     H13337   5.448   6.981   3.586  2.4184  0.0208 -0.9092
  840MOL0     H13338   5.402   6.890   3.441 -3.9975  0.6346  0.6416
  840MOL0     H13339   5.266   6.818   3.709  2.4761  2.6391  0.5245
  840MOL0     H13340   5.202   6.953   3.633 -3.6724 -1.4928  0.5517
  840MOL0     H13341   5.243   6.690   3.484  0.4418  0.0746 -1.5674
  840MOL0     H13342   5.099   6.721   3.589  1.4904 -3.9526 -0.8751
  840MOL0     H13343   5.061   6.933   3.450 -0.0928 -0.0653 -0.2960
  840MOL0     H13344   5.181   6.871   3.343 -3.4735  1.7219 -2.0599
  840MOL0     H13345   4.978   6.821   3.253  0.1252 -0.0040 -0.7016
  840MOL0     H13346   5.031   6.666   3.306  0.5902  0.0337  0.4788
  840MOL0     H13347   4.795   6.688   3.361  0.9673  0.8292 -2.4279
  840MOL0     H13348   4.890   6.693   3.515 -1.6555  0.8468  0.8988
  840MOL0     H13349   4.816   6.954   3.394  0.3528 -1.1765 -1.1424
  840MOL0     H13350   4.879   6.909   3.555 -1.0819 -0.7712  1.8405
  840MOL0     H13351   4.594   6.893   3.313 -0.5219  2.2554  0.2190
  840MOL0     H13352   4.342   6.925   3.315 -0.1925 -0.7096 -0.8578
  840MOL0     H13353   4.312   6.754   3.358 -0.0645  0.3655 -0.5736
  840MOL0     H13354   4.129   6.919   3.414 -1.3281  3.2919  0.5534
  840MOL0     H13355   4.235   6.991   3.529  2.0440 -1.9558  2.5440
  840MOL0     H13356   4.225   6.722   3.646 -0.9580 -0.4847  0.1397
  840MOL0     H13357   4.131   6.693   3.521 -1.6088 -0.1754  0.3563
  840MOL0     H13358   3.984   6.911   3.600 -2.7835 -1.5329 -0.4695
  840MOL0     H13359   4.088   6.890   3.742 -2.1595 -1.5475  1.3182
  840MOL0     H13360   3.791   6.799   3.531  1.8010  0.7868  0.0698
  840MOL0     H13361   3.479   6.729   3.474  1.0951  1.5078 -3.6617
  840MOL0     H13362   3.437   6.881   3.545 -1.8917 -0.5666 -1.7198
  840MOL0     H13363   3.584   6.862   3.451  0.8984  1.2279  2.1607
  840MOL0     H13364   3.261   6.633   4.117 -2.6890 -4.6054 -0.0906
  840MOL0     H13365   3.032   6.654   4.215 -3.4728 -0.2087 -1.9553
  840MOL0     H13366   2.828   7.020   4.136  1.4107  0.5400 -3.0862
  840MOL0     H13367   2.751   6.957   3.994 -0.3317 -1.4378  0.3126
  840MOL0     H13368   2.594   6.817   4.152 -1.1436  0.1368 -1.2099
  840MOL0     H13369   2.655   6.912   4.284 -1.7285 -0.5485  0.9674
  840MOL0     H13370   2.539   7.036   4.029  1.2020 -1.0681 -0.2942
  840MOL0     H13371   2.584   7.116   4.176  0.7091 -0.7641  2.1808
  840MOL0     H13372   2.348   6.920   4.122  1.4046  2.3681 -3.7299
  840MOL0     H13373   2.419   6.932   4.287 -1.0096  0.9144  0.1607
  840MOL0     H13374   2.369   7.191   4.275 -2.0372  1.4898  0.9834
  840MOL0     H13375   2.229   7.079   4.269  2.2072 -2.3127  1.7230
  840MOL0     H13376   2.364   7.228   4.033 -0.1450  1.5959 -0.8699
  840MOL0     H13377   2.214   7.127   4.021 -1.4340  0.0766  1.1973
  840MOL0     H13378   2.213   7.363   4.216 -1.5244  1.3098 -1.0749
  840MOL0     H13379   2.087   7.284   4.128  0.5717  0.3011  1.5276
  840MOL0     H13380   2.296   7.387   3.948 -0.0510 -1.2309 -0.6937
  840MOL0     H13381   2.212   7.511   4.059 -3.3719  0.0807 -1.5547
  840MOL0     H13382   2.963   6.952   3.905  0.5133  0.7866  1.0992
  840MOL0     H13383   3.170   6.923   3.819 -2.4649 -1.7448 -2.0945
  840MOL0     H13384   3.611   6.647   3.962  0.4239 -1.0116 -0.7955
  840MOL0     H13385   3.852   6.660   3.926  3.5990  1.4986 -2.5171
  840MOL0     H13386   5.808   6.706   3.356 -2.6261 -0.4699  0.7507
  840MOL0     H13387   6.001   6.566   3.405  2.2844  0.8959  0.9006
  840MOL0     H13388   6.341   6.508   3.978 -0.1206  0.8352 -0.1852
  840MOL0     H13389   6.564   6.415   3.974  1.0331 -0.8193 -1.2922
  840MOL0     H13390   6.789   6.509   3.867 -0.4146  0.4577 -1.2833
  840MOL0     H13391   6.841   6.339   3.882  0.0442 -0.5137 -1.1869
  840MOL0     H13392   6.941   6.338   3.665 -2.5043 -1.4761  2.0719
  840MOL0     H13393   7.022   6.473   3.748 -1.6485  2.9554  2.4925
  840MOL0     H13394   6.919   6.634   3.656  2.2175 -1.3113  1.5356
  840MOL0     H13395   6.790   6.533   3.590  0.9238  0.1831  0.1666
  840MOL0     H13396   6.902   6.569   3.403  1.3184  1.7349 -0.9785
  840MOL0     H13397   6.980   6.417   3.447  3.3081  1.4265 -2.8689
  840MOL0     H13398   7.302   6.686   3.493 -0.2720  1.2694  2.2365
  840MOL0     H13399   6.539   6.383   3.547 -1.7059  0.5964 -0.5082
  840MOL0     H13400   6.308   6.439   3.548  0.0845  0.0194 -0.8200
  841MOL0     O13401   1.246  10.358   9.232  0.1458 -0.4912 -0.5543
  841MOL0     C13402   1.228  10.246   9.203  0.2687  0.8974  0.5233
  841MOL0     O13403   1.320  10.161   9.154  0.2809 -0.0429  0.4231
  841MOL0     C13404   1.454  10.190   9.161  0.2683  0.3164  0.0592
  841MOL0     C13405   1.529  10.159   9.050  0.2057  0.6627  0.4533
  841MOL0     C13406   1.672  10.169   9.042  0.2170  1.5764 -0.2856
  841MOL0     C13407   1.742  10.223   9.152  0.6493 -0.1090 -0.1059
  841MOL0     O13408   1.876  10.238   9.140 -0.3994  0.3998  0.3999
  841MOL0     C13409   1.944  10.337   9.222 -0.1764 -0.7722 -0.1785
  841MOL0     C13410   1.904  10.482   9.199 -0.4858  0.3605 -0.4591
  841MOL0     C13411   1.936  10.559   9.332  0.5896  0.7073 -0.4466
  841MOL0     C13412   2.063  10.522   9.422  0.3041 -0.6748 -0.4852
  841MOL0     C13413   2.073  10.618   9.535  0.5855 -0.0934 -0.3356
  841MOL0     C13414   1.964  10.608   9.645 -0.5040  0.3394  0.1471
  841MOL0     C13415   1.997  10.701   9.766 -0.3965  0.3717  0.6854
  841MOL0     C13416   1.902  10.679   9.887  0.0632  0.8318  0.3704
  841MOL0     N13417   1.762  10.669   9.849 -0.2330  0.1352  0.1698
  841MOL0     C13418   1.685  10.763   9.776  0.4449  0.6354  0.1226
  841MOL0     C13419   1.569  10.687   9.754  0.0221 -0.8908  0.3519
  841MOL0     C13420   1.463  10.719   9.654 -0.2026  0.1800  0.4134
  841MOL0     C13421   1.329  10.649   9.674  0.6230  0.1434 -0.6026
  841MOL0     C13422   1.335  10.507   9.615 -0.0979  0.6426 -0.1849
  841MOL0     C13423   1.198  10.443   9.624  0.0757  0.2501  0.1132
  841MOL0     O13424   1.091  10.509   9.547  0.2258  0.9576  0.4872
  841MOL0     C13425   0.960  10.472   9.580 -1.1544 -0.8641 -0.2277
  841MOL0     C13426   0.933  10.368   9.670  0.5032 -0.6460 -0.1615
  841MOL0     C13427   0.801  10.340   9.718 -0.7249 -0.2308 -0.2450
  841MOL0     C13428   0.799  10.246   9.836 -0.4614  0.5182  0.0091
  841MOL0     C13429   0.689  10.402   9.658  0.2314 -0.5271  0.4418
  841MOL0     C13430   0.550  10.357   9.680  0.0987  0.4655  0.5248
  841MOL0     O13431   0.465  10.406   9.595  0.9011  0.2729 -0.2341
  841MOL0     C13432   0.328  10.410   9.611 -0.0841 -0.8694  0.0729
  841MOL0     C13433   0.242  10.311   9.668  0.4609 -0.4785  0.1777
  841MOL0     C13434   0.101  10.326   9.670 -0.2475 -0.5601 -0.1159
  841MOL0     C13435   0.044  10.447   9.625 -0.7237  0.2084 -0.2813
  841MOL0     O13436  -0.093  10.446   9.638  0.4794 -0.2383  0.3271
  841MOL0     C13437  -0.161  10.576   9.614 -0.2964 -0.4303 -0.5739
  841MOL0     C13438  -0.311  10.560   9.641  0.1168  0.4418  0.3620
  841MOL0     C13439  -0.381  10.467   9.546 -1.1165 -0.2918  0.3633
  841MOL0     C13440  -0.531  10.495   9.540 -0.3829 -0.1573 -0.4830
  841MOL0     C13441  -0.608  10.393   9.455 -0.1518  0.6769  0.0943
  841MOL0     C13442  -0.748  10.443   9.429  0.5376  0.2001 -0.4229
  841MOL0     C13443  -0.815  10.368   9.310  0.0219 -0.3007 -0.1248
  841MOL0     C13444  -0.789  10.218   9.314 -0.5771  0.1654  0.3513
  841MOL0    Cl13445  -0.645  10.183   9.219 -0.7378 -0.0595  0.0172
  841MOL0     C13446   0.125  10.540   9.566 -0.1832 -0.0525 -0.9697
  841MOL0     C13447   0.265  10.530   9.565  1.0884  0.5236  0.3566
  841MOL0     O13448   0.521  10.291   9.782 -0.0231 -0.8449  0.1221
  841MOL0     C13449   0.718  10.503   9.560 -0.1967 -0.0691 -0.1671
  841MOL0     C13450   0.850  10.544   9.523  1.0263  0.4899  0.6078
  841MOL0     N13451   1.578  10.562   9.804 -0.0516  0.0353 -0.0469
  841MOL0     N13452   1.689  10.552   9.867 -0.7607  0.3624 -0.0386
  841MOL0     C13453   1.664  10.266   9.262  0.8189 -0.2845  0.6968
  841MOL0     C13454   1.523  10.244   9.267 -0.6852  0.2534 -0.0563
  841MOL0     C13455   1.088  10.203   9.213  0.2417 -0.2821  0.1173
  841MOL0     C13456   1.038  10.097   9.133 -0.0713  0.1962  0.0369
  841MOL0     C13457   0.902  10.056   9.153 -0.4639 -0.6567  0.3162
  841MOL0     C13458   0.821  10.106   9.256 -0.4906  0.2475  0.0608
  841MOL0     O13459   0.692  10.056   9.283 -0.5106  1.0088 -1.6910
  841MOL0     C13460   0.594  10.135   9.350 -0.2202  0.0829 -1.0617
  841MOL0     C13461   0.468  10.053   9.384  0.4321  0.4090 -0.0353
  841MOL0     C13462   0.423   9.994   9.253 -0.7424  0.3473  0.2040
  841MOL0     C13463   0.274   9.946   9.256  0.0230 -0.4415 -0.7013
  841MOL0     C13464   0.240   9.869   9.381  0.3332 -0.0326  0.2841
  841MOL0     C13465   0.221   9.791   9.475 -0.0688 -0.1461 -0.0673
  841MOL0     C13466   0.868  10.226   9.315 -0.0397  0.6606  0.0275
  841MOL0     C13467   0.999  10.269   9.295  0.5337  0.1297  0.3168
  841MOL0     H13468   1.474  10.114   8.968 -1.0107  0.3493  1.4108
  841MOL0     H13469   1.723  10.145   8.950 -0.9440 -3.1908  0.0514
  841MOL0     H13470   1.931  10.304   9.325  0.7172  2.0135  0.8967
  841MOL0     H13471   2.050  10.327   9.195  0.3873  0.2027  1.5629
  841MOL0     H13472   1.960  10.526   9.116 -0.2862  0.1937 -0.4115
  841MOL0     H13473   1.797  10.483   9.175 -0.7207  1.5239  0.5177
  841MOL0     H13474   1.938  10.666   9.313  1.3424  0.3837 -2.4175
  841MOL0     H13475   1.856  10.545   9.406 -0.4067 -3.4608 -2.0077
  841MOL0     H13476   2.062  10.424   9.470 -0.8248  0.8858  3.0172
  841MOL0     H13477   2.153  10.527   9.361  0.7604  0.2598  0.2299
  841MOL0     H13478   2.170  10.603   9.582 -0.5712  1.5914  2.8975
  841MOL0     H13479   2.078  10.723   9.507 -0.7911  0.8828  2.6856
  841MOL0     H13480   1.866  10.638   9.606  0.0007  1.6382 -0.2036
  841MOL0     H13481   1.968  10.507   9.685 -2.1899  0.1992  0.0222
  841MOL0     H13482   2.099  10.677   9.796 -0.9955 -3.8976 -0.1386
  841MOL0     H13483   2.002  10.807   9.739 -1.2053  0.0604 -0.7520
  841MOL0     H13484   1.907  10.762   9.958  1.5256  0.6711  0.5029
  841MOL0     H13485   1.931  10.590   9.943  0.0230  0.1584 -0.6532
  841MOL0     H13486   1.716  10.858   9.733  0.1748  0.1041 -1.2938
  841MOL0     H13487   1.449  10.828   9.660  2.6680  0.6131  0.7065
  841MOL0     H13488   1.492  10.696   9.551 -2.8266 -0.9239 -0.1748
  841MOL0     H13489   1.255  10.705   9.616  0.6227  0.2462 -0.5034
  841MOL0     H13490   1.301  10.639   9.779  1.3877 -0.7666 -0.4719
  841MOL0     H13491   1.403  10.446   9.675 -0.9902  0.2861  0.4879
  841MOL0     H13492   1.380  10.510   9.515 -0.3655  1.4415 -0.2820
  841MOL0     H13493   1.174  10.447   9.730 -0.7467  0.0730 -0.0542
  841MOL0     H13494   1.200  10.341   9.584 -0.7750  1.1400 -2.4330
  841MOL0     H13495   1.020  10.314   9.707  0.9320 -0.7541 -1.2855
  841MOL0     H13496   0.895  10.238   9.890  0.3826  2.0432 -1.1834
  841MOL0     H13497   0.724  10.276   9.910 -3.2309  0.4020 -2.5780
  841MOL0     H13498   0.755  10.151   9.805 -2.6319  1.7786 -0.9231
  841MOL0     H13499   0.290  10.220   9.704  1.1870 -1.0504 -2.0271
  841MOL0     H13500   0.040  10.253   9.723 -0.7190 -1.4674 -1.8549
  841MOL0     H13501  -0.123  10.659   9.674 -0.7374 -0.0578 -0.8026
  841MOL0     H13502  -0.149  10.604   9.509 -0.3519 -2.3630 -1.1418
  841MOL0     H13503  -0.316  10.519   9.743 -0.3109 -2.8944 -0.8736
  841MOL0     H13504  -0.355  10.660   9.640  2.1757  1.4055 -1.6648
  841MOL0     H13505  -0.381  10.366   9.587 -1.6622 -0.0453  0.9751
  841MOL0     H13506  -0.340  10.470   9.444  3.4403 -2.9207  1.8366
  841MOL0     H13507  -0.566  10.492   9.643  3.6610  4.0625  1.3859
  841MOL0     H13508  -0.545  10.597   9.503  0.9053  0.4491  0.6285
  841MOL0     H13509  -0.619  10.301   9.513 -0.9209 -0.5831 -1.9579
  841MOL0     H13510  -0.553  10.374   9.363 -3.6268 -2.3950 -1.5838
  841MOL0     H13511  -0.801  10.421   9.522 -1.7168  2.5636 -1.0497
  841MOL0     H13512  -0.760  10.550   9.412  0.0069  0.4646  1.3890
  841MOL0     H13513  -0.778  10.411   9.217  0.2071 -0.0988  0.0412
  841MOL0     H13514  -0.921  10.387   9.330 -0.0115  0.0336 -0.6242
  841MOL0     H13515  -0.864  10.159   9.261 -0.0612 -1.1386  1.0261
  841MOL0     H13516  -0.775  10.173   9.412  1.8109 -1.5108 -0.6424
  841MOL0     H13517   0.066  10.620   9.521  1.0567  0.7369 -1.2593
  841MOL0     H13518   0.319  10.617   9.531  2.0831  0.2504  1.1954
  841MOL0     H13519   0.629  10.552   9.524 -1.0246  0.4949  2.4498
  841MOL0     H13520   0.862  10.629   9.457 -2.0004  2.0899  1.9151
  841MOL0     H13521   1.711  10.318   9.345 -0.8125  2.1353  0.2220
  841MOL0     H13522   1.469  10.280   9.354 -0.8742 -2.6476  1.1423
  841MOL0     H13523   1.113  10.043   9.076  1.7527  1.5368  1.0583
  841MOL0     H13524   0.866   9.966   9.104  2.7720 -2.1165  0.3434
  841MOL0     H13525   0.633  10.178   9.443  0.1716  2.0132 -2.0581
  841MOL0     H13526   0.581  10.224   9.287  0.5361  1.4225  0.5931
  841MOL0     H13527   0.384  10.110   9.423  0.3529  0.5316 -0.3863
  841MOL0     H13528   0.491   9.972   9.455 -0.0203  1.5080  1.4244
  841MOL0     H13529   0.482   9.907   9.221 -0.6654 -0.1022  1.4978
  841MOL0     H13530   0.431  10.076   9.182 -1.7484 -0.4119 -0.8117
  841MOL0     H13531   0.261   9.882   9.168 -1.0884 -0.6738 -0.3840
  841MOL0     H13532   0.205  10.030   9.255  0.8421  0.2476 -0.4048
  841MOL0     H13533   0.203   9.727   9.560 -0.9501  1.7693  1.2522
  841MOL0     H13534   0.806  10.288   9.380 -1.1885  0.1984 -0.5971
  841MOL0     H13535   1.035  10.352   9.355  2.9323  1.6759 -2.9427
  842MOL0     O13536   3.357   9.710   8.641 -0.3856 -0.5220  0.0577
  842MOL0     C13537   3.437   9.715   8.547  0.1689  0.7894  0.4837
  842MOL0     O13538   3.418   9.657   8.421 -0.0498 -0.4415 -0.1945
  842MOL0     C13539   3.291   9.600   8.403 -0.7120  0.6076  0.4932
  842MOL0     C13540   3.163   9.626   8.445  0.6147 -0.9857 -0.3544
  842MOL0     C13541   3.051   9.548   8.411  0.3529  0.1569 -0.1460
  842MOL0     C13542   3.068   9.435   8.330  0.0061  0.2057  0.1614
  842MOL0     O13543   2.953   9.356   8.321 -0.3218  0.1167  0.8263
  842MOL0     C13544   2.972   9.231   8.247 -0.5351 -0.1360  1.0865
  842MOL0     C13545   2.860   9.136   8.245 -0.6275 -0.8671 -0.2983
  842MOL0     C13546   2.745   9.202   8.160 -0.5409 -0.1350  0.3401
  842MOL0     C13547   2.629   9.094   8.162 -0.1051  0.3180  0.0941
  842MOL0     C13548   2.499   9.144   8.103 -0.7009 -0.8530 -0.4427
  842MOL0     C13549   2.405   9.028   8.090  0.3084 -0.0704 -0.0882
  842MOL0     C13550   2.262   9.063   8.060 -0.1941 -0.5038  0.2122
  842MOL0     C13551   2.190   8.957   7.966  0.7122  0.0760  0.1179
  842MOL0     N13552   2.051   8.992   7.964 -0.2761 -0.3875  0.6886
  842MOL0     C13553   2.005   9.110   7.911 -0.6828 -0.5546 -1.3418
  842MOL0     C13554   1.882   9.125   7.960 -0.3087 -0.7659  1.2057
  842MOL0     C13555   1.790   9.232   7.930  0.3140  0.1454 -0.6742
  842MOL0     C13556   1.810   9.307   7.793  0.6784  0.1235  0.4489
  842MOL0     C13557   1.774   9.209   7.678 -0.2986 -0.1626 -0.0725
  842MOL0     C13558   1.625   9.167   7.655 -0.1468  0.4108  0.3339
  842MOL0     O13559   1.545   9.288   7.627 -0.8240  0.2677  0.1865
  842MOL0     C13560   1.415   9.285   7.599  0.0371  0.1988 -0.1346
  842MOL0     C13561   1.358   9.405   7.551  0.1899 -0.6054 -0.2574
  842MOL0     C13562   1.218   9.417   7.527 -0.0273 -0.5964  0.5235
  842MOL0     C13563   1.160   9.545   7.471  0.0601 -0.4099 -0.6303
  842MOL0     C13564   1.148   9.297   7.528  0.9240 -0.0337  0.3752
  842MOL0     C13565   1.002   9.287   7.478 -0.4937 -0.5302 -0.0592
  842MOL0     O13566   0.968   9.163   7.439  0.9889 -0.2439 -0.4739
  842MOL0     C13567   0.859   9.152   7.355  0.2344 -0.0906 -0.5564
  842MOL0     C13568   0.717   9.187   7.380 -0.5161 -0.1699 -0.1715
  842MOL0     C13569   0.626   9.167   7.281  0.0911  0.6811 -0.7293
  842MOL0     C13570   0.660   9.115   7.153  0.5815 -0.0786 -0.4345
  842MOL0     O13571   0.569   9.092   7.048 -0.1696  0.4048  0.2486
  842MOL0     C13572   0.425   9.103   7.066 -0.8937  1.1801  0.4487
  842MOL0     C13573   0.347   9.113   6.940  0.3941  0.3123  0.0173
  842MOL0     C13574   0.391   9.226   6.851 -0.5940 -0.5026 -1.1508
  842MOL0     C13575   0.268   9.278   6.775 -0.4726  0.4910 -0.4249
  842MOL0     C13576   0.185   9.369   6.863  0.3099  0.2006  0.4417
  842MOL0     C13577   0.062   9.421   6.789  0.2177 -0.7191  0.7763
  842MOL0     C13578  -0.035   9.498   6.877 -0.0170 -0.3369 -0.2653
  842MOL0     C13579  -0.152   9.572   6.801 -0.7967  0.2732 -0.2201
  842MOL0    Cl13580  -0.089   9.725   6.744  0.2108  0.3150 -0.3581
  842MOL0     C13581   0.794   9.094   7.132  0.0536 -0.3493 -0.1016
  842MOL0     C13582   0.887   9.106   7.228  1.2493 -0.5067 -0.3393
  842MOL0     O13583   0.931   9.387   7.471  0.3332 -0.2710  0.1345
  842MOL0     C13584   1.200   9.171   7.570 -0.3344  0.6461  0.1289
  842MOL0     C13585   1.335   9.167   7.605  0.1416  0.8029  0.3858
  842MOL0     N13586   1.848   9.019   8.035 -0.1830  0.3459  0.7034
  842MOL0     N13587   1.949   8.933   8.039  0.1954  0.0378  0.5492
  842MOL0     C13588   3.199   9.408   8.279  0.2943  0.4448  0.5839
  842MOL0     C13589   3.305   9.493   8.316 -0.9445 -0.7445 -0.5148
  842MOL0     C13590   3.570   9.782   8.567 -0.1726  0.0349 -0.0932
  842MOL0     C13591   3.631   9.800   8.695  0.1388  0.6665  0.4512
  842MOL0     C13592   3.757   9.861   8.704  0.1423  0.0923 -0.4141
  842MOL0     C13593   3.836   9.907   8.589  0.3774  0.5366  0.4407
  842MOL0     O13594   3.960   9.964   8.600 -0.1649 -0.0493  0.9305
  842MOL0     C13595   3.983  10.024   8.726 -0.3813 -0.2802 -0.0138
  842MOL0     C13596   4.084  10.140   8.723  0.1506 -0.3188 -0.3196
  842MOL0     C13597   4.217  10.082   8.777 -0.3430 -0.0732 -0.5840
  842MOL0     C13598   4.336  10.181   8.778 -0.6579  0.0294  0.2287
  842MOL0     C13599   4.447  10.125   8.860 -0.7353  0.3974  0.2846
  842MOL0     C13600   4.532  10.066   8.925 -0.4753 -0.4826  1.0153
  842MOL0     C13601   3.776   9.878   8.466  0.6937 -0.3236  0.3854
  842MOL0     C13602   3.649   9.811   8.455 -0.6952  0.2348  0.0859
  842MOL0     H13603   3.147   9.717   8.502 -1.2552 -0.5311 -1.5181
  842MOL0     H13604   2.955   9.563   8.460  1.4909 -1.7522  3.0028
  842MOL0     H13605   3.011   9.259   8.149  0.0257 -0.3346  1.2479
  842MOL0     H13606   3.053   9.172   8.292  2.5708  2.2662 -0.8550
  842MOL0     H13607   2.879   9.035   8.209  1.2041 -1.4783  2.1583
  842MOL0     H13608   2.827   9.128   8.349  0.7589  0.1877  0.2564
  842MOL0     H13609   2.712   9.295   8.207  1.4494 -0.7215  3.2184
  842MOL0     H13610   2.770   9.244   8.062 -3.1329  1.6336  0.3579
  842MOL0     H13611   2.668   9.006   8.110  3.4656  1.3230  0.7334
  842MOL0     H13612   2.601   9.059   8.261 -1.0171 -1.1598 -0.6506
  842MOL0     H13613   2.461   9.219   8.173 -2.0523 -2.8077  1.0373
  842MOL0     H13614   2.524   9.183   8.004 -1.1398 -3.3816 -1.6272
  842MOL0     H13615   2.456   8.956   8.025  2.0334 -0.9762  2.1305
  842MOL0     H13616   2.397   8.973   8.184 -0.5658 -1.0160 -0.6874
  842MOL0     H13617   2.205   9.068   8.154  0.7858 -3.2930  1.0455
  842MOL0     H13618   2.254   9.161   8.011 -3.9996  0.0716  1.6450
  842MOL0     H13619   2.205   8.856   8.006 -1.3790 -0.8461 -1.1826
  842MOL0     H13620   2.232   8.960   7.865 -0.0303  1.0897 -0.1728
  842MOL0     H13621   2.062   9.186   7.859 -1.6219  0.1082 -1.4225
  842MOL0     H13622   1.690   9.189   7.937  0.5028 -0.0482  1.4358
  842MOL0     H13623   1.806   9.304   8.011  0.0943  2.1534 -2.3182
  842MOL0     H13624   1.911   9.348   7.781 -0.2426  2.1989 -0.6081
  842MOL0     H13625   1.741   9.391   7.783  0.5171 -0.0868 -0.2522
  842MOL0     H13626   1.834   9.117   7.688  1.6581  1.1779  1.5165
  842MOL0     H13627   1.819   9.249   7.587  1.5610 -3.5485 -0.8335
  842MOL0     H13628   1.573   9.119   7.739 -0.9250  0.4644 -0.1101
  842MOL0     H13629   1.623   9.098   7.570 -1.4405  2.3914 -1.3519
  842MOL0     H13630   1.421   9.489   7.524  0.3004 -0.3200  0.8420
  842MOL0     H13631   1.083   9.588   7.536 -1.1813 -1.6485 -1.2450
  842MOL0     H13632   1.232   9.627   7.482 -2.5261  1.7925  1.1799
  842MOL0     H13633   1.118   9.542   7.370 -1.1116  0.0652 -0.1782
  842MOL0     H13634   0.682   9.233   7.472 -0.1710 -0.6190  0.1889
  842MOL0     H13635   0.524   9.204   7.281 -0.2939 -0.3443 -0.1041
  842MOL0     H13636   0.391   9.013   7.118  0.9460 -0.5752 -1.2048
  842MOL0     H13637   0.398   9.191   7.126  1.9720  1.6018  1.2497
  842MOL0     H13638   0.359   9.019   6.885  1.3020 -0.7690  1.9497
  842MOL0     H13639   0.243   9.133   6.968 -0.4152  0.1443 -2.6382
  842MOL0     H13640   0.464   9.185   6.780 -0.1687  2.2962 -2.4444
  842MOL0     H13641   0.442   9.306   6.905  1.3865 -3.1581  1.1974
  842MOL0     H13642   0.303   9.337   6.689 -1.0753 -1.5502 -2.1407
  842MOL0     H13643   0.200   9.202   6.736 -0.4106  0.0185  0.3809
  842MOL0     H13644   0.252   9.453   6.886 -1.5160  1.1805  2.5155
  842MOL0     H13645   0.160   9.319   6.957  1.2867 -1.1690  0.0139
  842MOL0     H13646   0.104   9.480   6.707  0.4878 -2.8308 -0.7129
  842MOL0     H13647   0.007   9.340   6.740  0.8846 -0.4331 -0.5176
  842MOL0     H13648   0.017   9.578   6.930 -2.1228 -0.3800  2.0767
  842MOL0     H13649  -0.069   9.433   6.957  0.4959 -0.5054 -0.1846
  842MOL0     H13650  -0.237   9.595   6.866  0.6076  0.9963  1.4441
  842MOL0     H13651  -0.183   9.510   6.717  1.8072 -0.9465 -0.4035
  842MOL0     H13652   0.826   9.080   7.029  0.9103  0.7290  0.0005
  842MOL0     H13653   0.989   9.080   7.201  1.2586  0.9428 -1.9366
  842MOL0     H13654   1.148   9.077   7.560  1.2784 -0.3346  0.6561
  842MOL0     H13655   1.373   9.070   7.636 -0.4101  0.6456  0.5962
  842MOL0     H13656   3.216   9.331   8.205  2.7485 -0.7307  2.2389
  842MOL0     H13657   3.404   9.486   8.273 -0.2512  3.8347 -0.1932
  842MOL0     H13658   3.578   9.766   8.784 -1.9749  1.4177 -0.4377
  842MOL0     H13659   3.794   9.871   8.806  0.2868 -1.3179 -0.3178
  842MOL0     H13660   3.886  10.072   8.745 -2.1325 -2.7327 -2.0962
  842MOL0     H13661   3.994   9.957   8.812  0.8240  0.2461  0.2533
  842MOL0     H13662   4.052  10.218   8.793  4.7652 -0.5929  2.5131
  842MOL0     H13663   4.091  10.181   8.622 -1.0333 -1.9665 -1.1147
  842MOL0     H13664   4.246   9.991   8.723  0.3165  0.0548 -0.4475
  842MOL0     H13665   4.195  10.046   8.878  0.0661 -1.2140 -0.8857
  842MOL0     H13666   4.314  10.274   8.830  3.3618  0.1719  2.0867
  842MOL0     H13667   4.377  10.205   8.679 -1.0092  2.5564  0.6325
  842MOL0     H13668   4.605  10.028   8.992  1.1425  0.5467 -0.0825
  842MOL0     H13669   3.819   9.900   8.369 -1.1148  2.4425  0.0866
  842MOL0     H13670   3.608   9.795   8.355 -2.5072  0.3663  0.7676
  843MOL0     O13671   8.096   8.858   7.668  0.2522  0.7922 -0.4068
  843MOL0     C13672   8.218   8.875   7.705  1.0760  0.6200  0.5309
  843MOL0     O13673   8.268   8.860   7.832  0.0145 -0.0379 -0.6051
  843MOL0     C13674   8.188   8.813   7.936  1.0440  0.0043  0.8836
  843MOL0     C13675   8.063   8.870   7.970  0.9790  0.3796  0.3313
  843MOL0     C13676   7.986   8.837   8.083 -0.2483  0.2462  0.4981
  843MOL0     C13677   8.031   8.726   8.162 -0.4785  0.0843  0.0571
  843MOL0     O13678   7.974   8.661   8.265  0.5271  0.6641  0.0015
  843MOL0     C13679   7.838   8.694   8.288 -1.2420  0.8132  0.5365
  843MOL0     C13680   7.776   8.623   8.408  0.1632  0.2047  0.4665
  843MOL0     C13681   7.623   8.618   8.415 -0.2632  0.0160 -0.1438
  843MOL0     C13682   7.576   8.738   8.485  0.1783 -0.9707 -0.5320
  843MOL0     C13683   7.425   8.737   8.523  0.8792 -0.2902  0.4740
  843MOL0     C13684   7.347   8.808   8.411  0.5768  0.0231 -0.4686
  843MOL0     C13685   7.198   8.779   8.409  0.2938 -0.4412 -0.3726
  843MOL0     C13686   7.138   8.789   8.265  0.1163 -0.9825  0.1891
  843MOL0     N13687   7.123   8.930   8.228  0.2351  0.1247  0.0314
  843MOL0     C13688   7.040   8.977   8.131  0.5173 -0.1722  0.6058
  843MOL0     C13689   7.086   9.102   8.097  0.3888  0.0576  0.7920
  843MOL0     C13690   7.035   9.204   8.006  0.3337  0.1019  0.7967
  843MOL0     C13691   7.153   9.283   7.945 -1.1384 -0.2591  0.3226
  843MOL0     C13692   7.252   9.194   7.861 -0.3293  0.5414 -0.4243
  843MOL0     C13693   7.348   9.293   7.797  0.4054 -0.0457  0.6145
  843MOL0     O13694   7.455   9.217   7.736 -0.3293  0.3581  0.1766
  843MOL0     C13695   7.589   9.230   7.778  0.4204 -0.4532  0.3262
  843MOL0     C13696   7.631   9.261   7.908  0.4113  0.4421  0.4671
  843MOL0     C13697   7.760   9.278   7.948 -0.3538 -0.3689 -0.0173
  843MOL0     C13698   7.766   9.333   8.093 -0.7783  0.5032  0.1076
  843MOL0     C13699   7.860   9.248   7.853 -0.2754  0.9293 -0.7809
  843MOL0     C13700   8.007   9.264   7.872  0.4037 -0.5727 -0.1038
  843MOL0     O13701   8.083   9.233   7.771 -0.3069 -0.0684  0.2559
  843MOL0     C13702   8.227   9.235   7.780  0.0912 -0.5956 -0.0151
  843MOL0     C13703   8.282   9.272   7.651  0.1521 -0.2654  0.1728
  843MOL0     C13704   8.419   9.277   7.632 -0.4780  0.5804  0.0922
  843MOL0     C13705   8.509   9.239   7.740  0.5714  0.1897 -0.2126
  843MOL0     O13706   8.647   9.232   7.746 -0.0750  0.1204  1.1462
  843MOL0     C13707   8.718   9.267   7.626 -0.6114  0.0541 -0.1270
  843MOL0     C13708   8.863   9.229   7.639 -0.6071 -0.3542  0.1442
  843MOL0     C13709   8.890   9.080   7.611  0.2568  0.1244 -0.4837
  843MOL0     C13710   9.038   9.061   7.637  0.0131  0.0371 -0.4460
  843MOL0     C13711   9.073   8.929   7.568  0.1900 -0.1938  0.5397
  843MOL0     C13712   9.219   8.884   7.601 -0.5390  0.0491 -0.8400
  843MOL0     C13713   9.256   8.863   7.754  0.2435  0.7765 -0.0341
  843MOL0     C13714   9.404   8.815   7.749  0.0176 -0.4109  0.6818
  843MOL0    Cl13715   9.438   8.649   7.666  0.6532  0.7992  0.2128
  843MOL0     C13716   8.452   9.207   7.867  0.1469  0.3387  0.1665
  843MOL0     C13717   8.313   9.201   7.884 -0.4017 -0.4001 -0.7073
  843MOL0     O13718   8.048   9.308   7.981  0.4315 -0.3575 -0.5457
  843MOL0     C13719   7.820   9.212   7.719  0.0789  0.0827 -1.0377
  843MOL0     C13720   7.682   9.198   7.685 -0.1869  0.7078  0.3117
  843MOL0     N13721   7.198   9.128   8.173  0.1481  0.5168 -0.2922
  843MOL0     N13722   7.221   9.022   8.250  0.5381  0.6102 -0.2401
  843MOL0     C13723   8.165   8.677   8.131  0.2183 -0.1157  0.1331
  843MOL0     C13724   8.241   8.721   8.021  0.6818  1.3903 -0.7741
  843MOL0     C13725   8.315   8.897   7.604 -0.1020  0.0093  0.1426
  843MOL0     C13726   8.282   8.967   7.485 -0.2735 -0.2586 -0.5543
  843MOL0     C13727   8.372   8.999   7.388 -0.9838 -0.1942 -0.6791
  843MOL0     C13728   8.511   8.948   7.403  0.2842 -0.2042  0.4061
  843MOL0     O13729   8.604   8.963   7.308 -0.3406 -0.6906 -0.1759
  843MOL0     C13730   8.581   9.069   7.212 -1.0055  0.5712  0.1771
  843MOL0     C13731   8.707   9.095   7.119 -0.4952 -0.1445 -0.0690
  843MOL0     C13732   8.831   9.098   7.217 -0.3041  0.0311  0.1679
  843MOL0     C13733   8.944   9.132   7.120 -0.9210  0.1608 -0.4068
  843MOL0     C13734   8.969   9.277   7.080  0.5637  0.1396 -0.4063
  843MOL0     C13735   8.988   9.392   7.051 -0.0143  0.2543 -0.8893
  843MOL0     C13736   8.546   8.881   7.521  0.1177  0.3013  0.2734
  843MOL0     C13737   8.452   8.868   7.621  0.5090 -0.1572 -0.0859
  843MOL0     H13738   8.029   8.955   7.913  2.9410  0.2949 -1.0708
  843MOL0     H13739   7.900   8.891   8.123  0.1351  1.3171 -0.0862
  843MOL0     H13740   7.826   8.801   8.309  2.0750  1.1072  1.4559
  843MOL0     H13741   7.784   8.664   8.198 -1.0445 -1.2517  1.0545
  843MOL0     H13742   7.808   8.518   8.403  0.6972  0.3117  1.2705
  843MOL0     H13743   7.834   8.658   8.494  0.8129  0.0131  0.1105
  843MOL0     H13744   7.588   8.621   8.311 -1.3809  0.1050  0.2169
  843MOL0     H13745   7.594   8.520   8.453 -2.3755  0.4088 -0.6002
  843MOL0     H13746   7.640   8.744   8.574 -0.1936  0.7545 -0.3422
  843MOL0     H13747   7.595   8.836   8.440 -0.2466 -0.3675  0.5586
  843MOL0     H13748   7.386   8.637   8.546 -2.9008  0.7035 -0.9008
  843MOL0     H13749   7.410   8.788   8.618  1.0206 -1.3285  1.0718
  843MOL0     H13750   7.357   8.917   8.419 -0.3367 -0.0033  1.4437
  843MOL0     H13751   7.388   8.778   8.314 -0.6654  2.5078 -1.8874
  843MOL0     H13752   7.181   8.673   8.431 -2.2435 -0.4315 -1.9239
  843MOL0     H13753   7.150   8.846   8.481 -0.1074 -0.8967 -0.2062
  843MOL0     H13754   7.037   8.746   8.259 -0.9046  1.4313 -3.8652
  843MOL0     H13755   7.194   8.731   8.191 -0.6257 -1.4075 -0.0514
  843MOL0     H13756   6.953   8.931   8.085  1.2436  0.4337 -1.4931
  843MOL0     H13757   6.974   9.163   7.925  1.8132  0.5889 -0.6285
  843MOL0     H13758   6.971   9.273   8.061 -1.6497  1.1360 -2.5546
  843MOL0     H13759   7.216   9.327   8.023  0.6387 -2.1167  0.0254
  843MOL0     H13760   7.122   9.361   7.875  3.3186  1.2324 -0.3448
  843MOL0     H13761   7.194   9.143   7.783 -0.3622 -0.1870  0.0620
  843MOL0     H13762   7.313   9.117   7.909  1.7632  2.6395  0.4541
  843MOL0     H13763   7.384   9.364   7.872 -2.6208  0.2556  1.8965
  843MOL0     H13764   7.292   9.355   7.727 -1.7558 -1.0779  1.3485
  843MOL0     H13765   7.551   9.282   7.978 -0.7231  3.4271 -1.5308
  843MOL0     H13766   7.675   9.314   8.151 -0.1569  3.0953  2.0989
  843MOL0     H13767   7.856   9.294   8.143 -0.4085 -2.0779 -2.3115
  843MOL0     H13768   7.781   9.441   8.089  0.7947  0.2789 -2.0127
  843MOL0     H13769   8.212   9.303   7.574  0.0063  1.8869  1.1069
  843MOL0     H13770   8.456   9.287   7.531  0.8300 -2.0049  0.2285
  843MOL0     H13771   8.670   9.228   7.536 -4.1582  2.2149  0.6209
  843MOL0     H13772   8.715   9.376   7.615 -0.4776 -0.0577 -1.5495
  843MOL0     H13773   8.909   9.279   7.553 -1.8737 -2.2152 -1.7543
  843MOL0     H13774   8.912   9.268   7.728  1.1522 -0.0087 -0.9128
  843MOL0     H13775   8.863   9.045   7.511 -0.7760 -1.5747  0.3516
  843MOL0     H13776   8.841   9.015   7.683  1.9921 -1.2647 -0.4886
  843MOL0     H13777   9.108   9.138   7.603 -2.4036  2.5808 -0.0365
  843MOL0     H13778   9.056   9.049   7.745  0.9206 -1.1016 -0.6974
  843MOL0     H13779   9.069   8.945   7.460 -0.8122  0.5995  0.6760
  843MOL0     H13780   8.994   8.861   7.601 -0.7882 -0.2660 -1.7120
  843MOL0     H13781   9.236   8.790   7.550 -1.5425 -0.6999  0.1453
  843MOL0     H13782   9.295   8.955   7.567  1.6686 -1.1492  1.3446
  843MOL0     H13783   9.191   8.787   7.797 -1.6679 -0.8632 -5.0727
  843MOL0     H13784   9.255   8.967   7.788 -0.0015  1.5098 -2.1125
  843MOL0     H13785   9.449   8.832   7.846  1.3783  2.1935 -0.3194
  843MOL0     H13786   9.462   8.890   7.695  1.0050  0.5093  2.9066
  843MOL0     H13787   8.521   9.180   7.947  2.0027 -2.3367 -2.1391
  843MOL0     H13788   8.267   9.171   7.978 -1.4975 -0.7909 -1.3443
  843MOL0     H13789   7.894   9.196   7.642  0.2411  0.3456 -0.9359
  843MOL0     H13790   7.657   9.165   7.585 -0.2160 -0.5265  0.7122
  843MOL0     H13791   8.210   8.598   8.189 -3.0902 -1.0036  1.7478
  843MOL0     H13792   8.336   8.676   7.993  0.5110  0.3788  0.2039
  843MOL0     H13793   8.183   9.009   7.469  0.3831  1.3237 -0.6650
  843MOL0     H13794   8.335   9.039   7.294  0.3901  1.4314 -0.5674
  843MOL0     H13795   8.495   9.044   7.150  0.0772  1.4812 -1.7821
  843MOL0     H13796   8.558   9.167   7.255 -0.6144  1.7601 -2.1823
  843MOL0     H13797   8.700   9.190   7.065  0.9271 -0.6959 -1.3077
  843MOL0     H13798   8.708   9.009   7.051  1.8756 -0.5387  0.3703
  843MOL0     H13799   8.850   8.997   7.254 -0.2130 -0.1253 -0.2946
  843MOL0     H13800   8.825   9.170   7.298  2.1087  0.6455 -0.1319
  843MOL0     H13801   8.937   9.075   7.027 -1.6043  1.9346 -1.5033
  843MOL0     H13802   9.035   9.098   7.170 -2.0295 -3.0038 -0.3186
  843MOL0     H13803   8.995   9.499   7.057 -1.9565  0.4177 -0.9390
  843MOL0     H13804   8.647   8.845   7.533 -0.8857 -2.8697  0.0812
  843MOL0     H13805   8.485   8.817   7.711  0.4234 -3.0142 -1.5504
  844MOL0     O13806   9.847   4.722   6.661 -0.1213  0.0523  0.1039
  844MOL0     C13807   9.880   4.654   6.759  0.1997 -0.2366  0.1076
  844MOL0     O13808   9.792   4.611   6.866 -0.0410  0.4123  1.2821
  844MOL0     C13809   9.664   4.657   6.870 -0.1573 -0.3996 -0.0085
  844MOL0     C13810   9.586   4.717   6.772  0.4831  0.1342 -0.1134
  844MOL0     C13811   9.453   4.754   6.802 -0.2877  0.7518 -0.2378
  844MOL0     C13812   9.392   4.730   6.923  0.0041 -0.2388 -0.5498
  844MOL0     O13813   9.265   4.783   6.936  0.2807 -0.2837  0.4991
  844MOL0     C13814   9.192   4.754   7.051 -0.4611 -0.1870 -0.3908
  844MOL0     C13815   9.049   4.787   7.042  0.4786  0.5312 -0.4428
  844MOL0     C13816   8.984   4.854   7.168  0.3663  0.3377  0.6778
  844MOL0     C13817   8.836   4.809   7.192  0.1775 -0.8154  0.0011
  844MOL0     C13818   8.740   4.861   7.085 -0.2651 -0.2851 -0.0779
  844MOL0     C13819   8.594   4.843   7.125 -0.0819  0.9505  0.2938
  844MOL0     C13820   8.505   4.909   7.019  0.3145  0.5332 -0.5662
  844MOL0     C13821   8.363   4.860   7.033 -1.0183  0.5232  0.6719
  844MOL0     N13822   8.257   4.933   6.954 -0.3184  0.5562 -0.7574
  844MOL0     C13823   8.237   4.923   6.818  0.3441  0.0050 -0.1333
  844MOL0     C13824   8.153   5.020   6.781 -0.4042 -0.0749  0.7295
  844MOL0     C13825   8.092   5.045   6.642 -0.2871  0.8819 -0.0272
  844MOL0     C13826   8.093   5.187   6.601  0.0943 -0.1406  0.4168
  844MOL0     C13827   8.010   5.284   6.681  0.1551  0.4001 -0.1753
  844MOL0     C13828   7.864   5.257   6.688  0.3412  0.8100 -0.2957
  844MOL0     O13829   7.798   5.245   6.566 -0.9853  0.8954 -0.0278
  844MOL0     C13830   7.671   5.198   6.550  0.5614  0.5876 -0.0765
  844MOL0     C13831   7.620   5.127   6.431 -0.9948  0.3227 -0.7947
  844MOL0     C13832   7.493   5.071   6.422 -0.0925 -0.9799 -0.5995
  844MOL0     C13833   7.468   4.983   6.298  0.1993 -0.5837  0.5015
  844MOL0     C13834   7.398   5.079   6.529  0.3811 -0.0119 -0.0831
  844MOL0     C13835   7.253   5.032   6.515 -0.2145 -0.2200 -0.7227
  844MOL0     O13836   7.222   4.914   6.450 -0.1868 -0.2761  0.7343
  844MOL0     C13837   7.086   4.905   6.428  0.5899  0.8481  0.0902
  844MOL0     C13838   7.018   4.790   6.480  0.9359 -0.0914  0.5053
  844MOL0     C13839   6.882   4.766   6.449 -1.4518  0.0244  0.5453
  844MOL0     C13840   6.812   4.865   6.378  0.5895  0.3239 -0.2497
  844MOL0     O13841   6.676   4.857   6.355 -0.1312 -0.0858 -0.2381
  844MOL0     C13842   6.614   4.729   6.363 -0.0616 -0.7935  0.9183
  844MOL0     C13843   6.477   4.736   6.301  0.4816 -0.1532  0.0401
  844MOL0     C13844   6.388   4.615   6.337 -0.4662  0.2982 -0.7206
  844MOL0     C13845   6.243   4.624   6.285 -0.0084  0.7219 -1.4979
  844MOL0     C13846   6.161   4.504   6.343 -0.5736  0.3055  0.2853
  844MOL0     C13847   6.006   4.513   6.332  0.5800  0.5693  0.3578
  844MOL0     C13848   5.942   4.566   6.202  0.2440  0.3537 -0.1500
  844MOL0     C13849   5.812   4.485   6.174 -0.1278  0.4714  0.4258
  844MOL0    Cl13850   5.766   4.568   6.026  0.4055 -0.1185  0.3448
  844MOL0     C13851   6.873   4.983   6.336  0.4958 -0.1068 -0.3277
  844MOL0     C13852   7.009   4.997   6.355 -0.8046 -0.0904 -0.6020
  844MOL0     O13853   7.174   5.109   6.560 -0.0708 -0.7382  0.5814
  844MOL0     C13854   7.450   5.145   6.646  0.4128  0.4547 -0.4270
  844MOL0     C13855   7.582   5.197   6.655  0.5706 -0.5207 -0.2963
  844MOL0     N13856   8.133   5.090   6.899 -0.6056 -0.2725 -0.6110
  844MOL0     N13857   8.187   5.040   7.004 -0.6152  1.1033  0.7252
  844MOL0     C13858   9.472   4.679   7.023  0.1103 -0.2083 -0.2874
  844MOL0     C13859   9.608   4.638   6.998 -0.3213 -0.1509  0.2244
  844MOL0     C13860  10.018   4.608   6.778 -1.7033  0.6686  0.3611
  844MOL0     C13861  10.111   4.626   6.669  0.6294  0.3866  0.6043
  844MOL0     C13862  10.241   4.573   6.681 -0.2671 -1.1993  0.4525
  844MOL0     C13863  10.278   4.497   6.788  0.5608  0.1179 -0.5794
  844MOL0     O13864  10.408   4.439   6.801  0.3646  0.4844  0.1061
  844MOL0     C13865  10.470   4.433   6.924  0.4792 -0.2705  0.4898
  844MOL0     C13866  10.619   4.425   6.883 -0.7664 -0.1519  1.2983
  844MOL0     C13867  10.693   4.345   6.995 -0.6064 -0.6070 -0.0740
  844MOL0     C13868  10.835   4.313   6.962 -0.2935  0.5891  0.1482
  844MOL0     C13869  10.835   4.216   6.855  0.4779  0.7955  0.0492
  844MOL0     C13870  10.834   4.139   6.758 -0.3354 -0.4400  0.6090
  844MOL0     C13871  10.187   4.469   6.892 -0.4419 -0.4431  0.3736
  844MOL0     C13872  10.061   4.528   6.891  0.4343  0.6207  0.5327
  844MOL0     H13873   9.616   4.735   6.668  0.5106 -1.2816 -0.3614
  844MOL0     H13874   9.389   4.795   6.724 -1.9387  0.2592  0.8018
  844MOL0     H13875   9.205   4.650   7.081  1.1978  0.5132  1.6040
  844MOL0     H13876   9.236   4.808   7.136 -2.4520  1.3319 -0.2460
  844MOL0     H13877   9.026   4.861   6.965 -1.8359 -0.5313 -0.8603
  844MOL0     H13878   9.010   4.689   7.014 -0.4390  1.2439 -1.7610
  844MOL0     H13879   9.041   4.816   7.253 -1.0803  1.7529  2.3621
  844MOL0     H13880   8.991   4.963   7.161  0.4329  0.2262 -1.4757
  844MOL0     H13881   8.842   4.700   7.191 -1.6829 -0.9647  0.9712
  844MOL0     H13882   8.790   4.831   7.288  0.8630 -1.5188  0.5013
  844MOL0     H13883   8.751   4.969   7.086 -1.6059 -0.0998  1.8768
  844MOL0     H13884   8.770   4.834   6.983 -0.2745  2.0044 -0.7413
  844MOL0     H13885   8.563   4.738   7.117  1.8021  0.2174  1.8232
  844MOL0     H13886   8.575   4.880   7.227 -2.1555 -0.4600  0.4917
  844MOL0     H13887   8.504   5.017   7.033 -0.1970  0.5869 -1.0133
  844MOL0     H13888   8.541   4.874   6.922  1.4157 -1.2285  0.4201
  844MOL0     H13889   8.324   4.867   7.135 -0.9842  0.2122  0.7076
  844MOL0     H13890   8.366   4.754   7.006  1.0188  0.3574  1.3803
  844MOL0     H13891   8.280   4.851   6.750  0.2023  1.0172 -1.3252
  844MOL0     H13892   8.137   4.977   6.568  1.7088  2.3325 -0.2102
  844MOL0     H13893   7.985   5.022   6.642 -0.1584  0.2428  0.6007
  844MOL0     H13894   8.077   5.201   6.494  4.1144  0.3772 -0.2794
  844MOL0     H13895   8.196   5.223   6.613 -0.0144  0.9333 -1.4553
  844MOL0     H13896   8.008   5.383   6.636 -1.2490  1.4229  1.9391
  844MOL0     H13897   8.059   5.291   6.778  0.5535  0.4941 -0.3841
  844MOL0     H13898   7.822   5.334   6.753 -2.7173 -0.9347 -0.0282
  844MOL0     H13899   7.849   5.164   6.744  1.5371  0.5516 -0.3851
  844MOL0     H13900   7.679   5.128   6.340 -0.7493  3.1726 -0.6851
  844MOL0     H13901   7.538   4.993   6.215 -0.1639 -2.7219 -0.1111
  844MOL0     H13902   7.465   4.882   6.338 -4.0507 -1.0269 -0.4586
  844MOL0     H13903   7.372   5.003   6.249  1.2321  2.2630 -0.5827
  844MOL0     H13904   7.077   4.722   6.542 -2.1986 -0.6815  3.1080
  844MOL0     H13905   6.853   4.666   6.478  1.2110 -1.3766 -1.1804
  844MOL0     H13906   6.670   4.659   6.300 -4.9085 -1.2663 -3.5324
  844MOL0     H13907   6.603   4.690   6.465  0.5181 -0.0600  1.2617
  844MOL0     H13908   6.432   4.826   6.345  1.8809 -0.1512  1.5735
  844MOL0     H13909   6.495   4.754   6.195 -1.0330  0.5243 -0.1223
  844MOL0     H13910   6.378   4.606   6.446 -0.4455  0.5190 -0.7019
  844MOL0     H13911   6.426   4.528   6.282 -2.4590  1.6115 -4.4784
  844MOL0     H13912   6.199   4.722   6.303  1.1993  1.2086 -1.1176
  844MOL0     H13913   6.247   4.611   6.176  0.0282 -0.1349 -1.4035
  844MOL0     H13914   6.183   4.478   6.447  3.1146  0.0470 -0.4203
  844MOL0     H13915   6.204   4.420   6.288  2.0692  1.6008  0.2082
  844MOL0     H13916   5.967   4.411   6.340  0.4645  0.6086  0.2925
  844MOL0     H13917   5.969   4.576   6.413 -1.3533 -0.6271  0.4671
  844MOL0     H13918   6.001   4.578   6.111 -1.5936  1.8780 -1.2087
  844MOL0     H13919   5.913   4.667   6.231  0.3077  0.0580  0.9897
  844MOL0     H13920   5.742   4.486   6.258  0.3397 -0.6372  0.8566
  844MOL0     H13921   5.830   4.378   6.155 -0.0004  0.4256  0.7924
  844MOL0     H13922   6.818   5.069   6.300  1.0965 -0.2229 -1.6011
  844MOL0     H13923   7.061   5.086   6.319 -1.2010 -0.2298 -1.5363
  844MOL0     H13924   7.382   5.152   6.731 -2.0274 -2.4552 -1.9161
  844MOL0     H13925   7.616   5.226   6.753  1.1711 -1.7021 -0.1350
  844MOL0     H13926   9.440   4.668   7.126  0.4119 -0.4874 -0.2202
  844MOL0     H13927   9.681   4.615   7.074 -1.8687 -2.4271  1.1153
  844MOL0     H13928  10.078   4.681   6.582  2.8273 -0.3016 -0.7475
  844MOL0     H13929  10.317   4.585   6.604  0.9245 -1.8046  1.4982
  844MOL0     H13930  10.451   4.527   6.976 -4.0216 -1.4197  1.3045
  844MOL0     H13931  10.441   4.352   6.991  0.1725  2.3867  3.8262
  844MOL0     H13932  10.663   4.525   6.878  2.3647 -1.4401  0.9887
  844MOL0     H13933  10.626   4.387   6.780 -0.6462 -0.7605  1.5314
  844MOL0     H13934  10.641   4.250   7.004 -0.8651 -0.3793  1.0477
  844MOL0     H13935  10.684   4.403   7.088 -2.6891 -1.6770  0.4689
  844MOL0     H13936  10.886   4.285   7.055 -0.7122  2.4690  0.9853
  844MOL0     H13937  10.880   4.408   6.930  2.2017 -0.1688  1.1597
  844MOL0     H13938  10.832   4.070   6.676  0.9497 -0.4181  0.5460
  844MOL0     H13939  10.231   4.402   6.965  1.6391  1.0107  0.5504
  844MOL0     H13940  10.002   4.491   6.975  3.4054 -2.5842  1.4326
  845MOL0     O13941  10.117   3.303   6.794  0.7485  0.3265  0.3040
  845MOL0     C13942  10.231   3.344   6.807  0.5742 -0.4138 -0.1203
  845MOL0     O13943  10.294   3.436   6.724 -0.0592  0.2152  0.0283
  845MOL0     C13944  10.219   3.502   6.631  0.5646  0.6078  0.0017
  845MOL0     C13945  10.105   3.577   6.658  0.6903  0.2435 -0.1694
  845MOL0     C13946  10.029   3.640   6.555 -0.6220  0.0976  0.1517
  845MOL0     C13947  10.081   3.632   6.419  0.8250 -0.3704 -0.8538
  845MOL0     O13948  10.000   3.668   6.308  0.1754 -0.6429 -0.6461
  845MOL0     C13949   9.916   3.775   6.328 -0.3696 -0.9451  0.7118
  845MOL0     C13950   9.767   3.734   6.301 -0.4463 -0.4942  0.1164
  845MOL0     C13951   9.680   3.867   6.297  0.2509  0.1509  0.0578
  845MOL0     C13952   9.540   3.828   6.299 -0.5299 -0.4083 -0.2228
  845MOL0     C13953   9.447   3.929   6.224 -0.5036  0.5496  0.2216
  845MOL0     C13954   9.296   3.900   6.259  0.2331 -0.2137 -0.2338
  845MOL0     C13955   9.206   3.995   6.182  0.3567 -0.1342  0.5331
  845MOL0     C13956   9.062   4.019   6.248  0.5611  0.0460  0.3167
  845MOL0     N13957   9.003   4.131   6.176  0.4017  0.6557 -0.0363
  845MOL0     C13958   8.945   4.109   6.056 -0.3297 -0.0333  0.7038
  845MOL0     C13959   8.849   4.205   6.043 -0.6273  0.3406 -0.7367
  845MOL0     C13960   8.743   4.220   5.948 -0.2849  0.4366 -0.6874
  845MOL0     C13961   8.610   4.282   6.000 -0.6593  0.4708  0.2001
  845MOL0     C13962   8.508   4.299   5.887 -0.0369 -0.0773 -0.1987
  845MOL0     C13963   8.447   4.172   5.833 -0.3843  0.4324 -0.0847
  845MOL0     O13964   8.335   4.116   5.911  0.3903 -0.3698  0.2905
  845MOL0     C13965   8.215   4.192   5.911  0.4810 -0.1307  0.0209
  845MOL0     C13966   8.184   4.297   5.826 -0.0906 -1.3824 -0.3976
  845MOL0     C13967   8.058   4.365   5.829  0.2795  0.1360  0.0278
  845MOL0     C13968   8.020   4.470   5.723 -0.3190 -0.0882  0.3758
  845MOL0     C13969   7.970   4.335   5.934  0.5038  0.1315 -0.5908
  845MOL0     C13970   7.841   4.398   5.962  0.0158 -0.4710 -0.6415
  845MOL0     O13971   7.817   4.511   5.886  0.1731 -0.2028 -0.1229
  845MOL0     C13972   7.693   4.558   5.888 -0.2283 -0.1226  0.1147
  845MOL0     C13973   7.611   4.532   5.783  0.6948  0.3472  0.2045
  845MOL0     C13974   7.491   4.603   5.785  0.1422 -0.2079  0.8160
  845MOL0     C13975   7.450   4.686   5.886  0.0465  0.1778 -0.4381
  845MOL0     O13976   7.316   4.731   5.880 -0.0753  0.2752  0.6658
  845MOL0     C13977   7.306   4.856   5.956  0.5674  0.1487 -0.0755
  845MOL0     C13978   7.176   4.916   5.947  0.0923 -0.3105 -0.6690
  845MOL0     C13979   7.145   4.935   5.794 -0.2111 -0.1655  0.8651
  845MOL0     C13980   6.999   4.971   5.757  0.5967 -0.0610 -0.1212
  845MOL0     C13981   6.981   5.028   5.616 -0.1683  0.1925  0.5345
  845MOL0     C13982   7.047   5.166   5.603 -0.0201 -1.3832  0.6042
  845MOL0     C13983   7.031   5.214   5.457  0.4801 -0.3576 -0.4974
  845MOL0     C13984   7.082   5.353   5.444 -0.4076 -0.2774  0.0400
  845MOL0    Cl13985   7.264   5.339   5.410  0.1107 -0.2683 -0.2158
  845MOL0     C13986   7.537   4.702   5.997 -0.7672  0.6540 -0.7115
  845MOL0     C13987   7.661   4.644   5.992  0.3203  0.0509  0.3215
  845MOL0     O13988   7.775   4.357   6.057  0.6056 -0.1457 -0.1127
  845MOL0     C13989   8.005   4.240   6.028  0.0706 -0.5038  0.4794
  845MOL0     C13990   8.123   4.171   6.014  0.1990  0.2896 -0.1176
  845MOL0     N13991   8.847   4.277   6.159  0.2036 -0.3344 -0.2104
  845MOL0     N13992   8.946   4.239   6.239 -0.0768 -0.1480  0.0266
  845MOL0     C13993  10.201   3.572   6.404 -0.1082  0.5888  0.4970
  845MOL0     C13994  10.276   3.507   6.505 -0.1350  0.4768  0.7208
  845MOL0     C13995  10.308   3.278   6.907  0.9726  0.2633 -0.3621
  845MOL0     C13996  10.253   3.197   7.004 -0.7894 -0.1856  0.0753
  845MOL0     C13997  10.334   3.132   7.098 -0.7035  0.2212 -0.7186
  845MOL0     C13998  10.474   3.153   7.113  0.7656 -0.0736  0.1507
  845MOL0     O13999  10.559   3.100   7.208  0.1129  0.2824  0.1059
  845MOL0     C14000  10.488   3.025   7.318 -0.1351 -1.0110 -0.4024
  845MOL0     C14001  10.594   3.011   7.438  0.0329  0.3612  0.1986
  845MOL0     C14002  10.715   2.933   7.381 -0.2378 -0.4134 -0.0130
  845MOL0     C14003  10.806   2.860   7.479  0.1138  1.0434 -1.1121
  845MOL0     C14004  10.860   2.944   7.587 -0.8370 -1.0438 -0.1713
  845MOL0     C14005  10.899   3.037   7.654 -0.0523  0.1611 -0.7432
  845MOL0     C14006  10.529   3.249   7.026 -0.5019  0.0168  0.5425
  845MOL0     C14007  10.450   3.301   6.920  0.5228  0.1228 -0.4880
  845MOL0     H14008  10.070   3.575   6.760 -2.5775 -0.2916 -1.1806
  845MOL0     H14009   9.934   3.680   6.589 -1.6599 -0.7783 -1.5722
  845MOL0     H14010   9.911   3.809   6.432 -0.7732  0.4377  0.2663
  845MOL0     H14011   9.931   3.859   6.259  0.4077 -1.2259  0.5271
  845MOL0     H14012   9.770   3.684   6.204  1.6503 -0.2732  0.0210
  845MOL0     H14013   9.729   3.657   6.368 -3.0887 -0.9769 -1.7552
  845MOL0     H14014   9.708   3.929   6.382  1.2402 -2.1614  1.5282
  845MOL0     H14015   9.698   3.922   6.204 -3.8152  2.6926  0.5106
  845MOL0     H14016   9.527   3.730   6.251 -1.1200 -1.3905  1.8174
  845MOL0     H14017   9.508   3.818   6.403 -1.2313 -0.3653 -0.4243
  845MOL0     H14018   9.470   4.027   6.266  1.4363  0.2333 -0.0225
  845MOL0     H14019   9.465   3.924   6.116 -1.4615 -0.7435  0.0959
  845MOL0     H14020   9.277   3.798   6.224  0.5276 -0.0893 -0.7714
  845MOL0     H14021   9.281   3.925   6.364  1.5296 -1.5107  0.2849
  845MOL0     H14022   9.247   4.096   6.187 -1.5195  0.8533 -1.7747
  845MOL0     H14023   9.189   3.955   6.082  0.0793  0.1749  0.4541
  845MOL0     H14024   9.077   4.047   6.353  5.4755  1.8988 -0.5931
  845MOL0     H14025   9.000   3.929   6.251  1.5034 -0.6848 -1.0860
  845MOL0     H14026   8.958   4.016   6.002  1.5715  0.1705  0.7431
  845MOL0     H14027   8.786   4.290   5.876 -1.8493  0.3715 -1.7362
  845MOL0     H14028   8.709   4.124   5.907 -3.5421  0.6414  1.1678
  845MOL0     H14029   8.630   4.379   6.047 -1.7460 -0.3475  2.5226
  845MOL0     H14030   8.577   4.221   6.085 -0.7887  1.9469  1.2575
  845MOL0     H14031   8.560   4.346   5.803  1.8598 -1.1913  0.2904
  845MOL0     H14032   8.441   4.379   5.920  0.5528 -0.4946  2.1864
  845MOL0     H14033   8.512   4.084   5.820  0.0963  0.4142  2.1589
  845MOL0     H14034   8.409   4.189   5.731 -2.4986  1.0916  0.7558
  845MOL0     H14035   8.253   4.339   5.754 -0.9475 -2.4828 -1.8995
  845MOL0     H14036   7.931   4.429   5.675 -1.0446 -0.0989  1.6602
  845MOL0     H14037   8.005   4.573   5.758 -2.8145 -0.0014 -0.7658
  845MOL0     H14038   8.092   4.469   5.641  0.1163  2.0699  0.6575
  845MOL0     H14039   7.641   4.464   5.703  0.4399 -0.3638  0.7046
  845MOL0     H14040   7.423   4.584   5.702  0.1352  0.2960  0.6995
  845MOL0     H14041   7.317   4.844   6.064 -0.5947 -2.1099 -0.1448
  845MOL0     H14042   7.375   4.932   5.919 -0.8800  1.0562 -1.0173
  845MOL0     H14043   7.100   4.850   5.990  1.0250 -0.2180  1.2284
  845MOL0     H14044   7.179   5.010   6.003 -3.0593  0.1063 -1.0019
  845MOL0     H14045   7.156   4.842   5.737 -1.1934  0.7593 -0.9074
  845MOL0     H14046   7.215   5.009   5.754  1.6362 -2.8961 -1.3387
  845MOL0     H14047   6.934   4.884   5.763 -2.0750  1.3113 -4.3603
  845MOL0     H14048   6.971   5.051   5.826  3.7002  2.0301 -1.0591
  845MOL0     H14049   6.874   5.046   5.604  0.4602  2.8853 -2.7521
  845MOL0     H14050   7.003   4.948   5.544 -3.2496 -2.0678  1.8998
  845MOL0     H14051   6.998   5.233   5.674 -0.3520 -1.0604  0.0756
  845MOL0     H14052   7.153   5.167   5.631  0.5605 -3.5063 -1.2551
  845MOL0     H14053   6.925   5.217   5.431 -0.3468 -1.2834  2.3729
  845MOL0     H14054   7.088   5.148   5.390  2.1069 -2.4209  2.6842
  845MOL0     H14055   7.067   5.412   5.535 -0.0859 -1.6701  1.0235
  845MOL0     H14056   7.044   5.393   5.349  2.2509  1.5115 -0.3636
  845MOL0     H14057   7.519   4.768   6.081 -0.5347 -1.2261  0.8898
  845MOL0     H14058   7.736   4.657   6.070  0.1390 -0.2658  0.5486
  845MOL0     H14059   7.950   4.234   6.122  1.0402 -0.6986  1.0396
  845MOL0     H14060   8.145   4.089   6.082 -0.4665  1.0190  1.0106
  845MOL0     H14061  10.226   3.574   6.298 -1.0650  1.6692  0.2635
  845MOL0     H14062  10.372   3.462   6.482 -0.0618  0.0050  1.8443
  845MOL0     H14063  10.153   3.164   6.978 -0.7247  1.9587 -3.6423
  845MOL0     H14064  10.292   3.069   7.176 -0.7410  1.1976  0.0653
  845MOL0     H14065  10.401   3.080   7.354 -0.5228 -1.9940  0.1868
  845MOL0     H14066  10.457   2.926   7.284  3.6012 -1.7441 -2.2489
  845MOL0     H14067  10.565   2.952   7.525  0.7246 -1.4855 -0.7455
  845MOL0     H14068  10.615   3.115   7.462  1.1230  0.5840 -1.5047
  845MOL0     H14069  10.782   3.013   7.346  1.7741 -1.8230  0.4432
  845MOL0     H14070  10.681   2.865   7.303 -0.1604 -1.3440  0.7493
  845MOL0     H14071  10.890   2.822   7.420  0.9921  3.1279 -1.2911
  845MOL0     H14072  10.744   2.787   7.531  0.2800  2.0536  0.5818
  845MOL0     H14073  10.923   3.119   7.719 -1.5851 -0.4146  0.6159
  845MOL0     H14074  10.638   3.255   7.022 -0.3537 -2.7131 -2.6848
  845MOL0     H14075  10.499   3.374   6.857 -0.0087  1.5218  0.6626
  846MOL0     O14076   2.320   2.505  10.998 -0.2020  0.3285  0.0840
  846MOL0     C14077   2.291   2.394  10.954 -0.6625  0.8092  0.1479
  846MOL0     O14078   2.169   2.326  10.957  0.1423 -0.3482 -0.7888
  846MOL0     C14079   2.060   2.399  11.003  0.3575 -0.1682 -0.0198
  846MOL0     C14080   2.060   2.479  11.124 -0.5370 -0.4033  0.6827
  846MOL0     C14081   1.940   2.545  11.143 -0.4143  0.4705  0.3156
  846MOL0     C14082   1.830   2.545  11.064  1.2484 -0.4147 -0.3895
  846MOL0     O14083   1.722   2.624  11.112  0.6044 -0.7083 -0.1142
  846MOL0     C14084   1.592   2.610  11.061 -0.5923 -0.7760 -0.5215
  846MOL0     C14085   1.491   2.626  11.182 -0.0073  0.1332  0.0261
  846MOL0     C14086   1.356   2.615  11.125 -0.0810  0.4498  0.3499
  846MOL0     C14087   1.246   2.618  11.231  0.1133 -0.3830  0.8205
  846MOL0     C14088   1.116   2.600  11.163  0.2319 -0.8307 -0.6894
  846MOL0     C14089   1.002   2.619  11.267 -0.3315  0.0436  0.8077
  846MOL0     C14090   0.869   2.561  11.220  0.4598  0.7607  0.3140
  846MOL0     C14091   0.756   2.611  11.318 -0.6938 -0.3651 -0.0887
  846MOL0     N14092   0.626   2.556  11.283  0.5736  0.2838  0.4471
  846MOL0     C14093   0.535   2.606  11.192 -0.0290 -0.4522 -0.2799
  846MOL0     C14094   0.437   2.515  11.175 -0.3973  0.4199 -0.4027
  846MOL0     C14095   0.326   2.521  11.079  0.0352 -0.1689  0.1469
  846MOL0     C14096   0.231   2.645  11.109 -0.8545 -0.4312 -0.3968
  846MOL0     C14097   0.136   2.639  10.990  0.6948 -0.6118  0.2198
  846MOL0     C14098   0.036   2.754  10.997 -0.7607  0.4553  1.2659
  846MOL0     O14099  -0.052   2.749  10.890  0.5683  0.2926 -0.2339
  846MOL0     C14100  -0.184   2.781  10.913 -0.7913 -0.3680 -0.5689
  846MOL0     C14101  -0.227   2.889  10.986  0.2460  0.1148 -0.1362
  846MOL0     C14102  -0.360   2.907  11.024 -0.5185 -0.3955  0.0905
  846MOL0     C14103  -0.387   3.031  11.111  1.6139 -0.0409  0.2596
  846MOL0     C14104  -0.457   2.809  10.991 -0.5707  0.3017  0.5262
  846MOL0     C14105  -0.599   2.814  11.029 -0.3911 -0.0927  0.3365
  846MOL0     O14106  -0.645   2.912  11.111 -0.1861 -0.2384 -0.1960
  846MOL0     C14107  -0.781   2.920  11.121  0.1372 -0.5227 -0.0908
  846MOL0     C14108  -0.854   2.823  11.190 -0.2176  0.5693 -0.2578
  846MOL0     C14109  -0.995   2.836  11.207 -0.5996  1.1511  0.1393
  846MOL0     C14110  -1.062   2.943  11.159 -0.3409 -1.1929  1.1106
  846MOL0     O14111  -1.196   2.942  11.191  0.2646 -0.0870  0.2115
  846MOL0     C14112  -1.234   3.005  11.318  0.5615 -0.7026 -0.2806
  846MOL0     C14113  -1.301   3.143  11.278 -0.4515  0.3679 -0.5596
  846MOL0     C14114  -1.418   3.124  11.171  0.1631  0.6959 -0.3014
  846MOL0     C14115  -1.507   3.248  11.163 -0.0062 -0.5675  0.2775
  846MOL0     C14116  -1.596   3.266  11.275 -0.3355 -0.4596  0.3186
  846MOL0     C14117  -1.696   3.153  11.309  1.3540  0.4381 -0.2033
  846MOL0     C14118  -1.796   3.126  11.196  0.9113 -0.0925  0.1374
  846MOL0     C14119  -1.891   3.251  11.186  0.2771  0.2356  0.2053
  846MOL0    Cl14120  -1.986   3.264  11.342  0.1029 -0.3253 -0.0834
  846MOL0     C14121  -0.995   3.042  11.086  0.4133 -0.4630 -0.5234
  846MOL0     C14122  -0.854   3.031  11.069 -0.1059 -0.1204 -0.4328
  846MOL0     O14123  -0.671   2.728  10.980 -0.4190  0.0496 -0.7058
  846MOL0     C14124  -0.408   2.701  10.911  0.0588  0.3895 -0.0666
  846MOL0     C14125  -0.281   2.686  10.871 -0.4558 -0.1962 -0.0839
  846MOL0     N14126   0.458   2.414  11.269 -0.7303  0.0413 -0.6469
  846MOL0     N14127   0.572   2.438  11.333  0.0661 -0.2609  0.4052
  846MOL0     C14128   1.831   2.458  10.956  0.7566  0.2182  0.0018
  846MOL0     C14129   1.945   2.389  10.923 -0.4904 -0.2718  1.4255
  846MOL0     C14130   2.406   2.319  10.883 -0.2394 -0.1273  0.0483
  846MOL0     C14131   2.515   2.396  10.833 -0.0950 -0.4018 -0.0223
  846MOL0     C14132   2.628   2.339  10.781  0.0832  0.2894 -0.4307
  846MOL0     C14133   2.648   2.198  10.793  0.3569 -0.1394 -0.3541
  846MOL0     O14134   2.768   2.137  10.758 -0.4008 -0.1843  0.1409
  846MOL0     C14135   2.875   2.218  10.722  0.8358 -0.3842  0.9281
  846MOL0     C14136   2.990   2.123  10.728 -0.3402 -0.5227  0.9130
  846MOL0     C14137   3.128   2.167  10.678  0.2034  0.4492  0.2913
  846MOL0     C14138   3.209   2.045  10.621 -0.0959 -1.4031 -0.7671
  846MOL0     C14139   3.330   2.076  10.551 -0.3076 -0.8785  0.3653
  846MOL0     C14140   3.440   2.092  10.503  0.7317  0.5773  0.3885
  846MOL0     C14141   2.543   2.124  10.845  0.4985  0.2271  0.2813
  846MOL0     C14142   2.424   2.182  10.889  0.6440  0.5700 -0.8466
  846MOL0     H14143   2.149   2.487  11.186  0.0968  0.3441 -0.2839
  846MOL0     H14144   1.931   2.611  11.228  0.2180  0.9753  0.0008
  846MOL0     H14145   1.569   2.696  10.999 -0.6109  0.6468  1.3607
  846MOL0     H14146   1.571   2.519  11.004 -3.7020  0.6173 -1.8158
  846MOL0     H14147   1.519   2.554  11.260  0.1563 -2.0875 -1.9703
  846MOL0     H14148   1.502   2.721  11.235  0.9794  0.7528 -1.2585
  846MOL0     H14149   1.340   2.688  11.045 -1.5012 -1.3954 -1.1537
  846MOL0     H14150   1.335   2.520  11.075  1.8579  0.9499 -1.5471
  846MOL0     H14151   1.272   2.550  11.313 -0.9237 -0.5947  0.9925
  846MOL0     H14152   1.239   2.718  11.276 -0.9439  0.9010 -1.9613
  846MOL0     H14153   1.105   2.678  11.086  3.1897  0.4134  0.0182
  846MOL0     H14154   1.122   2.501  11.117  1.3033 -0.1581 -2.1060
  846MOL0     H14155   1.027   2.558  11.354 -0.9055 -0.7626  0.4171
  846MOL0     H14156   0.998   2.726  11.287 -1.7581  0.7287 -2.6109
  846MOL0     H14157   0.843   2.582  11.116  2.2134 -1.8411 -0.7509
  846MOL0     H14158   0.861   2.452  11.215  1.5359  0.7194 -2.3685
  846MOL0     H14159   0.750   2.719  11.326  2.0696 -0.2620  2.5180
  846MOL0     H14160   0.786   2.574  11.417 -0.1180  0.6619  0.1307
  846MOL0     H14161   0.551   2.695  11.132  3.6649 -0.5593  0.3571
  846MOL0     H14162   0.365   2.540  10.979 -1.5600  1.4038 -0.2142
  846MOL0     H14163   0.274   2.425  11.076  1.7848 -1.1472 -0.3659
  846MOL0     H14164   0.277   2.744  11.119 -1.6197 -0.0243 -0.8547
  846MOL0     H14165   0.177   2.619  11.201  0.9700  0.9823  1.1531
  846MOL0     H14166   0.082   2.544  10.996 -1.3146  0.4758  0.4505
  846MOL0     H14167   0.187   2.635  10.894  1.1731  1.7497  0.2977
  846MOL0     H14168   0.090   2.848  10.983 -2.3622  1.7351  3.0436
  846MOL0     H14169  -0.017   2.754  11.093  2.6817  2.3805  3.3431
  846MOL0     H14170  -0.150   2.963  11.004  1.8929 -1.1487 -1.5148
  846MOL0     H14171  -0.463   3.082  11.051  0.8465 -1.9342 -0.4492
  846MOL0     H14172  -0.422   3.006  11.211 -2.1291  2.1961 -0.2906
  846MOL0     H14173  -0.299   3.096  11.110  3.1624 -2.0427 -0.6976
  846MOL0     H14174  -0.801   2.747  11.247 -2.3214 -0.3979  0.5200
  846MOL0     H14175  -1.052   2.761  11.262  3.5385 -1.7458  0.9660
  846MOL0     H14176  -1.312   2.942  11.362 -1.1361  1.5871  0.1983
  846MOL0     H14177  -1.147   3.011  11.383  0.8210  0.2157 -0.6931
  846MOL0     H14178  -1.354   3.166  11.370 -1.6415 -2.2325 -0.5057
  846MOL0     H14179  -1.222   3.209  11.241  0.6314 -1.4777 -1.7232
  846MOL0     H14180  -1.466   3.027  11.186  0.4634 -0.0276 -3.4250
  846MOL0     H14181  -1.373   3.106  11.073  1.0486 -2.7003  0.5763
  846MOL0     H14182  -1.447   3.338  11.148 -0.4762  0.0155  1.7823
  846MOL0     H14183  -1.567   3.246  11.072  1.3949 -2.3268 -0.6751
  846MOL0     H14184  -1.638   3.366  11.267  1.0292  0.2808  1.7003
  846MOL0     H14185  -1.534   3.271  11.366 -0.4610  0.1310  0.3746
  846MOL0     H14186  -1.640   3.060  11.309 -1.2094 -1.2154 -1.3455
  846MOL0     H14187  -1.745   3.163  11.406  0.5253  0.4136 -0.6036
  846MOL0     H14188  -1.846   3.031  11.218  3.8719 -3.0883 -4.4092
  846MOL0     H14189  -1.746   3.098  11.103  0.3752 -0.6243 -0.0020
  846MOL0     H14190  -1.956   3.236  11.100 -0.0479 -0.5315  0.5740
  846MOL0     H14191  -1.845   3.349  11.169 -1.5178  0.7731 -2.0477
  846MOL0     H14192  -1.055   3.126  11.051  0.6092 -0.4454 -0.8181
  846MOL0     H14193  -0.798   3.107  11.017 -0.8051 -0.1539 -1.2632
  846MOL0     H14194  -0.480   2.628  10.877  2.5112 -2.1896 -0.0868
  846MOL0     H14195  -0.249   2.594  10.823 -0.1352  0.4967 -1.2573
  846MOL0     H14196   1.746   2.458  10.889  0.3797  0.2444  0.4742
  846MOL0     H14197   1.944   2.330  10.833  1.8238  1.3141  0.2325
  846MOL0     H14198   2.512   2.504  10.825  0.1456 -0.4617 -1.0111
  846MOL0     H14199   2.706   2.408  10.748  0.7326  0.8682  2.0965
  846MOL0     H14200   2.872   2.255  10.619  0.1940 -2.7632  0.0135
  846MOL0     H14201   2.879   2.299  10.795 -0.0033  0.7256 -0.2063
  846MOL0     H14202   2.961   2.051  10.650 -1.4542  3.0819 -2.3133
  846MOL0     H14203   2.993   2.071  10.824  0.5721  0.2884  1.3362
  846MOL0     H14204   3.175   2.219  10.762 -0.8909  0.3919  0.9664
  846MOL0     H14205   3.100   2.240  10.601 -2.9281 -2.6355 -1.7807
  846MOL0     H14206   3.142   2.001  10.546  0.8442 -1.4008 -1.6225
  846MOL0     H14207   3.233   1.971  10.697  0.8733 -1.2423 -0.9083
  846MOL0     H14208   3.535   2.119  10.462  0.5193  1.2993  0.3622
  846MOL0     H14209   2.557   2.018  10.860  2.4746 -0.1162 -2.9180
  846MOL0     H14210   2.347   2.112  10.920  1.2039 -0.4324 -1.6321
  847MOL0     O14211   7.716  10.949   3.172  0.5043 -0.0934 -0.3338
  847MOL0     C14212   7.817  10.971   3.116 -0.5000 -0.2942  0.0235
  847MOL0     O14213   7.855  10.937   2.992 -0.3222  0.0007  0.4339
  847MOL0     C14214   7.763  10.866   2.911  0.3650 -0.1947  0.2012
  847MOL0     C14215   7.700  10.748   2.955 -0.4461 -0.1988 -0.9531
  847MOL0     C14216   7.603  10.684   2.876  0.3238  0.5601  0.1169
  847MOL0     C14217   7.569  10.738   2.748  0.5772  0.9069  0.8384
  847MOL0     O14218   7.482  10.668   2.664  0.4489  0.0281  0.7644
  847MOL0     C14219   7.400  10.748   2.575  0.4022 -0.2557 -0.4449
  847MOL0     C14220   7.291  10.658   2.496 -0.1619  0.0867 -0.6423
  847MOL0     C14221   7.205  10.580   2.595  0.0080 -0.0370  0.5944
  847MOL0     C14222   7.065  10.562   2.543  0.4673 -0.8313  0.0449
  847MOL0     C14223   6.980  10.452   2.605 -0.4370  0.3136  0.2872
  847MOL0     C14224   6.846  10.445   2.543  0.0202 -0.5134 -0.1736
  847MOL0     C14225   6.769  10.331   2.611  0.8255  0.7085  0.1487
  847MOL0     C14226   6.735  10.357   2.762 -0.4623 -0.2387 -0.3197
  847MOL0     N14227   6.624  10.273   2.818 -0.1984 -0.0237  0.9304
  847MOL0     C14228   6.493  10.288   2.788  0.8955  0.3661 -0.4090
  847MOL0     C14229   6.427  10.212   2.874  0.1047 -0.8580 -0.0650
  847MOL0     C14230   6.274  10.217   2.893 -1.0229 -0.4479  0.3242
  847MOL0     C14231   6.223  10.343   2.954 -0.1070  0.5431 -0.4836
  847MOL0     C14232   6.199  10.324   3.111 -0.0773 -0.9747  0.1394
  847MOL0     C14233   6.323  10.268   3.183  0.1902 -0.1389 -0.1896
  847MOL0     O14234   6.323  10.277   3.325  0.3996  0.0448 -0.7927
  847MOL0     C14235   6.442  10.258   3.389  0.0144  1.3459  0.1414
  847MOL0     C14236   6.452  10.303   3.517 -0.0987 -0.3464  0.6729
  847MOL0     C14237   6.568  10.283   3.597 -0.5945 -0.3565  0.2061
  847MOL0     C14238   6.577  10.370   3.725 -0.3066  0.6052  0.1348
  847MOL0     C14239   6.678  10.208   3.550 -0.2617 -0.4632 -0.2709
  847MOL0     C14240   6.800  10.170   3.633  0.2885 -0.0839  0.2491
  847MOL0     O14241   6.809  10.209   3.756 -0.8425 -0.3271  0.4020
  847MOL0     C14242   6.924  10.185   3.820 -0.5623  0.2883 -0.1987
  847MOL0     C14243   7.045  10.262   3.806  0.2402 -0.1166  0.1812
  847MOL0     C14244   7.153  10.233   3.892  0.0219  0.0202  0.7192
  847MOL0     C14245   7.153  10.123   3.982  0.3666 -0.4025  0.0443
  847MOL0     O14246   7.253  10.101   4.070  0.0531 -0.2657 -0.0351
  847MOL0     C14247   7.331  10.213   4.113  0.3318 -0.2755 -0.0642
  847MOL0     C14248   7.398  10.178   4.240 -0.3797 -0.0313  0.2873
  847MOL0     C14249   7.526  10.090   4.216 -0.1366  0.2680  0.1518
  847MOL0     C14250   7.653  10.178   4.199  1.1907  0.7962  0.1172
  847MOL0     C14251   7.775  10.095   4.138 -0.2690  0.2508 -0.1291
  847MOL0     C14252   7.764  10.005   4.009 -0.1019  0.1700 -0.4988
  847MOL0     C14253   7.678  10.075   3.901 -0.8640  0.4023 -1.0720
  847MOL0     C14254   7.746  10.196   3.843  0.2793 -0.0023  0.1451
  847MOL0    Cl14255   7.643  10.325   3.778 -0.0713  0.5416 -0.0277
  847MOL0     C14256   7.040  10.044   3.991  0.9397 -0.4592  0.4296
  847MOL0     C14257   6.925  10.082   3.913 -0.2278 -0.7345  0.1134
  847MOL0     O14258   6.884  10.099   3.580  0.0360  0.3103  0.5490
  847MOL0     C14259   6.672  10.167   3.415  0.8770  0.0798 -0.0427
  847MOL0     C14260   6.555  10.191   3.333 -0.0496  0.2724 -0.1074
  847MOL0     N14261   6.518  10.156   2.960 -0.5039 -0.0842  0.2872
  847MOL0     N14262   6.635  10.188   2.919 -0.2131  0.5511  0.1953
  847MOL0     C14263   7.634  10.856   2.710 -0.4420  0.1101 -0.1881
  847MOL0     C14264   7.730  10.920   2.799  0.7482 -0.4000 -0.5362
  847MOL0     C14265   7.896  11.077   3.190 -0.5884  0.1022 -0.1830
  847MOL0     C14266   8.038  11.074   3.176  0.4768 -0.5977 -0.7891
  847MOL0     C14267   8.122  11.166   3.238  0.2947 -0.2572 -1.1246
  847MOL0     C14268   8.072  11.274   3.301 -1.0908  0.3555 -0.5665
  847MOL0     O14269   8.162  11.348   3.384  0.2601 -0.2132 -0.0964
  847MOL0     C14270   8.227  11.461   3.311  1.0590 -0.1030  1.1661
  847MOL0     C14271   8.144  11.586   3.297 -0.0232 -0.4371 -0.3243
  847MOL0     C14272   8.114  11.647   3.434 -0.2639  0.0659  0.1558
  847MOL0     C14273   8.012  11.758   3.420  0.1026 -0.8493  0.4752
  847MOL0     C14274   7.880  11.714   3.392  0.4432 -0.4877  1.1387
  847MOL0     C14275   7.767  11.690   3.356  0.0541  1.4065  0.0067
  847MOL0     C14276   7.932  11.286   3.313 -0.2871  0.1645  0.2652
  847MOL0     C14277   7.846  11.185   3.263  0.4455 -0.5143 -0.0257
  847MOL0     H14278   7.733  10.717   3.054  1.1929  2.1570 -0.6943
  847MOL0     H14279   7.557  10.592   2.909 -2.4305  1.8320  0.1086
  847MOL0     H14280   7.353  10.817   2.646 -1.2580  0.7590 -2.4263
  847MOL0     H14281   7.464  10.799   2.503 -1.4595  2.0363 -0.5895
  847MOL0     H14282   7.241  10.743   2.447  1.4660  0.3375 -1.9925
  847MOL0     H14283   7.333  10.591   2.420 -0.8041  0.0390 -0.9587
  847MOL0     H14284   7.249  10.485   2.626 -0.8107 -0.6862 -0.1825
  847MOL0     H14285   7.196  10.642   2.684  2.1188  2.2528 -0.6719
  847MOL0     H14286   7.006  10.652   2.561  1.8843  0.0476  0.4837
  847MOL0     H14287   7.076  10.543   2.436  1.0600 -0.7330  0.0839
  847MOL0     H14288   7.033  10.356   2.601 -0.8922  0.0713 -0.1507
  847MOL0     H14289   6.970  10.479   2.710 -2.2995 -0.6701  0.4234
  847MOL0     H14290   6.793  10.540   2.549  0.7533 -0.1350  0.4270
  847MOL0     H14291   6.852  10.421   2.436 -0.0335  1.5620 -0.6771
  847MOL0     H14292   6.676  10.326   2.553 -1.5077 -0.4405  3.6841
  847MOL0     H14293   6.809  10.233   2.584  0.6616  1.6387 -4.1610
  847MOL0     H14294   6.708  10.463   2.771  1.6762  0.4210 -0.9778
  847MOL0     H14295   6.829  10.351   2.818 -0.5284  1.0507 -0.0340
  847MOL0     H14296   6.449  10.355   2.715 -0.8014  0.8544  0.9905
  847MOL0     H14297   6.240  10.206   2.789  0.7007 -1.7796 -0.1554
  847MOL0     H14298   6.255  10.129   2.956 -0.9974  0.5557  1.7796
  847MOL0     H14299   6.140  10.386   2.898  0.3385 -0.5133 -2.0137
  847MOL0     H14300   6.298  10.423   2.955 -0.9188  1.3106 -0.1597
  847MOL0     H14301   6.111  10.264   3.134  0.1784 -1.2998  0.2834
  847MOL0     H14302   6.182  10.421   3.158  0.2840 -0.5936 -0.5009
  847MOL0     H14303   6.411  10.318   3.143 -0.4785  2.3158  1.2273
  847MOL0     H14304   6.321  10.165   3.147 -3.1660 -0.8176  1.5460
  847MOL0     H14305   6.367  10.365   3.546  2.4558  2.6024  2.5311
  847MOL0     H14306   6.665  10.435   3.717  2.4686 -3.0193 -1.4922
  847MOL0     H14307   6.490  10.437   3.730  0.1392  1.3503 -1.3992
  847MOL0     H14308   6.593  10.320   3.821 -0.6362  0.8182  0.3075
  847MOL0     H14309   7.057  10.354   3.750  1.2351 -0.4305 -0.1520
  847MOL0     H14310   7.249  10.283   3.883  0.7501 -1.5980 -1.7032
  847MOL0     H14311   7.407  10.234   4.036  0.6340  0.8775  0.5328
  847MOL0     H14312   7.266  10.300   4.124  0.4824  0.1353 -1.9390
  847MOL0     H14313   7.430  10.263   4.301 -0.1172 -0.7446  1.1648
  847MOL0     H14314   7.336  10.117   4.307  3.5959 -1.3367  3.1770
  847MOL0     H14315   7.519  10.026   4.127 -2.0425 -0.7426  0.9707
  847MOL0     H14316   7.549  10.025   4.301  0.9968  1.6765  0.9699
  847MOL0     H14317   7.632  10.261   4.131  0.3569  0.0672 -0.5373
  847MOL0     H14318   7.698  10.210   4.293  1.2689 -2.7013  1.4198
  847MOL0     H14319   7.811  10.024   4.213 -0.4816 -1.0268 -1.1873
  847MOL0     H14320   7.859  10.159   4.114  0.8518 -0.6988  1.1023
  847MOL0     H14321   7.864   9.982   3.972  0.8622  1.2117  1.3280
  847MOL0     H14322   7.721   9.908   4.036  2.4093 -0.8685  0.0035
  847MOL0     H14323   7.587  10.105   3.953 -0.9044 -2.3255  0.6335
  847MOL0     H14324   7.657  10.002   3.822  0.1630  1.2980 -2.2151
  847MOL0     H14325   7.814  10.154   3.768  0.0221 -0.7043  0.2956
  847MOL0     H14326   7.812  10.236   3.922 -0.7695  0.2153  0.9319
  847MOL0     H14327   7.037   9.962   4.061  0.7255  0.2879  1.3218
  847MOL0     H14328   6.833  10.024   3.921 -2.6709  2.4020 -2.4953
  847MOL0     H14329   6.749  10.106   3.369 -0.8629 -2.8792  0.7490
  847MOL0     H14330   6.560  10.143   3.236  0.1190 -1.4018  0.6977
  847MOL0     H14331   7.615  10.891   2.610 -0.5157  0.8245  0.0700
  847MOL0     H14332   7.779  11.007   2.756 -3.9263  2.7733 -0.1737
  847MOL0     H14333   8.094  10.995   3.127  1.3643 -0.2912 -0.3027
  847MOL0     H14334   8.229  11.151   3.231  0.6852 -0.6201  3.2738
  847MOL0     H14335   8.313  11.504   3.364 -1.4896  6.5259  0.8777
  847MOL0     H14336   8.258  11.434   3.209 -2.0987  0.7228 -0.1230
  847MOL0     H14337   8.057  11.568   3.234 -0.4143 -1.7518  0.5313
  847MOL0     H14338   8.191  11.669   3.244 -1.5593  0.8351  0.2397
  847MOL0     H14339   8.207  11.691   3.469  0.5439  0.7217 -2.5691
  847MOL0     H14340   8.080  11.572   3.506  1.1916 -3.0859 -2.2080
  847MOL0     H14341   8.047  11.820   3.337  0.3443 -0.8038  0.6110
  847MOL0     H14342   8.005  11.828   3.504  0.3035 -1.4879  1.0279
  847MOL0     H14343   7.677  11.657   3.308  0.6691 -0.3177 -0.0373
  847MOL0     H14344   7.888  11.361   3.377  0.2105  2.1725 -1.6287
  847MOL0     H14345   7.738  11.200   3.270  0.4845 -0.0550 -0.3823
  848MOL0     O14346  10.519   6.653   3.351 -0.3589  0.0382  0.7138
  848MOL0     C14347  10.474   6.738   3.434  0.5236  0.1921  0.0594
  848MOL0     O14348  10.542   6.835   3.503 -0.1416 -0.6467 -0.0499
  848MOL0     C14349  10.666   6.875   3.461 -0.0810  0.2428 -0.6334
  848MOL0     C14350  10.712   6.891   3.330 -0.2135 -0.3604  1.0313
  848MOL0     C14351  10.843   6.933   3.308 -0.4847  0.1791 -0.2283
  848MOL0     C14352  10.931   6.959   3.408 -0.0320 -0.1815 -0.2916
  848MOL0     O14353  11.063   6.994   3.393 -0.1381 -0.0389  0.0269
  848MOL0     C14354  11.105   7.102   3.465 -0.2338  0.5798 -0.0895
  848MOL0     C14355  11.130   7.216   3.367 -0.3896 -0.7421 -0.7468
  848MOL0     C14356  11.017   7.253   3.275 -0.1433 -0.3863  0.4236
  848MOL0     C14357  10.888   7.307   3.341 -0.4173  1.5820  0.1018
  848MOL0     C14358  10.787   7.381   3.251 -0.1223 -0.1754 -0.6362
  848MOL0     C14359  10.725   7.279   3.166 -0.5091  0.0511  0.4046
  848MOL0     C14360  10.617   7.348   3.079 -1.1568 -0.5667  0.1741
  848MOL0     C14361  10.544   7.257   2.982  0.4349  0.1411  0.1900
  848MOL0     N14362  10.419   7.308   2.934 -0.4334 -0.2718  0.2640
  848MOL0     C14363  10.394   7.433   2.877 -0.4001  0.1843  0.1313
  848MOL0     C14364  10.258   7.446   2.868 -0.1407  0.0116  0.4219
  848MOL0     C14365  10.175   7.542   2.797 -0.0861  0.3871  0.0065
  848MOL0     C14366  10.187   7.685   2.838 -0.4028 -0.0664  0.1157
  848MOL0     C14367  10.104   7.771   2.741 -0.7750  0.5305  0.2199
  848MOL0     C14368   9.960   7.724   2.722  0.6152  0.3600 -0.0701
  848MOL0     O14369   9.899   7.835   2.663  0.2029 -0.3631 -1.0749
  848MOL0     C14370   9.761   7.835   2.662  0.2645 -0.3837  1.0058
  848MOL0     C14371   9.669   7.748   2.719 -1.0499 -0.3377 -0.7959
  848MOL0     C14372   9.533   7.761   2.702 -0.0912  0.9603 -0.3158
  848MOL0     C14373   9.441   7.679   2.785 -0.6125 -0.0222 -0.1825
  848MOL0     C14374   9.481   7.863   2.614 -0.5694  0.9414  0.6118
  848MOL0     C14375   9.332   7.882   2.600  1.0157 -0.1793 -0.2524
  848MOL0     O14376   9.253   7.769   2.567  0.4935 -0.6938  0.3309
  848MOL0     C14377   9.118   7.789   2.550  0.8816 -0.0110  0.3868
  848MOL0     C14378   9.073   7.858   2.438  0.0013  0.6927 -1.2951
  848MOL0     C14379   8.936   7.865   2.401  0.6009 -0.1107 -0.0069
  848MOL0     C14380   8.848   7.786   2.473 -0.1153  0.2522  0.1657
  848MOL0     O14381   8.716   7.775   2.457  0.1713  0.3622  0.4705
  848MOL0     C14382   8.655   7.820   2.334 -0.6754  0.1258  0.1824
  848MOL0     C14383   8.496   7.825   2.336 -1.2702 -0.3623  0.3405
  848MOL0     C14384   8.421   7.697   2.340 -0.2320  0.4103 -0.4997
  848MOL0     C14385   8.278   7.710   2.301  0.3774  0.3155  0.5345
  848MOL0     C14386   8.198   7.578   2.328  0.5610 -0.7791 -0.2127
  848MOL0     C14387   8.053   7.572   2.280  0.4194 -0.9225  0.6103
  848MOL0     C14388   8.036   7.558   2.127 -0.4123  0.3752  1.3044
  848MOL0     C14389   7.895   7.509   2.087 -0.9750  0.1971 -0.5090
  848MOL0    Cl14390   7.894   7.489   1.912 -0.3742 -0.1645  0.3651
  848MOL0     C14391   8.893   7.725   2.593  0.0011  0.1857  0.6780
  848MOL0     C14392   9.029   7.729   2.636  0.7225  0.7859 -0.4671
  848MOL0     O14393   9.297   7.998   2.604  0.7166  0.3660 -0.1007
  848MOL0     C14394   9.574   7.950   2.557 -0.9003  0.0853 -0.0737
  848MOL0     C14395   9.715   7.936   2.580  0.6479 -0.1253 -0.4404
  848MOL0     N14396  10.205   7.325   2.925  0.2653  0.2255 -0.3565
  848MOL0     N14397  10.303   7.249   2.966 -0.1293 -0.5373 -0.5229
  848MOL0     C14398  10.875   6.944   3.540  0.3970  0.8211 -0.1926
  848MOL0     C14399  10.747   6.908   3.566 -0.3232  0.9052 -0.0897
  848MOL0     C14400  10.328   6.718   3.464  0.2638  1.0240  0.8028
  848MOL0     C14401  10.246   6.635   3.383  0.2592 -0.1751  0.2279
  848MOL0     C14402  10.108   6.620   3.410  0.1785  0.3018  0.0837
  848MOL0     C14403  10.050   6.695   3.512  0.5006  1.0163 -0.0438
  848MOL0     O14404   9.916   6.666   3.535  0.4151  0.4341 -0.5574
  848MOL0     C14405   9.836   6.775   3.585 -0.1091 -0.7962 -0.3067
  848MOL0     C14406   9.720   6.810   3.498  0.1874  0.2536  0.7134
  848MOL0     C14407   9.621   6.694   3.481  0.6833 -0.9927 -0.5481
  848MOL0     C14408   9.507   6.727   3.378  0.4296 -0.3326  0.1496
  848MOL0     C14409   9.400   6.633   3.406  0.5869  0.4037 -0.2468
  848MOL0     C14410   9.309   6.552   3.421  0.3599 -0.0830 -0.5309
  848MOL0     C14411  10.135   6.781   3.597 -0.0022 -0.8409 -0.1082
  848MOL0     C14412  10.271   6.785   3.576 -0.0587  0.0453 -0.8556
  848MOL0     H14413  10.644   6.865   3.250 -0.7563  1.3483  0.9101
  848MOL0     H14414  10.884   6.942   3.208  3.4484 -1.9973  0.9590
  848MOL0     H14415  11.033   7.130   3.543  0.2640 -1.6661  1.2673
  848MOL0     H14416  11.200   7.086   3.517 -0.5614  0.9069  0.6270
  848MOL0     H14417  11.148   7.307   3.425  1.6606 -1.4715 -0.1583
  848MOL0     H14418  11.221   7.203   3.308 -1.1431  1.3327 -2.5047
  848MOL0     H14419  11.047   7.339   3.213 -3.7769  2.1435  1.8583
  848MOL0     H14420  10.997   7.173   3.203 -2.1312  0.0244  0.4550
  848MOL0     H14421  10.839   7.220   3.386  1.0068  1.2713  1.1480
  848MOL0     H14422  10.914   7.377   3.420 -0.9904  0.4975  1.2758
  848MOL0     H14423  10.717   7.429   3.320 -0.3683 -2.0802  0.5303
  848MOL0     H14424  10.832   7.451   3.181  1.1825 -3.2564 -3.1346
  848MOL0     H14425  10.788   7.243   3.084 -2.5733 -2.4426 -0.2399
  848MOL0     H14426  10.692   7.195   3.229 -0.7251  1.0021  1.5871
  848MOL0     H14427  10.550   7.393   3.154  1.5473 -1.3469  3.2967
  848MOL0     H14428  10.670   7.430   3.031  1.9020 -1.8808  1.1016
  848MOL0     H14429  10.525   7.164   3.037 -0.8935  1.0866  1.4223
  848MOL0     H14430  10.612   7.249   2.897  2.3396  2.5784  1.3706
  848MOL0     H14431  10.469   7.501   2.841 -1.7890  2.7041  1.7159
  848MOL0     H14432  10.198   7.524   2.692 -2.0958  0.1718 -0.4427
  848MOL0     H14433  10.073   7.511   2.821 -0.4645 -0.1093 -2.1268
  848MOL0     H14434  10.292   7.713   2.831  1.1907 -5.0776  0.2673
  848MOL0     H14435  10.152   7.689   2.942 -1.0775 -0.7722 -0.0727
  848MOL0     H14436  10.158   7.766   2.646  1.1330 -4.5416  1.2378
  848MOL0     H14437  10.113   7.876   2.768  1.7765 -0.1216  2.3920
  848MOL0     H14438   9.905   7.699   2.813 -0.0244 -1.0255 -0.7898
  848MOL0     H14439   9.945   7.646   2.646 -1.0945  0.9449 -0.3778
  848MOL0     H14440   9.710   7.666   2.778  0.1198 -0.4527 -1.7162
  848MOL0     H14441   9.496   7.604   2.843  0.5644  3.0624  3.0479
  848MOL0     H14442   9.387   7.743   2.855 -0.0996  2.7648 -2.1732
  848MOL0     H14443   9.371   7.629   2.717 -2.3398  1.4902  0.3964
  848MOL0     H14444   9.151   7.890   2.369 -1.4136  0.4378 -3.0810
  848MOL0     H14445   8.897   7.921   2.317 -0.7780  3.1850  2.5730
  848MOL0     H14446   8.693   7.922   2.327 -1.1509  0.4465  1.9257
  848MOL0     H14447   8.694   7.761   2.250  0.5661  1.0833  0.0582
  848MOL0     H14448   8.470   7.896   2.415  1.0615  0.0460  0.8174
  848MOL0     H14449   8.480   7.881   2.243  2.4040  0.2909 -0.0701
  848MOL0     H14450   8.427   7.660   2.443 -3.5130  1.4960  0.1991
  848MOL0     H14451   8.473   7.637   2.265 -2.2783 -1.3349 -0.6006
  848MOL0     H14452   8.230   7.788   2.361  0.1815 -1.1536  2.3845
  848MOL0     H14453   8.272   7.732   2.194 -0.0036 -0.3710  0.4144
  848MOL0     H14454   8.195   7.565   2.436  1.1727 -2.0223 -0.3296
  848MOL0     H14455   8.260   7.491   2.303 -0.1929 -2.4146  3.0318
  848MOL0     H14456   8.013   7.479   2.322  1.6081 -1.5025  0.4991
  848MOL0     H14457   8.007   7.661   2.324 -0.8712 -0.8274 -0.8276
  848MOL0     H14458   8.105   7.486   2.083  0.1212  1.4127  0.3947
  848MOL0     H14459   8.039   7.659   2.085 -6.4551  1.1010  1.7335
  848MOL0     H14460   7.822   7.587   2.111 -0.7249  0.8184 -1.7419
  848MOL0     H14461   7.874   7.417   2.144  1.0643 -0.4669 -0.7568
  848MOL0     H14462   8.811   7.670   2.637  0.8611 -2.0011 -0.3046
  848MOL0     H14463   9.064   7.665   2.717  0.1809  0.0538 -0.7949
  848MOL0     H14464   9.535   8.035   2.502 -0.6817 -0.7799 -1.6361
  848MOL0     H14465   9.776   8.012   2.532  1.8738  0.3737  1.7786
  848MOL0     H14466  10.933   6.960   3.631  0.1151 -0.1353  0.1715
  848MOL0     H14467  10.709   6.893   3.666  2.1665 -2.9724  0.4964
  848MOL0     H14468  10.302   6.583   3.306 -3.2148 -0.8828 -2.0006
  848MOL0     H14469  10.033   6.556   3.365  0.4858 -1.3596  1.8225
  848MOL0     H14470   9.795   6.751   3.683 -0.2148  0.4992 -0.0160
  848MOL0     H14471   9.896   6.867   3.593 -1.5511  0.0780  0.9083
  848MOL0     H14472   9.756   6.845   3.401 -0.7858 -1.8770 -0.4842
  848MOL0     H14473   9.667   6.894   3.544 -0.7542  0.2069 -0.2324
  848MOL0     H14474   9.575   6.682   3.579 -0.7339  1.5338 -0.8261
  848MOL0     H14475   9.677   6.603   3.457  1.4621 -0.5847 -0.3332
  848MOL0     H14476   9.543   6.723   3.275  0.9617 -0.1754  0.3240
  848MOL0     H14477   9.474   6.830   3.396 -0.1985 -1.1840  5.5579
  848MOL0     H14478   9.231   6.483   3.444 -1.2866  2.6348  3.0408
  848MOL0     H14479  10.105   6.834   3.686 -2.3341  0.9475 -1.8334
  848MOL0     H14480  10.338   6.841   3.641  0.9100  0.6044 -2.2895
  849MOL0     O14481   6.958   5.772  10.779  0.6767  0.4330  0.5501
  849MOL0     C14482   7.043   5.843  10.721  0.1430  0.3351 -0.0419
  849MOL0     O14483   7.017   5.915  10.610 -0.5680 -0.1281  1.0136
  849MOL0     C14484   6.905   5.902  10.540  0.0559  0.4417 -0.1036
  849MOL0     C14485   6.911   5.872  10.407 -0.2186  1.0893  0.2786
  849MOL0     C14486   6.801   5.872  10.323  0.1371 -0.2926  0.5026
  849MOL0     C14487   6.677   5.901  10.378 -0.3713  0.7217 -0.0090
  849MOL0     O14488   6.568   5.908  10.293  0.2382  0.1462 -1.2597
  849MOL0     C14489   6.444   5.945  10.348 -0.6855  0.0431 -0.7147
  849MOL0     C14490   6.342   5.901  10.250  0.3096  0.4576  0.4580
  849MOL0     C14491   6.204   5.933  10.297 -0.5355 -0.5622 -0.5153
  849MOL0     C14492   6.103   5.882  10.196  0.3040 -0.4933  0.0669
  849MOL0     C14493   5.962   5.929  10.210 -0.1218 -0.0622  0.0564
  849MOL0     C14494   5.901   5.871  10.340 -0.0512 -0.1040 -0.6737
  849MOL0     C14495   5.764   5.928  10.363 -0.1780  0.0699 -0.8692
  849MOL0     C14496   5.693   5.850  10.473 -0.8371 -0.4648 -0.2549
  849MOL0     N14497   5.552   5.877  10.501  0.2771  0.8339 -0.4688
  849MOL0     C14498   5.454   5.895  10.408 -0.0834 -0.1101  0.1112
  849MOL0     C14499   5.336   5.909  10.473  0.0209 -0.3241 -0.2635
  849MOL0     C14500   5.205   5.912  10.407 -0.5934 -0.0080 -0.1247
  849MOL0     C14501   5.097   5.828  10.478  0.3135 -0.0044 -0.5562
  849MOL0     C14502   5.128   5.680  10.497  0.8891  0.5984 -0.1560
  849MOL0     C14503   4.989   5.604  10.508 -0.7714 -0.0344 -0.3687
  849MOL0     O14504   4.937   5.601  10.374 -0.3605 -0.0256  0.6142
  849MOL0     C14505   4.822   5.525  10.357 -0.1976  0.0224  0.2844
  849MOL0     C14506   4.771   5.513  10.227 -0.1919  0.7896  0.3497
  849MOL0     C14507   4.651   5.441  10.191  0.3195 -0.4827 -0.5666
  849MOL0     C14508   4.610   5.447  10.050  0.4574 -0.2040  0.4086
  849MOL0     C14509   4.588   5.368  10.284  0.1437  0.0445 -0.2788
  849MOL0     C14510   4.461   5.304  10.263 -0.8997 -0.0766 -0.1345
  849MOL0     O14511   4.355   5.383  10.218  0.6247 -0.1792 -0.4484
  849MOL0     C14512   4.240   5.313  10.220  0.0073  0.2840 -1.0250
  849MOL0     C14513   4.186   5.288  10.098 -0.1455 -0.2378 -0.2784
  849MOL0     C14514   4.059   5.232  10.082  0.8080 -0.6499 -0.4844
  849MOL0     C14515   3.973   5.207  10.197 -0.4296 -0.6934 -0.0801
  849MOL0     O14516   3.848   5.161  10.187  0.0224 -0.2019 -0.0168
  849MOL0     C14517   3.789   5.153  10.058  0.5283 -0.1320  0.2211
  849MOL0     C14518   3.640   5.110  10.061 -0.0105 -0.2478 -0.4562
  849MOL0     C14519   3.549   5.212  10.136  0.5408 -0.0062  0.1644
  849MOL0     C14520   3.507   5.317  10.038  0.6820 -0.6421 -0.5873
  849MOL0     C14521   3.413   5.424  10.113 -0.5994  0.7288 -0.1300
  849MOL0     C14522   3.266   5.372  10.117  0.0828 -0.9877  0.2251
  849MOL0     C14523   3.186   5.484  10.172  0.5180 -0.9757  0.0890
  849MOL0     C14524   3.042   5.444  10.204 -0.3949 -0.0718 -0.1922
  849MOL0    Cl14525   2.931   5.561  10.274  0.4839  0.3610  0.0208
  849MOL0     C14526   4.031   5.217  10.325 -0.4713 -0.5505 -0.1522
  849MOL0     C14527   4.164   5.275  10.338  0.0463  0.3487  0.1786
  849MOL0     O14528   4.454   5.188  10.299  0.6530 -0.3351 -0.3831
  849MOL0     C14529   4.643   5.375  10.418 -0.3175  0.1166  1.0388
  849MOL0     C14530   4.746   5.459  10.454 -0.5848 -0.2312  0.2056
  849MOL0     N14531   5.366   5.922  10.607 -0.1702  0.2127 -0.8094
  849MOL0     N14532   5.493   5.900  10.622  0.3453 -0.5607  0.2584
  849MOL0     C14533   6.672   5.937  10.513 -0.1286 -0.1611 -0.5617
  849MOL0     C14534   6.784   5.951  10.588 -0.2128  0.9448 -0.6893
  849MOL0     C14535   7.185   5.851  10.781 -0.0236  0.1156  0.8226
  849MOL0     C14536   7.215   5.789  10.911  0.1814  0.8940  0.6422
  849MOL0     C14537   7.337   5.814  10.967  0.5195  1.0797 -0.2546
  849MOL0     C14538   7.436   5.890  10.902 -0.3319  0.8749  1.0013
  849MOL0     O14539   7.557   5.907  10.960  0.2912  0.2139 -0.0776
  849MOL0     C14540   7.666   5.982  10.907  0.5624  0.5414  0.5437
  849MOL0     C14541   7.642   6.130  10.928 -0.1801  0.4924  0.4256
  849MOL0     C14542   7.772   6.208  10.901  0.5988  0.1607  0.0835
  849MOL0     C14543   7.887   6.194  11.004 -0.4852  1.0539  0.2903
  849MOL0     C14544   8.002   6.112  10.959  0.4726 -0.6802  0.4660
  849MOL0     C14545   8.093   6.050  10.916 -0.3665 -0.1353  0.1722
  849MOL0     C14546   7.408   5.951  10.772 -1.0544  0.2665 -0.5359
  849MOL0     C14547   7.284   5.927  10.717 -0.3624  0.6408 -0.4023
  849MOL0     H14548   7.011   5.857  10.367 -0.3098 -1.5357  0.8865
  849MOL0     H14549   6.822   5.871  10.217 -0.2926  1.8274  0.3435
  849MOL0     H14550   6.415   5.883  10.434 -1.7726 -0.6609 -1.5559
  849MOL0     H14551   6.437   6.053  10.364 -1.8410 -0.0480 -0.5397
  849MOL0     H14552   6.355   5.929  10.145 -0.9208  1.1455  0.4636
  849MOL0     H14553   6.340   5.792  10.258  0.8468  0.5478  2.1917
  849MOL0     H14554   6.195   5.893  10.399 -0.2651  3.0466  1.0860
  849MOL0     H14555   6.198   6.042  10.312  0.9585 -0.6878  1.5349
  849MOL0     H14556   6.131   5.918  10.097  0.0752 -1.4950 -0.3746
  849MOL0     H14557   6.101   5.773  10.184  0.9248 -0.6551  1.2645
  849MOL0     H14558   5.963   6.038  10.204  1.0685 -0.0688 -0.1431
  849MOL0     H14559   5.896   5.895  10.130 -2.3889  1.2178  1.2689
  849MOL0     H14560   5.905   5.763  10.353  2.4531 -0.2520 -2.1545
  849MOL0     H14561   5.957   5.908  10.426 -0.5915  0.8532 -0.7131
  849MOL0     H14562   5.784   6.031  10.394 -2.3814  0.5473 -0.9040
  849MOL0     H14563   5.707   5.924  10.270  0.6806  1.1351 -1.4635
  849MOL0     H14564   5.748   5.852  10.568 -0.3734 -0.8845 -0.5143
  849MOL0     H14565   5.711   5.744  10.453  0.4672  0.0482 -1.9568
  849MOL0     H14566   5.455   5.868  10.303 -1.7352 -1.4130  0.4037
  849MOL0     H14567   5.174   6.016  10.397 -2.8090 -0.7396 -1.5319
  849MOL0     H14568   5.228   5.880  10.305  0.4711  1.3566 -0.3244
  849MOL0     H14569   4.999   5.854  10.437  1.7187  1.6620 -3.1592
  849MOL0     H14570   5.078   5.868  10.578 -1.4389 -0.0015 -0.8557
  849MOL0     H14571   5.190   5.664  10.586  0.4331  2.1582  0.4796
  849MOL0     H14572   5.171   5.634  10.407 -1.6351 -0.5471 -0.8612
  849MOL0     H14573   4.933   5.661  10.583  1.8774  0.9138  1.0456
  849MOL0     H14574   5.015   5.502  10.538  0.9889  1.0657  2.2578
  849MOL0     H14575   4.838   5.559  10.154 -0.3546 -0.5607 -0.6796
  849MOL0     H14576   4.693   5.452   9.980  0.0172  1.5381 -0.0296
  849MOL0     H14577   4.562   5.353  10.021  0.3355  0.0710 -0.2932
  849MOL0     H14578   4.545   5.535  10.043 -0.9836 -1.2763 -0.3041
  849MOL0     H14579   4.237   5.304  10.004 -1.7267 -1.0648 -1.3230
  849MOL0     H14580   4.013   5.223   9.984 -1.7389 -0.5632  0.6193
  849MOL0     H14581   3.799   5.249  10.007  3.5722 -0.1930  0.5259
  849MOL0     H14582   3.837   5.078   9.994  0.1381  0.8277 -1.2366
  849MOL0     H14583   3.611   5.098   9.956 -1.3003  0.7976 -0.2387
  849MOL0     H14584   3.643   5.015  10.115  1.5785 -0.3842 -0.7312
  849MOL0     H14585   3.610   5.256  10.215  0.6130  0.3554 -0.0881
  849MOL0     H14586   3.467   5.158  10.185  2.1837 -2.5377  0.3119
  849MOL0     H14587   3.588   5.378   9.996 -1.6590  2.4050 -0.9859
  849MOL0     H14588   3.451   5.273   9.955  3.2716 -0.3516 -2.5974
  849MOL0     H14589   3.420   5.522  10.065  2.2772 -1.0715 -3.8847
  849MOL0     H14590   3.446   5.427  10.218  0.6749  1.1324 -0.5214
  849MOL0     H14591   3.241   5.348  10.013  1.4389  2.3102 -0.9966
  849MOL0     H14592   3.264   5.282  10.179  2.1310 -0.2416  1.5085
  849MOL0     H14593   3.197   5.567  10.101 -1.1450  0.2712  1.2268
  849MOL0     H14594   3.236   5.517  10.264  1.3439 -0.4992 -0.5217
  849MOL0     H14595   3.043   5.364  10.279  1.1136  0.2458  0.1481
  849MOL0     H14596   3.000   5.398  10.114  0.4167 -0.7912 -0.2231
  849MOL0     H14597   3.969   5.195  10.411 -1.9276 -2.6810 -1.6425
  849MOL0     H14598   4.212   5.290  10.434  1.7039  1.0624 -0.7079
  849MOL0     H14599   4.585   5.333  10.499 -0.6725 -0.7088  0.3755
  849MOL0     H14600   4.777   5.449  10.558 -0.7901 -1.6921  0.1458
  849MOL0     H14601   6.580   5.964  10.564 -0.3714  0.8943 -1.5135
  849MOL0     H14602   6.771   5.987  10.690  0.3076 -0.5345 -0.0694
  849MOL0     H14603   7.144   5.732  10.969  0.1078  1.0197  0.6745
  849MOL0     H14604   7.349   5.767  11.064 -3.6059  0.3794  0.1255
  849MOL0     H14605   7.757   5.942  10.954 -1.4698 -2.2151  2.5426
  849MOL0     H14606   7.669   5.964  10.799 -2.3502 -1.6206  0.7000
  849MOL0     H14607   7.605   6.154  11.028  1.6432 -2.8115  2.0460
  849MOL0     H14608   7.566   6.155  10.853  1.1633 -0.6705 -1.3938
  849MOL0     H14609   7.746   6.314  10.900  1.6656  0.4226 -0.4912
  849MOL0     H14610   7.807   6.185  10.800  0.8513 -0.8082  0.3769
  849MOL0     H14611   7.842   6.141  11.089 -1.1782  0.2607 -0.5533
  849MOL0     H14612   7.921   6.293  11.035  1.1422  1.0212 -1.2376
  849MOL0     H14613   8.178   6.004  10.871  1.1443  2.4503  0.1943
  849MOL0     H14614   7.478   6.010  10.713 -0.7550  0.4747  0.0175
  849MOL0     H14615   7.253   5.983  10.630  0.5273  1.4185 -0.2361
  850MOL0     O14616   5.437   1.141   6.438  0.0271  0.2333  1.0157
  850MOL0     C14617   5.501   1.165   6.542 -1.1148  0.7794  0.8890
  850MOL0     O14618   5.458   1.135   6.667 -0.1590  0.2770 -0.0183
  850MOL0     C14619   5.331   1.096   6.702  0.0326  0.7489 -0.2402
  850MOL0     C14620   5.268   1.158   6.816 -0.1931 -0.3733  0.8081
  850MOL0     C14621   5.140   1.121   6.858  0.5055  0.2458  0.9501
  850MOL0     C14622   5.068   1.024   6.797 -0.2031 -0.5144  0.1065
  850MOL0     O14623   4.946   1.010   6.861 -0.1255 -0.0961  0.0138
  850MOL0     C14624   4.878   0.895   6.810 -0.1639  0.0500 -0.5092
  850MOL0     C14625   4.748   0.858   6.886 -0.4336 -0.1527 -0.5024
  850MOL0     C14626   4.653   0.769   6.812 -0.4639 -0.2437  0.1439
  850MOL0     C14627   4.541   0.723   6.897  0.5979 -0.0282 -0.3885
  850MOL0     C14628   4.437   0.636   6.834  0.5088 -0.7353 -0.0460
  850MOL0     C14629   4.348   0.707   6.735 -0.0319  0.7336 -0.4171
  850MOL0     C14630   4.211   0.750   6.782  0.2887  0.3627  0.0888
  850MOL0     C14631   4.204   0.836   6.912 -0.5744  0.1140 -0.1091
  850MOL0     N14632   4.056   0.853   6.941 -0.0603  0.1400  0.3141
  850MOL0     C14633   3.975   0.755   6.997 -0.3060 -0.0871 -0.1200
  850MOL0     C14634   3.849   0.777   6.963  0.9270 -1.0736 -0.4421
  850MOL0     C14635   3.717   0.701   6.990  0.5974  0.4061  1.0473
  850MOL0     C14636   3.670   0.710   7.134  0.4194  0.2683  0.4055
  850MOL0     C14637   3.598   0.595   7.194  0.3978  0.4188 -0.3319
  850MOL0     C14638   3.455   0.575   7.149 -0.7516 -0.7151  0.8012
  850MOL0     O14639   3.382   0.677   7.210  0.6064 -0.0167  0.1609
  850MOL0     C14640   3.249   0.683   7.192  0.0264  1.1178  0.2163
  850MOL0     C14641   3.171   0.792   7.237 -0.0827  0.6041  0.2780
  850MOL0     C14642   3.038   0.786   7.232  0.6099 -0.7530  0.0913
  850MOL0     C14643   2.966   0.905   7.296 -0.6213 -0.4493  0.0339
  850MOL0     C14644   2.974   0.678   7.175  0.5822  0.2391 -0.1874
  850MOL0     C14645   2.834   0.671   7.184 -0.4384 -0.5405 -0.6761
  850MOL0     O14646   2.789   0.659   7.314 -0.6517 -0.7434 -0.0600
  850MOL0     C14647   2.655   0.641   7.328  0.8734 -0.8905  0.8250
  850MOL0     C14648   2.589   0.516   7.324  0.2115 -0.4898 -1.2727
  850MOL0     C14649   2.453   0.510   7.336  0.9165 -0.2934 -0.3427
  850MOL0     C14650   2.372   0.621   7.358  0.8518  0.4130  0.0519
  850MOL0     O14651   2.230   0.615   7.362 -0.1501  0.2069 -0.4368
  850MOL0     C14652   2.148   0.730   7.329 -0.3506  0.2885 -0.8504
  850MOL0     C14653   1.994   0.704   7.345  0.7202 -0.1065  0.8376
  850MOL0     C14654   1.926   0.646   7.214 -0.8271  0.4679  0.0906
  850MOL0     C14655   1.917   0.747   7.099 -0.4403 -0.5001 -0.2238
  850MOL0     C14656   1.809   0.710   6.998  0.5764 -0.6025  0.0235
  850MOL0     C14657   1.673   0.721   7.048  0.3534  0.4368  0.2597
  850MOL0     C14658   1.583   0.624   6.981 -0.6474 -0.8928 -0.4035
  850MOL0     C14659   1.563   0.655   6.827  0.3143 -0.0115 -1.0968
  850MOL0    Cl14660   1.463   0.511   6.774  0.0159 -0.2487 -0.0151
  850MOL0     C14661   2.438   0.750   7.357  0.7027  0.5028 -0.2194
  850MOL0     C14662   2.574   0.755   7.346 -0.2912 -0.3864 -0.2163
  850MOL0     O14663   2.769   0.674   7.086 -0.0967 -0.8366  0.6315
  850MOL0     C14664   3.042   0.575   7.116 -0.1871  0.1161 -0.7131
  850MOL0     C14665   3.181   0.579   7.124 -0.6318  0.2785 -0.2506
  850MOL0     N14666   3.842   0.906   6.900  0.3116  0.1032 -0.0530
  850MOL0     N14667   3.967   0.944   6.893 -0.1307 -0.6511 -0.1598
  850MOL0     C14668   5.126   0.962   6.684  0.5524 -0.6675 -0.6013
  850MOL0     C14669   5.248   1.004   6.643 -0.9073 -0.0497  0.2805
  850MOL0     C14670   5.638   1.215   6.534  0.4130  0.5307  0.5138
  850MOL0     C14671   5.734   1.198   6.635  0.4433 -0.2700 -0.0395
  850MOL0     C14672   5.865   1.249   6.628 -0.4748 -0.0412 -0.3607
  850MOL0     C14673   5.905   1.325   6.522  0.3537  0.6423  0.3403
  850MOL0     O14674   6.020   1.394   6.534 -0.4819  0.8560  0.6556
  850MOL0     C14675   6.069   1.484   6.426  0.2167  0.8283 -0.0873
  850MOL0     C14676   6.170   1.578   6.492 -0.4307 -0.6012 -0.9834
  850MOL0     C14677   6.306   1.520   6.542  0.7493  0.8172  0.1863
  850MOL0     C14678   6.415   1.625   6.573  0.4962  0.3460 -0.8063
  850MOL0     C14679   6.544   1.550   6.579 -0.4077  0.2208  0.4762
  850MOL0     C14680   6.652   1.490   6.580  0.2233 -0.8961 -0.7870
  850MOL0     C14681   5.817   1.330   6.414  0.1074  0.0457  0.1334
  850MOL0     C14682   5.686   1.280   6.417  0.3755  1.2399 -0.2151
  850MOL0     H14683   5.315   1.237   6.874  0.1589 -1.6698  2.3742
  850MOL0     H14684   5.095   1.170   6.944 -2.9430  2.9809 -2.0684
  850MOL0     H14685   4.847   0.927   6.710  2.1469  2.2552 -0.6165
  850MOL0     H14686   4.949   0.812   6.816  2.7917  2.5198  2.3569
  850MOL0     H14687   4.763   0.809   6.983 -3.4843  0.2107  0.2577
  850MOL0     H14688   4.695   0.952   6.905 -0.2929  0.1477 -1.5555
  850MOL0     H14689   4.606   0.837   6.740  2.3535  0.1477 -1.4690
  850MOL0     H14690   4.695   0.691   6.747 -4.1803 -1.4276 -1.1279
  850MOL0     H14691   4.594   0.660   6.970  0.5835 -0.6484 -0.9052
  850MOL0     H14692   4.497   0.815   6.937  0.6183  0.8983 -2.3920
  850MOL0     H14693   4.489   0.551   6.788 -0.0673 -1.0003 -0.2099
  850MOL0     H14694   4.376   0.594   6.915  2.2266 -1.7643  0.8073
  850MOL0     H14695   4.400   0.787   6.682 -0.5019  1.3607  0.0563
  850MOL0     H14696   4.330   0.637   6.652 -0.0885  1.5117 -1.0720
  850MOL0     H14697   4.175   0.817   6.703  2.5181  0.1856 -1.1816
  850MOL0     H14698   4.142   0.666   6.788  1.2619 -0.3715  4.2410
  850MOL0     H14699   4.265   0.924   6.890  1.4455 -0.4157  2.6856
  850MOL0     H14700   4.245   0.781   6.997  3.2441 -0.5577 -2.1521
  850MOL0     H14701   4.007   0.657   7.031  2.9923  0.0645 -2.3478
  850MOL0     H14702   3.642   0.736   6.919 -0.3658 -1.1668  1.2269
  850MOL0     H14703   3.731   0.596   6.961 -0.0534  0.7115 -0.4281
  850MOL0     H14704   3.605   0.796   7.152  3.0752  2.0836  2.1089
  850MOL0     H14705   3.755   0.743   7.196 -1.4543  1.3325  2.5554
  850MOL0     H14706   3.595   0.593   7.303  2.0623  2.2401 -0.1986
  850MOL0     H14707   3.650   0.505   7.160 -1.6824 -0.9144 -0.2103
  850MOL0     H14708   3.439   0.473   7.184  2.5680 -1.0145  1.8153
  850MOL0     H14709   3.451   0.581   7.040 -0.4233  1.1489  0.8650
  850MOL0     H14710   3.227   0.875   7.277 -1.7014  0.7855  2.3480
  850MOL0     H14711   2.893   0.873   7.372  0.5543 -1.4152  0.7819
  850MOL0     H14712   3.034   0.973   7.348 -0.0457 -1.9038  1.2598
  850MOL0     H14713   2.915   0.954   7.212 -1.7605  0.1783  1.0516
  850MOL0     H14714   2.651   0.428   7.325 -0.8378 -1.2701  0.7093
  850MOL0     H14715   2.407   0.412   7.332 -1.4778  0.7739 -1.0480
  850MOL0     H14716   2.166   0.816   7.394 -1.1283  1.1387 -1.7260
  850MOL0     H14717   2.156   0.755   7.222 -2.9888  2.7429 -0.5970
  850MOL0     H14718   1.976   0.632   7.425 -3.3957 -0.5064 -0.2291
  850MOL0     H14719   1.934   0.793   7.369  0.7213  0.0959  0.1074
  850MOL0     H14720   1.830   0.602   7.240 -0.8539 -1.5486 -2.8568
  850MOL0     H14721   1.995   0.566   7.185 -0.3110  1.0769 -0.3893
  850MOL0     H14722   1.899   0.845   7.145 -1.3708 -1.5604  1.8002
  850MOL0     H14723   2.014   0.742   7.049 -0.6596 -2.8211 -0.5208
  850MOL0     H14724   1.830   0.608   6.966  0.8059 -0.2922 -0.8416
  850MOL0     H14725   1.829   0.783   6.919  2.0139  1.2876  1.9915
  850MOL0     H14726   1.676   0.713   7.157 -0.4433 -3.3782  0.1542
  850MOL0     H14727   1.642   0.825   7.029 -2.0234 -0.2615 -0.0660
  850MOL0     H14728   1.487   0.633   7.034  0.5486 -0.5832  1.8227
  850MOL0     H14729   1.624   0.524   6.998 -0.2576 -0.7583 -0.5413
  850MOL0     H14730   1.651   0.663   6.763  0.9734  1.6997 -0.0346
  850MOL0     H14731   1.499   0.743   6.825 -1.3862 -1.1862 -1.1027
  850MOL0     H14732   2.380   0.841   7.366 -0.8675 -0.4864  0.2575
  850MOL0     H14733   2.633   0.847   7.350  0.0630 -0.6447  1.4442
  850MOL0     H14734   2.993   0.498   7.057 -1.3174  0.1354  0.1747
  850MOL0     H14735   3.231   0.494   7.078 -0.5713 -0.1591  0.6187
  850MOL0     H14736   5.062   0.886   6.642 -2.0716  2.2957 -2.4615
  850MOL0     H14737   5.290   0.961   6.553 -0.7741  0.0581  0.2915
  850MOL0     H14738   5.697   1.166   6.731 -1.6111 -0.7399 -0.9308
  850MOL0     H14739   5.930   1.240   6.714  0.4478  1.3476 -0.8727
  850MOL0     H14740   6.108   1.416   6.350  1.7228  1.3654  0.1763
  850MOL0     H14741   5.986   1.546   6.394 -1.8113 -1.2518  0.7969
  850MOL0     H14742   6.126   1.624   6.581 -0.0561 -0.1399 -1.0333
  850MOL0     H14743   6.177   1.660   6.420 -0.8733 -1.1806 -1.6953
  850MOL0     H14744   6.333   1.454   6.460 -2.3310 -1.5377  0.8639
  850MOL0     H14745   6.293   1.454   6.628 -0.7712 -2.1971 -2.1763
  850MOL0     H14746   6.395   1.662   6.674  2.2676 -2.8226  0.8370
  850MOL0     H14747   6.410   1.702   6.495 -1.1608  0.9355 -0.1672
  850MOL0     H14748   6.756   1.464   6.569  1.3490  2.7119 -0.1762
  850MOL0     H14749   5.853   1.378   6.324  0.4683  0.1122  0.3112
  850MOL0     H14750   5.630   1.280   6.323  0.0714 -3.5521 -0.2811
  851MOL0     O14751   8.644   3.963   9.484 -0.3299  0.0489 -1.2385
  851MOL0     C14752   8.640   3.967   9.365 -0.6387 -0.0321 -0.0153
  851MOL0     O14753   8.528   3.936   9.292  0.9668 -0.5264  0.3872
  851MOL0     C14754   8.417   3.884   9.341  0.1822 -0.8559 -0.4719
  851MOL0     C14755   8.367   3.764   9.290 -0.3126 -0.0837 -0.3819
  851MOL0     C14756   8.245   3.710   9.329  0.4740 -0.5426 -0.8686
  851MOL0     C14757   8.165   3.782   9.422  0.3498 -0.1915  0.4130
  851MOL0     O14758   8.043   3.724   9.459  0.4437  0.0368  0.5588
  851MOL0     C14759   7.961   3.785   9.561  0.2564  0.9785 -0.5022
  851MOL0     C14760   7.841   3.687   9.567  0.6136 -0.0614  0.3099
  851MOL0     C14761   7.752   3.718   9.686  0.5410  0.1921  0.4816
  851MOL0     C14762   7.619   3.633   9.688  0.2406 -0.4366  0.2957
  851MOL0     C14763   7.538   3.624   9.814 -0.0979  0.0683 -0.3820
  851MOL0     C14764   7.424   3.528   9.818  0.0670  1.4273 -0.7295
  851MOL0     C14765   7.458   3.378   9.783 -0.0060  0.1727  0.1359
  851MOL0     C14766   7.530   3.300   9.893 -0.3500  1.5581  0.8685
  851MOL0     N14767   7.513   3.156   9.867 -0.2263  0.6347 -0.2248
  851MOL0     C14768   7.428   3.062   9.914  0.5320 -0.3021  0.1026
  851MOL0     C14769   7.463   2.941   9.872 -0.2206  0.1173  0.0374
  851MOL0     C14770   7.409   2.810   9.918  0.0588  0.7266  0.0147
  851MOL0     C14771   7.316   2.743   9.816 -0.2412 -0.4680  0.8101
  851MOL0     C14772   7.181   2.835   9.808 -0.0651  0.5093  0.7697
  851MOL0     C14773   7.070   2.761   9.739 -0.1005 -0.2518  0.3386
  851MOL0     O14774   6.986   2.855   9.666  0.0547 -0.7414 -0.1643
  851MOL0     C14775   6.897   2.928   9.738  0.4541 -0.0778  0.2808
  851MOL0     C14776   6.865   2.924   9.875  0.5216  0.5454  0.1333
  851MOL0     C14777   6.771   3.006   9.928 -0.3277 -0.1541 -0.3922
  851MOL0     C14778   6.738   2.977  10.076 -0.2482  0.9348  0.2867
  851MOL0     C14779   6.716   3.112   9.845  0.6125  0.6054  0.0829
  851MOL0     C14780   6.594   3.190   9.875  0.0899 -0.6411  0.7130
  851MOL0     O14781   6.475   3.130   9.887  0.3865 -0.0677  1.4170
  851MOL0     C14782   6.363   3.203   9.868  0.4083  0.2121 -0.7004
  851MOL0     C14783   6.323   3.241   9.743  0.9087  0.6061 -0.9177
  851MOL0     C14784   6.197   3.297   9.722  0.2957 -0.5627  0.3613
  851MOL0     C14785   6.122   3.340   9.829  1.1832  0.5844 -0.2542
  851MOL0     O14786   5.991   3.397   9.821  0.3630  0.2158 -0.7690
  851MOL0     C14787   5.897   3.307   9.774  0.9278 -0.5354 -1.0704
  851MOL0     C14788   5.785   3.389   9.721  0.1515  0.7057  1.2518
  851MOL0     C14789   5.820   3.449   9.584 -0.0029 -0.0620 -0.2870
  851MOL0     C14790   5.695   3.478   9.505 -0.4946  0.2329  0.8870
  851MOL0     C14791   5.717   3.511   9.355 -0.6937  0.5224 -0.3909
  851MOL0     C14792   5.670   3.655   9.323 -0.0028  0.4851  0.6045
  851MOL0     C14793   5.676   3.684   9.177 -0.9118  0.3987 -0.4057
  851MOL0     C14794   5.615   3.825   9.142 -0.3794  0.5092 -0.5538
  851MOL0    Cl14795   5.576   3.830   8.977  0.1791 -0.1164  0.0320
  851MOL0     C14796   6.161   3.305   9.958 -0.6216  0.0135 -0.1876
  851MOL0     C14797   6.281   3.236   9.975  0.8829 -0.2843  0.2768
  851MOL0     O14798   6.609   3.309   9.874 -0.1275 -0.4306 -0.0079
  851MOL0     C14799   6.761   3.123   9.715  0.1158 -0.7252  0.4095
  851MOL0     C14800   6.848   3.026   9.657  0.1170 -0.2895 -0.2268
  851MOL0     N14801   7.573   2.959   9.796 -0.1492  0.7109  0.5718
  851MOL0     N14802   7.599   3.087   9.786 -0.0410 -0.7855  0.2718
  851MOL0     C14803   8.219   3.897   9.477  0.2584 -0.4809 -0.7543
  851MOL0     C14804   8.344   3.948   9.444 -0.8559  0.3448  0.2189
  851MOL0     C14805   8.762   4.010   9.295  0.4815 -0.0293  0.4378
  851MOL0     C14806   8.763   4.013   9.155 -0.8566  0.3513 -0.1379
  851MOL0     C14807   8.873   4.057   9.086 -0.2216 -0.9934  0.0390
  851MOL0     C14808   8.984   4.117   9.154 -0.1715  0.0136  0.1543
  851MOL0     O14809   9.089   4.172   9.083  0.1082  0.4462  0.6496
  851MOL0     C14810   9.198   4.206   9.171  0.1850 -0.1861 -0.2157
  851MOL0     C14811   9.304   4.284   9.091 -0.1276 -0.0548 -0.1476
  851MOL0     C14812   9.374   4.199   8.983  0.3389 -0.0161 -0.3510
  851MOL0     C14813   9.473   4.104   9.050  0.5362  0.1725  0.9872
  851MOL0     C14814   9.537   4.031   8.939  0.2934  0.5545  0.1937
  851MOL0     C14815   9.588   3.961   8.856  0.4997  0.0360 -0.6519
  851MOL0     C14816   8.973   4.125   9.294  0.4834  0.2248 -0.6781
  851MOL0     C14817   8.867   4.061   9.365 -0.6006  0.5527  0.1844
  851MOL0     H14818   8.415   3.697   9.220  0.6205  0.2198 -0.0397
  851MOL0     H14819   8.200   3.620   9.288  0.1106 -1.2071  0.8866
  851MOL0     H14820   8.015   3.766   9.654 -2.1247 -2.0478  0.4242
  851MOL0     H14821   7.935   3.889   9.541 -0.6992  0.8412 -0.0435
  851MOL0     H14822   7.777   3.703   9.480  0.8035  0.2931  0.2363
  851MOL0     H14823   7.879   3.584   9.566 -0.3526 -0.4241 -0.0145
  851MOL0     H14824   7.802   3.710   9.783  1.9196  0.2307 -0.2077
  851MOL0     H14825   7.722   3.823   9.684  2.2047  0.6791  0.1762
  851MOL0     H14826   7.559   3.686   9.614 -1.5443 -1.7837  0.7071
  851MOL0     H14827   7.631   3.528   9.662 -1.2189 -0.4015 -0.6172
  851MOL0     H14828   7.610   3.599   9.893  0.8695 -0.4614 -1.4004
  851MOL0     H14829   7.499   3.725   9.830 -0.0949 -0.2217  1.8034
  851MOL0     H14830   7.386   3.526   9.921  3.5922  2.5430  0.7539
  851MOL0     H14831   7.348   3.572   9.752 -0.9183  1.6543  0.5020
  851MOL0     H14832   7.363   3.328   9.762  0.3352 -0.0741 -0.8846
  851MOL0     H14833   7.507   3.358   9.687  1.2446  0.4808  0.6909
  851MOL0     H14834   7.490   3.331   9.990 -0.2078  3.9664  0.2209
  851MOL0     H14835   7.637   3.323   9.904  0.1320 -0.1648  0.1841
  851MOL0     H14836   7.352   3.084   9.988  0.5372  1.4607 -0.3769
  851MOL0     H14837   7.494   2.743   9.936 -0.4646 -0.3087 -1.2783
  851MOL0     H14838   7.357   2.828  10.013  0.9277  0.0726  0.6358
  851MOL0     H14839   7.290   2.643   9.852 -1.2914  0.0289  1.4887
  851MOL0     H14840   7.374   2.736   9.724  3.5339 -0.9524  2.9893
  851MOL0     H14841   7.215   2.919   9.745  0.1100 -1.3582 -1.7972
  851MOL0     H14842   7.135   2.870   9.900 -0.2963  0.7699  0.5576
  851MOL0     H14843   7.015   2.693   9.805 -3.8557  2.4504  0.3201
  851MOL0     H14844   7.114   2.694   9.665 -0.8170 -1.2828  0.8210
  851MOL0     H14845   6.910   2.855   9.946  0.6920  2.4403  1.9934
  851MOL0     H14846   6.641   3.020  10.104 -0.8923  0.1882 -0.7215
  851MOL0     H14847   6.734   2.871  10.104  0.4576  0.6965 -0.4730
  851MOL0     H14848   6.812   3.024  10.141  0.7494 -1.1838  0.7701
  851MOL0     H14849   6.391   3.226   9.659  0.8083 -2.8748 -0.4965
  851MOL0     H14850   6.160   3.317   9.622  0.6172  0.6335  0.4651
  851MOL0     H14851   5.934   3.242   9.694  1.3802 -1.6880  0.0419
  851MOL0     H14852   5.870   3.244   9.859 -3.1431 -0.4170 -2.0439
  851MOL0     H14853   5.706   3.314   9.707  0.4035  1.0354 -3.5995
  851MOL0     H14854   5.740   3.462   9.790 -3.3297 -0.0697  0.0117
  851MOL0     H14855   5.868   3.371   9.525 -4.6111 -3.0778 -0.5212
  851MOL0     H14856   5.886   3.536   9.595  0.5810 -0.7810  2.8053
  851MOL0     H14857   5.642   3.383   9.497 -0.6183  0.4152 -0.6287
  851MOL0     H14858   5.642   3.558   9.559 -0.3380  0.5550  0.5678
  851MOL0     H14859   5.659   3.444   9.291 -1.0137 -0.0577  0.4913
  851MOL0     H14860   5.822   3.496   9.326 -0.3095 -1.2236  1.6984
  851MOL0     H14861   5.568   3.667   9.362  0.2587 -1.1986  1.9262
  851MOL0     H14862   5.734   3.731   9.369 -0.5707  1.5767 -0.3555
  851MOL0     H14863   5.627   3.604   9.121 -2.0785  0.9376 -0.1795
  851MOL0     H14864   5.777   3.699   9.138 -1.8824 -0.3328 -3.4953
  851MOL0     H14865   5.689   3.904   9.160 -0.3870  0.5378 -0.6486
  851MOL0     H14866   5.531   3.836   9.210  0.3682 -1.5384  0.7825
  851MOL0     H14867   6.102   3.300  10.049 -0.0231 -2.5612  0.1481
  851MOL0     H14868   6.309   3.214  10.077 -0.4473  0.0975  0.7328
  851MOL0     H14869   6.713   3.197   9.651  0.4577  0.6296  1.6939
  851MOL0     H14870   6.876   3.032   9.552 -0.6552 -3.2215 -0.7098
  851MOL0     H14871   8.159   3.955   9.546  2.3441 -1.9462  2.4877
  851MOL0     H14872   8.384   4.041   9.483  2.1353 -1.6555  2.4682
  851MOL0     H14873   8.668   3.987   9.109 -1.2413 -1.7010  1.6769
  851MOL0     H14874   8.865   4.068   8.979  1.3567 -0.0229 -0.0020
  851MOL0     H14875   9.160   4.274   9.248 -1.1419 -3.1735  1.9782
  851MOL0     H14876   9.236   4.114   9.217 -2.7999 -2.0018 -1.0803
  851MOL0     H14877   9.387   4.323   9.152  2.0239 -0.3771 -2.6714
  851MOL0     H14878   9.257   4.373   9.050  1.1328 -0.2241 -2.0687
  851MOL0     H14879   9.429   4.271   8.922 -2.0376  2.9864  0.7770
  851MOL0     H14880   9.305   4.146   8.915  0.6198 -0.1040 -0.5691
  851MOL0     H14881   9.418   4.041   9.120 -1.3781  1.2315  0.4967
  851MOL0     H14882   9.553   4.160   9.099  2.0027 -1.3295  0.4283
  851MOL0     H14883   9.644   3.902   8.788  2.2764 -0.6126  1.2738
  851MOL0     H14884   9.048   4.173   9.356  1.7986 -2.1732 -0.2801
  851MOL0     H14885   8.860   4.062   9.473  0.9087 -1.5340  0.3500
  852MOL0     O14886   9.959   4.008   9.723 -0.2585 -0.4469 -0.6801
  852MOL0     C14887   9.949   3.910   9.645 -1.0617 -0.9487  0.3641
  852MOL0     O14888  10.054   3.833   9.599  0.0588  0.1845  0.0630
  852MOL0     C14889  10.185   3.875   9.613  0.2035 -0.8645  0.8737
  852MOL0     C14890  10.259   3.881   9.498 -0.1239 -0.2163 -0.0703
  852MOL0     C14891  10.398   3.922   9.500  0.0327 -0.5097  0.2047
  852MOL0     C14892  10.454   3.959   9.628  0.1724  0.2556  0.2040
  852MOL0     O14893  10.588   3.984   9.626  0.3335 -0.2168  0.1417
  852MOL0     C14894  10.640   4.025   9.748 -0.6085 -0.2016 -0.2767
  852MOL0     C14895  10.786   4.072   9.732 -0.4292 -0.2022  0.2757
  852MOL0     C14896  10.877   3.949   9.708 -0.2140 -1.0039  0.0228
  852MOL0     C14897  11.023   3.996   9.727  0.5798  0.3875 -0.1612
  852MOL0     C14898  11.123   3.888   9.670 -0.3895  0.0342  0.1575
  852MOL0     C14899  11.267   3.946   9.670 -0.0939  0.2323  0.2154
  852MOL0     C14900  11.365   3.867   9.585 -1.2442 -1.1568  0.5338
  852MOL0     C14901  11.510   3.924   9.616 -0.1904  0.4420 -0.1628
  852MOL0     N14902  11.612   3.860   9.536  0.3570  0.0735 -0.0500
  852MOL0     C14903  11.730   3.930   9.514  0.6818 -0.2622 -0.0781
  852MOL0     C14904  11.815   3.858   9.444 -0.2252 -0.3235 -0.2607
  852MOL0     C14905  11.960   3.899   9.425  0.2215  0.0703 -0.4668
  852MOL0     C14906  12.006   3.860   9.281 -0.3617 -0.8038  0.0492
  852MOL0     C14907  11.945   3.953   9.175  0.2939 -0.2586 -0.4356
  852MOL0     C14908  11.965   3.897   9.031 -0.1887  0.4452 -0.5799
  852MOL0     O14909  11.915   3.992   8.931 -0.8229 -0.9083 -0.0814
  852MOL0     C14910  11.781   3.989   8.894 -0.5163 -0.9930 -0.2792
  852MOL0     C14911  11.750   4.070   8.785 -0.8680  0.5450  0.0496
  852MOL0     C14912  11.623   4.093   8.737  0.5892 -0.2608  0.5279
  852MOL0     C14913  11.604   4.187   8.625  1.1093  0.1812 -0.6544
  852MOL0     C14914  11.520   4.022   8.805  0.1822 -0.0019 -0.2520
  852MOL0     C14915  11.378   4.024   8.771 -0.6197 -0.4505  0.0331
  852MOL0     O14916  11.292   4.021   8.871 -0.0541  0.4545 -0.2803
  852MOL0     C14917  11.163   4.059   8.859  0.2611 -0.1299  0.8254
  852MOL0     C14918  11.129   4.188   8.821 -0.8756  0.4575  0.5401
  852MOL0     C14919  10.998   4.229   8.812  0.4589 -0.2599 -0.3990
  852MOL0     C14920  10.884   4.148   8.850 -0.5026 -0.0947 -0.3172
  852MOL0     O14921  10.758   4.200   8.846  0.0595 -0.5856  0.0660
  852MOL0     C14922  10.653   4.114   8.902  0.0230 -0.3973 -0.2812
  852MOL0     C14923  10.527   4.185   8.928  0.1283 -0.2687 -0.1646
  852MOL0     C14924  10.418   4.097   8.994 -0.7659  0.3780 -0.0218
  852MOL0     C14925  10.307   4.189   9.052  0.4553  0.6519  1.1846
  852MOL0     C14926  10.227   4.110   9.159 -0.1241 -0.3292  0.0473
  852MOL0     C14927  10.105   4.204   9.206  0.4810  1.0554  0.0837
  852MOL0     C14928  10.048   4.149   9.334 -0.7354 -0.0680 -1.1989
  852MOL0     C14929   9.928   4.219   9.398  0.1024 -0.4170 -0.3350
  852MOL0    Cl14930   9.786   4.214   9.298  0.3090 -0.6794  0.5933
  852MOL0     C14931  10.914   4.017   8.889 -0.7887  0.0529 -0.3799
  852MOL0     C14932  11.055   3.976   8.904 -0.5834  0.0880  0.9843
  852MOL0     O14933  11.348   4.029   8.653  0.4500 -0.2604  0.2384
  852MOL0     C14934  11.549   3.927   8.901 -0.4111  0.4747 -0.1179
  852MOL0     C14935  11.681   3.914   8.947  1.0172 -0.4578 -0.4862
  852MOL0     N14936  11.756   3.730   9.426  0.0450 -0.7557  0.1021
  852MOL0     N14937  11.638   3.736   9.477  0.2335 -0.0855 -0.1660
  852MOL0     C14938  10.371   3.934   9.743 -1.3511 -0.3148  0.0093
  852MOL0     C14939  10.239   3.901   9.737 -0.0169 -0.3481  0.5275
  852MOL0     C14940   9.818   3.898   9.578  0.4705 -0.0288 -0.7087
  852MOL0     C14941   9.701   3.945   9.637  0.0619  0.4758 -0.0279
  852MOL0     C14942   9.574   3.912   9.577 -0.2312  0.0097  0.0457
  852MOL0     C14943   9.562   3.844   9.455 -1.5369  0.4355  0.5665
  852MOL0     O14944   9.443   3.811   9.407  0.3002 -0.0272 -0.9439
  852MOL0     C14945   9.413   3.775   9.268 -0.2244 -0.8982  0.1717
  852MOL0     C14946   9.260   3.776   9.252  0.9737 -0.0272  0.2067
  852MOL0     C14947   9.177   3.659   9.324 -0.6111 -0.3666  0.8509
  852MOL0     C14948   9.034   3.702   9.339 -0.5201 -0.2171 -0.5068
  852MOL0     C14949   8.950   3.703   9.222  0.1984 -0.1081  0.1774
  852MOL0     C14950   8.867   3.712   9.138  0.1207 -0.1347  0.5117
  852MOL0     C14951   9.682   3.798   9.395  0.2928  0.3588 -0.2135
  852MOL0     C14952   9.805   3.826   9.458  0.5713  0.4532 -0.4892
  852MOL0     H14953  10.215   3.861   9.401 -0.2461  0.8483 -0.2480
  852MOL0     H14954  10.452   3.933   9.407  1.6470  1.4832  1.2872
  852MOL0     H14955  10.583   4.105   9.796  1.4100  0.4876  1.1048
  852MOL0     H14956  10.630   3.951   9.828  0.8610  4.0528  4.3939
  852MOL0     H14957  10.795   4.134   9.642 -0.1183  0.1809  0.5703
  852MOL0     H14958  10.818   4.130   9.819  1.6436 -0.3124 -0.3575
  852MOL0     H14959  10.848   3.861   9.767  0.8317 -1.7420 -0.5474
  852MOL0     H14960  10.860   3.912   9.606 -1.5903 -0.5706  0.0612
  852MOL0     H14961  11.034   4.092   9.678  0.0405  1.1367  1.1353
  852MOL0     H14962  11.044   4.014   9.833  1.0471 -0.6063 -0.0746
  852MOL0     H14963  11.111   3.801   9.735 -1.2968 -0.3414 -0.4894
  852MOL0     H14964  11.087   3.848   9.574 -0.2834 -0.6324  0.3855
  852MOL0     H14965  11.284   4.043   9.622 -0.0180 -0.3317 -0.9244
  852MOL0     H14966  11.291   3.955   9.777 -0.7965  1.9098  0.2567
  852MOL0     H14967  11.358   3.760   9.606 -0.8899 -1.2619  0.1183
  852MOL0     H14968  11.335   3.878   9.481 -2.0400  0.3125  0.8892
  852MOL0     H14969  11.535   3.909   9.722 -2.5715  0.4362  0.4640
  852MOL0     H14970  11.506   4.032   9.603  0.2938  0.3310 -1.3499
  852MOL0     H14971  11.762   4.028   9.548 -1.3832  0.5544 -0.3585
  852MOL0     H14972  11.975   4.006   9.441  2.5960  0.1628 -2.7043
  852MOL0     H14973  12.016   3.850   9.505 -0.4214  1.4425  0.8709
  852MOL0     H14974  11.979   3.755   9.264  1.1646 -1.0665 -0.9444
  852MOL0     H14975  12.115   3.869   9.271 -0.4595  2.5307  0.7742
  852MOL0     H14976  11.988   4.054   9.176  0.7326 -0.4374  0.1538
  852MOL0     H14977  11.839   3.965   9.197  0.3629  0.9012 -0.6581
  852MOL0     H14978  11.923   3.797   9.017 -0.4187  0.8078 -2.7748
  852MOL0     H14979  12.074   3.892   9.027 -0.0124  1.2117  1.5101
  852MOL0     H14980  11.833   4.128   8.745 -1.3747  2.4518  1.5817
  852MOL0     H14981  11.578   4.290   8.654  3.0413  0.2855  0.9434
  852MOL0     H14982  11.696   4.189   8.565  1.5710 -0.8367  0.0096
  852MOL0     H14983  11.530   4.136   8.563  0.6583  0.2070 -0.1461
  852MOL0     H14984  11.217   4.244   8.789 -0.0278 -1.4598 -0.6157
  852MOL0     H14985  10.972   4.329   8.780 -1.6317 -0.5795  0.1206
  852MOL0     H14986  10.626   4.025   8.844 -1.7714  0.6011 -1.0389
  852MOL0     H14987  10.688   4.079   9.000  2.3077 -1.1170 -1.2896
  852MOL0     H14988  10.558   4.260   9.002  1.9474 -1.2963  0.1782
  852MOL0     H14989  10.490   4.225   8.834  1.7871  0.9227 -0.3539
  852MOL0     H14990  10.463   4.020   9.058  1.4777  0.8482 -0.9292
  852MOL0     H14991  10.382   4.043   8.906  4.5306 -0.6544 -1.9564
  852MOL0     H14992  10.353   4.276   9.097  1.0011  0.8252  0.3135
  852MOL0     H14993  10.237   4.223   8.975  2.1655 -0.6859 -1.0812
  852MOL0     H14994  10.287   4.077   9.245 -1.8953 -0.5626  1.2354
  852MOL0     H14995  10.188   4.019   9.113  2.6119 -0.6474 -1.9102
  852MOL0     H14996  10.132   4.309   9.224  0.8175  0.9934 -0.0525
  852MOL0     H14997  10.030   4.200   9.126  2.7685 -1.1477 -2.1408
  852MOL0     H14998  10.126   4.155   9.411 -1.5102  1.3727 -0.4931
  852MOL0     H14999  10.012   4.050   9.306 -2.1811 -0.2442  0.9640
  852MOL0     H15000   9.945   4.324   9.424 -1.4556  0.3402 -2.1366
  852MOL0     H15001   9.902   4.156   9.484  0.5580 -1.0978 -0.6806
  852MOL0     H15002  10.845   3.941   8.926 -1.1965  0.4935 -0.2121
  852MOL0     H15003  11.089   3.879   8.940 -2.1566 -0.5303  0.8789
  852MOL0     H15004  11.474   3.861   8.943  1.6606 -0.8903  1.6634
  852MOL0     H15005  11.689   3.849   9.033  0.5388  0.4493  0.2543
  852MOL0     H15006  10.427   3.929   9.835  3.1913 -2.9535 -2.5510
  852MOL0     H15007  10.182   3.883   9.827  1.6262  0.8479  1.8546
  852MOL0     H15008   9.700   3.996   9.733  0.9346  1.7961 -0.6916
  852MOL0     H15009   9.477   3.931   9.623 -1.7216 -2.0209 -2.0178
  852MOL0     H15010   9.472   3.840   9.203 -3.0273  1.9488  0.1917
  852MOL0     H15011   9.452   3.674   9.254  2.3882 -0.0209  0.5992
  852MOL0     H15012   9.232   3.766   9.147 -3.1050 -0.0542  1.1419
  852MOL0     H15013   9.223   3.875   9.282 -1.9798 -0.9197 -0.1886
  852MOL0     H15014   9.222   3.640   9.422 -0.2371  0.5658  0.8626
  852MOL0     H15015   9.188   3.558   9.282  1.6201  0.1184  0.1845
  852MOL0     H15016   9.039   3.805   9.377  1.7130 -0.0593 -1.0971
  852MOL0     H15017   8.992   3.637   9.416 -0.1140  0.2217  0.0921
  852MOL0     H15018   8.781   3.731   9.077 -1.2265 -3.5936  1.0813
  852MOL0     H15019   9.681   3.752   9.297  1.1646  0.2321 -0.1646
  852MOL0     H15020   9.898   3.799   9.407  2.1843  3.7697  0.4121
  853MOL0     O15021   9.543  10.123   1.456 -1.0730 -0.5168  0.0561
  853MOL0     C15022   9.604  10.033   1.516 -0.3019  0.6711  0.4506
  853MOL0     O15023   9.550   9.909   1.553  0.0610  0.6104  0.4600
  853MOL0     C15024   9.440   9.857   1.484  0.2337 -0.5773  0.0375
  853MOL0     C15025   9.461   9.715   1.471 -0.1259  0.5607 -1.0580
  853MOL0     C15026   9.354   9.641   1.413 -0.2355 -0.2892 -0.1309
  853MOL0     C15027   9.249   9.700   1.354  0.1222 -0.5155 -0.0200
  853MOL0     O15028   9.154   9.620   1.300 -0.6063 -0.2419  0.3675
  853MOL0     C15029   9.119   9.659   1.167 -0.1386  0.5192 -0.7287
  853MOL0     C15030   9.132   9.532   1.088  0.3459  0.6515 -0.0526
  853MOL0     C15031   9.026   9.424   1.127  0.1673  0.1264  0.2619
  853MOL0     C15032   8.980   9.341   1.011  0.3322  0.7117  0.2990
  853MOL0     C15033   8.871   9.239   1.047 -0.0235 -0.0051  0.8664
  853MOL0     C15034   8.826   9.154   0.936  0.9601 -0.3570  0.0289
  853MOL0     C15035   8.711   9.231   0.864  0.2556  0.5006 -0.0803
  853MOL0     C15036   8.686   9.142   0.735  0.4082 -0.9255 -0.5905
  853MOL0     N15037   8.621   9.015   0.760 -0.3554  0.0891  0.4359
  853MOL0     C15038   8.675   8.891   0.746  0.3297 -0.0360 -0.6833
  853MOL0     C15039   8.574   8.803   0.782 -0.0469 -0.1531 -0.6020
  853MOL0     C15040   8.592   8.654   0.774 -0.2815 -0.7059  0.4426
  853MOL0     C15041   8.461   8.568   0.772  0.4724 -0.5443 -0.3079
  853MOL0     C15042   8.483   8.414   0.770 -0.4373 -0.7024  0.3783
  853MOL0     C15043   8.351   8.340   0.785 -0.7377 -0.0591  0.5774
  853MOL0     O15044   8.274   8.366   0.670 -0.6177 -0.1489  1.3085
  853MOL0     C15045   8.154   8.300   0.650 -0.2858  0.3881  0.9682
  853MOL0     C15046   8.087   8.212   0.745 -0.7602  0.2778  0.8190
  853MOL0     C15047   7.973   8.142   0.714  0.2611 -0.0503  0.0705
  853MOL0     C15048   7.925   8.051   0.824 -0.1548 -0.6411  0.0793
  853MOL0     C15049   7.904   8.157   0.594 -0.3478 -0.1022  0.2336
  853MOL0     C15050   7.765   8.095   0.564  0.1876 -0.4222  0.7786
  853MOL0     O15051   7.712   8.127   0.441  0.8333 -0.5669 -0.5840
  853MOL0     C15052   7.589   8.078   0.399  0.2338  0.4136  0.5258
  853MOL0     C15053   7.511   8.175   0.337 -0.3168  0.0588  0.0545
  853MOL0     C15054   7.384   8.136   0.273 -0.0732 -0.3156  0.0302
  853MOL0     C15055   7.326   8.007   0.292 -0.2246  0.1798 -0.5772
  853MOL0     O15056   7.208   7.958   0.239  0.4421  0.1686 -0.1853
  853MOL0     C15057   7.136   8.044   0.151 -0.2706 -0.5265 -0.1601
  853MOL0     C15058   7.009   7.977   0.104 -0.3053  0.7442 -0.4596
  853MOL0     C15059   6.907   7.957   0.214  0.7912  0.3121  0.4636
  853MOL0     C15060   6.799   7.864   0.151 -0.6742 -0.4477  0.0076
  853MOL0     C15061   6.702   7.808   0.258 -0.1676  0.1120 -1.3757
  853MOL0     C15062   6.625   7.683   0.204  0.1358  0.0029 -0.0194
  853MOL0     C15063   6.531   7.618   0.305  0.7823  0.2158 -0.2549
  853MOL0     C15064   6.406   7.701   0.347 -0.2142 -0.9253  0.3572
  853MOL0    Cl15065   6.291   7.733   0.213 -0.4690 -0.4237 -0.2859
  853MOL0     C15066   7.405   7.911   0.364  0.4471  0.2584 -0.5134
  853MOL0     C15067   7.538   7.943   0.412  0.5122 -0.2761  0.3526
  853MOL0     O15068   7.711   8.020   0.643  0.2907 -0.0735 -0.6642
  853MOL0     C15069   7.967   8.243   0.502  0.2377 -0.3972 -0.1730
  853MOL0     C15070   8.091   8.308   0.531  0.7249 -0.4263  0.1696
  853MOL0     N15071   8.461   8.877   0.823 -0.8217 -0.7164 -0.5274
  853MOL0     N15072   8.495   9.006   0.808  0.3307  0.4413  0.6855
  853MOL0     C15073   9.233   9.840   1.368 -1.0989  0.6539 -0.3626
  853MOL0     C15074   9.330   9.920   1.429 -0.1838  0.9998  0.6027
  853MOL0     C15075   9.723  10.067   1.594 -0.5042  0.4420 -1.4597
  853MOL0     C15076   9.739  10.187   1.658  0.0743  0.0790  0.1779
  853MOL0     C15077   9.849  10.212   1.740 -0.6701 -0.3815  0.2159
  853MOL0     C15078   9.954  10.116   1.756 -0.5827 -0.0075 -0.5845
  853MOL0     O15079  10.070  10.141   1.820  0.5602  0.4588  0.5288
  853MOL0     C15080  10.088  10.266   1.874 -0.6457 -0.1088  0.0798
  853MOL0     C15081  10.234  10.278   1.932 -1.0560 -0.0731 -0.0225
  853MOL0     C15082  10.341  10.306   1.820  0.9887  0.6745  0.0182
  853MOL0     C15083  10.474  10.360   1.863 -0.3623  0.1683 -0.7958
  853MOL0     C15084  10.541  10.271   1.964  0.1278 -0.2524 -0.1519
  853MOL0     C15085  10.586  10.202   2.056  0.7763  0.5189 -0.8301
  853MOL0     C15086   9.939   9.996   1.689  0.4954 -0.6443 -0.2181
  853MOL0     C15087   9.825   9.964   1.607  0.1105 -0.0323 -0.7036
  853MOL0     H15088   9.551   9.668   1.509 -0.0757  1.0276 -0.5840
  853MOL0     H15089   9.358   9.533   1.405  1.8382 -0.2120 -0.6839
  853MOL0     H15090   9.018   9.703   1.168 -1.0488 -1.4703  0.4827
  853MOL0     H15091   9.190   9.730   1.123  2.3519 -2.1059 -1.2594
  853MOL0     H15092   9.121   9.556   0.982  1.0819 -2.1265 -0.8444
  853MOL0     H15093   9.234   9.495   1.100  0.8596  1.5353 -1.3619
  853MOL0     H15094   9.074   9.366   1.206 -0.0205  0.2239  0.4488
  853MOL0     H15095   8.943   9.478   1.173  2.0622  2.4445  1.1631
  853MOL0     H15096   8.937   9.404   0.932  1.6074  1.0305 -0.1751
  853MOL0     H15097   9.062   9.279   0.973 -1.2549 -1.0897 -0.3039
  853MOL0     H15098   8.913   9.181   1.129  3.7484  1.2493  0.0354
  853MOL0     H15099   8.781   9.282   1.094 -1.7656 -0.6651 -1.6666
  853MOL0     H15100   8.908   9.139   0.865 -0.0148  0.1139 -1.2222
  853MOL0     H15101   8.787   9.056   0.966 -0.2342  0.0303 -0.2104
  853MOL0     H15102   8.621   9.243   0.925  0.7815  1.1408  0.6004
  853MOL0     H15103   8.731   9.333   0.830  1.6613  0.0386 -0.7149
  853MOL0     H15104   8.776   9.143   0.673  0.6798  3.6740 -0.4558
  853MOL0     H15105   8.615   9.194   0.670  1.0621 -1.2099 -1.5528
  853MOL0     H15106   8.779   8.869   0.724 -0.4729 -3.0493 -2.0083
  853MOL0     H15107   8.645   8.631   0.682 -0.8930 -0.8876  0.1320
  853MOL0     H15108   8.660   8.624   0.854  0.7967 -2.2846 -1.0044
  853MOL0     H15109   8.405   8.599   0.683 -2.3015 -1.4758  1.0078
  853MOL0     H15110   8.404   8.595   0.861  0.9679 -0.0186 -0.1425
  853MOL0     H15111   8.550   8.389   0.853 -0.9952 -0.2784  0.9719
  853MOL0     H15112   8.534   8.388   0.677  1.6442  1.8823  0.6601
  853MOL0     H15113   8.292   8.378   0.869  1.8012  3.7316  0.9273
  853MOL0     H15114   8.369   8.232   0.794 -0.5070  0.0967  2.4037
  853MOL0     H15115   8.141   8.197   0.838  0.5373  0.5329  0.1307
  853MOL0     H15116   7.855   8.088   0.900  2.8673 -0.6114  3.1088
  853MOL0     H15117   7.893   7.953   0.787  0.0623 -2.2190  3.5845
  853MOL0     H15118   8.015   8.026   0.882  1.3512 -0.7026 -2.1623
  853MOL0     H15119   7.552   8.276   0.327 -2.4637  1.3190  2.6990
  853MOL0     H15120   7.327   8.215   0.224  2.8554  1.7895 -0.2951
  853MOL0     H15121   7.107   8.127   0.216  0.5743 -0.2711 -0.0993
  853MOL0     H15122   7.192   8.093   0.070 -0.1063  0.3510  0.4707
  853MOL0     H15123   6.967   8.039   0.025  0.3002  0.6789 -0.8381
  853MOL0     H15124   7.034   7.877   0.066 -0.1615 -1.3302  4.3230
  853MOL0     H15125   6.856   8.048   0.248  1.5460  0.9610 -0.1062
  853MOL0     H15126   6.960   7.914   0.300 -0.4790  0.9602  1.6110
  853MOL0     H15127   6.743   7.912   0.071  1.0409  2.4925  0.4200
  853MOL0     H15128   6.845   7.774   0.109  1.4891  0.3793  0.4780
  853MOL0     H15129   6.636   7.881   0.306 -2.3542 -2.4780 -0.1264
  853MOL0     H15130   6.770   7.776   0.337  0.4492  2.4191 -0.9128
  853MOL0     H15131   6.568   7.714   0.117 -0.0924  2.4003  0.9169
  853MOL0     H15132   6.686   7.601   0.164 -1.6462 -0.8109 -1.1811
  853MOL0     H15133   6.587   7.612   0.398  1.1586 -0.0206 -0.4951
  853MOL0     H15134   6.497   7.518   0.278  2.2703 -0.4412  0.1958
  853MOL0     H15135   6.431   7.801   0.383 -2.2210  0.1200 -0.9587
  853MOL0     H15136   6.339   7.652   0.418 -0.7916 -2.8471 -1.4314
  853MOL0     H15137   7.385   7.806   0.380 -1.6755  0.7419  0.2201
  853MOL0     H15138   7.598   7.863   0.454 -1.6893 -1.6493  0.9859
  853MOL0     H15139   7.922   8.264   0.405  0.3479  0.0057 -0.1357
  853MOL0     H15140   8.136   8.369   0.453 -0.7686 -1.0449 -1.2408
  853MOL0     H15141   9.143   9.894   1.341  0.2046  1.7471 -2.8442
  853MOL0     H15142   9.318  10.027   1.447 -0.0408  1.1660 -0.2688
  853MOL0     H15143   9.658  10.258   1.647  0.0847  0.2363  1.1103
  853MOL0     H15144   9.854  10.313   1.779  0.5038 -0.6517  0.8322
  853MOL0     H15145  10.069  10.340   1.796  2.3757  0.3153 -0.4062
  853MOL0     H15146  10.014  10.278   1.953 -1.7698 -0.5667 -0.8794
  853MOL0     H15147  10.262  10.190   1.992  0.8009 -0.0476 -0.7959
  853MOL0     H15148  10.240  10.353   2.011 -2.0706  0.4091 -0.3872
  853MOL0     H15149  10.301  10.377   1.748  0.8383 -1.5613 -2.2337
  853MOL0     H15150  10.360  10.213   1.766 -1.1719 -0.2418  0.7619
  853MOL0     H15151  10.454  10.454   1.915 -3.0299  0.8739 -2.8837
  853MOL0     H15152  10.543  10.392   1.785  2.6854 -0.3236  1.5060
  853MOL0     H15153  10.609  10.127   2.129 -2.5040 -0.8809 -1.0353
  853MOL0     H15154  10.016   9.921   1.701  0.8744 -0.3996 -1.0639
  853MOL0     H15155   9.822   9.874   1.546  2.5304  1.8694 -3.9977
  854MOL0     O15156   8.069   1.668   7.000  0.0243 -0.4230  0.4310
  854MOL0     C15157   8.175   1.712   7.050  0.1455  0.2040 -0.2587
  854MOL0     O15158   8.189   1.820   7.132  0.2507  0.1334  0.4685
  854MOL0     C15159   8.074   1.876   7.171 -0.7726 -0.1712 -0.1179
  854MOL0     C15160   7.978   1.826   7.261  0.0998 -0.0385 -0.2012
  854MOL0     C15161   7.862   1.890   7.293 -0.3477  0.6558  0.0658
  854MOL0     C15162   7.837   2.017   7.240 -0.4245  0.4565  0.8593
  854MOL0     O15163   7.724   2.090   7.277 -0.1807 -0.0132 -0.0823
  854MOL0     C15164   7.606   2.023   7.314  0.3097 -0.2065  0.4298
  854MOL0     C15165   7.496   2.129   7.333  0.2702 -0.6387  0.1130
  854MOL0     C15166   7.372   2.080   7.402  0.0327  0.4124 -0.4130
  854MOL0     C15167   7.278   1.996   7.312 -0.2510  0.0339  0.5680
  854MOL0     C15168   7.133   1.969   7.357 -0.0842 -0.6393 -0.6181
  854MOL0     C15169   7.059   1.854   7.284  0.0775 -0.4703  0.0262
  854MOL0     C15170   6.920   1.828   7.325 -0.0752 -0.2912  0.0283
  854MOL0     C15171   6.926   1.781   7.467  0.1853 -0.1477  0.4735
  854MOL0     N15172   6.805   1.729   7.522 -0.1285 -0.2742 -0.7193
  854MOL0     C15173   6.722   1.648   7.459 -0.9229 -0.3825 -0.0517
  854MOL0     C15174   6.630   1.612   7.551  1.1357 -0.7015  0.5641
  854MOL0     C15175   6.517   1.513   7.541  0.2250 -0.1397 -0.7577
  854MOL0     C15176   6.380   1.567   7.574 -0.0129 -0.8047  0.2539
  854MOL0     C15177   6.266   1.459   7.598 -0.4455  0.0174 -0.9738
  854MOL0     C15178   6.204   1.398   7.472 -0.3786 -0.2559  0.9309
  854MOL0     O15179   6.076   1.336   7.499  0.3240  0.4438  0.6327
  854MOL0     C15180   5.955   1.413   7.499 -0.7713 -0.0605 -0.1273
  854MOL0     C15181   5.944   1.555   7.482  0.3149  0.0887  0.3992
  854MOL0     C15182   5.817   1.620   7.492  0.0075  1.0175 -0.5061
  854MOL0     C15183   5.799   1.769   7.458  0.6255  0.6832  0.6739
  854MOL0     C15184   5.705   1.539   7.538  0.5336 -1.6038  1.0539
  854MOL0     C15185   5.570   1.605   7.553  0.0712 -0.2859  0.6856
  854MOL0     O15186   5.501   1.601   7.438 -0.1903 -0.1123 -0.2700
  854MOL0     C15187   5.376   1.650   7.420  0.3160 -0.0543  0.7562
  854MOL0     C15188   5.275   1.565   7.373  0.8278  1.7518 -0.3783
  854MOL0     C15189   5.140   1.597   7.358 -0.4326 -0.1303 -0.3139
  854MOL0     C15190   5.101   1.725   7.392  0.6805  0.1075 -0.2043
  854MOL0     O15191   4.970   1.773   7.392 -0.0018 -0.3744  0.3335
  854MOL0     C15192   4.863   1.680   7.358  0.4563  0.3573 -0.1996
  854MOL0     C15193   4.729   1.760   7.357 -0.1656 -0.4393 -0.3286
  854MOL0     C15194   4.698   1.818   7.503 -0.7581  0.4157 -0.4816
  854MOL0     C15195   4.568   1.894   7.511  0.1275 -0.2099  0.0851
  854MOL0     C15196   4.557   1.958   7.656  0.4051 -0.0155  0.3274
  854MOL0     C15197   4.411   1.944   7.706  0.0504 -1.0453 -0.1336
  854MOL0     C15198   4.378   1.789   7.724 -1.0483 -0.2139  0.3803
  854MOL0     C15199   4.228   1.783   7.730  0.0353  0.5896 -0.0273
  854MOL0    Cl15200   4.148   1.816   7.569 -0.2475  0.3617  0.1671
  854MOL0     C15201   5.198   1.815   7.434 -0.0882  0.9796  0.9072
  854MOL0     C15202   5.329   1.775   7.450 -0.8618  0.2035  0.2061
  854MOL0     O15203   5.540   1.654   7.658  0.0494  0.6645  0.3487
  854MOL0     C15204   5.715   1.403   7.541 -0.6172 -0.0185  0.5083
  854MOL0     C15205   5.837   1.339   7.525 -0.1822 -0.5760 -0.0148
  854MOL0     N15206   6.660   1.682   7.665 -0.4576  0.2736 -0.2219
  854MOL0     N15207   6.766   1.751   7.647  0.0529 -0.2097 -0.2093
  854MOL0     C15208   7.935   2.072   7.150  0.5158 -0.9670  0.1515
  854MOL0     C15209   8.055   2.006   7.121 -0.0790  0.8364  0.8501
  854MOL0     C15210   8.294   1.621   7.039 -0.5243 -0.8598  0.3130
  854MOL0     C15211   8.426   1.672   7.069  0.3281 -0.7012 -0.8137
  854MOL0     C15212   8.538   1.591   7.067  0.3609 -0.2628 -0.4206
  854MOL0     C15213   8.522   1.464   7.024 -0.4145 -0.2435 -0.2697
  854MOL0     O15214   8.649   1.406   7.022  0.3085 -0.1077  0.2952
  854MOL0     C15215   8.662   1.273   7.077  0.2520  0.4213  0.1251
  854MOL0     C15216   8.812   1.222   7.106  0.7597  0.1676 -0.1559
  854MOL0     C15217   8.882   1.336   7.192  0.8541 -0.0316  0.0382
  854MOL0     C15218   9.016   1.295   7.255  0.3733  1.0854  0.1069
  854MOL0     C15219   8.999   1.202   7.375 -0.4330 -0.3376  0.4713
  854MOL0     C15220   8.977   1.142   7.482 -0.4201 -0.1099  0.5555
  854MOL0     C15221   8.398   1.406   7.003  0.1589  0.1331  0.5485
  854MOL0     C15222   8.283   1.483   7.007  0.9825  0.8334 -0.3197
  854MOL0     H15223   8.000   1.723   7.289 -1.6782 -0.1725  0.9267
  854MOL0     H15224   7.795   1.841   7.363 -0.2807 -1.2340 -1.1065
  854MOL0     H15225   7.580   1.967   7.223 -2.5248  1.6451 -0.0255
  854MOL0     H15226   7.628   1.959   7.400  0.7294 -0.2654  0.2826
  854MOL0     H15227   7.536   2.214   7.389 -0.9959 -0.5635  0.9257
  854MOL0     H15228   7.477   2.169   7.232  0.0706  0.3973  0.5459
  854MOL0     H15229   7.402   2.025   7.492 -0.2591  3.4066  1.6294
  854MOL0     H15230   7.319   2.170   7.432 -2.3834  0.5686 -4.4655
  854MOL0     H15231   7.285   2.052   7.218  0.9282  0.6107  0.9792
  854MOL0     H15232   7.326   1.899   7.297  2.9992  1.9707 -4.4254
  854MOL0     H15233   7.138   1.960   7.465 -1.8832  0.7461 -0.3789
  854MOL0     H15234   7.072   2.057   7.335  1.5980  0.7873  0.1944
  854MOL0     H15235   7.057   1.885   7.179 -0.4122 -0.3903  0.0554
  854MOL0     H15236   7.124   1.766   7.286  1.2166  0.3658  1.6505
  854MOL0     H15237   6.857   1.916   7.309  2.2450  1.1687 -1.7134
  854MOL0     H15238   6.888   1.748   7.257 -1.3483  0.9250 -0.8507
  854MOL0     H15239   6.956   1.866   7.529 -2.3507  1.8785 -0.8296
  854MOL0     H15240   6.998   1.699   7.473 -1.8356 -1.9700  1.0425
  854MOL0     H15241   6.736   1.606   7.360 -0.6775 -0.6486  0.0945
  854MOL0     H15242   6.523   1.457   7.447  2.2987 -2.4474  0.6191
  854MOL0     H15243   6.537   1.435   7.615 -2.6395  1.0030  1.4151
  854MOL0     H15244   6.346   1.627   7.490 -0.2312 -2.0054 -0.5341
  854MOL0     H15245   6.386   1.639   7.656  0.5238 -1.2412  0.6104
  854MOL0     H15246   6.197   1.515   7.662 -0.2370  0.2740 -0.9689
  854MOL0     H15247   6.306   1.377   7.659 -3.7133 -2.5006 -1.9315
  854MOL0     H15248   6.272   1.327   7.424 -1.3868  0.3681 -1.5918
  854MOL0     H15249   6.194   1.482   7.402  2.3435 -0.0729  0.6417
  854MOL0     H15250   6.031   1.617   7.466  0.7860 -0.8487 -0.8166
  854MOL0     H15251   5.737   1.822   7.531 -0.3782 -0.5057  0.7288
  854MOL0     H15252   5.896   1.814   7.440  0.3265  0.7585 -0.8685
  854MOL0     H15253   5.752   1.768   7.360  0.1648 -0.8002  0.8795
  854MOL0     H15254   5.313   1.464   7.363 -2.1403  0.1535  2.3225
  854MOL0     H15255   5.072   1.519   7.324  0.2894 -1.1525  0.5159
  854MOL0     H15256   4.868   1.651   7.253  0.3153 -1.8652  0.3518
  854MOL0     H15257   4.870   1.588   7.417 -0.1494 -0.4398 -1.3354
  854MOL0     H15258   4.737   1.851   7.297  2.2396 -1.0459 -1.0540
  854MOL0     H15259   4.647   1.697   7.321  0.1438 -1.2498  0.3369
  854MOL0     H15260   4.787   1.873   7.534  0.9001 -3.4222  2.3581
  854MOL0     H15261   4.695   1.737   7.576  0.4936 -0.4082 -1.3044
  854MOL0     H15262   4.587   1.977   7.441  1.6106  0.3336  1.0852
  854MOL0     H15263   4.483   1.845   7.464  0.3372 -2.0796  1.5572
  854MOL0     H15264   4.586   2.064   7.656  1.7064 -0.3473 -0.8750
  854MOL0     H15265   4.623   1.909   7.728 -1.3101 -2.6360  0.2364
  854MOL0     H15266   4.390   1.988   7.804 -0.2685 -0.6865 -0.3623
  854MOL0     H15267   4.344   1.997   7.637 -0.9043 -1.9520  0.0692
  854MOL0     H15268   4.407   1.758   7.825 -2.8549  2.8290  2.0030
  854MOL0     H15269   4.427   1.733   7.644 -2.0197 -3.2484  1.7820
  854MOL0     H15270   4.197   1.854   7.808  0.4593 -0.7368  1.3925
  854MOL0     H15271   4.201   1.683   7.763 -2.4129  0.9337 -0.8042
  854MOL0     H15272   5.165   1.917   7.450 -0.7917  1.1685 -1.3361
  854MOL0     H15273   5.397   1.848   7.492  0.2945  0.2169 -1.5534
  854MOL0     H15274   5.633   1.337   7.566 -0.0782 -0.9188 -0.0307
  854MOL0     H15275   5.870   1.236   7.523  2.9263  0.3002  0.4284
  854MOL0     H15276   7.910   2.171   7.112  1.2469 -0.5534  0.7206
  854MOL0     H15277   8.131   2.050   7.058 -0.5764  1.0918  0.4141
  854MOL0     H15278   8.442   1.776   7.099 -1.2128 -1.3764  2.8632
  854MOL0     H15279   8.641   1.619   7.088  0.3390 -0.5672  0.0861
  854MOL0     H15280   8.609   1.269   7.173  0.1908  0.0494  0.0771
  854MOL0     H15281   8.621   1.202   7.005  2.8648 -0.5049 -0.5575
  854MOL0     H15282   8.870   1.208   7.014 -0.1829  1.0130 -0.8960
  854MOL0     H15283   8.804   1.123   7.152  2.3772  0.5432  1.0086
  854MOL0     H15284   8.810   1.363   7.269 -0.9423 -0.2083 -1.4944
  854MOL0     H15285   8.903   1.421   7.126  1.4917 -1.2175 -1.3586
  854MOL0     H15286   9.061   1.390   7.284 -1.1277  1.4343  1.4294
  854MOL0     H15287   9.077   1.237   7.184 -0.8133 -1.5691  1.1044
  854MOL0     H15288   8.965   1.098   7.579  0.7779 -0.8548  0.3962
  854MOL0     H15289   8.404   1.303   6.969 -1.7952 -0.2919  1.3445
  854MOL0     H15290   8.184   1.439   6.994  1.5232  0.2173 -2.8367
  855MOL0     O15291   3.346   1.659   5.286 -0.6149  0.4382  0.3069
  855MOL0     C15292   3.328   1.729   5.186 -0.5150 -0.4456 -1.1015
  855MOL0     O15293   3.231   1.823   5.174  0.5321  0.6809  0.7610
  855MOL0     C15294   3.135   1.863   5.262 -0.5233 -0.2578 -0.0177
  855MOL0     C15295   3.014   1.924   5.199  0.6879 -0.2940  0.1559
  855MOL0     C15296   2.912   1.966   5.294  0.1190  0.5488  0.2098
  855MOL0     C15297   2.926   1.947   5.435  0.5108 -0.1856  0.3211
  855MOL0     O15298   2.829   1.973   5.525  0.1982  0.7081  0.6868
  855MOL0     C15299   2.682   1.982   5.497  0.2065  0.0797 -0.6226
  855MOL0     C15300   2.641   2.128   5.496  0.3361 -0.0128 -0.3223
  855MOL0     C15301   2.484   2.143   5.516 -0.1892  0.5335  0.9493
  855MOL0     C15302   2.401   2.064   5.412 -0.4752 -0.8515  0.5324
  855MOL0     C15303   2.270   2.150   5.377 -0.6447  0.4890  0.3861
  855MOL0     C15304   2.181   2.070   5.282 -0.0134 -0.4860 -0.3186
  855MOL0     C15305   2.046   2.148   5.263 -0.4935 -1.0247  0.2088
  855MOL0     C15306   1.965   2.090   5.146 -0.0661  0.9071  0.0493
  855MOL0     N15307   1.820   2.099   5.175 -0.6326  0.2613 -0.1584
  855MOL0     C15308   1.730   2.018   5.119  0.2993  0.3480 -0.4295
  855MOL0     C15309   1.609   2.073   5.152 -0.9494  0.7821  0.3019
  855MOL0     C15310   1.476   2.012   5.116  0.0987  0.7651 -0.5301
  855MOL0     C15311   1.364   2.104   5.134  0.5440 -0.8105 -0.2326
  855MOL0     C15312   1.220   2.040   5.125 -0.5669  0.4771 -0.3603
  855MOL0     C15313   1.104   2.130   5.120 -0.1297  0.3409 -0.1474
  855MOL0     O15314   0.990   2.044   5.135  0.3596 -0.7282 -0.2738
  855MOL0     C15315   0.864   2.095   5.173 -0.2066 -0.2791 -0.6415
  855MOL0     C15316   0.792   2.005   5.251 -0.2204  1.3709  0.0715
  855MOL0     C15317   0.667   2.040   5.295  0.4699 -0.9748  0.2043
  855MOL0     C15318   0.584   1.930   5.361 -0.6491  0.5608  0.1423
  855MOL0     C15319   0.618   2.173   5.261 -0.3168 -0.2502  0.0143
  855MOL0     C15320   0.481   2.223   5.296 -0.7234 -0.0758  0.3141
  855MOL0     O15321   0.427   2.172   5.401  0.6579  0.6590  0.1821
  855MOL0     C15322   0.297   2.187   5.454 -1.2624 -0.6965  0.1948
  855MOL0     C15323   0.189   2.211   5.376  0.8553 -0.4419  0.0870
  855MOL0     C15324   0.063   2.233   5.437 -0.1580  0.2594  0.7966
  855MOL0     C15325   0.045   2.234   5.574 -0.2017  0.7145 -0.1036
  855MOL0     O15326  -0.079   2.257   5.633  0.4009 -0.6619 -0.0332
  855MOL0     C15327  -0.202   2.259   5.544  0.0643  0.3341 -0.1475
  855MOL0     C15328  -0.243   2.119   5.501 -0.2429  0.0286  0.1305
  855MOL0     C15329  -0.349   2.138   5.384 -0.5273 -0.6009 -0.0009
  855MOL0     C15330  -0.492   2.170   5.440 -0.0997  0.7602  0.8916
  855MOL0     C15331  -0.580   2.203   5.321  0.6419  0.3814 -0.2163
  855MOL0     C15332  -0.693   2.292   5.371 -0.3974 -0.1894  0.1138
  855MOL0     C15333  -0.785   2.212   5.458 -0.1310  0.4137  0.4666
  855MOL0     C15334  -0.925   2.271   5.477 -0.4672 -0.1747 -0.0359
  855MOL0    Cl15335  -0.897   2.430   5.546  0.1357  0.0910  0.1110
  855MOL0     C15336   0.159   2.222   5.651 -0.9991 -0.5934  0.3418
  855MOL0     C15337   0.285   2.196   5.593 -0.2555  0.8438 -0.6585
  855MOL0     O15338   0.432   2.306   5.222  0.7116 -0.2754  0.2365
  855MOL0     C15339   0.697   2.271   5.197  0.1413  0.5180  0.4944
  855MOL0     C15340   0.817   2.224   5.154 -0.4061 -0.2191 -0.4136
  855MOL0     N15341   1.628   2.187   5.225 -0.6317 -0.6912 -0.5577
  855MOL0     N15342   1.758   2.194   5.250  0.2691 -0.1532  0.8549
  855MOL0     C15343   3.043   1.893   5.484 -0.4436  0.0414 -0.5456
  855MOL0     C15344   3.148   1.861   5.396 -0.0000 -1.0081  0.5679
  855MOL0     C15345   3.419   1.709   5.071 -0.1783  0.2922  0.1675
  855MOL0     C15346   3.405   1.787   4.953 -0.6551  0.7445  0.3722
  855MOL0     C15347   3.496   1.763   4.844  0.2962 -0.4452 -0.3382
  855MOL0     C15348   3.604   1.673   4.849 -0.1242  0.2599 -0.3563
  855MOL0     O15349   3.692   1.648   4.742  0.7220 -0.6017  0.2788
  855MOL0     C15350   3.685   1.728   4.625 -0.7183  0.5614 -1.5304
  855MOL0     C15351   3.795   1.672   4.542 -0.4865 -0.2229  0.1676
  855MOL0     C15352   3.936   1.712   4.579 -0.0771 -0.8730 -0.1776
  855MOL0     C15353   4.025   1.706   4.458  0.2372  0.6130 -0.0209
  855MOL0     C15354   4.161   1.750   4.482 -0.0540 -0.2271  0.4792
  855MOL0     C15355   4.279   1.772   4.502 -0.0095 -0.1336 -0.4527
  855MOL0     C15356   3.623   1.612   4.974  0.1967  0.4573  0.0291
  855MOL0     C15357   3.538   1.626   5.084  0.8370  0.1271  0.3905
  855MOL0     H15358   2.999   1.936   5.092  1.8030 -0.9156 -0.0839
  855MOL0     H15359   2.817   2.012   5.271  0.8157  1.7391 -0.3936
  855MOL0     H15360   2.665   1.936   5.399 -0.5708 -0.5181 -0.2149
  855MOL0     H15361   2.622   1.921   5.565  0.2465  2.4580  1.7202
  855MOL0     H15362   2.702   2.179   5.571  1.4621 -2.4546  0.5617
  855MOL0     H15363   2.668   2.186   5.408 -0.9387  2.6262  0.9237
  855MOL0     H15364   2.444   2.100   5.609 -1.2108 -2.0437 -0.5906
  855MOL0     H15365   2.468   2.251   5.517 -0.7175  0.4577  0.5140
  855MOL0     H15366   2.458   2.034   5.324  0.6618  0.9935  0.5870
  855MOL0     H15367   2.372   1.970   5.461 -1.5275 -0.4301  0.7505
  855MOL0     H15368   2.218   2.158   5.473 -1.5917  2.6178 -0.2465
  855MOL0     H15369   2.285   2.250   5.335 -1.0007  0.5036  0.2825
  855MOL0     H15370   2.231   2.034   5.191  0.8139 -1.8634  0.6331
  855MOL0     H15371   2.156   1.976   5.333  0.3041 -0.1520  0.4630
  855MOL0     H15372   1.981   2.143   5.351 -1.3393 -0.8256 -0.3941
  855MOL0     H15373   2.069   2.252   5.239 -0.8744 -0.8038  0.7890
  855MOL0     H15374   1.997   1.985   5.141 -1.8912  0.2169  1.5130
  855MOL0     H15375   1.976   2.150   5.056 -1.0596  0.6087 -0.2878
  855MOL0     H15376   1.741   1.934   5.051 -0.3368 -1.4535  1.5595
  855MOL0     H15377   1.472   1.979   5.011  0.3083 -2.2691  0.3221
  855MOL0     H15378   1.464   1.919   5.172  1.1657  0.9058 -0.0437
  855MOL0     H15379   1.372   2.181   5.056  0.0901  0.3091  0.8041
  855MOL0     H15380   1.385   2.147   5.232  3.2878  1.3109 -1.5968
  855MOL0     H15381   1.209   1.994   5.224  0.8054 -0.5938 -0.6672
  855MOL0     H15382   1.204   1.973   5.041 -1.6729 -1.0778  1.0314
  855MOL0     H15383   1.102   2.180   5.023  0.0450 -1.6719 -1.2558
  855MOL0     H15384   1.108   2.203   5.201  3.1276  1.1639 -0.8970
  855MOL0     H15385   0.833   1.906   5.266 -0.5413  1.1773 -0.3108
  855MOL0     H15386   0.482   1.960   5.337 -0.2742  1.7503 -0.0694
  855MOL0     H15387   0.615   1.835   5.318  2.4444  0.4441  2.3098
  855MOL0     H15388   0.609   1.926   5.468 -1.8682 -1.2818  0.4019
  855MOL0     H15389   0.203   2.208   5.268  2.1325 -0.4433  0.2315
  855MOL0     H15390  -0.014   2.243   5.360 -2.0492 -1.8081  2.2920
  855MOL0     H15391  -0.281   2.316   5.592  1.2682  0.0725  2.3112
  855MOL0     H15392  -0.172   2.317   5.456  2.7329  0.7313  0.9057
  855MOL0     H15393  -0.155   2.062   5.470  0.1011  1.1524 -1.0517
  855MOL0     H15394  -0.297   2.059   5.574  1.0512  0.2169  1.2937
  855MOL0     H15395  -0.361   2.062   5.307 -1.4573  1.8003 -2.3904
  855MOL0     H15396  -0.313   2.230   5.337 -2.1988  0.8244  1.3265
  855MOL0     H15397  -0.527   2.091   5.506 -1.7805  0.9736  0.3094
  855MOL0     H15398  -0.490   2.259   5.504  1.1852  1.2122  0.2615
  855MOL0     H15399  -0.611   2.108   5.278  0.8780 -0.6856  1.8316
  855MOL0     H15400  -0.531   2.256   5.239 -0.3605 -1.7577 -2.3237
  855MOL0     H15401  -0.652   2.373   5.431 -0.8936 -0.0125  0.2165
  855MOL0     H15402  -0.755   2.336   5.292 -1.2919 -0.0192  0.9000
  855MOL0     H15403  -0.742   2.207   5.558 -1.3591 -3.1115  0.9485
  855MOL0     H15404  -0.799   2.111   5.420 -0.2687  1.3080 -2.0352
  855MOL0     H15405  -0.974   2.212   5.554  1.4099  1.8002  2.8967
  855MOL0     H15406  -0.980   2.261   5.383  1.3392  1.7129 -1.3851
  855MOL0     H15407   0.161   2.224   5.760  2.1053  0.7541  0.3487
  855MOL0     H15408   0.361   2.160   5.662 -0.2234  0.9799 -0.6225
  855MOL0     H15409   0.658   2.371   5.178 -2.5938 -0.7244 -1.1176
  855MOL0     H15410   0.875   2.293   5.093 -2.6968  0.6293 -1.7415
  855MOL0     H15411   3.066   1.883   5.590 -0.0519 -0.2649 -0.6554
  855MOL0     H15412   3.245   1.828   5.430  1.9196  3.3223 -0.1383
  855MOL0     H15413   3.323   1.857   4.949  0.2866  1.9202  0.9597
  855MOL0     H15414   3.460   1.810   4.753  1.7865 -0.3525 -0.9122
  855MOL0     H15415   3.596   1.700   4.567 -1.0951 -1.7757  0.0364
  855MOL0     H15416   3.699   1.833   4.652  1.9243 -0.2916  0.8401
  855MOL0     H15417   3.786   1.724   4.446 -2.4840  0.2467  0.5509
  855MOL0     H15418   3.778   1.565   4.526 -1.1042 -0.5444  2.5718
  855MOL0     H15419   3.961   1.640   4.657 -1.7401 -0.7990  0.4827
  855MOL0     H15420   3.932   1.809   4.629 -0.0044 -0.3032 -1.2420
  855MOL0     H15421   3.981   1.763   4.376 -1.1622  0.5863  0.6774
  855MOL0     H15422   4.030   1.603   4.421 -2.7543  1.2705 -2.7523
  855MOL0     H15423   4.380   1.799   4.523 -0.3099 -0.7929  2.0937
  855MOL0     H15424   3.718   1.561   4.981 -0.6842 -1.3787 -0.7888
  855MOL0     H15425   3.547   1.581   5.182 -2.1909 -0.1250  0.6298
  856MOL0     O15426   5.830   5.953   3.715  0.2976 -0.0392 -0.2607
  856MOL0     C15427   5.898   6.046   3.747 -0.6173 -0.3728  0.9846
  856MOL0     O15428   5.858   6.180   3.735 -0.2813 -0.2472 -0.6853
  856MOL0     C15429   5.728   6.208   3.712 -0.9234  0.5472 -0.1366
  856MOL0     C15430   5.704   6.303   3.611  0.2167  0.6914  0.1853
  856MOL0     C15431   5.574   6.355   3.608 -0.0721  0.4636 -0.1824
  856MOL0     C15432   5.469   6.306   3.675 -0.2594  0.4598 -0.3149
  856MOL0     O15433   5.339   6.358   3.651 -0.1855 -0.4767 -0.2399
  856MOL0     C15434   5.211   6.294   3.669 -0.2513 -0.0573  0.3030
  856MOL0     C15435   5.104   6.391   3.620  0.0480 -0.4517  0.5875
  856MOL0     C15436   4.965   6.346   3.656  0.4191 -0.2030 -0.6781
  856MOL0     C15437   4.846   6.433   3.619  0.1786 -0.2461  0.0512
  856MOL0     C15438   4.713   6.379   3.660  0.8785 -0.2870  0.8608
  856MOL0     C15439   4.593   6.453   3.603  0.1856 -0.7858 -0.3427
  856MOL0     C15440   4.471   6.370   3.578 -0.1267 -0.6053 -0.5797
  856MOL0     C15441   4.355   6.456   3.531  1.0233  0.1613 -0.3233
  856MOL0     N15442   4.227   6.390   3.544 -0.0818 -0.1619  0.3673
  856MOL0     C15443   4.170   6.351   3.667 -0.6773  0.2675  0.4098
  856MOL0     C15444   4.035   6.343   3.643 -0.0886 -0.6420  0.2828
  856MOL0     C15445   3.928   6.314   3.745 -0.6253 -1.7515  0.5607
  856MOL0     C15446   3.781   6.337   3.705  0.3266 -0.1154 -0.4527
  856MOL0     C15447   3.697   6.299   3.825 -0.0291  0.5964  0.1555
  856MOL0     C15448   3.550   6.322   3.807  0.1093 -0.7422 -0.2099
  856MOL0     O15449   3.495   6.389   3.928  0.0983  0.3034 -0.4502
  856MOL0     C15450   3.365   6.367   3.949  0.3839 -0.5101  0.4075
  856MOL0     C15451   3.255   6.413   3.872  0.0883  0.8232 -0.0513
  856MOL0     C15452   3.125   6.399   3.924  0.1248  0.0397  0.6876
  856MOL0     C15453   3.021   6.468   3.843 -0.0076 -0.2567 -0.6080
  856MOL0     C15454   3.098   6.327   4.050  0.0650 -0.8714  0.2713
  856MOL0     C15455   2.969   6.316   4.106 -0.3481 -0.9006 -0.4842
  856MOL0     O15456   2.852   6.339   4.034 -0.1495  0.1866  0.3115
  856MOL0     C15457   2.734   6.353   4.109  0.2916 -0.5092  0.1929
  856MOL0     C15458   2.700   6.478   4.160 -0.1396  0.0549 -0.0694
  856MOL0     C15459   2.582   6.500   4.226  0.0375  0.6011 -1.0629
  856MOL0     C15460   2.492   6.393   4.237  0.1662  0.3709 -0.3550
  856MOL0     O15461   2.380   6.409   4.318  0.6226 -0.4369  0.0759
  856MOL0     C15462   2.261   6.391   4.243  0.4975 -1.0307 -0.6005
  856MOL0     C15463   2.162   6.514   4.234  0.0462 -0.0130 -0.3035
  856MOL0     C15464   2.104   6.547   4.371  0.0993  0.1852 -0.4254
  856MOL0     C15465   1.958   6.610   4.372  0.3793  0.0696  0.2712
  856MOL0     C15466   1.856   6.523   4.457 -0.5614  0.6276 -0.1714
  856MOL0     C15467   1.744   6.598   4.509 -0.0403 -1.0077 -0.8659
  856MOL0     C15468   1.668   6.673   4.403  0.0845 -0.4059  0.7733
  856MOL0     C15469   1.530   6.712   4.460 -0.0854  0.3220 -0.4118
  856MOL0    Cl15470   1.437   6.797   4.331 -0.0102  0.1343  0.2941
  856MOL0     C15471   2.525   6.270   4.193  0.4637 -0.7884  0.0729
  856MOL0     C15472   2.639   6.251   4.112 -0.1987  0.7782  0.1614
  856MOL0     O15473   2.968   6.266   4.226 -0.0238 -0.0611 -0.0118
  856MOL0     C15474   3.212   6.278   4.113  0.4426  0.5241  0.4532
  856MOL0     C15475   3.344   6.295   4.064  0.4387 -0.2001 -0.1065
  856MOL0     N15476   4.015   6.375   3.509  0.2723  0.7570  0.1004
  856MOL0     N15477   4.127   6.410   3.460  0.8869  0.5134  0.3905
  856MOL0     C15478   5.489   6.203   3.762 -1.4065  0.4464 -0.5836
  856MOL0     C15479   5.620   6.162   3.791 -0.1640 -0.0001 -0.2367
  856MOL0     C15480   6.038   6.025   3.790 -0.3451 -0.3031 -0.1912
  856MOL0     C15481   6.142   6.123   3.773  0.3162  0.3787 -0.0899
  856MOL0     C15482   6.270   6.099   3.805 -0.1799 -0.0853 -1.0770
  856MOL0     C15483   6.308   5.979   3.860  1.5356 -0.3200  0.3009
  856MOL0     O15484   6.428   5.927   3.875  0.1672  0.2750 -0.1533
  856MOL0     C15485   6.545   6.009   3.871  0.5820 -0.2332 -0.8593
  856MOL0     C15486   6.543   6.106   3.996 -0.0633  0.3011 -0.6456
  856MOL0     C15487   6.586   6.020   4.122 -0.4182  0.2334 -0.2807
  856MOL0     C15488   6.630   6.113   4.244 -0.3010 -0.7413 -0.1070
  856MOL0     C15489   6.762   6.185   4.212 -0.0432 -0.2421 -0.5326
  856MOL0     C15490   6.873   6.236   4.188 -0.1442  0.0776  1.1069
  856MOL0     C15491   6.203   5.889   3.895 -0.8597 -0.1422  0.2470
  856MOL0     C15492   6.069   5.909   3.860  0.9484 -0.0408 -1.0545
  856MOL0     H15493   5.784   6.353   3.557 -0.8714  1.5958 -0.6376
  856MOL0     H15494   5.544   6.424   3.531 -1.7572  0.4843  0.4411
  856MOL0     H15495   5.208   6.205   3.606 -1.9158 -0.5228  0.9764
  856MOL0     H15496   5.198   6.262   3.773 -0.4589  3.5883  1.5640
  856MOL0     H15497   5.124   6.491   3.658 -2.0748  0.7429 -1.1976
  856MOL0     H15498   5.112   6.398   3.511  0.6043  0.1859  0.6656
  856MOL0     H15499   4.945   6.245   3.617 -1.8895 -0.4622  1.0064
  856MOL0     H15500   4.962   6.335   3.765 -1.6779 -1.5140 -0.8151
  856MOL0     H15501   4.855   6.529   3.670 -3.1134  0.5296 -0.6072
  856MOL0     H15502   4.849   6.444   3.510 -0.2939 -1.4002 -0.0953
  856MOL0     H15503   4.715   6.274   3.626  3.0887 -0.1294  0.3357
  856MOL0     H15504   4.698   6.374   3.768 -1.3993  0.3840  0.6237
  856MOL0     H15505   4.574   6.529   3.679  1.2555  0.2744 -1.1047
  856MOL0     H15506   4.618   6.506   3.511 -0.2392  0.0483  0.0106
  856MOL0     H15507   4.495   6.299   3.497  0.3994  1.0576 -1.9399
  856MOL0     H15508   4.436   6.326   3.672 -0.9202  2.2721  0.5742
  856MOL0     H15509   4.369   6.480   3.425  0.5019  0.3593 -0.3551
  856MOL0     H15510   4.345   6.550   3.586 -0.8747 -1.4982  2.4231
  856MOL0     H15511   4.210   6.346   3.768 -2.3657  1.8613  1.2357
  856MOL0     H15512   3.939   6.212   3.782  0.6312 -1.0499  2.2502
  856MOL0     H15513   3.946   6.374   3.835  0.3955  0.2224 -0.8669
  856MOL0     H15514   3.764   6.263   3.626  1.4702 -2.6431  1.5174
  856MOL0     H15515   3.753   6.438   3.673  0.0120  0.5898  1.8561
  856MOL0     H15516   3.727   6.362   3.909 -2.5405  0.7356  1.0425
  856MOL0     H15517   3.715   6.196   3.858  1.0361  0.8433  0.3817
  856MOL0     H15518   3.489   6.233   3.787 -1.2812 -0.2127  1.4902
  856MOL0     H15519   3.531   6.397   3.730  1.0983 -0.0278  0.2212
  856MOL0     H15520   3.269   6.452   3.772  1.1368  0.4657 -0.0529
  856MOL0     H15521   2.942   6.404   3.805  0.3894 -0.6383 -0.7984
  856MOL0     H15522   2.973   6.549   3.898  2.7397  0.0081  1.6547
  856MOL0     H15523   3.069   6.517   3.757  0.0684  0.5069 -0.1411
  856MOL0     H15524   2.768   6.561   4.143  0.2071 -0.4078 -1.0298
  856MOL0     H15525   2.567   6.595   4.277  4.0372  1.2343 -0.6961
  856MOL0     H15526   2.274   6.361   4.138  2.1548 -0.0793 -0.6930
  856MOL0     H15527   2.198   6.311   4.283 -1.7811  1.3139  0.7853
  856MOL0     H15528   2.230   6.593   4.201 -0.5943  0.3995 -0.6386
  856MOL0     H15529   2.086   6.491   4.159 -1.7666  0.9991  1.1220
  856MOL0     H15530   2.172   6.621   4.413  1.9034 -0.0578 -2.6722
  856MOL0     H15531   2.106   6.455   4.431 -0.1526  1.2810  1.3133
  856MOL0     H15532   1.957   6.703   4.429  1.1054  0.2990 -0.0799
  856MOL0     H15533   1.923   6.635   4.271  0.6281  0.4742  0.2846
  856MOL0     H15534   1.920   6.497   4.543 -0.3406 -1.3904 -0.8870
  856MOL0     H15535   1.823   6.435   4.401 -4.6500  1.1728  1.0418
  856MOL0     H15536   1.676   6.526   4.555 -0.9989  0.3923 -0.0373
  856MOL0     H15537   1.786   6.661   4.588  2.0474 -4.1029  0.6944
  856MOL0     H15538   1.655   6.607   4.317 -3.7308  0.6276  0.3643
  856MOL0     H15539   1.723   6.764   4.378 -1.1824 -0.0315 -0.8120
  856MOL0     H15540   1.549   6.787   4.537 -1.5563  0.8031 -0.4697
  856MOL0     H15541   1.484   6.623   4.505  0.5304 -0.3945 -1.1594
  856MOL0     H15542   2.458   6.185   4.198  1.1456 -1.4308 -1.1813
  856MOL0     H15543   2.647   6.155   4.063 -1.6842  0.7211 -0.0211
  856MOL0     H15544   3.206   6.201   4.190  0.6450  0.6700  0.6149
  856MOL0     H15545   3.432   6.263   4.120  0.4472 -1.5976 -0.8710
  856MOL0     H15546   5.400   6.172   3.817 -2.0078  1.5507 -0.8918
  856MOL0     H15547   5.627   6.083   3.865  0.6121 -0.4811 -0.8130
  856MOL0     H15548   6.131   6.214   3.715 -1.3819  0.3568  0.1368
  856MOL0     H15549   6.357   6.160   3.781  0.0607 -1.0228 -2.7946
  856MOL0     H15550   6.638   5.952   3.863  1.6653  0.8050  2.6330
  856MOL0     H15551   6.548   6.067   3.778 -0.5657 -0.8411 -1.2911
  856MOL0     H15552   6.443   6.148   4.007  0.5680  2.2317 -1.8099
  856MOL0     H15553   6.615   6.184   3.971  3.4358 -2.4637 -0.0504
  856MOL0     H15554   6.661   5.944   4.098 -0.7902  0.2506 -1.5388
  856MOL0     H15555   6.504   5.958   4.158 -1.0187  0.4243 -1.2848
  856MOL0     H15556   6.635   6.052   4.335  0.1822 -0.0581  0.3355
  856MOL0     H15557   6.554   6.190   4.261  1.5945  0.8168  1.9991
  856MOL0     H15558   6.958   6.293   4.154 -0.6744  0.7277  0.8553
  856MOL0     H15559   6.231   5.804   3.958 -1.5074  2.0406  3.7852
  856MOL0     H15560   5.988   5.850   3.900 -0.4501  0.8874 -2.3782
  857MOL0     O15561   7.142   3.560   5.135 -0.3306  0.3875  0.4157
  857MOL0     C15562   7.190   3.617   5.039  0.5056  0.2618 -0.4168
  857MOL0     O15563   7.156   3.595   4.912 -0.5517 -0.3802 -0.5135
  857MOL0     C15564   7.030   3.540   4.897  0.3459  0.3580 -0.4514
  857MOL0     C15565   7.018   3.425   4.821  0.9649  0.2807  0.1241
  857MOL0     C15566   6.889   3.374   4.807  1.1934 -0.1445 -0.2794
  857MOL0     C15567   6.777   3.437   4.867  0.0680  0.7966  0.6637
  857MOL0     O15568   6.663   3.360   4.849  0.4122 -0.9031 -0.2637
  857MOL0     C15569   6.537   3.423   4.821 -0.4357  0.2206 -0.0358
  857MOL0     C15570   6.445   3.397   4.940 -0.5640  0.6675  0.2969
  857MOL0     C15571   6.305   3.451   4.923 -0.6283  0.1800 -0.2991
  857MOL0     C15572   6.222   3.388   4.811  0.2875  0.7442 -0.3385
  857MOL0     C15573   6.072   3.443   4.810 -0.8637  0.0413 -0.2693
  857MOL0     C15574   5.968   3.351   4.877 -0.0598  0.3710 -0.1702
  857MOL0     C15575   5.823   3.411   4.872  0.0230  0.5645 -0.0886
  857MOL0     C15576   5.799   3.544   4.944  0.0843  0.0444  0.3331
  857MOL0     N15577   5.658   3.569   4.943  0.1667 -0.0286 -0.1221
  857MOL0     C15578   5.582   3.597   4.833 -0.3456 -0.3649 -0.4868
  857MOL0     C15579   5.457   3.596   4.876  0.4408 -0.1615  0.4040
  857MOL0     C15580   5.347   3.588   4.785  1.1894 -0.1350  0.1450
  857MOL0     C15581   5.243   3.478   4.811 -0.8336 -0.1398  0.3697
  857MOL0     C15582   5.135   3.463   4.701 -0.2127  0.2135  0.4510
  857MOL0     C15583   5.042   3.347   4.729  0.0698 -0.3601 -0.0451
  857MOL0     O15584   4.941   3.346   4.626 -0.4239  0.4784 -0.3754
  857MOL0     C15585   4.808   3.362   4.649  0.0404  1.0922  0.2957
  857MOL0     C15586   4.739   3.368   4.523  0.1108 -0.9672 -0.2359
  857MOL0     C15587   4.601   3.388   4.514  0.1309 -0.4045 -0.2699
  857MOL0     C15588   4.548   3.381   4.376 -0.1669 -0.1993  0.6285
  857MOL0     C15589   4.524   3.392   4.634 -0.3843  0.3705 -0.4100
  857MOL0     C15590   4.371   3.380   4.630 -0.0367  1.0474  0.6729
  857MOL0     O15591   4.306   3.349   4.513 -0.6091 -0.7080 -0.2804
  857MOL0     C15592   4.176   3.302   4.496 -0.8891 -0.3009  0.0353
  857MOL0     C15593   4.073   3.334   4.579  0.4360  0.0673 -0.5279
  857MOL0     C15594   3.939   3.297   4.546  0.1748 -0.0650 -0.5141
  857MOL0     C15595   3.907   3.223   4.434 -0.4229 -0.0692  0.2340
  857MOL0     O15596   3.780   3.183   4.415 -0.3793 -0.0025 -0.4151
  857MOL0     C15597   3.744   3.095   4.312  0.8903 -0.0908 -0.3918
  857MOL0     C15598   3.590   3.082   4.304 -0.1504 -0.9203  0.8223
  857MOL0     C15599   3.518   3.222   4.278  0.2323 -1.1693  0.0930
  857MOL0     C15600   3.372   3.197   4.234  0.1438 -1.2506 -0.6935
  857MOL0     C15601   3.310   3.328   4.194  0.5509 -0.7042  0.4652
  857MOL0     C15602   3.279   3.420   4.317 -0.2178  0.1719 -0.2716
  857MOL0     C15603   3.216   3.558   4.254 -0.1725  0.0286  0.3883
  857MOL0     C15604   3.064   3.578   4.260  0.1419 -0.0903 -1.0917
  857MOL0    Cl15605   2.981   3.450   4.175 -0.2273  0.1670 -0.0440
  857MOL0     C15606   4.015   3.182   4.343  0.9511 -0.1308 -0.2287
  857MOL0     C15607   4.147   3.226   4.376 -0.1179 -0.5686  0.0625
  857MOL0     O15608   4.322   3.385   4.743 -0.0398 -0.3313 -0.6033
  857MOL0     C15609   4.588   3.392   4.758 -0.4476  0.3062  0.3946
  857MOL0     C15610   4.731   3.384   4.764 -0.2733  0.4392 -0.3774
  857MOL0     N15611   5.449   3.571   5.007 -0.1651 -0.0394 -0.6885
  857MOL0     N15612   5.573   3.544   5.045 -0.0057 -0.0342  0.5325
  857MOL0     C15613   6.785   3.561   4.928  0.0004  0.7944 -0.8024
  857MOL0     C15614   6.916   3.616   4.947  0.3660 -0.4844  1.1693
  857MOL0     C15615   7.307   3.706   5.066 -0.1357 -0.0490  1.1580
  857MOL0     C15616   7.368   3.715   5.197  1.1610  0.1420  0.2038
  857MOL0     C15617   7.484   3.796   5.216  0.0453 -0.4763  0.6410
  857MOL0     C15618   7.536   3.867   5.110 -1.2575  0.2662 -0.4132
  857MOL0     O15619   7.649   3.942   5.148 -0.0639 -0.7634  1.2040
  857MOL0     C15620   7.741   3.984   5.048  0.9836 -0.5452 -0.2291
  857MOL0     C15621   7.871   4.034   5.116 -0.3679 -0.2611 -0.6674
  857MOL0     C15622   7.976   4.090   5.015 -0.1621 -0.6436 -0.7644
  857MOL0     C15623   8.084   4.165   5.088  0.1531 -0.0068 -0.0193
  857MOL0     C15624   8.201   4.196   5.000  0.1220 -0.2895 -1.3233
  857MOL0     C15625   8.305   4.225   4.946  0.7541 -0.7932 -0.1530
  857MOL0     C15626   7.477   3.867   4.985  0.1178  0.0829  0.7757
  857MOL0     C15627   7.368   3.775   4.957  0.6306 -0.3391 -0.0375
  857MOL0     H15628   7.103   3.372   4.779  0.1590 -1.4749  0.6020
  857MOL0     H15629   6.867   3.281   4.754 -1.5055 -0.1327  0.6692
  857MOL0     H15630   6.558   3.529   4.805  1.1338 -0.4738 -3.5077
  857MOL0     H15631   6.485   3.390   4.731 -2.1076  0.0743  0.9485
  857MOL0     H15632   6.431   3.289   4.952 -0.0795  0.7678  1.9888
  857MOL0     H15633   6.490   3.436   5.032  1.4162 -0.3688 -0.1711
  857MOL0     H15634   6.260   3.436   5.021  2.0599  2.1036  1.3962
  857MOL0     H15635   6.307   3.558   4.897  0.5385 -0.6642 -4.4411
  857MOL0     H15636   6.268   3.424   4.718  1.0184 -2.3414 -1.3037
  857MOL0     H15637   6.223   3.281   4.790  1.6818  1.0974 -2.4728
  857MOL0     H15638   6.080   3.536   4.866 -1.8227 -0.9774  1.6909
  857MOL0     H15639   6.041   3.455   4.706  0.5183  0.0435 -0.7026
  857MOL0     H15640   5.967   3.258   4.820 -0.9428  0.7815 -0.8508
  857MOL0     H15641   6.005   3.329   4.977  0.3685  1.3396 -0.1026
  857MOL0     H15642   5.798   3.439   4.769  1.7975  0.2866 -0.6356
  857MOL0     H15643   5.748   3.343   4.914 -1.2574  1.1762 -1.3184
  857MOL0     H15644   5.847   3.631   4.898  2.7068 -2.2876 -1.6443
  857MOL0     H15645   5.825   3.526   5.049  0.6140  3.4501  0.9212
  857MOL0     H15646   5.617   3.625   4.734  1.2424 -1.7137 -0.3587
  857MOL0     H15647   5.307   3.689   4.785 -1.5522 -1.0798  1.9979
  857MOL0     H15648   5.401   3.562   4.694  3.5872  1.7241  0.9407
  857MOL0     H15649   5.196   3.497   4.908  0.3566 -0.7604  1.0862
  857MOL0     H15650   5.302   3.387   4.819  2.1971  1.3897 -2.3786
  857MOL0     H15651   5.172   3.432   4.603 -2.0452 -1.7938  0.3059
  857MOL0     H15652   5.085   3.560   4.687 -0.6727  0.4850  3.3273
  857MOL0     H15653   5.001   3.341   4.831 -1.0911  0.4142 -0.4401
  857MOL0     H15654   5.093   3.253   4.710 -2.3260 -1.1936 -3.1852
  857MOL0     H15655   4.792   3.355   4.430  3.0102 -1.9062  1.4110
  857MOL0     H15656   4.494   3.474   4.355 -0.3156 -0.0898  1.4789
  857MOL0     H15657   4.623   3.365   4.298 -0.4374  1.3320  0.0272
  857MOL0     H15658   4.476   3.302   4.351  0.3275 -0.1453 -1.0668
  857MOL0     H15659   4.093   3.387   4.671  1.0013  0.8062 -1.0589
  857MOL0     H15660   3.861   3.316   4.620  0.0497  1.1309 -0.9338
  857MOL0     H15661   3.779   3.135   4.217 -2.5664  1.7294 -1.0870
  857MOL0     H15662   3.786   2.996   4.332 -1.5530 -1.1859 -0.1832
  857MOL0     H15663   3.555   3.011   4.229 -1.0265 -0.6853  1.0002
  857MOL0     H15664   3.559   3.046   4.403  0.6091 -2.9687  0.3730
  857MOL0     H15665   3.561   3.295   4.210 -0.2851  2.2365  3.0791
  857MOL0     H15666   3.524   3.277   4.373  1.1233  0.8980 -1.0988
  857MOL0     H15667   3.373   3.132   4.146  0.5813 -0.9907 -0.8825
  857MOL0     H15668   3.305   3.156   4.311 -2.5571  0.5126 -1.9176
  857MOL0     H15669   3.214   3.303   4.149  0.7511 -0.9533  0.1791
  857MOL0     H15670   3.375   3.372   4.118  1.1266  0.7335  1.7255
  857MOL0     H15671   3.210   3.373   4.388 -0.2207 -1.0016 -1.0243
  857MOL0     H15672   3.365   3.443   4.380 -2.2127  1.1362  2.3089
  857MOL0     H15673   3.244   3.557   4.149  3.3599 -3.7202  1.0848
  857MOL0     H15674   3.262   3.648   4.296  2.3740 -0.8542 -0.3778
  857MOL0     H15675   3.048   3.670   4.202  4.9843  1.2624 -0.6548
  857MOL0     H15676   3.018   3.583   4.359 -1.8091  0.1140 -1.9521
  857MOL0     H15677   3.992   3.128   4.251 -1.8789 -1.0571  0.8934
  857MOL0     H15678   4.231   3.189   4.319 -1.5580 -0.1328 -2.4699
  857MOL0     H15679   4.525   3.404   4.845 -2.4842  2.3912 -1.2333
  857MOL0     H15680   4.775   3.399   4.862  1.2298 -0.9015 -0.8135
  857MOL0     H15681   6.695   3.617   4.951 -0.1948 -0.1400  0.8752
  857MOL0     H15682   6.929   3.714   4.994  1.1061 -0.3749  0.7540
  857MOL0     H15683   7.320   3.661   5.278 -0.7997  1.2676 -0.1316
  857MOL0     H15684   7.520   3.805   5.318  3.2562 -0.9476 -0.3482
  857MOL0     H15685   7.762   3.892   4.992 -3.8128 -2.2544  0.3639
  857MOL0     H15686   7.696   4.062   4.986  1.4405  1.3392  1.6827
  857MOL0     H15687   7.934   3.968   5.175  0.8838  0.8382 -0.7349
  857MOL0     H15688   7.840   4.115   5.183 -1.4149 -0.0840 -1.3336
  857MOL0     H15689   7.934   4.151   4.934 -1.4703  1.8259  1.5991
  857MOL0     H15690   8.032   4.006   4.973  0.5799 -0.6477  0.2002
  857MOL0     H15691   8.119   4.102   5.170  1.1537  2.2355  1.3570
  857MOL0     H15692   8.032   4.257   5.119  0.0156 -0.1066  0.0467
  857MOL0     H15693   8.401   4.243   4.903  0.3994  2.7314  0.1958
  857MOL0     H15694   7.500   3.927   4.898 -1.7271 -0.7254 -0.3310
  857MOL0     H15695   7.323   3.763   4.859  1.1487  0.3484 -0.3722
  858MOL0     O15696   1.201  11.258   3.033  0.5169 -0.6510 -0.5861
  858MOL0     C15697   1.299  11.332   3.018 -0.1650  0.1979 -0.5140
  858MOL0     O15698   1.292  11.465   3.011  0.1184  0.1758 -0.4322
  858MOL0     C15699   1.162  11.519   3.012  0.2221  0.7625  0.3415
  858MOL0     C15700   1.112  11.582   2.896 -0.3169 -0.2367 -0.5361
  858MOL0     C15701   0.993  11.653   2.889 -0.3536 -0.5239  0.3767
  858MOL0     C15702   0.907  11.660   2.991 -0.4829  1.1019 -0.4214
  858MOL0     O15703   0.781  11.725   2.970  0.0248  0.5144 -0.4289
  858MOL0     C15704   0.785  11.851   3.025  0.3900 -0.1769 -0.7383
  858MOL0     C15705   0.735  11.861   3.163 -0.3956 -0.1811 -0.3235
  858MOL0     C15706   0.596  11.790   3.167  0.6080 -0.0304  0.3582
  858MOL0     C15707   0.526  11.835   3.296 -0.0890 -0.1512  0.1941
  858MOL0     C15708   0.400  11.756   3.321  0.6203 -0.6224 -0.5873
  858MOL0     C15709   0.312  11.800   3.447 -0.1008 -0.6491  0.6173
  858MOL0     C15710   0.164  11.757   3.426 -0.8644  0.7023 -0.1228
  858MOL0     C15711   0.156  11.600   3.437 -0.0736  0.4106  1.0190
  858MOL0     N15712   0.019  11.542   3.466 -0.4704  0.1774 -0.2529
  858MOL0     C15713   0.002  11.421   3.523  0.3187 -0.2335  0.0301
  858MOL0     C15714  -0.128  11.392   3.512  0.2613 -0.3549 -1.4775
  858MOL0     C15715  -0.193  11.263   3.547  0.3339  0.2916  0.0209
  858MOL0     C15716  -0.225  11.241   3.703 -0.0453 -0.0644  0.4262
  858MOL0     C15717  -0.334  11.335   3.756  0.5532  0.1432  0.1128
  858MOL0     C15718  -0.471  11.287   3.717  0.6920  0.2898  0.2700
  858MOL0     O15719  -0.571  11.363   3.788  0.3477  0.0856 -0.2992
  858MOL0     C15720  -0.705  11.354   3.750  0.1460 -0.4798 -0.7636
  858MOL0     C15721  -0.791  11.444   3.817  0.2884 -0.0309  0.3457
  858MOL0     C15722  -0.929  11.463   3.803  0.2272 -0.9341  0.0326
  858MOL0     C15723  -0.991  11.568   3.892 -0.0697 -0.3740  0.8623
  858MOL0     C15724  -0.986  11.386   3.695  0.3620 -0.0700  0.2422
  858MOL0     C15725  -1.138  11.390   3.663  0.1907  0.1721  0.3433
  858MOL0     O15726  -1.217  11.477   3.731  0.4328 -0.2590  0.1729
  858MOL0     C15727  -1.347  11.496   3.693  0.3209 -1.1726  0.1537
  858MOL0     C15728  -1.427  11.409   3.625 -0.4273  0.2813  0.1051
  858MOL0     C15729  -1.565  11.443   3.593 -0.2749 -0.0124 -0.5150
  858MOL0     C15730  -1.614  11.572   3.640  0.5345  0.6938  0.0692
  858MOL0     O15731  -1.736  11.628   3.608 -0.5463 -0.5422  0.6340
  858MOL0     C15732  -1.840  11.555   3.539 -0.7382  0.0041 -0.8784
  858MOL0     C15733  -1.900  11.432   3.612  0.5931 -0.0965 -0.3035
  858MOL0     C15734  -2.047  11.413   3.567  0.1424 -0.4063  0.4568
  858MOL0     C15735  -2.137  11.512   3.655 -0.4051  1.6439  0.3019
  858MOL0     C15736  -2.276  11.518   3.602  0.0204  0.2041  0.2968
  858MOL0     C15737  -2.289  11.639   3.504  0.2900 -0.8170 -1.0892
  858MOL0     C15738  -2.332  11.776   3.559  0.3381 -0.3930  0.1043
  858MOL0     C15739  -2.483  11.788   3.585 -0.4921  0.0156 -0.0730
  858MOL0    Cl15740  -2.531  11.947   3.643  0.6986 -0.1335  0.1670
  858MOL0     C15741  -1.530  11.653   3.723  0.6979  0.4051  0.4767
  858MOL0     C15742  -1.391  11.620   3.739  0.8622 -0.1042  0.1343
  858MOL0     O15743  -1.169  11.332   3.561  0.1813 -0.3548  0.2811
  858MOL0     C15744  -0.908  11.290   3.628 -0.3372 -1.3270  0.7100
  858MOL0     C15745  -0.769  11.271   3.652 -0.3683 -0.2712  0.5291
  858MOL0     N15746  -0.195  11.508   3.463  0.4061 -0.2159 -0.3336
  858MOL0     N15747  -0.100  11.596   3.435 -0.1723  0.3284  0.4986
  858MOL0     C15748   0.948  11.595   3.113  0.5599  0.4494 -0.6141
  858MOL0     C15749   1.078  11.524   3.124 -0.0028  0.0428  0.4299
  858MOL0     C15750   1.437  11.272   2.995  0.4121 -0.0032 -0.7818
  858MOL0     C15751   1.554  11.350   2.994 -0.5950 -0.1003  0.4922
  858MOL0     C15752   1.688  11.307   2.992  0.4787 -0.0366  0.2523
  858MOL0     C15753   1.703  11.167   2.996  0.9875 -0.1749 -0.2246
  858MOL0     O15754   1.832  11.135   3.003  0.3115  0.8163 -0.5095
  858MOL0     C15755   1.858  10.998   2.984  0.4039  0.2797  0.2123
  858MOL0     C15756   1.842  10.945   2.842  0.1491  0.2212  0.2899
  858MOL0     C15757   1.962  10.857   2.793  0.3211  0.1461  0.4128
  858MOL0     C15758   1.930  10.801   2.644  0.2668  0.0408 -0.5126
  858MOL0     C15759   1.919  10.913   2.547 -1.0077 -0.9079 -0.4428
  858MOL0     C15760   1.917  11.000   2.466  0.6289  0.9977  0.1684
  858MOL0     C15761   1.590  11.081   2.986 -0.3566  0.3970 -0.1387
  858MOL0     C15762   1.457  11.134   3.003 -0.4928 -0.0304 -0.2767
  858MOL0     H15763   1.168  11.579   2.803  0.9075  0.7124  0.1410
  858MOL0     H15764   0.959  11.695   2.795 -0.5555 -1.7370 -0.1122
  858MOL0     H15765   0.879  11.907   3.014  0.3436  0.2326  0.6651
  858MOL0     H15766   0.713  11.908   2.966  0.7294 -0.8351 -1.8171
  858MOL0     H15767   0.800  11.822   3.242 -1.6881  1.7913  1.8464
  858MOL0     H15768   0.726  11.965   3.194 -2.0356  0.3919 -2.4944
  858MOL0     H15769   0.539  11.814   3.077  2.3474 -0.0826 -0.8161
  858MOL0     H15770   0.618  11.683   3.170 -0.0155 -0.2696 -1.8130
  858MOL0     H15771   0.591  11.814   3.381  0.0814 -0.7906 -0.0881
  858MOL0     H15772   0.513  11.943   3.293  1.5858  0.0623 -0.8615
  858MOL0     H15773   0.329  11.778   3.240  0.0572  1.7932  0.4818
  858MOL0     H15774   0.425  11.650   3.331  2.3903 -0.1074  0.8533
  858MOL0     H15775   0.349  11.760   3.542 -3.5977 -0.5646  2.1713
  858MOL0     H15776   0.316  11.910   3.451 -0.9829 -0.3370 -3.2459
  858MOL0     H15777   0.111  11.805   3.509  0.7372  1.3848  0.5482
  858MOL0     H15778   0.116  11.804   3.340 -0.1464  0.3261 -0.7386
  858MOL0     H15779   0.222  11.556   3.513  0.8897 -2.1005 -1.1124
  858MOL0     H15780   0.193  11.564   3.341  2.6564  1.6094  1.5390
  858MOL0     H15781   0.083  11.355   3.554 -0.5605 -0.4865  1.9312
  858MOL0     H15782  -0.288  11.258   3.493  0.2025  0.1184  0.2613
  858MOL0     H15783  -0.129  11.178   3.521  0.1057 -0.0418  0.5294
  858MOL0     H15784  -0.128  11.265   3.748  0.3123  2.0982 -1.2856
  858MOL0     H15785  -0.245  11.138   3.732  3.0149 -1.0770 -0.6510
  858MOL0     H15786  -0.329  11.441   3.729 -1.2270 -0.1816 -1.7182
  858MOL0     H15787  -0.336  11.325   3.865 -0.5391 -1.1387 -0.0044
  858MOL0     H15788  -0.470  11.185   3.756  0.2939 -0.3342 -1.2867
  858MOL0     H15789  -0.481  11.290   3.608  1.1693  0.7004  0.2347
  858MOL0     H15790  -0.731  11.504   3.885  0.3074  1.0823 -0.6137
  858MOL0     H15791  -1.057  11.514   3.961 -0.4818 -0.2423  0.5733
  858MOL0     H15792  -0.929  11.626   3.961 -1.8940  0.3726  1.9548
  858MOL0     H15793  -1.055  11.642   3.844  1.3290  0.2660 -0.0870
  858MOL0     H15794  -1.381  11.315   3.596  5.4712  2.3819  1.0887
  858MOL0     H15795  -1.621  11.378   3.526  2.6143 -3.4210  0.0468
  858MOL0     H15796  -1.925  11.622   3.521  0.2001  0.9904 -1.7902
  858MOL0     H15797  -1.799  11.538   3.439  0.2325  1.6013 -0.7943
  858MOL0     H15798  -1.844  11.343   3.582 -0.5565 -1.4511  1.3894
  858MOL0     H15799  -1.895  11.439   3.721 -1.0676  0.9982 -0.2639
  858MOL0     H15800  -2.071  11.307   3.577 -0.4932 -0.0879  3.2593
  858MOL0     H15801  -2.048  11.450   3.464  4.3328  0.1822  0.4726
  858MOL0     H15802  -2.145  11.468   3.755  0.0993  0.9680  0.0569
  858MOL0     H15803  -2.096  11.613   3.659  2.4070  0.7195 -2.0787
  858MOL0     H15804  -2.341  11.541   3.687 -3.6584  1.7265 -2.6736
  858MOL0     H15805  -2.301  11.423   3.554  2.1541 -0.7466  0.9294
  858MOL0     H15806  -2.195  11.655   3.449  0.0142  0.4478 -1.2078
  858MOL0     H15807  -2.341  11.603   3.415  2.7931 -2.5916 -1.9747
  858MOL0     H15808  -2.295  11.852   3.490  1.2086  0.0778  1.0597
  858MOL0     H15809  -2.275  11.792   3.651 -0.3117 -3.0691  1.0687
  858MOL0     H15810  -2.508  11.718   3.666  2.0794  0.9993  1.7004
  858MOL0     H15811  -2.545  11.761   3.499 -0.3370 -0.4896 -0.0308
  858MOL0     H15812  -1.562  11.747   3.768 -1.2273 -0.3741  0.8124
  858MOL0     H15813  -1.321  11.686   3.789 -0.2631  1.4502 -0.2783
  858MOL0     H15814  -0.962  11.228   3.556  0.6077  0.1763 -1.3837
  858MOL0     H15815  -0.704  11.204   3.597 -0.6863  1.4282 -2.0837
  858MOL0     H15816   0.875  11.592   3.193  2.3854 -1.1671  1.1008
  858MOL0     H15817   1.121  11.489   3.217 -0.8894 -1.1820  0.4024
  858MOL0     H15818   1.543  11.458   2.994 -4.3865 -0.3645 -0.0736
  858MOL0     H15819   1.774  11.373   3.002  1.1651 -1.1000  1.7002
  858MOL0     H15820   1.960  10.984   3.021  0.2024 -1.1035  0.3046
  858MOL0     H15821   1.806  10.929   3.051  1.8892 -0.0798  1.0477
  858MOL0     H15822   1.842  11.030   2.774  0.3520  0.7966  1.0039
  858MOL0     H15823   1.752  10.884   2.837 -0.8512  1.6464  0.3582
  858MOL0     H15824   1.977  10.777   2.865  0.6598  2.0488  2.5742
  858MOL0     H15825   2.057  10.912   2.788  0.4365 -0.1394 -0.9223
  858MOL0     H15826   1.827  10.765   2.653 -0.0265  1.3325  2.5504
  858MOL0     H15827   2.007  10.728   2.620 -1.3512 -2.0488  0.4164
  858MOL0     H15828   1.905  11.078   2.393  1.1296 -2.1926 -3.7046
  858MOL0     H15829   1.600  10.973   2.987  0.0239  0.4197 -0.9407
  858MOL0     H15830   1.373  11.074   3.037 -0.3581  0.8041  1.6730
  859MOL0     O15831   8.254   6.528   9.888  0.6152 -0.1750 -0.7830
  859MOL0     C15832   8.329   6.430   9.890  0.3074  0.2730 -0.1229
  859MOL0     O15833   8.294   6.300   9.922 -0.6901 -0.0028 -0.1910
  859MOL0     C15834   8.160   6.277   9.943 -0.0580  0.4893  0.5918
  859MOL0     C15835   8.108   6.260  10.069  0.1659  0.4205  0.2451
  859MOL0     C15836   7.975   6.230  10.088  0.2189 -0.0870  0.2877
  859MOL0     C15837   7.888   6.238   9.979  0.6975 -0.3252  1.2662
  859MOL0     O15838   7.755   6.240  10.000 -0.3839 -0.3465  0.0327
  859MOL0     C15839   7.680   6.332   9.917  0.3476 -0.2667 -0.1557
  859MOL0     C15840   7.543   6.373   9.979 -1.2581  0.0067  0.0936
  859MOL0     C15841   7.475   6.471   9.890 -0.4706 -0.3160  0.5071
  859MOL0     C15842   7.328   6.492   9.919 -0.2475  0.1587  0.3200
  859MOL0     C15843   7.267   6.600   9.820 -0.3416  0.2632 -0.3233
  859MOL0     C15844   7.272   6.554   9.668 -0.1334  0.6627 -0.4956
  859MOL0     C15845   7.195   6.658   9.580 -0.5314  0.2827  0.1937
  859MOL0     C15846   7.055   6.690   9.628 -0.3699  0.7307 -0.3581
  859MOL0     N15847   6.979   6.786   9.547  1.0008  0.1984 -0.4770
  859MOL0     C15848   7.024   6.888   9.466  0.0522  0.3871 -0.5762
  859MOL0     C15849   6.906   6.926   9.414 -0.8204 -0.4308 -1.0180
  859MOL0     C15850   6.896   7.033   9.315  0.1171 -0.8477 -0.3739
  859MOL0     C15851   6.905   7.171   9.382  0.5093  0.1893  0.2806
  859MOL0     C15852   6.776   7.193   9.470  0.0229  0.5271  0.2330
  859MOL0     C15853   6.646   7.218   9.385  0.1786 -1.5719 -0.2399
  859MOL0     O15854   6.568   7.321   9.456  0.4656  0.6373 -0.7201
  859MOL0     C15855   6.456   7.368   9.409  0.4236 -0.5177  0.4904
  859MOL0     C15856   6.380   7.302   9.321  0.1999  0.6547  0.5133
  859MOL0     C15857   6.256   7.344   9.275 -0.5610  0.2474 -0.1102
  859MOL0     C15858   6.184   7.262   9.165 -0.5172  0.0479  0.2982
  859MOL0     C15859   6.209   7.470   9.318 -0.0220  0.4378  0.3201
  859MOL0     C15860   6.081   7.523   9.267  1.0116  0.2089  0.9402
  859MOL0     O15861   6.077   7.655   9.234  0.4787  0.1851  0.9518
  859MOL0     C15862   5.951   7.706   9.193 -0.4091 -0.1074  0.5525
  859MOL0     C15863   5.853   7.741   9.285 -0.2414  0.3518 -0.5120
  859MOL0     C15864   5.723   7.778   9.254 -0.2858 -0.5086 -0.7727
  859MOL0     C15865   5.683   7.775   9.121 -0.5063  0.8488  0.1957
  859MOL0     O15866   5.560   7.821   9.082  0.2317  0.2399 -0.7226
  859MOL0     C15867   5.557   7.915   8.984  0.2733 -0.5030 -0.5363
  859MOL0     C15868   5.431   8.003   9.001 -0.6596  0.5587 -0.2681
  859MOL0     C15869   5.412   8.090   8.881  0.3113 -0.3923  0.5812
  859MOL0     C15870   5.290   8.180   8.892  0.1639 -0.1586 -0.3992
  859MOL0     C15871   5.295   8.278   8.779  0.1740  0.0246  0.7817
  859MOL0     C15872   5.163   8.356   8.759 -0.8210  0.9880 -0.0794
  859MOL0     C15873   5.148   8.415   8.627 -0.1420  0.1166 -0.2990
  859MOL0     C15874   5.008   8.397   8.571  0.1482  0.4756  0.1553
  859MOL0    Cl15875   4.901   8.520   8.643 -0.0425  0.2567  0.0460
  859MOL0     C15876   5.775   7.736   9.018 -0.4334 -0.7241  0.3283
  859MOL0     C15877   5.915   7.710   9.050 -0.4837  0.5096 -0.5332
  859MOL0     O15878   5.985   7.443   9.268 -0.0961  0.4314  0.2467
  859MOL0     C15879   6.283   7.539   9.411 -0.1837  0.6024  0.8494
  859MOL0     C15880   6.409   7.490   9.457  0.3711 -0.0711  0.5228
  859MOL0     N15881   6.793   6.858   9.465  0.0314 -0.0435 -0.7844
  859MOL0     N15882   6.844   6.774   9.544 -0.0435  0.0038 -0.6102
  859MOL0     C15883   7.935   6.255   9.844  0.0795 -0.2597 -1.0310
  859MOL0     C15884   8.076   6.266   9.832  0.6801  0.0596  0.0602
  859MOL0     C15885   8.476   6.462   9.866  0.8098 -0.1846 -0.0215
  859MOL0     C15886   8.525   6.592   9.847  0.1210 -0.1040  0.2841
  859MOL0     C15887   8.659   6.620   9.813 -0.0183 -0.0009  0.0422
  859MOL0     C15888   8.751   6.516   9.797 -0.0996  0.0367 -0.5243
  859MOL0     O15889   8.883   6.531   9.767  0.3122 -0.3072  0.5632
  859MOL0     C15890   8.928   6.664   9.730  0.0419  0.2948 -1.2558
  859MOL0     C15891   9.082   6.670   9.703  0.3884  0.1426  0.5929
  859MOL0     C15892   9.121   6.585   9.590  0.8288  0.4303  0.2868
  859MOL0     C15893   9.266   6.605   9.557  0.7666 -0.3740 -0.3896
  859MOL0     C15894   9.310   6.510   9.459  0.8206  0.4168  0.2870
  859MOL0     C15895   9.333   6.435   9.363  1.3392  0.2857 -0.5214
  859MOL0     C15896   8.707   6.390   9.827  0.3977  0.1178  0.7510
  859MOL0     C15897   8.573   6.359   9.851  0.7163  0.1327  0.0257
  859MOL0     H15898   8.179   6.274  10.150  1.3562 -1.6155 -0.3765
  859MOL0     H15899   7.931   6.220  10.187  0.6173  2.2598  0.7678
  859MOL0     H15900   7.734   6.426   9.896  1.4900 -0.6684  0.8595
  859MOL0     H15901   7.654   6.283   9.823 -1.0922  0.2601 -0.0616
  859MOL0     H15902   7.488   6.280   9.994 -1.5389  0.1788  0.1531
  859MOL0     H15903   7.544   6.416  10.080 -1.8891  1.1273 -0.3544
  859MOL0     H15904   7.530   6.566   9.900  1.1997 -0.5992 -3.8776
  859MOL0     H15905   7.497   6.445   9.786  1.0947 -2.2891  1.2803
  859MOL0     H15906   7.281   6.394   9.909 -0.1609 -0.0518  1.6806
  859MOL0     H15907   7.308   6.527  10.021  1.2152 -1.0786  1.0862
  859MOL0     H15908   7.164   6.599   9.856  0.9088 -1.2890  3.8656
  859MOL0     H15909   7.317   6.698   9.822 -0.5956  0.3912 -0.2233
  859MOL0     H15910   7.371   6.538   9.624 -0.3634  1.0761 -1.1737
  859MOL0     H15911   7.221   6.459   9.650 -1.2844  1.1037  0.3197
  859MOL0     H15912   7.252   6.751   9.570 -2.0648  1.0450 -2.5485
  859MOL0     H15913   7.184   6.623   9.477 -1.1674  0.9059  0.0497
  859MOL0     H15914   7.034   6.709   9.734 -0.0966 -1.3291  0.1141
  859MOL0     H15915   6.991   6.603   9.610  0.3481  0.0552  0.2390
  859MOL0     H15916   7.124   6.924   9.443  0.4609  0.0772  0.6433
  859MOL0     H15917   6.979   7.019   9.245  0.2157 -0.3915 -0.3533
  859MOL0     H15918   6.805   7.024   9.256  0.5357 -2.3817 -0.8413
  859MOL0     H15919   6.911   7.257   9.315 -3.1632  1.1734  0.9862
  859MOL0     H15920   6.995   7.179   9.443  0.0233  2.4520  0.8146
  859MOL0     H15921   6.789   7.270   9.546  0.6165 -3.0302  4.1207
  859MOL0     H15922   6.759   7.106   9.534 -3.9625  0.3421 -0.8152
  859MOL0     H15923   6.590   7.127   9.358 -0.2440 -0.8319 -1.9711
  859MOL0     H15924   6.685   7.267   9.295  1.4347  1.0895  1.6270
  859MOL0     H15925   6.425   7.214   9.275 -0.3179  1.0645 -0.8281
  859MOL0     H15926   6.263   7.206   9.113  0.6356  2.3362 -0.5530
  859MOL0     H15927   6.119   7.181   9.199  0.0135  0.5472  2.6788
  859MOL0     H15928   6.136   7.337   9.102  2.8157 -0.6566 -3.5005
  859MOL0     H15929   5.871   7.744   9.392  0.0343 -1.9873 -0.4475
  859MOL0     H15930   5.646   7.820   9.318  0.7653  1.4661 -0.7205
  859MOL0     H15931   5.641   7.981   9.006 -0.3648  0.5312 -1.1277
  859MOL0     H15932   5.558   7.867   8.886  2.1200 -0.8876 -0.3614
  859MOL0     H15933   5.347   7.935   9.018  1.9517 -2.0788  3.7591
  859MOL0     H15934   5.455   8.051   9.096 -0.9419 -0.4661  0.3335
  859MOL0     H15935   5.390   8.029   8.793 -1.3654  1.6507 -0.5097
  859MOL0     H15936   5.504   8.147   8.860  0.3599 -0.4483  0.6395
  859MOL0     H15937   5.199   8.119   8.896 -0.7056  1.1472  2.3239
  859MOL0     H15938   5.294   8.236   8.986  1.8616 -2.0953  0.7592
  859MOL0     H15939   5.307   8.214   8.691 -0.1252 -1.1536  1.5749
  859MOL0     H15940   5.376   8.352   8.782 -0.0153  0.2814  0.0300
  859MOL0     H15941   5.075   8.293   8.780 -0.5692 -0.1248 -2.1101
  859MOL0     H15942   5.163   8.435   8.834  0.2077  2.8510 -1.9546
  859MOL0     H15943   5.229   8.370   8.569  1.3919  1.2059  0.9270
  859MOL0     H15944   5.175   8.521   8.637 -0.8576  0.1880  1.1836
  859MOL0     H15945   4.969   8.296   8.588  0.2090 -0.0952 -2.5951
  859MOL0     H15946   5.020   8.422   8.466  1.5958  0.1758  0.2393
  859MOL0     H15947   5.736   7.730   8.916 -3.1058  0.4480  1.2057
  859MOL0     H15948   5.981   7.680   8.970 -0.2461 -0.5409  0.0382
  859MOL0     H15949   6.248   7.637   9.444 -2.5572 -0.4925  1.7950
  859MOL0     H15950   6.453   7.558   9.529 -3.7890  0.8138  2.5588
  859MOL0     H15951   7.872   6.263   9.756 -0.5840 -0.3622 -0.5671
  859MOL0     H15952   8.110   6.277   9.729 -0.5273 -1.6749 -0.5889
  859MOL0     H15953   8.455   6.675   9.857 -0.7041  0.2377 -5.2799
  859MOL0     H15954   8.695   6.722   9.799  2.1621 -0.7537 -0.1434
  859MOL0     H15955   8.882   6.706   9.640  0.4867 -1.8256 -2.5396
  859MOL0     H15956   8.901   6.729   9.814  0.1190  0.2829 -1.2213
  859MOL0     H15957   9.137   6.644   9.794  1.6362  0.9719  0.0963
  859MOL0     H15958   9.102   6.774   9.674  1.1289  0.0449  0.7399
  859MOL0     H15959   9.057   6.600   9.503 -0.8713  1.0297  1.6001
  859MOL0     H15960   9.111   6.484   9.631  3.0432  0.3364  0.7432
  859MOL0     H15961   9.330   6.595   9.645  2.6599  2.6442 -1.2817
  859MOL0     H15962   9.285   6.705   9.518  3.3189 -1.1150 -1.2965
  859MOL0     H15963   9.345   6.363   9.285  2.7380 -3.1310  2.5329
  859MOL0     H15964   8.773   6.305   9.816  1.1652  0.9606 -1.9538
  859MOL0     H15965   8.548   6.253   9.856 -0.3357  0.3088 -0.9056
  860MOL0     O15966  10.552   0.659   4.941  0.4038 -0.2421  0.3196
  860MOL0     C15967  10.525   0.735   5.032 -0.2689  0.0782  0.0036
  860MOL0     O15968  10.426   0.823   5.034  0.1848 -0.4057 -0.6258
  860MOL0     C15969  10.336   0.823   4.929 -0.5792  0.8217 -0.0750
  860MOL0     C15970  10.244   0.715   4.921  0.3091  0.1584  0.2858
  860MOL0     C15971  10.133   0.718   4.831 -0.1194 -0.1871  0.5134
  860MOL0     C15972  10.116   0.829   4.744 -0.2834  0.3081  0.4165
  860MOL0     O15973  10.017   0.824   4.652 -0.3107  0.1889  0.0172
  860MOL0     C15974  10.019   0.925   4.548 -0.2379  0.7887  0.0270
  860MOL0     C15975   9.917   0.905   4.434  0.4044 -0.0345  0.4039
  860MOL0     C15976   9.776   0.883   4.486 -0.8299 -0.3284 -0.0449
  860MOL0     C15977   9.678   0.858   4.366 -0.7445 -0.7984  0.2919
  860MOL0     C15978   9.538   0.859   4.415 -0.2518 -0.4434  0.2612
  860MOL0     C15979   9.437   0.835   4.297 -0.0660  0.8588  0.6692
  860MOL0     C15980   9.283   0.847   4.338  0.8144  0.0319  1.1879
  860MOL0     C15981   9.200   0.843   4.207 -0.1430 -0.0471  0.5555
  860MOL0     N15982   9.069   0.922   4.220 -0.6597  0.3714 -0.9010
  860MOL0     C15983   8.985   0.925   4.121  0.6472  0.1877 -0.5820
  860MOL0     C15984   8.898   1.021   4.148 -0.9944 -0.8335 -0.6024
  860MOL0     C15985   8.779   1.058   4.067  0.0145  0.1640  0.0649
  860MOL0     C15986   8.811   1.065   3.916 -0.3947  0.0387  1.1044
  860MOL0     C15987   8.701   1.141   3.841  0.6188  0.7908  0.0936
  860MOL0     C15988   8.727   1.162   3.689  0.5912 -0.1437  0.2313
  860MOL0     O15989   8.637   1.269   3.637 -0.5936  0.3988 -0.3623
  860MOL0     C15990   8.503   1.234   3.611 -0.1724  0.7324 -1.3809
  860MOL0     C15991   8.410   1.335   3.589 -1.2267 -0.2025 -0.6311
  860MOL0     C15992   8.269   1.305   3.590  0.4884 -0.1352  0.4277
  860MOL0     C15993   8.185   1.429   3.570  0.3422  0.2218 -0.1213
  860MOL0     C15994   8.228   1.174   3.583  0.8229 -0.2951  0.0915
  860MOL0     C15995   8.085   1.137   3.559  0.8317  0.2282 -1.0349
  860MOL0     O15996   8.053   1.006   3.594 -0.0492  0.2534 -0.1705
  860MOL0     C15997   7.935   0.957   3.558  0.3932  1.0448  0.8523
  860MOL0     C15998   7.817   1.018   3.613  0.7728  0.4439 -0.4891
  860MOL0     C15999   7.696   0.952   3.591  0.5545 -0.2668 -0.0090
  860MOL0     C16000   7.677   0.852   3.496  0.1100 -0.0798 -0.0593
  860MOL0     O16001   7.546   0.799   3.472  0.5865 -0.9281 -0.1422
  860MOL0     C16002   7.524   0.737   3.340 -0.4774  0.4047 -0.3838
  860MOL0     C16003   7.382   0.683   3.361 -0.6259 -0.2412 -0.0538
  860MOL0     C16004   7.327   0.619   3.232  0.5035  0.5940  0.5705
  860MOL0     C16005   7.398   0.486   3.220  0.5124 -0.4499  0.7379
  860MOL0     C16006   7.338   0.397   3.110 -0.5549 -0.2823  0.2121
  860MOL0     C16007   7.202   0.339   3.140  0.9645 -0.4021  0.2936
  860MOL0     C16008   7.198   0.232   3.261 -0.0047  0.0337  0.0020
  860MOL0     C16009   7.296   0.119   3.249 -0.9123  0.8596 -0.1060
  860MOL0    Cl16010   7.453   0.177   3.298  0.0521 -0.2175  0.3490
  860MOL0     C16011   7.791   0.807   3.429 -1.1840  0.4011 -0.0744
  860MOL0     C16012   7.920   0.860   3.455 -0.8179  0.0493 -0.6017
  860MOL0     O16013   8.001   1.215   3.519  0.3736 -0.0666 -0.1800
  860MOL0     C16014   8.317   1.073   3.599 -0.7886  0.2358  0.3255
  860MOL0     C16015   8.454   1.101   3.617  0.1365 -0.6616  0.3529
  860MOL0     N16016   8.930   1.080   4.273 -0.2061 -0.4031  0.2239
  860MOL0     N16017   9.036   1.013   4.312 -0.1568 -0.1214 -0.1374
  860MOL0     C16018  10.206   0.938   4.757 -0.6978  0.2407 -0.4332
  860MOL0     C16019  10.315   0.924   4.848 -0.7071 -0.9276  0.3909
  860MOL0     C16020  10.621   0.738   5.141  1.0639 -0.6350 -0.4986
  860MOL0     C16021  10.727   0.650   5.149 -0.3606  0.1920  0.7641
  860MOL0     C16022  10.825   0.652   5.252  0.1030  0.5027  0.2348
  860MOL0     C16023  10.819   0.749   5.350  0.4606  0.7702  0.4885
  860MOL0     O16024  10.912   0.762   5.450 -0.0892 -0.5656 -0.2638
  860MOL0     C16025  11.052   0.733   5.423 -0.3753  0.6293  0.3167
  860MOL0     C16026  11.130   0.859   5.470  0.1430 -0.7264  0.1071
  860MOL0     C16027  11.112   0.957   5.346 -0.1474 -0.7008 -0.3763
  860MOL0     C16028  11.191   1.085   5.371  0.8426 -0.3841 -0.3499
  860MOL0     C16029  11.123   1.153   5.480 -0.4166 -0.8139 -0.2987
  860MOL0     C16030  11.062   1.214   5.567 -0.3860 -0.3441 -0.7486
  860MOL0     C16031  10.710   0.825   5.358 -0.1819  0.1250 -0.2159
  860MOL0     C16032  10.612   0.826   5.251 -0.9278  0.4840  0.7968
  860MOL0     H16033  10.246   0.633   4.992 -3.9929 -0.0697  0.4053
  860MOL0     H16034  10.071   0.631   4.812 -0.2654 -0.0563  0.3824
  860MOL0     H16035  10.002   1.024   4.590  1.5243  2.3164 -2.6188
  860MOL0     H16036  10.116   0.924   4.499 -0.2341 -1.2026 -0.0375
  860MOL0     H16037   9.916   0.997   4.375  2.4918  0.3737  0.9018
  860MOL0     H16038   9.936   0.824   4.363  0.1895 -0.7570  1.1613
  860MOL0     H16039   9.786   0.803   4.560  1.1568 -0.1847 -0.1202
  860MOL0     H16040   9.745   0.971   4.543 -1.4776  0.7177 -1.9227
  860MOL0     H16041   9.689   0.941   4.296  2.3992 -0.2262  1.3312
  860MOL0     H16042   9.699   0.760   4.320 -0.2024  0.0679 -1.3969
  860MOL0     H16043   9.524   0.776   4.484  0.0551  0.5164  1.5008
  860MOL0     H16044   9.511   0.951   4.468 -0.4423 -0.0206 -0.5456
  860MOL0     H16045   9.453   0.911   4.220  2.5800  1.3728  1.6075
  860MOL0     H16046   9.453   0.734   4.259 -2.5258  0.4422  0.5938
  860MOL0     H16047   9.248   0.767   4.404  0.8756 -1.4272 -0.4702
  860MOL0     H16048   9.265   0.940   4.393 -2.7852  0.3689 -0.3050
  860MOL0     H16049   9.178   0.740   4.176 -0.1524 -1.0936  3.7184
  860MOL0     H16050   9.260   0.895   4.131  1.3675  1.8546  2.9335
  860MOL0     H16051   8.974   0.864   4.032 -0.7141 -0.4100 -0.0305
  860MOL0     H16052   8.688   1.002   4.091  0.3750  0.2919  1.9113
  860MOL0     H16053   8.761   1.162   4.097  3.4745  0.9130 -0.0373
  860MOL0     H16054   8.816   0.965   3.872 -2.3801  0.6702 -0.7493
  860MOL0     H16055   8.905   1.117   3.895  0.3822 -1.0655  1.7779
  860MOL0     H16056   8.687   1.241   3.885 -3.0491  0.3080  0.3366
  860MOL0     H16057   8.604   1.096   3.862  0.6073 -0.1767 -1.8700
  860MOL0     H16058   8.720   1.068   3.634 -0.7137 -0.1647  0.4008
  860MOL0     H16059   8.831   1.194   3.680 -0.0710  1.8248 -1.1581
  860MOL0     H16060   8.440   1.438   3.581  0.0180 -0.5612 -0.7773
  860MOL0     H16061   8.132   1.431   3.474  0.3338 -1.8971 -0.2031
  860MOL0     H16062   8.103   1.427   3.642 -0.4625  1.7637 -0.9355
  860MOL0     H16063   8.244   1.518   3.592  1.0039 -0.2070 -0.1355
  860MOL0     H16064   7.826   1.108   3.673  0.6645 -0.2708  0.6154
  860MOL0     H16065   7.605   1.001   3.625  1.4109  1.0752  0.4080
  860MOL0     H16066   7.535   0.812   3.262  0.7036  0.7617  0.1107
  860MOL0     H16067   7.589   0.653   3.316 -2.9024 -1.6236 -0.3067
  860MOL0     H16068   7.379   0.617   3.448 -0.5414  0.1168  0.2189
  860MOL0     H16069   7.336   0.779   3.387  1.2023  0.6636 -0.0356
  860MOL0     H16070   7.344   0.679   3.142  2.5914  0.1971  0.6526
  860MOL0     H16071   7.219   0.599   3.234  0.2962  1.6766  1.6358
  860MOL0     H16072   7.503   0.499   3.193 -0.1420  1.2308 -1.2923
  860MOL0     H16073   7.389   0.427   3.311 -1.4640 -1.5562 -0.0979
  860MOL0     H16074   7.415   0.320   3.100  0.8634  0.7061  2.6161
  860MOL0     H16075   7.326   0.457   3.019 -3.1163  1.2890  1.4890
  860MOL0     H16076   7.124   0.412   3.162 -1.0076 -2.4636  0.4588
  860MOL0     H16077   7.155   0.283   3.059 -1.0113  2.8353 -0.9788
  860MOL0     H16078   7.096   0.191   3.257 -0.1142  0.3092 -0.0071
  860MOL0     H16079   7.217   0.284   3.355  0.6293 -0.8214  0.3610
  860MOL0     H16080   7.300   0.074   3.149  1.7108 -3.0953  1.5589
  860MOL0     H16081   7.274   0.036   3.317 -1.7132 -1.5588 -3.0957
  860MOL0     H16082   7.782   0.731   3.352 -0.0308 -1.0787  1.1995
  860MOL0     H16083   8.011   0.837   3.400 -0.0934  2.1832 -0.3854
  860MOL0     H16084   8.282   0.970   3.593  0.9688 -0.5164  1.7742
  860MOL0     H16085   8.520   1.016   3.630  1.0194 -0.0566 -0.0299
  860MOL0     H16086  10.188   1.024   4.693 -0.0179  2.8678  2.6365
  860MOL0     H16087  10.392   1.000   4.853  0.0740 -1.6371 -0.4380
  860MOL0     H16088  10.743   0.585   5.064 -1.8126 -0.2169  0.7672
  860MOL0     H16089  10.912   0.587   5.260  0.7600  1.2387 -0.6769
  860MOL0     H16090  11.090   0.648   5.481  0.7755  2.3160  2.1829
  860MOL0     H16091  11.080   0.716   5.319 -1.1305 -2.8623  0.5764
  860MOL0     H16092  11.238   0.849   5.486 -0.3718 -2.5296  3.2054
  860MOL0     H16093  11.071   0.888   5.557 -0.4306 -1.7035  0.0529
  860MOL0     H16094  11.009   0.984   5.324 -0.7398 -3.8816 -2.0920
  860MOL0     H16095  11.160   0.910   5.260  0.5013 -1.3037  0.2962
  860MOL0     H16096  11.190   1.151   5.284  1.6511 -1.7680 -1.4562
  860MOL0     H16097  11.295   1.059   5.395  0.4771 -0.6650  1.0690
  860MOL0     H16098  11.024   1.279   5.643  1.1567  0.9902 -1.0824
  860MOL0     H16099  10.688   0.899   5.434 -3.4128  0.9048 -1.7472
  860MOL0     H16100  10.528   0.895   5.256 -0.1103  1.9006 -2.3343
  861MOL0     O16101   3.343   7.811   2.744 -0.3300 -0.2910  1.2683
  861MOL0     C16102   3.373   7.729   2.834  0.6348  0.1959  0.1104
  861MOL0     O16103   3.297   7.693   2.941  0.8541 -0.5416 -0.8287
  861MOL0     C16104   3.166   7.736   2.967  0.0174 -0.7548 -0.5069
  861MOL0     C16105   3.069   7.647   3.009  0.8738  0.2536 -0.1234
  861MOL0     C16106   2.937   7.689   3.041  0.9769 -0.1489  0.3349
  861MOL0     C16107   2.895   7.820   3.013  0.4790 -0.3877 -0.2571
  861MOL0     O16108   2.768   7.847   3.055 -0.4035 -0.2103  0.1423
  861MOL0     C16109   2.718   7.975   3.032 -0.1438 -0.2343 -0.0741
  861MOL0     C16110   2.597   8.000   3.107  0.4734  0.2493 -0.0082
  861MOL0     C16111   2.478   7.913   3.062 -0.4662 -0.3040 -0.1460
  861MOL0     C16112   2.424   7.951   2.921 -0.1468 -0.2812  0.8835
  861MOL0     C16113   2.299   7.876   2.895  0.0809 -0.2301 -0.3696
  861MOL0     C16114   2.242   7.898   2.760 -0.5076  0.3137 -0.0229
  861MOL0     C16115   2.104   7.851   2.722  0.5146 -0.6667 -0.8073
  861MOL0     C16116   1.999   7.886   2.828  0.2018 -0.3398  0.4007
  861MOL0     N16117   1.871   7.848   2.794 -0.0364 -0.6274 -0.2520
  861MOL0     C16118   1.769   7.928   2.756  0.4362 -0.7304 -0.2903
  861MOL0     C16119   1.667   7.840   2.719 -0.0048 -0.0296  0.0722
  861MOL0     C16120   1.532   7.886   2.676 -0.2805  0.0896  1.0756
  861MOL0     C16121   1.405   7.856   2.758  0.5055 -0.0223  0.0927
  861MOL0     C16122   1.404   7.919   2.904 -0.0392 -0.0323 -0.5754
  861MOL0     C16123   1.446   8.070   2.904  0.7268  0.2284  0.3847
  861MOL0     O16124   1.357   8.142   2.814  0.3138 -0.5578 -0.3253
  861MOL0     C16125   1.233   8.198   2.855 -0.3551  0.1893 -0.4447
  861MOL0     C16126   1.175   8.286   2.761  0.2233 -0.7145 -0.4590
  861MOL0     C16127   1.048   8.342   2.787  0.4723  0.2792  0.1661
  861MOL0     C16128   0.988   8.443   2.684  0.6086 -0.1100 -0.8889
  861MOL0     C16129   0.968   8.306   2.906  0.0507 -0.9526 -0.4465
  861MOL0     C16130   0.829   8.347   2.957 -0.5332  0.7405  0.9650
  861MOL0     O16131   0.784   8.316   3.083 -0.3254 -0.9741  0.8470
  861MOL0     C16132   0.682   8.397   3.135 -0.6964  0.5243 -0.5032
  861MOL0     C16133   0.629   8.517   3.085 -0.2290  0.0835 -0.6945
  861MOL0     C16134   0.545   8.586   3.154 -0.1440  1.3125 -1.1179
  861MOL0     C16135   0.485   8.537   3.272 -0.2021  0.2881  0.4727
  861MOL0     O16136   0.387   8.620   3.327  0.8242  0.1711  0.4185
  861MOL0     C16137   0.336   8.590   3.460  0.0485  0.2515 -0.0467
  861MOL0     C16138   0.235   8.691   3.517  0.2773  0.6734 -0.0502
  861MOL0     C16139   0.105   8.701   3.441 -0.4769  0.3390 -0.0514
  861MOL0     C16140   0.027   8.827   3.486 -0.1520 -0.1925 -0.1056
  861MOL0     C16141  -0.106   8.842   3.413 -0.2837  0.1182 -0.5399
  861MOL0     C16142  -0.206   8.909   3.511  0.5714 -0.1526  0.3999
  861MOL0     C16143  -0.342   8.932   3.447 -0.3603  0.7916 -0.4096
  861MOL0     C16144  -0.344   9.026   3.329 -0.6854  0.4193  0.2882
  861MOL0    Cl16145  -0.266   9.186   3.349  0.3418  0.0419  0.0531
  861MOL0     C16146   0.537   8.415   3.326  0.6869 -0.3985 -0.0827
  861MOL0     C16147   0.638   8.342   3.262  0.2759 -0.4224  0.2535
  861MOL0     O16148   0.772   8.409   2.867 -0.4424  1.1364 -0.1451
  861MOL0     C16149   1.032   8.214   2.989 -0.2759  0.4491 -0.4682
  861MOL0     C16150   1.159   8.157   2.968  1.0141 -0.3196  0.7388
  861MOL0     N16151   1.712   7.708   2.738 -0.0127  0.3258  0.3081
  861MOL0     N16152   1.836   7.720   2.776 -0.0939 -0.3891  0.2193
  861MOL0     C16153   2.989   7.905   2.962  0.2474 -0.2661  0.6309
  861MOL0     C16154   3.119   7.865   2.937  0.6458  0.3962 -0.1569
  861MOL0     C16155   3.504   7.661   2.832  0.8302  0.4795 -0.2654
  861MOL0     C16156   3.542   7.553   2.909 -0.0231 -0.8910 -0.1402
  861MOL0     C16157   3.671   7.501   2.906  0.4023 -0.0127  0.5198
  861MOL0     C16158   3.760   7.535   2.806  0.3338 -0.3035 -0.3640
  861MOL0     O16159   3.877   7.463   2.812  0.4874 -0.3207 -0.2021
  861MOL0     C16160   3.966   7.493   2.707  0.5527 -0.0260  0.6605
  861MOL0     C16161   4.052   7.367   2.683 -0.3792  0.8521  0.0804
  861MOL0     C16162   4.155   7.351   2.795  0.3273 -0.0563 -0.3874
  861MOL0     C16163   4.222   7.217   2.796 -0.3256 -0.2032  0.1385
  861MOL0     C16164   4.360   7.223   2.851 -0.1970 -0.1675  0.4794
  861MOL0     C16165   4.469   7.231   2.899  0.2977 -0.9892  1.5013
  861MOL0     C16166   3.717   7.639   2.719 -0.0777  0.7183  0.0524
  861MOL0     C16167   3.595   7.700   2.737  0.8423 -0.4324  0.3173
  861MOL0     H16168   3.104   7.544   3.017  0.9807 -0.0929 -3.5086
  861MOL0     H16169   2.862   7.614   3.066  1.2949 -0.7254 -0.3935
  861MOL0     H16170   2.797   8.046   3.058  0.1388 -0.2397 -0.8994
  861MOL0     H16171   2.696   7.988   2.925 -0.0087  3.4057  0.1971
  861MOL0     H16172   2.613   7.983   3.214  0.0570 -3.0903 -0.3822
  861MOL0     H16173   2.581   8.109   3.104  1.0135  0.3122 -1.0519
  861MOL0     H16174   2.509   7.809   3.071  0.4951  0.1164  2.3918
  861MOL0     H16175   2.400   7.935   3.136 -1.0460  1.1347 -1.1395
  861MOL0     H16176   2.412   8.060   2.912  1.4713  0.3576  4.6725
  861MOL0     H16177   2.492   7.922   2.841 -2.2881  0.2370 -1.2568
  861MOL0     H16178   2.304   7.769   2.919 -1.9691 -0.0748  0.9698
  861MOL0     H16179   2.234   7.924   2.969  1.2655 -1.2334  1.3913
  861MOL0     H16180   2.229   8.005   2.741  1.5179  0.4924 -0.6356
  861MOL0     H16181   2.316   7.860   2.689 -1.2766  0.3564 -0.8640
  861MOL0     H16182   2.082   7.884   2.621  1.3046  2.9701  0.0862
  861MOL0     H16183   2.098   7.742   2.716  1.7448 -0.7435 -0.8672
  861MOL0     H16184   2.002   7.991   2.856 -1.1469 -0.2132  0.1466
  861MOL0     H16185   2.015   7.833   2.923 -1.0654 -1.0946  0.2245
  861MOL0     H16186   1.771   8.036   2.749  2.4038 -0.8430 -2.8051
  861MOL0     H16187   1.531   7.995   2.675 -1.2478  0.0883  0.9319
  861MOL0     H16188   1.519   7.851   2.574 -3.5188  1.2610  0.9570
  861MOL0     H16189   1.399   7.747   2.765  1.2189 -0.0549  0.3647
  861MOL0     H16190   1.310   7.882   2.711 -0.7123 -2.5678  0.9383
  861MOL0     H16191   1.469   7.861   2.969 -0.1263  3.0439  2.5129
  861MOL0     H16192   1.308   7.900   2.952  0.0128  1.0599 -0.0206
  861MOL0     H16193   1.548   8.063   2.866  0.0162  1.6874 -1.9749
  861MOL0     H16194   1.448   8.110   3.006 -1.1845 -0.0331  0.5741
  861MOL0     H16195   1.228   8.321   2.673 -2.2682  2.1678 -0.9770
  861MOL0     H16196   1.058   8.469   2.604  0.1302 -1.6219 -1.8563
  861MOL0     H16197   0.892   8.412   2.641 -0.0940  1.6075 -0.6452
  861MOL0     H16198   0.966   8.542   2.725  1.3710  0.1855 -1.1874
  861MOL0     H16199   0.667   8.565   2.996  1.5753 -1.5951 -0.9011
  861MOL0     H16200   0.514   8.682   3.115  0.7132  2.4498  0.8233
  861MOL0     H16201   0.299   8.487   3.462  2.5553 -0.8138  4.5840
  861MOL0     H16202   0.423   8.591   3.526  0.2192  0.3068 -0.2670
  861MOL0     H16203   0.211   8.661   3.620  1.1995 -2.2539 -0.5901
  861MOL0     H16204   0.275   8.793   3.515 -0.8162  1.1003 -0.6021
  861MOL0     H16205   0.049   8.608   3.448  0.6896 -0.3591  0.2863
  861MOL0     H16206   0.126   8.708   3.334  0.7403  0.4747  0.1786
  861MOL0     H16207   0.012   8.829   3.594  0.9561  2.8959  0.0754
  861MOL0     H16208   0.085   8.919   3.475 -2.7301  1.4584 -0.8471
  861MOL0     H16209  -0.142   8.743   3.385 -0.7044  0.4951 -1.3685
  861MOL0     H16210  -0.080   8.900   3.325  0.2139 -1.0323 -1.1721
  861MOL0     H16211  -0.213   8.840   3.596 -0.0664 -1.1201 -0.4190
  861MOL0     H16212  -0.167   9.002   3.554  0.0316  1.4836 -2.3935
  861MOL0     H16213  -0.408   8.969   3.526 -2.0960  0.7795 -1.7969
  861MOL0     H16214  -0.384   8.834   3.423  1.8334 -0.8546  1.9771
  861MOL0     H16215  -0.451   9.039   3.315 -0.9924 -1.1022  1.0049
  861MOL0     H16216  -0.293   8.983   3.242  1.4115  3.6663 -0.2585
  861MOL0     H16217   0.479   8.369   3.405 -1.9159  0.1714 -1.5471
  861MOL0     H16218   0.679   8.248   3.297 -2.6310 -1.3209  1.5448
  861MOL0     H16219   0.975   8.173   3.072  0.9539 -0.1154  0.1322
  861MOL0     H16220   1.208   8.092   3.039 -2.2599 -1.7583  1.8549
  861MOL0     H16221   2.957   8.007   2.944 -1.3374 -0.8086  0.2170
  861MOL0     H16222   3.174   7.942   2.884  0.4146 -1.3903 -3.2580
  861MOL0     H16223   3.482   7.514   2.991  0.6532 -1.3445  0.1493
  861MOL0     H16224   3.695   7.423   2.978 -2.2337 -1.1538  0.2697
  861MOL0     H16225   3.909   7.503   2.615 -0.0254 -0.2061  0.9965
  861MOL0     H16226   4.030   7.581   2.714 -1.5977  1.8156 -1.3546
  861MOL0     H16227   4.100   7.367   2.585 -1.4457  1.2649 -0.4538
  861MOL0     H16228   3.982   7.283   2.686 -0.1419  0.6394  3.0767
  861MOL0     H16229   4.102   7.371   2.889 -1.5264  2.1539 -1.8274
  861MOL0     H16230   4.227   7.433   2.789 -1.1487  1.3664  0.4508
  861MOL0     H16231   4.226   7.164   2.700  0.8306 -0.9247  0.5645
  861MOL0     H16232   4.158   7.153   2.857 -1.3009 -1.1341 -1.7737
  861MOL0     H16233   4.558   7.224   2.957  3.5074  1.6482 -2.5447
  861MOL0     H16234   3.791   7.687   2.657 -0.1959  0.9385  0.0808
  861MOL0     H16235   3.576   7.783   2.670  1.4335 -0.1661  0.4694
  862MOL0     O16236   6.145   5.003   5.479  0.0927 -0.9102  0.0904
  862MOL0     C16237   6.047   5.058   5.538  1.0534 -0.0684  0.3192
  862MOL0     O16238   5.911   5.034   5.511 -0.5886  0.3856  0.0229
  862MOL0     C16239   5.881   4.959   5.400  0.1494 -0.2715  0.3896
  862MOL0     C16240   5.766   5.010   5.329 -0.2808  0.2601 -0.5963
  862MOL0     C16241   5.717   4.953   5.218  0.4364  0.4250 -0.3384
  862MOL0     C16242   5.772   4.837   5.176  1.1752  0.9322  0.0020
  862MOL0     O16243   5.706   4.777   5.074  0.6142 -0.5175  0.1727
  862MOL0     C16244   5.607   4.680   5.118 -0.3508 -0.6195  0.0929
  862MOL0     C16245   5.548   4.608   4.991  0.1017 -0.5556 -0.0238
  862MOL0     C16246   5.453   4.704   4.917 -0.8502 -0.7433  0.4756
  862MOL0     C16247   5.394   4.629   4.797  0.0092  0.1787  0.0964
  862MOL0     C16248   5.307   4.709   4.706 -0.4145  0.1117  0.0508
  862MOL0     C16249   5.363   4.846   4.660  0.1113 -0.0306  0.1653
  862MOL0     C16250   5.275   4.933   4.566  0.4470 -0.6066 -0.1305
  862MOL0     C16251   5.275   4.881   4.428 -0.0713 -0.4898 -0.1177
  862MOL0     N16252   5.398   4.911   4.353  0.4849  0.1675  0.4671
  862MOL0     C16253   5.421   5.035   4.300  0.7931  0.0064 -0.5516
  862MOL0     C16254   5.525   5.020   4.214  0.2906 -0.1402 -0.2871
  862MOL0     C16255   5.583   5.130   4.125 -0.7077  0.8754  0.6965
  862MOL0     C16256   5.517   5.133   3.989  1.0672 -0.2215 -0.3157
  862MOL0     C16257   5.572   5.241   3.901  0.8486  0.0101  1.5182
  862MOL0     C16258   5.541   5.233   3.756 -0.3135 -0.6256  0.5311
  862MOL0     O16259   5.474   5.353   3.698  0.6120  0.8361  1.2567
  862MOL0     C16260   5.350   5.398   3.739 -0.5973  0.1717  0.8574
  862MOL0     C16261   5.323   5.528   3.710  0.8492  0.2207 -0.9250
  862MOL0     C16262   5.197   5.584   3.742 -0.0226  1.2266  0.0450
  862MOL0     C16263   5.171   5.723   3.694  0.2467 -0.2598  0.4896
  862MOL0     C16264   5.094   5.502   3.807 -0.2817  0.1516  0.8156
  862MOL0     C16265   4.959   5.550   3.853 -0.5259  0.7931  0.3719
  862MOL0     O16266   4.903   5.476   3.947 -0.1675 -0.2717  0.2526
  862MOL0     C16267   4.773   5.509   3.975 -0.4369 -0.4561 -0.7982
  862MOL0     C16268   4.668   5.445   3.902 -0.2348 -0.3717 -0.4138
  862MOL0     C16269   4.535   5.475   3.933 -0.4090 -0.5535  0.8809
  862MOL0     C16270   4.508   5.553   4.045  0.4888 -0.3391  0.3787
  862MOL0     O16271   4.369   5.569   4.066 -0.4434 -0.8026 -1.0813
  862MOL0     C16272   4.331   5.687   4.142 -0.3558  1.1873 -0.2623
  862MOL0     C16273   4.186   5.719   4.138 -0.3980  0.3581 -0.3737
  862MOL0     C16274   4.103   5.591   4.170 -0.1633 -0.7253  1.0355
  862MOL0     C16275   3.957   5.625   4.208 -0.6656 -0.1450  1.1576
  862MOL0     C16276   3.877   5.501   4.243 -0.1806  0.5041  0.0511
  862MOL0     C16277   3.733   5.532   4.280  1.1779 -0.1349 -0.0097
  862MOL0     C16278   3.649   5.588   4.158  0.1801  0.4243 -0.9707
  862MOL0     C16279   3.509   5.627   4.203  0.4540  0.1361 -0.0713
  862MOL0    Cl16280   3.407   5.479   4.231 -0.2060 -0.1030  0.1385
  862MOL0     C16281   4.612   5.612   4.123  0.5062 -0.4277 -0.1865
  862MOL0     C16282   4.742   5.602   4.075  0.5663 -0.0960  0.1872
  862MOL0     O16283   4.908   5.649   3.803  0.1090 -0.4742  0.2921
  862MOL0     C16284   5.130   5.371   3.839 -0.1013 -0.1707  0.5037
  862MOL0     C16285   5.255   5.319   3.802 -1.0277 -0.1986 -0.0700
  862MOL0     N16286   5.568   4.886   4.220 -0.0044 -0.1346 -0.7228
  862MOL0     N16287   5.487   4.822   4.304 -0.1702  0.1003  0.8754
  862MOL0     C16288   5.883   4.776   5.235  0.0382 -0.9650 -0.9057
  862MOL0     C16289   5.935   4.838   5.350 -0.3845  0.6046 -0.3382
  862MOL0     C16290   6.075   5.163   5.642  1.1071  0.0709 -0.2210
  862MOL0     C16291   6.205   5.160   5.701 -0.4558 -0.2081  0.8646
  862MOL0     C16292   6.240   5.254   5.796 -1.0180  0.6024 -0.5742
  862MOL0     C16293   6.151   5.351   5.843  0.3995  0.1602 -0.3837
  862MOL0     O16294   6.196   5.434   5.943 -0.2995 -0.3548  0.7618
  862MOL0     C16295   6.100   5.509   6.021  0.3168 -0.6423 -0.2471
  862MOL0     C16296   6.176   5.555   6.159 -0.6636 -0.8274  0.2529
  862MOL0     C16297   6.090   5.577   6.283  0.2144  0.1510 -0.2386
  862MOL0     C16298   5.963   5.658   6.250  0.2665  0.1121 -0.6979
  862MOL0     C16299   5.883   5.656   6.372 -0.3100 -1.0197  0.2950
  862MOL0     C16300   5.826   5.655   6.482  0.4297 -0.2661  0.1492
  862MOL0     C16301   6.016   5.341   5.801  0.0334  0.0270  0.5451
  862MOL0     C16302   5.981   5.253   5.691  0.8203 -0.9897 -0.3106
  862MOL0     H16303   5.731   5.108   5.361  1.2085 -0.0391  2.2769
  862MOL0     H16304   5.630   4.990   5.165 -0.2070 -0.4113  0.1043
  862MOL0     H16305   5.653   4.609   5.187 -1.0722 -0.8018  0.4023
  862MOL0     H16306   5.527   4.733   5.171 -0.4098 -0.2940 -0.3121
  862MOL0     H16307   5.628   4.571   4.927  0.7625 -2.0237  1.5804
  862MOL0     H16308   5.493   4.516   5.013 -2.8616  1.2852  1.0131
  862MOL0     H16309   5.378   4.746   4.985 -0.0996 -0.1149  0.9295
  862MOL0     H16310   5.508   4.792   4.884 -1.5729 -0.4521  0.0235
  862MOL0     H16311   5.483   4.594   4.743  1.7486  0.9236  2.2962
  862MOL0     H16312   5.334   4.548   4.841 -1.2325  0.9125 -0.2053
  862MOL0     H16313   5.289   4.650   4.615 -0.6579  0.8072 -0.3601
  862MOL0     H16314   5.205   4.713   4.745 -1.3307 -1.2775 -1.9902
  862MOL0     H16315   5.387   4.901   4.752  0.2679 -0.8692  0.6405
  862MOL0     H16316   5.458   4.820   4.613  1.7115  2.4794  1.7593
  862MOL0     H16317   5.172   4.928   4.603 -0.2060 -0.9764 -1.8824
  862MOL0     H16318   5.295   5.041   4.571 -3.1556  0.2828 -1.2717
  862MOL0     H16319   5.195   4.920   4.364 -0.1499 -0.7053 -0.1522
  862MOL0     H16320   5.257   4.773   4.426  0.0679 -0.4968 -1.6001
  862MOL0     H16321   5.361   5.123   4.323 -1.3639 -1.8272  1.3383
  862MOL0     H16322   5.581   5.230   4.169 -1.4296  1.3445 -0.3630
  862MOL0     H16323   5.690   5.115   4.107 -0.8311  1.3036 -0.5306
  862MOL0     H16324   5.408   5.143   3.989  1.1364  0.6264  0.0584
  862MOL0     H16325   5.528   5.036   3.939  1.4666 -0.0638 -0.5351
  862MOL0     H16326   5.678   5.265   3.919  1.5281 -1.7206  0.0552
  862MOL0     H16327   5.515   5.328   3.935 -1.8159  0.1874 -2.7133
  862MOL0     H16328   5.477   5.145   3.743  0.0416 -0.8136  0.0572
  862MOL0     H16329   5.631   5.212   3.698 -1.2745 -1.6781 -0.6544
  862MOL0     H16330   5.400   5.592   3.668  0.7448 -0.0100 -1.4705
  862MOL0     H16331   5.084   5.730   3.628 -0.8268 -0.7555  1.7933
  862MOL0     H16332   5.151   5.783   3.783 -1.7970  0.0174 -0.1019
  862MOL0     H16333   5.259   5.762   3.642  0.5703 -2.6413 -0.8743
  862MOL0     H16334   4.695   5.374   3.825  2.2067  0.8317 -0.7754
  862MOL0     H16335   4.456   5.426   3.878 -2.3235 -0.6233  3.4795
  862MOL0     H16336   4.358   5.681   4.248  2.4520 -2.0311 -0.9930
  862MOL0     H16337   4.391   5.771   4.106 -0.1247  0.6635 -1.1302
  862MOL0     H16338   4.169   5.792   4.218 -0.3256 -0.2906  0.2425
  862MOL0     H16339   4.163   5.767   4.042 -0.5719 -0.7631 -0.9082
  862MOL0     H16340   4.143   5.534   4.254 -0.6540 -2.6865  0.0097
  862MOL0     H16341   4.114   5.512   4.094 -2.1372 -2.0280  2.0082
  862MOL0     H16342   3.961   5.699   4.289  0.0435  1.2206 -0.0891
  862MOL0     H16343   3.917   5.665   4.114  3.2276  1.8769  0.1471
  862MOL0     H16344   3.922   5.450   4.329  1.4331 -0.5728 -1.3640
  862MOL0     H16345   3.883   5.427   4.163  0.6598 -0.1462  0.7002
  862MOL0     H16346   3.695   5.433   4.308  0.4438  0.3017  0.5758
  862MOL0     H16347   3.738   5.589   4.373  2.3587 -1.7372  0.9691
  862MOL0     H16348   3.647   5.516   4.076  0.5293 -1.6144  0.7169
  862MOL0     H16349   3.680   5.687   4.124 -0.8972  1.0757 -0.1377
  862MOL0     H16350   3.466   5.678   4.116 -0.4965 -4.1273 -2.3443
  862MOL0     H16351   3.504   5.691   4.291  0.0557  0.7246 -0.5104
  862MOL0     H16352   4.592   5.659   4.219  1.1402 -0.4077 -0.0596
  862MOL0     H16353   4.825   5.647   4.129  0.7887  1.6313 -1.4784
  862MOL0     H16354   5.057   5.304   3.883 -0.5107 -0.4307 -0.5399
  862MOL0     H16355   5.263   5.211   3.812 -0.3854 -0.0236  1.6523
  862MOL0     H16356   5.921   4.678   5.207 -0.0178 -1.1616 -0.3182
  862MOL0     H16357   6.016   4.785   5.398  1.0141  2.4237 -0.6171
  862MOL0     H16358   6.280   5.087   5.672 -0.7657 -0.8885  1.7227
  862MOL0     H16359   6.341   5.258   5.835 -1.3423 -1.7336  0.6569
  862MOL0     H16360   6.062   5.597   5.969  3.2875  0.2751 -1.0403
  862MOL0     H16361   6.013   5.446   6.042 -2.7835  2.7180 -1.9756
  862MOL0     H16362   6.233   5.645   6.136 -0.9330 -1.0665 -1.4640
  862MOL0     H16363   6.243   5.476   6.194  2.0118  1.5884  0.9979
  862MOL0     H16364   6.147   5.637   6.354 -1.4426  0.6496  0.7244
  862MOL0     H16365   6.067   5.483   6.333  0.3219  1.6838  2.9095
  862MOL0     H16366   5.918   5.613   6.162  1.6912 -1.4353 -0.6930
  862MOL0     H16367   5.987   5.761   6.221 -0.4462  0.5250  0.1417
  862MOL0     H16368   5.768   5.655   6.572  0.5773  0.0587  0.2475
  862MOL0     H16369   5.934   5.403   5.836 -0.6778 -0.7814  0.3337
  862MOL0     H16370   5.876   5.256   5.665  0.3627  1.1322  1.3992
  863MOL0     O16371   7.663   9.677   8.202  0.0088  0.0170  0.7523
  863MOL0     C16372   7.708   9.637   8.311 -0.0595  0.6797  0.0635
  863MOL0     O16373   7.628   9.594   8.414 -0.1717 -0.1518 -0.2451
  863MOL0     C16374   7.495   9.586   8.399  0.4871 -0.1022 -0.1802
  863MOL0     C16375   7.429   9.491   8.320  0.2786  0.0139 -0.1651
  863MOL0     C16376   7.295   9.483   8.315  0.1356  0.2917 -0.1007
  863MOL0     C16377   7.214   9.583   8.375 -0.4936  0.1563  0.2912
  863MOL0     O16378   7.081   9.564   8.364  0.4223  0.1565  0.3386
  863MOL0     C16379   6.992   9.675   8.370 -0.1096 -0.2752 -0.0173
  863MOL0     C16380   6.849   9.647   8.324  0.4147  0.2273 -0.4108
  863MOL0     C16381   6.744   9.615   8.440  0.1868  0.0881  0.7447
  863MOL0     C16382   6.790   9.500   8.528  0.0078 -1.0456  0.9523
  863MOL0     C16383   6.674   9.467   8.629 -1.2153  0.0497  0.4355
  863MOL0     C16384   6.546   9.429   8.567  0.2534 -0.3095  0.2163
  863MOL0     C16385   6.553   9.315   8.467 -0.3622 -0.0245 -0.5609
  863MOL0     C16386   6.421   9.292   8.380  0.5430  0.0135  0.0311
  863MOL0     N16387   6.296   9.316   8.449 -0.9532 -0.0491 -0.2600
  863MOL0     C16388   6.217   9.231   8.526 -0.1699 -0.0555 -1.1860
  863MOL0     C16389   6.114   9.299   8.575  0.7060  0.6038  0.0809
  863MOL0     C16390   6.006   9.243   8.666 -0.0652 -0.6994  0.1936
  863MOL0     C16391   5.912   9.341   8.741 -0.2282  0.5122 -0.2632
  863MOL0     C16392   5.848   9.452   8.661 -0.0242 -0.0202 -0.4415
  863MOL0     C16393   5.741   9.527   8.734 -0.2748 -0.5038  0.4331
  863MOL0     O16394   5.783   9.549   8.876 -0.6952  0.0868  1.1843
  863MOL0     C16395   5.683   9.589   8.965  0.1518  0.3745 -0.0654
  863MOL0     C16396   5.568   9.646   8.922  0.8700  0.4963 -0.0464
  863MOL0     C16397   5.471   9.683   9.024 -0.0779  0.0730 -0.5564
  863MOL0     C16398   5.370   9.779   8.965  0.2696 -0.1571 -0.3923
  863MOL0     C16399   5.487   9.648   9.161  0.7601 -0.4730  0.6976
  863MOL0     C16400   5.374   9.662   9.259 -0.6528  0.2067  0.1526
  863MOL0     O16401   5.398   9.697   9.392 -0.1428 -0.0768 -0.1422
  863MOL0     C16402   5.293   9.695   9.477  0.5870 -0.7660  0.1727
  863MOL0     C16403   5.266   9.582   9.546 -0.1872  0.3317  0.1489
  863MOL0     C16404   5.153   9.591   9.630  0.1631  0.4286 -0.9752
  863MOL0     C16405   5.076   9.705   9.647  0.7371  0.1544 -0.1497
  863MOL0     O16406   4.972   9.706   9.735  0.2474 -0.5654 -0.9182
  863MOL0     C16407   4.837   9.714   9.676 -0.5553  0.8693  0.2431
  863MOL0     C16408   4.747   9.594   9.723 -0.9345 -0.1156 -0.1472
  863MOL0     C16409   4.600   9.614   9.713 -0.7460  0.8378  0.1449
  863MOL0     C16410   4.503   9.517   9.769  0.3660  0.2954  0.0399
  863MOL0     C16411   4.358   9.567   9.764  0.7365 -0.2623  0.2702
  863MOL0     C16412   4.332   9.659   9.881 -0.3134 -0.1850 -0.6395
  863MOL0     C16413   4.202   9.733   9.889  0.2476 -0.2919  0.5944
  863MOL0     C16414   4.094   9.636   9.925 -0.3790  0.0959  0.0984
  863MOL0    Cl16415   4.135   9.557  10.082  0.1377 -0.2878  0.0987
  863MOL0     C16416   5.117   9.825   9.587  0.1137  0.7243  0.2414
  863MOL0     C16417   5.229   9.816   9.504  0.6858 -0.4537  0.1120
  863MOL0     O16418   5.260   9.654   9.209  0.6856 -0.5498 -0.4371
  863MOL0     C16419   5.616   9.599   9.202 -0.1177  0.3613 -0.2527
  863MOL0     C16420   5.712   9.570   9.101  1.0395 -0.0239 -0.0235
  863MOL0     N16421   6.124   9.418   8.520 -0.7530  0.0680 -0.2670
  863MOL0     N16422   6.235   9.437   8.455 -0.5694  0.4763 -0.2652
  863MOL0     C16423   7.279   9.689   8.447  0.3018 -0.6798  0.3737
  863MOL0     C16424   7.419   9.687   8.454 -0.1578 -0.8117  0.4789
  863MOL0     C16425   7.854   9.625   8.331 -0.0153 -0.8083  0.0200
  863MOL0     C16426   7.913   9.598   8.458  0.0755 -0.6446 -0.6259
  863MOL0     C16427   8.055   9.586   8.486  0.4279 -0.1723  0.2495
  863MOL0     C16428   8.133   9.591   8.373  0.2069 -0.5620 -0.0488
  863MOL0     O16429   8.265   9.559   8.398  0.3209 -0.4391  0.1953
  863MOL0     C16430   8.350   9.504   8.297 -0.3870  0.7782  0.3854
  863MOL0     C16431   8.484   9.568   8.314 -0.3809  0.5969 -0.4340
  863MOL0     C16432   8.593   9.488   8.236 -0.5015 -0.8818 -0.2780
  863MOL0     C16433   8.571   9.502   8.089  0.8234 -0.1886  0.7891
  863MOL0     C16434   8.689   9.453   8.023 -0.0637  0.5706  0.1954
  863MOL0     C16435   8.781   9.396   7.970  0.5366  0.1011  0.2451
  863MOL0     C16436   8.079   9.618   8.243 -0.1888 -0.3150  0.0026
  863MOL0     C16437   7.950   9.644   8.223  0.4408 -0.4886  0.9372
  863MOL0     H16438   7.483   9.412   8.269 -1.9427 -0.7196 -1.5167
  863MOL0     H16439   7.243   9.403   8.264 -0.5191  0.8811 -0.3641
  863MOL0     H16440   6.988   9.736   8.461 -0.4910  0.3223 -0.4242
  863MOL0     H16441   7.027   9.753   8.301 -2.3576  0.7064 -0.1460
  863MOL0     H16442   6.803   9.735   8.278  0.6847 -0.5640 -2.2759
  863MOL0     H16443   6.856   9.579   8.238  0.3355  0.7108 -0.8039
  863MOL0     H16444   6.721   9.700   8.506  2.9180  2.6384 -1.3143
  863MOL0     H16445   6.654   9.585   8.385  1.2162  0.4731 -1.2223
  863MOL0     H16446   6.822   9.414   8.470  0.9116  0.7316 -1.3056
  863MOL0     H16447   6.880   9.527   8.584 -1.5218 -0.7594  3.4466
  863MOL0     H16448   6.712   9.387   8.693 -0.9593  1.6398  2.3677
  863MOL0     H16449   6.644   9.551   8.692  0.4019 -0.8504  2.4987
  863MOL0     H16450   6.485   9.391   8.649  1.8486 -3.5771  0.0610
  863MOL0     H16451   6.507   9.522   8.525  0.9851  0.5111  1.3121
  863MOL0     H16452   6.633   9.323   8.394 -1.0026 -0.6428 -1.3495
  863MOL0     H16453   6.573   9.224   8.526 -1.9260  1.0516  1.8031
  863MOL0     H16454   6.423   9.190   8.339  0.5317  0.0286 -0.0061
  863MOL0     H16455   6.404   9.368   8.303 -0.7893 -0.1504  0.1395
  863MOL0     H16456   6.241   9.130   8.557  0.6958  0.8216  1.2580
  863MOL0     H16457   5.948   9.177   8.600 -0.4709  0.5448 -0.7469
  863MOL0     H16458   6.053   9.182   8.743 -0.1508  1.6572  2.2247
  863MOL0     H16459   5.982   9.385   8.813  0.9333 -0.2575 -0.8876
  863MOL0     H16460   5.831   9.282   8.784 -1.8761  0.7716 -2.7741
  863MOL0     H16461   5.808   9.411   8.568 -0.0304  0.1143 -0.4984
  863MOL0     H16462   5.924   9.528   8.642 -2.9363  3.4534  0.4116
  863MOL0     H16463   5.649   9.468   8.744 -1.1583  1.1901  5.5030
  863MOL0     H16464   5.724   9.620   8.678 -0.5290 -1.0734 -0.4570
  863MOL0     H16465   5.540   9.655   8.818 -2.0951 -0.4255  0.5639
  863MOL0     H16466   5.281   9.724   8.933  0.6995 -0.2750 -1.4229
  863MOL0     H16467   5.334   9.849   9.041 -0.3506 -0.7580 -0.1244
  863MOL0     H16468   5.404   9.842   8.882  0.7481  1.1441  0.7609
  863MOL0     H16469   5.314   9.486   9.531  2.1477  1.7591 -2.6446
  863MOL0     H16470   5.126   9.504   9.689  0.8161  2.4695  2.6018
  863MOL0     H16471   4.796   9.806   9.717 -0.3927 -0.3193  3.2856
  863MOL0     H16472   4.845   9.715   9.567  2.3652  0.0971  0.3622
  863MOL0     H16473   4.780   9.497   9.686  1.6081 -0.3486  2.3984
  863MOL0     H16474   4.770   9.582   9.830 -0.0888 -0.7432 -0.3852
  863MOL0     H16475   4.578   9.614   9.606  1.8653 -2.8870 -0.5744
  863MOL0     H16476   4.577   9.714   9.752 -4.7790  0.8895 -1.8751
  863MOL0     H16477   4.511   9.427   9.707  0.9035 -0.3146  0.9798
  863MOL0     H16478   4.535   9.486   9.869 -1.1360 -2.6973 -0.2827
  863MOL0     H16479   4.281   9.491   9.771  0.8977 -0.5351 -0.7856
  863MOL0     H16480   4.358   9.630   9.675  0.9800 -1.5297 -0.6540
  863MOL0     H16481   4.342   9.601   9.973 -0.1444 -0.1278 -0.6225
  863MOL0     H16482   4.410   9.735   9.871  0.9188 -1.3235  0.0135
  863MOL0     H16483   4.180   9.781   9.793  1.4316  2.1615  1.4851
  863MOL0     H16484   4.199   9.807   9.969 -1.6637  1.7270 -1.2258
  863MOL0     H16485   4.092   9.563   9.843  2.8691  0.6478 -0.6291
  863MOL0     H16486   3.995   9.676   9.948  1.1522  2.0955  4.4418
  863MOL0     H16487   5.069   9.922   9.589  1.0706  1.2185  0.0245
  863MOL0     H16488   5.260   9.912   9.464 -0.3401  0.3959  1.2731
  863MOL0     H16489   5.636   9.583   9.307 -0.0762  2.7650  0.1598
  863MOL0     H16490   5.809   9.541   9.141  0.8518 -0.8624 -0.1547
  863MOL0     H16491   7.223   9.769   8.495  1.4808 -0.5964  1.6635
  863MOL0     H16492   7.472   9.767   8.504 -2.5890  0.0610  1.8038
  863MOL0     H16493   7.846   9.583   8.543  1.7886  2.5436  1.4881
  863MOL0     H16494   8.099   9.568   8.583 -2.1069 -0.3859  1.4427
  863MOL0     H16495   8.356   9.396   8.311 -0.7901  0.9436  1.9617
  863MOL0     H16496   8.318   9.525   8.194  0.7085  0.3744 -0.0530
  863MOL0     H16497   8.503   9.565   8.421 -0.0258 -0.6117 -0.5109
  863MOL0     H16498   8.466   9.668   8.273 -2.1845  0.5485  0.1338
  863MOL0     H16499   8.592   9.383   8.267  0.6902 -1.7440 -2.9136
  863MOL0     H16500   8.688   9.535   8.262 -2.1596  3.3552 -1.0447
  863MOL0     H16501   8.559   9.605   8.054  2.6502 -1.0632 -3.0088
  863MOL0     H16502   8.482   9.444   8.067  0.6912  0.1848  0.3179
  863MOL0     H16503   8.862   9.348   7.919  0.3437  0.3338 -0.2849
  863MOL0     H16504   8.146   9.633   8.159  1.9711 -1.0642  1.4960
  863MOL0     H16505   7.918   9.682   8.126  1.0598 -2.7582 -0.2199
  864MOL0     O16506   0.816   2.815   5.952  0.1501  0.0535 -0.0212
  864MOL0     C16507   0.837   2.928   5.998  0.3611  0.4839  0.2857
  864MOL0     O16508   0.763   3.046   5.973 -0.1457 -0.1860  0.5924
  864MOL0     C16509   0.671   3.052   5.871  0.2725  0.2943  0.4548
  864MOL0     C16510   0.603   2.949   5.795  0.5538 -0.9175  0.5711
  864MOL0     C16511   0.526   2.977   5.683 -0.1241 -0.5559 -0.8055
  864MOL0     C16512   0.505   3.107   5.633  0.3309 -0.4165 -0.3359
  864MOL0     O16513   0.439   3.141   5.520 -0.3650  0.3885  0.1658
  864MOL0     C16514   0.371   3.041   5.444 -0.2528  1.1518 -0.0478
  864MOL0     C16515   0.254   3.104   5.374  0.5477  0.2754  0.2983
  864MOL0     C16516   0.180   3.000   5.296  1.5692 -0.4227  0.1127
  864MOL0     C16517   0.044   3.058   5.252 -0.5808 -0.2957 -0.5044
  864MOL0     C16518  -0.025   2.973   5.148 -0.0689  0.4755 -0.0951
  864MOL0     C16519  -0.170   3.020   5.115  0.4148 -0.2326  0.7285
  864MOL0     C16520  -0.238   2.908   5.028  0.6188 -0.5429 -0.1326
  864MOL0     C16521  -0.397   2.907   5.055 -0.0260 -0.0652  0.0090
  864MOL0     N16522  -0.462   3.025   4.995  0.4622 -1.2059  1.1112
  864MOL0     C16523  -0.508   3.040   4.864  0.6500 -0.9060 -0.8367
  864MOL0     C16524  -0.591   3.147   4.858  0.6895  0.9592 -0.4942
  864MOL0     C16525  -0.648   3.211   4.741 -0.3209 -0.2603 -0.6526
  864MOL0     C16526  -0.793   3.240   4.744 -0.6026 -0.3773  0.6815
  864MOL0     C16527  -0.876   3.114   4.743  0.2309  0.2741  0.1275
  864MOL0     C16528  -1.001   3.121   4.658 -0.3678  0.2223 -0.0863
  864MOL0     O16529  -1.088   3.232   4.701 -0.1574 -0.0261 -0.3960
  864MOL0     C16530  -1.205   3.255   4.627 -0.1293 -0.6046 -0.4434
  864MOL0     C16531  -1.261   3.172   4.534 -0.0978 -0.1585  1.1396
  864MOL0     C16532  -1.375   3.210   4.464  0.8937  0.3378  1.1018
  864MOL0     C16533  -1.413   3.096   4.367  0.3412  0.2264 -0.5623
  864MOL0     C16534  -1.435   3.337   4.488  0.3450  0.3237 -0.2146
  864MOL0     C16535  -1.552   3.376   4.405  0.2692  0.6437 -0.0842
  864MOL0     O16536  -1.576   3.326   4.274  0.1505  0.3229  1.2878
  864MOL0     C16537  -1.702   3.334   4.219 -1.0357  0.5722  1.0136
  864MOL0     C16538  -1.815   3.307   4.300  0.1675 -0.8090  0.1615
  864MOL0     C16539  -1.937   3.289   4.233 -0.3470 -0.9615 -0.1222
  864MOL0     C16540  -1.941   3.295   4.092  0.9661 -0.4583 -0.8077
  864MOL0     O16541  -2.057   3.276   4.023  0.1461 -0.8258  0.2437
  864MOL0     C16542  -2.098   3.136   4.024  0.7492 -0.5452  0.0957
  864MOL0     C16543  -2.124   3.090   3.879 -0.4944  0.5266  0.9267
  864MOL0     C16544  -2.222   2.968   3.871 -0.0967  0.2454 -1.0505
  864MOL0     C16545  -2.165   2.835   3.925  0.2560 -0.2613  0.5883
  864MOL0     C16546  -2.263   2.717   3.905  0.3539 -0.2829  0.5177
  864MOL0     C16547  -2.404   2.739   3.972 -0.2348  0.9334  0.7237
  864MOL0     C16548  -2.495   2.614   3.933  0.4884  0.1473 -0.0887
  864MOL0     C16549  -2.632   2.603   4.005 -0.1133  0.0519  0.1811
  864MOL0    Cl16550  -2.707   2.445   3.993  0.2626  0.1401  0.3884
  864MOL0     C16551  -1.835   3.324   4.010 -0.0585  0.2580 -0.5768
  864MOL0     C16552  -1.716   3.338   4.077 -0.1096  0.7307  0.5906
  864MOL0     O16553  -1.618   3.459   4.463 -0.5841  0.0557 -0.3735
  864MOL0     C16554  -1.378   3.423   4.583  0.3955  0.7024  0.2492
  864MOL0     C16555  -1.255   3.386   4.646  0.5415  0.1032  0.4751
  864MOL0     N16556  -0.600   3.204   4.987 -0.1805 -0.3467 -0.1319
  864MOL0     N16557  -0.525   3.126   5.065  0.5461  0.2278  0.4511
  864MOL0     C16558   0.578   3.203   5.700  0.7193  1.0169  0.3371
  864MOL0     C16559   0.654   3.183   5.819  0.2943 -0.2225  0.3945
  864MOL0     C16560   0.953   2.953   6.083 -0.4306 -0.0562 -0.1433
  864MOL0     C16561   1.020   2.843   6.136 -0.3643 -0.6025 -0.4031
  864MOL0     C16562   1.136   2.861   6.221  0.4659  0.1622  0.1388
  864MOL0     C16563   1.187   2.982   6.254  0.7701 -0.6057  0.1337
  864MOL0     O16564   1.297   2.980   6.331 -0.0975 -0.1954 -0.2410
  864MOL0     C16565   1.375   3.099   6.362  0.3139 -0.6514  0.0811
  864MOL0     C16566   1.466   3.107   6.244  0.1880 -0.0505 -0.7374
  864MOL0     C16567   1.565   3.221   6.245  0.3219 -0.4386  0.2936
  864MOL0     C16568   1.631   3.242   6.381  0.0337 -0.0043 -0.5572
  864MOL0     C16569   1.699   3.120   6.412 -0.0508  0.4604 -0.7830
  864MOL0     C16570   1.756   3.009   6.429 -0.2075 -0.0669 -0.3629
  864MOL0     C16571   1.121   3.092   6.198  0.2784  0.1065  0.3434
  864MOL0     C16572   1.008   3.078   6.116 -1.1007  0.5045 -0.5820
  864MOL0     H16573   0.611   2.846   5.829  2.9178  0.0842  3.5003
  864MOL0     H16574   0.490   2.884   5.640 -0.2430 -0.4273 -0.9885
  864MOL0     H16575   0.426   2.986   5.367  2.3665  0.4682  2.1746
  864MOL0     H16576   0.331   2.964   5.510 -0.0222 -0.1208 -1.3270
  864MOL0     H16577   0.188   3.155   5.445 -1.1577 -0.4777 -0.6814
  864MOL0     H16578   0.302   3.173   5.305  1.3756 -0.9660 -0.4024
  864MOL0     H16579   0.239   2.965   5.211 -0.8770 -2.5381 -0.8574
  864MOL0     H16580   0.164   2.910   5.356  0.3686 -2.3865 -2.9546
  864MOL0     H16581  -0.025   3.071   5.336  1.6009 -0.4170  1.4428
  864MOL0     H16582   0.063   3.156   5.207 -0.4026  1.6969  3.4391
  864MOL0     H16583   0.035   2.962   5.057 -2.3964  0.1540 -1.6933
  864MOL0     H16584  -0.030   2.876   5.200  0.1850 -1.4236 -3.3406
  864MOL0     H16585  -0.222   3.034   5.210  0.6263 -0.3018  0.8569
  864MOL0     H16586  -0.180   3.118   5.065 -1.6258 -1.0745 -0.6677
  864MOL0     H16587  -0.211   2.914   4.922  0.3578 -0.7760 -0.2120
  864MOL0     H16588  -0.203   2.809   5.058 -2.1068 -1.6922 -0.5228
  864MOL0     H16589  -0.420   2.897   5.161  2.3669 -1.3846  0.4805
  864MOL0     H16590  -0.429   2.817   5.003 -0.5996 -0.1395  0.4873
  864MOL0     H16591  -0.476   2.978   4.781  3.1851  2.0288 -2.2699
  864MOL0     H16592  -0.587   3.298   4.715  3.1099 -1.9404  1.1390
  864MOL0     H16593  -0.636   3.139   4.660  1.9146 -0.0034 -0.6095
  864MOL0     H16594  -0.821   3.305   4.660  3.5275  0.9554  0.1009
  864MOL0     H16595  -0.815   3.300   4.833  1.0206  0.6591  0.4407
  864MOL0     H16596  -0.911   3.099   4.846 -1.2205 -1.9173 -0.6156
  864MOL0     H16597  -0.809   3.030   4.721  3.9115  2.1832  2.8698
  864MOL0     H16598  -1.048   3.022   4.662 -0.7561  0.3932 -0.3712
  864MOL0     H16599  -0.966   3.140   4.556 -0.1520  1.4402  0.1973
  864MOL0     H16600  -1.201   3.083   4.519  1.3634  1.1026 -1.0004
  864MOL0     H16601  -1.420   3.144   4.269 -0.6383 -0.2892 -0.7618
  864MOL0     H16602  -1.346   3.011   4.378 -1.0534 -0.9116 -0.5059
  864MOL0     H16603  -1.512   3.057   4.395  1.3698 -1.1645  1.4386
  864MOL0     H16604  -1.810   3.302   4.409 -0.2651 -0.1294  0.2200
  864MOL0     H16605  -2.023   3.258   4.291  1.0109 -0.9311  1.9715
  864MOL0     H16606  -2.033   3.064   4.073 -0.3759 -1.1765  0.6819
  864MOL0     H16607  -2.195   3.127   4.073  0.3657  2.3130  0.0569
  864MOL0     H16608  -2.167   3.167   3.814 -0.6293 -1.3232 -1.3049
  864MOL0     H16609  -2.033   3.049   3.835 -1.3747 -1.4688  0.8250
  864MOL0     H16610  -2.253   2.955   3.767 -1.9819  0.5659 -0.5529
  864MOL0     H16611  -2.310   2.996   3.930 -1.6627  0.1981 -3.2650
  864MOL0     H16612  -2.073   2.803   3.875  2.6052  0.5357  4.0214
  864MOL0     H16613  -2.148   2.853   4.032  0.4569 -0.6100  0.6180
  864MOL0     H16614  -2.233   2.614   3.928 -1.8752 -1.5361 -1.7567
  864MOL0     H16615  -2.285   2.711   3.798 -0.0313 -1.4323  0.6520
  864MOL0     H16616  -2.390   2.750   4.080  2.0863 -3.1270  1.0449
  864MOL0     H16617  -2.453   2.826   3.927 -2.2029 -0.8062 -0.7026
  864MOL0     H16618  -2.440   2.521   3.948 -0.4582 -0.2771  0.7692
  864MOL0     H16619  -2.502   2.618   3.824  0.6564  1.7401 -0.0759
  864MOL0     H16620  -2.705   2.670   3.959  0.6167  1.6949  1.3055
  864MOL0     H16621  -2.630   2.626   4.112 -1.3108 -2.9089  0.9369
  864MOL0     H16622  -1.832   3.327   3.901 -0.6013 -0.6300 -0.6256
  864MOL0     H16623  -1.630   3.333   4.011 -2.8102 -4.3474 -3.1901
  864MOL0     H16624  -1.432   3.516   4.604  0.3775  0.3511  1.8567
  864MOL0     H16625  -1.198   3.459   4.704  2.0786 -0.5060 -0.2038
  864MOL0     H16626   0.575   3.307   5.670 -0.0408  0.4334 -1.7652
  864MOL0     H16627   0.693   3.274   5.863 -2.1916  0.5584  1.1965
  864MOL0     H16628   0.993   2.737   6.129  1.0336 -1.4301  3.8921
  864MOL0     H16629   1.188   2.774   6.259  3.2786  1.9634  0.7013
  864MOL0     H16630   1.306   3.183   6.374  1.4395  0.0427  2.1773
  864MOL0     H16631   1.428   3.093   6.458  1.0648 -1.6677 -0.3728
  864MOL0     H16632   1.399   3.118   6.157 -2.9324  0.1688  1.5178
  864MOL0     H16633   1.524   3.015   6.237  1.6921  0.8237 -0.2603
  864MOL0     H16634   1.514   3.313   6.215  0.5153  0.3853  2.2967
  864MOL0     H16635   1.645   3.196   6.174 -1.6532  0.3728 -2.3890
  864MOL0     H16636   1.557   3.274   6.455 -1.9404 -1.7425 -1.6755
  864MOL0     H16637   1.695   3.330   6.364  2.2928 -1.4634 -0.0804
  864MOL0     H16638   1.813   2.920   6.447 -0.0445  0.1877  0.4586
  864MOL0     H16639   1.161   3.192   6.211  1.3973  0.1563 -2.5984
  864MOL0     H16640   0.972   3.172   6.076  0.1780  0.5132 -1.7930
  865MOL0     O16641   1.500   4.463   6.980 -0.1208 -0.5283 -0.2637
  865MOL0     C16642   1.516   4.583   6.990  0.5930 -0.5914  0.2856
  865MOL0     O16643   1.412   4.678   6.985 -0.1041 -0.5838 -0.2531
  865MOL0     C16644   1.281   4.625   6.994 -0.4153  0.5438 -0.4281
  865MOL0     C16645   1.212   4.587   6.882  0.1434  0.4286 -0.1177
  865MOL0     C16646   1.086   4.524   6.881  0.0351  0.1523 -1.0160
  865MOL0     C16647   1.019   4.519   7.006 -0.6332  0.3620 -0.0802
  865MOL0     O16648   0.890   4.466   7.028 -0.2663  0.1358 -0.1075
  865MOL0     C16649   0.824   4.412   6.916 -0.3746  0.2110  0.4991
  865MOL0     C16650   0.697   4.341   6.960  0.4565 -0.4998  0.6638
  865MOL0     C16651   0.621   4.299   6.837  1.3891 -0.2379  0.1941
  865MOL0     C16652   0.470   4.296   6.857 -0.1295 -0.1447 -0.0889
  865MOL0     C16653   0.414   4.201   6.966 -0.0583 -0.5350 -0.1417
  865MOL0     C16654   0.428   4.057   6.924  0.3278  0.8994  0.1868
  865MOL0     C16655   0.338   3.969   7.012 -0.7590  0.1261  0.1187
  865MOL0     C16656   0.391   3.825   7.004  0.8657 -0.4341 -0.5508
  865MOL0     N16657   0.506   3.807   7.083  0.5436 -0.1369 -0.3775
  865MOL0     C16658   0.638   3.786   7.053 -0.3846 -0.4361 -0.5109
  865MOL0     C16659   0.699   3.735   7.162  0.4340 -0.1776  0.0607
  865MOL0     C16660   0.829   3.662   7.168 -0.3063  0.3989 -0.2922
  865MOL0     C16661   0.947   3.744   7.114  0.1628  0.7791 -0.7521
  865MOL0     C16662   1.081   3.669   7.152  0.2241 -0.1385 -0.9113
  865MOL0     C16663   1.201   3.746   7.116 -0.3807  0.0968 -0.0894
  865MOL0     O16664   1.254   3.719   6.985  0.0310  0.2045  0.0087
  865MOL0     C16665   1.373   3.790   6.958  0.0444  0.8623 -0.7826
  865MOL0     C16666   1.370   3.873   6.850 -0.3839 -0.1420  0.7283
  865MOL0     C16667   1.471   3.968   6.825  0.7238  1.1703  0.1322
  865MOL0     C16668   1.430   4.082   6.741 -0.4265 -0.0276  0.1460
  865MOL0     C16669   1.592   3.954   6.883 -0.1986  0.4644 -0.0774
  865MOL0     C16670   1.710   4.041   6.861 -0.1938 -0.1409 -0.2274
  865MOL0     O16671   1.750   4.138   6.950  0.1213 -0.0298  0.6280
  865MOL0     C16672   1.873   4.200   6.924 -0.3299  0.1682 -0.1049
  865MOL0     C16673   1.973   4.191   7.009  1.2078 -0.2448  0.0568
  865MOL0     C16674   2.099   4.252   6.988  0.0862 -0.2866  0.0178
  865MOL0     C16675   2.120   4.334   6.877  0.0298  0.1476  0.1437
  865MOL0     O16676   2.237   4.409   6.872  1.3247  0.4737 -0.3404
  865MOL0     C16677   2.292   4.433   6.739  0.6384 -0.2550  0.2807
  865MOL0     C16678   2.448   4.406   6.739  0.6768  0.4796  0.0154
  865MOL0     C16679   2.486   4.255   6.736  0.2023  0.5092 -0.6042
  865MOL0     C16680   2.631   4.241   6.696 -0.0163 -0.3224  0.7393
  865MOL0     C16681   2.667   4.098   6.651  0.1132  0.4375  0.5167
  865MOL0     C16682   2.649   4.001   6.763  0.9233 -0.2531 -0.9293
  865MOL0     C16683   2.709   3.865   6.732 -0.4552 -0.6399  1.2053
  865MOL0     C16684   2.660   3.808   6.590  0.1132 -0.0900 -0.3708
  865MOL0    Cl16685   2.485   3.781   6.577  0.2142 -0.1480 -0.2481
  865MOL0     C16686   2.006   4.357   6.790 -0.3469  0.2236 -0.3561
  865MOL0     C16687   1.889   4.282   6.811 -0.3237  0.0299 -0.3816
  865MOL0     O16688   1.768   4.020   6.754 -0.0969  0.1222  0.0576
  865MOL0     C16689   1.606   3.865   6.987  0.8783 -0.2219 -0.3167
  865MOL0     C16690   1.497   3.783   7.028  0.0749  0.0719 -0.7622
  865MOL0     N16691   0.606   3.735   7.267  0.0786  0.2851 -0.1705
  865MOL0     N16692   0.496   3.788   7.222  0.2904 -0.5599  0.8516
  865MOL0     C16693   1.083   4.573   7.120  0.2434 -0.0641 -0.8163
  865MOL0     C16694   1.213   4.621   7.107  0.1622  0.1671 -0.2579
  865MOL0     C16695   1.645   4.644   7.002 -0.1421 -0.3045  0.5607
  865MOL0     C16696   1.761   4.562   6.997 -0.3902  0.3862  0.6128
  865MOL0     C16697   1.892   4.606   7.016  0.3188 -0.5416 -0.4880
  865MOL0     C16698   1.914   4.744   7.031 -1.0285  0.4199  0.5564
  865MOL0     O16699   2.039   4.805   7.031 -0.1318 -0.0065  0.8453
  865MOL0     C16700   2.156   4.730   6.980 -0.2537 -1.0263  0.4400
  865MOL0     C16701   2.292   4.806   6.994 -0.0461 -0.0121 -0.7715
  865MOL0     C16702   2.346   4.799   7.142  0.4095 -0.3873 -1.2226
  865MOL0     C16703   2.498   4.808   7.145  0.8632  0.7372  0.3987
  865MOL0     C16704   2.533   4.949   7.136 -0.0187  0.1517  0.5946
  865MOL0     C16705   2.560   5.064   7.119  0.2864 -1.0436 -0.5653
  865MOL0     C16706   1.805   4.829   7.031 -0.2209  0.0369  0.4581
  865MOL0     C16707   1.675   4.785   7.014  0.5781 -0.1473 -0.8456
  865MOL0     H16708   1.255   4.603   6.784  0.0949 -0.9174 -0.3815
  865MOL0     H16709   1.050   4.498   6.783  0.4594 -0.3816 -1.0317
  865MOL0     H16710   0.801   4.496   6.851 -1.4735 -0.6758 -0.2967
  865MOL0     H16711   0.884   4.338   6.862 -1.0383 -0.2701  0.3968
  865MOL0     H16712   0.716   4.258   7.028  1.0373 -1.2588 -0.4093
  865MOL0     H16713   0.633   4.412   7.013  2.4877  1.7694  0.2446
  865MOL0     H16714   0.636   4.359   6.747  2.0305  0.5572  0.8184
  865MOL0     H16715   0.651   4.197   6.810 -1.3361 -1.0888  0.0320
  865MOL0     H16716   0.431   4.396   6.877 -1.6134 -1.0819  2.1476
  865MOL0     H16717   0.418   4.259   6.768 -2.1280  0.0741  0.9306
  865MOL0     H16718   0.464   4.205   7.063  1.8366 -0.6243 -1.0657
  865MOL0     H16719   0.315   4.225   7.006 -0.1040 -1.6824  0.4848
  865MOL0     H16720   0.421   4.046   6.815  0.8337  0.3682  0.2019
  865MOL0     H16721   0.532   4.034   6.951 -0.5401 -0.6898  2.4452
  865MOL0     H16722   0.332   4.004   7.116  0.4654  0.9300 -0.0621
  865MOL0     H16723   0.237   3.975   6.971 -1.1496  1.9143  1.2047
  865MOL0     H16724   0.421   3.807   6.901 -0.8828 -1.0060 -0.9923
  865MOL0     H16725   0.311   3.753   7.024 -0.1981  0.3177 -1.8977
  865MOL0     H16726   0.685   3.780   6.955  0.0789 -0.1815 -0.3018
  865MOL0     H16727   0.841   3.640   7.274 -3.7280 -0.6423  0.0153
  865MOL0     H16728   0.827   3.571   7.107  1.0910 -0.2169  0.5493
  865MOL0     H16729   0.949   3.840   7.165 -1.3770  0.0514  0.7989
  865MOL0     H16730   0.945   3.761   7.006 -0.9611  3.2450 -0.4138
  865MOL0     H16731   1.088   3.567   7.113 -0.7134  0.0353 -1.5864
  865MOL0     H16732   1.080   3.660   7.261 -1.4498 -1.5315 -0.9971
  865MOL0     H16733   1.279   3.717   7.187  0.0840  2.7784  0.5906
  865MOL0     H16734   1.182   3.853   7.128  0.0156  0.2750 -0.9393
  865MOL0     H16735   1.283   3.871   6.786  0.1296 -1.5138  0.0351
  865MOL0     H16736   1.504   4.113   6.667 -0.1926  1.0146  0.8039
  865MOL0     H16737   1.330   4.078   6.695 -0.3461 -0.6936  0.0088
  865MOL0     H16738   1.418   4.169   6.806 -0.1391  1.5548 -1.8262
  865MOL0     H16739   1.956   4.141   7.104  1.1497  0.0423  0.1995
  865MOL0     H16740   2.177   4.244   7.063  3.0563  2.0738 -2.5442
  865MOL0     H16741   2.247   4.355   6.677 -1.2324 -0.7959  2.2166
  865MOL0     H16742   2.266   4.535   6.710  0.4758 -0.6268 -0.9522
  865MOL0     H16743   2.488   4.453   6.649 -0.0147  0.0801 -0.5158
  865MOL0     H16744   2.498   4.447   6.827  2.4984 -1.6165  0.0171
  865MOL0     H16745   2.420   4.198   6.670  1.9280 -0.4625 -1.5575
  865MOL0     H16746   2.473   4.213   6.836 -0.9130  1.9791 -0.1020
  865MOL0     H16747   2.642   4.306   6.609  0.9200 -2.5647 -0.9306
  865MOL0     H16748   2.698   4.267   6.778 -0.6777 -0.5409  1.3588
  865MOL0     H16749   2.774   4.098   6.625 -0.9696 -0.5557 -5.1261
  865MOL0     H16750   2.613   4.068   6.561 -2.5921  0.1875  2.1103
  865MOL0     H16751   2.696   4.042   6.853  0.8589 -1.0956 -0.4998
  865MOL0     H16752   2.542   3.993   6.786  0.3265 -0.6807 -3.5434
  865MOL0     H16753   2.685   3.793   6.810  0.1872 -1.2326  0.8684
  865MOL0     H16754   2.816   3.887   6.723 -0.9998  1.7857 -0.5449
  865MOL0     H16755   2.701   3.709   6.568 -1.8998 -1.6129  2.1776
  865MOL0     H16756   2.691   3.879   6.512 -1.1630  2.0483  0.9537
  865MOL0     H16757   2.002   4.426   6.707 -0.3989  0.8703  0.1730
  865MOL0     H16758   1.812   4.301   6.737  1.0397  1.4285 -1.5188
  865MOL0     H16759   1.702   3.858   7.037  1.6795  3.1950 -1.1013
  865MOL0     H16760   1.502   3.717   7.114 -3.7198 -0.5150 -0.8265
  865MOL0     H16761   1.029   4.570   7.214  1.0766 -0.7107 -0.3453
  865MOL0     H16762   1.264   4.661   7.194  0.2870  1.3981 -0.8789
  865MOL0     H16763   1.754   4.458   6.967  1.3841  0.4754 -0.1999
  865MOL0     H16764   1.974   4.537   7.030  1.6252  1.2706  1.1177
  865MOL0     H16765   2.164   4.636   7.036  1.7838 -0.0125  1.9562
  865MOL0     H16766   2.143   4.724   6.871 -1.1884  2.6263  0.2045
  865MOL0     H16767   2.292   4.907   6.954 -3.7893  0.2423 -0.4936
  865MOL0     H16768   2.367   4.755   6.933  0.1410 -2.4090  1.2619
  865MOL0     H16769   2.332   4.699   7.183  0.5152  0.6249  1.4714
  865MOL0     H16770   2.300   4.872   7.210  2.8567  0.1950 -0.0929
  865MOL0     H16771   2.538   4.760   7.055  2.7562  1.9957  0.5102
  865MOL0     H16772   2.547   4.762   7.231 -0.9607 -0.3285  0.9187
  865MOL0     H16773   2.575   5.167   7.093 -0.6325 -0.6878  0.2578
  865MOL0     H16774   1.828   4.933   7.052  0.1714  0.0528 -0.0275
  865MOL0     H16775   1.592   4.855   7.019 -0.5327 -1.3527 -1.6097
  866MOL0     O16776   0.866   1.120  10.907  0.0308  0.1527  1.0579
  866MOL0     C16777   0.916   1.235  10.904 -0.4205  0.0817 -0.1876
  866MOL0     O16778   0.869   1.344  10.828  0.9170  0.5232 -0.5506
  866MOL0     C16779   0.737   1.350  10.806  0.9242  0.8532 -0.0711
  866MOL0     C16780   0.648   1.409  10.890  1.1339  0.1209  0.9159
  866MOL0     C16781   0.511   1.390  10.885  0.0324  0.3387  1.1395
  866MOL0     C16782   0.453   1.300  10.790  0.2636 -0.4669  0.8431
  866MOL0     O16783   0.315   1.268  10.795 -0.2349 -0.1645 -0.6150
  866MOL0     C16784   0.243   1.308  10.679  0.6107  0.4808  0.4256
  866MOL0     C16785   0.217   1.466  10.649  0.3891 -0.1819  0.0947
  866MOL0     C16786   0.173   1.556  10.764 -0.3481 -0.3983 -0.8894
  866MOL0     C16787   0.080   1.661  10.705 -0.4951  0.1503 -0.7788
  866MOL0     C16788   0.028   1.749  10.822  0.0733 -0.5989  0.3859
  866MOL0     C16789  -0.094   1.841  10.793  0.1839  0.3424  0.0142
  866MOL0     C16790  -0.207   1.752  10.741 -0.9207 -0.4339  0.8018
  866MOL0     C16791  -0.342   1.819  10.776  0.3803 -0.3587 -0.0505
  866MOL0     N16792  -0.382   1.924  10.689 -0.1858 -0.8660  0.4168
  866MOL0     C16793  -0.325   2.046  10.693 -0.3558  0.7230  0.7801
  866MOL0     C16794  -0.399   2.135  10.626  0.9481 -0.2659  0.2555
  866MOL0     C16795  -0.386   2.286  10.613 -0.3548 -0.4092  0.5548
  866MOL0     C16796  -0.523   2.354  10.614  0.0732 -0.1638 -0.6956
  866MOL0     C16797  -0.569   2.363  10.761 -0.3124  0.3941  0.3892
  866MOL0     C16798  -0.697   2.453  10.763  0.5965  0.1510 -0.8213
  866MOL0     O16799  -0.802   2.406  10.676 -0.1547  0.1205 -0.1541
  866MOL0     C16800  -0.919   2.464  10.707 -0.4623 -0.1364  0.4882
  866MOL0     C16801  -0.942   2.595  10.770 -0.1939  0.4598  0.7918
  866MOL0     C16802  -1.077   2.640  10.792 -0.3740 -0.9989  0.2323
  866MOL0     C16803  -1.090   2.756  10.879 -0.4429 -0.1415  0.3753
  866MOL0     C16804  -1.180   2.555  10.756 -0.2429  0.5278 -0.0472
  866MOL0     C16805  -1.322   2.576  10.777  0.2427 -0.4766  0.5078
  866MOL0     O16806  -1.365   2.707  10.768 -0.9794  0.0913 -0.0157
  866MOL0     C16807  -1.486   2.739  10.831 -1.1122 -0.3285 -1.3370
  866MOL0     C16808  -1.601   2.702  10.766  0.1607 -0.4501  0.1514
  866MOL0     C16809  -1.724   2.737  10.818 -0.4442  0.4467 -0.0347
  866MOL0     C16810  -1.738   2.814  10.933 -0.5942 -0.2255 -0.4636
  866MOL0     O16811  -1.850   2.870  10.987 -0.1301 -0.2645 -0.3843
  866MOL0     C16812  -1.970   2.866  10.911  0.0053  0.1469  0.1387
  866MOL0     C16813  -2.065   2.959  10.983  0.2593  0.2201 -0.6194
  866MOL0     C16814  -2.211   2.918  10.954 -0.6836 -0.3674  0.3900
  866MOL0     C16815  -2.294   2.997  11.046  0.5066 -0.6855 -0.6908
  866MOL0     C16816  -2.440   2.966  11.019  0.5309  0.1240  0.2426
  866MOL0     C16817  -2.476   2.825  11.063  0.0792  0.2144 -0.5641
  866MOL0     C16818  -2.628   2.794  11.045  0.4918 -0.3837  0.5040
  866MOL0     C16819  -2.657   2.646  11.084  0.1698  0.7041  0.0562
  866MOL0    Cl16820  -2.837   2.610  11.070  0.2201  0.4414  0.1076
  866MOL0     C16821  -1.617   2.853  10.995 -0.9491  0.1848 -0.1483
  866MOL0     C16822  -1.494   2.802  10.955  0.1569  0.1694 -0.4589
  866MOL0     O16823  -1.393   2.486  10.819 -0.3092  0.1065 -0.4575
  866MOL0     C16824  -1.159   2.428  10.690  0.1971  0.0763 -0.1677
  866MOL0     C16825  -1.028   2.390  10.665  0.3656 -0.7322 -0.8251
  866MOL0     N16826  -0.500   2.056  10.572 -0.0217  0.7023  0.2874
  866MOL0     N16827  -0.492   1.939  10.611  0.8631  0.1685  0.5510
  866MOL0     C16828   0.542   1.243  10.695  0.9944 -0.3824 -0.6566
  866MOL0     C16829   0.680   1.266  10.703 -0.2654  0.0164  0.1209
  866MOL0     C16830   1.053   1.247  10.966 -0.8004  0.0526 -0.5742
  866MOL0     C16831   1.154   1.317  10.904 -0.2930  0.5547  0.1359
  866MOL0     C16832   1.278   1.323  10.963  0.4082  0.3147  0.1479
  866MOL0     C16833   1.316   1.257  11.079  0.3739 -0.1810 -0.7940
  866MOL0     O16834   1.438   1.250  11.146 -0.5979  0.5498  0.5312
  866MOL0     C16835   1.560   1.299  11.068  0.6144 -0.0714 -0.1716
  866MOL0     C16836   1.611   1.188  10.978  0.6077  0.4249  0.3749
  866MOL0     C16837   1.736   1.224  10.891 -0.1803 -0.5676  0.5787
  866MOL0     C16838   1.820   1.102  10.855 -0.3543 -0.2106  0.7251
  866MOL0     C16839   1.924   1.141  10.759  0.6774 -0.1313  0.0645
  866MOL0     C16840   2.005   1.177  10.680  0.1830  0.2259  0.3290
  866MOL0     C16841   1.213   1.181  11.138  0.1284 -0.1484 -0.0016
  866MOL0     C16842   1.081   1.170  11.076 -1.0501  0.0575  0.1229
  866MOL0     H16843   0.685   1.474  10.968 -2.6683  1.1726  2.0431
  866MOL0     H16844   0.446   1.455  10.943 -1.5982  0.2321 -0.4818
  866MOL0     H16845   0.285   1.257  10.592 -1.5939  0.8277 -0.9075
  866MOL0     H16846   0.147   1.256  10.683  0.3375  0.2489 -4.1223
  866MOL0     H16847   0.315   1.504  10.619 -0.5065  0.0879 -2.7290
  866MOL0     H16848   0.148   1.469  10.564 -1.9015  0.6893  1.8814
  866MOL0     H16849   0.120   1.494  10.837  0.2745 -0.9463 -0.8884
  866MOL0     H16850   0.264   1.597  10.810 -0.3804 -2.4917  1.2383
  866MOL0     H16851   0.146   1.715  10.636  0.3350  1.4344  0.9580
  866MOL0     H16852  -0.005   1.615  10.654  0.7441  0.5133 -3.3165
  866MOL0     H16853  -0.003   1.674  10.895  1.5949  0.5885  2.3341
  866MOL0     H16854   0.108   1.810  10.865 -0.1188 -0.9261  1.2108
  866MOL0     H16855  -0.121   1.900  10.881 -1.3354  0.4895 -0.5216
  866MOL0     H16856  -0.060   1.914  10.720 -3.8078  3.4991  0.9892
  866MOL0     H16857  -0.197   1.754  10.632  0.0821 -1.1729  0.8680
  866MOL0     H16858  -0.202   1.654  10.789 -1.5004 -0.4176  0.9007
  866MOL0     H16859  -0.327   1.858  10.877  2.9784 -0.6705 -0.2252
  866MOL0     H16860  -0.423   1.746  10.781 -0.0996  0.1227 -0.6345
  866MOL0     H16861  -0.231   2.071  10.739 -0.1933  0.6036  0.5168
  866MOL0     H16862  -0.324   2.318  10.697 -1.8072  0.4353  1.3471
  866MOL0     H16863  -0.341   2.316  10.518  1.1337  1.5706  1.8085
  866MOL0     H16864  -0.591   2.304  10.544 -0.2643 -0.0812 -0.4311
  866MOL0     H16865  -0.513   2.456  10.576  0.8674  1.2451  2.9590
  866MOL0     H16866  -0.491   2.414  10.818  1.1515 -2.8755  1.5672
  866MOL0     H16867  -0.587   2.268  10.812  0.0038 -0.2574 -0.6808
  866MOL0     H16868  -0.667   2.545  10.713 -2.7810  0.8504 -1.8206
  866MOL0     H16869  -0.737   2.478  10.862 -1.5704  0.2126 -1.6525
  866MOL0     H16870  -0.857   2.656  10.798  0.4038  1.1705 -2.2862
  866MOL0     H16871  -0.990   2.787  10.911 -0.7842  1.8354 -0.3064
  866MOL0     H16872  -1.132   2.846  10.832  0.9506  1.9519  2.8873
  866MOL0     H16873  -1.149   2.736  10.969 -0.1124  2.1041  1.1673
  866MOL0     H16874  -1.600   2.652  10.669 -0.7711 -1.2487  0.5337
  866MOL0     H16875  -1.814   2.698  10.771 -0.7363  2.0367 -0.8829
  866MOL0     H16876  -1.973   2.895  10.806  0.2521  2.0384  0.6077
  866MOL0     H16877  -2.013   2.765  10.910  2.1419 -0.8566 -2.9008
  866MOL0     H16878  -2.048   2.947  11.090  0.9043  0.2790 -0.7108
  866MOL0     H16879  -2.040   3.063  10.961  2.5406 -0.1842 -0.1060
  866MOL0     H16880  -2.211   2.809  10.970  2.3083 -0.2980  1.4138
  866MOL0     H16881  -2.231   2.925  10.847  0.3445 -0.5010  0.1774
  866MOL0     H16882  -2.265   2.981  11.150  0.3601 -3.9917 -1.0627
  866MOL0     H16883  -2.273   3.099  11.011 -0.5569 -0.7785 -1.6844
  866MOL0     H16884  -2.450   2.985  10.912  1.6738  0.0456  0.1153
  866MOL0     H16885  -2.501   3.042  11.070  2.3370 -0.7904  4.0860
  866MOL0     H16886  -2.423   2.752  11.000  3.0732  0.4952  1.4126
  866MOL0     H16887  -2.445   2.802  11.166 -2.5117  0.4008  0.3301
  866MOL0     H16888  -2.674   2.818  10.949  1.5289 -0.6089 -0.0617
  866MOL0     H16889  -2.682   2.854  11.120  0.8580  1.2395 -0.4851
  866MOL0     H16890  -2.638   2.627  11.189 -0.1393  3.4371  0.6863
  866MOL0     H16891  -2.590   2.576  11.033  2.5525  2.2172  0.9425
  866MOL0     H16892  -1.640   2.919  11.078 -2.1501 -0.4834  0.0732
  866MOL0     H16893  -1.401   2.811  11.011 -0.3357 -2.1581  0.8750
  866MOL0     H16894  -1.244   2.368  10.660 -0.5852 -0.0306  2.0946
  866MOL0     H16895  -1.019   2.294  10.616 -0.7728 -0.9561 -0.6350
  866MOL0     H16896   0.510   1.172  10.619  0.6092 -0.8144 -0.1027
  866MOL0     H16897   0.733   1.218  10.621 -3.5039 -2.5496 -0.6762
  866MOL0     H16898   1.134   1.377  10.816  1.5763 -0.2843 -0.9348
  866MOL0     H16899   1.343   1.393  10.911 -0.5961  0.4200 -0.9954
  866MOL0     H16900   1.529   1.384  11.008  0.9169 -2.1781 -3.5804
  866MOL0     H16901   1.647   1.330  11.128  1.1202  0.3691 -1.1092
  866MOL0     H16902   1.536   1.166  10.902  0.0764  1.0074  0.7164
  866MOL0     H16903   1.635   1.104  11.043  0.5384 -1.0565 -1.4479
  866MOL0     H16904   1.791   1.288  10.961 -1.1146 -1.9530  2.6821
  866MOL0     H16905   1.709   1.274  10.798  1.4373 -0.3325  0.1944
  866MOL0     H16906   1.750   1.027  10.815 -1.1331 -0.1748  1.9606
  866MOL0     H16907   1.871   1.064  10.944  0.3170  0.6358  0.7136
  866MOL0     H16908   2.076   1.194  10.602  0.2785  4.7210  1.1098
  866MOL0     H16909   1.230   1.144  11.238 -3.8493  0.0370  0.9206
  866MOL0     H16910   1.005   1.105  11.119 -0.6026  0.0767  0.9567
  867MOL0     O16911   1.034   1.320   9.150 -0.1894 -0.3437 -0.4066
  867MOL0     C16912   1.038   1.205   9.097  0.3554 -0.3096 -0.9221
  867MOL0     O16913   0.932   1.142   9.050 -0.1744  0.1592  0.1349
  867MOL0     C16914   0.803   1.183   9.075 -0.3538 -0.1756  0.3283
  867MOL0     C16915   0.710   1.123   8.991  0.5570  0.0501 -0.0595
  867MOL0     C16916   0.576   1.147   8.993  0.1087  0.6397 -0.6820
  867MOL0     C16917   0.524   1.250   9.073 -0.3979  0.5110  0.4789
  867MOL0     O16918   0.388   1.277   9.080  0.2721  0.4864  0.3251
  867MOL0     C16919   0.304   1.250   8.969 -0.4901  0.1112 -0.0410
  867MOL0     C16920   0.162   1.301   9.004  1.2706 -0.1269  0.1208
  867MOL0     C16921   0.067   1.280   8.882 -0.1713  0.5400  0.8762
  867MOL0     C16922  -0.072   1.330   8.916  0.5987  0.2384 -0.1680
  867MOL0     C16923  -0.144   1.289   9.050 -0.2504  0.5485 -0.4194
  867MOL0     C16924  -0.288   1.351   9.068 -0.8687  0.0887 -0.3425
  867MOL0     C16925  -0.305   1.499   9.040  0.1566 -0.6000  0.5324
  867MOL0     C16926  -0.445   1.546   9.090 -1.4538  0.6919 -0.3577
  867MOL0     N16927  -0.554   1.475   9.022  0.2555  0.5578 -0.9379
  867MOL0     C16928  -0.676   1.463   9.090  0.2399  0.0084  1.0161
  867MOL0     C16929  -0.769   1.466   8.987 -0.1787  0.3577 -0.2243
  867MOL0     C16930  -0.914   1.449   8.995 -0.1818  0.5850  0.1822
  867MOL0     C16931  -0.979   1.579   8.952  0.0037  0.4053  0.8453
  867MOL0     C16932  -1.114   1.553   8.893 -0.4342  0.4640  0.1955
  867MOL0     C16933  -1.178   1.685   8.861 -0.0782 -0.3660 -0.3745
  867MOL0     O16934  -1.313   1.661   8.843 -0.2749  0.8280 -0.1812
  867MOL0     C16935  -1.401   1.671   8.954 -0.1165  0.0736  0.0248
  867MOL0     C16936  -1.538   1.690   8.921 -0.1762  0.5280 -0.1019
  867MOL0     C16937  -1.635   1.720   9.020 -0.2074  0.9104  0.7050
  867MOL0     C16938  -1.776   1.742   8.979  0.2202  0.5000 -0.2245
  867MOL0     C16939  -1.589   1.735   9.156 -0.6007 -0.5519  1.0363
  867MOL0     C16940  -1.694   1.790   9.254  0.0284 -0.7086 -0.1748
  867MOL0     O16941  -1.818   1.722   9.258 -0.2964  0.0974  0.0922
  867MOL0     C16942  -1.931   1.787   9.299  0.1584  0.3236 -0.8469
  867MOL0     C16943  -1.965   1.921   9.276 -0.3879 -0.3469 -0.1497
  867MOL0     C16944  -2.086   1.966   9.313  0.3837  0.1413  0.2222
  867MOL0     C16945  -2.183   1.878   9.361 -0.0874 -1.1020  0.6560
  867MOL0     O16946  -2.312   1.915   9.391  0.4668 -0.2800 -0.4329
  867MOL0     C16947  -2.350   2.050   9.390 -0.1119 -0.0470  0.2333
  867MOL0     C16948  -2.497   2.060   9.434 -0.1551 -0.5329 -0.1414
  867MOL0     C16949  -2.566   2.182   9.387  0.2632 -0.9066 -0.7241
  867MOL0     C16950  -2.616   2.167   9.247 -0.5849  0.1652  0.3550
  867MOL0     C16951  -2.712   2.272   9.202  0.0809 -0.0913  0.0747
  867MOL0     C16952  -2.698   2.284   9.051  0.2995 -0.7311  0.6507
  867MOL0     C16953  -2.792   2.393   8.999 -0.6076 -0.6234  0.5515
  867MOL0     C16954  -2.765   2.429   8.850  0.2457 -0.0434 -0.2338
  867MOL0    Cl16955  -2.864   2.556   8.794 -0.0963 -0.0120 -0.1321
  867MOL0     C16956  -2.157   1.746   9.378  0.0681  0.5637  0.2529
  867MOL0     C16957  -2.029   1.700   9.349  0.1475 -0.1105  0.9071
  867MOL0     O16958  -1.657   1.867   9.339 -0.3572  0.0556 -0.4256
  867MOL0     C16959  -1.452   1.712   9.187  0.1614 -0.7555 -0.1122
  867MOL0     C16960  -1.359   1.680   9.087 -0.5915  0.0742 -0.1100
  867MOL0     N16961  -0.696   1.482   8.866 -0.3759  0.6350 -0.0535
  867MOL0     N16962  -0.568   1.497   8.890  0.2888  0.4749 -0.2236
  867MOL0     C16963   0.612   1.311   9.164  0.1290  0.7455  0.1156
  867MOL0     C16964   0.747   1.282   9.161 -0.6869 -0.2039  0.4319
  867MOL0     C16965   1.175   1.143   9.089 -0.0373  0.9844  0.1270
  867MOL0     C16966   1.280   1.213   9.138 -0.8049  0.1309 -0.3377
  867MOL0     C16967   1.408   1.158   9.162  0.6553 -0.0593 -0.3706
  867MOL0     C16968   1.431   1.028   9.103 -0.8780  0.1781 -0.1871
  867MOL0     O16969   1.546   0.951   9.117 -0.1538 -0.1160 -0.6133
  867MOL0     C16970   1.617   0.978   9.236 -0.2342  0.4385 -0.8381
  867MOL0     C16971   1.703   0.855   9.264 -1.1201 -0.6333  0.4690
  867MOL0     C16972   1.823   0.872   9.362 -0.6466 -0.5895  0.1380
  867MOL0     C16973   1.893   0.741   9.387 -0.5299  0.2122 -0.7878
  867MOL0     C16974   1.989   0.757   9.497  0.6584 -0.3951  0.8403
  867MOL0     C16975   2.064   0.775   9.586 -0.0314  0.6505 -0.5804
  867MOL0     C16976   1.323   0.963   9.026 -0.1631 -0.7598 -0.0367
  867MOL0     C16977   1.195   1.024   9.021 -0.5260 -0.2739 -0.2824
  867MOL0     H16978   0.745   1.046   8.922  3.2164  1.8180 -0.8379
  867MOL0     H16979   0.519   1.085   8.923  1.3057  1.6892 -2.6951
  867MOL0     H16980   0.346   1.303   8.883  1.5518 -1.6010 -0.1813
  867MOL0     H16981   0.310   1.144   8.942  1.3693  0.3353 -0.6530
  867MOL0     H16982   0.126   1.247   9.092 -2.5100 -0.9206 -1.7102
  867MOL0     H16983   0.154   1.404   9.042  0.5739 -1.3587  3.7417
  867MOL0     H16984   0.122   1.326   8.799  0.3414 -1.2862  0.1387
  867MOL0     H16985   0.066   1.174   8.856  0.8339  0.5196  0.9082
  867MOL0     H16986  -0.054   1.438   8.921  0.4919  0.2442  0.0607
  867MOL0     H16987  -0.141   1.310   8.833  0.5172  2.4676 -0.7261
  867MOL0     H16988  -0.155   1.180   9.061  1.1816  0.3545 -0.7442
  867MOL0     H16989  -0.084   1.331   9.132 -1.0907 -0.1384  0.5836
  867MOL0     H16990  -0.357   1.307   8.995  0.4574  0.6897 -2.0494
  867MOL0     H16991  -0.322   1.322   9.167 -1.5347 -0.0254 -0.6003
  867MOL0     H16992  -0.219   1.557   9.075  0.0276 -0.8217  1.2364
  867MOL0     H16993  -0.296   1.507   8.931 -0.2281  1.1747  0.6025
  867MOL0     H16994  -0.451   1.653   9.068  1.8136  0.6762 -1.8656
  867MOL0     H16995  -0.448   1.535   9.199 -0.1388  0.7502 -0.3071
  867MOL0     H16996  -0.707   1.451   9.193 -0.7128 -0.8561  0.6453
  867MOL0     H16997  -0.939   1.356   8.943  0.6836 -0.8903  2.2434
  867MOL0     H16998  -0.925   1.422   9.100  0.6962 -3.1278 -0.5307
  867MOL0     H16999  -0.916   1.622   8.873  2.1963 -1.9442  1.1676
  867MOL0     H17000  -0.986   1.643   9.041 -2.0034  1.1473  0.2053
  867MOL0     H17001  -1.168   1.506   8.976 -0.9859  0.5404 -0.1177
  867MOL0     H17002  -1.103   1.482   8.811 -3.6937  1.1270 -0.9522
  867MOL0     H17003  -1.138   1.735   8.773 -0.8802  2.5172  0.7937
  867MOL0     H17004  -1.163   1.756   8.943  1.1259 -0.7746 -0.2252
  867MOL0     H17005  -1.578   1.678   8.821 -1.7725  0.7546  0.4847
  867MOL0     H17006  -1.822   1.834   9.017 -2.5664 -0.7196 -0.3405
  867MOL0     H17007  -1.784   1.751   8.870  3.1654  1.2085 -0.4434
  867MOL0     H17008  -1.832   1.652   9.007  2.5215 -0.2983  2.1434
  867MOL0     H17009  -1.889   1.988   9.237 -0.6616  0.8092  1.1902
  867MOL0     H17010  -2.109   2.071   9.295 -3.7825 -0.9700 -2.4080
  867MOL0     H17011  -2.288   2.117   9.451 -0.1761  1.2508 -1.0725
  867MOL0     H17012  -2.329   2.093   9.292 -1.5211 -0.9020 -0.4644
  867MOL0     H17013  -2.562   1.984   9.389 -1.5088  2.0670 -2.9973
  867MOL0     H17014  -2.504   2.040   9.541  2.4481 -2.1089 -0.1964
  867MOL0     H17015  -2.495   2.265   9.395 -1.1610  0.3844 -1.1628
  867MOL0     H17016  -2.652   2.197   9.451  1.0549  0.7003  0.0081
  867MOL0     H17017  -2.527   2.175   9.185  0.5591 -0.1551  1.8988
  867MOL0     H17018  -2.657   2.068   9.227 -2.1581  0.5921  1.2938
  867MOL0     H17019  -2.688   2.368   9.247 -1.8516 -1.0288  3.4290
  867MOL0     H17020  -2.816   2.252   9.229  0.3383 -0.2538  0.9805
  867MOL0     H17021  -2.596   2.311   9.022 -0.7795  1.9176 -1.0365
  867MOL0     H17022  -2.726   2.186   9.011  0.8779 -0.6572  0.0540
  867MOL0     H17023  -2.775   2.477   9.067 -1.4667 -1.2152  1.5276
  867MOL0     H17024  -2.894   2.356   9.012 -0.7567 -0.1886  0.6325
  867MOL0     H17025  -2.782   2.332   8.802 -0.3474  0.0310 -0.1864
  867MOL0     H17026  -2.659   2.451   8.837  0.7235 -1.0165  1.7006
  867MOL0     H17027  -2.239   1.680   9.405 -1.8779  2.2202 -1.2660
  867MOL0     H17028  -2.007   1.594   9.351 -1.0246 -0.4868 -1.9218
  867MOL0     H17029  -1.430   1.716   9.294 -1.3434 -0.0658  0.1956
  867MOL0     H17030  -1.253   1.668   9.106 -0.8134 -0.7863  0.7264
  867MOL0     H17031   0.575   1.379   9.239 -0.2616 -0.3488  0.9376
  867MOL0     H17032   0.810   1.323   9.240 -1.5599 -0.1672  1.1150
  867MOL0     H17033   1.262   1.316   9.166  2.6245  1.8502 -3.4981
  867MOL0     H17034   1.485   1.213   9.217  0.5097  1.4209 -1.5584
  867MOL0     H17035   1.670   1.073   9.240 -0.9356  0.7983  0.4800
  867MOL0     H17036   1.554   0.988   9.324  1.2031 -2.3795  0.6696
  867MOL0     H17037   1.737   0.818   9.166  1.1299 -0.3980  1.1124
  867MOL0     H17038   1.640   0.777   9.307 -1.2048  0.2556  2.0011
  867MOL0     H17039   1.797   0.912   9.461  3.0419  2.1926  0.1811
  867MOL0     H17040   1.897   0.936   9.314 -1.5369  0.5600  0.2352
  867MOL0     H17041   1.940   0.714   9.292 -2.5898  1.2321 -2.1845
  867MOL0     H17042   1.819   0.663   9.411 -0.1156 -0.4690 -1.6658
  867MOL0     H17043   2.131   0.805   9.664  0.9637 -0.1118 -1.1152
  867MOL0     H17044   1.332   0.866   8.977  2.7409 -0.5567 -0.0545
  867MOL0     H17045   1.121   0.968   8.964  1.1004 -0.1215 -2.7102
  868MOL0     O17046   4.601   7.879   5.972  0.4975  0.1932 -0.0798
  868MOL0     C17047   4.625   7.782   5.911  0.3835 -0.3827  0.3952
  868MOL0     O17048   4.534   7.694   5.853  0.3082 -0.5510 -0.4361
  868MOL0     C17049   4.396   7.699   5.884  0.0229  0.0252 -0.4110
  868MOL0     C17050   4.322   7.816   5.906 -0.7318  0.1696 -0.0169
  868MOL0     C17051   4.179   7.815   5.941  0.3598  0.9027 -0.0721
  868MOL0     C17052   4.109   7.693   5.940 -0.6498  0.7640 -0.7519
  868MOL0     O17053   3.970   7.686   5.957 -0.6033  0.7858  0.5997
  868MOL0     C17054   3.887   7.795   5.927 -0.1807  0.0642  0.6233
  868MOL0     C17055   3.742   7.746   5.911 -0.5015 -0.1115 -0.4173
  868MOL0     C17056   3.696   7.691   6.044  0.4213  0.5021  0.2164
  868MOL0     C17057   3.682   7.797   6.152  0.5816 -0.0655  0.1527
  868MOL0     C17058   3.587   7.753   6.258  0.4602 -0.5440  0.0415
  868MOL0     C17059   3.545   7.878   6.342  0.0731  0.4653  0.0442
  868MOL0     C17060   3.506   7.841   6.489  0.4236 -0.3777 -0.2764
  868MOL0     C17061   3.372   7.773   6.491  0.9028  1.0200  0.5120
  868MOL0     N17062   3.353   7.703   6.625  0.5343  0.8312  0.0641
  868MOL0     C17063   3.433   7.604   6.671  0.2454  0.1241 -0.3929
  868MOL0     C17064   3.405   7.586   6.801  0.8184  0.3474  0.0446
  868MOL0     C17065   3.477   7.497   6.897 -0.4265  0.5026  0.8926
  868MOL0     C17066   3.530   7.573   7.016  0.3793  0.2210 -0.8059
  868MOL0     C17067   3.633   7.488   7.096  1.0683  0.7472 -0.5855
  868MOL0     C17068   3.666   7.562   7.231 -0.2618  0.9715 -0.6023
  868MOL0     O17069   3.763   7.659   7.197  0.3626 -0.0528 -0.1327
  868MOL0     C17070   3.898   7.630   7.206  0.8143 -0.4404  0.4955
  868MOL0     C17071   3.986   7.739   7.182  1.2987 -0.5710 -1.0209
  868MOL0     C17072   4.122   7.731   7.195 -1.1175 -0.0674  0.5873
  868MOL0     C17073   4.205   7.854   7.158  0.6394  0.0628  0.2715
  868MOL0     C17074   4.183   7.611   7.226 -0.4605  0.5315  0.5666
  868MOL0     C17075   4.328   7.594   7.255 -0.2981 -0.2944 -0.2864
  868MOL0     O17076   4.417   7.673   7.190 -0.9451 -0.4122 -0.2485
  868MOL0     C17077   4.553   7.668   7.217  0.2753 -0.7193  0.3063
  868MOL0     C17078   4.644   7.638   7.110  0.0515 -0.5196 -0.1023
  868MOL0     C17079   4.779   7.645   7.133 -0.3848 -0.0305  0.4096
  868MOL0     C17080   4.829   7.698   7.262 -0.5073  0.4599 -0.2066
  868MOL0     O17081   4.958   7.737   7.289 -0.0052  0.0036 -0.2748
  868MOL0     C17082   5.067   7.735   7.193  0.3376  0.2084  0.3950
  868MOL0     C17083   5.202   7.791   7.243 -0.1862 -0.0065  0.4579
  868MOL0     C17084   5.325   7.741   7.173  0.1761  0.2893  0.6633
  868MOL0     C17085   5.447   7.731   7.257 -0.0029  0.5450 -0.4182
  868MOL0     C17086   5.578   7.709   7.178  0.3583  0.5129  0.1902
  868MOL0     C17087   5.626   7.842   7.133 -0.3503  0.1992 -0.4333
  868MOL0     C17088   5.758   7.836   7.042  0.2962 -0.3123 -0.8428
  868MOL0     C17089   5.877   7.802   7.131 -0.2955  0.1281  0.5715
  868MOL0    Cl17090   6.015   7.792   7.024 -0.5140 -0.0793  0.4940
  868MOL0     C17091   4.730   7.724   7.360 -0.3245  0.2523 -0.0855
  868MOL0     C17092   4.596   7.707   7.338 -0.1576 -0.8603 -0.6047
  868MOL0     O17093   4.358   7.505   7.333  0.6760 -0.1111 -0.0598
  868MOL0     C17094   4.096   7.500   7.254  0.3615 -0.6388  0.3309
  868MOL0     C17095   3.955   7.503   7.239  0.0080  0.1409 -0.4258
  868MOL0     N17096   3.296   7.666   6.825  0.9449 -0.0743 -0.0289
  868MOL0     N17097   3.269   7.743   6.726  0.0707  0.1135  0.0675
  868MOL0     C17098   4.178   7.578   5.916 -0.1047 -0.1824 -0.1131
  868MOL0     C17099   4.319   7.581   5.880  0.3781  0.5233 -0.3738
  868MOL0     C17100   4.767   7.749   5.909 -0.5063  0.2501 -0.0885
  868MOL0     C17101   4.860   7.849   5.927  0.2280  0.5369 -1.0017
  868MOL0     C17102   4.996   7.820   5.930 -0.0998  0.4747 -0.6061
  868MOL0     C17103   5.040   7.689   5.915 -0.8860 -0.9297  0.1480
  868MOL0     O17104   5.176   7.678   5.898  0.3672  0.3326 -0.0843
  868MOL0     C17105   5.240   7.551   5.919 -0.3273  0.4240 -0.0820
  868MOL0     C17106   5.390   7.562   5.961  1.1699 -0.0371 -0.7948
  868MOL0     C17107   5.443   7.417   6.001 -0.4417 -0.5551 -0.3554
  868MOL0     C17108   5.594   7.420   5.992  1.2094  0.6849 -0.4306
  868MOL0     C17109   5.645   7.279   6.004  0.1180  0.0261 -0.4331
  868MOL0     C17110   5.686   7.170   6.024 -0.0757  1.0174  0.5794
  868MOL0     C17111   4.948   7.585   5.891 -0.4928  0.4633 -0.4988
  868MOL0     C17112   4.813   7.616   5.892 -0.5022  0.4598  0.6428
  868MOL0     H17113   4.375   7.910   5.903 -0.2064 -0.1154  0.1333
  868MOL0     H17114   4.134   7.913   5.958  2.4681  1.8384  0.5034
  868MOL0     H17115   3.888   7.878   5.998  1.9535  1.5851 -1.0462
  868MOL0     H17116   3.920   7.837   5.832 -0.5942  0.4520  0.6444
  868MOL0     H17117   3.668   7.813   5.868 -1.1272 -2.3711 -3.2345
  868MOL0     H17118   3.738   7.663   5.840 -4.1768 -1.0024  0.6051
  868MOL0     H17119   3.595   7.651   6.031 -0.2921  1.7226  1.6613
  868MOL0     H17120   3.762   7.609   6.070  1.5945  1.2670 -0.2646
  868MOL0     H17121   3.776   7.821   6.203  1.1381 -0.7732 -0.5077
  868MOL0     H17122   3.632   7.886   6.111 -0.4133  0.0576  1.5622
  868MOL0     H17123   3.496   7.706   6.219  0.3701  0.1808 -0.6397
  868MOL0     H17124   3.648   7.688   6.322  0.6554  0.4803  0.9289
  868MOL0     H17125   3.635   7.941   6.339  1.6560 -1.7179 -1.2241
  868MOL0     H17126   3.455   7.921   6.296  0.7545  1.4120 -0.4600
  868MOL0     H17127   3.572   7.769   6.537 -1.4221 -0.8704  1.7008
  868MOL0     H17128   3.502   7.936   6.542 -3.6266  0.7111 -2.1098
  868MOL0     H17129   3.362   7.687   6.425  2.0673 -0.1668  1.8103
  868MOL0     H17130   3.289   7.842   6.472 -0.8134 -0.9949  0.3435
  868MOL0     H17131   3.506   7.556   6.606 -0.4019 -0.1276 -0.9462
  868MOL0     H17132   3.400   7.423   6.921  0.2955 -1.3411 -1.9764
  868MOL0     H17133   3.560   7.446   6.849 -0.5790  1.4096 -0.4087
  868MOL0     H17134   3.443   7.602   7.075 -1.1299 -0.9122 -2.3694
  868MOL0     H17135   3.583   7.661   6.978 -0.9817  1.5436  0.2343
  868MOL0     H17136   3.714   7.455   7.031 -1.4943 -2.9705 -2.2642
  868MOL0     H17137   3.586   7.397   7.136  2.1957 -0.4016 -1.7830
  868MOL0     H17138   3.709   7.494   7.305 -0.3005  0.6267 -0.8933
  868MOL0     H17139   3.574   7.596   7.279 -1.1816 -1.9673 -0.0765
  868MOL0     H17140   3.950   7.839   7.158  1.8998 -0.9126 -3.6807
  868MOL0     H17141   4.220   7.858   7.050  2.8743  0.7815  0.5533
  868MOL0     H17142   4.160   7.944   7.199 -3.1479 -2.2599  1.7808
  868MOL0     H17143   4.302   7.856   7.209  0.5453 -0.7535  0.5138
  868MOL0     H17144   4.620   7.615   7.007 -0.2858 -1.7223  0.2263
  868MOL0     H17145   4.849   7.633   7.051 -1.1243  1.6676 -0.5044
  868MOL0     H17146   5.086   7.631   7.165  3.6588  0.7823  0.1025
  868MOL0     H17147   5.032   7.782   7.100 -0.6587  2.1880  1.6849
  868MOL0     H17148   5.200   7.901   7.243  1.5934  0.0642  0.9547
  868MOL0     H17149   5.212   7.753   7.345 -0.0379 -3.2815 -0.6849
  868MOL0     H17150   5.338   7.805   7.085 -0.6008 -2.0736 -1.2817
  868MOL0     H17151   5.312   7.638   7.140  1.6503 -0.1365  1.3216
  868MOL0     H17152   5.458   7.822   7.316  2.2427 -0.4582  0.8791
  868MOL0     H17153   5.426   7.648   7.325  2.5012  2.3149  2.8361
  868MOL0     H17154   5.570   7.636   7.096  0.7740  0.3265  0.3160
  868MOL0     H17155   5.649   7.666   7.249 -0.5444  1.6703  1.8664
  868MOL0     H17156   5.552   7.900   7.077  0.4355 -1.4031 -3.3384
  868MOL0     H17157   5.651   7.903   7.220 -1.7669  0.2316 -0.0243
  868MOL0     H17158   5.772   7.932   6.991  0.7752  0.7438  1.1986
  868MOL0     H17159   5.726   7.772   6.958 -0.3466 -0.1506 -0.7240
  868MOL0     H17160   5.853   7.714   7.191  0.6820 -0.2851  0.3782
  868MOL0     H17161   5.892   7.881   7.204  1.0352 -0.0693  0.5324
  868MOL0     H17162   4.764   7.762   7.456  1.6535 -2.6054  0.4450
  868MOL0     H17163   4.536   7.733   7.425  0.8753  0.6922 -0.3226
  868MOL0     H17164   4.131   7.404   7.293 -0.2499 -0.3461  1.6844
  868MOL0     H17165   3.908   7.408   7.262  1.8966 -1.5052 -2.8987
  868MOL0     H17166   4.120   7.488   5.899 -0.4166 -0.5074  2.3745
  868MOL0     H17167   4.384   7.498   5.855  1.6303  1.9244 -1.9905
  868MOL0     H17168   4.831   7.954   5.924  0.3942  0.9250  3.3391
  868MOL0     H17169   5.076   7.893   5.927  1.0506 -0.7353 -0.6449
  868MOL0     H17170   5.194   7.499   6.004 -1.3740 -1.9622 -1.9929
  868MOL0     H17171   5.228   7.491   5.829 -0.1373 -0.4338  0.4592
  868MOL0     H17172   5.391   7.616   6.056 -0.9117 -1.3857  0.0461
  868MOL0     H17173   5.447   7.608   5.879  1.9651 -1.2982 -0.9823
  868MOL0     H17174   5.407   7.343   5.929 -2.1353  1.8580 -2.1358
  868MOL0     H17175   5.404   7.392   6.101  2.4133 -1.8231  0.5543
  868MOL0     H17176   5.631   7.483   6.074  2.0441  0.2214 -0.4445
  868MOL0     H17177   5.628   7.470   5.901 -0.7801  0.0791 -1.5641
  868MOL0     H17178   5.728   7.073   6.044 -4.1896 -0.9465  0.6463
  868MOL0     H17179   4.969   7.481   5.868 -0.8317 -0.4567  2.8715
  868MOL0     H17180   4.751   7.533   5.860 -0.3433  0.7783 -0.5619
  869MOL0     O17181   5.990   0.998   7.385  0.7391 -0.1386  0.4743
  869MOL0     C17182   6.043   0.962   7.285 -0.1038 -0.1697  0.5538
  869MOL0     O17183   5.979   0.908   7.175  0.4321  0.1390 -0.1705
  869MOL0     C17184   5.845   0.897   7.176  0.0747  0.3719 -0.4521
  869MOL0     C17185   5.778   0.826   7.276 -0.1550  0.8614  0.3553
  869MOL0     C17186   5.644   0.792   7.272 -0.3979 -0.7889  0.2212
  869MOL0     C17187   5.570   0.830   7.161 -0.4914 -0.7643 -0.0634
  869MOL0     O17188   5.435   0.799   7.166 -0.4653 -0.0038  0.2642
  869MOL0     C17189   5.359   0.824   7.041  0.1066  0.2148  0.4428
  869MOL0     C17190   5.221   0.757   7.061  0.2464 -1.0684 -0.6428
  869MOL0     C17191   5.125   0.850   7.138 -0.5459  0.4275 -0.7702
  869MOL0     C17192   4.976   0.800   7.154 -0.0708  0.2997 -0.3040
  869MOL0     C17193   4.944   0.772   7.299  0.6327  0.7595 -0.0190
  869MOL0     C17194   4.809   0.700   7.323 -0.5506 -0.3659  0.1213
  869MOL0     C17195   4.695   0.792   7.328 -0.0739  0.2246 -0.6892
  869MOL0     C17196   4.567   0.704   7.325 -0.5246 -0.3358  0.2995
  869MOL0     N17197   4.449   0.804   7.323 -0.0334  0.2498 -0.7169
  869MOL0     C17198   4.366   0.828   7.432 -0.0632  0.0054  0.9261
  869MOL0     C17199   4.259   0.890   7.372 -0.2640 -0.8839 -0.0401
  869MOL0     C17200   4.137   0.950   7.445  0.0421 -0.4022  1.2281
  869MOL0     C17201   4.027   1.003   7.341 -0.1295 -0.1083  1.0830
  869MOL0     C17202   3.914   1.082   7.413 -0.0055 -0.7460 -0.4272
  869MOL0     C17203   3.809   1.138   7.310  0.8928  0.1680 -0.4178
  869MOL0     O17204   3.705   1.202   7.388  0.2114  0.4087  0.4566
  869MOL0     C17205   3.604   1.140   7.459  0.1189  0.3193  0.0014
  869MOL0     C17206   3.571   1.000   7.446  0.4778  0.3949  0.2483
  869MOL0     C17207   3.454   0.945   7.504  0.3346  0.3756 -0.3103
  869MOL0     C17208   3.434   0.801   7.497  0.3966 -0.3677  0.7817
  869MOL0     C17209   3.366   1.031   7.574 -0.4055  0.4403  0.6655
  869MOL0     C17210   3.246   0.993   7.650  0.5050  0.1589  0.1741
  869MOL0     O17211   3.172   1.092   7.716  0.2506  0.1799 -0.3317
  869MOL0     C17212   3.039   1.051   7.738  0.2973 -0.7561  0.5334
  869MOL0     C17213   2.999   1.007   7.859  0.3858 -0.2087 -0.3741
  869MOL0     C17214   2.868   0.961   7.892 -0.2664 -0.0695 -0.5466
  869MOL0     C17215   2.769   0.952   7.793  0.5665  0.2799 -0.5733
  869MOL0     O17216   2.644   0.904   7.831  0.0498 -0.3307 -0.2246
  869MOL0     C17217   2.553   0.918   7.726  0.9208  0.3437  0.1481
  869MOL0     C17218   2.406   0.898   7.784 -1.1764 -0.9465  0.1364
  869MOL0     C17219   2.306   0.862   7.679 -0.5080 -0.4320  0.0082
  869MOL0     C17220   2.179   0.794   7.711 -0.2508 -0.4821 -0.8801
  869MOL0     C17221   2.200   0.675   7.805 -0.0952 -0.1965 -0.3885
  869MOL0     C17222   2.291   0.565   7.742  0.6904  0.6836  0.7341
  869MOL0     C17223   2.281   0.437   7.828 -1.0675  0.1739  0.5873
  869MOL0     C17224   2.341   0.467   7.966  0.5031  0.2343  0.3456
  869MOL0    Cl17225   2.205   0.521   8.075 -0.1727  0.1783  0.2693
  869MOL0     C17226   2.816   0.986   7.666  0.0347 -0.5420 -0.1643
  869MOL0     C17227   2.945   1.037   7.639  0.3151  0.3826  0.3685
  869MOL0     O17228   3.216   0.877   7.638 -0.3329 -0.3212 -0.2450
  869MOL0     C17229   3.407   1.164   7.595  0.0237  0.2508 -0.5446
  869MOL0     C17230   3.525   1.215   7.536 -0.1629 -0.4866  0.0412
  869MOL0     N17231   4.284   0.897   7.235 -0.6661  0.3920 -0.2711
  869MOL0     N17232   4.398   0.855   7.212  0.8936  0.8195  0.0058
  869MOL0     C17233   5.633   0.913   7.060 -0.8996  0.0012 -0.5555
  869MOL0     C17234   5.769   0.946   7.070  0.2079 -0.0014 -0.4827
  869MOL0     C17235   6.190   0.978   7.286 -0.7614 -0.1953 -0.3896
  869MOL0     C17236   6.256   1.017   7.406  0.4880 -0.1688 -0.1616
  869MOL0     C17237   6.395   1.027   7.419  0.4117 -0.2117 -0.7158
  869MOL0     C17238   6.471   1.032   7.299 -0.4499  0.1196 -0.5152
  869MOL0     O17239   6.608   1.059   7.317 -0.0151 -0.1557  0.8604
  869MOL0     C17240   6.682   1.120   7.207 -0.3508  0.0510 -0.1508
  869MOL0     C17241   6.820   1.168   7.244 -0.2116 -0.8997 -0.0658
  869MOL0     C17242   6.808   1.299   7.331 -0.2163  0.1657 -0.0968
  869MOL0     C17243   6.938   1.354   7.385  0.3949  0.4072  0.1136
  869MOL0     C17244   7.016   1.420   7.276  0.1401 -0.0642 -0.9234
  869MOL0     C17245   7.079   1.489   7.199  0.6606  0.1004  0.0727
  869MOL0     C17246   6.402   1.009   7.183 -0.5147  0.1236 -0.1312
  869MOL0     C17247   6.270   0.970   7.173  0.2083  0.3305 -0.2040
  869MOL0     H17248   5.838   0.782   7.355 -2.4187  0.8277  2.1606
  869MOL0     H17249   5.589   0.740   7.350  0.1550  2.0717  2.7097
  869MOL0     H17250   5.344   0.928   7.008 -0.7206 -0.7948 -2.7702
  869MOL0     H17251   5.417   0.784   6.957 -1.6973 -1.1394 -0.2218
  869MOL0     H17252   5.176   0.740   6.963 -2.4702 -0.5745  0.4444
  869MOL0     H17253   5.238   0.662   7.112 -1.5201 -1.1278 -0.1085
  869MOL0     H17254   5.167   0.879   7.235  2.3265  0.2686 -1.8475
  869MOL0     H17255   5.126   0.941   7.077 -0.1059  2.5583  2.2008
  869MOL0     H17256   4.912   0.885   7.130  0.1133  0.6850  0.5402
  869MOL0     H17257   4.947   0.716   7.090  0.4027 -0.7344  0.7838
  869MOL0     H17258   5.022   0.713   7.347 -0.3268  0.1515  0.8387
  869MOL0     H17259   4.947   0.866   7.354 -0.0865  0.8528 -0.1261
  869MOL0     H17260   4.798   0.615   7.255 -0.1320 -2.0419  2.0281
  869MOL0     H17261   4.805   0.654   7.422 -0.1960  0.9461  0.7612
  869MOL0     H17262   4.697   0.849   7.422  3.0602 -1.2336  0.2559
  869MOL0     H17263   4.696   0.863   7.244 -5.1358  0.6092 -0.7430
  869MOL0     H17264   4.553   0.637   7.410 -0.2618 -3.0458 -1.6679
  869MOL0     H17265   4.568   0.648   7.231  2.1402 -1.3115  0.8134
  869MOL0     H17266   4.376   0.805   7.537  0.8769  0.3495  0.9137
  869MOL0     H17267   4.095   0.870   7.506  1.2177 -2.1433 -0.1411
  869MOL0     H17268   4.168   1.028   7.515  2.7330  0.4652 -0.7082
  869MOL0     H17269   3.982   0.916   7.293  0.7313 -0.2404  0.4847
  869MOL0     H17270   4.084   1.063   7.270  4.4801 -0.1871  4.2553
  869MOL0     H17271   3.953   1.174   7.458 -1.7569  1.2394 -2.7126
  869MOL0     H17272   3.880   1.013   7.491 -0.0150 -0.3100 -0.0427
  869MOL0     H17273   3.766   1.052   7.257 -0.8851 -0.1082  1.3570
  869MOL0     H17274   3.845   1.218   7.245  0.1073  1.6088  0.8777
  869MOL0     H17275   3.634   0.927   7.396 -2.3634 -2.7800  0.9322
  869MOL0     H17276   3.434   0.755   7.596  0.2411  0.5417  1.2236
  869MOL0     H17277   3.337   0.776   7.452  1.7111 -1.2213 -1.8017
  869MOL0     H17278   3.513   0.755   7.437 -0.6418 -0.6939 -0.3897
  869MOL0     H17279   3.083   1.007   7.927 -0.5927  0.7167  0.8736
  869MOL0     H17280   2.850   0.921   7.991  0.1900  2.7087  0.7784
  869MOL0     H17281   2.558   1.021   7.688 -0.5225  0.7447  0.9606
  869MOL0     H17282   2.568   0.848   7.643 -0.0813 -0.6578  0.7817
  869MOL0     H17283   2.413   0.810   7.849 -1.2268 -0.8898  0.2186
  869MOL0     H17284   2.371   0.981   7.845 -7.3747 -1.4068 -2.0280
  869MOL0     H17285   2.350   0.785   7.616  0.8653  0.7583 -0.5518
  869MOL0     H17286   2.284   0.949   7.617 -3.3565  0.0131  1.4946
  869MOL0     H17287   2.115   0.864   7.765  0.0113 -2.3941  2.2193
  869MOL0     H17288   2.125   0.751   7.627 -0.3981 -0.9618 -0.5459
  869MOL0     H17289   2.100   0.635   7.824  1.3550 -3.2355  1.7391
  869MOL0     H17290   2.244   0.708   7.900 -0.7610  2.1481 -0.8554
  869MOL0     H17291   2.246   0.543   7.644 -3.9286  1.3033  2.4606
  869MOL0     H17292   2.395   0.597   7.735  1.3836 -1.5986 -0.2252
  869MOL0     H17293   2.362   0.375   7.786  0.4064  0.3026  3.0736
  869MOL0     H17294   2.184   0.389   7.838 -0.6999 -0.7437 -0.0769
  869MOL0     H17295   2.418   0.543   7.950 -1.3653  2.3713  1.0981
  869MOL0     H17296   2.389   0.381   8.015 -1.3412 -1.1366 -0.1619
  869MOL0     H17297   2.760   0.973   7.574 -0.4198  0.3521 -0.0290
  869MOL0     H17298   2.954   1.073   7.537 -1.7030  2.1744  0.7296
  869MOL0     H17299   3.358   1.244   7.651 -0.4298  0.0848 -0.7019
  869MOL0     H17300   3.549   1.321   7.533 -2.0755  0.1109  2.5194
  869MOL0     H17301   5.573   0.955   6.979  0.2869  1.6878 -0.6075
  869MOL0     H17302   5.803   0.999   6.982 -0.8454 -1.3291 -1.7529
  869MOL0     H17303   6.203   1.018   7.501 -4.4548 -1.0318 -2.5619
  869MOL0     H17304   6.438   1.046   7.517  1.9177  4.0951 -1.9828
  869MOL0     H17305   6.691   1.038   7.135 -3.9706 -2.6557  2.1249
  869MOL0     H17306   6.623   1.204   7.170 -1.1479 -0.9132 -1.0871
  869MOL0     H17307   6.881   1.183   7.155  0.9228 -1.1525  0.6463
  869MOL0     H17308   6.864   1.087   7.302 -2.2179 -1.4033  0.8246
  869MOL0     H17309   6.739   1.280   7.414  0.0098  3.8285  1.1141
  869MOL0     H17310   6.747   1.375   7.280 -0.0214  0.7730  0.5513
  869MOL0     H17311   6.980   1.267   7.438 -1.9293 -2.4247 -2.2884
  869MOL0     H17312   6.916   1.427   7.464  0.7909 -0.0256  0.6389
  869MOL0     H17313   7.130   1.538   7.119  2.8095  1.5685  2.1838
  869MOL0     H17314   6.456   1.016   7.089  2.0357  0.0304  1.2344
  869MOL0     H17315   6.231   0.946   7.074 -0.1558  1.3206 -0.3127
  870MOL0     O17316   6.292   3.998   2.520 -0.3789  0.4297  0.6379
  870MOL0     C17317   6.390   4.036   2.453  0.3784 -0.3217 -0.7222
  870MOL0     O17318   6.385   4.090   2.326 -0.2806 -0.6491 -0.3243
  870MOL0     C17319   6.266   4.117   2.260  0.7098  0.2892  0.0452
  870MOL0     C17320   6.161   4.196   2.311 -0.5280 -0.2498 -0.3134
  870MOL0     C17321   6.042   4.211   2.238  0.0212  0.0571  0.4663
  870MOL0     C17322   6.028   4.158   2.109 -0.2625  0.8400 -0.7387
  870MOL0     O17323   5.921   4.191   2.040  0.3940 -0.2816  0.5886
  870MOL0     C17324   5.875   4.096   1.942 -0.0635 -1.0810 -0.1742
  870MOL0     C17325   5.737   4.132   1.890 -0.0444  0.1828 -0.3675
  870MOL0     C17326   5.622   4.093   1.987 -0.1071  0.0010 -0.5116
  870MOL0     C17327   5.485   4.085   1.922 -0.4602  0.0646  0.7100
  870MOL0     C17328   5.378   4.033   2.021 -0.7659 -1.2102 -0.0687
  870MOL0     C17329   5.241   4.026   1.955 -0.3266 -0.4811  0.2591
  870MOL0     C17330   5.139   3.934   2.024 -0.4979  0.4421 -0.2180
  870MOL0     C17331   4.997   3.938   1.959 -0.0943  0.1054 -0.6811
  870MOL0     N17332   4.992   3.870   1.834 -0.7656 -0.0839 -0.3122
  870MOL0     C17333   4.974   3.738   1.825 -0.0882  0.2523  0.1913
  870MOL0     C17334   5.001   3.709   1.693  0.2707 -0.1563 -0.0158
  870MOL0     C17335   4.994   3.572   1.633  0.3066 -0.4847 -0.1370
  870MOL0     C17336   4.872   3.524   1.551 -0.6315  0.3257 -0.9247
  870MOL0     C17337   4.770   3.633   1.562 -0.2640 -0.5214  0.1749
  870MOL0     C17338   4.629   3.587   1.508 -0.2067  0.2928 -0.1685
  870MOL0     O17339   4.547   3.699   1.504 -0.0527 -0.0205  0.1943
  870MOL0     C17340   4.411   3.660   1.485 -0.0619 -0.2140  0.7845
  870MOL0     C17341   4.321   3.749   1.528  0.9437 -0.0300  0.3805
  870MOL0     C17342   4.184   3.717   1.530  0.0338 -0.2808 -0.9466
  870MOL0     C17343   4.083   3.823   1.593  0.7179 -0.0438  0.9201
  870MOL0     C17344   4.137   3.592   1.482 -0.0272 -0.2276 -0.5938
  870MOL0     C17345   3.995   3.556   1.457 -0.2955  0.2224 -0.7137
  870MOL0     O17346   3.910   3.660   1.422  0.0311 -0.0699  0.2677
  870MOL0     C17347   3.780   3.631   1.402  0.2431  0.0448 -0.3103
  870MOL0     C17348   3.697   3.599   1.508  1.0070  0.4057  0.2631
  870MOL0     C17349   3.560   3.575   1.480 -0.1166  0.1612 -0.3340
  870MOL0     C17350   3.507   3.569   1.344 -0.7491  0.6200 -0.6584
  870MOL0     O17351   3.373   3.535   1.319 -0.4362 -1.0018 -0.6189
  870MOL0     C17352   3.283   3.638   1.363 -0.0388 -0.1610  0.5164
  870MOL0     C17353   3.144   3.581   1.342  0.3530  0.4945  0.4799
  870MOL0     C17354   3.036   3.681   1.391 -0.2963  0.2704  0.0198
  870MOL0     C17355   2.899   3.610   1.392 -0.7804  0.1154  0.3391
  870MOL0     C17356   2.787   3.703   1.423  0.0435 -0.7642  0.2342
  870MOL0     C17357   2.653   3.631   1.425  0.0028  0.3095 -0.1471
  870MOL0     C17358   2.552   3.730   1.506 -0.1340 -0.3578  0.1148
  870MOL0     C17359   2.420   3.665   1.503  0.4244  0.7259 -0.4236
  870MOL0    Cl17360   2.347   3.663   1.345 -0.1567 -0.1104 -0.0986
  870MOL0     C17361   3.597   3.606   1.248 -0.1990 -0.9044  1.1518
  870MOL0     C17362   3.728   3.640   1.267 -0.5605  0.1014  0.0507
  870MOL0     O17363   3.963   3.439   1.478  0.0961  0.2549  1.0083
  870MOL0     C17364   4.234   3.507   1.436  0.4979  0.1940 -0.2168
  870MOL0     C17365   4.365   3.539   1.424 -0.1826  0.0837 -0.0338
  870MOL0     N17366   5.009   3.825   1.624 -0.1775  0.1145 -0.1671
  870MOL0     N17367   5.006   3.923   1.711 -0.1533 -0.2373  0.2795
  870MOL0     C17368   6.140   4.089   2.052  0.7534  0.7340 -0.1072
  870MOL0     C17369   6.254   4.067   2.129 -0.4022 -0.0226 -0.1156
  870MOL0     C17370   6.518   4.007   2.521  0.1627  0.8751 -0.2365
  870MOL0     C17371   6.634   4.068   2.470 -0.1344  0.6574  0.1017
  870MOL0     C17372   6.754   4.047   2.531 -0.1350 -0.5546 -0.5958
  870MOL0     C17373   6.769   3.950   2.641  0.4967 -0.2610 -0.0218
  870MOL0     O17374   6.892   3.916   2.690  0.3314  0.4731  0.0585
  870MOL0     C17375   6.989   3.874   2.595 -0.8307  0.1810 -0.3365
  870MOL0     C17376   7.096   3.789   2.667 -0.5343  0.3778  0.3699
  870MOL0     C17377   7.183   3.712   2.564  0.0674 -0.3769 -0.5062
  870MOL0     C17378   7.293   3.630   2.632 -0.1807 -0.3196  0.2129
  870MOL0     C17379   7.406   3.713   2.667 -0.3509 -0.0639 -0.8248
  870MOL0     C17380   7.493   3.796   2.692 -0.3912  0.2302 -0.8522
  870MOL0     C17381   6.661   3.879   2.689  0.4841  0.1888 -0.6973
  870MOL0     C17382   6.539   3.904   2.620 -0.2699 -0.1693 -0.3046
  870MOL0     H17383   6.166   4.238   2.410 -0.3972 -0.9640 -0.0091
  870MOL0     H17384   5.971   4.279   2.283 -0.1267 -0.3657  0.8761
  870MOL0     H17385   5.948   4.099   1.861  1.9754  0.4908  1.5972
  870MOL0     H17386   5.876   3.998   1.990  0.3849 -0.1884  1.7810
  870MOL0     H17387   5.724   4.235   1.857 -0.0724  0.3522  0.1678
  870MOL0     H17388   5.722   4.074   1.798 -0.2684 -0.7983  0.2657
  870MOL0     H17389   5.657   3.996   2.022 -0.6140 -0.1409 -0.3882
  870MOL0     H17390   5.622   4.169   2.065  0.4293  0.2873 -0.7890
  870MOL0     H17391   5.454   4.181   1.879  2.3739 -0.7875 -3.9698
  870MOL0     H17392   5.487   4.022   1.832  1.0312  0.7021  0.2584
  870MOL0     H17393   5.418   3.941   2.063  1.4874 -0.8225 -1.1648
  870MOL0     H17394   5.382   4.090   2.114  1.7938 -2.6249  0.7846
  870MOL0     H17395   5.193   4.124   1.950 -1.7907 -1.1959 -0.4429
  870MOL0     H17396   5.250   3.985   1.854  0.8229  1.4914 -0.4963
  870MOL0     H17397   5.175   3.831   2.031 -0.1973  0.3662 -2.2516
  870MOL0     H17398   5.129   3.975   2.124  1.5170  0.5974 -0.0253
  870MOL0     H17399   4.971   4.039   1.925 -1.7271 -0.4995 -1.3308
  870MOL0     H17400   4.919   3.910   2.029  1.7342  1.9221  2.3118
  870MOL0     H17401   4.950   3.659   1.895  1.1473 -2.6608 -2.4089
  870MOL0     H17402   5.071   3.569   1.556 -1.2537  1.9189 -1.9437
  870MOL0     H17403   5.016   3.492   1.705  0.0203 -0.9468 -0.5582
  870MOL0     H17404   4.835   3.429   1.592 -1.0807  1.7314  2.2367
  870MOL0     H17405   4.903   3.509   1.448  1.6562 -2.2946  0.0130
  870MOL0     H17406   4.806   3.718   1.503  1.3460 -2.0702 -1.1498
  870MOL0     H17407   4.741   3.681   1.657 -0.6513  1.9442 -1.0922
  870MOL0     H17408   4.602   3.508   1.578  2.8771  0.3544  1.2400
  870MOL0     H17409   4.638   3.542   1.409  1.4581 -1.5997  0.7786
  870MOL0     H17410   4.354   3.848   1.558  1.5296  0.1099 -0.6703
  870MOL0     H17411   4.117   3.866   1.688 -0.1197  1.3207  0.6156
  870MOL0     H17412   4.079   3.897   1.513  0.7721 -1.2251 -0.2114
  870MOL0     H17413   3.988   3.772   1.610  1.5492 -1.4540  1.5756
  870MOL0     H17414   3.729   3.596   1.612 -2.5068  0.8972  1.5019
  870MOL0     H17415   3.497   3.553   1.566 -0.1324 -0.3222 -0.4653
  870MOL0     H17416   3.285   3.675   1.466  0.0441 -0.9024  0.7929
  870MOL0     H17417   3.279   3.715   1.286 -0.3958 -0.6069  0.0847
  870MOL0     H17418   3.132   3.561   1.235 -1.0162 -1.5241  0.9510
  870MOL0     H17419   3.143   3.492   1.405 -2.5275 -0.5798 -0.8915
  870MOL0     H17420   3.042   3.763   1.319  2.6407 -1.7332 -2.2628
  870MOL0     H17421   3.054   3.718   1.492 -0.6504 -2.8639  1.3583
  870MOL0     H17422   2.877   3.559   1.298  0.4606 -2.0065  1.1341
  870MOL0     H17423   2.903   3.535   1.471  0.8633  1.2286  1.3787
  870MOL0     H17424   2.786   3.786   1.352  0.1490  0.9840  2.1796
  870MOL0     H17425   2.809   3.744   1.522 -0.0458  1.2926 -0.5663
  870MOL0     H17426   2.618   3.598   1.327  1.2958 -2.7012  0.2870
  870MOL0     H17427   2.668   3.540   1.484 -1.4848 -1.8891 -2.9273
  870MOL0     H17428   2.553   3.827   1.456  0.1827 -1.0329 -1.2330
  870MOL0     H17429   2.590   3.746   1.607  0.8147  1.9031 -0.5475
  870MOL0     H17430   2.350   3.729   1.558 -1.5720 -0.3308 -1.6049
  870MOL0     H17431   2.415   3.572   1.561 -0.9250  0.2162 -1.3016
  870MOL0     H17432   3.570   3.620   1.144  3.7833 -1.3192 -0.0884
  870MOL0     H17433   3.776   3.679   1.177  2.2771 -1.7060  0.6412
  870MOL0     H17434   4.206   3.408   1.400  1.9542 -0.3741  0.1309
  870MOL0     H17435   4.434   3.461   1.393  0.0595 -0.0208  0.7488
  870MOL0     H17436   6.149   4.072   1.946  1.0273  2.5533 -0.4021
  870MOL0     H17437   6.349   4.025   2.098  0.9391  1.0779  2.2046
  870MOL0     H17438   6.634   4.144   2.393 -0.5450 -0.2505 -0.8175
  870MOL0     H17439   6.849   4.094   2.506 -0.1661  0.8686  1.6948
  870MOL0     H17440   6.948   3.810   2.517  0.4939 -0.8347 -0.2442
  870MOL0     H17441   7.037   3.964   2.555 -0.0539  0.7564  1.7145
  870MOL0     H17442   7.057   3.713   2.735 -0.3543  1.0470  1.2375
  870MOL0     H17443   7.162   3.846   2.733  0.4758 -1.0527  0.6554
  870MOL0     H17444   7.219   3.778   2.485 -1.4208 -0.0414 -0.9394
  870MOL0     H17445   7.122   3.644   2.503  0.0112 -0.7303 -0.0615
  870MOL0     H17446   7.316   3.542   2.571 -2.8905 -1.6726  0.9804
  870MOL0     H17447   7.254   3.582   2.723 -1.3214 -0.7897 -0.5055
  870MOL0     H17448   7.578   3.858   2.712  0.5841 -0.5341 -2.3913
  870MOL0     H17449   6.675   3.807   2.769 -1.3801  1.8335  1.2516
  870MOL0     H17450   6.452   3.847   2.652  1.0820 -3.0636 -1.5110
  871MOL0     O17451   0.466   6.384   3.461 -0.9263  0.1924  0.2401
  871MOL0     C17452   0.475   6.482   3.389 -0.2239  0.6947 -0.7599
  871MOL0     O17453   0.366   6.562   3.348 -0.0605  1.0165  0.3183
  871MOL0     C17454   0.241   6.530   3.386  0.7157 -0.2013  0.3730
  871MOL0     C17455   0.181   6.404   3.355 -0.8498  0.4340 -0.3459
  871MOL0     C17456   0.051   6.379   3.384  0.0099 -0.0020 -0.1464
  871MOL0     C17457  -0.030   6.482   3.430  0.6265  0.1338  0.6429
  871MOL0     O17458  -0.164   6.459   3.458  0.7681  0.0538  0.8057
  871MOL0     C17459  -0.257   6.548   3.393 -0.8889 -0.2837  0.2168
  871MOL0     C17460  -0.328   6.632   3.495  0.1737  0.1773 -0.0654
  871MOL0     C17461  -0.427   6.545   3.583  0.0370 -0.2496 -0.6026
  871MOL0     C17462  -0.538   6.484   3.492  0.1725 -0.2328 -0.7900
  871MOL0     C17463  -0.651   6.434   3.580  0.2627  0.4120  0.0537
  871MOL0     C17464  -0.759   6.345   3.502 -0.7004  0.4478  0.0695
  871MOL0     C17465  -0.808   6.230   3.580 -0.1456 -0.4585  0.2880
  871MOL0     C17466  -0.886   6.124   3.504 -0.7423 -0.6469 -0.5652
  871MOL0     N17467  -1.009   6.170   3.438 -0.2206 -0.7096 -0.2211
  871MOL0     C17468  -1.126   6.189   3.503  0.8680 -0.5395  0.5644
  871MOL0     C17469  -1.215   6.231   3.409 -0.2161  0.5918  0.1201
  871MOL0     C17470  -1.363   6.264   3.428  0.7015  0.3172 -0.0927
  871MOL0     C17471  -1.440   6.257   3.299 -0.6851 -0.8923 -0.0577
  871MOL0     C17472  -1.580   6.312   3.320 -0.3240  0.0009 -0.0935
  871MOL0     C17473  -1.686   6.214   3.372 -0.4801 -0.2794  0.1800
  871MOL0     O17474  -1.814   6.271   3.336 -0.6375 -0.3532  0.7926
  871MOL0     C17475  -1.923   6.185   3.332  0.2680 -0.2536  0.6184
  871MOL0     C17476  -1.936   6.079   3.413 -0.4262  0.4118  0.5154
  871MOL0     C17477  -2.063   6.013   3.424  0.4070 -0.4833  0.7785
  871MOL0     C17478  -2.064   5.888   3.508 -1.2123  0.4231 -0.0285
  871MOL0     C17479  -2.175   6.057   3.350  0.0378  0.6544 -0.1991
  871MOL0     C17480  -2.294   5.979   3.354  0.4553 -0.5788  0.3610
  871MOL0     O17481  -2.400   6.058   3.384 -0.6307 -0.4048 -0.8136
  871MOL0     C17482  -2.525   6.017   3.409  0.8126  0.0749  0.8844
  871MOL0     C17483  -2.630   6.112   3.393  0.1206 -0.2800 -0.1575
  871MOL0     C17484  -2.760   6.093   3.434  0.3356 -0.0722 -0.5076
  871MOL0     C17485  -2.794   5.974   3.499 -0.3444 -0.0498  0.2119
  871MOL0     O17486  -2.918   5.923   3.549 -0.4258  0.6556  0.7063
  871MOL0     C17487  -3.031   6.012   3.548  0.0880  0.8560  0.9506
  871MOL0     C17488  -3.147   5.936   3.615  0.6329 -0.2552  0.4926
  871MOL0     C17489  -3.281   6.006   3.618 -0.2572  0.1319  0.1495
  871MOL0     C17490  -3.296   6.133   3.712 -0.0371  0.2214 -0.4665
  871MOL0     C17491  -3.438   6.177   3.705  0.9491  0.1289 -0.3393
  871MOL0     C17492  -3.473   6.304   3.761 -0.3553 -0.1086  0.0772
  871MOL0     C17493  -3.430   6.422   3.666  0.3309 -0.3417  0.1374
  871MOL0     C17494  -3.469   6.565   3.702  0.0421  0.8265  0.4427
  871MOL0    Cl17495  -3.645   6.577   3.719 -0.1452  0.0274  0.3957
  871MOL0     C17496  -2.688   5.883   3.524  0.4950 -0.3155  0.1020
  871MOL0     C17497  -2.557   5.903   3.471 -0.4045 -0.1641 -0.6132
  871MOL0     O17498  -2.301   5.859   3.313  0.0849 -0.2271 -0.0300
  871MOL0     C17499  -2.155   6.155   3.256  0.9928 -0.4191 -0.4216
  871MOL0     C17500  -2.030   6.220   3.248 -0.1369  0.1059 -0.4026
  871MOL0     N17501  -1.149   6.226   3.288 -0.2843  0.4660  0.3941
  871MOL0     N17502  -1.025   6.201   3.308  0.2323 -0.0530  0.5842
  871MOL0     C17503   0.020   6.600   3.475  0.1817  0.3363  0.4147
  871MOL0     C17504   0.153   6.631   3.442  0.2125  0.1413  0.4853
  871MOL0     C17505   0.609   6.530   3.338 -0.6611  0.2694 -0.5018
  871MOL0     C17506   0.629   6.634   3.244 -0.7709  0.4618 -0.8006
  871MOL0     C17507   0.757   6.683   3.209 -0.2361 -0.2320  0.3001
  871MOL0     C17508   0.871   6.620   3.267  0.4495 -0.4950  0.3303
  871MOL0     O17509   0.991   6.661   3.212 -0.1988 -0.2652  0.3165
  871MOL0     C17510   1.115   6.626   3.277 -0.2785  0.6066  0.3026
  871MOL0     C17511   1.239   6.694   3.227  0.8760 -0.8395  0.2684
  871MOL0     C17512   1.280   6.653   3.084 -1.1665 -0.1653  0.8038
  871MOL0     C17513   1.418   6.714   3.035  0.5588  0.4092 -0.4243
  871MOL0     C17514   1.523   6.662   3.120 -0.3423 -0.6062 -1.1132
  871MOL0     C17515   1.613   6.631   3.197 -0.4619 -0.4761  0.3842
  871MOL0     C17516   0.849   6.513   3.358 -0.2092 -0.1307 -0.0496
  871MOL0     C17517   0.720   6.470   3.388  0.7655 -0.5553 -1.0903
  871MOL0     H17518   0.248   6.329   3.314  1.7999  1.9653  0.9429
  871MOL0     H17519   0.017   6.278   3.361  0.1990 -0.0706 -0.1262
  871MOL0     H17520  -0.210   6.617   3.323 -0.7691  0.4551  1.0006
  871MOL0     H17521  -0.328   6.492   3.331  0.1781  0.1138 -1.4105
  871MOL0     H17522  -0.257   6.683   3.562  1.3432 -3.3827  1.6436
  871MOL0     H17523  -0.391   6.710   3.452 -0.7515 -0.3850  0.2476
  871MOL0     H17524  -0.370   6.469   3.637  2.1020  0.4622 -1.6983
  871MOL0     H17525  -0.463   6.618   3.656  0.2549 -0.4050 -0.3366
  871MOL0     H17526  -0.568   6.560   3.419  2.3151 -1.5923 -3.2899
  871MOL0     H17527  -0.499   6.400   3.434 -0.9730 -0.7966 -0.7703
  871MOL0     H17528  -0.602   6.388   3.666  1.6542  2.2416  0.3099
  871MOL0     H17529  -0.710   6.516   3.623  0.6987  0.8542 -0.1744
  871MOL0     H17530  -0.842   6.399   3.456 -0.6485 -2.0896 -3.3936
  871MOL0     H17531  -0.702   6.303   3.419  1.9762  1.6747  1.1644
  871MOL0     H17532  -0.717   6.190   3.628  0.6409  0.3605 -0.4805
  871MOL0     H17533  -0.869   6.280   3.656  1.2076 -0.8956  1.7422
  871MOL0     H17534  -0.900   6.050   3.583 -1.8302  0.6797  0.5458
  871MOL0     H17535  -0.817   6.080   3.431 -0.7026 -2.0189  0.2633
  871MOL0     H17536  -1.146   6.183   3.610  2.1840  2.5154  1.0834
  871MOL0     H17537  -1.399   6.202   3.510 -1.6080  0.2453 -1.0958
  871MOL0     H17538  -1.364   6.369   3.459  0.6972  0.2024  0.3074
  871MOL0     H17539  -1.444   6.158   3.252  2.6595 -1.1062 -0.1211
  871MOL0     H17540  -1.396   6.337   3.239  1.8455 -0.3450  2.2866
  871MOL0     H17541  -1.608   6.353   3.223 -0.3534 -2.1144 -1.0253
  871MOL0     H17542  -1.574   6.401   3.384 -1.0716 -0.0656  0.0899
  871MOL0     H17543  -1.678   6.194   3.479 -1.8225  0.2765  0.4004
  871MOL0     H17544  -1.677   6.112   3.332 -0.5556 -0.5249  0.7792
  871MOL0     H17545  -1.849   6.037   3.462 -1.2704 -0.1811  1.5447
  871MOL0     H17546  -2.109   5.809   3.448  0.5223 -0.5367 -0.1174
  871MOL0     H17547  -1.962   5.858   3.537 -0.6373  0.2885 -2.0662
  871MOL0     H17548  -2.125   5.893   3.599 -0.0599 -1.3040  0.8821
  871MOL0     H17549  -2.595   6.199   3.339  0.8506 -1.5440 -1.8204
  871MOL0     H17550  -2.831   6.171   3.407 -1.4596 -0.2581  3.0982
  871MOL0     H17551  -3.016   6.109   3.598  0.1531  2.9399 -2.7214
  871MOL0     H17552  -3.053   6.024   3.442  2.9236  0.9456  0.2787
  871MOL0     H17553  -3.145   5.836   3.572  0.2240 -0.2428  0.4482
  871MOL0     H17554  -3.124   5.922   3.722 -0.3333  1.3212  0.9379
  871MOL0     H17555  -3.358   5.935   3.651 -2.2354  1.9216 -0.3580
  871MOL0     H17556  -3.304   6.021   3.512 -0.8623  1.4630  0.4518
  871MOL0     H17557  -3.286   6.106   3.817 -4.6833 -1.4385 -0.2319
  871MOL0     H17558  -3.223   6.207   3.677  1.3077 -0.9554 -0.2494
  871MOL0     H17559  -3.492   6.101   3.761 -0.2813  1.9035  1.0033
  871MOL0     H17560  -3.480   6.179   3.604  0.2982  1.4826 -0.0716
  871MOL0     H17561  -3.576   6.317   3.794 -0.3538  2.6348 -0.7891
  871MOL0     H17562  -3.420   6.322   3.855 -3.4737 -0.7984  2.1242
  871MOL0     H17563  -3.486   6.397   3.575  0.4042  0.1639 -0.0438
  871MOL0     H17564  -3.323   6.422   3.645  0.2875  0.9398 -0.1289
  871MOL0     H17565  -3.425   6.629   3.625 -0.9309 -0.2103 -1.0494
  871MOL0     H17566  -3.418   6.582   3.797  2.4240 -3.1197  0.0922
  871MOL0     H17567  -2.694   5.791   3.581  1.2522 -0.8045 -0.5722
  871MOL0     H17568  -2.482   5.827   3.491 -0.0498  0.3089 -0.1231
  871MOL0     H17569  -2.230   6.187   3.184 -2.0742  0.2763  2.7824
  871MOL0     H17570  -2.004   6.299   3.179 -0.9868  3.3402  2.6821
  871MOL0     H17571  -0.037   6.682   3.519 -0.2055 -0.0087  0.5612
  871MOL0     H17572   0.198   6.724   3.475  0.4518  0.0093  0.5317
  871MOL0     H17573   0.546   6.688   3.200 -0.7464 -1.1602 -2.9910
  871MOL0     H17574   0.763   6.748   3.122 -2.9966 -1.2427 -0.7444
  871MOL0     H17575   1.108   6.643   3.385  0.3217 -0.0477  0.4535
  871MOL0     H17576   1.131   6.518   3.275  0.0358  0.6612 -1.3656
  871MOL0     H17577   1.321   6.658   3.289 -0.2820 -2.4193  0.9573
  871MOL0     H17578   1.235   6.802   3.242  3.6615 -0.5581 -0.3560
  871MOL0     H17579   1.195   6.694   3.028  2.0508  1.5342 -3.3620
  871MOL0     H17580   1.287   6.544   3.085  0.5677 -0.1011 -0.6173
  871MOL0     H17581   1.406   6.822   3.045  2.2526  0.6350 -0.4972
  871MOL0     H17582   1.443   6.691   2.931  0.4845  1.7201 -0.7402
  871MOL0     H17583   1.706   6.611   3.247 -1.8006 -0.0051  3.2773
  871MOL0     H17584   0.926   6.454   3.407  0.0433 -2.2374 -2.7067
  871MOL0     H17585   0.700   6.393   3.462  2.4317 -1.0908 -1.1554
  872MOL0     O17586   7.259   9.626   2.438 -0.1584 -0.5397  0.0457
  872MOL0     C17587   7.306   9.677   2.538 -0.5411 -0.4388  0.1671
  872MOL0     O17588   7.247   9.710   2.653 -0.0624 -0.4707  0.0890
  872MOL0     C17589   7.109   9.721   2.658  0.0136  0.5590  0.7096
  872MOL0     C17590   7.056   9.843   2.632  0.8307 -0.0641 -0.4271
  872MOL0     C17591   6.919   9.860   2.621  0.8169 -0.1532 -0.7963
  872MOL0     C17592   6.830   9.749   2.638  0.0410  0.5464 -0.7431
  872MOL0     O17593   6.692   9.746   2.628 -0.3880  0.2280 -0.3232
  872MOL0     C17594   6.624   9.875   2.630 -0.6071 -0.1856 -0.2227
  872MOL0     C17595   6.475   9.838   2.629 -0.1687  0.1100 -0.0795
  872MOL0     C17596   6.378   9.958   2.605 -0.4351  0.5212 -0.1347
  872MOL0     C17597   6.398  10.005   2.462  0.6846 -0.3947  0.0314
  872MOL0     C17598   6.301  10.107   2.410 -0.1957 -0.1318 -0.3258
  872MOL0     C17599   6.328  10.249   2.466 -0.1196 -0.6080 -0.0776
  872MOL0     C17600   6.242  10.363   2.400 -0.2341 -0.5328  0.1752
  872MOL0     C17601   6.095  10.351   2.416 -0.2216 -0.4187 -0.4857
  872MOL0     N17602   6.042  10.328   2.553  0.3169 -0.7116 -0.2111
  872MOL0     C17603   5.989  10.420   2.640 -0.4796  0.2518  0.1960
  872MOL0     C17604   5.922  10.354   2.744 -1.3884  0.1105  0.6621
  872MOL0     C17605   5.862  10.402   2.864  0.2565 -0.5752 -0.1614
  872MOL0     C17606   5.708  10.451   2.846  0.4856  0.5895  0.0691
  872MOL0     C17607   5.614  10.339   2.807  0.9193  0.2321  0.7006
  872MOL0     C17608   5.479  10.399   2.761 -0.0276  0.2089  0.1887
  872MOL0     O17609   5.379  10.307   2.776 -0.3915  0.3097  0.2777
  872MOL0     C17610   5.256  10.352   2.742 -0.0355  0.4417  0.4971
  872MOL0     C17611   5.223  10.448   2.642  0.1772  0.3110 -0.7421
  872MOL0     C17612   5.087  10.478   2.617  0.0589 -0.5757 -0.4302
  872MOL0     C17613   5.071  10.602   2.533 -0.4761 -0.8064 -0.4096
  872MOL0     C17614   4.986  10.410   2.680  0.7634  0.5527 -0.5710
  872MOL0     C17615   4.833  10.426   2.651 -0.6983 -0.4052 -0.2595
  872MOL0     O17616   4.786  10.481   2.533 -0.0550 -0.4663 -0.1192
  872MOL0     C17617   4.652  10.520   2.515 -0.9100  0.2559 -1.1665
  872MOL0     C17618   4.580  10.577   2.618 -0.3409  0.0323 -0.8295
  872MOL0     C17619   4.447  10.606   2.610  0.4011  0.3811  0.2095
  872MOL0     C17620   4.382  10.577   2.487  0.5796  0.6539  0.1061
  872MOL0     O17621   4.246  10.605   2.495 -0.2714  0.0002  0.6823
  872MOL0     C17622   4.169  10.578   2.375 -0.5433  0.5190  0.9398
  872MOL0     C17623   4.046  10.657   2.395  0.3731 -0.8627  0.8786
  872MOL0     C17624   3.947  10.602   2.495 -0.9928 -0.0230 -0.0340
  872MOL0     C17625   3.837  10.696   2.528 -0.6336  0.1421  0.1586
  872MOL0     C17626   3.729  10.633   2.610  0.7105  0.2493  0.1055
  872MOL0     C17627   3.650  10.528   2.528 -0.4852  0.1283 -0.1403
  872MOL0     C17628   3.572  10.590   2.417 -0.2415  0.3601  0.2192
  872MOL0     C17629   3.458  10.508   2.361  0.0914  0.0284 -0.1015
  872MOL0    Cl17630   3.539  10.364   2.296 -0.1661 -0.1612  0.2252
  872MOL0     C17631   4.450  10.506   2.385 -0.6256 -0.8660 -0.0788
  872MOL0     C17632   4.593  10.485   2.396  0.6418 -0.2738 -0.4108
  872MOL0     O17633   4.764  10.392   2.750  1.0174  0.8923 -0.2505
  872MOL0     C17634   5.020  10.309   2.771 -0.1116  0.0225  0.3743
  872MOL0     C17635   5.155  10.286   2.804  0.1223 -0.0240  0.5997
  872MOL0     N17636   5.945  10.224   2.709  0.2428  0.0177  0.3686
  872MOL0     N17637   6.020  10.207   2.604  0.4324 -0.3009 -0.2198
  872MOL0     C17638   6.893   9.623   2.658 -0.1732  0.5267 -0.6421
  872MOL0     C17639   7.031   9.609   2.656  0.7960  0.3347  0.4489
  872MOL0     C17640   7.447   9.710   2.532  0.1842  0.0405 -0.3263
  872MOL0     C17641   7.481   9.843   2.566 -0.5574 -0.5060  0.3367
  872MOL0     C17642   7.609   9.881   2.574  0.2328 -0.3113  0.4093
  872MOL0     C17643   7.712   9.798   2.524  0.4011  0.2820  0.4888
  872MOL0     O17644   7.846   9.845   2.516  0.2254 -0.3417 -0.1079
  872MOL0     C17645   7.920   9.794   2.633  0.4931  0.1099  0.6921
  872MOL0     C17646   7.909   9.905   2.735  0.2330  0.7370  1.0598
  872MOL0     C17647   8.032   9.901   2.839  0.4366 -0.2112  0.4402
  872MOL0     C17648   8.002   9.801   2.955 -0.0381  1.3785 -0.4307
  872MOL0     C17649   8.128   9.785   3.029  0.4901 -0.3042 -0.2659
  872MOL0     C17650   8.230   9.782   3.093 -0.3768  0.3604  0.8602
  872MOL0     C17651   7.680   9.666   2.488 -0.7335  0.3114  0.2335
  872MOL0     C17652   7.545   9.621   2.501  0.5207 -0.3757  0.5533
  872MOL0     H17653   7.113   9.935   2.632 -3.5162  2.9148 -1.0162
  872MOL0     H17654   6.882   9.960   2.599 -0.2728 -0.8856 -2.4455
  872MOL0     H17655   6.660   9.926   2.720  1.9767  1.0702 -1.8673
  872MOL0     H17656   6.652   9.932   2.541  0.4014  1.4810  1.0847
  872MOL0     H17657   6.458   9.755   2.559  0.2194 -1.3418  1.4624
  872MOL0     H17658   6.445   9.788   2.722 -0.2023 -3.3142 -1.7707
  872MOL0     H17659   6.276   9.918   2.611 -0.3054  0.3134  0.8864
  872MOL0     H17660   6.396  10.024   2.691  0.1156  0.5422 -0.2611
  872MOL0     H17661   6.491  10.059   2.445  2.0847 -2.4035  0.8460
  872MOL0     H17662   6.389   9.915   2.400  1.1296 -0.2686 -0.2192
  872MOL0     H17663   6.312  10.116   2.301  0.8525 -2.9666 -0.5232
  872MOL0     H17664   6.202  10.070   2.437 -1.5355  0.3417 -4.0075
  872MOL0     H17665   6.308  10.250   2.574 -1.3704 -0.6079 -0.3002
  872MOL0     H17666   6.436  10.259   2.457  0.2765 -0.3668  3.4171
  872MOL0     H17667   6.275  10.459   2.439  0.1185 -1.4609  2.2684
  872MOL0     H17668   6.265  10.375   2.293 -1.5124  2.9487  0.1660
  872MOL0     H17669   6.065  10.260   2.362  0.8719 -0.2057 -1.4901
  872MOL0     H17670   6.036  10.430   2.369 -1.4038 -0.3447  1.0318
  872MOL0     H17671   5.991  10.528   2.633  2.2576  0.3015  0.5404
  872MOL0     H17672   5.860  10.320   2.937 -1.3348  1.9482  2.8599
  872MOL0     H17673   5.916  10.485   2.911 -1.7978  0.9985 -0.4289
  872MOL0     H17674   5.690  10.526   2.769 -0.8964  0.0818 -0.1327
  872MOL0     H17675   5.670  10.490   2.941 -0.3427 -0.4653  0.1902
  872MOL0     H17676   5.596  10.274   2.893  1.1887 -1.6910 -0.6286
  872MOL0     H17677   5.654  10.276   2.727 -0.2640  0.3636 -0.0024
  872MOL0     H17678   5.495  10.423   2.655 -1.3174 -1.8036 -0.5178
  872MOL0     H17679   5.455  10.487   2.820 -1.6237 -0.4023  0.4972
  872MOL0     H17680   5.308  10.502   2.601  1.0255 -0.2922  0.1845
  872MOL0     H17681   5.151  10.676   2.543 -0.4672 -0.8145 -0.4194
  872MOL0     H17682   5.077  10.564   2.431 -0.3216 -1.3292 -0.2092
  872MOL0     H17683   4.972  10.648   2.539 -0.5903 -0.6921 -2.5724
  872MOL0     H17684   4.631  10.611   2.708 -0.8593  0.6202 -0.7467
  872MOL0     H17685   4.384  10.644   2.690  0.8859  1.0556  0.2761
  872MOL0     H17686   4.222  10.614   2.286  0.9131  1.6630  2.2020
  872MOL0     H17687   4.154  10.470   2.364  1.7355  0.2994 -1.0094
  872MOL0     H17688   4.076  10.761   2.413  4.2197 -1.6564 -0.1686
  872MOL0     H17689   3.989  10.672   2.303  0.2678  1.9144  1.2911
  872MOL0     H17690   3.995  10.592   2.593 -1.4926  2.8999  0.6109
  872MOL0     H17691   3.919  10.499   2.473  0.1298 -0.6164  1.1797
  872MOL0     H17692   3.883  10.774   2.589 -0.4323  1.2115 -1.3367
  872MOL0     H17693   3.800  10.736   2.434 -2.8880 -1.9357  0.0511
  872MOL0     H17694   3.658  10.706   2.650  1.1096  0.8222 -0.2099
  872MOL0     H17695   3.780  10.578   2.689  0.2915 -0.8471 -0.3739
  872MOL0     H17696   3.717  10.452   2.486 -3.8677 -2.3501 -1.5631
  872MOL0     H17697   3.583  10.478   2.598  0.8089  3.0080  3.4671
  872MOL0     H17698   3.645  10.610   2.338  0.2751  1.5404  0.9715
  872MOL0     H17699   3.525  10.683   2.450 -0.8865 -0.0840  0.5717
  872MOL0     H17700   3.401  10.556   2.282 -2.3481  0.0553  1.5729
  872MOL0     H17701   3.386  10.489   2.441  0.5922  2.2307  0.9545
  872MOL0     H17702   4.398  10.476   2.295 -1.3159 -0.4328  0.1659
  872MOL0     H17703   4.656  10.454   2.314  0.9871  4.1571 -2.0711
  872MOL0     H17704   4.944  10.247   2.818 -0.2026 -0.0849  0.0931
  872MOL0     H17705   5.190  10.213   2.878  1.4291 -1.0533 -0.9572
  872MOL0     H17706   6.827   9.537   2.658  1.9925 -1.2426 -0.0222
  872MOL0     H17707   7.060   9.507   2.633 -1.5333  0.1359 -2.0882
  872MOL0     H17708   7.399   9.908   2.595 -0.1411 -1.1892  3.3102
  872MOL0     H17709   7.619   9.982   2.612  0.5701 -0.5056  0.8470
  872MOL0     H17710   7.866   9.709   2.676 -1.1125  0.2697 -0.9418
  872MOL0     H17711   8.017   9.774   2.587 -0.8312 -2.0794 -1.3484
  872MOL0     H17712   7.814   9.898   2.789 -1.6059  0.4706 -1.9536
  872MOL0     H17713   7.910  10.003   2.687  0.2522  1.0275  1.6537
  872MOL0     H17714   8.049  10.007   2.861 -1.3277  0.6450 -1.8719
  872MOL0     H17715   8.116   9.873   2.774 -1.5053 -1.1662 -1.8275
  872MOL0     H17716   7.960   9.708   2.917 -1.6208  1.8977 -0.0264
  872MOL0     H17717   7.927   9.848   3.019 -2.2403 -0.7987 -1.2657
  872MOL0     H17718   8.319   9.773   3.153  0.6503 -2.1960 -0.9156
  872MOL0     H17719   7.757   9.597   2.455 -1.1847 -0.7744  1.3769
  872MOL0     H17720   7.533   9.516   2.478 -0.0130 -0.0666 -0.6466
  873MOL0     O17721   6.564  10.250   6.057  0.4620  0.3977  0.2789
  873MOL0     C17722   6.515  10.137   6.031 -0.2621  0.0974  0.1712
  873MOL0     O17723   6.576  10.019   6.023  0.1214 -0.3838 -0.2889
  873MOL0     C17724   6.707  10.003   6.031  0.0894 -0.9584 -1.0022
  873MOL0     C17725   6.750   9.899   5.956  0.1506  0.1973  0.0217
  873MOL0     C17726   6.886   9.875   5.936 -1.0307  0.9026 -0.4331
  873MOL0     C17727   6.981   9.961   5.996  0.4667 -0.2501  0.0301
  873MOL0     O17728   7.118   9.952   5.983 -0.1332 -0.1514 -0.1302
  873MOL0     C17729   7.161   9.924   5.846  0.4825 -0.0356 -0.0092
  873MOL0     C17730   7.315   9.925   5.839 -0.3016  0.9353  0.0833
  873MOL0     C17731   7.357  10.069   5.873 -0.1697 -0.6544 -0.2357
  873MOL0     C17732   7.510  10.081   5.883 -0.1925  0.6269  0.0694
  873MOL0     C17733   7.548  10.227   5.896  0.8224  0.2480  0.0502
  873MOL0     C17734   7.689  10.240   5.935 -0.5241 -0.2778 -0.1916
  873MOL0     C17735   7.719  10.382   5.993 -0.8583 -0.1919  0.8076
  873MOL0     C17736   7.697  10.498   5.891 -0.4188  0.2940  0.1772
  873MOL0     N17737   7.780  10.511   5.772 -0.3471  1.0093 -0.3841
  873MOL0     C17738   7.886  10.595   5.762 -0.8597 -0.5939  0.1481
  873MOL0     C17739   7.956  10.558   5.652 -0.1183 -0.4403  0.6518
  873MOL0     C17740   8.081  10.624   5.598 -0.6016 -0.0203  0.5984
  873MOL0     C17741   8.199  10.527   5.594 -0.6859 -0.1143 -0.2801
  873MOL0     C17742   8.321  10.574   5.520  0.1962 -0.4890 -0.1695
  873MOL0     C17743   8.400  10.681   5.586 -0.5990 -0.4343  0.1098
  873MOL0     O17744   8.448  10.631   5.706 -0.0154  0.2830 -0.0291
  873MOL0     C17745   8.536  10.703   5.773 -0.7990 -0.5923 -0.9955
  873MOL0     C17746   8.577  10.650   5.889 -0.1037 -0.0692 -0.1249
  873MOL0     C17747   8.684  10.704   5.964 -0.8212 -0.1618  0.1947
  873MOL0     C17748   8.716  10.611   6.083  0.1435 -0.1664 -0.3847
  873MOL0     C17749   8.745  10.826   5.921 -0.5295 -0.3189  0.0609
  873MOL0     C17750   8.857  10.881   6.006 -1.1940 -0.3301  0.2043
  873MOL0     O17751   8.898  11.004   5.957 -1.1551 -0.4570 -0.0662
  873MOL0     C17752   9.013  11.074   5.997 -0.5417 -1.1766 -0.0468
  873MOL0     C17753   9.106  11.030   6.092  0.0605 -0.2376 -0.8961
  873MOL0     C17754   9.222  11.104   6.128 -0.0194 -0.0327  0.6906
  873MOL0     C17755   9.249  11.226   6.071 -0.6675  0.2391  0.5016
  873MOL0     O17756   9.363  11.289   6.110 -0.2165 -0.6910  0.4321
  873MOL0     C17757   9.385  11.422   6.057 -0.2506  0.4553  0.3318
  873MOL0     C17758   9.521  11.447   6.126  0.5159  0.1270 -0.0961
  873MOL0     C17759   9.501  11.498   6.274 -0.4233  0.1954 -0.1057
  873MOL0     C17760   9.626  11.551   6.344  0.1684  0.4172  0.9744
  873MOL0     C17761   9.594  11.624   6.480  0.0074  0.1079  0.1102
  873MOL0     C17762   9.725  11.674   6.537  0.5030 -0.0423  0.3753
  873MOL0     C17763   9.689  11.735   6.674 -0.7443 -0.0470 -0.2550
  873MOL0     C17764   9.814  11.774   6.752  0.1716 -0.0057 -1.6863
  873MOL0    Cl17765   9.745  11.867   6.891  0.0856 -0.1386  0.1373
  873MOL0     C17766   9.151  11.281   5.980  0.2691  0.0938 -0.3725
  873MOL0     C17767   9.038  11.203   5.939 -0.0536  0.5552  0.5935
  873MOL0     O17768   8.895  10.827   6.113  0.4913  0.3420 -0.8045
  873MOL0     C17769   8.694  10.894   5.809 -0.2659  0.6360 -0.1296
  873MOL0     C17770   8.593  10.826   5.730 -0.3511  0.1802  0.4508
  873MOL0     N17771   7.894  10.446   5.595  0.9743  0.4206  0.4517
  873MOL0     N17772   7.790  10.418   5.665  0.1878  0.0200 -0.3836
  873MOL0     C17773   6.933  10.067   6.077 -0.1697  0.3982 -0.6092
  873MOL0     C17774   6.795  10.087   6.102 -0.5628 -0.5853 -0.2247
  873MOL0     C17775   6.373  10.143   5.985 -1.3754  0.1432 -0.1388
  873MOL0     C17776   6.287  10.260   5.977 -0.3616 -0.8644  0.4107
  873MOL0     C17777   6.155  10.254   5.944 -0.8259  0.1650 -0.0143
  873MOL0     C17778   6.098  10.129   5.926 -0.4906  0.7394 -0.0535
  873MOL0     O17779   5.971  10.123   5.872 -0.8588  0.1095  0.5211
  873MOL0     C17780   5.927  10.239   5.804  0.3552 -0.2427  0.7932
  873MOL0     C17781   5.794  10.224   5.730 -1.1465  0.1649  0.3095
  873MOL0     C17782   5.683  10.185   5.820  0.3019 -0.1391  0.0906
  873MOL0     C17783   5.542  10.176   5.752  0.3396 -0.0995 -0.3863
  873MOL0     C17784   5.497  10.311   5.707 -0.9516 -0.1700 -0.3365
  873MOL0     C17785   5.478  10.425   5.662 -0.3963  0.4749 -0.3569
  873MOL0     C17786   6.175  10.017   5.920  0.5879 -0.1191  0.6758
  873MOL0     C17787   6.308  10.022   5.951  0.1489 -0.6457 -0.0374
  873MOL0     H17788   6.679   9.839   5.899  0.1209  0.2916 -0.0396
  873MOL0     H17789   6.906   9.794   5.867 -2.1814 -2.1460  2.5221
  873MOL0     H17790   7.128   9.822   5.827 -0.0941  0.0392  0.5362
  873MOL0     H17791   7.116  10.000   5.781  1.9344  1.0175  0.1687
  873MOL0     H17792   7.359   9.859   5.913 -0.4051  0.8823  0.0974
  873MOL0     H17793   7.349   9.896   5.739  0.3121  1.6159  0.0830
  873MOL0     H17794   7.326  10.142   5.798  0.4716  1.8325  1.7750
  873MOL0     H17795   7.308  10.103   5.965  2.7661  0.5745  0.9662
  873MOL0     H17796   7.540  10.023   5.971  0.4497 -0.0784 -0.5996
  873MOL0     H17797   7.561  10.031   5.800 -2.1638  0.6477 -1.2180
  873MOL0     H17798   7.530  10.268   5.797  1.9583  0.5433 -0.0489
  873MOL0     H17799   7.482  10.279   5.967 -0.4799 -0.9346 -0.2576
  873MOL0     H17800   7.715  10.180   6.023  0.4201  1.6907  0.9451
  873MOL0     H17801   7.754  10.217   5.850  0.7801  0.1708  0.6586
  873MOL0     H17802   7.652  10.400   6.078 -0.8033  0.7703  0.6523
  873MOL0     H17803   7.817  10.373   6.042 -0.8155 -2.3151  0.4239
  873MOL0     H17804   7.700  10.594   5.943 -0.6890 -1.3407  3.4962
  873MOL0     H17805   7.598  10.487   5.848  0.0231 -0.0697 -0.7607
  873MOL0     H17806   7.913  10.673   5.833  3.9141 -1.4453 -0.3795
  873MOL0     H17807   8.064  10.666   5.498  1.4933  1.7377  0.9266
  873MOL0     H17808   8.097  10.710   5.664  0.9365 -0.8175  1.3012
  873MOL0     H17809   8.161  10.439   5.542  0.6109 -0.2030 -1.1214
  873MOL0     H17810   8.235  10.505   5.695  0.0277  0.0928 -0.4779
  873MOL0     H17811   8.298  10.607   5.419  2.8281 -0.0734 -0.6899
  873MOL0     H17812   8.385  10.485   5.511 -0.1667 -0.6995 -0.7314
  873MOL0     H17813   8.334  10.768   5.598 -0.4622 -0.1850 -0.8778
  873MOL0     H17814   8.482  10.702   5.517  0.0336 -0.7225  0.7669
  873MOL0     H17815   8.520  10.560   5.912 -2.9939  2.2522  2.8438
  873MOL0     H17816   8.701  10.663   6.178  0.5590  1.3453 -1.1125
  873MOL0     H17817   8.653  10.522   6.080 -1.1232  0.7228 -1.8096
  873MOL0     H17818   8.817  10.569   6.080 -0.4126 -1.5076 -1.7230
  873MOL0     H17819   9.080  10.941   6.150 -2.4894  0.4675 -0.8448
  873MOL0     H17820   9.286  11.063   6.206 -1.2641 -3.7279 -0.0192
  873MOL0     H17821   9.403  11.430   5.950 -0.7247  1.6481  0.3229
  873MOL0     H17822   9.306  11.493   6.083 -1.4134 -0.6147 -0.2055
  873MOL0     H17823   9.577  11.353   6.126  1.7995  0.8722 -0.5081
  873MOL0     H17824   9.574  11.517   6.062  0.0802  1.1700  0.6467
  873MOL0     H17825   9.462  11.417   6.336 -2.5799  0.7769 -0.6214
  873MOL0     H17826   9.421  11.572   6.273 -1.8168 -1.2181  1.2292
  873MOL0     H17827   9.695  11.470   6.368 -0.2783  0.6839  3.5115
  873MOL0     H17828   9.683  11.620   6.281  1.1660 -1.6919 -0.5207
  873MOL0     H17829   9.544  11.556   6.549 -0.4581  1.5087  1.2316
  873MOL0     H17830   9.528  11.710   6.466 -0.6228 -0.0545  1.8296
  873MOL0     H17831   9.791  11.589   6.552 -2.0253 -1.9471  1.4492
  873MOL0     H17832   9.753  11.751   6.464 -2.0844  0.8349  0.1823
  873MOL0     H17833   9.642  11.665   6.743  0.9417  0.1743  1.1797
  873MOL0     H17834   9.626  11.824   6.663  2.3236  2.5651  1.3983
  873MOL0     H17835   9.889  11.834   6.699  1.9942 -1.7606 -1.2443
  873MOL0     H17836   9.871  11.687   6.785  0.2858 -0.1320 -2.1997
  873MOL0     H17837   9.170  11.384   5.951 -0.4246 -0.3257 -2.4714
  873MOL0     H17838   8.979  11.247   5.859 -0.3730 -1.1409 -0.1583
  873MOL0     H17839   8.728  10.993   5.779 -0.7579  1.8483  2.9166
  873MOL0     H17840   8.561  10.881   5.642 -1.4016  5.1404  3.5000
  873MOL0     H17841   7.009  10.126   6.128  0.8839 -2.4658  1.4281
  873MOL0     H17842   6.763  10.167   6.169 -1.0668 -1.6688  0.8540
  873MOL0     H17843   6.333  10.354   6.006  0.3531  0.0501 -3.1507
  873MOL0     H17844   6.121  10.357   5.937  0.4339  0.9041  3.1188
  873MOL0     H17845   5.916  10.324   5.872  0.9369 -1.4898  2.5361
  873MOL0     H17846   6.000  10.269   5.728  0.4097 -1.9592  0.1341
  873MOL0     H17847   5.795  10.146   5.653 -0.0778  0.3859  0.0757
  873MOL0     H17848   5.780  10.321   5.680 -0.8156  1.5497  2.7244
  873MOL0     H17849   5.676  10.264   5.895  0.1557 -1.2354  1.2514
  873MOL0     H17850   5.711  10.095   5.875 -0.6112 -1.2824 -1.2412
  873MOL0     H17851   5.471  10.133   5.824 -1.6206  2.7261 -0.4410
  873MOL0     H17852   5.530  10.109   5.667 -2.5434  1.2830 -1.1991
  873MOL0     H17853   5.463  10.525   5.626  3.9622  0.5519 -2.5554
  873MOL0     H17854   6.122   9.926   5.894  0.7472 -0.3138  1.0245
  873MOL0     H17855   6.358   9.927   5.933 -0.6781 -0.6555 -2.7396
  874MOL0     O17856   5.651   2.286   3.191 -0.1613 -0.0799 -0.3183
  874MOL0     C17857   5.685   2.234   3.085  0.4358  0.2981  0.3563
  874MOL0     O17858   5.608   2.236   2.969 -0.3419 -0.4331  0.8842
  874MOL0     C17859   5.476   2.274   2.957  0.1099  0.3805 -0.2918
  874MOL0     C17860   5.438   2.323   2.837 -0.2280  0.3756  0.8079
  874MOL0     C17861   5.317   2.381   2.811  1.3654 -0.2762  0.6883
  874MOL0     C17862   5.221   2.392   2.910 -0.2453 -0.5414  0.0456
  874MOL0     O17863   5.108   2.460   2.875  0.4796  0.0350 -0.0397
  874MOL0     C17864   4.978   2.403   2.905 -0.3992 -0.1048 -0.4376
  874MOL0     C17865   4.886   2.513   2.954 -0.3959 -0.4460 -0.1506
  874MOL0     C17866   4.736   2.479   2.964 -0.0437 -0.0628  0.5397
  874MOL0     C17867   4.674   2.404   2.843  0.0641 -0.0013 -0.1311
  874MOL0     C17868   4.701   2.466   2.709  0.7889 -0.1792 -0.4431
  874MOL0     C17869   4.656   2.376   2.600  0.2537 -0.0261 -0.0600
  874MOL0     C17870   4.672   2.438   2.462  0.5493 -0.2463  0.6552
  874MOL0     C17871   4.642   2.348   2.341 -0.3370  0.5539  0.0333
  874MOL0     N17872   4.495   2.307   2.341 -0.0676  0.1908  0.0433
  874MOL0     C17873   4.382   2.388   2.345 -0.2863 -0.5321 -0.3195
  874MOL0     C17874   4.275   2.307   2.332  0.0436 -1.1955  0.1277
  874MOL0     C17875   4.132   2.327   2.300 -0.5482  0.0210  1.0167
  874MOL0     C17876   4.041   2.236   2.387 -0.3684 -0.1790  1.5002
  874MOL0     C17877   3.888   2.255   2.356 -0.4876  0.1717  0.8732
  874MOL0     C17878   3.799   2.235   2.487  0.5627  0.6782 -0.2519
  874MOL0     O17879   3.668   2.270   2.480 -0.0603  0.2407  0.2449
  874MOL0     C17880   3.579   2.186   2.418  0.1534 -0.0157  0.3096
  874MOL0     C17881   3.605   2.069   2.345  0.8073 -0.2605  0.5181
  874MOL0     C17882   3.491   1.995   2.289 -0.4335 -0.1406 -0.7437
  874MOL0     C17883   3.508   1.871   2.200 -0.9421 -0.4484 -0.0064
  874MOL0     C17884   3.365   2.046   2.305 -0.1038 -0.3129 -0.2222
  874MOL0     C17885   3.247   1.988   2.232 -0.7616 -1.0814 -0.3147
  874MOL0     O17886   3.151   1.935   2.312 -0.3345 -0.4155 -0.0834
  874MOL0     C17887   3.028   1.909   2.258 -0.2480  0.7261 -0.5510
  874MOL0     C17888   2.998   1.775   2.234 -0.1423  0.2577  0.1684
  874MOL0     C17889   2.879   1.743   2.171 -0.9410 -0.6654  0.3360
  874MOL0     C17890   2.790   1.839   2.129 -0.2799  0.1687 -0.1490
  874MOL0     O17891   2.675   1.796   2.066  0.2643 -0.5499 -1.3907
  874MOL0     C17892   2.607   1.879   1.983  0.1349 -0.1593 -0.5494
  874MOL0     C17893   2.507   1.793   1.911  0.5927  0.1640 -0.3093
  874MOL0     C17894   2.387   1.894   1.868 -0.5126  0.1739  0.6161
  874MOL0     C17895   2.430   2.006   1.771 -0.1841  0.7087  0.4519
  874MOL0     C17896   2.314   2.091   1.747  0.2915  0.4032  0.5098
  874MOL0     C17897   2.355   2.214   1.662  0.1953  0.5027 -0.2991
  874MOL0     C17898   2.264   2.336   1.671  1.0755  0.1125 -0.6325
  874MOL0     C17899   2.331   2.456   1.738 -0.1677 -0.2217  0.3837
  874MOL0    Cl17900   2.316   2.455   1.913 -0.0307  0.1564  0.0634
  874MOL0     C17901   2.818   1.973   2.157 -0.5553  0.3495 -0.9346
  874MOL0     C17902   2.937   2.009   2.221 -0.7989 -0.5975  0.0879
  874MOL0     O17903   3.235   2.013   2.113  0.5490 -0.0735  0.8273
  874MOL0     C17904   3.341   2.154   2.388 -0.2256 -0.4619  0.8681
  874MOL0     C17905   3.443   2.221   2.446  0.5931  0.0780 -0.0249
  874MOL0     N17906   4.329   2.177   2.330 -0.1604  0.8418 -0.1582
  874MOL0     N17907   4.460   2.179   2.335  0.1815  1.0845  0.0175
  874MOL0     C17908   5.248   2.333   3.034 -0.8296  0.3232 -0.7532
  874MOL0     C17909   5.372   2.276   3.054  0.9049  0.3567 -0.4152
  874MOL0     C17910   5.823   2.181   3.072  0.1608  0.7419 -0.1882
  874MOL0     C17911   5.920   2.204   3.173  0.4973  0.0198 -0.2933
  874MOL0     C17912   6.038   2.143   3.164 -0.1644 -0.0607  0.4455
  874MOL0     C17913   6.083   2.069   3.049 -0.8946 -0.4842 -0.3033
  874MOL0     O17914   6.205   2.003   3.048 -0.4003  0.2551 -0.5687
  874MOL0     C17915   6.302   2.063   3.136 -0.1479  0.0344  0.2355
  874MOL0     C17916   6.448   2.029   3.094  0.4823  0.0946  0.5595
  874MOL0     C17917   6.480   2.086   2.948 -0.1109 -0.6338  0.4192
  874MOL0     C17918   6.471   2.242   2.944  0.1242 -0.1651 -0.2536
  874MOL0     C17919   6.567   2.309   3.025  1.3865  0.0741 -0.3134
  874MOL0     C17920   6.658   2.358   3.087  0.4025  0.3220 -0.5013
  874MOL0     C17921   5.988   2.057   2.946 -0.9090  0.3752  0.1771
  874MOL0     C17922   5.859   2.108   2.951  0.1384 -0.4519 -0.3736
  874MOL0     H17923   5.513   2.328   2.759  0.4761 -3.4355  1.0247
  874MOL0     H17924   5.285   2.426   2.717 -4.3442 -1.4906  1.6896
  874MOL0     H17925   4.957   2.358   2.808  2.0507 -0.1354 -1.0233
  874MOL0     H17926   4.986   2.319   2.974  1.8360 -0.9387 -1.6058
  874MOL0     H17927   4.922   2.556   3.048  1.1149 -0.3069 -0.7604
  874MOL0     H17928   4.897   2.592   2.880 -0.7462 -0.5123 -0.2748
  874MOL0     H17929   4.711   2.424   3.055 -1.1322  0.2948  0.4777
  874MOL0     H17930   4.674   2.570   2.969 -0.1840 -0.0579 -0.8271
  874MOL0     H17931   4.714   2.302   2.842  2.1205  0.6265  2.9765
  874MOL0     H17932   4.565   2.391   2.848 -0.6866  3.7769 -2.6844
  874MOL0     H17933   4.645   2.560   2.713 -0.6007 -1.0184  1.2174
  874MOL0     H17934   4.809   2.482   2.695  0.9133 -0.8641 -0.2951
  874MOL0     H17935   4.717   2.285   2.594 -2.0519 -1.6158 -1.5718
  874MOL0     H17936   4.549   2.352   2.609 -0.0575  1.6896  1.3684
  874MOL0     H17937   4.591   2.512   2.461  1.2539  0.5383  0.5037
  874MOL0     H17938   4.768   2.490   2.463  2.1780 -2.9384  3.5005
  874MOL0     H17939   4.712   2.265   2.348 -0.0153  0.9632  4.7421
  874MOL0     H17940   4.660   2.398   2.245 -0.3221 -0.3562 -0.4469
  874MOL0     H17941   4.371   2.495   2.355  2.2293 -0.2156 -0.4278
  874MOL0     H17942   4.105   2.429   2.330  1.6223  1.2860 -1.0162
  874MOL0     H17943   4.109   2.328   2.194 -1.4887  2.9925  1.1503
  874MOL0     H17944   4.060   2.270   2.489  2.0530  0.4498  0.9016
  874MOL0     H17945   4.066   2.130   2.377 -2.4527 -0.6554  0.7077
  874MOL0     H17946   3.856   2.185   2.279 -1.3794  1.3543  0.1474
  874MOL0     H17947   3.873   2.353   2.311  1.0008 -0.7311 -1.7743
  874MOL0     H17948   3.839   2.303   2.564 -0.4568  1.2194 -0.1877
  874MOL0     H17949   3.794   2.132   2.521 -3.0901 -0.7339 -4.1789
  874MOL0     H17950   3.705   2.041   2.315  0.5148 -1.7946  0.8737
  874MOL0     H17951   3.606   1.824   2.213 -1.8761 -2.3850  0.3869
  874MOL0     H17952   3.431   1.798   2.224  0.2075 -0.9242  2.5756
  874MOL0     H17953   3.502   1.904   2.096 -0.1992  3.0825  0.9265
  874MOL0     H17954   3.067   1.699   2.269 -0.5536  1.0821  3.0506
  874MOL0     H17955   2.862   1.644   2.131 -2.5244 -0.8755  1.4467
  874MOL0     H17956   2.548   1.943   2.050  1.6419 -1.1385  1.8277
  874MOL0     H17957   2.664   1.945   1.916  2.4043 -0.6369  0.8285
  874MOL0     H17958   2.546   1.730   1.831  2.0390  0.1108  0.4037
  874MOL0     H17959   2.471   1.731   1.993  0.9604  0.0281 -0.2448
  874MOL0     H17960   2.348   1.946   1.956 -0.2892  0.1798  0.7137
  874MOL0     H17961   2.309   1.833   1.823  1.0188 -4.0242  3.0311
  874MOL0     H17962   2.509   2.059   1.825 -0.5609  0.2196  1.5140
  874MOL0     H17963   2.466   1.954   1.681 -0.2283  1.9032 -0.2727
  874MOL0     H17964   2.291   2.122   1.849 -0.5897 -0.2525  0.5250
  874MOL0     H17965   2.226   2.046   1.699  1.4630 -1.7515  0.2904
  874MOL0     H17966   2.459   2.246   1.673 -0.3877  3.1504 -1.7608
  874MOL0     H17967   2.359   2.180   1.558 -1.0175 -0.9217  0.0799
  874MOL0     H17968   2.173   2.324   1.730  1.5879 -1.8829 -0.1591
  874MOL0     H17969   2.235   2.365   1.570 -0.8377 -1.9460 -0.7588
  874MOL0     H17970   2.298   2.556   1.708  2.9839  0.9846  0.5248
  874MOL0     H17971   2.437   2.464   1.712 -0.4815 -1.0885 -1.3461
  874MOL0     H17972   2.749   2.041   2.107 -0.9177 -0.1205 -1.0785
  874MOL0     H17973   2.954   2.115   2.238 -0.5126 -0.2746 -1.9363
  874MOL0     H17974   3.241   2.195   2.395  0.8824  2.4520  1.3473
  874MOL0     H17975   3.423   2.313   2.499 -2.9090 -0.4975 -0.1280
  874MOL0     H17976   5.165   2.313   3.101  0.4474  0.8048  1.0527
  874MOL0     H17977   5.379   2.226   3.150 -1.8202  2.0269  0.7806
  874MOL0     H17978   5.879   2.254   3.260  1.8614  1.0689 -0.2219
  874MOL0     H17979   6.096   2.159   3.255  0.2586  1.0186  0.0156
  874MOL0     H17980   6.288   2.172   3.137 -2.2454 -0.1460 -1.9461
  874MOL0     H17981   6.296   2.018   3.236 -1.7492  0.4874  0.3715
  874MOL0     H17982   6.474   1.923   3.097  1.3936  0.3007  0.3496
  874MOL0     H17983   6.508   2.076   3.172  0.9626 -1.1464  0.9731
  874MOL0     H17984   6.401   2.039   2.888 -2.1017  1.8184  0.9683
  874MOL0     H17985   6.582   2.064   2.914 -0.4058 -1.5915  0.1220
  874MOL0     H17986   6.364   2.264   2.957 -0.0575 -0.4509 -1.1762
  874MOL0     H17987   6.488   2.274   2.841 -0.0999 -1.5775 -0.7491
  874MOL0     H17988   6.746   2.386   3.141  1.9788 -2.1365 -1.6413
  874MOL0     H17989   6.024   1.988   2.870  1.0856 -0.5986  1.9042
  874MOL0     H17990   5.789   2.095   2.869  1.2160 -0.4013 -1.3113
  875MOL0     O17991  10.492   7.708   3.126  0.4556  0.1188 -0.0525
  875MOL0     C17992  10.500   7.686   3.247 -0.0800 -0.5941 -0.1670
  875MOL0     O17993  10.406   7.623   3.327  0.5520  0.1107 -0.3196
  875MOL0     C17994  10.276   7.636   3.290 -0.0683  0.7855  0.3256
  875MOL0     C17995  10.200   7.742   3.342 -0.2162  0.5257  0.6810
  875MOL0     C17996  10.060   7.749   3.305 -0.6570 -0.5269 -0.0049
  875MOL0     C17997  10.012   7.666   3.204  0.1258 -0.0504 -0.5176
  875MOL0     O17998   9.891   7.685   3.141 -0.0678 -0.6493  0.1245
  875MOL0     C17999   9.808   7.806   3.186  0.7626 -0.1728  0.7717
  875MOL0     C18000   9.673   7.768   3.119  1.0404  0.4063 -0.4781
  875MOL0     C18001   9.573   7.889   3.132 -0.6554  0.2163  0.5280
  875MOL0     C18002   9.544   7.920   3.280 -0.0379 -0.3461  0.2215
  875MOL0     C18003   9.418   8.004   3.326 -0.1420  0.7178  0.1242
  875MOL0     C18004   9.287   7.925   3.296  0.3886 -0.1976  0.2363
  875MOL0     C18005   9.167   7.994   3.336  0.6500  0.1955  1.3123
  875MOL0     C18006   9.048   7.891   3.312  0.1763 -0.2428  0.1826
  875MOL0     N18007   8.983   7.895   3.174  0.2637 -0.7196 -0.4633
  875MOL0     C18008   8.935   8.005   3.106  0.7075  1.0575  0.1210
  875MOL0     C18009   8.897   7.957   2.982  0.2087 -0.5543 -0.0458
  875MOL0     C18010   8.837   8.049   2.872 -0.0594  0.6058 -0.0524
  875MOL0     C18011   8.717   7.972   2.812  0.6621 -0.5999 -0.1283
  875MOL0     C18012   8.641   8.067   2.712  0.3673  0.2889 -0.6239
  875MOL0     C18013   8.497   8.013   2.689 -0.8322 -0.7153 -0.2184
  875MOL0     O18014   8.439   8.123   2.619 -0.1229  0.0375  0.7169
  875MOL0     C18015   8.328   8.099   2.550 -0.3838  0.2357  0.3944
  875MOL0     C18016   8.236   8.001   2.591  0.0405 -0.3208 -0.3621
  875MOL0     C18017   8.117   7.979   2.523  0.4219 -0.4308  0.6718
  875MOL0     C18018   8.029   7.867   2.573 -0.9956 -0.3621 -0.4831
  875MOL0     C18019   8.098   8.051   2.398  0.1745  0.9609  0.1589
  875MOL0     C18020   7.987   8.023   2.306  0.0763  0.2143  0.0865
  875MOL0     O18021   7.870   8.093   2.323 -0.5263  0.6116  0.3489
  875MOL0     C18022   7.747   8.064   2.265 -0.7702 -0.7680  0.6807
  875MOL0     C18023   7.637   8.131   2.315 -0.5705 -0.3634 -0.4834
  875MOL0     C18024   7.514   8.103   2.265  0.7628  0.0334  0.4025
  875MOL0     C18025   7.490   8.015   2.152  0.6890  0.3819  0.3150
  875MOL0     O18026   7.359   8.013   2.108  0.3472  0.2880  0.2269
  875MOL0     C18027   7.303   7.896   2.037  0.1413  0.3153  0.0372
  875MOL0     C18028   7.168   7.924   1.982 -0.5182 -0.7950 -0.7140
  875MOL0     C18029   7.059   7.908   2.092  0.2735 -0.8511 -0.3750
  875MOL0     C18030   6.921   7.925   2.036  0.1602 -0.2455  0.7260
  875MOL0     C18031   6.825   7.888   2.142 -0.8287  0.2139  0.5405
  875MOL0     C18032   6.684   7.889   2.086  0.5591  0.5593  0.2283
  875MOL0     C18033   6.580   7.906   2.199  0.3064  0.2310 -0.2715
  875MOL0     C18034   6.545   7.777   2.278 -0.0553 -0.0911 -0.1015
  875MOL0    Cl18035   6.419   7.818   2.399 -0.0384  0.1883 -0.1056
  875MOL0     C18036   7.600   7.956   2.097  1.1980  0.7158  1.2424
  875MOL0     C18037   7.727   7.982   2.148 -0.3436 -0.1752 -0.3856
  875MOL0     O18038   8.010   7.948   2.206 -0.1262 -1.5137 -0.2937
  875MOL0     C18039   8.181   8.160   2.371 -0.4561 -0.5664 -0.0310
  875MOL0     C18040   8.293   8.179   2.449 -0.1853 -0.5428  0.0221
  875MOL0     N18041   8.921   7.823   2.985 -0.3620  0.3566  0.0009
  875MOL0     N18042   8.983   7.789   3.095 -0.0144  0.4708  0.3650
  875MOL0     C18043  10.095   7.556   3.167  0.5510 -0.2527  0.2505
  875MOL0     C18044  10.225   7.535   3.209  0.3925 -1.1278  0.1610
  875MOL0     C18045  10.629   7.715   3.314 -0.0374 -0.3716 -0.0636
  875MOL0     C18046  10.669   7.656   3.438 -0.3215 -0.1941 -0.0438
  875MOL0     C18047  10.782   7.688   3.508 -0.9591  0.2984 -1.0622
  875MOL0     C18048  10.863   7.792   3.455  0.1931  0.0183 -0.8133
  875MOL0     O18049  10.970   7.851   3.516  0.0181  0.5488 -0.6494
  875MOL0     C18050  10.980   7.815   3.654 -0.0894  0.1664  0.1369
  875MOL0     C18051  11.103   7.871   3.716 -0.0622 -0.8301  0.0689
  875MOL0     C18052  11.120   7.838   3.864  0.0816  0.4430 -0.2649
  875MOL0     C18053  11.245   7.885   3.925  0.1643 -0.8167  0.2430
  875MOL0     C18054  11.370   7.836   3.867 -0.2784 -0.1174 -1.0824
  875MOL0     C18055  11.484   7.818   3.812 -0.0842 -0.7380 -0.9316
  875MOL0     C18056  10.834   7.848   3.332  0.4962  0.5090 -0.4876
  875MOL0     C18057  10.720   7.805   3.259  1.2365 -0.5141 -0.1023
  875MOL0     H18058  10.252   7.812   3.406  0.7122  0.4288  0.0503
  875MOL0     H18059  10.000   7.832   3.342  1.1927  0.4501  0.9358
  875MOL0     H18060   9.792   7.806   3.294 -0.1379 -1.3832  0.6552
  875MOL0     H18061   9.857   7.896   3.148  2.5857 -0.6474  1.8666
  875MOL0     H18062   9.688   7.742   3.014 -0.0731 -2.4524 -0.0425
  875MOL0     H18063   9.631   7.678   3.166  1.1843  0.8195  0.4668
  875MOL0     H18064   9.620   7.973   3.079 -2.9862  1.7385  0.7224
  875MOL0     H18065   9.489   7.868   3.066  0.7012  0.1034 -1.2321
  875MOL0     H18066   9.549   7.822   3.328 -0.0702  1.2235  3.7388
  875MOL0     H18067   9.628   7.972   3.326 -0.9141 -0.9077  2.6202
  875MOL0     H18068   9.431   8.016   3.434  0.7996  0.8975  0.0008
  875MOL0     H18069   9.434   8.105   3.285  1.6336  0.3097 -0.2404
  875MOL0     H18070   9.278   7.914   3.188 -2.4755  0.8001  0.2956
  875MOL0     H18071   9.284   7.830   3.349 -0.9219  1.0457  2.5549
  875MOL0     H18072   9.167   8.021   3.442 -3.2667  1.8817  1.0116
  875MOL0     H18073   9.161   8.084   3.276 -0.6669 -2.0665 -2.2739
  875MOL0     H18074   8.977   7.917   3.390  0.5399  0.7172  0.2071
  875MOL0     H18075   9.082   7.788   3.329  1.1951 -0.3699 -2.1676
  875MOL0     H18076   8.925   8.106   3.144  0.7715  0.7544  0.9826
  875MOL0     H18077   8.784   8.132   2.918 -0.3771 -0.5662  1.8460
  875MOL0     H18078   8.903   8.092   2.797 -0.0723  4.6942  2.0189
  875MOL0     H18079   8.647   7.952   2.893 -1.6778  0.4722 -1.7915
  875MOL0     H18080   8.734   7.873   2.767 -1.1326 -0.4448 -1.2479
  875MOL0     H18081   8.692   8.086   2.617 -0.1230  0.1428 -0.9194
  875MOL0     H18082   8.628   8.167   2.754 -0.1351  0.5945 -1.4788
  875MOL0     H18083   8.447   7.993   2.785 -1.4574 -0.2063 -0.4357
  875MOL0     H18084   8.511   7.921   2.632  0.9791 -0.1651 -0.7192
  875MOL0     H18085   8.266   7.926   2.664  0.7222 -0.0301 -0.3370
  875MOL0     H18086   8.078   7.775   2.538  1.6725  2.2137 -4.3213
  875MOL0     H18087   8.027   7.881   2.681  3.8153 -1.1678 -0.0609
  875MOL0     H18088   7.929   7.877   2.528 -1.4946  1.6982  0.9614
  875MOL0     H18089   7.642   8.208   2.392  0.1736  0.2561 -1.1419
  875MOL0     H18090   7.424   8.149   2.304 -1.6349 -2.0773 -2.2400
  875MOL0     H18091   7.364   7.869   1.950 -2.8490  0.2789 -2.2219
  875MOL0     H18092   7.294   7.806   2.098 -1.8975  0.5687  0.1645
  875MOL0     H18093   7.157   8.016   1.926  0.2965 -0.6187 -0.5935
  875MOL0     H18094   7.155   7.835   1.919  0.3909 -1.6702  0.2778
  875MOL0     H18095   7.065   7.985   2.170  1.9057 -2.8021  1.5420
  875MOL0     H18096   7.083   7.812   2.138 -0.4998 -1.5323 -1.3644
  875MOL0     H18097   6.913   8.029   2.005  1.8050 -0.0643  0.7986
  875MOL0     H18098   6.911   7.860   1.949 -1.2064  0.5451  0.2649
  875MOL0     H18099   6.824   7.961   2.224 -2.3911 -0.6263  1.3209
  875MOL0     H18100   6.848   7.789   2.180 -2.0411 -1.2217 -2.1718
  875MOL0     H18101   6.678   7.973   2.016  1.2386  0.0307 -0.4806
  875MOL0     H18102   6.651   7.804   2.025 -0.4938  2.3401 -1.7934
  875MOL0     H18103   6.497   7.955   2.148 -1.1886 -0.1354  1.7194
  875MOL0     H18104   6.626   7.979   2.266  1.7543 -0.7241 -0.1710
  875MOL0     H18105   6.633   7.739   2.331  0.5360 -1.8334 -2.1719
  875MOL0     H18106   6.506   7.708   2.202 -1.2357  1.3390 -0.8486
  875MOL0     H18107   7.589   7.889   2.012 -0.9046  1.0158  1.2410
  875MOL0     H18108   7.817   7.935   2.109  0.3357  0.6595  0.1212
  875MOL0     H18109   8.171   8.231   2.290  3.5730 -0.8968 -1.0224
  875MOL0     H18110   8.358   8.256   2.409 -0.2911 -0.5958 -0.2600
  875MOL0     H18111  10.058   7.481   3.098  4.4802  0.4093 -3.0428
  875MOL0     H18112  10.290   7.459   3.166 -0.2871 -0.4975 -2.1066
  875MOL0     H18113  10.616   7.568   3.473 -1.2341  0.7377  1.0194
  875MOL0     H18114  10.815   7.620   3.587 -0.9388 -0.7087 -1.9141
  875MOL0     H18115  10.890   7.855   3.700 -0.5117 -0.7280  0.1128
  875MOL0     H18116  10.991   7.707   3.666  0.9877  0.5103  3.1070
  875MOL0     H18117  11.102   7.980   3.712  1.8015 -0.8331 -1.9105
  875MOL0     H18118  11.186   7.835   3.656  1.7252  2.1878  0.5640
  875MOL0     H18119  11.115   7.730   3.872 -0.4170  0.3177 -1.8901
  875MOL0     H18120  11.040   7.894   3.913 -0.1276  2.3253 -2.5782
  875MOL0     H18121  11.244   7.849   4.029 -2.4988 -0.0092  0.5799
  875MOL0     H18122  11.241   7.994   3.929  0.8317 -0.7185 -1.2405
  875MOL0     H18123  11.582   7.831   3.772  0.1233  0.1511 -0.1547
  875MOL0     H18124  10.906   7.921   3.296  2.5108 -1.5886 -0.9392
  875MOL0     H18125  10.708   7.863   3.168  0.5300 -0.8311 -0.2215
  876MOL0     O18126   5.305   7.960   9.317 -0.3243 -0.1183  0.4695
  876MOL0     C18127   5.406   7.957   9.392  0.9558 -1.0061 -0.6995
  876MOL0     O18128   5.450   7.849   9.457  0.0574  0.4270  0.0907
  876MOL0     C18129   5.401   7.726   9.425  0.2559 -0.3092 -0.3626
  876MOL0     C18130   5.264   7.706   9.437  0.0901  0.5988 -0.4062
  876MOL0     C18131   5.208   7.575   9.433  1.4094  0.3882 -0.1541
  876MOL0     C18132   5.289   7.466   9.425 -0.0962  0.6373  0.0350
  876MOL0     O18133   5.234   7.345   9.425  0.6873 -0.3546 -0.7804
  876MOL0     C18134   5.304   7.232   9.373 -0.2755 -0.1640 -0.2807
  876MOL0     C18135   5.215   7.136   9.299 -0.3826 -0.5756  0.2364
  876MOL0     C18136   5.137   7.214   9.192 -0.7549 -0.8025 -0.3437
  876MOL0     C18137   5.023   7.128   9.146 -0.0047  0.3380  0.9351
  876MOL0     C18138   4.894   7.140   9.231  0.0240 -0.0460  0.7615
  876MOL0     C18139   4.826   7.279   9.233  0.0079 -0.1525  0.2626
  876MOL0     C18140   4.685   7.260   9.297 -1.0441 -0.6531  0.2405
  876MOL0     C18141   4.588   7.380   9.270  0.8483  0.0396  0.0632
  876MOL0     N18142   4.631   7.499   9.346  0.3487 -0.4697 -0.3361
  876MOL0     C18143   4.743   7.577   9.329  0.1140  0.8078 -0.4700
  876MOL0     C18144   4.739   7.671   9.421  0.0509 -0.5340 -0.4059
  876MOL0     C18145   4.834   7.786   9.436  0.5952  0.0890 -0.5956
  876MOL0     C18146   4.869   7.861   9.309 -0.1830  0.3938 -0.3243
  876MOL0     C18147   4.989   7.950   9.325 -0.2168  0.1817  0.5007
  876MOL0     C18148   4.966   8.078   9.251  0.6029 -0.2021  0.3970
  876MOL0     O18149   4.832   8.136   9.275 -0.4169  0.0947 -0.1360
  876MOL0     C18150   4.795   8.243   9.198  0.7587  0.5116 -0.1998
  876MOL0     C18151   4.682   8.311   9.256  1.0418 -0.2336  0.8538
  876MOL0     C18152   4.612   8.421   9.189 -0.0086 -0.1206  0.6058
  876MOL0     C18153   4.492   8.481   9.259 -0.7849 -0.4471  0.0599
  876MOL0     C18154   4.668   8.475   9.078 -0.7992  0.4226 -0.2051
  876MOL0     C18155   4.613   8.601   9.013 -0.3837 -0.1862 -0.4607
  876MOL0     O18156   4.703   8.683   8.950 -0.1713  0.3824 -0.0252
  876MOL0     C18157   4.671   8.804   8.902  0.4208  0.0552  0.0535
  876MOL0     C18158   4.586   8.884   8.974 -0.0212 -1.3076 -0.5578
  876MOL0     C18159   4.562   9.013   8.933 -0.4575 -0.0227 -0.5478
  876MOL0     C18160   4.618   9.062   8.820  0.0276  0.3740  0.2279
  876MOL0     O18161   4.562   9.179   8.775 -0.5842  0.0008 -0.0398
  876MOL0     C18162   4.451   9.168   8.688  0.3937 -0.4116 -0.1684
  876MOL0     C18163   4.360   9.290   8.709 -0.1922  0.5805  0.4340
  876MOL0     C18164   4.279   9.286   8.838  0.3948  0.2996  0.1477
  876MOL0     C18165   4.209   9.416   8.882 -0.3770 -0.1448 -0.1078
  876MOL0     C18166   4.130   9.402   9.018 -0.0343 -0.0818 -0.5979
  876MOL0     C18167   4.096   9.544   9.060  0.5520 -0.6035 -0.1351
  876MOL0     C18168   3.990   9.548   9.169 -0.1260  0.2396  0.7498
  876MOL0     C18169   3.889   9.666   9.166 -0.5614 -0.1503 -0.2409
  876MOL0    Cl18170   3.801   9.674   9.003  0.0882 -0.3847 -0.2419
  876MOL0     C18171   4.704   8.982   8.749 -0.5685  0.0834 -0.6996
  876MOL0     C18172   4.725   8.848   8.788 -1.2037 -0.0494  1.0640
  876MOL0     O18173   4.494   8.617   9.001  0.7462  0.0656 -0.6501
  876MOL0     C18174   4.774   8.411   9.012 -0.6224  0.3431 -1.0291
  876MOL0     C18175   4.834   8.297   9.070  0.0246  1.1532  0.1363
  876MOL0     N18176   4.639   7.639   9.511 -0.7845  0.3703 -0.0314
  876MOL0     N18177   4.575   7.530   9.473 -0.9047 -0.9327 -0.1882
  876MOL0     C18178   5.435   7.485   9.426  0.0168  0.0320  0.0937
  876MOL0     C18179   5.485   7.615   9.429 -0.7083  0.0628  0.2594
  876MOL0     C18180   5.477   8.080   9.429 -0.1760 -0.0562 -0.1044
  876MOL0     C18181   5.612   8.077   9.462 -0.2973 -0.2364 -0.1762
  876MOL0     C18182   5.685   8.193   9.495  0.1499  1.3928  0.3189
  876MOL0     C18183   5.626   8.316   9.498 -0.3495  0.3800  1.2038
  876MOL0     O18184   5.701   8.422   9.535  0.1957 -0.4529 -0.5646
  876MOL0     C18185   5.688   8.542   9.473 -0.1281  0.2024 -0.3544
  876MOL0     C18186   5.810   8.627   9.504 -0.0247  0.2401 -0.2001
  876MOL0     C18187   5.798   8.772   9.456 -0.2103 -1.3607 -0.2966
  876MOL0     C18188   5.910   8.855   9.513  0.4872  0.1739 -0.3555
  876MOL0     C18189   5.880   8.998   9.531 -0.4711  0.7765  0.5533
  876MOL0     C18190   5.847   9.109   9.563 -0.4041 -0.0897 -0.0333
  876MOL0     C18191   5.499   8.319   9.441 -0.1626 -0.2929 -0.0624
  876MOL0     C18192   5.423   8.204   9.406 -1.0974  0.1061 -0.1365
  876MOL0     H18193   5.204   7.796   9.452  1.2913  1.6801 -1.8402
  876MOL0     H18194   5.102   7.557   9.447  1.8598 -2.2285  0.6215
  876MOL0     H18195   5.385   7.266   9.307  0.2150 -0.2744  0.2522
  876MOL0     H18196   5.355   7.172   9.448  1.5434 -0.1049 -1.3975
  876MOL0     H18197   5.269   7.059   9.244 -2.6436 -1.9933 -0.1257
  876MOL0     H18198   5.149   7.092   9.375 -0.5519  0.0911  0.4916
  876MOL0     H18199   5.100   7.308   9.235  2.6601  0.6991 -0.3254
  876MOL0     H18200   5.214   7.240   9.118 -0.6372  1.0079  0.3477
  876MOL0     H18201   4.995   7.143   9.041 -3.7865  1.7272  1.9694
  876MOL0     H18202   5.062   7.025   9.144 -1.1622 -0.1302 -1.6140
  876MOL0     H18203   4.840   7.052   9.196  2.8531 -1.3705 -0.5905
  876MOL0     H18204   4.924   7.116   9.334  0.0876  0.6302  0.9065
  876MOL0     H18205   4.875   7.357   9.291 -1.4923  1.0180  0.0351
  876MOL0     H18206   4.826   7.302   9.126  3.8123  2.2610  0.6119
  876MOL0     H18207   4.628   7.173   9.263 -1.3102 -0.3002 -0.2184
  876MOL0     H18208   4.702   7.252   9.405 -0.7491 -0.8087  0.1846
  876MOL0     H18209   4.483   7.353   9.289  1.4224 -2.7000 -0.2510
  876MOL0     H18210   4.573   7.415   9.167 -0.9196 -0.7796 -0.0091
  876MOL0     H18211   4.798   7.577   9.235  0.5116  3.1433 -0.2996
  876MOL0     H18212   4.794   7.860   9.506  1.3030 -0.8210  0.8084
  876MOL0     H18213   4.923   7.746   9.485  1.0199  0.2143 -1.2600
  876MOL0     H18214   4.778   7.919   9.296  1.6429  3.2435 -1.4008
  876MOL0     H18215   4.876   7.791   9.225 -1.4260 -2.4515  1.7709
  876MOL0     H18216   5.068   7.891   9.276 -1.3724 -0.3836 -0.7514
  876MOL0     H18217   5.015   7.965   9.430 -1.0215  0.3199  0.6831
  876MOL0     H18218   4.978   8.060   9.143 -4.5548  0.0373 -0.5067
  876MOL0     H18219   5.030   8.157   9.290 -2.6479  2.1505  1.4076
  876MOL0     H18220   4.636   8.273   9.347 -2.7105 -1.1687 -1.2030
  876MOL0     H18221   4.410   8.484   9.187  1.1448 -1.0642 -2.3060
  876MOL0     H18222   4.468   8.425   9.349  0.4471 -1.9004 -0.4805
  876MOL0     H18223   4.504   8.584   9.295 -2.7480 -0.8857  2.2072
  876MOL0     H18224   4.544   8.850   9.068 -1.6393  1.0024 -0.3766
  876MOL0     H18225   4.491   9.079   8.982 -0.0625  1.9789 -2.5174
  876MOL0     H18226   4.492   9.155   8.587  3.3709 -1.5778  1.0613
  876MOL0     H18227   4.397   9.078   8.721 -3.2099  1.2268 -1.1377
  876MOL0     H18228   4.411   9.384   8.686 -0.4349  0.7406  0.5475
  876MOL0     H18229   4.289   9.289   8.625 -1.5667  0.5343  1.5613
  876MOL0     H18230   4.340   9.255   8.923  0.0603  0.6512  0.5154
  876MOL0     H18231   4.203   9.208   8.824  3.0834 -2.1425 -2.2807
  876MOL0     H18232   4.280   9.499   8.886 -2.6346  1.9211 -0.0652
  876MOL0     H18233   4.140   9.445   8.801 -0.2533 -0.3647 -0.2932
  876MOL0     H18234   4.200   9.356   9.088 -0.2291 -1.1003 -1.0528
  876MOL0     H18235   4.038   9.343   9.007  1.0807 -1.7154 -1.5532
  876MOL0     H18236   4.177   9.613   9.086 -0.4788  0.8049 -0.5700
  876MOL0     H18237   4.048   9.590   8.973 -1.3544 -1.4196  0.4197
  876MOL0     H18238   4.040   9.546   9.266  1.7311 -0.2198 -0.1603
  876MOL0     H18239   3.923   9.461   9.167 -1.1155  0.9800  1.2116
  876MOL0     H18240   3.938   9.759   9.196 -2.2714  0.0173  2.3299
  876MOL0     H18241   3.806   9.660   9.237 -2.4196  2.0791 -2.0690
  876MOL0     H18242   4.747   9.026   8.659 -2.6386  1.7760 -0.9305
  876MOL0     H18243   4.791   8.781   8.732 -2.1233 -1.1492  1.2716
  876MOL0     H18244   4.814   8.453   8.920 -0.9130  2.0765 -0.4122
  876MOL0     H18245   4.908   8.244   9.011 -0.9317 -2.1367  1.7044
  876MOL0     H18246   5.494   7.394   9.431 -2.3064 -1.5618  0.0735
  876MOL0     H18247   5.590   7.641   9.429 -0.7297  0.1782  0.9964
  876MOL0     H18248   5.667   7.985   9.477 -2.2993 -1.1812  1.9284
  876MOL0     H18249   5.786   8.184   9.535  0.2570 -0.2484 -0.2559
  876MOL0     H18250   5.679   8.535   9.364  0.2313 -0.4360 -0.3460
  876MOL0     H18251   5.600   8.588   9.518 -0.7164 -2.2941  1.1782
  876MOL0     H18252   5.896   8.577   9.458 -1.8090 -2.4322 -0.8613
  876MOL0     H18253   5.822   8.627   9.613  5.1190  0.6282 -0.4921
  876MOL0     H18254   5.704   8.813   9.493  1.2247  1.1040  0.8799
  876MOL0     H18255   5.788   8.792   9.349 -1.5416  3.0667  0.4668
  876MOL0     H18256   5.991   8.842   9.440 -1.0160  0.1938 -2.1041
  876MOL0     H18257   5.954   8.810   9.603 -0.2648  1.9485  0.9541
  876MOL0     H18258   5.827   9.207   9.600 -0.3558 -0.5498  1.2416
  876MOL0     H18259   5.441   8.411   9.441  1.8809  1.0735  0.9839
  876MOL0     H18260   5.326   8.226   9.364 -1.5880 -2.9171 -0.7856
  877MOL0     O18261   5.995   1.687   5.132 -0.0313  0.0876  0.0282
  877MOL0     C18262   6.007   1.745   5.236  0.3964  0.2492  0.0398
  877MOL0     O18263   5.896   1.781   5.309  0.2274 -0.7990 -0.2098
  877MOL0     C18264   5.775   1.738   5.256  0.3087 -0.0580 -0.2937
  877MOL0     C18265   5.714   1.631   5.322  0.9812 -0.6646  0.4818
  877MOL0     C18266   5.589   1.593   5.272  0.1178  0.0505 -0.7721
  877MOL0     C18267   5.526   1.653   5.166  0.3982 -0.0447  0.8922
  877MOL0     O18268   5.393   1.633   5.140 -0.0994  0.6996 -0.3032
  877MOL0     C18269   5.303   1.671   5.237  0.3738 -0.1702 -0.0760
  877MOL0     C18270   5.165   1.618   5.174 -0.1593 -0.3270 -0.1196
  877MOL0     C18271   5.122   1.681   5.039 -0.1408 -0.1323  0.3305
  877MOL0     C18272   4.996   1.637   4.981  0.6893  0.1819 -0.4810
  877MOL0     C18273   4.975   1.690   4.831  0.1512  0.6012  0.1692
  877MOL0     C18274   4.910   1.830   4.834 -0.9100 -0.4387 -0.0856
  877MOL0     C18275   4.856   1.873   4.696  0.5687  0.1172  0.0442
  877MOL0     C18276   4.721   1.814   4.674 -0.0189 -0.0769  0.2421
  877MOL0     N18277   4.617   1.895   4.739  0.3338 -0.3635 -0.3471
  877MOL0     C18278   4.564   2.011   4.674  0.6672 -1.3662 -0.7347
  877MOL0     C18279   4.454   2.036   4.746 -0.0552 -0.5627 -0.0179
  877MOL0     C18280   4.349   2.136   4.692  0.4975 -0.1782 -0.5506
  877MOL0     C18281   4.214   2.128   4.771 -0.1954 -0.0754  0.1633
  877MOL0     C18282   4.139   2.005   4.743 -0.1154 -0.7993 -0.0914
  877MOL0     C18283   4.010   1.991   4.830  0.5221 -0.3932  0.3886
  877MOL0     O18284   3.910   2.078   4.767 -0.3109  0.1118 -0.1110
  877MOL0     C18285   3.791   2.123   4.820 -0.1455  0.9995  0.4640
  877MOL0     C18286   3.741   2.068   4.940 -0.2108 -0.4104 -0.4746
  877MOL0     C18287   3.609   2.112   4.985 -0.3123  0.4389 -0.5293
  877MOL0     C18288   3.556   2.058   5.113  0.1485 -0.2573 -0.0977
  877MOL0     C18289   3.529   2.188   4.893 -0.1536  0.4458  0.4228
  877MOL0     C18290   3.391   2.210   4.914  0.0188 -0.2608 -0.2511
  877MOL0     O18291   3.309   2.164   4.821 -0.3797 -0.2129  1.0731
  877MOL0     C18292   3.177   2.195   4.832  0.5161  1.0591 -0.3674
  877MOL0     C18293   3.090   2.091   4.853  0.2635  0.1326  0.4092
  877MOL0     C18294   2.955   2.114   4.853  0.7604 -0.9167  0.2686
  877MOL0     C18295   2.897   2.245   4.845  0.0215 -0.5380  0.3005
  877MOL0     O18296   2.762   2.252   4.871  0.6000  0.1274 -0.1561
  877MOL0     C18297   2.673   2.349   4.803 -0.6091 -0.9913 -0.8064
  877MOL0     C18298   2.636   2.309   4.658 -0.4153 -1.4432  0.4443
  877MOL0     C18299   2.523   2.393   4.584 -0.0809 -0.0967 -0.5466
  877MOL0     C18300   2.382   2.386   4.647 -0.3126 -0.7443  0.4247
  877MOL0     C18301   2.285   2.509   4.617  0.1946  0.2970 -0.5197
  877MOL0     C18302   2.271   2.536   4.465 -0.2561 -0.6045 -0.4533
  877MOL0     C18303   2.206   2.667   4.433 -0.0069  0.1214  0.3301
  877MOL0     C18304   2.065   2.666   4.474 -0.8406 -0.1867  0.4581
  877MOL0    Cl18305   1.974   2.542   4.390  0.2451  0.3084 -0.3310
  877MOL0     C18306   2.986   2.348   4.821 -0.1147 -0.0682 -0.4528
  877MOL0     C18307   3.128   2.324   4.809  0.0731  0.4364 -0.8588
  877MOL0     O18308   3.354   2.277   5.007  0.0454 -0.6755  0.1622
  877MOL0     C18309   3.584   2.227   4.770  0.6818 -1.0365  0.2973
  877MOL0     C18310   3.716   2.207   4.735  0.6200  0.7389 -0.2109
  877MOL0     N18311   4.446   1.939   4.841  0.4191 -0.3442 -0.7284
  877MOL0     N18312   4.538   1.854   4.841  0.1391 -0.1035  0.2156
  877MOL0     C18313   5.594   1.745   5.086  0.0719  0.0381 -0.1742
  877MOL0     C18314   5.716   1.789   5.143 -0.4893 -0.2519  0.4554
  877MOL0     C18315   6.145   1.747   5.307 -0.5211  0.5594 -0.3772
  877MOL0     C18316   6.154   1.768   5.447  0.2221  0.6163 -0.2895
  877MOL0     C18317   6.271   1.770   5.509 -0.2916 -0.4088 -0.8078
  877MOL0     C18318   6.391   1.750   5.436  0.5150  0.2344  0.2056
  877MOL0     O18319   6.507   1.755   5.508 -0.5663  0.2832  0.1914
  877MOL0     C18320   6.634   1.720   5.446 -0.2683 -0.2354  0.5183
  877MOL0     C18321   6.753   1.707   5.545 -0.0148  0.3846 -0.2088
  877MOL0     C18322   6.749   1.811   5.655  0.8138 -1.0306  0.3367
  877MOL0     C18323   6.833   1.779   5.776 -0.3448  0.8125  0.2744
  877MOL0     C18324   6.876   1.896   5.844 -1.1967 -0.3868  0.6109
  877MOL0     C18325   6.894   1.995   5.914  0.1532 -0.2587  0.1411
  877MOL0     C18326   6.383   1.724   5.295  0.2932 -0.4629 -0.2506
  877MOL0     C18327   6.264   1.723   5.235  0.4637 -0.3317  0.0661
  877MOL0     H18328   5.768   1.583   5.403  2.1258  0.8648  0.6753
  877MOL0     H18329   5.534   1.510   5.314  2.5142 -1.8019 -1.0485
  877MOL0     H18330   5.320   1.618   5.332  1.8847 -0.8841 -0.7158
  877MOL0     H18331   5.294   1.778   5.259 -0.7808 -0.5011  1.2731
  877MOL0     H18332   5.163   1.510   5.163 -0.2463 -0.3195 -0.1833
  877MOL0     H18333   5.086   1.646   5.246  0.1876  0.2194  0.0571
  877MOL0     H18334   5.112   1.788   5.060  1.9632  0.3791 -0.9852
  877MOL0     H18335   5.202   1.676   4.965  0.1641  0.4009  0.6148
  877MOL0     H18336   4.970   1.531   4.986 -1.9786  0.6518 -2.1203
  877MOL0     H18337   4.917   1.675   5.046 -2.1135 -4.1207 -0.9451
  877MOL0     H18338   5.071   1.698   4.779 -1.7075  0.1050 -3.7349
  877MOL0     H18339   4.905   1.622   4.782  0.5680  0.8635 -0.8024
  877MOL0     H18340   4.827   1.826   4.905 -0.7524 -0.1906  0.1160
  877MOL0     H18341   4.983   1.907   4.863  3.1412 -2.7877 -3.0263
  877MOL0     H18342   4.853   1.982   4.699 -1.7294  0.3461 -3.5731
  877MOL0     H18343   4.921   1.852   4.610 -1.5075  0.0836 -1.6016
  877MOL0     H18344   4.717   1.712   4.712 -1.6954  0.5094  1.8039
  877MOL0     H18345   4.706   1.810   4.566 -0.6328 -1.3438  0.3615
  877MOL0     H18346   4.588   2.060   4.579  0.6644 -0.1878 -0.1515
  877MOL0     H18347   4.391   2.236   4.706  2.0770 -1.0935  1.7580
  877MOL0     H18348   4.340   2.107   4.587 -1.4755 -1.0847 -0.1765
  877MOL0     H18349   4.147   2.213   4.752 -2.8782 -1.7527  1.5251
  877MOL0     H18350   4.235   2.134   4.878 -2.9331 -0.7519  0.8069
  877MOL0     H18351   4.205   1.919   4.759  0.7645 -0.3952 -1.3924
  877MOL0     H18352   4.107   1.998   4.638 -1.4742  2.9358 -0.0580
  877MOL0     H18353   4.023   2.024   4.934 -0.5412 -3.5630  1.6339
  877MOL0     H18354   3.982   1.886   4.834 -1.3270  0.0888  1.0422
  877MOL0     H18355   3.793   1.989   4.994  0.6919  0.2750 -0.3079
  877MOL0     H18356   3.546   2.141   5.184 -1.8091  0.7954 -1.5100
  877MOL0     H18357   3.453   2.025   5.093 -0.1910 -0.0314  1.1833
  877MOL0     H18358   3.610   1.976   5.160  0.0089 -0.9081 -1.0514
  877MOL0     H18359   3.117   1.986   4.854  2.6294  0.6715  0.5627
  877MOL0     H18360   2.880   2.038   4.869  0.4468 -0.9965 -1.3656
  877MOL0     H18361   2.581   2.350   4.862  1.0211  0.6006  1.9325
  877MOL0     H18362   2.706   2.452   4.815 -1.1214 -0.9845  0.7265
  877MOL0     H18363   2.724   2.339   4.600 -0.7657  1.4492  1.2253
  877MOL0     H18364   2.615   2.202   4.651 -1.6140 -1.0965 -3.4003
  877MOL0     H18365   2.509   2.345   4.486 -0.6998 -1.9801  0.3994
  877MOL0     H18366   2.555   2.496   4.574  0.3942 -0.0145  1.4445
  877MOL0     H18367   2.329   2.298   4.609  0.2548 -0.4147 -1.1695
  877MOL0     H18368   2.375   2.376   4.756 -4.2959  0.2544  0.4379
  877MOL0     H18369   2.329   2.594   4.671  1.1022  0.1724 -1.0427
  877MOL0     H18370   2.189   2.492   4.667  1.8175 -2.3778  2.0205
  877MOL0     H18371   2.365   2.536   4.409 -0.0469  5.4346 -0.7973
  877MOL0     H18372   2.218   2.451   4.422  0.1515 -1.8740  1.4494
  877MOL0     H18373   2.229   2.692   4.329  2.0095  1.4778  1.0351
  877MOL0     H18374   2.266   2.743   4.485  0.6185  0.8655 -1.3977
  877MOL0     H18375   2.019   2.760   4.443 -0.8763 -0.4469 -0.2808
  877MOL0     H18376   2.062   2.650   4.583  3.0578 -5.0778  0.2584
  877MOL0     H18377   2.951   2.450   4.809 -1.5953 -0.3813  0.8856
  877MOL0     H18378   3.201   2.401   4.789  1.1104 -0.5609 -0.9951
  877MOL0     H18379   3.521   2.270   4.693  1.3736 -0.0510  0.2630
  877MOL0     H18380   3.759   2.212   4.635  1.2835 -1.0013 -0.0586
  877MOL0     H18381   5.551   1.792   4.999  0.7827  0.5087 -0.2813
  877MOL0     H18382   5.777   1.857   5.083 -0.8755  0.0710  0.4234
  877MOL0     H18383   6.062   1.771   5.504 -0.0344  0.8788 -0.7086
  877MOL0     H18384   6.270   1.775   5.617 -2.7024 -0.9649 -0.7451
  877MOL0     H18385   6.626   1.627   5.390 -0.9198  1.1009 -1.7567
  877MOL0     H18386   6.656   1.799   5.373 -0.4397 -0.3300  0.3642
  877MOL0     H18387   6.849   1.711   5.495 -0.6345  1.9709 -1.3441
  877MOL0     H18388   6.746   1.610   5.594 -2.7323  0.1288 -0.9191
  877MOL0     H18389   6.646   1.825   5.688  0.5101  0.9207 -1.2887
  877MOL0     H18390   6.779   1.909   5.619 -0.3329 -0.3509  1.1679
  877MOL0     H18391   6.927   1.731   5.749  0.3680  1.5481  1.3816
  877MOL0     H18392   6.774   1.723   5.849 -4.2010  1.5586 -1.9574
  877MOL0     H18393   6.923   2.087   5.960  1.6404 -0.5420 -0.1844
  877MOL0     H18394   6.472   1.711   5.233 -0.0897 -1.0032 -0.6920
  877MOL0     H18395   6.257   1.707   5.128 -2.6688 -2.4661  0.4397
  878MOL0     O18396   4.503   2.742   0.983  0.0611 -0.0440  0.3620
  878MOL0     C18397   4.564   2.790   0.888  0.7339  0.2355  0.1192
  878MOL0     O18398   4.507   2.849   0.789 -0.4163  0.4864  0.1727
  878MOL0     C18399   4.368   2.841   0.787 -0.6035  0.1291  0.0071
  878MOL0     C18400   4.304   2.745   0.706  0.5766  0.1652 -0.4750
  878MOL0     C18401   4.167   2.750   0.692  0.1674  0.4649  0.3833
  878MOL0     C18402   4.086   2.839   0.756 -1.3282  0.6187 -0.2001
  878MOL0     O18403   3.957   2.820   0.740  0.2630  0.0273  0.0869
  878MOL0     C18404   3.878   2.939   0.721  0.2863  0.1804 -0.3234
  878MOL0     C18405   3.746   2.881   0.661 -0.2209 -0.8811  0.4218
  878MOL0     C18406   3.764   2.813   0.523 -0.6317  0.0651 -0.1125
  878MOL0     C18407   3.629   2.752   0.486  0.1074  0.5610 -0.0502
  878MOL0     C18408   3.653   2.680   0.352  0.7009 -0.1327 -0.0619
  878MOL0     C18409   3.523   2.612   0.292 -0.5063  0.1600  0.0674
  878MOL0     C18410   3.539   2.566   0.144 -0.5783 -0.4792  0.1605
  878MOL0     C18411   3.511   2.674   0.046 -0.4242 -0.0582  1.0635
  878MOL0     N18412   3.367   2.722   0.047 -0.1426  0.1800 -0.5663
  878MOL0     C18413   3.333   2.853   0.060 -0.1052 -0.7684  0.6245
  878MOL0     C18414   3.192   2.853   0.047  1.1023  0.4421  0.9298
  878MOL0     C18415   3.084   2.951   0.078 -0.0430  0.4301  0.1344
  878MOL0     C18416   2.990   2.910   0.189  0.5362 -0.0594 -0.0108
  878MOL0     C18417   2.869   2.835   0.124 -0.4671 -0.1510 -0.0512
  878MOL0     C18418   2.765   2.796   0.219 -0.4327  0.2884 -0.3929
  878MOL0     O18419   2.686   2.912   0.248  0.1281 -0.2252 -0.2375
  878MOL0     C18420   2.577   2.888   0.333  0.0375  0.0734 -0.3012
  878MOL0     C18421   2.587   2.812   0.447 -0.2841  0.2225  0.1646
  878MOL0     C18422   2.473   2.789   0.521  0.0513 -0.3838 -0.3170
  878MOL0     C18423   2.489   2.690   0.631 -0.1021  0.3910  0.5020
  878MOL0     C18424   2.347   2.856   0.488 -0.0618  0.1302 -0.1889
  878MOL0     C18425   2.217   2.834   0.556  0.6102 -0.2623 -0.6468
  878MOL0     O18426   2.110   2.884   0.492 -0.0803 -0.3247  0.1522
  878MOL0     C18427   1.981   2.854   0.536  0.0445 -0.2804  0.3282
  878MOL0     C18428   1.892   2.954   0.521  0.5455  0.5690 -0.2181
  878MOL0     C18429   1.756   2.934   0.556 -0.2742  0.7186  0.0114
  878MOL0     C18430   1.711   2.808   0.601 -0.1674  0.3079  0.3015
  878MOL0     O18431   1.581   2.802   0.627  0.0287  0.5680 -0.7355
  878MOL0     C18432   1.550   2.732   0.749  0.9464 -0.1674  0.9014
  878MOL0     C18433   1.408   2.676   0.736 -0.7042 -0.0956  0.1764
  878MOL0     C18434   1.359   2.635   0.867 -0.0472  0.6898 -0.6633
  878MOL0     C18435   1.336   2.734   0.984  0.1460  0.0768  0.0649
  878MOL0     C18436   1.284   2.668   1.108  0.1634 -0.1422 -0.6054
  878MOL0     C18437   1.141   2.706   1.153  0.1013 -0.2378  0.9982
  878MOL0     C18438   1.116   2.643   1.287  0.4104  0.5099  0.6138
  878MOL0     C18439   1.010   2.728   1.359 -0.0492 -0.0263  0.8856
  878MOL0    Cl18440   0.864   2.731   1.270  0.3343  0.2198 -0.1638
  878MOL0     C18441   1.805   2.706   0.610 -0.2727  0.9742 -0.2449
  878MOL0     C18442   1.938   2.728   0.576 -0.3730  0.1224  0.4756
  878MOL0     O18443   2.210   2.773   0.662 -0.0379 -0.2876 -0.3854
  878MOL0     C18444   2.348   2.942   0.370 -0.3802  0.5454 -0.1751
  878MOL0     C18445   2.461   2.965   0.296 -0.0797  1.1910  0.3918
  878MOL0     N18446   3.152   2.719   0.028  0.1543 -0.2468  0.3564
  878MOL0     N18447   3.263   2.648   0.012 -0.8161  1.5801 -0.2821
  878MOL0     C18448   4.142   2.937   0.840 -0.4995  0.0738 -0.2617
  878MOL0     C18449   4.286   2.944   0.846 -0.1259  0.0698 -0.1380
  878MOL0     C18450   4.705   2.791   0.889 -0.7877  0.6181 -0.1939
  878MOL0     C18451   4.771   2.889   0.815  0.1631 -0.8069  0.0228
  878MOL0     C18452   4.906   2.908   0.814  0.3678 -1.0657  0.2432
  878MOL0     C18453   4.988   2.830   0.895  0.3948 -0.5102 -0.1346
  878MOL0     O18454   5.124   2.859   0.906 -0.4891 -0.1100  0.0183
  878MOL0     C18455   5.210   2.769   0.989  0.8137 -0.7153  0.3405
  878MOL0     C18456   5.353   2.801   0.968  0.1035 -0.4417 -0.1871
  878MOL0     C18457   5.405   2.929   1.042 -0.0963 -0.3729  0.1757
  878MOL0     C18458   5.438   2.893   1.184  0.0583 -0.0227 -1.0113
  878MOL0     C18459   5.445   3.023   1.250  0.7891 -0.0033 -1.7750
  878MOL0     C18460   5.454   3.125   1.321  0.1591  1.4693  0.0606
  878MOL0     C18461   4.923   2.731   0.977 -1.0060 -0.0021 -0.6114
  878MOL0     C18462   4.789   2.706   0.970  0.9207  0.1742 -0.3675
  878MOL0     H18463   4.368   2.675   0.654  2.2404  2.4645 -1.7101
  878MOL0     H18464   4.120   2.671   0.634  1.4724  0.0865 -0.2035
  878MOL0     H18465   3.855   2.986   0.817 -0.6730 -1.6444  0.3945
  878MOL0     H18466   3.909   3.017   0.651  0.1374  1.6269  1.1839
  878MOL0     H18467   3.694   2.814   0.730 -3.0285 -1.0339 -1.6850
  878MOL0     H18468   3.683   2.968   0.641  0.2829 -0.2785  1.3396
  878MOL0     H18469   3.790   2.895   0.456  2.6028  0.8690  1.9221
  878MOL0     H18470   3.843   2.737   0.523  0.5417  1.2398  0.7047
  878MOL0     H18471   3.592   2.691   0.569  1.6782 -0.5557 -0.1307
  878MOL0     H18472   3.559   2.833   0.464  2.1966  2.0370 -1.6435
  878MOL0     H18473   3.679   2.760   0.282 -1.0096  0.7178  0.2289
  878MOL0     H18474   3.734   2.607   0.359  1.0638 -0.3357 -4.2171
  878MOL0     H18475   3.516   2.522   0.354 -0.4368 -0.5051 -0.8755
  878MOL0     H18476   3.432   2.671   0.311 -3.5204 -2.4819 -4.3487
  878MOL0     H18477   3.642   2.535   0.125 -0.3356 -0.1039  0.8154
  878MOL0     H18478   3.469   2.485   0.128  0.1544 -0.4825 -4.4220
  878MOL0     H18479   3.518   2.635  -0.056 -0.5911 -1.3078  1.5118
  878MOL0     H18480   3.570   2.764   0.061 -0.7358  0.5277 -0.9107
  878MOL0     H18481   3.396   2.940   0.066  0.7369 -1.2382 -0.9162
  878MOL0     H18482   3.138   3.042   0.106 -0.4041  0.4925  0.6406
  878MOL0     H18483   3.029   2.959  -0.016  0.8353  2.5268 -0.2493
  878MOL0     H18484   2.953   3.002   0.235 -0.2778 -1.2343  1.8278
  878MOL0     H18485   3.050   2.854   0.261  2.2823  3.1745  1.2486
  878MOL0     H18486   2.894   2.736   0.085  0.2754 -1.0599  2.5838
  878MOL0     H18487   2.836   2.891   0.036  2.5081  0.8137 -0.6965
  878MOL0     H18488   2.812   2.766   0.314 -0.4096  0.3569 -0.3825
  878MOL0     H18489   2.698   2.717   0.184 -2.1556  1.5017  0.0124
  878MOL0     H18490   2.679   2.759   0.468 -1.5315 -1.1381  2.5763
  878MOL0     H18491   2.595   2.662   0.638  0.0089  1.1081  2.0974
  878MOL0     H18492   2.468   2.737   0.728  2.3646  1.4285  0.6151
  878MOL0     H18493   2.432   2.597   0.626 -1.3408  1.1168  0.7346
  878MOL0     H18494   1.925   3.047   0.477  0.4889 -0.0367 -1.5681
  878MOL0     H18495   1.694   3.023   0.551 -0.8916  0.2544 -0.6447
  878MOL0     H18496   1.615   2.646   0.771  1.6285 -0.1661 -0.9129
  878MOL0     H18497   1.564   2.808   0.827  0.9865  0.1558  0.5806
  878MOL0     H18498   1.344   2.756   0.698 -1.6493 -0.8835  0.0528
  878MOL0     H18499   1.408   2.596   0.661  3.1179  0.4542 -0.6239
  878MOL0     H18500   1.433   2.563   0.902  0.0980  2.1252  2.2380
  878MOL0     H18501   1.259   2.593   0.857  0.4531 -0.3507 -1.5954
  878MOL0     H18502   1.435   2.776   1.002  0.4958 -1.2455  1.3846
  878MOL0     H18503   1.267   2.812   0.949 -1.5651 -0.2597  2.4786
  878MOL0     H18504   1.341   2.717   1.188 -2.5097  1.9730  0.1707
  878MOL0     H18505   1.304   2.560   1.107 -0.9077 -0.3641  0.0688
  878MOL0     H18506   1.133   2.815   1.144  2.2861 -0.1762 -1.6799
  878MOL0     H18507   1.063   2.664   1.089  0.3517 -0.2827  0.7198
  878MOL0     H18508   1.207   2.633   1.347 -0.2911  0.1920  1.6587
  878MOL0     H18509   1.071   2.545   1.268 -0.7500  0.9365  1.0679
  878MOL0     H18510   1.049   2.824   1.394 -0.0848  1.1075 -1.9294
  878MOL0     H18511   0.990   2.680   1.455 -2.6755 -1.8049 -0.4499
  878MOL0     H18512   1.782   2.606   0.644 -0.0116  1.7546  2.3774
  878MOL0     H18513   2.003   2.642   0.568  0.2231  0.7306 -2.9959
  878MOL0     H18514   2.266   3.006   0.340 -0.2595  0.7597 -0.0496
  878MOL0     H18515   2.469   3.024   0.205  0.5056 -1.7387 -1.6022
  878MOL0     H18516   4.077   3.000   0.900 -0.3297  0.6369 -0.6695
  878MOL0     H18517   4.340   3.016   0.907 -0.4535 -0.1117  0.3721
  878MOL0     H18518   4.709   2.957   0.758 -0.7214 -2.2401 -0.7687
  878MOL0     H18519   4.948   2.995   0.765 -0.2033 -0.6326  0.5041
  878MOL0     H18520   5.180   2.782   1.093  1.0125 -0.5101  0.3744
  878MOL0     H18521   5.192   2.665   0.963 -0.2907 -0.5937  0.5921
  878MOL0     H18522   5.369   2.815   0.861 -2.2042 -1.8528 -0.7748
  878MOL0     H18523   5.405   2.711   1.002 -3.9187 -2.2602  1.8800
  878MOL0     H18524   5.333   3.011   1.040  1.8110  1.3808 -0.1373
  878MOL0     H18525   5.503   2.951   1.000  0.8137 -1.9126  1.3669
  878MOL0     H18526   5.532   2.840   1.197  0.9125  1.1517 -2.1725
  878MOL0     H18527   5.362   2.829   1.231  0.2539  0.4337 -0.0434
  878MOL0     H18528   5.454   3.216   1.378 -1.8413  0.9625  0.9466
  878MOL0     H18529   4.977   2.669   1.047 -1.0934 -0.2056 -0.7238
  878MOL0     H18530   4.730   2.641   1.034 -0.7567  4.1962  2.6016
  879MOL0     O18531   9.385  10.262   9.289 -0.1010 -0.7915 -0.0389
  879MOL0     C18532   9.494  10.291   9.246 -0.4915 -0.1975  0.2940
  879MOL0     O18533   9.526  10.344   9.122  0.6005  0.1023 -0.3491
  879MOL0     C18534   9.432  10.392   9.035  0.1229  0.3242  0.5039
  879MOL0     C18535   9.487  10.437   8.915 -0.3945  0.7057 -0.1741
  879MOL0     C18536   9.403  10.498   8.815 -0.0415 -0.1396  0.6463
  879MOL0     C18537   9.261  10.505   8.835  0.4248 -1.0651  0.9946
  879MOL0     O18538   9.169  10.542   8.732  0.2345  0.0314 -0.5092
  879MOL0     C18539   9.218  10.628   8.625  0.0700  0.4607  0.2591
  879MOL0     C18540   9.088  10.668   8.546  0.1281 -0.2337 -0.6433
  879MOL0     C18541   9.006  10.770   8.614 -0.3123  0.1299 -0.8268
  879MOL0     C18542   8.866  10.795   8.552  0.7950 -0.5187 -0.9436
  879MOL0     C18543   8.800  10.930   8.600 -0.2183  0.1585  0.4724
  879MOL0     C18544   8.647  10.948   8.562  0.0721  0.0725  0.3811
  879MOL0     C18545   8.560  10.857   8.649  0.8811  0.5200  0.0248
  879MOL0     C18546   8.413  10.904   8.668 -0.5443 -0.0235 -0.9394
  879MOL0     N18547   8.331  10.802   8.746 -1.3061 -0.0983  0.3098
  879MOL0     C18548   8.327  10.794   8.881  0.3467 -0.0611 -0.0806
  879MOL0     C18549   8.258  10.682   8.911 -0.2510 -0.3251  0.0429
  879MOL0     C18550   8.241  10.624   9.044  0.3148  0.8315 -0.0811
  879MOL0     C18551   8.211  10.478   9.049  0.7926 -0.4797  0.1166
  879MOL0     C18552   8.175  10.415   9.179 -0.2597  0.1323  0.0259
  879MOL0     C18553   8.035  10.424   9.228  0.4340 -0.0129  0.2166
  879MOL0     O18554   7.969  10.311   9.167  0.1839  0.2123  0.1375
  879MOL0     C18555   7.832  10.317   9.152 -0.7865 -0.1196  0.7667
  879MOL0     C18556   7.743  10.384   9.241  0.6935  0.1930 -0.5956
  879MOL0     C18557   7.604  10.378   9.240 -0.3025  0.4656 -0.2730
  879MOL0     C18558   7.528  10.443   9.359  0.0026  0.1059 -0.4382
  879MOL0     C18559   7.548  10.306   9.129 -0.2889  0.4539  0.4103
  879MOL0     C18560   7.396  10.295   9.115  0.0167  0.9681  0.6356
  879MOL0     O18561   7.343  10.227   9.009 -0.3512 -0.2531 -0.8177
  879MOL0     C18562   7.208  10.253   8.986  0.3844 -0.6009 -0.2818
  879MOL0     C18563   7.106  10.219   9.078 -0.2162  0.6069 -0.4420
  879MOL0     C18564   6.975  10.242   9.051  0.4527 -1.0804 -0.8329
  879MOL0     C18565   6.933  10.298   8.927  0.5884  0.7717 -0.5092
  879MOL0     O18566   6.799  10.295   8.894  0.4362 -0.4340  0.0185
  879MOL0     C18567   6.747  10.378   8.786 -0.6417 -0.6138 -0.2096
  879MOL0     C18568   6.587  10.379   8.789 -0.4624 -0.3359 -0.1811
  879MOL0     C18569   6.527  10.518   8.757 -0.0593  1.1569  0.0373
  879MOL0     C18570   6.369  10.525   8.781  0.3311 -0.4199  0.3603
  879MOL0     C18571   6.302  10.411   8.699  0.3833  0.0072 -0.6542
  879MOL0     C18572   6.154  10.432   8.692 -0.2521 -0.9730 -0.2781
  879MOL0     C18573   6.077  10.321   8.625 -0.2271 -0.2296 -0.1328
  879MOL0     C18574   5.931  10.358   8.643  0.0591  0.4134 -0.0258
  879MOL0    Cl18575   5.894  10.306   8.809 -0.0607 -0.1230  0.4351
  879MOL0     C18576   7.027  10.326   8.833 -0.1213  0.1801  0.2968
  879MOL0     C18577   7.164  10.299   8.863  0.7137 -0.3294 -0.7970
  879MOL0     O18578   7.330  10.368   9.191 -0.7340 -0.1279 -0.3207
  879MOL0     C18579   7.629  10.234   9.047 -0.2242  0.5188  0.6895
  879MOL0     C18580   7.776  10.249   9.047 -0.5175 -0.0597  0.2135
  879MOL0     N18581   8.219  10.625   8.792  0.1705 -0.9578  0.1298
  879MOL0     N18582   8.259  10.700   8.694  0.5125  0.1267  0.8706
  879MOL0     C18583   9.211  10.471   8.959 -0.5735  0.1995 -0.3167
  879MOL0     C18584   9.293  10.407   9.058  0.1298 -0.5128  0.4400
  879MOL0     C18585   9.616  10.248   9.319  0.1944 -0.1701  0.8296
  879MOL0     C18586   9.745  10.245   9.253  0.5668 -0.8288 -0.5600
  879MOL0     C18587   9.864  10.218   9.331  0.4935  0.3897 -0.0897
  879MOL0     C18588   9.848  10.179   9.461  1.0053  0.4036 -0.2501
  879MOL0     O18589   9.949  10.133   9.539 -0.2233 -0.3630 -0.1407
  879MOL0     C18590  10.091  10.145   9.508  0.1966 -1.1257 -0.3577
  879MOL0     C18591  10.174  10.173   9.632  0.2263  0.5265 -0.0699
  879MOL0     C18592  10.196  10.318   9.663 -0.2362  0.0202  0.2513
  879MOL0     C18593  10.283  10.344   9.788  0.5215  0.7112 -0.1036
  879MOL0     C18594  10.414  10.285   9.771 -1.1702  0.5995 -1.1344
  879MOL0     C18595  10.522  10.237   9.759  1.1389  0.3619 -0.3015
  879MOL0     C18596   9.719  10.176   9.520 -0.4318 -0.5956  0.7816
  879MOL0     C18597   9.610  10.216   9.455  0.7097  0.3978  0.7570
  879MOL0     H18598   9.594  10.426   8.901 -0.1785 -3.3044  2.8318
  879MOL0     H18599   9.454  10.515   8.721  3.3234 -2.7325  1.8251
  879MOL0     H18600   9.266  10.717   8.666 -2.1607  1.1029  1.6601
  879MOL0     H18601   9.296  10.578   8.567  0.3182  0.4354  0.6151
  879MOL0     H18602   9.134  10.720   8.461  1.9886 -1.1431 -0.2358
  879MOL0     H18603   9.034  10.583   8.503  1.9609 -1.5862 -0.3899
  879MOL0     H18604   8.989  10.724   8.712  0.2759  3.0554  0.7820
  879MOL0     H18605   9.064  10.863   8.618  3.3927 -2.0227  1.5946
  879MOL0     H18606   8.871  10.809   8.444  1.1117  2.0584 -0.6588
  879MOL0     H18607   8.788  10.720   8.565 -0.4254  1.0693  1.6230
  879MOL0     H18608   8.806  10.943   8.708 -0.6743  0.1105  0.5032
  879MOL0     H18609   8.866  11.004   8.553 -0.1203 -0.2497 -0.0423
  879MOL0     H18610   8.619  11.053   8.574 -1.9920 -0.4067  0.0741
  879MOL0     H18611   8.630  10.922   8.457  1.6931 -0.4046  0.2089
  879MOL0     H18612   8.555  10.757   8.605 -1.5262  0.1649  0.9293
  879MOL0     H18613   8.607  10.848   8.747  1.3970 -1.4398 -0.3631
  879MOL0     H18614   8.382  10.914   8.563 -0.3730 -0.3965 -1.0288
  879MOL0     H18615   8.414  11.000   8.719 -2.1624 -0.2667 -0.3989
  879MOL0     H18616   8.370  10.859   8.957 -1.2165  1.9386 -0.8204
  879MOL0     H18617   8.336  10.641   9.096  0.3646 -2.5495  1.2028
  879MOL0     H18618   8.164  10.682   9.095 -1.4618 -2.0563  0.7588
  879MOL0     H18619   8.296  10.422   9.008 -0.2952 -2.3953  0.3634
  879MOL0     H18620   8.130  10.465   8.976  2.4695 -0.2853 -1.8855
  879MOL0     H18621   8.244  10.454   9.254  0.5890 -1.2814  0.0185
  879MOL0     H18622   8.205  10.310   9.178 -4.2638 -1.1731  0.7751
  879MOL0     H18623   7.994  10.522   9.201 -2.6501 -1.4161 -0.5536
  879MOL0     H18624   8.037  10.429   9.337  0.2855  3.1765  0.1821
  879MOL0     H18625   7.780  10.442   9.325 -0.6597  0.5537 -0.2320
  879MOL0     H18626   7.455  10.380   9.409  0.0819  0.8774  0.6723
  879MOL0     H18627   7.598  10.472   9.438  0.5799 -0.6333 -0.6671
  879MOL0     H18628   7.481  10.532   9.317  3.5624  0.8952 -3.3369
  879MOL0     H18629   7.136  10.200   9.181 -2.2071  0.1895  0.1118
  879MOL0     H18630   6.897  10.208   9.119 -0.6903  0.7063 -1.1834
  879MOL0     H18631   6.780  10.481   8.802 -1.2723 -0.7279  2.2182
  879MOL0     H18632   6.785  10.346   8.688 -2.3704 -1.4295 -0.6492
  879MOL0     H18633   6.550  10.308   8.714 -4.0310  1.1994 -0.0385
  879MOL0     H18634   6.553  10.364   8.892 -0.4834  3.8194  0.6009
  879MOL0     H18635   6.549  10.542   8.653  2.9915 -1.8006 -0.1763
  879MOL0     H18636   6.575  10.590   8.825 -0.8475  2.5041 -0.7959
  879MOL0     H18637   6.341  10.502   8.884 -0.1218  0.6292  0.4840
  879MOL0     H18638   6.348  10.625   8.742 -0.7409 -1.0532 -0.7326
  879MOL0     H18639   6.320  10.309   8.736 -1.2884 -0.7264 -1.7285
  879MOL0     H18640   6.323  10.409   8.592 -0.4594 -0.7742 -0.8201
  879MOL0     H18641   6.113  10.445   8.793  0.6436 -0.4897  0.0366
  879MOL0     H18642   6.144  10.526   8.637  1.6609  0.4624  1.6183
  879MOL0     H18643   6.110  10.224   8.662  2.2029  0.8060  0.6210
  879MOL0     H18644   6.098  10.331   8.518 -3.9281  1.0602 -0.8924
  879MOL0     H18645   5.866  10.309   8.570 -0.3311  0.1652  0.4811
  879MOL0     H18646   5.897  10.461   8.632 -4.4992 -0.9704 -0.8029
  879MOL0     H18647   6.997  10.357   8.733 -1.5616 -1.9674 -0.0046
  879MOL0     H18648   7.219  10.329   8.774  1.5305  2.1461  0.4591
  879MOL0     H18649   7.584  10.165   8.976 -1.1079  2.6556 -0.9136
  879MOL0     H18650   7.841  10.205   8.972 -0.1196  2.5652 -1.1133
  879MOL0     H18651   9.106  10.492   8.981 -0.5048 -0.2455  0.5112
  879MOL0     H18652   9.243  10.381   9.151  1.6079  1.5202  1.9053
  879MOL0     H18653   9.756  10.278   9.150  2.7411  1.0327  0.1855
  879MOL0     H18654   9.959  10.212   9.278 -1.2049 -1.0079 -3.2983
  879MOL0     H18655  10.125  10.048   9.472 -2.0920 -0.8873 -3.6342
  879MOL0     H18656  10.106  10.217   9.427  0.1054  1.3268  1.6631
  879MOL0     H18657  10.270  10.123   9.619 -0.4858 -0.9692  0.2650
  879MOL0     H18658  10.118  10.125   9.712 -2.2861 -0.7842 -2.4589
  879MOL0     H18659  10.094  10.357   9.668 -0.1776  0.2330 -0.1696
  879MOL0     H18660  10.236  10.364   9.572 -1.1296  0.5444  0.1050
  879MOL0     H18661  10.226  10.295   9.868 -0.1759  2.0067  0.2165
  879MOL0     H18662  10.283  10.451   9.810 -2.7530  0.9371 -0.6736
  879MOL0     H18663  10.617  10.189   9.743  0.9503 -1.8259  3.8019
  879MOL0     H18664   9.704  10.154   9.625 -3.6044  0.4155  0.6450
  879MOL0     H18665   9.515  10.227   9.505 -0.5687 -1.1635 -1.1812
  880MOL0     O18666   3.825   2.112  11.116 -0.2096  0.6777  0.2654
  880MOL0     C18667   3.884   2.216  11.092  0.5358  0.8926  1.0392
  880MOL0     O18668   3.822   2.321  11.025 -0.0669 -0.3493  0.4810
  880MOL0     C18669   3.688   2.318  11.008 -0.1412 -0.4089  0.3372
  880MOL0     C18670   3.631   2.241  10.906 -0.6429 -0.2315  0.4204
  880MOL0     C18671   3.489   2.238  10.892 -0.2912 -0.0165 -0.3261
  880MOL0     C18672   3.407   2.298  10.986 -0.0554  0.0687 -0.2316
  880MOL0     O18673   3.267   2.289  10.978  0.2221  0.0615 -0.1296
  880MOL0     C18674   3.186   2.365  11.076 -0.4542  0.2385 -0.1505
  880MOL0     C18675   3.041   2.338  11.062  0.6562  0.8536 -0.0795
  880MOL0     C18676   2.968   2.415  11.165  0.7189  0.1607  0.5988
  880MOL0     C18677   2.948   2.318  11.283  0.8734  0.3877  0.4060
  880MOL0     C18678   2.864   2.370  11.407  0.4228  0.9407  0.3045
  880MOL0     C18679   2.946   2.472  11.493 -0.2276  0.2548  0.0981
  880MOL0     C18680   3.064   2.414  11.568 -0.4592  0.3913 -0.0432
  880MOL0     C18681   3.124   2.515  11.660  0.4057 -0.5277  0.6899
  880MOL0     N18682   3.031   2.547  11.769  0.3330  0.4300 -0.6022
  880MOL0     C18683   3.002   2.471  11.882 -0.0012 -0.4647  1.6428
  880MOL0     C18684   2.924   2.551  11.965  0.0543 -0.1732  0.5968
  880MOL0     C18685   2.872   2.490  12.091  0.0738 -0.1115  0.6122
  880MOL0     C18686   2.798   2.591  12.184  0.1525  0.4257 -0.2026
  880MOL0     C18687   2.758   2.521  12.316 -0.7507  0.1045 -0.0807
  880MOL0     C18688   2.638   2.424  12.301  0.5061 -0.3269 -0.1465
  880MOL0     O18689   2.519   2.500  12.301  0.7439 -0.2907  0.5533
  880MOL0     C18690   2.402   2.437  12.256  0.4384 -0.5579  0.9621
  880MOL0     C18691   2.388   2.295  12.258  0.0968  0.3872  0.1353
  880MOL0     C18692   2.265   2.228  12.222 -0.1841  0.1991 -0.1931
  880MOL0     C18693   2.264   2.080  12.255 -0.9014  0.2118 -0.0123
  880MOL0     C18694   2.151   2.297  12.171  0.0272  0.6968  0.1414
  880MOL0     C18695   2.019   2.238  12.126 -0.5011  1.0105  1.1009
  880MOL0     O18696   1.930   2.301  12.033 -0.7178 -0.8808  0.0123
  880MOL0     C18697   1.797   2.279  12.059  0.3619  0.5622  0.6327
  880MOL0     C18698   1.711   2.223  11.963 -0.6035  0.1910  0.0204
  880MOL0     C18699   1.577   2.205  11.989 -0.0664  0.3736  0.8370
  880MOL0     C18700   1.519   2.222  12.112 -0.2023 -0.1453  0.3062
  880MOL0     O18701   1.392   2.193  12.146  0.2677 -0.1924  0.3013
  880MOL0     C18702   1.336   2.072  12.092  0.2851  0.7703 -0.6838
  880MOL0     C18703   1.196   2.057  12.167  0.0615 -0.9223  0.6616
  880MOL0     C18704   1.123   1.925  12.132  0.1047  0.1207  0.8018
  880MOL0     C18705   1.021   1.890  12.235 -0.1438  0.5836 -0.7684
  880MOL0     C18706   0.905   1.979  12.259  0.4358 -0.4559  0.6892
  880MOL0     C18707   0.816   2.009  12.140 -0.0699 -0.1112  0.6727
  880MOL0     C18708   0.678   2.058  12.181  0.1310 -0.3328 -0.2146
  880MOL0     C18709   0.591   2.111  12.061 -0.3649 -0.4840  0.4115
  880MOL0    Cl18710   0.625   2.000  11.929 -0.3907 -0.3579 -0.3890
  880MOL0     C18711   1.605   2.265  12.214  0.0860  0.3657 -0.5213
  880MOL0     C18712   1.732   2.312  12.184 -0.2190  0.1383  0.2234
  880MOL0     O18713   1.991   2.128  12.174 -0.2355 -0.2635 -0.1152
  880MOL0     C18714   2.161   2.436  12.164 -0.9191  0.6727  0.6224
  880MOL0     C18715   2.290   2.502  12.201  0.6865 -0.5806  0.2716
  880MOL0     N18716   2.890   2.660  11.895 -1.0923  0.5269  0.1478
  880MOL0     N18717   2.949   2.661  11.780 -0.0611 -0.5199  1.2521
  880MOL0     C18718   3.474   2.382  11.078 -0.0466 -0.7512 -0.5475
  880MOL0     C18719   3.606   2.385  11.098 -0.9067  0.2972 -1.0278
  880MOL0     C18720   4.032   2.216  11.125 -0.0153 -0.3971 -0.2975
  880MOL0     C18721   4.098   2.097  11.158  0.3722  0.2850  0.1810
  880MOL0     C18722   4.231   2.096  11.188 -0.4446  0.4711  0.5232
  880MOL0     C18723   4.301   2.214  11.193 -0.3692  0.1822 -0.4826
  880MOL0     O18724   4.435   2.220  11.232 -0.2316  0.0671  0.2759
  880MOL0     C18725   4.498   2.098  11.248  0.1901  0.0943 -0.3415
  880MOL0     C18726   4.637   2.129  11.308  0.2913 -0.0271 -0.1720
  880MOL0     C18727   4.750   2.028  11.260  0.2888 -0.2033  0.5080
  880MOL0     C18728   4.891   2.075  11.298  0.0628  0.0007  1.1233
  880MOL0     C18729   4.923   2.185  11.203 -0.7871  0.1311  0.5908
  880MOL0     C18730   4.944   2.279  11.125 -0.1144  0.4394  1.0325
  880MOL0     C18731   4.234   2.336  11.162  0.5171  0.1460  0.6445
  880MOL0     C18732   4.100   2.341  11.134  0.0386  0.1937 -0.3256
  880MOL0     H18733   3.703   2.195  10.838  0.7962 -0.3501  1.9683
  880MOL0     H18734   3.437   2.196  10.807 -0.5539 -0.5570  0.0967
  880MOL0     H18735   3.220   2.341  11.177  4.0323  1.4803 -1.1099
  880MOL0     H18736   3.209   2.472  11.065  0.0249 -0.0339 -2.2377
  880MOL0     H18737   3.020   2.384  10.965  1.0382 -0.9538 -1.0654
  880MOL0     H18738   3.025   2.230  11.062 -1.8593  1.1547 -1.3170
  880MOL0     H18739   3.011   2.505  11.209  1.1807  0.9058 -1.3158
  880MOL0     H18740   2.871   2.456  11.135  0.2095 -1.3786  0.0155
  880MOL0     H18741   2.882   2.241  11.242 -0.0750  0.9252  0.8869
  880MOL0     H18742   3.042   2.269  11.308  0.8735  0.5111  0.6493
  880MOL0     H18743   2.776   2.422  11.368  1.1072  1.5524 -0.5057
  880MOL0     H18744   2.828   2.285  11.464  1.4073  1.4088  1.6912
  880MOL0     H18745   2.982   2.559  11.437  1.1782  1.5287  2.8407
  880MOL0     H18746   2.876   2.510  11.568  1.3316 -1.5088  2.6201
  880MOL0     H18747   3.042   2.320  11.620  2.4837 -0.2515  0.2010
  880MOL0     H18748   3.136   2.389  11.490  0.8821 -0.6469  1.4607
  880MOL0     H18749   3.159   2.605  11.609  1.8172 -0.5293  1.6076
  880MOL0     H18750   3.209   2.466  11.707 -0.0201 -1.5770  0.3946
  880MOL0     H18751   3.043   2.376  11.915  3.4232 -0.3771 -1.7172
  880MOL0     H18752   2.807   2.405  12.067  0.5521  0.1215 -1.6678
  880MOL0     H18753   2.957   2.465  12.156 -0.9305  0.3885  2.1909
  880MOL0     H18754   2.714   2.641  12.136 -2.6753 -1.1611  2.6882
  880MOL0     H18755   2.870   2.669  12.211  0.2633 -0.0096  0.8181
  880MOL0     H18756   2.743   2.597  12.393  0.4258 -1.1255  1.4397
  880MOL0     H18757   2.845   2.467  12.353 -0.2510  1.2624  0.5010
  880MOL0     H18758   2.639   2.360  12.390  1.3378  1.8169  1.4624
  880MOL0     H18759   2.650   2.358  12.214  1.0874  0.1045 -0.4016
  880MOL0     H18760   2.473   2.240  12.297  0.4392  0.6496 -0.2301
  880MOL0     H18761   2.228   2.022  12.170  2.3021  0.2590 -1.5445
  880MOL0     H18762   2.362   2.035  12.276 -1.1758 -0.0513  0.7324
  880MOL0     H18763   2.200   2.062  12.341 -0.0368  2.5887  1.2205
  880MOL0     H18764   1.748   2.192  11.866 -1.7304 -0.0365 -0.3518
  880MOL0     H18765   1.518   2.167  11.905  1.1318  0.4470 -0.0592
  880MOL0     H18766   1.319   2.069  11.984 -0.5892 -2.6798 -0.5643
  880MOL0     H18767   1.398   1.983  12.102 -1.1718 -0.2625 -0.3923
  880MOL0     H18768   1.221   2.064  12.273  0.5197  0.8196  0.4583
  880MOL0     H18769   1.121   2.134  12.149  0.9269 -0.0377  0.7869
  880MOL0     H18770   1.200   1.847  12.134 -0.8134 -0.8403  3.2127
  880MOL0     H18771   1.071   1.929  12.036 -1.4696  1.5349  1.6548
  880MOL0     H18772   0.983   1.799  12.187 -0.8328  1.7114 -2.4681
  880MOL0     H18773   1.074   1.857  12.325 -0.5937 -1.3911 -1.1765
  880MOL0     H18774   0.933   2.077  12.298  1.7955  0.2228 -1.8471
  880MOL0     H18775   0.843   1.932  12.336 -1.4702 -0.8141 -0.9810
  880MOL0     H18776   0.873   2.076  12.075  0.9353 -1.3679  0.2224
  880MOL0     H18777   0.814   1.917  12.080  0.0032 -0.3960  1.1032
  880MOL0     H18778   0.692   2.141  12.250 -0.0710 -0.5368  0.0773
  880MOL0     H18779   0.625   1.985  12.242 -2.6711  0.8028 -1.1176
  880MOL0     H18780   0.606   2.215  12.032 -0.7776  0.1601  2.4008
  880MOL0     H18781   0.487   2.109  12.095 -0.8605 -1.0359 -1.0441
  880MOL0     H18782   1.559   2.296  12.307  2.1670 -0.0280  0.7157
  880MOL0     H18783   1.800   2.364  12.251  1.0624 -2.7681  1.3366
  880MOL0     H18784   2.082   2.491  12.114 -2.8186 -2.8314 -0.5173
  880MOL0     H18785   2.305   2.608  12.183 -2.7318 -0.0243 -0.0141
  880MOL0     H18786   3.414   2.459  11.125  1.5272  0.6059 -0.7006
  880MOL0     H18787   3.661   2.442  11.172 -0.0237 -1.8053  0.0113
  880MOL0     H18788   4.043   2.005  11.173 -1.9540  1.7676  1.5266
  880MOL0     H18789   4.263   1.995  11.212  2.6776  0.9433 -1.0527
  880MOL0     H18790   4.443   2.031  11.314  0.5407 -0.8987 -1.0341
  880MOL0     H18791   4.510   2.049  11.150 -0.5603  0.3516 -0.5710
  880MOL0     H18792   4.638   2.130  11.417  1.6994 -1.6072 -0.1250
  880MOL0     H18793   4.670   2.230  11.281 -1.2425  0.9578  1.4468
  880MOL0     H18794   4.743   2.007  11.153 -4.1993 -1.1731  0.8212
  880MOL0     H18795   4.722   1.934  11.307  0.6051 -0.8398 -0.5286
  880MOL0     H18796   4.962   1.998  11.266  0.2843  0.5036  0.3611
  880MOL0     H18797   4.903   2.100  11.403 -0.8129 -3.2114  2.1061
  880MOL0     H18798   4.990   2.360  11.072 -0.6887 -1.1226 -2.0973
  880MOL0     H18799   4.288   2.430  11.159 -0.4040  0.6723 -1.0249
  880MOL0     H18800   4.057   2.440  11.124 -1.4528 -0.2946  0.9139
  881MOL0     O18801   4.595   7.247  10.804 -0.1984  0.3851 -0.0651
  881MOL0     C18802   4.593   7.374  10.788  0.4068  0.2612 -0.5306
  881MOL0     O18803   4.482   7.460  10.829  0.0894  0.4252 -0.1462
  881MOL0     C18804   4.373   7.401  10.886 -0.2559  0.6918 -0.0142
  881MOL0     C18805   4.311   7.285  10.832 -0.1129 -0.4846 -0.4292
  881MOL0     C18806   4.207   7.223  10.895  0.2691 -0.6099 -0.5065
  881MOL0     C18807   4.142   7.287  11.006  0.2600  0.3866 -0.7091
  881MOL0     O18808   4.030   7.225  11.060 -0.1848 -1.0386 -0.5797
  881MOL0     C18809   3.929   7.193  10.968 -0.5356 -0.6554 -0.0421
  881MOL0     C18810   3.793   7.216  11.044 -0.3377 -0.2524 -0.2068
  881MOL0     C18811   3.686   7.135  10.975  0.3333  0.5614 -0.1288
  881MOL0     C18812   3.545   7.179  11.023  0.4424  0.0026  0.1956
  881MOL0     C18813   3.436   7.116  10.941  0.1311  0.1599  0.3780
  881MOL0     C18814   3.299   7.112  11.016 -0.7137  0.0208 -0.1054
  881MOL0     C18815   3.193   7.058  10.923  1.1501  0.3349  0.1861
  881MOL0     C18816   3.069   6.999  10.988 -0.1633 -0.1209 -0.8047
  881MOL0     N18817   2.947   6.968  10.903 -0.2618 -0.7748 -0.5959
  881MOL0     C18818   2.936   6.860  10.814 -0.1686 -0.3167 -0.4171
  881MOL0     C18819   2.811   6.859  10.771  0.8270 -0.7581 -0.6060
  881MOL0     C18820   2.765   6.772  10.656 -0.2503  0.4642 -0.5399
  881MOL0     C18821   2.614   6.767  10.626  0.7365  0.8541 -0.0745
  881MOL0     C18822   2.597   6.742  10.470 -0.2107 -0.1741 -0.3494
  881MOL0     C18823   2.453   6.709  10.450  0.6372 -0.6924 -0.5465
  881MOL0     O18824   2.434   6.637  10.322 -0.5853 -0.9924 -1.0327
  881MOL0     C18825   2.302   6.598  10.297  0.6221 -0.0916 -0.1594
  881MOL0     C18826   2.193   6.621  10.382  0.2085  0.2156 -0.4492
  881MOL0     C18827   2.058   6.576  10.364 -0.1919  0.9337 -0.1560
  881MOL0     C18828   1.952   6.616  10.460  0.2250  0.5738 -0.4216
  881MOL0     C18829   2.036   6.504  10.245 -0.3787  0.3813  0.0502
  881MOL0     C18830   1.904   6.452  10.202 -0.6846 -0.0197 -0.5528
  881MOL0     O18831   1.821   6.397  10.295  0.4184 -0.2009  0.4782
  881MOL0     C18832   1.685   6.405  10.281 -0.2679  0.2675  0.0497
  881MOL0     C18833   1.599   6.291  10.305 -0.0602  0.0863  0.0718
  881MOL0     C18834   1.466   6.303  10.291  0.8505 -0.2950 -0.3497
  881MOL0     C18835   1.405   6.433  10.272 -0.3568  0.5318  0.7754
  881MOL0     O18836   1.268   6.422  10.285 -0.1116 -0.0209 -0.5423
  881MOL0     C18837   1.194   6.550  10.286  0.5117 -0.1168  0.2336
  881MOL0     C18838   1.047   6.529  10.299 -0.8761  0.0431 -1.2531
  881MOL0     C18839   0.978   6.448  10.189 -0.3447  0.1620  0.4323
  881MOL0     C18840   0.819   6.461  10.197  0.1820  0.0402  0.5759
  881MOL0     C18841   0.752   6.348  10.121  0.6067  0.4722 -0.2826
  881MOL0     C18842   0.599   6.358  10.095  0.6457  0.2039 -0.5365
  881MOL0     C18843   0.515   6.386  10.225 -0.3808  0.0849  0.2294
  881MOL0     C18844   0.388   6.305  10.202  0.1700 -0.5669  0.2905
  881MOL0    Cl18845   0.296   6.348  10.050 -0.5055 -0.0797  0.0884
  881MOL0     C18846   1.485   6.547  10.258  0.1492 -0.3585 -0.0125
  881MOL0     C18847   1.625   6.529  10.259 -0.3425  0.1782  0.2332
  881MOL0     O18848   1.881   6.471  10.085 -0.0853 -0.1297  0.5614
  881MOL0     C18849   2.144   6.484  10.154 -0.2665 -0.2293  0.2001
  881MOL0     C18850   2.272   6.534  10.175 -0.4525 -0.4807  0.4385
  881MOL0     N18851   2.738   6.963  10.835  0.0577 -0.1378  0.8858
  881MOL0     N18852   2.823   7.023  10.910 -0.0554 -0.7445  0.2399
  881MOL0     C18853   4.197   7.403  11.059 -0.1093  1.2566 -0.3460
  881MOL0     C18854   4.320   7.449  11.002 -0.3418 -0.4339  0.8406
  881MOL0     C18855   4.719   7.445  10.741  0.0969  0.0774 -0.5441
  881MOL0     C18856   4.717   7.573  10.678 -0.8105  0.2562  0.4673
  881MOL0     C18857   4.845   7.625  10.644  0.7195 -1.0602  0.3383
  881MOL0     C18858   4.965   7.556  10.664  0.6170  0.3477  0.0299
  881MOL0     O18859   5.087   7.619  10.644  0.4291 -0.0099 -0.1603
  881MOL0     C18860   5.088   7.762  10.644 -0.3140  1.3805  0.5180
  881MOL0     C18861   5.241   7.799  10.646  0.0539  0.4512 -0.4290
  881MOL0     C18862   5.329   7.721  10.749  0.1677 -0.0540  0.2308
  881MOL0     C18863   5.467   7.666  10.706 -0.5418 -0.3120 -0.4573
  881MOL0     C18864   5.561   7.774  10.681  0.1162 -0.3971 -0.3877
  881MOL0     C18865   5.644   7.852  10.657 -0.9587 -0.0908  0.2607
  881MOL0     C18866   4.964   7.420  10.703 -0.0628 -0.5152  0.1712
  881MOL0     C18867   4.839   7.377  10.749 -0.2712  0.2572 -0.3090
  881MOL0     H18868   4.353   7.235  10.745  1.7001 -1.7246  1.0933
  881MOL0     H18869   4.176   7.138  10.835  1.2995 -0.8902 -0.6554
  881MOL0     H18870   3.930   7.273  10.894  1.7349 -0.0477  0.5579
  881MOL0     H18871   3.939   7.095  10.921 -0.5018 -1.3118  1.2870
  881MOL0     H18872   3.803   7.191  11.150  0.0301 -0.0916 -0.2031
  881MOL0     H18873   3.774   7.324  11.041  1.7384  0.1494 -0.7372
  881MOL0     H18874   3.689   7.152  10.867  1.3513  1.5597  0.0389
  881MOL0     H18875   3.710   7.030  10.994 -1.4807  0.0414 -0.5680
  881MOL0     H18876   3.536   7.143  11.127  1.1354 -0.1164  0.2199
  881MOL0     H18877   3.530   7.287  11.026  1.0062  0.1120 -0.5815
  881MOL0     H18878   3.416   7.179  10.854  2.7486  0.1119 -0.3369
  881MOL0     H18879   3.465   7.013  10.919 -0.9116 -0.5590  2.1335
  881MOL0     H18880   3.303   7.049  11.105  0.3711 -0.3772 -0.4183
  881MOL0     H18881   3.269   7.215  11.037 -0.1531  0.7155 -2.3883
  881MOL0     H18882   3.148   7.139  10.865 -2.1916 -0.9834  0.6689
  881MOL0     H18883   3.232   6.988  10.849 -0.9210  0.4745 -1.1228
  881MOL0     H18884   3.024   7.078  11.050 -1.2633 -1.9310  0.8237
  881MOL0     H18885   3.100   6.919  11.056  0.5099 -1.6024 -2.7338
  881MOL0     H18886   3.008   6.784  10.785 -1.2113 -1.1964 -0.7750
  881MOL0     H18887   2.809   6.802  10.560  1.4049 -3.3939 -1.1671
  881MOL0     H18888   2.808   6.672  10.670  3.2680  2.0757  1.3680
  881MOL0     H18889   2.574   6.863  10.659  2.0869  1.2216  0.5618
  881MOL0     H18890   2.574   6.691  10.694 -2.6513  1.7080 -0.9240
  881MOL0     H18891   2.668   6.669  10.431  1.8408 -0.0145  2.7436
  881MOL0     H18892   2.619   6.838  10.420 -1.1212  0.2286  0.0010
  881MOL0     H18893   2.387   6.796  10.443 -2.7036 -3.1231 -2.0993
  881MOL0     H18894   2.426   6.651  10.539  2.7197 -0.0814  0.5297
  881MOL0     H18895   2.207   6.673  10.477  1.6566  3.2300 -2.1718
  881MOL0     H18896   1.906   6.526  10.500  1.9819  0.1963  0.8953
  881MOL0     H18897   1.996   6.661  10.550  0.7311 -2.4319  0.9313
  881MOL0     H18898   1.891   6.695  10.415  0.6871  1.3902  0.3457
  881MOL0     H18899   1.632   6.194  10.340 -2.7424 -0.3789  1.6030
  881MOL0     H18900   1.405   6.216  10.308  2.1355 -2.0361 -3.7572
  881MOL0     H18901   1.232   6.612  10.367  1.4903 -2.2011  1.4408
  881MOL0     H18902   1.210   6.608  10.194 -1.3455 -2.2497 -1.5571
  881MOL0     H18903   1.016   6.497  10.399 -2.5709  0.8031 -1.5144
  881MOL0     H18904   0.999   6.625  10.282 -0.7260  0.1199 -1.2390
  881MOL0     H18905   1.007   6.343  10.203  0.4222  0.5034  1.5632
  881MOL0     H18906   1.006   6.479  10.088  2.2812 -0.9701  0.7349
  881MOL0     H18907   0.781   6.458  10.300 -0.2594 -2.2814  0.4030
  881MOL0     H18908   0.780   6.555  10.157  1.1653  1.6171  3.0512
  881MOL0     H18909   0.780   6.261  10.180  1.0104  2.1413  2.1298
  881MOL0     H18910   0.789   6.350  10.018 -2.2122 -1.5665 -1.4551
  881MOL0     H18911   0.593   6.442  10.026  1.7545 -0.7513 -1.8378
  881MOL0     H18912   0.572   6.274  10.031  1.6913 -0.7797  0.2729
  881MOL0     H18913   0.489   6.489  10.248 -1.2733 -0.1779  0.4512
  881MOL0     H18914   0.573   6.339  10.306 -1.9110 -0.3192  1.1286
  881MOL0     H18915   0.324   6.322  10.289 -0.4194 -0.0645 -0.2258
  881MOL0     H18916   0.415   6.200  10.188 -0.1664 -0.2172 -5.2469
  881MOL0     H18917   1.436   6.640  10.233  1.1004  0.2494  0.3369
  881MOL0     H18918   1.686   6.618  10.248  0.1694 -0.3768 -1.6886
  881MOL0     H18919   2.119   6.440  10.058 -0.3609  0.5303 -0.1271
  881MOL0     H18920   2.348   6.517  10.099 -0.4388 -1.2255  0.6063
  881MOL0     H18921   4.149   7.456  11.142  0.9814 -0.4507  1.4486
  881MOL0     H18922   4.373   7.530  11.052 -0.8250 -0.6079  1.6660
  881MOL0     H18923   4.621   7.624  10.669  0.3978  3.0350  2.0025
  881MOL0     H18924   4.841   7.730  10.618 -1.0246 -1.1488  0.1511
  881MOL0     H18925   5.033   7.810  10.563  0.7787  2.1312  0.1899
  881MOL0     H18926   5.039   7.795  10.736 -2.1867  0.3325 -0.0412
  881MOL0     H18927   5.242   7.907  10.661  0.3350  0.5574 -1.1985
  881MOL0     H18928   5.273   7.774  10.545  2.6031 -0.8786  0.6230
  881MOL0     H18929   5.279   7.629  10.780  0.7719  0.2661  2.3515
  881MOL0     H18930   5.347   7.790  10.832  1.8893 -0.7451  0.4804
  881MOL0     H18931   5.455   7.607  10.615  1.8173 -0.9696 -0.4061
  881MOL0     H18932   5.514   7.597  10.777  1.8956  2.3548  0.7564
  881MOL0     H18933   5.725   7.921  10.647  0.8565 -2.2951 -1.5167
  881MOL0     H18934   5.047   7.351  10.711  1.2322  1.1868  2.3616
  881MOL0     H18935   4.836   7.273  10.780 -1.7754 -0.5649 -2.9400
  882MOL0     O18936   9.294   7.829   3.652  0.0178 -0.4243  0.0031
  882MOL0     C18937   9.327   7.748   3.732 -0.0076  0.3088 -0.0893
  882MOL0     O18938   9.276   7.622   3.742 -0.0615  0.4898 -0.0843
  882MOL0     C18939   9.173   7.579   3.664 -0.0251 -0.2901  0.2409
  882MOL0     C18940   9.066   7.651   3.626  0.2844  0.4525 -0.1564
  882MOL0     C18941   8.971   7.602   3.538  0.2172  0.4914 -0.5061
  882MOL0     C18942   8.985   7.471   3.482 -0.8769  0.2255 -0.5613
  882MOL0     O18943   8.892   7.424   3.396 -0.5081  0.4410  0.5036
  882MOL0     C18944   8.905   7.305   3.313 -1.1021 -0.0137 -0.1122
  882MOL0     C18945   8.810   7.323   3.193 -0.0288 -0.1236  0.0105
  882MOL0     C18946   8.665   7.326   3.238 -0.1793 -0.1259  0.7081
  882MOL0     C18947   8.566   7.333   3.118  0.2780 -0.5707  0.0272
  882MOL0     C18948   8.415   7.358   3.158 -0.1790 -0.4711  0.5864
  882MOL0     C18949   8.352   7.238   3.224 -0.5554 -0.5727 -0.1776
  882MOL0     C18950   8.199   7.264   3.237 -0.3435 -0.2806  0.6361
  882MOL0     C18951   8.123   7.235   3.100  0.0583  0.4718 -0.0754
  882MOL0     N18952   7.979   7.193   3.134  0.1253 -0.2832 -0.3338
  882MOL0     C18953   7.872   7.280   3.122  0.4871  0.2054  0.3339
  882MOL0     C18954   7.753   7.209   3.126  0.7765  0.3097  0.3835
  882MOL0     C18955   7.617   7.270   3.108 -0.4209  0.6227  0.3245
  882MOL0     C18956   7.534   7.195   3.010 -0.6305 -0.4407 -0.4054
  882MOL0     C18957   7.394   7.245   3.007 -0.0869 -0.6932 -0.8411
  882MOL0     C18958   7.291   7.148   2.966 -0.3612  0.3423  0.2870
  882MOL0     O18959   7.172   7.215   2.942 -0.0161  0.0159  0.0997
  882MOL0     C18960   7.062   7.145   2.893  0.6051 -0.9200 -0.4963
  882MOL0     C18961   7.050   7.009   2.884 -0.1118  0.0195  0.0324
  882MOL0     C18962   6.924   6.943   2.861 -0.5648 -0.0985  0.3638
  882MOL0     C18963   6.914   6.796   2.877  0.5785 -0.5793  0.3581
  882MOL0     C18964   6.810   7.026   2.819  0.9317 -1.3052  0.3235
  882MOL0     C18965   6.668   6.983   2.787  0.2390  0.6336  0.2258
  882MOL0     O18966   6.629   6.866   2.857 -0.2766 -0.2809  0.1836
  882MOL0     C18967   6.502   6.810   2.821  0.2010  0.0225  0.3331
  882MOL0     C18968   6.453   6.781   2.686 -0.0210  0.5938 -0.3771
  882MOL0     C18969   6.341   6.703   2.654 -0.4471  0.5468  0.1114
  882MOL0     C18970   6.281   6.643   2.762  0.1217 -0.0700  0.4350
  882MOL0     O18971   6.169   6.565   2.733  0.5244  0.3998  0.2372
  882MOL0     C18972   6.069   6.528   2.834  0.0641 -0.1411  0.0260
  882MOL0     C18973   5.951   6.449   2.770 -0.2013  0.5888  0.7210
  882MOL0     C18974   6.002   6.314   2.722  0.0200 -0.1398  0.7561
  882MOL0     C18975   5.904   6.199   2.736 -0.0261  0.0238  0.5750
  882MOL0     C18976   5.956   6.060   2.697 -0.6522 -0.0476  0.1153
  882MOL0     C18977   6.055   5.996   2.804  0.3041 -0.1352  0.0155
  882MOL0     C18978   6.197   6.026   2.771  0.1753  0.4823  1.1839
  882MOL0     C18979   6.280   6.001   2.893 -0.0667 -0.2734  0.8884
  882MOL0    Cl18980   6.271   5.840   2.954  0.2385  0.2534 -0.2851
  882MOL0     C18981   6.316   6.673   2.889  0.3189 -0.5315  0.4600
  882MOL0     C18982   6.417   6.761   2.919 -1.0460  0.0518 -0.3815
  882MOL0     O18983   6.590   7.051   2.718 -0.3518  0.0477  0.5365
  882MOL0     C18984   6.831   7.164   2.802 -0.4991  0.9928 -0.1221
  882MOL0     C18985   6.954   7.218   2.841 -0.5382  0.2953  0.4147
  882MOL0     N18986   7.781   7.075   3.136 -0.1890  0.1036  0.0487
  882MOL0     N18987   7.915   7.069   3.141 -0.0858  0.4358 -0.0553
  882MOL0     C18988   9.096   7.395   3.521  0.1569 -0.5095 -0.2558
  882MOL0     C18989   9.184   7.451   3.611 -0.3760 -0.2307 -0.2881
  882MOL0     C18990   9.447   7.774   3.817  0.7221  0.0106 -0.1344
  882MOL0     C18991   9.470   7.719   3.949  0.0796  0.0846  0.4398
  882MOL0     C18992   9.576   7.760   4.024 -0.4092 -0.1078 -0.4505
  882MOL0     C18993   9.663   7.855   3.982 -0.0868  0.6635 -0.7693
  882MOL0     O18994   9.761   7.893   4.065 -0.2990 -0.0377  0.2620
  882MOL0     C18995   9.714   7.931   4.195  0.7510 -0.2989 -0.4900
  882MOL0     C18996   9.788   8.049   4.255 -1.0010 -0.7540  0.3209
  882MOL0     C18997   9.941   8.038   4.248 -0.0678  0.6230 -1.0232
  882MOL0     C18998   9.997   8.178   4.293 -0.2042  0.4117  0.5306
  882MOL0     C18999  10.060   8.163   4.425 -0.3638  0.0473  0.5629
  882MOL0     C19000  10.116   8.151   4.533  0.1071 -0.1028  0.1336
  882MOL0     C19001   9.638   7.917   3.858  0.2820 -0.1304  0.2724
  882MOL0     C19002   9.531   7.871   3.773  0.5020 -1.0788 -0.3753
  882MOL0     H19003   9.057   7.743   3.682  0.8369  0.0786  0.5484
  882MOL0     H19004   8.870   7.639   3.523  0.0241 -0.6073 -2.2393
  882MOL0     H19005   9.007   7.283   3.281 -0.0638  2.1244  1.4435
  882MOL0     H19006   8.869   7.221   3.373 -0.1969  0.8631  1.7455
  882MOL0     H19007   8.828   7.421   3.147  1.0931 -0.7435 -0.9189
  882MOL0     H19008   8.825   7.239   3.125  1.8797 -1.6655  2.1867
  882MOL0     H19009   8.646   7.235   3.295 -0.2054 -3.2042 -3.7420
  882MOL0     H19010   8.649   7.414   3.301 -0.3444  2.3061 -2.4804
  882MOL0     H19011   8.601   7.413   3.053 -0.4399 -0.1153  0.2021
  882MOL0     H19012   8.576   7.233   3.074  3.5038 -0.7980  1.0172
  882MOL0     H19013   8.402   7.452   3.212  0.0729  0.4046 -0.8170
  882MOL0     H19014   8.372   7.386   3.061  0.9795 -0.5585  0.0301
  882MOL0     H19015   8.363   7.153   3.156 -1.7035  1.9095 -3.7928
  882MOL0     H19016   8.397   7.225   3.322 -0.0641  1.8879 -0.0232
  882MOL0     H19017   8.150   7.203   3.314 -0.1990  0.2751  1.1761
  882MOL0     H19018   8.181   7.370   3.259 -1.1734  0.1344 -1.7339
  882MOL0     H19019   8.164   7.154   3.039  0.9484  2.0827 -1.7000
  882MOL0     H19020   8.135   7.323   3.037 -0.3542 -0.3031 -1.2741
  882MOL0     H19021   7.879   7.388   3.108  2.3460  0.5932  3.4219
  882MOL0     H19022   7.563   7.285   3.202 -0.9511  1.1943 -0.0639
  882MOL0     H19023   7.638   7.372   3.074 -1.3492  0.4424 -0.8321
  882MOL0     H19024   7.532   7.087   3.030 -0.9194 -0.3476  0.0782
  882MOL0     H19025   7.585   7.208   2.914  1.1546 -2.3192  0.2164
  882MOL0     H19026   7.391   7.329   2.937 -0.8988 -0.6306 -0.7412
  882MOL0     H19027   7.363   7.274   3.108 -2.3082 -0.3219 -1.5704
  882MOL0     H19028   7.279   7.080   3.051 -0.3248  3.1323  2.6666
  882MOL0     H19029   7.321   7.095   2.875  3.7381  0.1476  1.5724
  882MOL0     H19030   7.131   6.948   2.924 -1.5394 -1.3720  0.9526
  882MOL0     H19031   6.852   6.776   2.964 -0.0080 -4.1641 -0.7270
  882MOL0     H19032   6.862   6.758   2.788  2.4712  1.0147 -1.5600
  882MOL0     H19033   7.015   6.754   2.878  1.5073  1.4505  2.1445
  882MOL0     H19034   6.509   6.811   2.598 -2.6862 -0.7461 -2.6534
  882MOL0     H19035   6.317   6.677   2.552  2.8354  2.6551 -1.3778
  882MOL0     H19036   6.108   6.467   2.916  0.8587 -1.1712 -1.0827
  882MOL0     H19037   6.025   6.614   2.885  0.8208 -0.7444  1.8042
  882MOL0     H19038   5.863   6.441   2.834 -0.1538 -3.4823  0.5119
  882MOL0     H19039   5.918   6.497   2.678 -0.6098  0.8552  1.0013
  882MOL0     H19040   6.099   6.293   2.768 -0.2380  0.6103  1.6904
  882MOL0     H19041   6.022   6.330   2.616  0.0406  1.4260  0.9666
  882MOL0     H19042   5.862   6.201   2.837 -4.8243 -0.8770 -1.1319
  882MOL0     H19043   5.817   6.216   2.671 -0.7335 -2.5951  0.7118
  882MOL0     H19044   6.002   6.067   2.598 -1.1802  0.4446 -0.1018
  882MOL0     H19045   5.875   5.987   2.687 -0.9150  0.5082 -2.5915
  882MOL0     H19046   6.033   6.030   2.906 -0.0336  1.2685 -0.5145
  882MOL0     H19047   6.054   5.886   2.803  1.8225 -0.1679 -1.7116
  882MOL0     H19048   6.212   6.132   2.749 -0.5213  0.4008  0.2719
  882MOL0     H19049   6.232   5.959   2.692 -0.6071  2.1307 -0.6237
  882MOL0     H19050   6.245   6.073   2.968 -3.5232  0.5481 -1.2745
  882MOL0     H19051   6.383   6.017   2.861 -0.8352 -0.9191 -2.1533
  882MOL0     H19052   6.260   6.643   2.977  2.3469  2.1231  2.8392
  882MOL0     H19053   6.446   6.781   3.022  0.1787 -0.3724 -0.6229
  882MOL0     H19054   6.755   7.235   2.770  0.4557  2.4379  0.6679
  882MOL0     H19055   6.959   7.326   2.834  0.9334  0.1637 -1.3020
  882MOL0     H19056   9.116   7.291   3.496 -1.8268 -1.6571  2.4476
  882MOL0     H19057   9.267   7.399   3.659  0.5985  2.7846  1.5574
  882MOL0     H19058   9.409   7.638   3.987 -0.8142  0.3745 -0.3396
  882MOL0     H19059   9.590   7.719   4.123  0.3790  3.1953  0.9492
  882MOL0     H19060   9.610   7.963   4.195  1.1354  1.1562 -2.1500
  882MOL0     H19061   9.726   7.849   4.266 -0.2436 -0.2016 -0.1974
  882MOL0     H19062   9.762   8.068   4.359  0.3214  0.4919  0.4601
  882MOL0     H19063   9.745   8.133   4.199 -1.0236  1.5179  3.5017
  882MOL0     H19064   9.980   8.012   4.149  0.3516  0.6754 -0.8741
  882MOL0     H19065   9.984   7.968   4.320  1.5484  5.8844  3.8755
  882MOL0     H19066   9.922   8.258   4.291  0.7064  1.2785 -1.4888
  882MOL0     H19067  10.064   8.206   4.211  0.2286  1.2262  1.1498
  882MOL0     H19068  10.175   8.157   4.622 -2.5488 -0.0921  2.0133
  882MOL0     H19069   9.701   7.999   3.826  0.8135  0.1450  1.9048
  882MOL0     H19070   9.508   7.926   3.683 -0.0750  0.9204  0.9244
  883MOL0     O19071   3.871  10.241   1.520  0.2182  0.2530  0.0324
  883MOL0     C19072   3.799  10.327   1.577 -0.5111  0.7396 -0.2142
  883MOL0     O19073   3.834  10.458   1.607 -0.0802 -0.0090  0.1999
  883MOL0     C19074   3.962  10.517   1.592  0.2739  0.2977  0.5048
  883MOL0     C19075   4.073  10.473   1.523  0.1013  0.9746 -0.4131
  883MOL0     C19076   4.198  10.541   1.509  0.5914 -0.3642 -0.7101
  883MOL0     C19077   4.202  10.657   1.589 -0.8606  1.4966  0.3863
  883MOL0     O19078   4.309  10.748   1.586 -0.0581 -0.1318  0.0728
  883MOL0     C19079   4.428  10.676   1.633 -0.1066 -0.2833 -0.4490
  883MOL0     C19080   4.551  10.767   1.640  0.5172  0.3834 -0.9568
  883MOL0     C19081   4.676  10.702   1.699 -1.1616  0.6131 -0.3957
  883MOL0     C19082   4.784  10.814   1.681 -0.7275  0.8552  0.0747
  883MOL0     C19083   4.919  10.759   1.735  0.0237  0.2547  0.7810
  883MOL0     C19084   5.027  10.869   1.692  1.0366  0.7075 -1.0701
  883MOL0     C19085   5.165  10.833   1.735  0.1303 -0.5579 -0.6040
  883MOL0     C19086   5.233  10.729   1.643  0.7046 -0.0749 -0.3894
  883MOL0     N19087   5.376  10.716   1.666  0.4306 -0.3243 -0.3648
  883MOL0     C19088   5.437  10.622   1.744  0.0544 -0.7375 -0.5056
  883MOL0     C19089   5.567  10.669   1.744 -0.1433  0.4626 -0.0962
  883MOL0     C19090   5.668  10.605   1.828 -0.5541 -0.0485 -0.1810
  883MOL0     C19091   5.794  10.691   1.855 -0.0381 -0.0225 -0.0611
  883MOL0     C19092   5.760  10.822   1.930 -0.6574  0.0314 -0.8958
  883MOL0     C19093   5.876  10.893   1.994  0.3564 -0.9344  0.9056
  883MOL0     O19094   5.923  10.835   2.116 -0.2548  0.0133 -0.6858
  883MOL0     C19095   5.832  10.847   2.221  0.5654 -0.8183 -0.2187
  883MOL0     C19096   5.804  10.733   2.296 -0.8496 -0.7429 -0.1042
  883MOL0     C19097   5.695  10.727   2.388 -0.2768 -0.3473 -0.3828
  883MOL0     C19098   5.675  10.601   2.474 -0.0206  0.0905 -0.4473
  883MOL0     C19099   5.614  10.836   2.395  0.9096  0.2281 -0.0684
  883MOL0     C19100   5.477  10.832   2.466 -0.0302  0.9976 -0.0919
  883MOL0     O19101   5.425  10.944   2.513  0.3357 -0.0177  0.1830
  883MOL0     C19102   5.285  10.941   2.542 -0.1334 -0.3979  0.3765
  883MOL0     C19103   5.200  10.999   2.443 -0.2163 -0.9126 -0.7346
  883MOL0     C19104   5.059  11.001   2.482 -1.1822 -0.3427  0.6920
  883MOL0     C19105   5.004  10.951   2.600 -0.1890  0.4410 -0.2899
  883MOL0     O19106   4.870  10.942   2.630 -0.8969 -0.3058  0.5354
  883MOL0     C19107   4.771  10.990   2.546  0.1387  0.3067 -0.1214
  883MOL0     C19108   4.634  10.952   2.607  0.3966 -0.6346  0.1051
  883MOL0     C19109   4.517  11.020   2.539  0.2037 -0.2240  0.5607
  883MOL0     C19110   4.382  11.008   2.609 -0.2711  0.9237 -0.0084
  883MOL0     C19111   4.267  11.096   2.538 -0.3069  0.2177  0.3308
  883MOL0     C19112   4.124  11.044   2.565  1.0149 -0.1635  0.4553
  883MOL0     C19113   4.074  11.073   2.707 -0.3375  0.0995 -0.2787
  883MOL0     C19114   3.960  10.980   2.735 -0.1437  0.7853  0.6206
  883MOL0    Cl19115   3.891  11.005   2.894  0.3078 -0.0624 -0.0056
  883MOL0     C19116   5.097  10.906   2.696  0.7117  0.7136 -0.5123
  883MOL0     C19117   5.240  10.897   2.668 -0.4827 -0.0573 -0.8124
  883MOL0     O19118   5.421  10.727   2.466  0.2338  0.1163  0.4041
  883MOL0     C19119   5.639  10.952   2.331 -0.5264  0.6322 -1.1097
  883MOL0     C19120   5.746  10.963   2.244  0.7409  0.6004  0.3915
  883MOL0     N19121   5.571  10.797   1.680  0.0829  0.5525 -0.9450
  883MOL0     N19122   5.458  10.820   1.636 -0.6626 -0.7902  0.5253
  883MOL0     C19123   4.095  10.701   1.664  0.6207  0.4453  0.5654
  883MOL0     C19124   3.978  10.630   1.664 -0.1305 -0.2836  0.3195
  883MOL0     C19125   3.658  10.294   1.607 -0.1542 -0.3853 -0.3372
  883MOL0     C19126   3.574  10.393   1.653 -0.1275 -0.4544  0.3634
  883MOL0     C19127   3.440  10.359   1.682 -0.3246  0.5170  0.0078
  883MOL0     C19128   3.396  10.226   1.677  0.1317  1.0387 -0.1950
  883MOL0     O19129   3.268  10.189   1.721 -0.0856 -0.6373 -0.8005
  883MOL0     C19130   3.161  10.206   1.630  0.1941  0.4939  0.4760
  883MOL0     C19131   3.048  10.279   1.709  0.0576 -0.8732 -0.0941
  883MOL0     C19132   2.987  10.191   1.810  0.0010  1.2602 -0.0654
  883MOL0     C19133   2.919  10.069   1.743  1.2165  0.7351  0.8597
  883MOL0     C19134   2.822   9.995   1.832  0.4046 -0.0377  0.5588
  883MOL0     C19135   2.743   9.938   1.904  0.4593  0.7688  0.1585
  883MOL0     C19136   3.488  10.129   1.645 -0.7172  0.1972 -0.6133
  883MOL0     C19137   3.624  10.161   1.605  0.7342  0.7535 -0.1788
  883MOL0     H19138   4.047  10.381   1.470 -0.3503  1.4323 -1.0020
  883MOL0     H19139   4.277  10.513   1.440  1.9175  1.3647  0.0093
  883MOL0     H19140   4.403  10.636   1.731  0.2333  2.3456  0.7809
  883MOL0     H19141   4.446  10.591   1.565 -1.7150  0.7357 -2.2530
  883MOL0     H19142   4.559  10.796   1.535  0.5570  0.6782 -0.8724
  883MOL0     H19143   4.529  10.861   1.692  1.5472  0.3488 -0.4481
  883MOL0     H19144   4.658  10.683   1.805  0.4212  0.3812 -0.1480
  883MOL0     H19145   4.707  10.610   1.648  1.5052  0.2560  1.6269
  883MOL0     H19146   4.803  10.833   1.575 -0.5020  0.2158 -0.0054
  883MOL0     H19147   4.750  10.904   1.733  2.5921  0.9166  2.4530
  883MOL0     H19148   4.900  10.761   1.842 -0.3505  1.6933  0.7103
  883MOL0     H19149   4.940  10.662   1.687  0.7312  0.7090  0.1323
  883MOL0     H19150   5.029  10.890   1.585  2.0690  1.7366 -0.8715
  883MOL0     H19151   4.993  10.959   1.745 -1.0459 -0.0393 -1.0608
  883MOL0     H19152   5.227  10.922   1.734  0.7413 -0.9549 -2.8549
  883MOL0     H19153   5.167  10.794   1.838  0.3452  0.9712 -0.0015
  883MOL0     H19154   5.217  10.759   1.539  2.2082  0.1295 -0.5786
  883MOL0     H19155   5.191  10.630   1.665 -0.4843  0.5839  0.4604
  883MOL0     H19156   5.402  10.535   1.799  0.6933 -0.4505  0.3800
  883MOL0     H19157   5.623  10.589   1.926 -1.4862  1.3061 -0.3632
  883MOL0     H19158   5.701  10.509   1.786 -1.6767  0.1212 -1.5006
  883MOL0     H19159   5.844  10.707   1.758 -2.1676  0.5489 -1.1173
  883MOL0     H19160   5.862  10.630   1.915  0.9128  0.0958 -0.9798
  883MOL0     H19161   5.696  10.792   2.014 -1.8747  0.6265 -1.5888
  883MOL0     H19162   5.700  10.888   1.866 -1.2618  0.5119  0.1231
  883MOL0     H19163   5.853  11.000   2.000 -0.7928 -1.1219  0.0901
  883MOL0     H19164   5.961  10.884   1.925  0.6408  0.4447  1.0437
  883MOL0     H19165   5.867  10.648   2.271 -1.6677 -0.7098 -2.5403
  883MOL0     H19166   5.603  10.542   2.416 -2.5460  3.6439 -1.2613
  883MOL0     H19167   5.776  10.562   2.490 -0.5235 -1.8070 -1.4831
  883MOL0     H19168   5.635  10.610   2.575  0.0514 -2.2055 -0.1576
  883MOL0     H19169   5.241  11.017   2.344  0.0357 -1.3498 -0.7118
  883MOL0     H19170   4.979  11.020   2.411 -2.0744  0.5849  1.9089
  883MOL0     H19171   4.779  11.099   2.540  1.6428  0.2656  0.5617
  883MOL0     H19172   4.778  10.949   2.445 -2.1899 -1.8112  0.4860
  883MOL0     H19173   4.599  10.849   2.613  0.2444 -0.6871 -1.3368
  883MOL0     H19174   4.649  10.986   2.710  0.2840  1.6063 -0.5516
  883MOL0     H19175   4.509  10.978   2.439  0.1442  1.2627 -0.0916
  883MOL0     H19176   4.541  11.127   2.538  1.7826 -0.4155  3.5988
  883MOL0     H19177   4.346  10.905   2.610  0.5290  0.6403  1.3931
  883MOL0     H19178   4.384  11.034   2.715  0.7623 -0.6444  0.3820
  883MOL0     H19179   4.280  11.089   2.429  0.3265  1.8075  0.2799
  883MOL0     H19180   4.269  11.201   2.568 -1.9705  0.9890 -1.9729
  883MOL0     H19181   4.063  11.092   2.488  4.4408  1.3357 -1.5474
  883MOL0     H19182   4.118  10.935   2.551 -0.4138 -0.0638  0.1649
  883MOL0     H19183   4.045  11.178   2.699  1.0090  0.5171  0.0373
  883MOL0     H19184   4.156  11.075   2.780 -0.7295  2.8818  0.1691
  883MOL0     H19185   3.999  10.878   2.731  0.7962  1.1744 -1.1925
  883MOL0     H19186   3.891  11.002   2.653  2.0698  2.0820 -0.9924
  883MOL0     H19187   5.053  10.872   2.789  2.9187 -2.0941 -0.3634
  883MOL0     H19188   5.300  10.856   2.749 -1.7423  0.6427  0.5326
  883MOL0     H19189   5.580  11.039   2.358 -0.0079  0.2429  1.6207
  883MOL0     H19190   5.770  11.062   2.208 -1.6728  0.7635 -0.9597
  883MOL0     H19191   4.112  10.796   1.715  1.7605  1.2062 -1.1390
  883MOL0     H19192   3.894  10.662   1.724 -1.6823 -2.4212 -0.5594
  883MOL0     H19193   3.617  10.493   1.659 -0.6007 -0.2946  1.1724
  883MOL0     H19194   3.365  10.435   1.703 -0.3842  1.3949 -2.8914
  883MOL0     H19195   3.192  10.273   1.549  2.2068 -2.9991 -1.8915
  883MOL0     H19196   3.120  10.115   1.584  0.8669  0.0008  0.8512
  883MOL0     H19197   2.968  10.320   1.646  0.5407  1.9015  0.9657
  883MOL0     H19198   3.084  10.367   1.764  0.2236 -2.2914  2.1753
  883MOL0     H19199   2.910  10.242   1.868 -0.1181  1.1756 -0.1498
  883MOL0     H19200   3.060  10.154   1.883 -3.0994 -3.1441  1.2266
  883MOL0     H19201   2.998  10.002   1.707 -0.0434 -1.3263  1.7720
  883MOL0     H19202   2.856  10.091   1.656  3.0669 -2.9201 -1.6624
  883MOL0     H19203   2.688   9.866   1.961  0.2600  1.7131  1.1826
  883MOL0     H19204   3.456  10.026   1.658  0.0564 -0.1381 -1.2762
  883MOL0     H19205   3.693  10.079   1.587 -0.2387 -0.0479 -0.3075
  884MOL0     O19206   3.460   7.147   7.329  0.1908 -0.0949 -0.3805
  884MOL0     C19207   3.565   7.141   7.271  0.5694 -0.5459 -1.4996
  884MOL0     O19208   3.581   7.130   7.138  0.4161  0.3731 -0.0085
  884MOL0     C19209   3.475   7.113   7.055 -0.1052 -0.0375 -0.2570
  884MOL0     C19210   3.521   7.123   6.924  0.2151 -0.5369  0.0116
  884MOL0     C19211   3.431   7.122   6.817 -0.7988  0.2641  0.7063
  884MOL0     C19212   3.297   7.096   6.843  0.4775  0.0799  0.5584
  884MOL0     O19213   3.209   7.073   6.731 -0.8382  0.1375  0.1045
  884MOL0     C19214   3.081   7.009   6.757  1.2229 -0.6929  0.3287
  884MOL0     C19215   3.005   6.992   6.621 -0.1672  0.5534 -0.3396
  884MOL0     C19216   2.864   6.934   6.637 -0.0593  0.5189 -0.0252
  884MOL0     C19217   2.764   7.041   6.685 -0.9554 -0.5671  0.7175
  884MOL0     C19218   2.621   6.983   6.700  0.1712 -0.5884 -0.6209
  884MOL0     C19219   2.513   7.090   6.731 -0.1399 -0.4940 -0.1415
  884MOL0     C19220   2.377   7.013   6.745  0.5799 -1.0779 -1.0315
  884MOL0     C19221   2.258   7.116   6.719 -0.6349 -0.0144 -0.3933
  884MOL0     N19222   2.133   7.058   6.752  1.0498  0.6565 -0.4683
  884MOL0     C19223   2.070   7.059   6.870  0.5029  0.2409 -0.7091
  884MOL0     C19224   1.958   6.974   6.853 -0.5392 -0.0348 -0.1984
  884MOL0     C19225   1.856   6.933   6.962 -0.2340  0.1811  0.8098
  884MOL0     C19226   1.820   7.049   7.051 -0.5821  0.2998  0.5860
  884MOL0     C19227   1.750   7.162   6.982 -0.1397  1.0537 -0.4047
  884MOL0     C19228   1.711   7.276   7.074  0.1621 -0.3296  0.2906
  884MOL0     O19229   1.584   7.257   7.125 -0.0388 -0.1367 -0.2328
  884MOL0     C19230   1.479   7.284   7.038 -0.3582 -0.3793 -0.0269
  884MOL0     C19231   1.477   7.329   6.909  0.3657 -0.0258  0.0462
  884MOL0     C19232   1.362   7.380   6.846 -0.3151  0.4452 -0.6104
  884MOL0     C19233   1.391   7.428   6.705 -0.2150  0.0893  0.2273
  884MOL0     C19234   1.237   7.377   6.912 -0.5859 -0.8712 -0.0131
  884MOL0     C19235   1.113   7.438   6.853  0.3723 -0.2170 -0.0879
  884MOL0     O19236   0.999   7.414   6.932 -0.1844  0.3227 -0.6382
  884MOL0     C19237   0.876   7.482   6.916 -0.3393 -0.6196  0.0535
  884MOL0     C19238   0.762   7.397   6.922  0.1363 -0.6781  0.3446
  884MOL0     C19239   0.636   7.450   6.911 -0.0239  0.8816  0.5621
  884MOL0     C19240   0.618   7.590   6.914 -0.2281 -0.5083 -0.2574
  884MOL0     O19241   0.492   7.629   6.891 -0.2524 -0.2711 -0.1367
  884MOL0     C19242   0.479   7.769   6.887 -0.2936 -0.1888 -0.4074
  884MOL0     C19243   0.328   7.804   6.899 -0.2853 -0.0569  0.9530
  884MOL0     C19244   0.255   7.761   6.771  0.1528  0.0986  0.4263
  884MOL0     C19245   0.114   7.804   6.786 -0.2622  0.0876 -0.5740
  884MOL0     C19246   0.038   7.744   6.664 -0.0554  0.0220  0.4593
  884MOL0     C19247  -0.115   7.762   6.689 -0.8463  0.2481  0.4631
  884MOL0     C19248  -0.206   7.730   6.567 -0.4987  0.0865  0.1665
  884MOL0     C19249  -0.325   7.644   6.591  0.7385  0.0755 -0.2689
  884MOL0    Cl19250  -0.443   7.718   6.706 -0.0229  0.1713  0.0769
  884MOL0     C19251   0.738   7.674   6.906  0.1507 -0.7336  0.5617
  884MOL0     C19252   0.867   7.621   6.902  0.1579  0.6467 -0.2599
  884MOL0     O19253   1.122   7.503   6.744 -0.2726  0.4051  0.7083
  884MOL0     C19254   1.239   7.321   7.041 -0.1974  0.7585  0.6757
  884MOL0     C19255   1.354   7.276   7.098 -0.4120 -0.5815  0.0313
  884MOL0     N19256   1.951   6.939   6.726 -0.3105  0.7796 -0.2039
  884MOL0     N19257   2.061   6.982   6.663 -0.1688  0.2402  0.6407
  884MOL0     C19258   3.255   7.081   6.977  0.7381  0.1813  1.1269
  884MOL0     C19259   3.343   7.085   7.084 -0.2289 -0.4526  1.3017
  884MOL0     C19260   3.688   7.156   7.364 -0.3727  0.8220  0.6042
  884MOL0     C19261   3.803   7.091   7.326  0.0620  0.2846  0.2581
  884MOL0     C19262   3.922   7.121   7.396  0.8793  0.1391  0.1479
  884MOL0     C19263   3.926   7.194   7.514  0.3095  0.3842 -0.1916
  884MOL0     O19264   4.048   7.218   7.582  0.3157  0.0139 -0.2811
  884MOL0     C19265   4.061   7.142   7.703 -0.1009 -0.4186  0.5038
  884MOL0     C19266   4.211   7.152   7.751 -0.2482  0.3578 -0.7219
  884MOL0     C19267   4.304   7.060   7.661 -0.3056  0.8776  0.0388
  884MOL0     C19268   4.452   7.094   7.655 -0.2217 -0.4569 -0.4221
  884MOL0     C19269   4.518   7.104   7.787  0.1898 -0.1945 -0.4876
  884MOL0     C19270   4.583   7.091   7.891 -0.7371  0.2814 -0.1679
  884MOL0     C19271   3.810   7.263   7.544 -0.3963  0.5323  0.1977
  884MOL0     C19272   3.692   7.239   7.476  1.0938  0.1083  0.0386
  884MOL0     H19273   3.627   7.145   6.918  0.5797 -0.9240  3.3798
  884MOL0     H19274   3.461   7.139   6.714  1.2058 -3.7608  0.4286
  884MOL0     H19275   3.111   6.914   6.802  2.5789 -0.9752 -1.1057
  884MOL0     H19276   3.018   7.062   6.830  2.0904 -0.2690  0.7799
  884MOL0     H19277   2.990   7.089   6.573  0.2539 -0.7170 -3.2661
  884MOL0     H19278   3.067   6.946   6.544  0.3290  2.1077 -0.9177
  884MOL0     H19279   2.819   6.896   6.544 -0.5988 -0.5201  0.6398
  884MOL0     H19280   2.873   6.851   6.707  1.5501  0.5360 -0.1684
  884MOL0     H19281   2.796   7.089   6.778  1.8490  2.0397 -1.4036
  884MOL0     H19282   2.759   7.124   6.614 -1.1051 -0.2271  1.1280
  884MOL0     H19283   2.601   6.935   6.604  0.7877 -2.4256  0.1304
  884MOL0     H19284   2.632   6.908   6.779  1.6867  0.2956  0.0540
  884MOL0     H19285   2.547   7.152   6.814  0.6934 -1.2602  0.0998
  884MOL0     H19286   2.509   7.153   6.641  1.2403  0.9679  0.7639
  884MOL0     H19287   2.367   6.939   6.665 -1.0647  2.2318 -4.1595
  884MOL0     H19288   2.375   6.975   6.848 -0.9569  0.9191 -0.2556
  884MOL0     H19289   2.258   7.149   6.615  1.1223 -2.0932 -1.1363
  884MOL0     H19290   2.278   7.203   6.783 -1.9354  0.1252 -0.1539
  884MOL0     H19291   2.098   7.109   6.962 -2.6191 -2.1124  1.7421
  884MOL0     H19292   1.767   6.898   6.907  0.7171 -2.0281  0.5546
  884MOL0     H19293   1.910   6.856   7.018  1.3880  0.8220  0.1851
  884MOL0     H19294   1.918   7.090   7.079  0.7153 -0.3648 -2.4995
  884MOL0     H19295   1.756   7.023   7.135  1.5740  1.5831  2.7307
  884MOL0     H19296   1.669   7.110   6.929  0.4536 -2.5361  1.8773
  884MOL0     H19297   1.808   7.221   6.910 -1.4524  1.6141 -1.0445
  884MOL0     H19298   1.713   7.365   7.010 -0.0735 -0.5241  0.0113
  884MOL0     H19299   1.785   7.274   7.155 -1.1827 -0.5747  1.5517
  884MOL0     H19300   1.567   7.336   6.849  0.2739 -1.6791 -0.3267
  884MOL0     H19301   1.317   7.376   6.643  0.0787 -2.8888  2.1748
  884MOL0     H19302   1.384   7.537   6.706  3.1899  0.4908 -2.0305
  884MOL0     H19303   1.495   7.410   6.677  0.5296  1.6176  1.8254
  884MOL0     H19304   0.765   7.289   6.931  1.7192 -0.6556  0.3124
  884MOL0     H19305   0.552   7.382   6.908  0.2309  0.5321  1.2165
  884MOL0     H19306   0.535   7.816   6.969  0.9619  1.6866 -2.2361
  884MOL0     H19307   0.521   7.824   6.802 -0.8535  0.7642 -0.0856
  884MOL0     H19308   0.269   7.760   6.980 -3.1470 -2.3050 -2.1037
  884MOL0     H19309   0.335   7.913   6.904 -1.0877  0.1231 -1.0290
  884MOL0     H19310   0.267   7.652   6.764  2.9244  0.3567 -0.2926
  884MOL0     H19311   0.309   7.797   6.682 -1.5692  1.0442 -0.2821
  884MOL0     H19312   0.063   7.768   6.876  1.4086 -0.0571  0.3599
  884MOL0     H19313   0.112   7.914   6.793 -1.7570  0.0456 -0.0692
  884MOL0     H19314   0.056   7.637   6.651  2.7325  0.0098  3.2577
  884MOL0     H19315   0.066   7.792   6.570 -1.8866  0.3025  0.0254
  884MOL0     H19316  -0.142   7.701   6.776 -0.8638 -1.8347 -0.9548
  884MOL0     H19317  -0.136   7.866   6.718 -0.4545  1.0502 -1.8863
  884MOL0     H19318  -0.131   7.684   6.501  2.0886  3.3456  0.5679
  884MOL0     H19319  -0.229   7.827   6.522  1.1030 -1.1177 -3.7339
  884MOL0     H19320  -0.283   7.549   6.628 -0.4151 -0.2982  0.1115
  884MOL0     H19321  -0.383   7.636   6.499  1.5773 -1.4469 -0.7051
  884MOL0     H19322   0.727   7.780   6.884 -3.8349 -1.7228 -3.9518
  884MOL0     H19323   0.952   7.688   6.899  1.1460 -0.5936 -1.4232
  884MOL0     H19324   1.149   7.312   7.101 -0.6818  2.2431  0.2155
  884MOL0     H19325   1.350   7.235   7.199  1.5486 -0.0142  0.3951
  884MOL0     H19326   3.152   7.052   6.997  1.2275 -0.8301  2.3136
  884MOL0     H19327   3.305   7.076   7.185 -1.4866  1.9094  1.1249
  884MOL0     H19328   3.807   7.034   7.233  1.5179  0.8375 -0.0436
  884MOL0     H19329   4.014   7.068   7.377  0.6806 -1.1443  2.3527
  884MOL0     H19330   3.995   7.184   7.780  0.3930 -1.8387  1.7530
  884MOL0     H19331   4.050   7.034   7.695  2.6674 -0.7442 -0.0493
  884MOL0     H19332   4.222   7.111   7.852 -1.2389 -1.2211 -1.2099
  884MOL0     H19333   4.251   7.254   7.746 -0.1062  0.2373 -2.5146
  884MOL0     H19334   4.261   7.074   7.561 -0.1129 -0.4093 -0.2372
  884MOL0     H19335   4.294   6.953   7.678 -1.2446  0.8263 -0.7464
  884MOL0     H19336   4.467   7.188   7.602 -1.8064  0.5553  0.8302
  884MOL0     H19337   4.504   7.014   7.602 -0.1051 -1.6991  1.4436
  884MOL0     H19338   4.637   7.103   7.983  1.6795 -0.9038 -1.3348
  884MOL0     H19339   3.807   7.344   7.616  3.3749  1.7000 -0.6973
  884MOL0     H19340   3.599   7.286   7.508 -0.3372 -1.5046 -1.5100
  885MOL0     O19341  10.240   1.035   8.923 -0.2648  1.2202 -1.0237
  885MOL0     C19342  10.277   0.960   9.020  0.3449 -0.2577  0.1699
  885MOL0     O19343  10.195   0.869   9.085  0.1226  0.4393 -0.0500
  885MOL0     C19344  10.059   0.876   9.079  0.2691 -0.1717 -0.1883
  885MOL0     C19345   9.977   0.924   8.974 -0.4074 -0.8325 -0.1763
  885MOL0     C19346   9.834   0.907   8.987  0.7233 -0.5900  0.0507
  885MOL0     C19347   9.773   0.852   9.097 -0.4721  0.3541  0.5734
  885MOL0     O19348   9.634   0.842   9.108 -0.7281  0.3138  0.4982
  885MOL0     C19349   9.587   0.822   9.242 -0.3477  0.1781  0.6523
  885MOL0     C19350   9.437   0.851   9.245 -0.2300  0.1474  0.0943
  885MOL0     C19351   9.363   0.756   9.160  0.2282  0.3386  0.0701
  885MOL0     C19352   9.207   0.773   9.164 -0.8204 -0.5174  0.0975
  885MOL0     C19353   9.151   0.654   9.081  0.1406  0.0629  1.1587
  885MOL0     C19354   9.001   0.635   9.097 -0.3534  0.2913 -0.7844
  885MOL0     C19355   8.923   0.767   9.112 -0.5147 -0.5347  0.0621
  885MOL0     C19356   8.777   0.760   9.084 -0.2390  0.5479 -0.4906
  885MOL0     N19357   8.701   0.688   9.182 -0.3802 -0.3007 -0.0247
  885MOL0     C19358   8.684   0.740   9.308  0.0469  0.5702 -0.6109
  885MOL0     C19359   8.602   0.646   9.363  0.2463  0.0075 -0.4950
  885MOL0     C19360   8.514   0.643   9.490  0.2788  0.1621  0.1503
  885MOL0     C19361   8.407   0.752   9.477  0.1611 -0.3873 -0.3268
  885MOL0     C19362   8.317   0.737   9.354  0.5146 -0.0173 -0.3968
  885MOL0     C19363   8.218   0.846   9.351  0.2803  0.3151  0.8261
  885MOL0     O19364   8.099   0.819   9.420  0.5050 -0.0573 -0.9130
  885MOL0     C19365   8.028   0.922   9.478  0.0683  0.5884 -0.7483
  885MOL0     C19366   8.002   1.037   9.414  0.2210 -0.0581 -0.0740
  885MOL0     C19367   7.941   1.147   9.475 -0.3198 -0.0367 -0.0311
  885MOL0     C19368   7.890   1.257   9.390  0.5344 -0.1635 -0.4746
  885MOL0     C19369   7.918   1.138   9.616  0.1849  0.1235  1.0461
  885MOL0     C19370   7.848   1.248   9.691 -0.8208  0.0408 -0.8225
  885MOL0     O19371   7.777   1.348   9.631 -0.6899 -0.5806  0.9859
  885MOL0     C19372   7.713   1.444   9.697  0.0517 -0.3035 -0.5253
  885MOL0     C19373   7.612   1.513   9.638  0.4598  0.1474  0.6252
  885MOL0     C19374   7.540   1.611   9.699  0.0342  0.1036  0.6875
  885MOL0     C19375   7.582   1.651   9.819 -0.1823 -0.7326  0.4160
  885MOL0     O19376   7.527   1.754   9.892  0.1266 -0.0106  0.3302
  885MOL0     C19377   7.393   1.787   9.860  0.5518  0.1393 -0.1971
  885MOL0     C19378   7.356   1.892   9.963  0.8018  0.4141  0.4946
  885MOL0     C19379   7.229   1.969   9.925  0.1613  0.6863 -0.0833
  885MOL0     C19380   7.107   1.885   9.885 -0.4179 -0.0973 -0.2770
  885MOL0     C19381   6.979   1.968   9.877 -0.0580  0.0285 -0.7189
  885MOL0     C19382   6.908   1.984  10.015 -0.2668 -1.0963 -0.2005
  885MOL0     C19383   6.780   2.063  10.006  0.5807  0.5249  0.5047
  885MOL0     C19384   6.705   2.084  10.139  0.8826 -0.1043 -0.0792
  885MOL0    Cl19385   6.655   1.916  10.189  0.5256  0.6528 -0.4483
  885MOL0     C19386   7.694   1.602   9.880 -0.3186 -0.0652  0.4437
  885MOL0     C19387   7.761   1.490   9.819  0.4409  0.7963 -0.7003
  885MOL0     O19388   7.859   1.229   9.814 -0.3219  0.2192 -0.0649
  885MOL0     C19389   7.938   1.010   9.681 -0.5249  0.1711  0.0872
  885MOL0     C19390   7.983   0.899   9.610 -0.3069 -0.4365  1.6620
  885MOL0     N19391   8.590   0.534   9.270  0.4871  0.3989  0.5119
  885MOL0     N19392   8.632   0.572   9.156  0.0614 -0.0613  0.3801
  885MOL0     C19393   9.859   0.812   9.198  0.8590  0.2444  0.0097
  885MOL0     C19394   9.999   0.827   9.192  0.4171 -0.0304 -0.1941
  885MOL0     C19395  10.421   0.977   9.062 -0.2817  1.3003 -0.8490
  885MOL0     C19396  10.481   0.880   9.155  0.7375  0.8283 -0.4158
  885MOL0     C19397  10.612   0.891   9.204  0.1602  0.3153  0.5200
  885MOL0     C19398  10.697   0.993   9.160  0.9469 -0.2595 -0.8857
  885MOL0     O19399  10.831   1.008   9.175 -0.0460  0.5999  0.0894
  885MOL0     C19400  10.886   0.923   9.276 -0.0934  0.4641  0.3437
  885MOL0     C19401  11.034   0.948   9.310 -0.6167  0.3190  0.7162
  885MOL0     C19402  11.059   1.059   9.410  0.0557  0.3836  0.7530
  885MOL0     C19403  11.032   1.039   9.561  0.0446  0.0993 -0.3863
  885MOL0     C19404  11.149   0.992   9.634 -0.3513  0.0513  0.1558
  885MOL0     C19405  11.243   0.931   9.690 -0.3072 -0.4028  0.4934
  885MOL0     C19406  10.639   1.087   9.062  0.4720 -0.1577 -0.1815
  885MOL0     C19407  10.511   1.074   9.015  0.2069 -0.5267 -0.2359
  885MOL0     H19408  10.023   0.974   8.890  2.3858 -1.7866  0.6459
  885MOL0     H19409   9.773   0.945   8.906  0.0744  0.1502  0.8563
  885MOL0     H19410   9.603   0.719   9.274  1.5117 -0.5135 -2.1500
  885MOL0     H19411   9.624   0.893   9.317  3.0447  1.1179 -1.6612
  885MOL0     H19412   9.399   0.840   9.347  2.3278  2.4822  1.4426
  885MOL0     H19413   9.426   0.957   9.219  1.5605  0.0834 -1.1697
  885MOL0     H19414   9.399   0.773   9.058  3.3676 -0.6154  0.9106
  885MOL0     H19415   9.388   0.654   9.189 -0.4656 -0.2194 -1.2436
  885MOL0     H19416   9.167   0.762   9.266  1.2749 -0.4982  0.9602
  885MOL0     H19417   9.187   0.875   9.129  2.0068  0.7346  1.7954
  885MOL0     H19418   9.160   0.677   8.974 -1.8919 -0.4431  0.8455
  885MOL0     H19419   9.203   0.562   9.109 -0.7713  0.0061  2.7787
  885MOL0     H19420   8.968   0.574   9.013  2.3653  1.2222 -2.6632
  885MOL0     H19421   8.987   0.570   9.184 -1.0377 -0.1541 -1.2214
  885MOL0     H19422   8.947   0.811   9.210  1.2183  0.8116 -0.8977
  885MOL0     H19423   8.968   0.837   9.041  2.2007 -3.0442 -0.9139
  885MOL0     H19424   8.747   0.721   8.986 -3.0051 -0.8934  0.8226
  885MOL0     H19425   8.738   0.862   9.084  0.3448  0.7847 -1.2047
  885MOL0     H19426   8.718   0.832   9.353  2.9884  0.0454 -1.5951
  885MOL0     H19427   8.472   0.542   9.497 -4.0921  1.7690 -0.0812
  885MOL0     H19428   8.574   0.647   9.581  0.9494 -0.1122 -0.2661
  885MOL0     H19429   8.451   0.852   9.483 -0.4784 -0.1684  2.4581
  885MOL0     H19430   8.349   0.726   9.567 -1.3371  1.7653 -0.5924
  885MOL0     H19431   8.277   0.635   9.360  3.0633 -1.1027 -0.4072
  885MOL0     H19432   8.379   0.736   9.263  1.0693 -1.2509 -0.0337
  885MOL0     H19433   8.192   0.859   9.246 -0.4318  3.4394  1.3117
  885MOL0     H19434   8.256   0.938   9.396 -2.6292  1.3806  1.2581
  885MOL0     H19435   8.030   1.041   9.309 -2.6976 -1.5726 -1.0170
  885MOL0     H19436   7.783   1.240   9.398  0.6644 -0.4800  0.9495
  885MOL0     H19437   7.917   1.359   9.422  1.1979 -1.1344  2.3892
  885MOL0     H19438   7.923   1.251   9.286  0.4391  1.5069 -0.6403
  885MOL0     H19439   7.582   1.492   9.536  0.1461 -0.8589  0.9070
  885MOL0     H19440   7.457   1.662   9.651  0.1089  0.2003  0.6582
  885MOL0     H19441   7.380   1.841   9.767 -1.2536  2.1064  1.0955
  885MOL0     H19442   7.324   1.702   9.868  1.6396 -0.6641  1.3959
  885MOL0     H19443   7.343   1.846  10.061  1.0472  0.4525  0.5460
  885MOL0     H19444   7.438   1.964   9.973  0.5668  0.8108 -0.3194
  885MOL0     H19445   7.253   2.045   9.852  4.3640  0.2058  0.5878
  885MOL0     H19446   7.205   2.015  10.021 -0.6224 -0.5731  0.3610
  885MOL0     H19447   7.119   1.836   9.788 -1.2231 -3.7546  1.3018
  885MOL0     H19448   7.078   1.813   9.962 -0.8289 -1.0920 -1.3288
  885MOL0     H19449   6.912   1.913   9.811  0.8364 -0.1581 -1.5018
  885MOL0     H19450   6.994   2.070   9.839  0.4758 -0.0018 -0.6035
  885MOL0     H19451   6.889   1.887  10.060  1.4814 -0.9501  0.9372
  885MOL0     H19452   6.981   2.034  10.080 -2.1152  0.4599  0.7851
  885MOL0     H19453   6.726   2.004   9.931  2.2713  1.9332 -1.9713
  885MOL0     H19454   6.802   2.157   9.955  2.4960 -0.2650 -0.2507
  885MOL0     H19455   6.620   2.149  10.115  0.8322 -0.1785 -0.1010
  885MOL0     H19456   6.765   2.124  10.221 -0.6710  2.5673 -0.1083
  885MOL0     H19457   7.737   1.644   9.971 -0.9698 -0.9445  1.1759
  885MOL0     H19458   7.845   1.444   9.870  0.2243  2.4868  1.3021
  885MOL0     H19459   7.929   1.005   9.789  0.6697 -1.1334  0.1489
  885MOL0     H19460   8.011   0.810   9.666 -3.6846 -0.2370  4.0198
  885MOL0     H19461   9.830   0.787   9.300  0.1441 -1.2730 -0.5421
  885MOL0     H19462  10.056   0.802   9.281  1.5547 -0.7641 -1.1101
  885MOL0     H19463  10.429   0.804   9.213  3.9882 -0.4695  1.1109
  885MOL0     H19464  10.648   0.810   9.267  2.4802  2.1869  1.7636
  885MOL0     H19465  10.828   0.945   9.367  0.0372 -2.6200  1.3033
  885MOL0     H19466  10.862   0.820   9.246 -0.3952  0.6679 -0.1278
  885MOL0     H19467  11.086   0.968   9.216  0.4068  1.3290  1.4715
  885MOL0     H19468  11.081   0.860   9.354 -1.2461 -0.4706 -0.1560
  885MOL0     H19469  11.004   1.149   9.382 -2.8539 -0.6977  2.5078
  885MOL0     H19470  11.165   1.080   9.395 -0.1936  0.4076 -1.2771
  885MOL0     H19471  10.945   0.975   9.578  0.4874 -0.3604  0.1612
  885MOL0     H19472  11.005   1.133   9.609  0.7403 -1.4522  3.3555
  885MOL0     H19473  11.319   0.873   9.738 -1.5413 -1.2418  1.5156
  885MOL0     H19474  10.695   1.171   9.023  0.6134  0.9994  2.3482
  885MOL0     H19475  10.488   1.138   8.931 -0.0627  0.6481  0.7148
  886MOL0     O19476   5.610   6.924   7.377 -0.1442 -0.5689  0.4525
  886MOL0     C19477   5.638   7.023   7.451  0.1113  0.8356  0.5042
  886MOL0     O19478   5.563   7.137   7.466 -0.6196  0.1481 -0.4255
  886MOL0     C19479   5.463   7.171   7.372  0.0387 -0.3241 -0.2331
  886MOL0     C19480   5.470   7.293   7.301  0.4124 -0.3356 -0.4303
  886MOL0     C19481   5.381   7.342   7.206  0.1848 -0.0645 -0.6041
  886MOL0     C19482   5.276   7.260   7.175 -0.0716 -0.2736 -0.5065
  886MOL0     O19483   5.177   7.305   7.096 -0.1154  0.2252 -0.2627
  886MOL0     C19484   5.065   7.227   7.062  0.3474 -0.2855 -0.3880
  886MOL0     C19485   4.980   7.313   6.970 -0.9448 -0.0851  1.1174
  886MOL0     C19486   4.945   7.219   6.848  0.1805  0.3547 -0.2681
  886MOL0     C19487   5.047   7.197   6.733  0.1546 -0.3867  0.3410
  886MOL0     C19488   5.058   7.325   6.643 -0.5960 -0.1867  0.1107
  886MOL0     C19489   5.142   7.295   6.520 -0.1495  0.6045 -0.0792
  886MOL0     C19490   5.163   7.435   6.455  0.4091 -0.1833 -0.0029
  886MOL0     C19491   5.167   7.429   6.303  0.2979  0.3899  0.6274
  886MOL0     N19492   5.045   7.377   6.236 -0.4397 -0.2321  0.6733
  886MOL0     C19493   4.923   7.410   6.265  0.3245 -0.8950  0.0503
  886MOL0     C19494   4.836   7.354   6.173 -0.7240  0.5210 -0.1466
  886MOL0     C19495   4.688   7.366   6.147 -0.1638 -0.3371  0.2654
  886MOL0     C19496   4.602   7.280   6.242 -0.5224  0.0989  0.4467
  886MOL0     C19497   4.643   7.302   6.384 -0.5147  0.0623 -1.2790
  886MOL0     C19498   4.550   7.237   6.488 -0.2819  0.1494 -0.7759
  886MOL0     O19499   4.491   7.121   6.430 -0.4382 -0.1153 -1.0278
  886MOL0     C19500   4.385   7.065   6.496 -0.0206  0.5482  1.3078
  886MOL0     C19501   4.339   6.939   6.455  0.3311 -0.5106  0.2640
  886MOL0     C19502   4.228   6.876   6.520 -0.1850 -0.1237 -0.8463
  886MOL0     C19503   4.188   6.738   6.465  0.2735 -0.6811 -0.0614
  886MOL0     C19504   4.166   6.934   6.635  0.1456 -1.1093  0.2906
  886MOL0     C19505   4.045   6.884   6.700 -0.0835 -0.6599 -0.4397
  886MOL0     O19506   4.035   6.903   6.838  0.4418 -0.6950  0.6191
  886MOL0     C19507   3.918   6.868   6.906 -0.2433  0.1164  0.5632
  886MOL0     C19508   3.787   6.867   6.846  0.8769 -0.1142 -0.1429
  886MOL0     C19509   3.676   6.831   6.927 -0.2765 -0.0156  0.4177
  886MOL0     C19510   3.693   6.802   7.058 -0.2678 -0.6486  0.2268
  886MOL0     O19511   3.588   6.788   7.147 -0.2409  0.1612 -0.2221
  886MOL0     C19512   3.451   6.755   7.098 -0.4231 -0.8864  0.9623
  886MOL0     C19513   3.354   6.797   7.213  1.1979  0.2947 -0.2481
  886MOL0     C19514   3.333   6.693   7.329  0.6214 -0.2593 -0.5966
  886MOL0     C19515   3.215   6.718   7.433  0.8809  0.3739  0.2576
  886MOL0     C19516   3.227   6.608   7.535 -0.1981  0.2614  0.2726
  886MOL0     C19517   3.107   6.596   7.620 -0.1988  0.4697  0.5960
  886MOL0     C19518   3.001   6.506   7.542  0.3256 -0.4506  0.1517
  886MOL0     C19519   2.856   6.511   7.606 -0.2311  0.0158  0.4746
  886MOL0    Cl19520   2.742   6.413   7.505  0.0766 -0.3719 -0.6309
  886MOL0     C19521   3.825   6.804   7.112  0.5422 -0.4038  0.2856
  886MOL0     C19522   3.938   6.835   7.043  0.2201 -0.1320  0.8801
  886MOL0     O19523   3.973   6.823   6.625  0.3698  0.2699 -0.7917
  886MOL0     C19524   4.224   7.056   6.684  0.0855  0.4258  0.0132
  886MOL0     C19525   4.327   7.117   6.611  0.3862 -0.5547  0.5503
  886MOL0     N19526   4.922   7.282   6.083  0.5911 -0.7799 -0.2546
  886MOL0     N19527   5.045   7.307   6.119 -0.8328  0.4002  0.5319
  886MOL0     C19528   5.259   7.143   7.252  0.5980  0.3790 -0.1479
  886MOL0     C19529   5.352   7.093   7.344  0.3152 -0.6559 -0.1992
  886MOL0     C19530   5.764   7.017   7.534 -0.4217  0.1107 -0.2743
  886MOL0     C19531   5.788   7.111   7.635 -0.7931 -0.0449  0.0622
  886MOL0     C19532   5.889   7.092   7.725  0.4213  0.6127  0.4233
  886MOL0     C19533   5.966   6.974   7.716  0.0752 -0.2361 -0.8039
  886MOL0     O19534   6.071   6.954   7.809  0.2715  0.0387  0.2870
  886MOL0     C19535   6.111   7.056   7.903  0.0520  0.4782 -0.4388
  886MOL0     C19536   6.241   7.007   7.968 -0.3081  0.2288 -0.3519
  886MOL0     C19537   6.307   7.111   8.065 -0.1300 -0.2364  0.2793
  886MOL0     C19538   6.439   7.070   8.101 -0.4805 -0.6393  0.2902
  886MOL0     C19539   6.490   7.162   8.202  0.2676  0.1508  0.0775
  886MOL0     C19540   6.526   7.243   8.280  0.2323 -0.3173  0.4315
  886MOL0     C19541   5.941   6.876   7.617 -0.3585 -0.6441  0.2252
  886MOL0     C19542   5.847   6.906   7.525 -0.6173  0.0908 -0.0761
  886MOL0     H19543   5.553   7.358   7.327 -0.6691  0.6590  0.7207
  886MOL0     H19544   5.394   7.441   7.163 -0.1295  0.8829  1.3955
  886MOL0     H19545   5.094   7.132   7.018  3.8571  0.1951  0.5936
  886MOL0     H19546   5.007   7.209   7.153 -1.0493  1.5802 -0.8504
  886MOL0     H19547   4.888   7.364   7.000 -1.2376  0.0726 -0.0172
  886MOL0     H19548   5.038   7.398   6.933 -0.6522 -0.2436  1.2078
  886MOL0     H19549   4.907   7.123   6.886  0.4371 -0.0457 -0.9923
  886MOL0     H19550   4.862   7.259   6.788  0.4851  0.9326 -0.3118
  886MOL0     H19551   5.142   7.161   6.774 -0.3828  0.5912  2.5931
  886MOL0     H19552   5.009   7.117   6.668 -0.0961 -0.4462  0.5588
  886MOL0     H19553   4.958   7.340   6.602 -0.3568  0.1584 -0.3680
  886MOL0     H19554   5.086   7.416   6.697 -4.1566 -0.7951  3.4159
  886MOL0     H19555   5.238   7.252   6.550 -0.9482  0.0778  1.8666
  886MOL0     H19556   5.082   7.234   6.451 -0.1863  2.4064 -1.7100
  886MOL0     H19557   5.073   7.493   6.477 -0.7030 -2.0996  0.7686
  886MOL0     H19558   5.250   7.492   6.487  0.6868 -0.6532  0.0916
  886MOL0     H19559   5.238   7.351   6.273 -1.6733 -1.5866  0.7562
  886MOL0     H19560   5.184   7.531   6.269  0.3698  0.3826  0.6403
  886MOL0     H19561   4.892   7.476   6.346  1.7364  3.2573 -2.4785
  886MOL0     H19562   4.664   7.473   6.151 -0.1313 -0.3673  2.9522
  886MOL0     H19563   4.677   7.333   6.043  3.0385  1.3633 -0.7390
  886MOL0     H19564   4.600   7.175   6.212  0.4111  0.5154 -1.2156
  886MOL0     H19565   4.500   7.318   6.248 -0.4451  0.1064  1.9867
  886MOL0     H19566   4.660   7.408   6.407  5.0402 -0.3763 -1.9857
  886MOL0     H19567   4.741   7.255   6.400 -0.8694 -0.7380 -1.4322
  886MOL0     H19568   4.476   7.306   6.527 -1.9819 -1.8889 -0.2433
  886MOL0     H19569   4.616   7.201   6.567 -0.7928 -5.1958 -2.3714
  886MOL0     H19570   4.394   6.884   6.379  0.4757 -2.1028  1.4859
  886MOL0     H19571   4.261   6.708   6.390  0.2758 -2.8720  0.7350
  886MOL0     H19572   4.187   6.659   6.541 -1.7356 -1.0764 -0.4395
  886MOL0     H19573   4.090   6.743   6.416  0.1491 -0.7336  0.1776
  886MOL0     H19574   3.771   6.893   6.742  0.7122 -2.0451 -0.6506
  886MOL0     H19575   3.576   6.829   6.884 -1.0565  0.0805  2.1216
  886MOL0     H19576   3.428   6.808   7.006  0.4948  0.2510  1.3593
  886MOL0     H19577   3.447   6.648   7.076 -1.7870 -0.7079  0.2415
  886MOL0     H19578   3.376   6.894   7.260 -0.5004  0.3357  0.5343
  886MOL0     H19579   3.259   6.806   7.159  0.1427  0.7397  1.6172
  886MOL0     H19580   3.427   6.678   7.381  0.7312  1.3737 -0.2550
  886MOL0     H19581   3.314   6.599   7.277  0.9370 -1.3368  1.1807
  886MOL0     H19582   3.223   6.813   7.488 -2.2057  0.6293  0.4488
  886MOL0     H19583   3.117   6.717   7.384  0.8296  4.6078 -0.1293
  886MOL0     H19584   3.312   6.631   7.599 -0.7424 -0.3237  1.2233
  886MOL0     H19585   3.246   6.511   7.490  0.9332  0.7015 -0.2419
  886MOL0     H19586   3.128   6.547   7.715 -1.4604  2.1930  1.8185
  886MOL0     H19587   3.064   6.694   7.639  0.7938  0.9042  0.6528
  886MOL0     H19588   3.041   6.404   7.543 -0.3352 -0.7118 -0.0788
  886MOL0     H19589   2.997   6.546   7.441  1.1638  2.2858  1.1154
  886MOL0     H19590   2.821   6.614   7.608 -0.8297 -0.1711 -0.0091
  886MOL0     H19591   2.854   6.470   7.708 -0.1163  0.5082  0.6758
  886MOL0     H19592   3.827   6.779   7.218  0.2454  1.5764  0.8033
  886MOL0     H19593   4.040   6.841   7.082  0.3192 -2.2084  1.0384
  886MOL0     H19594   4.173   7.095   6.771 -1.0412 -1.9661  0.5211
  886MOL0     H19595   4.357   7.209   6.660  0.1695  0.3581 -0.9628
  886MOL0     H19596   5.173   7.078   7.234  1.0696  0.1026 -1.5349
  886MOL0     H19597   5.347   7.001   7.400  1.0001  1.1920  3.1640
  886MOL0     H19598   5.725   7.199   7.642  1.0236  1.2424  0.9961
  886MOL0     H19599   5.898   7.154   7.813  2.4797 -1.1501  1.5447
  886MOL0     H19600   6.150   7.144   7.850 -0.6174 -0.5294 -2.7618
  886MOL0     H19601   6.033   7.086   7.973  2.1027  3.1188  0.9137
  886MOL0     H19602   6.320   6.989   7.895  2.2734  1.4241  1.9789
  886MOL0     H19603   6.226   6.911   8.019 -1.5353 -1.6890 -3.9844
  886MOL0     H19604   6.239   7.119   8.151 -0.1435  0.3266  0.2193
  886MOL0     H19605   6.301   7.211   8.020  0.7612 -0.9027 -1.3866
  886MOL0     H19606   6.495   7.066   8.008 -2.8540 -3.5435 -1.1831
  886MOL0     H19607   6.452   6.976   8.155  0.2864 -0.0039  1.2483
  886MOL0     H19608   6.575   7.316   8.342  0.3552  0.1527 -0.2142
  886MOL0     H19609   6.002   6.787   7.631  0.6115  0.1786  1.4450
  886MOL0     H19610   5.825   6.829   7.453 -0.9823 -0.3458  0.4993
  887MOL0     O19611   4.129   9.843   9.318  0.1880  0.4340 -0.3405
  887MOL0     C19612   4.199   9.834   9.421  0.0189  0.0744 -0.3771
  887MOL0     O19613   4.145   9.833   9.542 -0.6416 -0.6901  0.4401
  887MOL0     C19614   4.016   9.786   9.543  0.6802 -0.5626  0.4490
  887MOL0     C19615   3.901   9.867   9.516  1.0375 -0.2706 -0.6825
  887MOL0     C19616   3.770   9.815   9.510 -0.2234 -0.5211  0.5785
  887MOL0     C19617   3.743   9.687   9.551 -0.5804 -0.1381 -0.1295
  887MOL0     O19618   3.618   9.634   9.555 -0.1889  0.2949 -0.9363
  887MOL0     C19619   3.495   9.722   9.571 -0.4486 -0.4800 -0.5469
  887MOL0     C19620   3.373   9.630   9.548  0.0127 -0.2971 -0.6310
  887MOL0     C19621   3.353   9.540   9.672  0.5843  0.4935  0.4889
  887MOL0     C19622   3.224   9.456   9.645  0.5293 -0.5048 -0.1032
  887MOL0     C19623   3.195   9.358   9.755  0.8048  0.2533 -0.6892
  887MOL0     C19624   3.275   9.234   9.730  1.4258  0.1674  1.8251
  887MOL0     C19625   3.241   9.124   9.824  0.5114  0.5995 -0.1440
  887MOL0     C19626   3.349   9.016   9.794  0.3031  0.0626  0.5618
  887MOL0     N19627   3.286   8.912   9.711 -1.0027 -0.4994 -0.7164
  887MOL0     C19628   3.234   8.795   9.759  0.4923  0.0704  0.5163
  887MOL0     C19629   3.181   8.736   9.647 -0.1718  0.6453 -0.4757
  887MOL0     C19630   3.095   8.618   9.633 -0.5687  1.1716  0.0063
  887MOL0     C19631   2.946   8.640   9.658  0.2237  0.1282 -0.2261
  887MOL0     C19632   2.921   8.660   9.804 -0.5232  0.5522 -0.0294
  887MOL0     C19633   2.769   8.697   9.826 -0.2409  0.4114  0.0506
  887MOL0     O19634   2.704   8.572   9.844 -0.2281  0.3006 -0.4941
  887MOL0     C19635   2.570   8.564   9.894 -0.2642  0.5450 -0.5103
  887MOL0     C19636   2.486   8.676   9.900  0.3424  1.0660  0.0159
  887MOL0     C19637   2.364   8.670   9.960  0.0208 -0.5970  0.1009
  887MOL0     C19638   2.295   8.800   9.984 -0.6675 -0.7454 -0.7205
  887MOL0     C19639   2.310   8.550  10.013  0.3438  0.2282 -0.1451
  887MOL0     C19640   2.167   8.537  10.071  0.7568  0.1632 -0.0619
  887MOL0     O19641   2.082   8.648  10.073  0.3929  0.5859 -0.8143
  887MOL0     C19642   1.963   8.654  10.131  0.0434  0.5998  0.2569
  887MOL0     C19643   1.868   8.563  10.096  0.2201  0.6422  0.1337
  887MOL0     C19644   1.734   8.583  10.133  0.3763  0.3070 -0.2797
  887MOL0     C19645   1.701   8.684  10.227 -0.0917 -0.1435 -0.5347
  887MOL0     O19646   1.575   8.685  10.290  0.2150  0.6712  0.7092
  887MOL0     C19647   1.553   8.787  10.386  0.0125  0.2488 -0.8307
  887MOL0     C19648   1.409   8.799  10.436  0.2016  0.2846 -0.3364
  887MOL0     C19649   1.351   8.675  10.500  0.0116 -0.5426  0.0296
  887MOL0     C19650   1.378   8.668  10.650  0.8940  0.0037 -0.7413
  887MOL0     C19651   1.285   8.551  10.706 -0.4438 -0.9444  0.2225
  887MOL0     C19652   1.144   8.602  10.732  0.7691  0.0670  0.5431
  887MOL0     C19653   1.020   8.507  10.713 -0.0395  0.7101 -0.8120
  887MOL0     C19654   1.061   8.380  10.793  0.0554  0.2484  0.1414
  887MOL0    Cl19655   1.097   8.415  10.972  0.0267  0.3587  0.0470
  887MOL0     C19656   1.806   8.773  10.268 -0.8974 -0.7494 -0.3050
  887MOL0     C19657   1.931   8.763  10.205 -0.4063  0.3792 -0.7686
  887MOL0     O19658   2.140   8.426  10.116  0.2846  0.4336 -0.3894
  887MOL0     C19659   2.394   8.433   9.987  0.4694  0.6626 -0.4297
  887MOL0     C19660   2.526   8.440   9.931  0.3577 -0.3952  0.3058
  887MOL0     N19661   3.213   8.821   9.537  0.2295  0.7734 -0.6384
  887MOL0     N19662   3.268   8.926   9.578 -0.0115  0.3986  0.2025
  887MOL0     C19663   3.854   9.612   9.583  1.3395 -0.6886 -0.3339
  887MOL0     C19664   3.990   9.656   9.580  0.3900  0.4303  0.4127
  887MOL0     C19665   4.345   9.846   9.401 -0.4956 -0.2229 -0.1382
  887MOL0     C19666   4.415   9.795   9.292 -0.3362  0.2275  0.0757
  887MOL0     C19667   4.555   9.804   9.281  0.1762 -0.2366 -0.0845
  887MOL0     C19668   4.639   9.847   9.383 -0.1819 -0.2386  0.0770
  887MOL0     O19669   4.774   9.854   9.382 -0.8998  0.3402 -0.8400
  887MOL0     C19670   4.838   9.872   9.253 -1.2038  0.2559 -0.0124
  887MOL0     C19671   4.979   9.925   9.269  0.1740 -0.5169  0.6403
  887MOL0     C19672   4.999  10.062   9.199  0.7593 -0.0685  0.6555
  887MOL0     C19673   5.136  10.123   9.220 -0.3850 -0.0691 -0.6093
  887MOL0     C19674   5.146  10.193   9.349  0.1645  0.0886 -0.2267
  887MOL0     C19675   5.161  10.259   9.448 -0.2139  0.2522  0.4004
  887MOL0     C19676   4.573   9.890   9.505  0.8737  0.3320  0.4409
  887MOL0     C19677   4.430   9.883   9.507 -0.1643 -0.2547 -0.7754
  887MOL0     H19678   3.922   9.967   9.480  1.3196 -0.6290 -1.5658
  887MOL0     H19679   3.694   9.883   9.473 -0.1586 -0.3458  0.7693
  887MOL0     H19680   3.497   9.771   9.669 -1.0784 -1.4097 -0.0607
  887MOL0     H19681   3.487   9.796   9.490 -1.1330  0.0086 -0.0469
  887MOL0     H19682   3.287   9.696   9.536  1.1645  1.9637  2.1442
  887MOL0     H19683   3.392   9.566   9.462  1.5304 -1.3462  0.4290
  887MOL0     H19684   3.434   9.467   9.669  1.5486  1.5528 -0.3807
  887MOL0     H19685   3.347   9.600   9.763 -0.3903  3.1830 -1.2108
  887MOL0     H19686   3.139   9.524   9.635 -0.1756 -1.3787 -0.1301
  887MOL0     H19687   3.248   9.420   9.545 -0.6963  2.8078 -1.7515
  887MOL0     H19688   3.209   9.391   9.858 -2.9354 -1.2454  0.4943
  887MOL0     H19689   3.090   9.326   9.748  1.1339 -0.9073 -0.4796
  887MOL0     H19690   3.262   9.197   9.628  0.6590  0.1035  1.9380
  887MOL0     H19691   3.378   9.263   9.752  0.8556  1.4437  2.9194
  887MOL0     H19692   3.243   9.164   9.926  1.2741  2.8697 -0.9731
  887MOL0     H19693   3.137   9.097   9.804  0.9544 -1.2378 -0.1615
  887MOL0     H19694   3.387   8.964   9.883  1.1094 -2.4125 -1.1230
  887MOL0     H19695   3.435   9.059   9.743 -0.3100 -0.2995 -0.8041
  887MOL0     H19696   3.218   8.758   9.860  1.2101  4.0157  2.2415
  887MOL0     H19697   3.096   8.585   9.528  1.9747 -1.7861  0.8119
  887MOL0     H19698   3.129   8.535   9.696 -3.2092 -0.3253 -0.3810
  887MOL0     H19699   2.886   8.556   9.623  1.1008 -1.4248  1.7939
  887MOL0     H19700   2.909   8.724   9.597 -2.1654 -0.9596 -0.4043
  887MOL0     H19701   2.979   8.744   9.842 -3.0487  2.1979  0.4703
  887MOL0     H19702   2.941   8.568   9.860 -2.1993  1.0474  1.5078
  887MOL0     H19703   2.733   8.758   9.742 -0.2365  0.3213 -0.0160
  887MOL0     H19704   2.760   8.754   9.919 -0.4161 -0.3050  0.4819
  887MOL0     H19705   2.526   8.774   9.875  1.9363  1.4438  3.4388
  887MOL0     H19706   2.212   8.829   9.919 -0.6487  2.3271  0.4571
  887MOL0     H19707   2.257   8.799  10.086 -2.5057  0.5628 -1.3383
  887MOL0     H19708   2.369   8.881   9.978 -1.6090  0.4164  1.7819
  887MOL0     H19709   1.895   8.482  10.029 -0.0459 -0.0570  0.8491
  887MOL0     H19710   1.655   8.520  10.093 -0.6141  1.4514 -0.1642
  887MOL0     H19711   1.625   8.772  10.467 -1.7939  2.2885  1.3020
  887MOL0     H19712   1.577   8.882  10.338  2.7455 -0.3373 -0.7843
  887MOL0     H19713   1.406   8.877  10.513  1.0055 -0.5929  0.6109
  887MOL0     H19714   1.353   8.830  10.347  2.6010  0.3599 -1.8963
  887MOL0     H19715   1.386   8.588  10.444 -3.4506 -1.7328 -0.5143
  887MOL0     H19716   1.243   8.683  10.484 -0.0416  1.4115  1.0394
  887MOL0     H19717   1.479   8.642  10.682  0.4682 -1.2421 -0.3466
  887MOL0     H19718   1.351   8.762  10.700  0.3219  0.9094 -2.6640
  887MOL0     H19719   1.318   8.514  10.804  0.3198 -0.6754  0.0818
  887MOL0     H19720   1.292   8.471  10.632  0.7033  0.3799 -1.1897
  887MOL0     H19721   1.134   8.625  10.839  1.5423 -2.5678  1.2520
  887MOL0     H19722   1.117   8.685  10.666 -0.1607 -0.3468  0.3866
  887MOL0     H19723   1.002   8.490  10.607  0.0752  1.4217 -0.9489
  887MOL0     H19724   0.935   8.549  10.767  0.1496  1.1809 -0.8754
  887MOL0     H19725   1.150   8.332  10.749  0.2310  1.2713 -0.6359
  887MOL0     H19726   0.981   8.306  10.781  0.1649 -0.2052  1.8685
  887MOL0     H19727   1.801   8.849  10.345  1.1290 -1.8759  1.0523
  887MOL0     H19728   2.017   8.826  10.226 -0.9425  0.5978  0.9633
  887MOL0     H19729   2.360   8.335  10.019  2.7989  0.2515  1.0437
  887MOL0     H19730   2.586   8.351   9.913  1.9136  0.5003  0.8331
  887MOL0     H19731   3.841   9.510   9.618  3.2600 -0.9927 -0.3842
  887MOL0     H19732   4.077   9.592   9.586  0.1695 -0.0667 -1.1026
  887MOL0     H19733   4.362   9.755   9.206 -1.4407  2.0543 -0.1411
  887MOL0     H19734   4.586   9.760   9.187 -1.3292  2.3394 -1.9005
  887MOL0     H19735   4.847   9.782   9.190  0.8027 -1.1633  2.1631
  887MOL0     H19736   4.775   9.944   9.200 -0.3328  0.8761 -0.2153
  887MOL0     H19737   5.051   9.851   9.234 -0.7313 -0.9808 -0.3296
  887MOL0     H19738   5.000   9.937   9.376  1.9258 -0.6603  0.3397
  887MOL0     H19739   4.923  10.129   9.241 -0.0683  0.1972 -1.1269
  887MOL0     H19740   4.991  10.043   9.091 -1.1723 -0.8281  0.8786
  887MOL0     H19741   5.162  10.196   9.143  0.5560  0.2224 -0.0341
  887MOL0     H19742   5.206  10.039   9.227 -0.0688  0.2621  5.0781
  887MOL0     H19743   5.191  10.311   9.537  5.7324 -1.8934  0.0305
  887MOL0     H19744   4.629   9.918   9.594 -0.1238  2.5911  0.4106
  887MOL0     H19745   4.387   9.909   9.603 -1.0534  0.4848 -1.3594
  888MOL0     O19746   6.924   9.710   3.989 -0.5000 -0.3526 -0.3484
  888MOL0     C19747   6.929   9.623   3.910  0.0106  0.0908 -0.8714
  888MOL0     O19748   6.830   9.588   3.829  0.1573 -0.2282 -0.1984
  888MOL0     C19749   6.718   9.665   3.796 -1.3611  0.1062  0.3478
  888MOL0     C19750   6.588   9.602   3.799  0.1444  0.7310  0.0413
  888MOL0     C19751   6.473   9.671   3.760  0.4897 -0.4192  0.8767
  888MOL0     C19752   6.490   9.798   3.699 -0.2199 -0.5000 -0.2221
  888MOL0     O19753   6.376   9.857   3.645  0.0352 -0.0886 -0.2243
  888MOL0     C19754   6.389   9.905   3.514 -0.7490  0.2789  0.5573
  888MOL0     C19755   6.261   9.939   3.440  0.0249  0.1572 -0.2847
  888MOL0     C19756   6.156  10.028   3.517 -0.2884  0.2203  0.0121
  888MOL0     C19757   6.049  10.084   3.426  0.0174 -0.6441 -0.8471
  888MOL0     C19758   5.948  10.181   3.502  0.1903 -0.4888  0.7397
  888MOL0     C19759   5.847  10.242   3.397 -0.5487  0.3089 -0.3364
  888MOL0     C19760   5.788  10.373   3.446 -0.0781  0.2671 -0.2984
  888MOL0     C19761   5.731  10.473   3.342 -0.4252 -0.6780  0.0133
  888MOL0     N19762   5.595  10.447   3.315  0.9452  0.4999  0.6274
  888MOL0     C19763   5.541  10.352   3.227  0.0176  1.0352 -0.1298
  888MOL0     C19764   5.412  10.343   3.271  0.2030 -1.4113  0.7930
  888MOL0     C19765   5.315  10.256   3.199  0.1769 -0.0466 -0.1817
  888MOL0     C19766   5.243  10.176   3.312  0.0101 -0.1727  0.2951
  888MOL0     C19767   5.132  10.088   3.268 -0.3125  0.4881  0.3378
  888MOL0     C19768   5.041  10.057   3.386  0.1843  0.6047  0.3840
  888MOL0     O19769   4.933   9.979   3.328  0.8013  0.1883  0.0628
  888MOL0     C19770   4.819   9.974   3.406 -0.3994 -0.1156 -0.1989
  888MOL0     C19771   4.699   9.968   3.337 -0.3132  0.1807  1.2258
  888MOL0     C19772   4.569   9.961   3.392  0.6531 -1.2105  0.7401
  888MOL0     C19773   4.455   9.980   3.297  0.6270 -0.3531 -1.0050
  888MOL0     C19774   4.572   9.963   3.535  0.2906  0.2679 -0.4483
  888MOL0     C19775   4.449   9.951   3.622  0.1552 -0.9618 -0.4285
  888MOL0     O19776   4.334   9.933   3.559  0.4386  0.3396 -0.1339
  888MOL0     C19777   4.225   9.889   3.625 -0.4647 -0.4169 -0.3845
  888MOL0     C19778   4.095   9.932   3.594  0.0604 -0.6110 -0.4926
  888MOL0     C19779   3.974   9.884   3.657  0.0581 -0.2122 -0.0579
  888MOL0     C19780   3.982   9.783   3.749  0.0788  0.2573  0.6350
  888MOL0     O19781   3.866   9.732   3.806  0.7792 -0.3005 -0.7173
  888MOL0     C19782   3.873   9.660   3.932  0.4303 -0.6343 -0.4818
  888MOL0     C19783   3.748   9.656   4.013  0.4093  0.6274 -0.5854
  888MOL0     C19784   3.692   9.797   4.033 -0.0446  0.1053 -0.7704
  888MOL0     C19785   3.579   9.807   4.140 -0.3625  0.6804 -0.9742
  888MOL0     C19786   3.488   9.928   4.112 -0.5514 -0.2809  0.4101
  888MOL0     C19787   3.360   9.931   4.193  0.6003  0.2949  0.3795
  888MOL0     C19788   3.254  10.021   4.131 -0.5722 -0.1678 -0.8320
  888MOL0     C19789   3.284  10.172   4.117  0.5022  0.1769  0.1331
  888MOL0    Cl19790   3.269  10.269   4.264 -0.1898  0.3536 -0.6193
  888MOL0     C19791   4.109   9.733   3.778  0.1033  0.2881  1.0094
  888MOL0     C19792   4.224   9.786   3.720 -0.6855 -0.3924  0.0130
  888MOL0     O19793   4.464   9.935   3.744 -0.3742 -0.2698  0.1163
  888MOL0     C19794   4.699   9.953   3.603  0.3846  0.3297 -1.2286
  888MOL0     C19795   4.820   9.957   3.546 -0.4035 -0.4908  0.6418
  888MOL0     N19796   5.386  10.420   3.380  0.2418  0.2052  0.0567
  888MOL0     N19797   5.492  10.491   3.395  0.1349  0.4000 -0.2060
  888MOL0     C19798   6.620   9.858   3.697 -0.1122 -0.6484  0.5749
  888MOL0     C19799   6.733   9.798   3.751  0.1525  0.0635 -0.1709
  888MOL0     C19800   7.056   9.547   3.897 -0.2927 -0.1379 -0.4073
  888MOL0     C19801   7.062   9.431   3.814 -0.5293  0.0227  0.1018
  888MOL0     C19802   7.171   9.346   3.814  0.9511 -0.0002  0.3335
  888MOL0     C19803   7.288   9.381   3.882  0.3694 -0.0350 -0.0750
  888MOL0     O19804   7.397   9.295   3.902  0.5951 -0.1879  0.0112
  888MOL0     C19805   7.392   9.175   3.826 -0.0575  0.2686 -0.5008
  888MOL0     C19806   7.493   9.077   3.894  0.1498 -0.2799  0.5399
  888MOL0     C19807   7.638   9.127   3.915 -0.1238 -1.0077  0.4743
  888MOL0     C19808   7.702   9.174   3.781  0.2869 -0.0825 -0.1796
  888MOL0     C19809   7.740   9.068   3.699  0.5876 -0.1313  0.5833
  888MOL0     C19810   7.753   8.983   3.614 -0.3170 -0.1531 -0.0618
  888MOL0     C19811   7.287   9.501   3.958  0.6414 -0.3352  0.1518
  888MOL0     C19812   7.170   9.582   3.971  0.7276  0.5670  0.4826
  888MOL0     H19813   6.582   9.503   3.845  0.4179  0.1760 -1.0841
  888MOL0     H19814   6.376   9.622   3.756  0.7204 -0.8255 -0.0467
  888MOL0     H19815   6.449   9.997   3.522 -1.0403  0.4463  0.8802
  888MOL0     H19816   6.448   9.832   3.459 -2.9386 -1.2689  0.1392
  888MOL0     H19817   6.275   9.985   3.342 -0.2334  1.3780  0.2401
  888MOL0     H19818   6.205   9.847   3.421  0.5688 -0.8406  2.4302
  888MOL0     H19819   6.094   9.964   3.580 -2.6521 -1.2732 -3.4864
  888MOL0     H19820   6.205  10.099   3.585 -1.4472  0.6198  0.4418
  888MOL0     H19821   6.097  10.142   3.347  2.0668  0.5716  1.1576
  888MOL0     H19822   5.994  10.005   3.374 -1.8524  1.3247 -2.0770
  888MOL0     H19823   5.901  10.123   3.583  1.7120 -2.0572  0.5533
  888MOL0     H19824   6.006  10.253   3.559 -1.8205  1.4656  0.4633
  888MOL0     H19825   5.906  10.262   3.308 -1.6972  0.6205 -1.0438
  888MOL0     H19826   5.764  10.172   3.379 -1.3889  1.2180 -0.0905
  888MOL0     H19827   5.715  10.358   3.525  0.8931 -0.4505  0.4946
  888MOL0     H19828   5.858  10.433   3.505 -1.3450  0.1567  1.3838
  888MOL0     H19829   5.782  10.461   3.245  0.2084 -1.0395  0.3832
  888MOL0     H19830   5.756  10.569   3.388  1.2929 -1.5968  1.1387
  888MOL0     H19831   5.583  10.293   3.145 -3.2462 -1.1828 -0.3889
  888MOL0     H19832   5.238  10.320   3.155 -2.0810 -0.7825  2.3956
  888MOL0     H19833   5.361  10.188   3.127  0.5871  1.7461 -1.6817
  888MOL0     H19834   5.198  10.247   3.382  0.8410  2.5900 -1.8236
  888MOL0     H19835   5.313  10.111   3.366  0.3830  0.0421  0.0746
  888MOL0     H19836   5.191  10.000   3.240  2.5467  2.2157  0.6119
  888MOL0     H19837   5.077  10.132   3.185  3.1725  1.2148 -1.7880
  888MOL0     H19838   5.006  10.146   3.438 -3.4085 -1.1279  1.2474
  888MOL0     H19839   5.091   9.996   3.462  0.4050  0.5815  0.2239
  888MOL0     H19840   4.707   9.992   3.231  0.6696  2.4245  1.7560
  888MOL0     H19841   4.386   9.895   3.300 -2.5992  2.0647  1.2087
  888MOL0     H19842   4.391  10.068   3.313 -0.7851 -1.5929  0.5030
  888MOL0     H19843   4.494   9.980   3.195 -0.4379  0.8228 -1.4524
  888MOL0     H19844   4.084  10.012   3.522 -1.5051 -0.1396  0.2234
  888MOL0     H19845   3.877   9.925   3.630  0.4155  0.0644 -0.9606
  888MOL0     H19846   3.909   9.562   3.899 -1.5391 -0.5717 -3.1088
  888MOL0     H19847   3.943   9.709   4.000 -0.9234 -0.9501  1.1984
  888MOL0     H19848   3.672   9.599   3.959  0.3765 -1.0979  1.1892
  888MOL0     H19849   3.777   9.618   4.111 -2.8187 -0.8758 -0.0938
  888MOL0     H19850   3.654   9.828   3.936  0.0131  2.6557 -0.0392
  888MOL0     H19851   3.774   9.864   4.061 -0.3475 -0.4497  1.7010
  888MOL0     H19852   3.526   9.712   4.135 -1.7172  1.2625  0.9847
  888MOL0     H19853   3.632   9.819   4.235  0.5386 -0.5450 -1.3030
  888MOL0     H19854   3.467   9.919   4.005  4.0838 -1.1414 -0.6561
  888MOL0     H19855   3.539  10.024   4.125  2.8053 -1.8223 -0.1674
  888MOL0     H19856   3.321   9.829   4.190  1.1733  0.0306  1.4121
  888MOL0     H19857   3.383   9.955   4.297 -1.4635  2.9643  0.3283
  888MOL0     H19858   3.159   9.995   4.178 -1.0949  0.4580 -1.5166
  888MOL0     H19859   3.238   9.991   4.027 -0.5541  2.7065 -1.7560
  888MOL0     H19860   3.207  10.207   4.048  0.8140 -1.8905 -1.3554
  888MOL0     H19861   3.377  10.197   4.065  0.6233  0.9682  0.7092
  888MOL0     H19862   4.126   9.650   3.845  3.9735  2.0076  2.4728
  888MOL0     H19863   4.316   9.746   3.760 -0.8630  1.0598  1.9567
  888MOL0     H19864   4.691   9.952   3.711  3.8740  0.0955 -0.8772
  888MOL0     H19865   4.915   9.973   3.596 -1.6714  1.1966  2.6696
  888MOL0     H19866   6.637   9.959   3.662 -2.8041 -0.2653  0.1216
  888MOL0     H19867   6.825   9.855   3.743 -1.2042  2.0890 -3.0710
  888MOL0     H19868   6.972   9.397   3.762  2.3764 -3.3381 -3.4303
  888MOL0     H19869   7.160   9.252   3.761  0.7077 -0.6462  1.4953
  888MOL0     H19870   7.297   9.124   3.840  0.9294 -1.8002 -0.8927
  888MOL0     H19871   7.411   9.180   3.718 -1.1379  2.2031 -0.6360
  888MOL0     H19872   7.490   8.983   3.837  0.2530 -0.7511  1.3047
  888MOL0     H19873   7.453   9.050   3.992  0.1524  1.6609  1.1074
  888MOL0     H19874   7.700   9.047   3.957 -1.8560 -2.6040  0.1321
  888MOL0     H19875   7.640   9.213   3.983  0.0352 -0.6560  0.0272
  888MOL0     H19876   7.796   9.228   3.796 -0.1040  0.3795  0.6654
  888MOL0     H19877   7.631   9.236   3.725  0.9912  0.7336 -0.1916
  888MOL0     H19878   7.776   8.899   3.551  2.8954  0.5413 -0.0204
  888MOL0     H19879   7.374   9.506   4.022 -0.5131 -2.6726  2.0774
  888MOL0     H19880   7.186   9.664   4.040 -2.2781  1.3659  0.3689
  889MOL0     O19881   4.608   6.921   8.760 -0.1014  0.6164 -0.5591
  889MOL0     C19882   4.688   6.867   8.840  0.2334  0.0564 -0.5348
  889MOL0     O19883   4.700   6.903   8.975 -0.8808  0.2601  0.5727
  889MOL0     C19884   4.604   6.995   9.003  0.1129  0.3147 -0.0910
  889MOL0     C19885   4.608   7.129   8.968  0.9318 -0.7932  0.1819
  889MOL0     C19886   4.495   7.211   8.992  0.0133  0.1794  0.7126
  889MOL0     C19887   4.379   7.161   9.046 -0.7909  0.2538 -0.0551
  889MOL0     O19888   4.279   7.246   9.090 -0.0957 -0.2088  0.5764
  889MOL0     C19889   4.156   7.205   9.143 -0.1874  0.7015  0.0224
  889MOL0     C19890   4.071   7.326   9.176 -0.0597  0.1170  0.3504
  889MOL0     C19891   3.941   7.301   9.249  0.6472  0.2491 -0.2861
  889MOL0     C19892   3.878   7.442   9.269 -1.0662 -0.2546 -0.3987
  889MOL0     C19893   3.763   7.417   9.365 -0.2902 -0.1505 -0.4898
  889MOL0     C19894   3.673   7.529   9.398  0.2531  0.4007  0.4685
  889MOL0     C19895   3.553   7.488   9.468  0.2632 -0.1081 -0.0934
  889MOL0     C19896   3.456   7.607   9.481 -0.6624  0.0102 -0.8998
  889MOL0     N19897   3.331   7.585   9.557 -0.1112  0.5166 -0.7458
  889MOL0     C19898   3.222   7.669   9.587  0.6161  0.2126  0.2940
  889MOL0     C19899   3.125   7.591   9.636 -0.0682  0.8056 -0.1267
  889MOL0     C19900   2.997   7.633   9.705  0.0210  0.8454 -0.0291
  889MOL0     C19901   2.883   7.542   9.680 -0.8706  0.0545 -0.0240
  889MOL0     C19902   2.751   7.560   9.750 -0.2344 -0.2380  0.2345
  889MOL0     C19903   2.649   7.446   9.723 -0.1135  0.1596  0.5086
  889MOL0     O19904   2.524   7.467   9.788 -0.3326 -0.3704  0.2018
  889MOL0     C19905   2.415   7.413   9.720  0.6224 -0.5980  0.9873
  889MOL0     C19906   2.396   7.276   9.694  0.1103 -0.2812 -0.4984
  889MOL0     C19907   2.281   7.235   9.627  0.6755  1.2126 -0.5392
  889MOL0     C19908   2.275   7.088   9.582 -0.1427  0.0968 -0.0624
  889MOL0     C19909   2.181   7.327   9.593  0.0389  0.0613  0.3706
  889MOL0     C19910   2.052   7.283   9.536  0.2026 -0.3835  0.5477
  889MOL0     O19911   1.997   7.361   9.437  0.1476 -0.1803 -0.4789
  889MOL0     C19912   1.861   7.349   9.431  0.7209 -0.1475 -0.2070
  889MOL0     C19913   1.813   7.262   9.334 -0.0837 -0.2061  0.1127
  889MOL0     C19914   1.682   7.239   9.314 -0.0461 -0.2005  0.0099
  889MOL0     C19915   1.584   7.305   9.396 -0.5444  0.4384 -0.3195
  889MOL0     O19916   1.454   7.273   9.358  0.3428 -0.2159 -0.5863
  889MOL0     C19917   1.343   7.316   9.437 -0.1563 -0.1881 -0.0387
  889MOL0     C19918   1.203   7.257   9.381 -0.0778 -1.0678  0.9622
  889MOL0     C19919   1.079   7.339   9.436  0.3418  0.0849 -0.8388
  889MOL0     C19920   0.943   7.271   9.398  0.9173  0.1717 -0.2757
  889MOL0     C19921   0.817   7.362   9.417  0.1399  0.3648  0.0971
  889MOL0     C19922   0.688   7.279   9.430  0.5360  0.3110  0.5215
  889MOL0     C19923   0.570   7.376   9.457 -0.2145  0.4499 -0.0999
  889MOL0     C19924   0.447   7.293   9.465 -0.5573  0.8739 -0.2952
  889MOL0    Cl19925   0.300   7.407   9.474 -0.0914  0.4862 -0.1818
  889MOL0     C19926   1.624   7.395   9.497 -0.3894  0.1380 -0.3103
  889MOL0     C19927   1.765   7.421   9.512 -0.4458 -0.6614  0.6920
  889MOL0     O19928   1.996   7.199   9.595 -0.0854  0.3929 -0.1124
  889MOL0     C19929   2.201   7.466   9.615 -0.0273  0.1407 -0.9351
  889MOL0     C19930   2.319   7.500   9.687  0.0758 -0.1241 -0.8175
  889MOL0     N19931   3.163   7.463   9.620 -0.2623  0.5318  0.9601
  889MOL0     N19932   3.284   7.458   9.574 -0.5810 -0.0287  0.2948
  889MOL0     C19933   4.369   7.031   9.072 -0.2358  0.7186  0.1139
  889MOL0     C19934   4.481   6.946   9.060 -0.4437 -0.1333  0.4877
  889MOL0     C19935   4.779   6.762   8.793  1.1458 -0.0338 -0.0417
  889MOL0     C19936   4.865   6.701   8.887  0.8106 -1.3829 -0.4411
  889MOL0     C19937   4.966   6.617   8.844  0.1025  0.0308 -0.3484
  889MOL0     C19938   4.992   6.583   8.714 -1.0851 -1.2324  0.0373
  889MOL0     O19939   5.114   6.520   8.685  0.4864 -0.4724  0.0796
  889MOL0     C19940   5.165   6.537   8.551 -0.1596 -0.0917 -0.5873
  889MOL0     C19941   5.282   6.452   8.520  0.8267 -0.3410 -0.6203
  889MOL0     C19942   5.395   6.458   8.621  0.1117  0.2156 -0.0967
  889MOL0     C19943   5.470   6.324   8.666  0.1796 -0.0259  0.7031
  889MOL0     C19944   5.541   6.328   8.792  0.0143  0.5686 -1.0092
  889MOL0     C19945   5.598   6.349   8.898  0.1718 -0.2780  0.7855
  889MOL0     C19946   4.902   6.640   8.618  0.1062  0.4801  0.4735
  889MOL0     C19947   4.797   6.723   8.657  0.2601 -0.2306 -0.2492
  889MOL0     H19948   4.698   7.167   8.921 -0.8984  0.0687 -2.9345
  889MOL0     H19949   4.494   7.317   8.968  0.6085 -0.2560 -1.4965
  889MOL0     H19950   4.101   7.142   9.072  0.2921  0.1274  0.1526
  889MOL0     H19951   4.172   7.142   9.231  0.1262  2.2461  1.1026
  889MOL0     H19952   4.140   7.385   9.238 -1.7364  0.7615  1.6954
  889MOL0     H19953   4.046   7.386   9.088 -1.3935  1.2886  1.4764
  889MOL0     H19954   3.877   7.234   9.191  0.8283 -0.2313  0.0677
  889MOL0     H19955   3.953   7.247   9.343 -0.7634 -0.0729 -0.2671
  889MOL0     H19956   3.949   7.514   9.310  0.4553 -0.8439 -1.8699
  889MOL0     H19957   3.834   7.484   9.178 -2.2286 -4.1291 -1.8423
  889MOL0     H19958   3.702   7.345   9.309  0.6858 -1.3143 -0.1042
  889MOL0     H19959   3.811   7.370   9.451 -0.1756  1.8099  0.5572
  889MOL0     H19960   3.724   7.599   9.464 -0.7322  1.6937 -0.0856
  889MOL0     H19961   3.638   7.589   9.313 -2.3090 -1.7166 -0.1003
  889MOL0     H19962   3.508   7.405   9.413 -2.4094  1.3806 -0.3325
  889MOL0     H19963   3.583   7.444   9.564 -3.4116  0.1820  1.3522
  889MOL0     H19964   3.435   7.635   9.377 -0.1908 -0.7614 -1.2165
  889MOL0     H19965   3.503   7.695   9.526 -0.7107 -0.7621  0.7082
  889MOL0     H19966   3.206   7.775   9.570 -1.8696 -0.0681  0.6204
  889MOL0     H19967   3.010   7.636   9.814 -1.2508  2.2087  0.1242
  889MOL0     H19968   2.968   7.735   9.678  0.1065  0.6608 -0.8292
  889MOL0     H19969   2.918   7.441   9.701  0.2213  0.9726  3.3034
  889MOL0     H19970   2.866   7.546   9.572  1.6921 -0.2728 -0.5035
  889MOL0     H19971   2.711   7.658   9.721  2.4196  1.2202  1.1829
  889MOL0     H19972   2.766   7.562   9.858 -1.1665  1.1116  0.3753
  889MOL0     H19973   2.703   7.355   9.749  1.4787  1.0281  0.3808
  889MOL0     H19974   2.640   7.450   9.614  0.2106 -0.6328  0.4431
  889MOL0     H19975   2.476   7.208   9.720 -1.4508 -2.5381 -1.2151
  889MOL0     H19976   2.221   7.077   9.488 -1.5917 -2.6807  0.9736
  889MOL0     H19977   2.376   7.046   9.579 -0.2934 -0.6148  2.5220
  889MOL0     H19978   2.214   7.036   9.657 -2.7276 -0.5957 -2.4664
  889MOL0     H19979   1.893   7.214   9.278  0.3140  0.3429  0.1956
  889MOL0     H19980   1.655   7.179   9.228  0.1134 -2.3501  1.3914
  889MOL0     H19981   1.347   7.281   9.540  0.1094  0.1689  0.0748
  889MOL0     H19982   1.329   7.425   9.436 -2.5023 -0.3806  1.9498
  889MOL0     H19983   1.186   7.264   9.273 -0.6263 -3.8127  0.8071
  889MOL0     H19984   1.208   7.149   9.398 -0.4823 -1.9696 -3.4256
  889MOL0     H19985   1.083   7.446   9.411  0.4863  0.8735  2.0959
  889MOL0     H19986   1.081   7.338   9.546 -2.1235  0.8863 -0.7181
  889MOL0     H19987   0.947   7.233   9.296  1.4582 -2.7070  0.6943
  889MOL0     H19988   0.932   7.184   9.464  1.7705  1.9206  2.3550
  889MOL0     H19989   0.811   7.433   9.334  1.6237 -0.9511 -1.1994
  889MOL0     H19990   0.830   7.418   9.510 -0.7332 -0.3224  0.6510
  889MOL0     H19991   0.674   7.227   9.335 -1.5864  0.2036  0.8355
  889MOL0     H19992   0.687   7.201   9.506 -0.2226 -0.7328 -0.5274
  889MOL0     H19993   0.558   7.444   9.372 -4.1685 -1.7173 -1.5550
  889MOL0     H19994   0.589   7.433   9.548  0.9320  1.2090 -0.7993
  889MOL0     H19995   0.444   7.213   9.540  1.2755 -1.0230 -2.1070
  889MOL0     H19996   0.436   7.235   9.373 -0.1162  0.5037 -0.1182
  889MOL0     H19997   1.541   7.446   9.545  1.0240  1.8853  0.3779
  889MOL0     H19998   1.803   7.486   9.591 -1.5675 -0.9540  1.4982
  889MOL0     H19999   2.129   7.540   9.582 -0.2468 -0.3962 -1.7107
  889MOL0     H20000   2.328   7.605   9.715  2.1816 -0.7215  1.0076
  889MOL0     H20001   4.283   6.988   9.122 -1.2181  1.7272 -0.6440
  889MOL0     H20002   4.464   6.838   9.058 -1.3356 -0.0822 -3.7394
  889MOL0     H20003   4.850   6.715   8.994  0.7354  0.5618 -0.6594
  889MOL0     H20004   5.031   6.568   8.916  2.0693  1.6412 -0.9412
  889MOL0     H20005   5.084   6.527   8.478  0.0471 -0.1672 -0.8053
  889MOL0     H20006   5.207   6.638   8.558  1.5049 -0.8590  1.4000
  889MOL0     H20007   5.328   6.473   8.423 -1.5618 -0.0710 -1.7517
  889MOL0     H20008   5.237   6.352   8.515 -0.5930 -0.2662  4.6739
  889MOL0     H20009   5.356   6.502   8.713  2.7690  2.8198 -0.0408
  889MOL0     H20010   5.470   6.528   8.584  0.6082 -0.1552  0.2039
  889MOL0     H20011   5.542   6.306   8.586  1.0868  0.5524  1.3721
  889MOL0     H20012   5.403   6.237   8.667 -1.0662  0.8568 -1.0264
  889MOL0     H20013   5.632   6.374   8.997 -0.7684  3.5554  0.2904
  889MOL0     H20014   4.914   6.611   8.514 -0.0606 -1.9706  1.0744
  889MOL0     H20015   4.736   6.758   8.574 -1.7570 -1.9798  0.3983
  890MOL0     O20016   0.154   2.776   9.055  0.1550  0.6214  0.2448
  890MOL0     C20017   0.113   2.808   8.942 -0.5627 -0.0381 -0.2660
  890MOL0     O20018   0.195   2.820   8.834  0.2719  0.2788  0.3916
  890MOL0     C20019   0.328   2.814   8.866  0.1181  0.1315  0.2964
  890MOL0     C20020   0.405   2.700   8.878  0.6470 -0.0326 -0.1206
  890MOL0     C20021   0.545   2.703   8.898  0.5679 -0.1215 -0.3634
  890MOL0     C20022   0.613   2.829   8.902  0.9737  0.8115  0.0181
  890MOL0     O20023   0.748   2.844   8.921 -0.6639  0.1895  0.0159
  890MOL0     C20024   0.803   2.792   9.039  0.9663  0.4235 -0.2406
  890MOL0     C20025   0.934   2.716   9.024 -0.6168 -0.0972  0.4337
  890MOL0     C20026   1.002   2.674   9.160 -0.2497 -0.0005 -0.1266
  890MOL0     C20027   1.149   2.616   9.131  0.1140  0.2704  0.3135
  890MOL0     C20028   1.261   2.686   9.227  1.3626 -0.5752  0.1633
  890MOL0     C20029   1.299   2.830   9.187 -0.1340 -0.0184 -0.5201
  890MOL0     C20030   1.361   2.832   9.046  0.9004 -0.7451 -0.2392
  890MOL0     C20031   1.425   2.971   9.022 -0.8219  0.1197 -0.6402
  890MOL0     N20032   1.476   2.972   8.877 -0.3193  0.0180  0.5383
  890MOL0     C20033   1.596   3.025   8.827 -0.0589  0.0696 -0.7973
  890MOL0     C20034   1.594   2.989   8.695 -0.5990 -0.3517  0.0733
  890MOL0     C20035   1.694   3.003   8.581 -0.4109 -0.6715  0.4873
  890MOL0     C20036   1.769   3.142   8.577  0.2747 -0.1141  0.7336
  890MOL0     C20037   1.893   3.166   8.675 -0.0132 -1.2566  0.6879
  890MOL0     C20038   1.999   3.058   8.671  0.4292 -0.3361 -0.2992
  890MOL0     O20039   2.077   3.069   8.547 -0.0523  0.3944 -0.3228
  890MOL0     C20040   2.204   3.109   8.568  1.0635 -0.9358  0.5215
  890MOL0     C20041   2.301   3.020   8.604  0.1946  0.6688 -0.5327
  890MOL0     C20042   2.437   3.058   8.629 -0.4819 -0.7297 -0.4806
  890MOL0     C20043   2.533   2.943   8.653 -0.1101 -0.1570 -0.2663
  890MOL0     C20044   2.477   3.194   8.609 -0.3197  0.3634 -0.4100
  890MOL0     C20045   2.615   3.250   8.622 -0.3657 -0.0779 -0.7394
  890MOL0     O20046   2.717   3.159   8.614  0.3066 -0.3136  0.7865
  890MOL0     C20047   2.836   3.206   8.651  1.1518 -0.1139 -0.1803
  890MOL0     C20048   2.885   3.175   8.780  0.1755 -0.9764  0.2000
  890MOL0     C20049   2.998   3.254   8.815  0.9467  0.0062  0.3420
  890MOL0     C20050   3.070   3.343   8.729  0.1604 -0.1277  0.1109
  890MOL0     O20051   3.175   3.402   8.773 -0.2909  0.5154 -0.8435
  890MOL0     C20052   3.285   3.326   8.818 -0.1283 -0.1963 -0.0486
  890MOL0     C20053   3.357   3.409   8.932  0.8171 -0.6276 -0.4190
  890MOL0     C20054   3.267   3.424   9.060  0.9426 -0.3501  0.6815
  890MOL0     C20055   3.319   3.504   9.182  0.0447 -0.0514 -0.7464
  890MOL0     C20056   3.425   3.423   9.264 -0.8115  0.4177  0.3828
  890MOL0     C20057   3.493   3.499   9.387 -0.2579  0.5982  0.4732
  890MOL0     C20058   3.591   3.402   9.457 -0.2302 -0.3603  0.5473
  890MOL0     C20059   3.632   3.474   9.587 -0.1039  0.7245  0.2274
  890MOL0    Cl20060   3.754   3.365   9.666 -0.0168  0.2805  0.2710
  890MOL0     C20061   3.007   3.375   8.611 -0.3281  0.8653  0.7466
  890MOL0     C20062   2.894   3.301   8.570 -0.1173  0.5315  0.3185
  890MOL0     O20063   2.629   3.371   8.659  0.0047 -0.0878  0.1512
  890MOL0     C20064   2.373   3.285   8.580 -1.0989 -0.0683  0.1988
  890MOL0     C20065   2.239   3.244   8.556 -1.3548 -0.4923  0.3070
  890MOL0     N20066   1.472   2.932   8.667 -0.2790 -1.0028 -0.4052
  890MOL0     N20067   1.410   2.915   8.772 -0.0972  0.3274 -0.3115
  890MOL0     C20068   0.540   2.940   8.876  0.1704  0.1250 -0.6479
  890MOL0     C20069   0.402   2.932   8.855  0.3466 -0.0418 -0.5519
  890MOL0     C20070  -0.030   2.830   8.910 -0.7762  0.7879  0.3603
  890MOL0     C20071  -0.079   2.893   8.792  0.0303  0.5021 -0.4439
  890MOL0     C20072  -0.217   2.924   8.772 -0.4548 -0.0003  0.1303
  890MOL0     C20073  -0.312   2.912   8.873 -0.3685 -0.0328 -0.7428
  890MOL0     O20074  -0.445   2.950   8.869  0.2020 -0.5927 -0.3477
  890MOL0     C20075  -0.504   2.967   8.734 -0.2001 -0.3576 -0.1088
  890MOL0     C20076  -0.496   3.110   8.684 -0.5407 -0.0255 -0.1428
  890MOL0     C20077  -0.555   3.229   8.767  1.3608  1.2568  0.2930
  890MOL0     C20078  -0.698   3.195   8.822  0.2777 -0.2552 -0.4291
  890MOL0     C20079  -0.793   3.170   8.715  0.0462 -0.4370  0.3640
  890MOL0     C20080  -0.860   3.152   8.617  0.2900 -0.6628 -0.5012
  890MOL0     C20081  -0.258   2.844   8.987 -0.2527  0.7144  0.6320
  890MOL0     C20082  -0.125   2.803   9.007  0.5978 -1.0565  0.1306
  890MOL0     H20083   0.354   2.604   8.869  0.6295  0.0710 -1.2315
  890MOL0     H20084   0.604   2.612   8.906 -1.0533 -1.0507  1.7590
  890MOL0     H20085   0.824   2.872   9.111 -3.3481  1.6421 -0.0772
  890MOL0     H20086   0.730   2.730   9.092 -0.0484 -0.3097 -2.4064
  890MOL0     H20087   0.912   2.631   8.959 -0.7585  0.5219 -0.3390
  890MOL0     H20088   1.012   2.779   8.980 -2.1889  1.3483 -0.4278
  890MOL0     H20089   1.017   2.758   9.228  0.4487 -0.3981  0.2166
  890MOL0     H20090   0.940   2.595   9.205 -0.4141  0.6420  0.7795
  890MOL0     H20091   1.154   2.510   9.158  0.6946 -0.2060 -1.5438
  890MOL0     H20092   1.166   2.624   9.023 -0.5378  1.3681  0.2818
  890MOL0     H20093   1.216   2.689   9.326 -1.9031  1.2578 -1.2224
  890MOL0     H20094   1.352   2.626   9.243 -0.8140 -3.8758  1.2709
  890MOL0     H20095   1.203   2.882   9.188 -1.5937 -2.0815 -4.9672
  890MOL0     H20096   1.363   2.875   9.263 -1.0905  1.7636 -0.7226
  890MOL0     H20097   1.439   2.756   9.030  1.3051 -0.4703  0.3720
  890MOL0     H20098   1.283   2.816   8.971 -2.3729  0.0041  2.7368
  890MOL0     H20099   1.503   2.986   9.097 -3.3834  1.1658  2.0035
  890MOL0     H20100   1.348   3.047   9.041  0.8364  1.9382 -0.9117
  890MOL0     H20101   1.668   3.079   8.887 -2.1247  0.3998  1.5514
  890MOL0     H20102   1.762   2.917   8.584 -2.7677 -2.7616 -1.2213
  890MOL0     H20103   1.651   2.979   8.483 -1.5947 -1.0797  1.0930
  890MOL0     H20104   1.698   3.224   8.584  0.3124 -0.1379  1.5504
  890MOL0     H20105   1.816   3.135   8.478  0.3018  0.9892  0.6631
  890MOL0     H20106   1.852   3.159   8.777 -0.6451 -0.3064  0.5070
  890MOL0     H20107   1.925   3.270   8.673 -4.8503  0.4983  1.2246
  890MOL0     H20108   1.955   2.958   8.679  1.2757 -0.9370 -2.4258
  890MOL0     H20109   2.067   3.084   8.753  0.7620  0.0577 -0.6949
  890MOL0     H20110   2.286   2.914   8.622 -0.5685  0.7288 -0.7682
  890MOL0     H20111   2.477   2.850   8.663  0.1424 -0.1407  1.6280
  890MOL0     H20112   2.619   2.942   8.585 -1.0424 -0.2169 -1.4956
  890MOL0     H20113   2.580   2.942   8.752 -1.8043  1.2344  0.6033
  890MOL0     H20114   2.833   3.106   8.845  1.7789 -1.2524  1.2435
  890MOL0     H20115   3.028   3.237   8.918  0.7582 -0.0523  0.3873
  890MOL0     H20116   3.264   3.222   8.844  0.4034 -0.0313  1.1151
  890MOL0     H20117   3.352   3.307   8.733 -1.2235 -1.5471 -0.6376
  890MOL0     H20118   3.453   3.365   8.960  3.6964  3.4827 -2.7207
  890MOL0     H20119   3.377   3.512   8.900 -3.4192  0.8093  0.8976
  890MOL0     H20120   3.234   3.326   9.095  0.2269 -0.8824 -1.3380
  890MOL0     H20121   3.174   3.468   9.024  0.4923 -1.5153  0.3752
  890MOL0     H20122   3.364   3.599   9.152 -3.5449  1.1763 -2.8532
  890MOL0     H20123   3.229   3.523   9.242 -0.2812 -1.8149 -0.6423
  890MOL0     H20124   3.512   3.405   9.201  0.1983 -1.0326  2.1042
  890MOL0     H20125   3.381   3.331   9.303 -1.6846 -0.9750 -3.4691
  890MOL0     H20126   3.547   3.589   9.356  0.0010 -0.1431 -1.4082
  890MOL0     H20127   3.418   3.529   9.461 -0.2776 -0.5974  0.9485
  890MOL0     H20128   3.676   3.375   9.393 -0.1328 -1.5852  1.1673
  890MOL0     H20129   3.539   3.308   9.478  0.8373 -1.0438  0.2478
  890MOL0     H20130   3.547   3.492   9.654  0.3482 -1.5498  1.5123
  890MOL0     H20131   3.681   3.571   9.577  1.5203 -0.2123 -1.4411
  890MOL0     H20132   3.065   3.440   8.548  1.3452  0.9685  2.3300
  890MOL0     H20133   2.847   3.319   8.474 -1.9251 -1.6812  0.7031
  890MOL0     H20134   2.396   3.392   8.579  1.3589 -0.5143  1.3797
  890MOL0     H20135   2.166   3.320   8.532  0.3209  1.1161  0.0871
  890MOL0     H20136   0.583   3.040   8.868 -1.0809  0.7947  0.5012
  890MOL0     H20137   0.340   3.021   8.844 -0.2528 -0.1714  1.2970
  890MOL0     H20138  -0.013   2.938   8.719 -0.2873  1.6146 -0.0541
  890MOL0     H20139  -0.242   2.978   8.681  1.7958  3.9361  1.6137
  890MOL0     H20140  -0.461   2.896   8.663  2.9797  1.4164 -0.1512
  890MOL0     H20141  -0.613   2.956   8.737 -0.3206  0.7993  0.7935
  890MOL0     H20142  -0.550   3.118   8.588 -1.1476  1.5072  0.2959
  890MOL0     H20143  -0.391   3.138   8.674 -0.6070  0.1435 -0.3943
  890MOL0     H20144  -0.563   3.318   8.705 -2.8723  1.0378  0.2160
  890MOL0     H20145  -0.499   3.244   8.860 -0.1560 -4.2522  2.5487
  890MOL0     H20146  -0.726   3.289   8.870 -0.1451 -0.8983  0.6147
  890MOL0     H20147  -0.689   3.112   8.893  1.5905 -0.6243 -1.0032
  890MOL0     H20148  -0.947   3.129   8.559 -0.5349 -1.4380  0.9846
  890MOL0     H20149  -0.334   2.827   9.063 -0.1373  0.5928  0.7210
  890MOL0     H20150  -0.095   2.772   9.106 -0.0059 -0.6673  0.4436
  891MOL0     O20151   0.937   1.161   5.816 -0.4188  0.3639  0.0903
  891MOL0     C20152   0.951   1.237   5.911 -0.7552  0.3695 -0.5608
  891MOL0     O20153   0.847   1.317   5.955 -0.6752  0.0294 -0.3349
  891MOL0     C20154   0.717   1.306   5.914  0.2507 -0.5996 -0.0146
  891MOL0     C20155   0.628   1.205   5.954  0.2702 -0.1653  0.2174
  891MOL0     C20156   0.494   1.208   5.918  0.2180  0.3187 -0.2153
  891MOL0     C20157   0.444   1.316   5.838 -0.7668 -0.5751 -0.1312
  891MOL0     O20158   0.304   1.313   5.819 -0.0358  0.1912  0.2883
  891MOL0     C20159   0.233   1.433   5.824 -0.0821  0.5435 -0.7962
  891MOL0     C20160   0.139   1.437   5.949  0.0300 -0.3685 -0.1522
  891MOL0     C20161   0.205   1.416   6.085  0.4496 -0.0548  0.2213
  891MOL0     C20162   0.289   1.533   6.132  0.1748  0.8645 -0.1060
  891MOL0     C20163   0.345   1.510   6.274 -0.3483  0.1566 -0.5418
  891MOL0     C20164   0.389   1.656   6.313 -0.2981 -0.4148  0.1431
  891MOL0     C20165   0.451   1.672   6.449 -0.7412 -0.0495  0.4860
  891MOL0     C20166   0.506   1.810   6.484 -0.4962 -0.8254 -0.1756
  891MOL0     N20167   0.615   1.845   6.396 -0.1032 -0.3078 -0.0366
  891MOL0     C20168   0.740   1.789   6.405  0.3797  0.2381  0.2998
  891MOL0     C20169   0.820   1.874   6.327 -0.2052 -0.0735  0.2133
  891MOL0     C20170   0.956   1.850   6.283 -0.4816  0.5614 -0.3166
  891MOL0     C20171   1.054   1.914   6.376  0.4842  0.0182 -0.9859
  891MOL0     C20172   1.196   1.908   6.308  1.1698 -0.2592 -0.4118
  891MOL0     C20173   1.242   2.041   6.240  0.8161 -0.1267 -0.5973
  891MOL0     O20174   1.214   2.155   6.321 -0.0437  0.4994 -0.4907
  891MOL0     C20175   1.315   2.236   6.369  0.6901  0.2042 -0.2690
  891MOL0     C20176   1.424   2.181   6.434  1.1849  0.6233 -0.0973
  891MOL0     C20177   1.524   2.252   6.493  0.0633 -0.0952  0.1858
  891MOL0     C20178   1.631   2.184   6.565 -0.1144  0.4217 -0.8166
  891MOL0     C20179   1.530   2.389   6.469  1.1949 -0.2865  0.3466
  891MOL0     C20180   1.634   2.483   6.523  0.7106 -1.3063  0.6317
  891MOL0     O20181   1.763   2.426   6.544 -0.3415 -0.0863 -0.1360
  891MOL0     C20182   1.865   2.515   6.551 -0.5060  1.0951 -0.2826
  891MOL0     C20183   1.910   2.567   6.676  0.0900  0.6663 -0.3886
  891MOL0     C20184   2.030   2.642   6.681  0.1300 -0.1412 -0.6674
  891MOL0     C20185   2.106   2.666   6.565  0.5099  0.9983  0.0547
  891MOL0     O20186   2.233   2.718   6.570 -0.1463  0.2699 -0.3209
  891MOL0     C20187   2.240   2.823   6.669  0.8109  0.0632  0.0023
  891MOL0     C20188   2.155   2.945   6.630  0.4627 -0.2372 -0.2765
  891MOL0     C20189   2.192   3.008   6.489 -0.4679 -0.1095 -0.4106
  891MOL0     C20190   2.326   3.081   6.493 -0.6827  0.2625  0.0218
  891MOL0     C20191   2.364   3.104   6.344  0.8383 -0.3679 -0.2262
  891MOL0     C20192   2.498   3.036   6.304  0.8846  0.0941  0.5615
  891MOL0     C20193   2.613   3.114   6.356 -0.6021 -0.1407 -0.4725
  891MOL0     C20194   2.744   3.047   6.310  0.4215 -0.0153 -0.8717
  891MOL0    Cl20195   2.883   3.149   6.366 -0.0624  0.1781 -0.1507
  891MOL0     C20196   2.060   2.607   6.442 -0.6900 -0.6203  0.4745
  891MOL0     C20197   1.942   2.537   6.432  1.0783 -0.2427 -0.3951
  891MOL0     O20198   1.603   2.603   6.549  0.2352 -0.0849  0.3729
  891MOL0     C20199   1.415   2.451   6.405  0.3508 -0.5233 -0.2024
  891MOL0     C20200   1.306   2.376   6.357 -0.0842  0.1669 -0.6943
  891MOL0     N20201   0.735   1.976   6.279 -0.5002  0.8404 -0.1964
  891MOL0     N20202   0.618   1.951   6.312 -0.6943  0.0427  0.1164
  891MOL0     C20203   0.526   1.425   5.807 -0.3944 -0.2735  0.8512
  891MOL0     C20204   0.661   1.409   5.839 -0.2195  0.4134  0.7391
  891MOL0     C20205   1.087   1.260   5.968 -0.0749 -0.5904 -0.0070
  891MOL0     C20206   1.182   1.155   5.975 -0.2066 -0.1114 -0.4066
  891MOL0     C20207   1.300   1.172   6.037  0.2179 -0.2422 -0.2667
  891MOL0     C20208   1.338   1.287   6.099  0.2689 -0.1870 -0.5285
  891MOL0     O20209   1.463   1.295   6.167  0.3813 -0.2930  0.5813
  891MOL0     C20210   1.539   1.418   6.149  0.3070 -0.2004 -0.5521
  891MOL0     C20211   1.588   1.429   5.999  0.3330 -0.6377  0.2018
  891MOL0     C20212   1.646   1.303   5.951  0.3964  0.0093  0.4725
  891MOL0     C20213   1.705   1.311   5.808 -0.0030  0.7169  0.1485
  891MOL0     C20214   1.762   1.179   5.772  0.4300 -0.2639 -1.6377
  891MOL0     C20215   1.824   1.075   5.745 -0.1502  0.1863 -0.0812
  891MOL0     C20216   1.244   1.392   6.097  0.1304 -0.5995  0.5258
  891MOL0     C20217   1.115   1.381   6.032  0.5626 -0.8081  0.7193
  891MOL0     H20218   0.663   1.123   6.016 -2.3583 -1.5401  0.0187
  891MOL0     H20219   0.429   1.130   5.956 -3.1260  2.7498 -0.4714
  891MOL0     H20220   0.296   1.521   5.832 -2.7089  2.4196  0.9465
  891MOL0     H20221   0.168   1.440   5.736  0.7442 -0.7613 -1.5469
  891MOL0     H20222   0.080   1.528   5.952 -1.6468 -1.3025 -2.2277
  891MOL0     H20223   0.066   1.357   5.933  1.9398 -2.6725  1.7939
  891MOL0     H20224   0.129   1.390   6.159  1.9879 -2.3138  1.1055
  891MOL0     H20225   0.277   1.335   6.067 -0.0820 -0.0730 -2.1417
  891MOL0     H20226   0.363   1.559   6.056  2.4018 -0.3972  1.5209
  891MOL0     H20227   0.225   1.622   6.132  0.4528  1.1093  2.0581
  891MOL0     H20228   0.270   1.473   6.344  0.0512 -2.0552 -1.2299
  891MOL0     H20229   0.426   1.437   6.265 -0.3361 -0.0709  1.0613
  891MOL0     H20230   0.471   1.682   6.246 -0.0235  0.5747  0.8486
  891MOL0     H20231   0.304   1.723   6.297  1.2845  1.2548 -1.8488
  891MOL0     H20232   0.376   1.646   6.525 -0.9183  2.1544  1.1381
  891MOL0     H20233   0.532   1.598   6.459 -0.1408  0.8032  2.5839
  891MOL0     H20234   0.541   1.806   6.587 -0.8506 -1.7921 -0.0819
  891MOL0     H20235   0.425   1.880   6.464  0.4068 -0.5243 -3.2173
  891MOL0     H20236   0.764   1.714   6.480  4.6999  0.8739 -0.2300
  891MOL0     H20237   0.970   1.741   6.285 -1.2621  0.4488 -0.7857
  891MOL0     H20238   0.974   1.888   6.183 -0.5831  1.2708 -0.0694
  891MOL0     H20239   1.052   1.859   6.470 -2.2404  1.4696 -0.0871
  891MOL0     H20240   1.027   2.016   6.407 -0.1911 -0.9257  1.8290
  891MOL0     H20241   1.194   1.816   6.249 -2.2674 -0.5805 -0.0385
  891MOL0     H20242   1.270   1.891   6.387  0.0080 -0.3411  0.6950
  891MOL0     H20243   1.184   2.045   6.147 -0.5053 -0.9866  0.1537
  891MOL0     H20244   1.349   2.037   6.217  0.5633 -1.4927 -1.6599
  891MOL0     H20245   1.424   2.074   6.453 -0.4548  0.9197  1.8899
  891MOL0     H20246   1.679   2.230   6.651  2.0054 -1.8937 -0.6526
  891MOL0     H20247   1.592   2.088   6.602 -0.1265  1.5150  2.2902
  891MOL0     H20248   1.720   2.176   6.501  1.1677  1.1752  0.7978
  891MOL0     H20249   1.861   2.543   6.769  1.6151 -2.6019 -0.2906
  891MOL0     H20250   2.063   2.677   6.779 -1.4251  1.5381 -0.7056
  891MOL0     H20251   2.224   2.798   6.774  0.0998  1.4397  0.2453
  891MOL0     H20252   2.341   2.865   6.674  0.8511 -0.0788  0.4536
  891MOL0     H20253   2.052   2.914   6.649  0.0782  1.4884  0.6664
  891MOL0     H20254   2.179   3.025   6.702  1.0151 -1.5318  1.0289
  891MOL0     H20255   2.105   3.063   6.452 -0.9532  0.1870  1.1130
  891MOL0     H20256   2.205   2.925   6.419  1.9597 -1.0899  1.0671
  891MOL0     H20257   2.311   3.174   6.550 -0.2654 -0.1977  0.8971
  891MOL0     H20258   2.412   3.033   6.542  2.2731  3.6735 -1.3252
  891MOL0     H20259   2.363   3.212   6.323 -2.0239 -0.2065  0.3719
  891MOL0     H20260   2.285   3.064   6.281 -1.7424  2.7648  0.7298
  891MOL0     H20261   2.485   2.935   6.345 -3.9948  0.1089 -0.3560
  891MOL0     H20262   2.503   3.035   6.195  0.8284 -1.3809  0.5542
  891MOL0     H20263   2.624   3.116   6.465  0.2953  2.0609 -0.5623
  891MOL0     H20264   2.613   3.216   6.316  2.0301  0.3061  0.4653
  891MOL0     H20265   2.744   3.043   6.201  0.6637  3.0351 -1.0586
  891MOL0     H20266   2.757   2.947   6.353  0.4494 -0.6726 -2.3463
  891MOL0     H20267   2.117   2.636   6.355 -3.7091  3.6139 -0.4463
  891MOL0     H20268   1.915   2.522   6.328  1.0077  2.9388 -0.9140
  891MOL0     H20269   1.407   2.559   6.405  0.4946 -0.4400  2.6702
  891MOL0     H20270   1.227   2.439   6.316 -1.9391 -0.8138  1.1658
  891MOL0     H20271   0.491   1.513   5.754  0.4770 -0.5766 -0.2685
  891MOL0     H20272   0.727   1.493   5.819  3.6852 -2.0367  2.0892
  891MOL0     H20273   1.162   1.062   5.922 -0.6010  0.1158 -0.6659
  891MOL0     H20274   1.371   1.089   6.033  1.6910  0.8799  1.2555
  891MOL0     H20275   1.486   1.509   6.177 -0.0745 -0.2836 -0.9918
  891MOL0     H20276   1.625   1.413   6.216  0.6900  3.2603 -0.6078
  891MOL0     H20277   1.664   1.508   5.994  1.9993 -2.2204 -0.5065
  891MOL0     H20278   1.501   1.454   5.937  0.4241 -2.6581 -0.8264
  891MOL0     H20279   1.559   1.236   5.948  1.4117 -1.3378  0.1589
  891MOL0     H20280   1.723   1.269   6.021  1.8555 -0.7530 -1.4051
  891MOL0     H20281   1.778   1.392   5.814 -2.2857  2.7571  2.6144
  891MOL0     H20282   1.648   1.340   5.719 -1.7411  0.3849  1.1245
  891MOL0     H20283   1.898   0.998   5.747 -0.9663 -0.6046  1.5493
  891MOL0     H20284   1.267   1.484   6.150 -1.4510 -0.9234  1.8691
  891MOL0     H20285   1.046   1.464   6.018  1.0281 -0.2890  1.4286
  892MOL0     O20286   2.123  11.080   4.680 -0.7435 -0.4165  0.2005
  892MOL0     C20287   2.197  11.180   4.668  0.5164  0.0369 -0.3738
  892MOL0     O20288   2.162  11.301   4.725 -0.1637  0.6623  0.4220
  892MOL0     C20289   2.041  11.329   4.786 -0.1938 -0.6728 -0.7551
  892MOL0     C20290   1.969  11.264   4.885 -0.0183  1.6084 -0.2753
  892MOL0     C20291   1.839  11.301   4.926 -0.1534 -0.5337  0.7530
  892MOL0     C20292   1.779  11.409   4.858  0.8855 -0.0379 -0.0011
  892MOL0     O20293   1.656  11.464   4.883 -0.1042  0.0565 -0.9405
  892MOL0     C20294   1.559  11.403   4.978 -0.4327  0.1627 -0.0111
  892MOL0     C20295   1.434  11.485   4.995 -0.1836  0.2549 -0.4480
  892MOL0     C20296   1.455  11.634   4.980  0.2956  0.0640  0.0568
  892MOL0     C20297   1.549  11.702   5.084  1.0080 -0.0666  0.5345
  892MOL0     C20298   1.553  11.854   5.077  1.0874  0.1702 -0.4040
  892MOL0     C20299   1.634  11.927   4.969  0.1716 -0.3837 -0.3695
  892MOL0     C20300   1.784  11.893   4.969  0.3906  0.3095  0.3797
  892MOL0     C20301   1.847  11.962   4.841 -0.6445 -0.6516  0.0235
  892MOL0     N20302   1.985  11.928   4.803 -0.5294  0.5874 -0.1809
  892MOL0     C20303   2.032  11.800   4.768  0.0902  0.5880 -0.6595
  892MOL0     C20304   2.157  11.815   4.723 -0.4195  0.3749 -0.1117
  892MOL0     C20305   2.250  11.705   4.673  0.3906  0.4132  0.7826
  892MOL0     C20306   2.299  11.721   4.533  0.2063 -0.0820 -0.2205
  892MOL0     C20307   2.419  11.815   4.521 -0.5049  0.1923  0.3397
  892MOL0     C20308   2.455  11.846   4.376  0.5070 -0.0961 -0.4094
  892MOL0     O20309   2.567  11.932   4.377 -0.7657 -0.0101  0.0881
  892MOL0     C20310   2.689  11.870   4.356 -0.1290 -0.4042  0.0699
  892MOL0     C20311   2.723  11.741   4.385 -0.0855  0.0839 -0.0572
  892MOL0     C20312   2.847  11.695   4.367 -0.1254 -0.1133  0.6585
  892MOL0     C20313   2.869  11.549   4.376  0.5342 -0.7060  0.0178
  892MOL0     C20314   2.955  11.780   4.333 -0.9866  0.0644  0.0418
  892MOL0     C20315   3.108  11.759   4.358  0.2401  1.3122 -0.0267
  892MOL0     O20316   3.185  11.844   4.293  0.4455 -0.0677 -0.4422
  892MOL0     C20317   3.318  11.827   4.305 -0.8380 -0.1386 -1.6561
  892MOL0     C20318   3.385  11.777   4.203 -1.9405  0.1287 -0.4334
  892MOL0     C20319   3.524  11.757   4.210  0.6502 -0.7092  0.0387
  892MOL0     C20320   3.599  11.807   4.318 -1.1792  1.0653  0.6413
  892MOL0     O20321   3.738  11.784   4.334 -0.4196 -0.6861 -0.6778
  892MOL0     C20322   3.804  11.719   4.229 -0.3976 -0.4082 -0.0493
  892MOL0     C20323   3.952  11.752   4.251  0.7604  0.3157 -0.2163
  892MOL0     C20324   4.013  11.657   4.357  0.3067 -0.0595 -0.0479
  892MOL0     C20325   4.165  11.684   4.386  0.4427  0.0149  0.5748
  892MOL0     C20326   4.201  11.606   4.503 -0.7282  0.1709 -1.0094
  892MOL0     C20327   4.337  11.654   4.566  0.2106 -0.2831  0.4767
  892MOL0     C20328   4.377  11.564   4.687 -0.4405  0.1806  0.2936
  892MOL0     C20329   4.483  11.621   4.780 -0.3295  0.1412  0.2645
  892MOL0    Cl20330   4.638  11.663   4.699  0.3363 -0.0451  0.2120
  892MOL0     C20331   3.529  11.864   4.421 -0.8249 -0.4833  0.3388
  892MOL0     C20332   3.387  11.870   4.419 -0.1974  0.3925  0.5532
  892MOL0     O20333   3.150  11.671   4.428  0.0973 -0.2585 -0.3154
  892MOL0     C20334   2.920  11.907   4.285  0.1916  0.1946  0.1732
  892MOL0     C20335   2.786  11.953   4.297 -0.3968  0.6867  0.1402
  892MOL0     N20336   2.183  11.947   4.725  0.5225 -0.3430 -0.0786
  892MOL0     N20337   2.086  12.019   4.771 -0.3234 -0.0693  0.2624
  892MOL0     C20338   1.856  11.476   4.760  0.1987 -0.4723  0.4273
  892MOL0     C20339   1.982  11.429   4.717  0.1741  0.4932  0.6021
  892MOL0     C20340   2.334  11.173   4.605  0.2421 -0.5288 -0.1006
  892MOL0     C20341   2.376  11.049   4.561  0.4996  0.0936  0.3637
  892MOL0     C20342   2.500  11.052   4.493  0.8792 -0.9040 -0.0140
  892MOL0     C20343   2.585  11.167   4.482  0.8320 -0.7542 -0.1289
  892MOL0     O20344   2.702  11.173   4.419  0.1867  0.5385  0.6743
  892MOL0     C20345   2.797  11.061   4.435 -0.9839 -0.8426 -0.3316
  892MOL0     C20346   2.793  10.982   4.309  0.4734  0.5864 -0.4612
  892MOL0     C20347   2.847  11.058   4.180 -0.1189 -0.3397 -0.3012
  892MOL0     C20348   2.997  11.069   4.167  0.0805 -0.7717  0.4844
  892MOL0     C20349   3.064  10.940   4.157  0.5968  0.3357  0.1008
  892MOL0     C20350   3.119  10.834   4.145  1.3622  0.3791 -0.7935
  892MOL0     C20351   2.536  11.291   4.531 -0.1517 -1.3310 -0.0566
  892MOL0     C20352   2.404  11.295   4.592 -0.4565  0.0417  0.5048
  892MOL0     H20353   2.027  11.183   4.928  0.2379  3.0390  2.2752
  892MOL0     H20354   1.792  11.252   5.011  0.2488  1.0687  1.9358
  892MOL0     H20355   1.533  11.300   4.952  1.3298 -1.4159  3.7027
  892MOL0     H20356   1.601  11.403   5.079 -1.0212  0.1738  0.2382
  892MOL0     H20357   1.367  11.466   4.910 -0.4809 -0.3046 -0.0894
  892MOL0     H20358   1.392  11.457   5.092 -0.8162 -1.7598 -1.2666
  892MOL0     H20359   1.491  11.662   4.880 -0.7865  0.1736 -0.3223
  892MOL0     H20360   1.355  11.679   4.983  0.0462 -0.5231  0.7139
  892MOL0     H20361   1.518  11.668   5.184 -0.0288 -1.8487 -0.3570
  892MOL0     H20362   1.655  11.673   5.082  0.5946 -1.5962 -1.0677
  892MOL0     H20363   1.454  11.900   5.079 -0.1966 -2.3483 -1.4565
  892MOL0     H20364   1.592  11.880   5.176 -0.3406  0.3315  0.1424
  892MOL0     H20365   1.604  11.900   4.867  0.1235  1.3562 -0.8587
  892MOL0     H20366   1.628  12.035   4.987  1.5593 -0.5234  1.1439
  892MOL0     H20367   1.831  11.928   5.062  1.5763 -1.3833  0.4493
  892MOL0     H20368   1.792  11.785   4.956  1.6040  0.3700  0.4908
  892MOL0     H20369   1.837  12.071   4.842  0.3794 -0.5112  2.7681
  892MOL0     H20370   1.786  11.930   4.755 -0.7706  1.2127 -0.6137
  892MOL0     H20371   1.989  11.703   4.789  2.1967 -0.1432  0.5256
  892MOL0     H20372   2.327  11.701   4.750  1.6173  1.4590 -0.3418
  892MOL0     H20373   2.196  11.612   4.694  0.4750  1.2162  5.5377
  892MOL0     H20374   2.214  11.758   4.475 -0.0357  2.7962  1.7444
  892MOL0     H20375   2.332  11.623   4.496 -0.2245 -0.2876 -0.0533
  892MOL0     H20376   2.504  11.769   4.572  0.7345  0.2271 -1.5763
  892MOL0     H20377   2.398  11.911   4.570 -1.4147 -1.0346  2.4942
  892MOL0     H20378   2.374  11.905   4.333  0.6037  0.2084 -0.1741
  892MOL0     H20379   2.468  11.754   4.319  3.1021 -0.6677  0.9714
  892MOL0     H20380   2.650  11.675   4.431  0.0179 -0.3555 -0.5289
  892MOL0     H20381   2.828  11.510   4.470  0.3865  0.3800  0.4084
  892MOL0     H20382   2.820  11.498   4.292  2.5464 -3.9892  0.6300
  892MOL0     H20383   2.973  11.516   4.368  0.8358 -0.0153  0.9286
  892MOL0     H20384   3.343  11.729   4.114  0.7422 -2.8930 -0.2569
  892MOL0     H20385   3.574  11.694   4.136 -0.5402 -0.6078 -0.8899
  892MOL0     H20386   3.779  11.612   4.228 -3.4327  0.2130 -0.5670
  892MOL0     H20387   3.776  11.763   4.134 -0.8714  1.2263  0.8181
  892MOL0     H20388   3.996  11.739   4.151  0.1026 -0.1049 -0.4570
  892MOL0     H20389   3.966  11.857   4.277  2.8959  0.1336 -0.4210
  892MOL0     H20390   4.009  11.555   4.317  1.6032 -0.6467  1.2527
  892MOL0     H20391   3.952  11.669   4.447  1.9494  2.3645  0.8603
  892MOL0     H20392   4.230  11.654   4.302  1.3025  1.5601  0.6490
  892MOL0     H20393   4.175  11.792   4.399  0.6400  0.4071 -2.1204
  892MOL0     H20394   4.204  11.498   4.485  1.0731 -0.2626  1.5183
  892MOL0     H20395   4.128  11.613   4.584  0.2433  1.8069 -0.2227
  892MOL0     H20396   4.419  11.656   4.494 -2.4147  0.8806 -2.7814
  892MOL0     H20397   4.329  11.759   4.595 -0.2192  0.5170 -2.2413
  892MOL0     H20398   4.396  11.461   4.653 -2.5600  0.1550 -0.9886
  892MOL0     H20399   4.285  11.544   4.743  1.0921 -1.5490  2.3846
  892MOL0     H20400   4.508  11.561   4.868 -0.8299 -1.0775 -0.4031
  892MOL0     H20401   4.456  11.717   4.824  0.9887  0.2591  0.8765
  892MOL0     H20402   3.585  11.905   4.505  1.1532  0.4509 -1.3562
  892MOL0     H20403   3.336  11.916   4.503  0.5709 -0.7923  1.7024
  892MOL0     H20404   2.992  11.978   4.245 -0.7446  1.1976  0.2228
  892MOL0     H20405   2.760  12.053   4.263  2.1393  1.0704 -0.9687
  892MOL0     H20406   1.811  11.552   4.698  3.1417  1.6843  0.7251
  892MOL0     H20407   2.042  11.487   4.647  2.1114 -0.0501  1.7380
  892MOL0     H20408   2.321  10.955   4.565  2.4637 -1.0750  1.4289
  892MOL0     H20409   2.529  10.958   4.447  3.5697 -0.8898  1.4779
  892MOL0     H20410   2.897  11.102   4.446 -0.4538 -1.3728 -2.5831
  892MOL0     H20411   2.775  10.998   4.522 -0.5395 -1.9510 -0.9898
  892MOL0     H20412   2.693  10.940   4.303 -0.0147  1.4631  1.0868
  892MOL0     H20413   2.860  10.898   4.329 -2.3444 -1.5047  0.9084
  892MOL0     H20414   2.821  11.164   4.171 -0.1612 -0.4173 -1.1661
  892MOL0     H20415   2.804  11.004   4.095  0.1006 -0.5355 -0.2856
  892MOL0     H20416   3.039  11.126   4.251  2.3120 -1.3636 -0.1644
  892MOL0     H20417   3.018  11.122   4.073  3.2115 -0.6295  1.1522
  892MOL0     H20418   3.171  10.741   4.135  2.7946  1.0856 -0.3415
  892MOL0     H20419   2.599  11.379   4.527  0.3910 -1.6899  0.4133
  892MOL0     H20420   2.372  11.396   4.615  0.4777  0.1693  1.2965
  893MOL0     O20421   5.280   4.577   7.618 -0.3646 -0.5398  0.8744
  893MOL0     C20422   5.363   4.661   7.671  0.2274 -0.2892  0.5810
  893MOL0     O20423   5.323   4.776   7.732 -0.6412 -0.2572  0.3520
  893MOL0     C20424   5.216   4.762   7.807  0.7071  0.1748 -0.3671
  893MOL0     C20425   5.228   4.733   7.944  0.4461  0.3412 -0.1391
  893MOL0     C20426   5.118   4.752   8.030 -0.5084  0.2474  0.1481
  893MOL0     C20427   4.989   4.780   7.981 -0.6267  0.0186  0.1812
  893MOL0     O20428   4.874   4.778   8.064  1.0068 -0.6417  0.0923
  893MOL0     C20429   4.886   4.741   8.200  0.4527 -0.0001  0.2264
  893MOL0     C20430   4.760   4.786   8.264 -0.7397  0.0018 -0.0433
  893MOL0     C20431   4.639   4.726   8.201  0.3323  0.2285 -0.3616
  893MOL0     C20432   4.515   4.717   8.287  0.3881  0.6710 -0.5370
  893MOL0     C20433   4.392   4.663   8.214 -0.0706  0.3606  0.2670
  893MOL0     C20434   4.278   4.634   8.311  0.6192 -0.2433 -0.2469
  893MOL0     C20435   4.154   4.573   8.244  0.0211 -0.0942 -0.1597
  893MOL0     C20436   4.044   4.573   8.350  0.8478 -0.5432 -0.2089
  893MOL0     N20437   3.992   4.709   8.385 -0.3148 -0.2439 -0.3704
  893MOL0     C20438   4.023   4.799   8.487  0.7854  0.1343  0.6565
  893MOL0     C20439   3.974   4.920   8.454 -0.0831  0.1575 -0.2499
  893MOL0     C20440   3.990   5.041   8.543 -0.1236 -0.1208  0.1757
  893MOL0     C20441   3.872   5.032   8.642  0.3093 -0.0187 -0.8974
  893MOL0     C20442   3.741   5.087   8.577  1.0410  0.3874  0.0038
  893MOL0     C20443   3.627   5.104   8.687 -0.1512 -0.2522  0.2756
  893MOL0     O20444   3.509   5.167   8.637  0.2537 -0.5297 -0.4848
  893MOL0     C20445   3.405   5.198   8.729  0.8569  0.6541  0.7446
  893MOL0     C20446   3.393   5.147   8.858 -0.0800  0.2067 -0.4481
  893MOL0     C20447   3.284   5.160   8.937  0.0720  1.0996 -0.4728
  893MOL0     C20448   3.285   5.076   9.058 -0.7301  0.1964 -0.3198
  893MOL0     C20449   3.170   5.219   8.885 -0.0062 -0.3865  0.0836
  893MOL0     C20450   3.049   5.239   8.959  0.0550  0.8536  0.4732
  893MOL0     O20451   2.923   5.202   8.910 -0.3355 -0.3515 -0.5076
  893MOL0     C20452   2.809   5.200   8.990  0.4657  0.1465  0.5822
  893MOL0     C20453   2.687   5.266   8.952  0.0205 -0.3593 -0.1904
  893MOL0     C20454   2.575   5.244   9.033 -0.0068 -0.9759  0.0081
  893MOL0     C20455   2.574   5.169   9.151  0.2207 -0.7834 -1.1223
  893MOL0     O20456   2.449   5.149   9.211 -0.0693  0.4891 -0.4453
  893MOL0     C20457   2.448   5.098   9.345  0.2914  0.0680  0.0143
  893MOL0     C20458   2.301   5.117   9.402  0.4881  0.2259  0.0517
  893MOL0     C20459   2.199   5.023   9.333 -0.7779 -0.7983 -0.0025
  893MOL0     C20460   2.059   5.044   9.376 -0.5890  0.0242  0.3437
  893MOL0     C20461   2.020   5.007   9.519 -0.1949 -0.3988  0.2812
  893MOL0     C20462   2.006   4.861   9.536 -0.9824 -0.4514 -0.0834
  893MOL0     C20463   2.107   4.814   9.637  0.0672 -0.6476 -0.0599
  893MOL0     C20464   2.140   4.671   9.626 -0.3580  0.0948 -0.3463
  893MOL0    Cl20465   1.995   4.575   9.645 -0.2204  0.0891  0.0099
  893MOL0     C20466   2.693   5.109   9.198 -0.2374  0.1140  0.5439
  893MOL0     C20467   2.809   5.126   9.108 -0.4566 -0.9767  0.3141
  893MOL0     O20468   3.068   5.300   9.062 -0.8384 -0.1171  0.2010
  893MOL0     C20469   3.168   5.268   8.750 -0.8200  1.9739  0.8323
  893MOL0     C20470   3.283   5.253   8.675  0.3929 -0.6274  0.4253
  893MOL0     N20471   3.923   4.908   8.328  0.4731  0.1116 -0.6680
  893MOL0     N20472   3.933   4.788   8.294  0.0413  0.9691  0.0258
  893MOL0     C20473   4.980   4.806   7.841 -0.4175 -0.6996  0.1654
  893MOL0     C20474   5.090   4.801   7.760  1.0581  0.6545  0.4587
  893MOL0     C20475   5.505   4.636   7.665  0.5921  0.4616  0.6019
  893MOL0     C20476   5.594   4.686   7.757  0.0999  0.4097 -0.4548
  893MOL0     C20477   5.733   4.655   7.743  1.0973 -0.2305  0.4891
  893MOL0     C20478   5.779   4.584   7.636 -0.0376 -0.0770 -0.7296
  893MOL0     O20479   5.919   4.565   7.629  0.0315  0.6877 -0.0129
  893MOL0     C20480   5.969   4.478   7.521  0.0180 -0.3314 -0.5386
  893MOL0     C20481   6.120   4.442   7.551 -0.0596  0.1844  0.6575
  893MOL0     C20482   6.144   4.411   7.698 -0.1771 -0.3593 -0.0166
  893MOL0     C20483   6.280   4.352   7.722 -0.0023  0.3528 -0.8969
  893MOL0     C20484   6.285   4.207   7.686 -1.0035 -0.2261 -0.0292
  893MOL0     C20485   6.269   4.093   7.654 -0.0081  0.1654 -0.0449
  893MOL0     C20486   5.690   4.533   7.542 -0.5703 -0.7450 -0.2797
  893MOL0     C20487   5.555   4.560   7.559  1.0710 -0.5026  0.1067
  893MOL0     H20488   5.320   4.709   7.997 -0.0479  0.3446  0.7306
  893MOL0     H20489   5.135   4.744   8.137 -1.0364  2.3297  0.4386
  893MOL0     H20490   4.898   4.633   8.205 -0.9254 -0.1375  1.3139
  893MOL0     H20491   4.968   4.792   8.252 -0.5890  0.6372  1.3145
  893MOL0     H20492   4.763   4.745   8.365  0.0025 -1.0591 -0.4763
  893MOL0     H20493   4.763   4.896   8.260  0.9380 -0.0432 -2.1346
  893MOL0     H20494   4.618   4.792   8.116  0.2521  1.7929  0.8251
  893MOL0     H20495   4.651   4.627   8.156 -2.9236 -0.1987 -0.4754
  893MOL0     H20496   4.541   4.656   8.374 -1.3802  0.0905 -0.3894
  893MOL0     H20497   4.492   4.817   8.324  3.2197  0.9185  0.8779
  893MOL0     H20498   4.368   4.728   8.130 -2.0622 -1.2920 -0.5264
  893MOL0     H20499   4.414   4.571   8.159 -2.2249 -0.1874  0.2299
  893MOL0     H20500   4.323   4.560   8.377  0.0196 -0.8754 -0.5442
  893MOL0     H20501   4.248   4.723   8.367 -0.7167 -1.8261  1.6918
  893MOL0     H20502   4.132   4.626   8.151  1.5708  1.5414  0.3407
  893MOL0     H20503   4.179   4.469   8.224 -0.2459 -0.1210 -0.3674
  893MOL0     H20504   4.068   4.514   8.438  0.4188 -2.3189 -1.2227
  893MOL0     H20505   3.953   4.522   8.317 -0.7678 -0.1937  3.2984
  893MOL0     H20506   4.056   4.775   8.588 -0.1769 -0.2074  0.9060
  893MOL0     H20507   4.082   5.035   8.602 -0.6948 -0.7767  1.0177
  893MOL0     H20508   3.981   5.136   8.488  0.4620 -0.2985 -0.2305
  893MOL0     H20509   3.889   5.102   8.724 -2.0292 -0.9444  0.5038
  893MOL0     H20510   3.852   4.931   8.679  2.7597  0.2055  1.3817
  893MOL0     H20511   3.695   5.026   8.499  0.8199  0.5792 -0.0170
  893MOL0     H20512   3.756   5.185   8.530  3.4062  0.8641  1.5753
  893MOL0     H20513   3.674   5.163   8.766 -0.3851 -0.5834  0.6677
  893MOL0     H20514   3.598   5.005   8.723 -1.5965 -0.7197 -2.0039
  893MOL0     H20515   3.479   5.086   8.885  1.0445  1.4416 -1.0936
  893MOL0     H20516   3.388   5.068   9.094 -1.2360 -0.7607  1.0303
  893MOL0     H20517   3.212   5.112   9.131 -0.4696 -0.2990  0.1949
  893MOL0     H20518   3.254   4.972   9.047  1.7812 -0.7085  0.6844
  893MOL0     H20519   2.685   5.333   8.866  0.3480  1.4008  1.1256
  893MOL0     H20520   2.480   5.290   9.007 -0.4154 -0.8855  1.5889
  893MOL0     H20521   2.474   4.992   9.347 -2.0591 -0.5681  0.0443
  893MOL0     H20522   2.515   5.151   9.414 -1.7625  3.4484 -0.3786
  893MOL0     H20523   2.310   5.094   9.509 -0.9644 -1.1291 -0.0907
  893MOL0     H20524   2.264   5.219   9.388 -2.0867 -0.9064 -2.0514
  893MOL0     H20525   2.223   4.918   9.356  0.9313 -0.7716 -1.4482
  893MOL0     H20526   2.208   5.037   9.225  1.2606  1.2489  0.3569
  893MOL0     H20527   2.047   5.153   9.376 -1.1573  0.0670  3.4894
  893MOL0     H20528   1.990   5.000   9.304  0.4224  0.9489 -1.2520
  893MOL0     H20529   1.925   5.055   9.542 -0.4083  1.9760 -4.3413
  893MOL0     H20530   2.091   5.053   9.588 -1.3450  1.0837  0.5136
  893MOL0     H20531   1.907   4.832   9.572  0.0410 -1.4470  2.1920
  893MOL0     H20532   2.026   4.808   9.443  2.1018  1.9443 -0.9544
  893MOL0     H20533   2.079   4.836   9.740  0.5124 -0.9437  0.1266
  893MOL0     H20534   2.206   4.858   9.623  1.4516 -3.0060  1.6009
  893MOL0     H20535   2.207   4.650   9.710  0.2177  2.0574 -0.2826
  893MOL0     H20536   2.196   4.639   9.538 -0.3243 -1.3351  0.1554
  893MOL0     H20537   2.691   5.049   9.288  1.0884  0.1677  0.6302
  893MOL0     H20538   2.899   5.073   9.138  0.2857  0.3244  0.4591
  893MOL0     H20539   3.082   5.317   8.706 -1.5461 -0.9340 -1.3065
  893MOL0     H20540   3.275   5.277   8.569  0.8753 -0.5033  0.4150
  893MOL0     H20541   4.885   4.832   7.795 -1.0426  1.6571  2.5113
  893MOL0     H20542   5.075   4.821   7.655  2.1263 -0.5855  0.0409
  893MOL0     H20543   5.564   4.733   7.850 -1.0789 -2.5602  0.8070
  893MOL0     H20544   5.805   4.680   7.820 -0.7082 -1.1635  2.5978
  893MOL0     H20545   5.907   4.388   7.521 -2.0920  0.9062 -4.0466
  893MOL0     H20546   5.954   4.528   7.425 -0.6501 -1.0281 -0.8001
  893MOL0     H20547   6.183   4.529   7.533  3.7877 -1.7277  3.4148
  893MOL0     H20548   6.148   4.362   7.481 -2.6796 -0.8956  0.7248
  893MOL0     H20549   6.079   4.331   7.734 -1.4484  0.5562 -0.1987
  893MOL0     H20550   6.139   4.503   7.757 -0.9032 -0.5137  0.1700
  893MOL0     H20551   6.312   4.363   7.826  0.3770  2.1763 -1.1648
  893MOL0     H20552   6.358   4.401   7.663 -0.0999  2.2255  0.4343
  893MOL0     H20553   6.270   3.986   7.646 -1.9808 -0.1578  2.6940
  893MOL0     H20554   5.731   4.470   7.464  2.0888  0.9502 -0.3944
  893MOL0     H20555   5.485   4.502   7.500  1.2551  2.9800 -4.0075
  894MOL0     O20556  11.062   1.157   1.968 -0.3996 -0.2706  0.1255
  894MOL0     C20557  11.102   1.070   1.899 -0.3083 -0.0872  0.0471
  894MOL0     O20558  11.021   1.001   1.815 -0.2778 -0.6657  1.0095
  894MOL0     C20559  10.894   1.051   1.796 -0.2794 -0.4635 -0.9768
  894MOL0     C20560  10.801   0.957   1.767  0.8782 -0.1727 -0.2295
  894MOL0     C20561  10.667   0.986   1.738  0.1059 -0.8013  0.3211
  894MOL0     C20562  10.628   1.126   1.726  0.0694 -0.2977 -0.3224
  894MOL0     O20563  10.503   1.174   1.703 -0.4732  0.1907 -0.3531
  894MOL0     C20564  10.392   1.094   1.744  0.1090 -0.9311 -0.4059
  894MOL0     C20565  10.262   1.182   1.738  0.1510  0.6596  0.6918
  894MOL0     C20566  10.132   1.092   1.757  0.5464  0.0454 -0.3040
  894MOL0     C20567  10.098   1.027   1.622 -0.1135  0.0888  0.2051
  894MOL0     C20568   9.963   0.945   1.626  0.3254 -0.0372  0.2117
  894MOL0     C20569   9.933   0.862   1.503 -0.0017  0.7239 -0.1183
  894MOL0     C20570   9.830   0.751   1.537  0.5053 -0.2772 -1.2884
  894MOL0     C20571   9.688   0.795   1.577 -0.2318 -0.9550  0.7337
  894MOL0     N20572   9.604   0.694   1.646  0.1129 -0.3053 -0.2658
  894MOL0     C20573   9.574   0.573   1.590  0.7742 -0.4036 -0.2083
  894MOL0     C20574   9.470   0.528   1.661  0.2470 -0.3169  0.7980
  894MOL0     C20575   9.387   0.402   1.651 -1.2109  0.3791  0.0007
  894MOL0     C20576   9.338   0.367   1.514 -0.1543 -0.3632  0.7258
  894MOL0     C20577   9.203   0.282   1.523 -0.7417 -0.1372 -0.5356
  894MOL0     C20578   9.077   0.368   1.525 -0.1016 -1.0241 -0.3400
  894MOL0     O20579   8.970   0.277   1.562 -0.0211  0.5050 -0.8879
  894MOL0     C20580   8.838   0.312   1.549  0.8519  0.3343  0.2224
  894MOL0     C20581   8.744   0.208   1.546  0.3694 -0.0099 -0.1521
  894MOL0     C20582   8.608   0.227   1.537  0.5077  0.0318 -0.0041
  894MOL0     C20583   8.539   0.090   1.528  0.9175 -0.0373 -1.0422
  894MOL0     C20584   8.554   0.356   1.512  0.2833  2.0192 -0.7498
  894MOL0     C20585   8.413   0.379   1.473  0.9359  0.7389 -0.5533
  894MOL0     O20586   8.310   0.287   1.513  0.2502 -0.0727 -0.1063
  894MOL0     C20587   8.177   0.305   1.481 -0.1348  0.2114  0.1521
  894MOL0     C20588   8.109   0.401   1.403 -0.1709 -0.0552 -0.7345
  894MOL0     C20589   7.971   0.389   1.384  0.0642  0.0174  0.1532
  894MOL0     C20590   7.894   0.285   1.438  0.4615 -0.4754 -0.2067
  894MOL0     O20591   7.758   0.268   1.436  0.0939 -0.5356 -0.1571
  894MOL0     C20592   7.679   0.369   1.373 -0.2917  0.0626 -1.4042
  894MOL0     C20593   7.650   0.501   1.442  0.1333  0.2064  0.8144
  894MOL0     C20594   7.578   0.507   1.579 -0.2859  0.5981  0.2898
  894MOL0     C20595   7.530   0.644   1.616  0.5499 -0.1656  0.7759
  894MOL0     C20596   7.631   0.746   1.634  1.1669  0.4406 -0.0780
  894MOL0     C20597   7.555   0.872   1.677 -0.8427  0.1041  0.1929
  894MOL0     C20598   7.643   0.996   1.679 -1.0434 -0.7280 -0.0139
  894MOL0     C20599   7.599   1.118   1.597 -0.1918 -0.8417 -0.2775
  894MOL0    Cl20600   7.541   1.071   1.433 -0.2464  0.1672  0.0868
  894MOL0     C20601   7.965   0.185   1.511 -0.8948 -0.0284  0.1328
  894MOL0     C20602   8.101   0.199   1.533  0.6308 -0.4067 -0.2260
  894MOL0     O20603   8.391   0.477   1.400  0.3557 -0.7664  0.0919
  894MOL0     C20604   8.640   0.460   1.513 -0.5337  0.1609 -0.0084
  894MOL0     C20605   8.783   0.445   1.544 -0.3107 -0.5156  0.6201
  894MOL0     N20606   9.429   0.627   1.746 -0.5496 -0.2840 -0.0674
  894MOL0     N20607   9.520   0.727   1.750 -0.7989 -0.0562 -0.2253
  894MOL0     C20608  10.721   1.227   1.746 -0.5003 -0.6087 -0.3557
  894MOL0     C20609  10.853   1.184   1.782 -0.0553  1.4152 -0.5120
  894MOL0     C20610  11.257   1.045   1.899  0.2732 -0.0445  0.3614
  894MOL0     C20611  11.332   1.119   1.986 -0.2392 -0.5048  0.1379
  894MOL0     C20612  11.470   1.097   1.983  0.0869  0.8248 -0.2591
  894MOL0     C20613  11.533   1.015   1.892 -0.1916 -0.5597  0.2653
  894MOL0     O20614  11.669   0.995   1.897 -0.1211 -0.7035 -0.3143
  894MOL0     C20615  11.726   0.881   1.831  0.5624 -0.1333 -0.9178
  894MOL0     C20616  11.876   0.898   1.821  0.6964  0.0073  0.5034
  894MOL0     C20617  11.930   0.815   1.696  0.0836 -0.7771 -0.2342
  894MOL0     C20618  12.080   0.815   1.688  0.0616 -1.2954  0.0099
  894MOL0     C20619  12.147   0.752   1.799  0.7059 -0.9014 -0.6978
  894MOL0     C20620  12.204   0.686   1.885 -0.4883 -0.0096 -0.4184
  894MOL0     C20621  11.453   0.942   1.811  0.6428  0.6540  0.1956
  894MOL0     C20622  11.313   0.961   1.809 -0.5140 -0.6990  0.0557
  894MOL0     H20623  10.813   0.849   1.760 -4.7720 -1.2208  1.1280
  894MOL0     H20624  10.613   0.892   1.727  1.4645 -1.3036 -3.6713
  894MOL0     H20625  10.393   1.012   1.671 -0.6280  0.0732 -1.5932
  894MOL0     H20626  10.395   1.053   1.846 -0.3284 -0.0304 -0.0212
  894MOL0     H20627  10.264   1.263   1.812 -0.4866  0.7236  0.6449
  894MOL0     H20628  10.247   1.240   1.646  0.3235  0.4018  0.5021
  894MOL0     H20629  10.142   1.009   1.827 -3.5511 -1.2240 -0.9575
  894MOL0     H20630  10.051   1.160   1.786 -0.6079  0.3163 -3.7201
  894MOL0     H20631  10.084   1.109   1.551 -0.4700  0.5903  0.8432
  894MOL0     H20632  10.181   0.963   1.589  0.8136  2.1741 -1.8118
  894MOL0     H20633   9.977   0.870   1.705  0.9150 -1.5454 -1.2475
  894MOL0     H20634   9.884   1.015   1.654  0.1939 -0.5255  1.0803
  894MOL0     H20635   9.899   0.921   1.417  0.4265  0.3494 -0.5582
  894MOL0     H20636  10.027   0.817   1.467  0.3854  0.6411  0.9724
  894MOL0     H20637   9.812   0.689   1.448 -0.2685  1.3702 -2.3239
  894MOL0     H20638   9.870   0.689   1.618  1.5429  1.9064 -0.0713
  894MOL0     H20639   9.638   0.822   1.484  1.0600 -2.3307 -0.4375
  894MOL0     H20640   9.693   0.885   1.638  1.9250 -0.6246  0.1684
  894MOL0     H20641   9.620   0.520   1.507  1.3531  0.6967 -0.6046
  894MOL0     H20642   9.434   0.314   1.694 -1.5748  0.2606  0.1644
  894MOL0     H20643   9.299   0.405   1.716 -2.2017  1.0981 -1.3125
  894MOL0     H20644   9.422   0.326   1.457  1.7699  1.7159  1.8677
  894MOL0     H20645   9.316   0.459   1.459  0.5974 -0.4658  0.2430
  894MOL0     H20646   9.215   0.219   1.612 -0.0641 -0.9221 -1.1623
  894MOL0     H20647   9.203   0.208   1.442 -2.9183  1.1134 -1.7756
  894MOL0     H20648   9.071   0.412   1.425  0.5313  2.2526  0.9472
  894MOL0     H20649   9.082   0.441   1.606 -0.2294 -1.6903  0.2816
  894MOL0     H20650   8.795   0.112   1.543  2.1991  0.9293 -1.0832
  894MOL0     H20651   8.472   0.092   1.614  0.6856  1.7685 -1.2333
  894MOL0     H20652   8.473   0.085   1.441 -1.4722 -0.5265  0.6834
  894MOL0     H20653   8.599  -0.001   1.539  0.2307 -0.3260  0.7812
  894MOL0     H20654   8.154   0.476   1.340 -2.6937  0.8846 -1.5447
  894MOL0     H20655   7.919   0.459   1.319  1.0006 -0.2624 -0.9436
  894MOL0     H20656   7.723   0.382   1.274  1.4530  1.1341 -0.5463
  894MOL0     H20657   7.577   0.331   1.371 -1.9062  3.7847  0.1041
  894MOL0     H20658   7.747   0.550   1.458 -0.0039 -0.5573  5.6743
  894MOL0     H20659   7.595   0.539   1.356 -1.4784 -0.6301  1.4335
  894MOL0     H20660   7.650   0.471   1.652  1.0293 -1.0017 -1.6604
  894MOL0     H20661   7.495   0.436   1.578  0.1769  0.0277  1.4876
  894MOL0     H20662   7.468   0.676   1.533  1.6143 -0.3327 -0.1028
  894MOL0     H20663   7.465   0.636   1.704  1.3919  0.6939  1.5096
  894MOL0     H20664   7.694   0.756   1.546  2.8426 -2.2168  0.6859
  894MOL0     H20665   7.689   0.721   1.724 -2.5067  1.4681  2.8360
  894MOL0     H20666   7.482   0.896   1.598  1.2080  1.0130 -1.5195
  894MOL0     H20667   7.503   0.858   1.772 -2.2502  1.0932 -0.3831
  894MOL0     H20668   7.743   0.973   1.642  0.0471  3.3626 -0.0327
  894MOL0     H20669   7.650   1.026   1.784  1.3648  1.1710 -0.6331
  894MOL0     H20670   7.680   1.191   1.606 -1.7551  0.7463  2.7650
  894MOL0     H20671   7.516   1.162   1.653  1.5668  1.5274  0.6473
  894MOL0     H20672   7.908   0.105   1.557  1.3864 -0.5880  2.1757
  894MOL0     H20673   8.149   0.118   1.586 -0.2552  0.6612  2.3257
  894MOL0     H20674   8.610   0.561   1.488 -1.6363 -0.1507  0.0018
  894MOL0     H20675   8.843   0.534   1.533 -1.6452  0.2015 -1.3987
  894MOL0     H20676  10.687   1.330   1.742  0.6153 -0.2218 -0.1485
  894MOL0     H20677  10.931   1.258   1.798  1.7519 -0.7458  1.1924
  894MOL0     H20678  11.281   1.184   2.056 -2.2395  0.3838 -2.0109
  894MOL0     H20679  11.532   1.160   2.046 -0.0867  2.9705 -2.0966
  894MOL0     H20680  11.710   0.790   1.890 -0.3158  1.3513  1.2373
  894MOL0     H20681  11.699   0.866   1.726  3.6623  1.0033 -1.9893
  894MOL0     H20682  11.924   0.877   1.917 -0.0318  2.5234  1.5074
  894MOL0     H20683  11.899   1.003   1.803  0.8028 -0.1696 -0.4269
  894MOL0     H20684  11.891   0.848   1.599 -0.4313  0.9824  0.5373
  894MOL0     H20685  11.898   0.711   1.700 -0.6242 -0.6040 -1.0654
  894MOL0     H20686  12.118   0.913   1.656 -0.4102 -1.5912 -1.5795
  894MOL0     H20687  12.089   0.744   1.605  2.7059  0.1903 -1.1076
  894MOL0     H20688  12.235   0.626   1.968 -1.4147  0.7329  0.4884
  894MOL0     H20689  11.494   0.867   1.743 -0.1179  0.2516  0.1783
  894MOL0     H20690  11.245   0.915   1.739 -0.6969  0.3490 -0.4721
  895MOL0     O20691   0.373   2.344   1.327 -0.6177  0.2643  0.0221
  895MOL0     C20692   0.429   2.237   1.301 -0.6741  0.0494  0.6983
  895MOL0     O20693   0.366   2.131   1.234 -0.1158  0.7942 -0.0958
  895MOL0     C20694   0.230   2.126   1.206 -0.0558  0.5667  0.3889
  895MOL0     C20695   0.190   2.094   1.083  0.4950 -0.6749 -0.5189
  895MOL0     C20696   0.054   2.061   1.070  0.8701  1.1649  0.2487
  895MOL0     C20697  -0.042   2.092   1.165  0.3954  0.6819 -0.2589
  895MOL0     O20698  -0.177   2.059   1.139  0.6780 -0.1545  0.0939
  895MOL0     C20699  -0.275   2.114   1.235 -0.7389  0.4236 -0.5895
  895MOL0     C20700  -0.406   2.055   1.181  0.3014  0.7153  0.9910
  895MOL0     C20701  -0.531   2.107   1.238 -0.1436  0.0496 -0.4495
  895MOL0     C20702  -0.648   2.012   1.188 -0.2303  1.1608  0.0449
  895MOL0     C20703  -0.786   2.075   1.202 -0.0730  0.2938 -0.2782
  895MOL0     C20704  -0.906   1.979   1.184 -0.2357 -0.8250  0.9116
  895MOL0     C20705  -1.037   2.040   1.207 -0.2274 -0.1678 -0.3431
  895MOL0     C20706  -1.152   1.938   1.186 -0.5649 -0.4343  0.0408
  895MOL0     N20707  -1.278   1.984   1.255  0.2198 -0.7245  0.1855
  895MOL0     C20708  -1.365   2.084   1.226 -0.5982 -0.0675  0.6397
  895MOL0     C20709  -1.473   2.075   1.307  0.8259  0.1347 -0.5674
  895MOL0     C20710  -1.592   2.159   1.316 -0.0189  0.0988  0.1653
  895MOL0     C20711  -1.718   2.103   1.245 -1.1816 -0.3072 -0.0509
  895MOL0     C20712  -1.748   1.971   1.301  0.7772  0.5226  0.3545
  895MOL0     C20713  -1.892   1.926   1.274  1.0702 -0.7551  0.2991
  895MOL0     O20714  -1.979   2.007   1.362 -0.6589  0.4361 -0.0400
  895MOL0     C20715  -2.116   1.990   1.354 -0.0032 -0.0004 -0.2882
  895MOL0     C20716  -2.201   2.097   1.399  0.4861 -0.3304  0.4967
  895MOL0     C20717  -2.340   2.081   1.403 -0.6030  0.0012 -0.1709
  895MOL0     C20718  -2.420   2.205   1.450 -0.4235 -0.1665  0.1442
  895MOL0     C20719  -2.406   1.957   1.362 -0.9226 -0.1303  0.2154
  895MOL0     C20720  -2.552   1.929   1.378  0.8275 -0.0174  0.2487
  895MOL0     O20721  -2.593   1.827   1.311  0.2307  0.4874 -0.3890
  895MOL0     C20722  -2.727   1.788   1.308  0.4360  0.1533  0.7715
  895MOL0     C20723  -2.800   1.836   1.199 -0.6348 -0.0319 -0.3437
  895MOL0     C20724  -2.933   1.799   1.177 -0.0771 -0.2686  0.1549
  895MOL0     C20725  -3.001   1.714   1.267 -0.1743  0.2562 -0.4489
  895MOL0     O20726  -3.128   1.679   1.235  0.1351 -0.0732 -0.5533
  895MOL0     C20727  -3.215   1.779   1.294 -0.4987 -0.1575 -0.4144
  895MOL0     C20728  -3.356   1.725   1.285 -0.1234  1.1632  0.6173
  895MOL0     C20729  -3.457   1.828   1.300  0.0276  0.2280 -0.3124
  895MOL0     C20730  -3.590   1.803   1.221 -0.0357 -0.1821 -0.0052
  895MOL0     C20731  -3.675   1.932   1.177  0.1519  0.2755 -0.0484
  895MOL0     C20732  -3.780   1.908   1.071  0.3752  0.0100 -0.2647
  895MOL0     C20733  -3.907   1.848   1.139 -0.3526  0.4676 -0.4247
  895MOL0     C20734  -4.007   1.782   1.037  0.0207  0.5983  0.2246
  895MOL0    Cl20735  -4.052   1.892   0.908  0.5392 -0.2165  0.2137
  895MOL0     C20736  -2.935   1.678   1.389  0.6671  0.9340 -0.2448
  895MOL0     C20737  -2.792   1.703   1.400 -1.1536 -0.7778  0.1631
  895MOL0     O20738  -2.622   2.004   1.440  0.0215 -0.3164 -0.5246
  895MOL0     C20739  -2.313   1.857   1.317 -0.0639 -0.0483  0.6009
  895MOL0     C20740  -2.178   1.873   1.304 -0.0346 -0.2251 -0.5296
  895MOL0     N20741  -1.443   1.964   1.388  0.7361 -0.5500  0.6979
  895MOL0     N20742  -1.328   1.913   1.361  0.1100 -0.0273 -0.0089
  895MOL0     C20743   0.003   2.142   1.282  0.1703 -0.7426 -0.2844
  895MOL0     C20744   0.134   2.154   1.308 -0.1280  0.1001 -0.2526
  895MOL0     C20745   0.566   2.207   1.350 -0.7606 -0.0320 -0.9540
  895MOL0     C20746   0.643   2.089   1.312  0.1694  0.0356  0.3166
  895MOL0     C20747   0.771   2.070   1.347 -0.1488  0.9982 -0.6223
  895MOL0     C20748   0.843   2.163   1.419  1.2713 -0.1159 -0.0257
  895MOL0     O20749   0.983   2.159   1.437 -0.3547 -0.9884  0.1543
  895MOL0     C20750   1.067   2.054   1.381 -0.4836  0.0026 -0.2738
  895MOL0     C20751   1.208   2.096   1.363 -0.8247 -0.2365 -0.1332
  895MOL0     C20752   1.205   2.224   1.265  0.1221  0.5551 -0.3166
  895MOL0     C20753   1.346   2.245   1.202  0.3093 -0.1983  0.6081
  895MOL0     C20754   1.426   2.312   1.302  0.7332 -0.0642  0.2811
  895MOL0     C20755   1.516   2.363   1.372 -0.1914 -0.3370 -0.3521
  895MOL0     C20756   0.773   2.270   1.464  0.5749 -0.1947 -0.0475
  895MOL0     C20757   0.634   2.293   1.436  0.4952  0.1616  0.3177
  895MOL0     H20758   0.254   2.077   0.997 -0.9268  1.6114 -2.1569
  895MOL0     H20759   0.024   2.005   0.982 -0.5946 -0.7761  1.9030
  895MOL0     H20760  -0.249   2.085   1.337  3.4213  0.2793 -1.4946
  895MOL0     H20761  -0.264   2.223   1.233  1.7116  0.2420  0.1377
  895MOL0     H20762  -0.404   2.077   1.074  1.2634  0.4483  0.9481
  895MOL0     H20763  -0.392   1.949   1.202  2.3724  0.7224 -0.1028
  895MOL0     H20764  -0.522   2.107   1.347 -1.0370  1.6135 -0.3426
  895MOL0     H20765  -0.548   2.209   1.203 -1.8763 -0.1075 -0.1664
  895MOL0     H20766  -0.632   1.963   1.091 -0.2608 -2.4679  1.7039
  895MOL0     H20767  -0.654   1.925   1.254 -0.4773 -1.1462 -2.7721
  895MOL0     H20768  -0.802   2.127   1.297 -4.5198 -1.9832  0.4985
  895MOL0     H20769  -0.794   2.141   1.115 -0.6069  1.2421  0.4770
  895MOL0     H20770  -0.905   1.951   1.078 -2.1312  0.9496  0.3623
  895MOL0     H20771  -0.893   1.889   1.244  0.6630 -1.8332 -0.7094
  895MOL0     H20772  -1.030   2.080   1.309  0.6663  0.2112 -0.5420
  895MOL0     H20773  -1.047   2.126   1.141 -3.0006 -0.0066  0.1721
  895MOL0     H20774  -1.132   1.841   1.234 -1.5074 -0.2122  0.9190
  895MOL0     H20775  -1.187   1.933   1.082 -2.7975  0.0836  0.7020
  895MOL0     H20776  -1.345   2.159   1.150 -4.4026 -1.3101 -1.8782
  895MOL0     H20777  -1.621   2.163   1.421  3.9787 -1.8975  1.5718
  895MOL0     H20778  -1.568   2.256   1.273  2.7426 -1.5096 -2.3121
  895MOL0     H20779  -1.693   2.096   1.139 -0.8722 -0.4931  0.0332
  895MOL0     H20780  -1.790   2.185   1.258 -1.2210 -0.2998 -0.3041
  895MOL0     H20781  -1.724   1.974   1.408  0.5974 -0.1759  0.4177
  895MOL0     H20782  -1.680   1.898   1.256  0.3476  1.3473 -1.7602
  895MOL0     H20783  -1.898   1.821   1.303 -3.1735 -0.3125  1.7663
  895MOL0     H20784  -1.919   1.929   1.168  2.0149 -3.8998 -0.1115
  895MOL0     H20785  -2.151   2.191   1.418  0.2183 -0.1363  0.2442
  895MOL0     H20786  -2.483   2.181   1.536 -2.0729  0.6535 -0.7812
  895MOL0     H20787  -2.341   2.279   1.472  1.8152 -1.8895 -1.6111
  895MOL0     H20788  -2.476   2.238   1.362  2.4009  1.9977 -1.0182
  895MOL0     H20789  -2.758   1.897   1.120  1.4764 -1.2253 -0.2241
  895MOL0     H20790  -2.977   1.840   1.087  2.1722  1.3179 -0.3073
  895MOL0     H20791  -3.196   1.793   1.401 -1.0719  1.7442 -0.5253
  895MOL0     H20792  -3.214   1.883   1.260 -0.3173 -0.6578 -1.9958
  895MOL0     H20793  -3.359   1.687   1.182  3.4438 -2.6551  1.6467
  895MOL0     H20794  -3.374   1.640   1.351 -1.5238  0.8323 -0.1491
  895MOL0     H20795  -3.418   1.926   1.270 -0.6501 -0.0888 -2.3282
  895MOL0     H20796  -3.472   1.826   1.409  1.6800 -6.0038  0.1816
  895MOL0     H20797  -3.564   1.738   1.138 -0.6828  0.6253 -0.8686
  895MOL0     H20798  -3.662   1.754   1.287 -0.7876  1.7707  0.7160
  895MOL0     H20799  -3.604   2.006   1.139 -0.4225  1.3379  0.8763
  895MOL0     H20800  -3.713   1.979   1.268  1.3561  2.4313 -0.5934
  895MOL0     H20801  -3.807   2.000   1.019 -0.7151 -0.3455 -0.3550
  895MOL0     H20802  -3.744   1.845   0.989  0.2922  0.7006 -0.8465
  895MOL0     H20803  -3.947   1.925   1.206  0.2064 -0.8134  1.4511
  895MOL0     H20804  -3.869   1.771   1.207  1.2571  2.3587  0.9296
  895MOL0     H20805  -4.100   1.748   1.084  0.3540  0.6415  0.9307
  895MOL0     H20806  -3.959   1.689   1.007 -0.8198 -0.8339  2.9398
  895MOL0     H20807  -2.983   1.605   1.453  3.6369  0.4499  1.6538
  895MOL0     H20808  -2.729   1.665   1.480 -1.5961 -3.0751 -0.5078
  895MOL0     H20809  -2.345   1.757   1.289 -1.6702  0.7361 -0.4375
  895MOL0     H20810  -2.122   1.783   1.283 -0.7161 -0.5606 -0.9258
  895MOL0     H20811  -0.052   2.158   1.374  0.4430  0.4639 -0.3076
  895MOL0     H20812   0.163   2.181   1.409  0.9325  1.8221 -0.9528
  895MOL0     H20813   0.589   2.013   1.255 -1.3741 -0.8475  2.8108
  895MOL0     H20814   0.826   1.980   1.319  2.9041  1.4876  3.0128
  895MOL0     H20815   1.070   1.973   1.455 -0.3766 -1.8416 -2.2054
  895MOL0     H20816   1.026   2.007   1.291  0.0758 -0.4463 -0.3029
  895MOL0     H20817   1.265   2.016   1.314 -0.9350  0.1584 -0.9172
  895MOL0     H20818   1.255   2.119   1.459  1.2246  3.0706 -1.7479
  895MOL0     H20819   1.162   2.316   1.305 -2.1166 -0.5691 -0.0163
  895MOL0     H20820   1.133   2.197   1.188  0.9998 -3.0435 -0.0427
  895MOL0     H20821   1.343   2.317   1.119  1.3319 -0.7700  0.0573
  895MOL0     H20822   1.392   2.154   1.165  1.4803  1.2179 -1.6348
  895MOL0     H20823   1.593   2.415   1.425 -1.8775  1.5838  0.3476
  895MOL0     H20824   0.828   2.339   1.527 -0.6081 -1.2648  2.2718
  895MOL0     H20825   0.590   2.381   1.483  2.5217  1.1036  0.5522
  896MOL0     O20826   4.492   7.496   3.628 -0.3802 -0.0788  0.5060
  896MOL0     C20827   4.511   7.602   3.682  0.5903 -0.6785  0.4008
  896MOL0     O20828   4.406   7.689   3.733 -0.0174  0.3039  0.1489
  896MOL0     C20829   4.285   7.632   3.730  0.5903 -0.3848  0.7012
  896MOL0     C20830   4.185   7.682   3.642  0.3650  0.5222  0.1133
  896MOL0     C20831   4.060   7.619   3.645  0.3114  0.2691  0.6315
  896MOL0     C20832   4.040   7.502   3.717  0.5789 -0.2842 -0.3123
  896MOL0     O20833   3.920   7.436   3.712 -0.0556 -0.1956  0.4068
  896MOL0     C20834   3.792   7.501   3.731 -0.0433  0.5146  0.2168
  896MOL0     C20835   3.745   7.525   3.591  0.3821 -0.1142  0.3271
  896MOL0     C20836   3.589   7.524   3.572  0.0979  0.1745 -0.0023
  896MOL0     C20837   3.553   7.518   3.416 -0.7792  0.2223  0.2791
  896MOL0     C20838   3.429   7.447   3.378  0.9768 -0.1449 -0.2217
  896MOL0     C20839   3.302   7.480   3.462 -0.8443  0.5737  0.5217
  896MOL0     C20840   3.171   7.399   3.425  0.8849 -0.5580  0.1860
  896MOL0     C20841   3.128   7.422   3.275  0.6559 -0.9436 -0.2574
  896MOL0     N20842   2.995   7.373   3.243  0.3638 -0.6175  0.3914
  896MOL0     C20843   2.973   7.254   3.183 -0.1717  0.0691  0.6341
  896MOL0     C20844   2.832   7.256   3.173  0.3307 -0.6052 -0.2582
  896MOL0     C20845   2.743   7.146   3.120  0.1108 -0.1227  0.2169
  896MOL0     C20846   2.665   7.063   3.210  0.1271  0.6315 -0.8223
  896MOL0     C20847   2.530   7.127   3.272 -0.1872 -0.1334  0.0714
  896MOL0     C20848   2.495   7.040   3.387 -0.0892  0.0433 -0.5528
  896MOL0     O20849   2.442   7.125   3.491  0.5090  0.7202  0.1037
  896MOL0     C20850   2.314   7.171   3.479  0.2910 -0.6354  0.1613
  896MOL0     C20851   2.220   7.139   3.382  0.5960 -0.4655  0.7473
  896MOL0     C20852   2.090   7.200   3.383 -0.4069 -0.1517  1.1260
  896MOL0     C20853   2.001   7.185   3.257  0.4572 -0.6873 -0.2096
  896MOL0     C20854   2.053   7.266   3.506  0.3822 -1.7218 -0.0931
  896MOL0     C20855   1.913   7.318   3.525 -0.5109 -0.2610 -1.1070
  896MOL0     O20856   1.893   7.419   3.610  0.1842 -0.1987 -0.4574
  896MOL0     C20857   1.770   7.465   3.610  0.8961  0.7077  0.0377
  896MOL0     C20858   1.665   7.405   3.690 -0.2558 -0.1551  0.5203
  896MOL0     C20859   1.536   7.460   3.696 -0.0634  0.7589  0.0574
  896MOL0     C20860   1.496   7.569   3.613 -0.4214 -0.8636 -0.5513
  896MOL0     O20861   1.372   7.633   3.607  0.6663 -0.0325 -0.0707
  896MOL0     C20862   1.284   7.597   3.714  0.2344 -0.1882  0.7587
  896MOL0     C20863   1.158   7.693   3.719  0.0348  0.2153  0.0904
  896MOL0     C20864   1.206   7.840   3.758 -0.7039  0.2864  0.0772
  896MOL0     C20865   1.090   7.934   3.734 -0.5011 -0.3789  0.6918
  896MOL0     C20866   1.146   8.073   3.736  0.0552 -0.8753  0.0001
  896MOL0     C20867   1.036   8.189   3.724  0.3430 -0.5060  0.5943
  896MOL0     C20868   1.122   8.313   3.675  0.7622 -0.2169 -0.1236
  896MOL0     C20869   1.025   8.430   3.656  0.3766  0.0385  0.1400
  896MOL0    Cl20870   0.945   8.413   3.500  0.4924 -0.0667  0.2015
  896MOL0     C20871   1.600   7.616   3.531 -0.1205 -0.0406  0.5671
  896MOL0     C20872   1.737   7.579   3.533  1.1294  0.6814  0.4389
  896MOL0     O20873   1.828   7.251   3.465  0.4862  0.3572 -0.2855
  896MOL0     C20874   2.154   7.291   3.600  0.1702 -0.5610  0.5833
  896MOL0     C20875   2.278   7.253   3.583 -0.5185  0.3926 -0.1330
  896MOL0     N20876   2.780   7.372   3.230 -0.0950  0.8844  0.0017
  896MOL0     N20877   2.882   7.435   3.277  0.6571 -0.4649  0.7434
  896MOL0     C20878   4.140   7.460   3.801 -0.2275  0.3268  0.6280
  896MOL0     C20879   4.259   7.530   3.812  0.1437  0.3344  0.4779
  896MOL0     C20880   4.651   7.654   3.693  0.2385  0.6626 -0.0188
  896MOL0     C20881   4.676   7.783   3.728  0.1422 -0.1389  0.1038
  896MOL0     C20882   4.811   7.823   3.751  0.2357 -0.5467 -0.0953
  896MOL0     C20883   4.924   7.739   3.713  0.0912 -0.6204  0.2684
  896MOL0     O20884   5.049   7.804   3.718  0.3520  0.2734 -0.4168
  896MOL0     C20885   5.157   7.724   3.682 -0.1242 -0.1827  0.5539
  896MOL0     C20886   5.276   7.823   3.647  0.9194  0.3062  0.7679
  896MOL0     C20887   5.318   7.894   3.770  0.2520  0.2520  0.1075
  896MOL0     C20888   5.441   7.992   3.753 -0.8420  0.5632 -1.2093
  896MOL0     C20889   5.495   8.049   3.883 -0.2093  0.5047 -0.4022
  896MOL0     C20890   5.529   8.091   3.989  0.1544 -0.2242 -0.2927
  896MOL0     C20891   4.890   7.607   3.678 -0.7013  0.2106  0.0728
  896MOL0     C20892   4.753   7.562   3.686  0.2648 -0.5165  0.5137
  896MOL0     H20893   4.199   7.769   3.579  0.0684 -0.4991 -1.4114
  896MOL0     H20894   3.982   7.642   3.573  0.8346 -0.7970 -0.3040
  896MOL0     H20895   3.727   7.439   3.794 -2.6569  2.5823 -0.2502
  896MOL0     H20896   3.811   7.595   3.784  0.9796 -0.0460  0.8767
  896MOL0     H20897   3.782   7.622   3.556 -0.6239  1.1711  2.6211
  896MOL0     H20898   3.781   7.447   3.524  0.5556  1.1213 -1.0880
  896MOL0     H20899   3.548   7.446   3.637 -0.3330  0.7092  0.3828
  896MOL0     H20900   3.547   7.617   3.612 -0.5266 -0.3447  0.5719
  896MOL0     H20901   3.528   7.622   3.393  0.6277  0.7971  1.2282
  896MOL0     H20902   3.639   7.490   3.353  0.5136  0.1343  2.0097
  896MOL0     H20903   3.402   7.458   3.272 -1.5187  1.3897  0.5002
  896MOL0     H20904   3.452   7.340   3.390  2.4189  0.1873  0.2618
  896MOL0     H20905   3.325   7.457   3.566 -0.5888 -2.2096 -0.0547
  896MOL0     H20906   3.280   7.586   3.447 -2.1923  0.3966  1.0649
  896MOL0     H20907   3.183   7.291   3.431 -0.2624 -0.9251 -2.4643
  896MOL0     H20908   3.084   7.417   3.488 -0.9426 -3.1298 -1.3930
  896MOL0     H20909   3.198   7.374   3.205  3.3164  1.2984  0.6451
  896MOL0     H20910   3.124   7.531   3.262  0.6322 -0.2882  3.8044
  896MOL0     H20911   3.035   7.168   3.162  0.7556  0.5591  1.2899
  896MOL0     H20912   2.670   7.201   3.060  1.0120  2.7038  1.4987
  896MOL0     H20913   2.802   7.069   3.069  0.6495 -1.0890  2.1903
  896MOL0     H20914   2.727   7.042   3.298 -1.5337  2.4964  0.8796
  896MOL0     H20915   2.631   6.973   3.158  2.6510  0.0550 -1.6237
  896MOL0     H20916   2.461   7.139   3.189  2.2182  0.2631 -1.9983
  896MOL0     H20917   2.559   7.224   3.314 -1.5214 -0.2505  1.3457
  896MOL0     H20918   2.577   7.002   3.448 -1.0599  1.1765  1.5494
  896MOL0     H20919   2.424   6.959   3.367 -0.2162 -0.4797  1.7495
  896MOL0     H20920   2.239   7.072   3.299 -1.6908 -1.8660  1.2558
  896MOL0     H20921   2.065   7.174   3.169  0.1610  0.4479 -0.5781
  896MOL0     H20922   1.934   7.098   3.263 -0.7649  0.1321 -1.3891
  896MOL0     H20923   1.938   7.272   3.237 -1.6132 -1.2274  3.1015
  896MOL0     H20924   1.692   7.322   3.754 -0.1122  0.3502  1.1396
  896MOL0     H20925   1.468   7.411   3.766  2.2409 -1.4375  0.8938
  896MOL0     H20926   1.243   7.496   3.703 -0.0081  0.0411 -0.7044
  896MOL0     H20927   1.343   7.602   3.806 -1.9016  0.1225  2.1863
  896MOL0     H20928   1.101   7.674   3.628 -2.0083 -2.9436  1.8607
  896MOL0     H20929   1.096   7.656   3.801  0.8628  0.5460  0.8896
  896MOL0     H20930   1.294   7.873   3.702  0.0666  0.5835  1.4184
  896MOL0     H20931   1.233   7.837   3.864 -2.6567  1.3895  0.6491
  896MOL0     H20932   1.050   7.936   3.633  0.3381  1.5968  0.3510
  896MOL0     H20933   1.012   7.930   3.811  0.9047 -0.0854  2.1961
  896MOL0     H20934   1.222   8.095   3.661  1.7201 -3.3660  0.8554
  896MOL0     H20935   1.209   8.088   3.824  0.4728 -0.7474 -0.3225
  896MOL0     H20936   0.964   8.171   3.643  1.5684  1.9742 -1.1919
  896MOL0     H20937   0.991   8.205   3.822  1.7245 -1.2634  1.3758
  896MOL0     H20938   1.179   8.302   3.582  2.7779 -0.2067  1.0576
  896MOL0     H20939   1.191   8.337   3.756 -0.5693  0.7092  0.7787
  896MOL0     H20940   1.085   8.522   3.656  0.6259 -0.1255  0.4216
  896MOL0     H20941   0.946   8.438   3.731 -0.6665  1.7714 -1.0507
  896MOL0     H20942   1.586   7.714   3.485  2.2935  1.5908  2.9736
  896MOL0     H20943   1.814   7.631   3.477  1.2323 -1.8347 -1.9166
  896MOL0     H20944   2.133   7.341   3.693 -1.5844  1.6465 -0.9024
  896MOL0     H20945   2.359   7.289   3.646 -1.5686  1.3189  0.7191
  896MOL0     H20946   4.111   7.376   3.864 -1.9840  0.3607 -0.0770
  896MOL0     H20947   4.337   7.489   3.875  2.9254  2.9491 -1.0117
  896MOL0     H20948   4.595   7.855   3.740  0.0358 -0.3773  0.8207
  896MOL0     H20949   4.827   7.924   3.789  0.2063 -1.0612  1.3536
  896MOL0     H20950   5.188   7.657   3.763  1.6213 -0.7355 -0.5248
  896MOL0     H20951   5.133   7.664   3.594 -1.4193  0.2027  0.6182
  896MOL0     H20952   5.255   7.895   3.566  2.9180  0.1723  0.0746
  896MOL0     H20953   5.353   7.755   3.609 -1.0470 -1.0042 -1.1276
  896MOL0     H20954   5.333   7.814   3.843  2.1048 -1.8825 -2.3879
  896MOL0     H20955   5.232   7.954   3.799 -0.1184 -0.4278  0.4358
  896MOL0     H20956   5.426   8.083   3.694  0.9426  1.0327 -1.0016
  896MOL0     H20957   5.519   7.936   3.701  0.0879  1.4438 -0.7797
  896MOL0     H20958   5.566   8.142   4.076  1.2264 -1.3798 -0.0372
  896MOL0     H20959   4.961   7.532   3.644 -0.7646 -0.6477  1.7331
  896MOL0     H20960   4.731   7.462   3.653  1.0098 -0.9341  1.2500
  897MOL0     O20961   1.482   8.287   2.410 -0.6521 -0.6200  0.1682
  897MOL0     C20962   1.524   8.173   2.407 -0.7495  0.0750  0.1840
  897MOL0     O20963   1.448   8.059   2.377 -0.0927 -0.3881  0.2478
  897MOL0     C20964   1.317   8.075   2.366 -0.4583  0.5062  0.1345
  897MOL0     C20965   1.237   8.084   2.485  0.7856  0.3265 -0.6950
  897MOL0     C20966   1.100   8.097   2.476  0.3461  0.8257  0.4484
  897MOL0     C20967   1.031   8.098   2.353  0.3160  0.2849 -0.0577
  897MOL0     O20968   0.890   8.115   2.336 -0.1210  0.1599  0.8105
  897MOL0     C20969   0.829   8.208   2.423 -0.4764  0.2913  0.9526
  897MOL0     C20970   0.682   8.191   2.392  0.1359  0.0815 -0.4027
  897MOL0     C20971   0.597   8.289   2.470 -0.4686 -0.0699  0.7819
  897MOL0     C20972   0.447   8.261   2.453 -0.2764  0.8080  0.0859
  897MOL0     C20973   0.365   8.372   2.521  0.3329  0.3138 -0.4693
  897MOL0     C20974   0.365   8.502   2.444  0.0260  1.3650  0.3763
  897MOL0     C20975   0.274   8.612   2.517 -0.1935  0.5056  0.1992
  897MOL0     C20976   0.121   8.589   2.512 -0.3355 -0.1765 -0.0827
  897MOL0     N20977   0.073   8.712   2.580  1.1907 -0.1368  0.3809
  897MOL0     C20978   0.012   8.816   2.520 -0.2020 -1.2494 -0.1431
  897MOL0     C20979  -0.013   8.907   2.626  0.4037  0.3922  0.4398
  897MOL0     C20980  -0.078   9.042   2.605 -0.1054  0.4686 -0.3014
  897MOL0     C20981  -0.174   9.023   2.489 -0.2828  0.1812 -0.5188
  897MOL0     C20982  -0.255   9.155   2.463 -0.2175 -0.6992  0.1035
  897MOL0     C20983  -0.348   9.200   2.582 -0.4031  0.5143  0.1361
  897MOL0     O20984  -0.431   9.093   2.632  0.2448 -0.4462  0.3342
  897MOL0     C20985  -0.557   9.117   2.603  1.0938 -0.6753 -1.0897
  897MOL0     C20986  -0.627   9.052   2.499 -0.0768 -0.5626  0.4766
  897MOL0     C20987  -0.765   9.078   2.475 -0.7337  0.1550  0.6922
  897MOL0     C20988  -0.809   9.032   2.339  0.3738 -0.3209  0.2935
  897MOL0     C20989  -0.836   9.147   2.569 -0.5914  0.3172 -0.1835
  897MOL0     C20990  -0.985   9.175   2.558 -0.1893 -0.5198 -0.0225
  897MOL0     O20991  -1.048   9.222   2.673  1.2601 -0.0707  0.5582
  897MOL0     C20992  -1.185   9.244   2.677 -0.7745 -0.2653  0.8018
  897MOL0     C20993  -1.247   9.356   2.614 -1.0227 -0.0006 -0.4656
  897MOL0     C20994  -1.385   9.382   2.619 -0.3885 -0.0172  0.6862
  897MOL0     C20995  -1.469   9.296   2.688  0.5130 -0.4250 -0.2255
  897MOL0     O20996  -1.604   9.324   2.704  0.4575 -0.2951  0.4078
  897MOL0     C20997  -1.669   9.383   2.593 -0.0133  0.1709 -0.0943
  897MOL0     C20998  -1.816   9.382   2.639 -0.2227  0.7692 -0.0639
  897MOL0     C20999  -1.899   9.444   2.527  0.8227 -1.2585  0.1655
  897MOL0     C21000  -2.050   9.422   2.549  0.6091 -0.6950  0.5437
  897MOL0     C21001  -2.090   9.445   2.699 -0.5309  0.2210 -0.6167
  897MOL0     C21002  -2.088   9.586   2.751 -0.2096  0.2242  0.5579
  897MOL0     C21003  -2.136   9.590   2.899  0.4485  0.1059 -0.4564
  897MOL0     C21004  -2.281   9.654   2.905 -0.7918  0.1661 -0.3307
  897MOL0    Cl21005  -2.300   9.719   3.074 -0.0554  0.1156 -0.1129
  897MOL0     C21006  -1.415   9.180   2.749 -0.5594 -1.0906 -0.1230
  897MOL0     C21007  -1.275   9.152   2.739  0.0739  0.4566 -0.2105
  897MOL0     O21008  -1.043   9.157   2.450  0.5887  0.8656 -0.1437
  897MOL0     C21009  -0.768   9.205   2.679 -0.3647  0.2450 -0.6350
  897MOL0     C21010  -0.630   9.191   2.696  0.0724 -0.4195  0.2566
  897MOL0     N21011   0.034   8.857   2.739  0.7999 -0.5357 -0.1160
  897MOL0     N21012   0.074   8.739   2.715 -0.5147  0.8534 -0.0996
  897MOL0     C21013   1.120   8.108   2.239  0.0557 -0.1758 -0.7087
  897MOL0     C21014   1.259   8.101   2.242 -0.2613  0.9658  0.1439
  897MOL0     C21015   1.668   8.148   2.436  0.0465 -0.5507 -0.1702
  897MOL0     C21016   1.732   8.036   2.374  0.2483  0.0172 -0.8891
  897MOL0     C21017   1.872   8.020   2.389  0.6392  0.3092  0.3024
  897MOL0     C21018   1.954   8.130   2.432  0.8985  0.7602 -0.0133
  897MOL0     O21019   2.091   8.100   2.416  0.4423  0.2233 -0.1525
  897MOL0     C21020   2.182   8.197   2.480 -0.7135  0.4707 -1.3302
  897MOL0     C21021   2.288   8.237   2.376 -0.1904  0.8097  0.1245
  897MOL0     C21022   2.350   8.122   2.282  0.1670 -0.0353  0.4878
  897MOL0     C21023   2.412   8.002   2.344 -0.1933 -0.3943 -0.9070
  897MOL0     C21024   2.501   8.038   2.460  0.0158  0.4565  0.2069
  897MOL0     C21025   2.574   8.052   2.556 -0.2412 -0.3296  0.6808
  897MOL0     C21026   1.895   8.248   2.475  0.1033 -0.2322  0.1260
  897MOL0     C21027   1.754   8.257   2.486  0.8429  0.0177 -0.4415
  897MOL0     H21028   1.279   8.063   2.583  0.1466 -4.2015 -1.1927
  897MOL0     H21029   1.039   8.097   2.565 -0.6154  0.0447 -0.1805
  897MOL0     H21030   0.858   8.194   2.528  1.6411 -0.5841  0.2920
  897MOL0     H21031   0.857   8.307   2.388  2.5300 -1.2530 -1.4936
  897MOL0     H21032   0.659   8.199   2.286 -0.3788  0.5170 -0.2668
  897MOL0     H21033   0.652   8.091   2.427 -1.7992  1.1582  1.2616
  897MOL0     H21034   0.615   8.278   2.577 -1.1556  1.0375  1.0181
  897MOL0     H21035   0.632   8.386   2.436  3.8125 -1.6677 -0.0446
  897MOL0     H21036   0.416   8.264   2.348 -0.5013 -0.2393  0.1078
  897MOL0     H21037   0.416   8.161   2.486  2.2371 -1.2924 -3.2077
  897MOL0     H21038   0.265   8.330   2.534  1.4688 -3.7289 -2.8754
  897MOL0     H21039   0.402   8.393   2.622 -0.1186 -1.6807  0.1522
  897MOL0     H21040   0.467   8.541   2.438  0.0310  1.1650 -1.1708
  897MOL0     H21041   0.337   8.485   2.340  0.9055 -0.8643  0.4471
  897MOL0     H21042   0.307   8.620   2.621 -1.1810  0.2740  0.5402
  897MOL0     H21043   0.303   8.704   2.467 -0.5211 -0.1208 -1.2068
  897MOL0     H21044   0.089   8.498   2.564 -1.4917 -0.1550 -0.7412
  897MOL0     H21045   0.073   8.572   2.416  1.1235 -2.3110 -0.4992
  897MOL0     H21046  -0.000   8.835   2.414  2.1879 -0.8307 -0.4149
  897MOL0     H21047  -0.137   9.078   2.689  2.5423  3.6861  0.3761
  897MOL0     H21048  -0.004   9.122   2.597 -1.7828  2.1151  0.1733
  897MOL0     H21049  -0.244   8.941   2.506 -0.5729 -0.2567 -3.3107
  897MOL0     H21050  -0.121   8.999   2.396 -0.0604 -0.2303 -0.2879
  897MOL0     H21051  -0.321   9.140   2.378  0.2031 -1.3417 -0.1163
  897MOL0     H21052  -0.189   9.237   2.432  0.6497 -1.8199 -1.1354
  897MOL0     H21053  -0.413   9.282   2.549 -2.7979 -1.5152 -0.5400
  897MOL0     H21054  -0.282   9.235   2.662  1.4643 -1.4379 -0.4395
  897MOL0     H21055  -0.572   8.988   2.430 -2.9762 -1.3593 -1.2819
  897MOL0     H21056  -0.743   8.958   2.293 -0.8167 -0.9630 -0.4387
  897MOL0     H21057  -0.906   8.983   2.356 -0.2752  1.4543  2.2819
  897MOL0     H21058  -0.831   9.119   2.277 -3.7359  2.0846  4.4820
  897MOL0     H21059  -1.187   9.422   2.553  1.9459 -2.4903 -0.5135
  897MOL0     H21060  -1.411   9.473   2.566 -0.0710 -1.5841 -2.3689
  897MOL0     H21061  -1.640   9.488   2.584 -0.3371  0.1220 -2.3832
  897MOL0     H21062  -1.641   9.336   2.498  2.0502  0.0628  0.5376
  897MOL0     H21063  -1.844   9.278   2.659  2.8298 -0.2430 -0.5487
  897MOL0     H21064  -1.833   9.437   2.732 -1.9599  0.8832 -0.4255
  897MOL0     H21065  -1.873   9.405   2.428  1.9462  2.4466 -1.1665
  897MOL0     H21066  -1.880   9.551   2.516 -1.0539 -0.6294  2.3720
  897MOL0     H21067  -2.115   9.482   2.484 -0.0779 -1.1598  0.7876
  897MOL0     H21068  -2.080   9.323   2.513 -2.1830  0.5566 -0.9706
  897MOL0     H21069  -2.028   9.386   2.766 -1.1968  2.2953  1.9709
  897MOL0     H21070  -2.192   9.407   2.714 -0.6513  0.4991 -0.7198
  897MOL0     H21071  -1.985   9.623   2.746  0.4436 -1.3957  1.1887
  897MOL0     H21072  -2.162   9.639   2.692 -1.1705 -2.7382 -1.1015
  897MOL0     H21073  -2.071   9.659   2.953  3.5382 -3.2357  0.5534
  897MOL0     H21074  -2.131   9.496   2.955 -2.6505  0.6459  0.9572
  897MOL0     H21075  -2.367   9.596   2.870 -0.1314 -1.0972  0.1055
  897MOL0     H21076  -2.279   9.738   2.834 -0.7085 -1.1342 -1.9346
  897MOL0     H21077  -1.493   9.115   2.787  0.1826 -0.5881  2.5196
  897MOL0     H21078  -1.252   9.065   2.799  1.0671  0.3438 -0.7344
  897MOL0     H21079  -0.814   9.277   2.746  2.2008  2.1255 -0.7459
  897MOL0     H21080  -0.577   9.224   2.785 -0.2822 -0.7049  0.5749
  897MOL0     H21081   1.059   8.110   2.149 -1.9414 -0.3873  0.5818
  897MOL0     H21082   1.327   8.101   2.157 -2.5951 -1.7724 -1.9250
  897MOL0     H21083   1.672   7.958   2.328 -1.1730  0.7870 -0.4050
  897MOL0     H21084   1.930   7.929   2.374  1.9760  1.3057 -0.8345
  897MOL0     H21085   2.131   8.278   2.532 -2.1631  0.0669 -2.0870
  897MOL0     H21086   2.241   8.145   2.557 -2.6852  1.6497  1.1433
  897MOL0     H21087   2.368   8.283   2.435 -0.1545 -0.4155  1.0730
  897MOL0     H21088   2.238   8.310   2.312  0.7427  2.5636  1.3361
  897MOL0     H21089   2.425   8.168   2.218 -0.6708 -0.6376 -0.9745
  897MOL0     H21090   2.264   8.093   2.221  0.4750  1.7382 -0.8545
  897MOL0     H21091   2.464   7.934   2.278  4.9595 -1.4074  3.5074
  897MOL0     H21092   2.331   7.943   2.388 -1.7818  2.3026  0.0781
  897MOL0     H21093   2.631   8.074   2.645  1.2428 -1.6029  0.0833
  897MOL0     H21094   1.957   8.335   2.492 -2.6411  1.8270  0.2046
  897MOL0     H21095   1.713   8.352   2.518 -0.2702 -0.7726  0.5306
  898MOL0     O21096   5.576   8.189   7.170 -0.1367 -0.3253 -0.2655
  898MOL0     C21097   5.478   8.226   7.233 -0.1884 -0.2900  0.2894
  898MOL0     O21098   5.494   8.302   7.347 -0.3676  0.2144  0.2019
  898MOL0     C21099   5.620   8.321   7.396 -0.2813  0.2710 -0.3987
  898MOL0     C21100   5.706   8.416   7.342 -0.3026  0.1414  0.0703
  898MOL0     C21101   5.839   8.434   7.397  0.2361 -0.5142 -0.2202
  898MOL0     C21102   5.885   8.344   7.496 -0.3599  1.2109 -0.1335
  898MOL0     O21103   6.014   8.344   7.544  0.4997  0.0610 -0.1110
  898MOL0     C21104   6.122   8.384   7.467 -0.1670 -0.2159  0.2426
  898MOL0     C21105   6.223   8.267   7.486 -0.4889  0.0849  0.1349
  898MOL0     C21106   6.361   8.303   7.420  0.1933 -0.1910 -0.2804
  898MOL0     C21107   6.357   8.359   7.288  0.3451  0.5268  0.0231
  898MOL0     C21108   6.507   8.383   7.252 -0.2488 -0.5862  0.0323
  898MOL0     C21109   6.508   8.384   7.097  0.3741 -0.6572 -0.8430
  898MOL0     C21110   6.465   8.518   7.045 -0.5144 -0.1036 -0.2322
  898MOL0     C21111   6.493   8.528   6.895 -0.1155  0.0626 -0.4464
  898MOL0     N21112   6.633   8.572   6.863 -0.1037 -0.5987  0.0302
  898MOL0     C21113   6.662   8.681   6.780 -0.0469  0.9474 -0.4431
  898MOL0     C21114   6.795   8.693   6.786 -0.6637 -0.7371  0.9739
  898MOL0     C21115   6.875   8.799   6.714  0.0069  0.2487  0.3412
  898MOL0     C21116   6.920   8.771   6.566  0.3625 -0.5165 -0.1793
  898MOL0     C21117   7.061   8.701   6.562 -0.2591  0.0474  0.5440
  898MOL0     C21118   7.091   8.657   6.421 -0.3675  0.0161 -0.5020
  898MOL0     O21119   7.012   8.541   6.399  0.4489  0.4410 -0.8332
  898MOL0     C21120   6.911   8.550   6.308 -0.5518  0.0367  0.2865
  898MOL0     C21121   6.936   8.604   6.176  0.2870 -0.2431  0.2073
  898MOL0     C21122   6.843   8.582   6.078  0.8068  0.0390 -0.2112
  898MOL0     C21123   6.874   8.635   5.941  0.7598  0.4342 -0.3567
  898MOL0     C21124   6.733   8.499   6.100  0.2388 -0.5937 -0.1473
  898MOL0     C21125   6.632   8.460   5.995 -1.7137 -0.2683 -0.2854
  898MOL0     O21126   6.518   8.405   6.043 -0.2428 -0.5640  0.5136
  898MOL0     C21127   6.432   8.340   5.961 -0.3027  0.3143  0.2424
  898MOL0     C21128   6.412   8.349   5.825 -0.1366 -0.9039  0.3743
  898MOL0     C21129   6.315   8.269   5.762 -1.0673  0.2093 -0.1356
  898MOL0     C21130   6.243   8.172   5.832 -0.0122  0.4927 -0.1469
  898MOL0     O21131   6.154   8.095   5.756 -0.3095 -0.0215 -0.0104
  898MOL0     C21132   6.102   7.970   5.811  0.4193  0.1037 -0.2441
  898MOL0     C21133   6.061   7.872   5.701 -0.3471  0.6419  0.6519
  898MOL0     C21134   5.989   7.741   5.738  0.0105 -0.4752  1.3014
  898MOL0     C21135   6.088   7.645   5.788 -0.4562  0.0628  0.2612
  898MOL0     C21136   6.027   7.518   5.855 -0.1587 -0.0450  0.2815
  898MOL0     C21137   6.128   7.429   5.938  1.0026 -0.3327  0.3397
  898MOL0     C21138   6.189   7.505   6.058  0.3274  0.3721 -0.2806
  898MOL0     C21139   6.296   7.420   6.129  0.0928 -0.6659  0.0180
  898MOL0    Cl21140   6.320   7.476   6.302 -0.2746 -0.7863 -0.0985
  898MOL0     C21141   6.266   8.166   5.968  0.8187  0.0312 -0.0779
  898MOL0     C21142   6.357   8.252   6.035  0.3916  0.8749 -0.4086
  898MOL0     O21143   6.660   8.457   5.881 -0.3116  0.1607  0.1339
  898MOL0     C21144   6.705   8.450   6.229 -0.2185 -0.8267  0.3097
  898MOL0     C21145   6.794   8.478   6.335  0.8543 -0.2176  0.1290
  898MOL0     N21146   6.846   8.599   6.861  0.5326  0.7090 -0.7345
  898MOL0     N21147   6.752   8.528   6.913  0.3821 -0.7989  0.4739
  898MOL0     C21148   5.800   8.241   7.539 -0.4991  0.3303 -0.4882
  898MOL0     C21149   5.677   8.234   7.490 -0.3019 -0.9097 -0.7388
  898MOL0     C21150   5.350   8.178   7.182 -0.1409  0.9650  0.2718
  898MOL0     C21151   5.346   8.103   7.062 -0.5621  0.6699  0.4056
  898MOL0     C21152   5.221   8.054   7.017 -0.3341  0.8366  0.3420
  898MOL0     C21153   5.098   8.099   7.072 -0.9850  0.4896  0.9257
  898MOL0     O21154   4.976   8.052   7.028  0.4345  0.1506  0.4598
  898MOL0     C21155   4.973   7.975   6.907 -0.6575 -0.1885 -0.5030
  898MOL0     C21156   4.830   7.946   6.868 -0.5539 -0.0965  0.5627
  898MOL0     C21157   4.743   8.073   6.848 -0.0388  0.2957 -0.3066
  898MOL0     C21158   4.615   8.039   6.769  0.5041  0.2780  0.2207
  898MOL0     C21159   4.533   7.956   6.852  0.5088 -0.3478 -0.0257
  898MOL0     C21160   4.479   7.886   6.933  0.3309  0.5139  0.2428
  898MOL0     C21161   5.107   8.178   7.184  0.3392 -0.7348 -0.2778
  898MOL0     C21162   5.228   8.218   7.239 -0.9030  0.3150 -0.4800
  898MOL0     H21163   5.677   8.482   7.261  1.5354  0.9433  0.0169
  898MOL0     H21164   5.895   8.514   7.350 -1.3848 -0.8918 -3.0408
  898MOL0     H21165   6.097   8.394   7.361 -1.0035  0.7656  0.5190
  898MOL0     H21166   6.168   8.472   7.513 -2.3261  0.2071  1.7772
  898MOL0     H21167   6.249   8.250   7.591  0.3924 -2.5512 -0.4273
  898MOL0     H21168   6.184   8.176   7.440  2.0451  0.5011 -3.2636
  898MOL0     H21169   6.407   8.368   7.495 -2.8351  0.1449  1.4665
  898MOL0     H21170   6.428   8.217   7.424  0.7643  0.2873  0.7271
  898MOL0     H21171   6.308   8.288   7.221  0.7403  0.8524 -0.6112
  898MOL0     H21172   6.301   8.453   7.294  1.6955  1.5669 -2.3096
  898MOL0     H21173   6.536   8.479   7.295 -2.6202 -0.3572  1.3205
  898MOL0     H21174   6.576   8.304   7.282  0.0440 -1.9773 -3.6730
  898MOL0     H21175   6.613   8.363   7.076 -0.0523 -1.5085 -2.3084
  898MOL0     H21176   6.455   8.298   7.053  0.7651 -1.3895  0.0812
  898MOL0     H21177   6.358   8.527   7.062 -0.4500 -1.1909  0.9031
  898MOL0     H21178   6.524   8.594   7.098  1.4150 -1.3732 -0.4384
  898MOL0     H21179   6.438   8.614   6.854 -2.0819 -1.2861 -0.7852
  898MOL0     H21180   6.467   8.435   6.843  0.2951 -1.1694  1.4707
  898MOL0     H21181   6.584   8.730   6.723 -0.3108 -1.2564 -2.0915
  898MOL0     H21182   6.825   8.894   6.694  1.9922  0.8498 -2.2515
  898MOL0     H21183   6.960   8.822   6.779  0.6646 -0.2729 -0.3197
  898MOL0     H21184   6.920   8.870   6.519 -0.5110 -0.2883  0.2899
  898MOL0     H21185   6.850   8.705   6.514  1.4430  1.6874 -4.9632
  898MOL0     H21186   7.070   8.607   6.618  0.5742 -0.5605 -0.5661
  898MOL0     H21187   7.131   8.774   6.603 -0.9968  0.6940  0.6628
  898MOL0     H21188   7.199   8.641   6.414 -0.1375  1.0577  0.2875
  898MOL0     H21189   7.079   8.741   6.352  2.6651  1.1573  0.2028
  898MOL0     H21190   7.032   8.651   6.161 -1.4626  4.0140  0.8875
  898MOL0     H21191   6.781   8.662   5.890 -0.4495 -2.3111  0.2563
  898MOL0     H21192   6.936   8.725   5.944  0.5531  0.6202 -1.2202
  898MOL0     H21193   6.923   8.560   5.878 -1.6647 -0.2363 -1.5768
  898MOL0     H21194   6.455   8.431   5.767 -4.0857  2.5832  1.8440
  898MOL0     H21195   6.301   8.261   5.655  0.0060 -1.5234 -0.2006
  898MOL0     H21196   6.180   7.920   5.870 -0.7686  1.4095  2.6306
  898MOL0     H21197   6.009   7.989   5.865  1.3590 -0.5968  1.7052
  898MOL0     H21198   5.977   7.926   5.655 -2.9636  0.4809  4.7307
  898MOL0     H21199   6.146   7.857   5.634 -0.6333  4.3754 -0.7476
  898MOL0     H21200   5.948   7.705   5.643 -2.0164  1.4646  1.3712
  898MOL0     H21201   5.900   7.758   5.800 -2.0036 -1.4627 -1.1079
  898MOL0     H21202   6.168   7.619   5.718 -1.3570 -0.4473 -0.5952
  898MOL0     H21203   6.140   7.703   5.866  1.3620  0.8323 -1.4337
  898MOL0     H21204   5.977   7.446   5.789 -0.3743 -0.4449  0.8660
  898MOL0     H21205   5.942   7.552   5.915 -2.4713 -1.5322 -1.9234
  898MOL0     H21206   6.074   7.346   5.984  1.8887  1.3532  4.9532
  898MOL0     H21207   6.209   7.395   5.873  0.9624 -1.2243  0.7362
  898MOL0     H21208   6.109   7.516   6.132  0.9897 -1.3979  0.7651
  898MOL0     H21209   6.222   7.603   6.023 -2.9458  1.8427  0.3789
  898MOL0     H21210   6.389   7.424   6.071 -0.1765  1.4401 -0.3459
  898MOL0     H21211   6.262   7.316   6.122  1.3756 -1.1665  0.6966
  898MOL0     H21212   6.202   8.104   6.030  2.0444 -0.3386  0.8671
  898MOL0     H21213   6.366   8.258   6.143 -2.5963 -1.3112  0.0660
  898MOL0     H21214   6.617   8.388   6.244 -0.2569 -0.6944  0.6558
  898MOL0     H21215   6.782   8.420   6.425 -0.1102  0.4084  0.4191
  898MOL0     H21216   5.831   8.173   7.618 -1.5628  1.0315  0.5529
  898MOL0     H21217   5.603   8.167   7.531 -0.7522  0.5655  1.0107
  898MOL0     H21218   5.425   8.072   6.995 -1.9302  0.6634 -1.3022
  898MOL0     H21219   5.217   7.977   6.941 -0.9004  0.2186  0.9864
  898MOL0     H21220   5.024   8.025   6.824  0.7377  0.4631  0.6933
  898MOL0     H21221   5.026   7.880   6.921 -0.6985 -0.0348  0.8522
  898MOL0     H21222   4.776   7.889   6.945 -2.4454 -0.1116 -0.7098
  898MOL0     H21223   4.824   7.889   6.775  0.1354 -0.4303  0.7194
  898MOL0     H21224   4.798   8.146   6.788  2.9376 -1.1328  0.4739
  898MOL0     H21225   4.711   8.123   6.940  2.3594  1.5857 -0.0810
  898MOL0     H21226   4.632   7.992   6.672 -0.0623  2.6432 -1.0940
  898MOL0     H21227   4.566   8.132   6.740  1.7163  0.5645 -1.0155
  898MOL0     H21228   4.430   7.816   6.997 -1.3636  1.6505  0.2424
  898MOL0     H21229   5.021   8.207   7.245 -0.5133 -2.3331 -0.6613
  898MOL0     H21230   5.217   8.285   7.323  1.4559  1.8477 -1.2835
  899MOL0     O21231  10.709   2.551   4.236  0.3719 -0.0980  0.4940
  899MOL0     C21232  10.771   2.636   4.170 -0.5578 -0.6117  0.0690
  899MOL0     O21233  10.889   2.699   4.213  0.1788 -0.2965 -0.0320
  899MOL0     C21234  10.969   2.628   4.303 -0.5396  0.4434 -0.2548
  899MOL0     C21235  10.928   2.590   4.435  0.1419  0.1544  0.6476
  899MOL0     C21236  11.024   2.538   4.524  0.4801  0.0096  0.7150
  899MOL0     C21237  11.158   2.524   4.492 -0.4116 -0.5588  1.0350
  899MOL0     O21238  11.259   2.462   4.560  0.5926  0.4381  0.4195
  899MOL0     C21239  11.230   2.422   4.687  0.0675  1.1490 -0.3378
  899MOL0     C21240  11.363   2.363   4.751  0.2230  0.1073  0.1645
  899MOL0     C21241  11.466   2.474   4.752  0.3090 -0.2851 -0.3012
  899MOL0     C21242  11.585   2.437   4.840  0.8220  0.9406 -0.3029
  899MOL0     C21243  11.698   2.524   4.801 -0.0049  0.2307  0.2053
  899MOL0     C21244  11.826   2.471   4.884  0.1569 -0.0228 -0.0824
  899MOL0     C21245  11.926   2.571   4.872 -0.0570 -0.3513  0.2816
  899MOL0     C21246  11.979   2.576   4.735  0.3402 -0.9017  0.5642
  899MOL0     N21247  12.054   2.454   4.701  0.0711 -0.3853  0.0806
  899MOL0     C21248  12.191   2.430   4.720  0.4178  0.3188 -0.6193
  899MOL0     C21249  12.216   2.309   4.665 -0.3857  0.4657  0.1302
  899MOL0     C21250  12.339   2.231   4.668 -0.1471  0.0368 -1.0902
  899MOL0     C21251  12.448   2.308   4.593 -0.3308 -0.2518 -0.4948
  899MOL0     C21252  12.452   2.285   4.438  0.2735  0.3286 -0.5496
  899MOL0     C21253  12.566   2.360   4.368  0.4542 -0.0899 -0.4312
  899MOL0     O21254  12.546   2.500   4.385 -0.4223 -0.3940  0.3784
  899MOL0     C21255  12.452   2.568   4.309  0.0461  0.7661  0.6629
  899MOL0     C21256  12.395   2.687   4.364 -1.0869 -0.1920 -0.1688
  899MOL0     C21257  12.272   2.736   4.313 -0.3177 -0.0988  0.3836
  899MOL0     C21258  12.238   2.877   4.369  0.2063  0.4513  1.1337
  899MOL0     C21259  12.220   2.681   4.199  0.5825  0.6225  0.1164
  899MOL0     C21260  12.089   2.723   4.143 -0.0991  0.2778  0.0294
  899MOL0     O21261  12.008   2.797   4.221  0.0398  0.2800 -0.0362
  899MOL0     C21262  11.919   2.883   4.163 -0.7453  0.4160 -0.0902
  899MOL0     C21263  11.943   3.020   4.169 -0.6077 -0.1744  0.0460
  899MOL0     C21264  11.843   3.107   4.116 -1.0124  0.0976 -0.2642
  899MOL0     C21265  11.739   3.054   4.045  0.0624 -0.2300  0.9478
  899MOL0     O21266  11.627   3.124   4.011 -0.8520  0.6461  0.1535
  899MOL0     C21267  11.636   3.268   4.010  0.5920 -0.1165  0.6683
  899MOL0     C21268  11.503   3.322   3.981  0.0309  0.6012  0.4230
  899MOL0     C21269  11.505   3.455   3.908 -0.0697 -0.5442  0.0177
  899MOL0     C21270  11.369   3.523   3.909  0.8180  0.1655 -1.2884
  899MOL0     C21271  11.379   3.667   3.851 -0.5722  0.4367  0.3495
  899MOL0     C21272  11.236   3.726   3.874 -0.7476 -0.1493 -0.9902
  899MOL0     C21273  11.221   3.861   3.813  1.0332  0.4266  0.2811
  899MOL0     C21274  11.084   3.921   3.829 -0.0897  0.0074  0.4448
  899MOL0    Cl21275  11.068   4.069   3.733  0.0268  0.3117 -0.4582
  899MOL0     C21276  11.725   2.912   4.027  0.8196  0.4891  0.8250
  899MOL0     C21277  11.817   2.831   4.082 -0.6347 -0.5497 -0.1013
  899MOL0     O21278  12.066   2.690   4.022  0.0092 -0.1584  0.6438
  899MOL0     C21279  12.290   2.579   4.132 -0.7180  0.1568  0.5333
  899MOL0     C21280  12.396   2.515   4.189  0.7945  0.0759 -1.2406
  899MOL0     N21281  12.101   2.268   4.597  0.7309 -0.1755 -0.0438
  899MOL0     N21282  12.005   2.360   4.618  0.8406 -0.4792  0.8079
  899MOL0     C21283  11.198   2.563   4.367  0.6107 -0.3701  0.5497
  899MOL0     C21284  11.108   2.616   4.276 -0.0809  0.0883  0.5920
  899MOL0     C21285  10.706   2.679   4.039  0.5232 -0.1805 -1.0167
  899MOL0     C21286  10.734   2.805   3.997  0.2933 -0.1732  0.2010
  899MOL0     C21287  10.673   2.856   3.883  0.9884 -0.0782 -0.2962
  899MOL0     C21288  10.597   2.769   3.795 -0.6187 -0.2150 -0.7065
  899MOL0     O21289  10.538   2.813   3.678 -0.3881 -0.1392  0.8621
  899MOL0     C21290  10.546   2.955   3.649  0.3635  0.4685  0.3913
  899MOL0     C21291  10.496   2.975   3.505  0.1047 -0.2184 -0.1488
  899MOL0     C21292  10.362   2.901   3.469  0.5840  0.0761 -0.0626
  899MOL0     C21293  10.258   2.921   3.576 -0.2977 -0.4490 -0.4921
  899MOL0     C21294  10.137   2.842   3.535 -0.4602  0.1748 -0.4919
  899MOL0     C21295  10.035   2.796   3.498 -0.1604  0.3351 -1.1339
  899MOL0     C21296  10.582   2.634   3.833 -0.0256 -0.4811 -0.4588
  899MOL0     C21297  10.628   2.593   3.961  0.0739 -0.2105 -0.6794
  899MOL0     H21298  10.822   2.605   4.454  0.2724  1.5220  0.4217
  899MOL0     H21299  10.984   2.513   4.622  1.0589  2.3286  1.6302
  899MOL0     H21300  11.202   2.504   4.754  0.6149 -0.1974  1.6253
  899MOL0     H21301  11.154   2.343   4.685 -0.3104  1.5093 -0.4011
  899MOL0     H21302  11.331   2.324   4.848  1.6794  0.9698  1.0267
  899MOL0     H21303  11.405   2.278   4.696  0.4755 -0.3011  0.9816
  899MOL0     H21304  11.495   2.483   4.647  3.2376  0.2698  0.4621
  899MOL0     H21305  11.426   2.572   4.777  0.8570 -0.4032  1.1603
  899MOL0     H21306  11.563   2.445   4.947 -0.4900  0.3595 -0.5113
  899MOL0     H21307  11.619   2.334   4.829  3.2406  1.6093  0.2481
  899MOL0     H21308  11.717   2.498   4.697  4.6668 -1.4034  1.2179
  899MOL0     H21309  11.676   2.631   4.811  1.4276  0.5323  0.4653
  899MOL0     H21310  11.792   2.461   4.987 -0.4412 -1.1886 -0.3684
  899MOL0     H21311  11.854   2.372   4.845 -1.9588 -0.3247 -1.0203
  899MOL0     H21312  11.888   2.663   4.916  1.8022 -0.5891  2.5944
  899MOL0     H21313  12.015   2.545   4.930  2.3117  3.5166 -1.2088
  899MOL0     H21314  12.045   2.662   4.720  0.4654 -1.1427 -0.2991
  899MOL0     H21315  11.900   2.582   4.660 -0.1918 -2.0397  1.0203
  899MOL0     H21316  12.256   2.491   4.781 -0.7940 -0.4814  1.5989
  899MOL0     H21317  12.358   2.206   4.773  0.0353 -2.0507 -1.5918
  899MOL0     H21318  12.319   2.135   4.621 -1.2889 -2.7960  4.3354
  899MOL0     H21319  12.542   2.267   4.633 -1.0443 -1.5189 -0.0485
  899MOL0     H21320  12.449   2.412   4.628 -0.3269 -0.5556  0.4391
  899MOL0     H21321  12.356   2.323   4.401 -0.4610 -0.9506 -0.0124
  899MOL0     H21322  12.455   2.177   4.420  0.3674 -0.3260  2.8958
  899MOL0     H21323  12.574   2.333   4.263 -0.6691  0.7717 -0.7605
  899MOL0     H21324  12.658   2.341   4.424  0.8892 -0.4314 -1.2475
  899MOL0     H21325  12.446   2.718   4.455 -1.5851  1.9537 -0.5530
  899MOL0     H21326  12.143   2.873   4.423  0.6990 -2.7204  1.9305
  899MOL0     H21327  12.321   2.921   4.426  0.7681  1.3063 -0.2882
  899MOL0     H21328  12.226   2.949   4.288 -0.1722 -1.2179 -0.3567
  899MOL0     H21329  12.028   3.057   4.225  0.2328 -2.4250  0.3646
  899MOL0     H21330  11.843   3.215   4.126 -2.8068  0.4980 -3.1469
  899MOL0     H21331  11.667   3.312   4.105 -2.5513  0.4539  1.5666
  899MOL0     H21332  11.707   3.308   3.937 -2.2840  1.2467 -1.5865
  899MOL0     H21333  11.450   3.238   3.935  0.2226  1.0248 -0.5822
  899MOL0     H21334  11.445   3.336   4.073 -2.0197  3.6881 -1.1288
  899MOL0     H21335  11.547   3.449   3.807  0.9923  0.2902  0.3964
  899MOL0     H21336  11.564   3.521   3.972 -1.5833  1.3888 -0.4978
  899MOL0     H21337  11.302   3.454   3.858  2.2636 -1.1668 -1.4740
  899MOL0     H21338  11.342   3.532   4.015 -1.2999 -0.1744 -1.7637
  899MOL0     H21339  11.397   3.665   3.743  1.3937 -1.0501  0.6376
  899MOL0     H21340  11.454   3.724   3.906 -0.9280  0.7930  0.4679
  899MOL0     H21341  11.172   3.648   3.832  0.2277 -1.8497  0.5150
  899MOL0     H21342  11.216   3.721   3.982 -0.4623  1.8548 -0.8169
  899MOL0     H21343  11.251   3.860   3.708 -0.4383 -0.5383 -0.1554
  899MOL0     H21344  11.289   3.938   3.851 -0.6022  1.4974  1.1548
  899MOL0     H21345  11.066   3.953   3.932  1.3110 -1.5103  1.2300
  899MOL0     H21346  11.011   3.844   3.803  1.9660 -0.8656 -3.5832
  899MOL0     H21347  11.644   2.867   3.971  1.9004 -0.8347  0.2748
  899MOL0     H21348  11.800   2.724   4.074  1.6277 -0.8078 -3.3905
  899MOL0     H21349  12.256   2.532   4.040  2.5606 -1.8926  0.2149
  899MOL0     H21350  12.442   2.434   4.135 -1.6433 -0.6609 -2.3230
  899MOL0     H21351  11.302   2.548   4.339  0.8482 -0.5161  1.4644
  899MOL0     H21352  11.148   2.655   4.183  0.4446  4.0354  2.2692
  899MOL0     H21353  10.800   2.874   4.048 -0.7389  2.7341 -2.0865
  899MOL0     H21354  10.693   2.961   3.868 -2.3537  0.4798 -1.5547
  899MOL0     H21355  10.493   3.015   3.723  0.5644  1.6616 -0.3970
  899MOL0     H21356  10.653   2.975   3.658  1.3017 -3.5687  0.3176
  899MOL0     H21357  10.570   2.940   3.433 -0.4052  0.1393 -0.8572
  899MOL0     H21358  10.471   3.081   3.490 -2.5151 -0.9448 -1.5382
  899MOL0     H21359  10.385   2.795   3.460  0.7504  0.2807 -2.6905
  899MOL0     H21360  10.310   2.929   3.377 -2.9801 -1.9024  1.1587
  899MOL0     H21361  10.235   3.027   3.587  0.6736 -0.5081  4.1318
  899MOL0     H21362  10.297   2.882   3.671  0.5078  3.1096  0.7710
  899MOL0     H21363   9.941   2.760   3.460 -0.6830  1.2980 -0.8111
  899MOL0     H21364  10.523   2.575   3.763 -2.1484 -0.0445  0.8783
  899MOL0     H21365  10.615   2.494   4.003 -1.0512  0.6261  1.0876
  900MOL0     O21366   5.496   0.212  11.115  0.4183 -0.6047  0.2394
  900MOL0     C21367   5.515   0.091  11.125 -0.3626 -0.7791  0.0573
  900MOL0     O21368   5.415  -0.002  11.122 -0.2402  0.5755 -0.4324
  900MOL0     C21369   5.290   0.050  11.087  0.4914 -0.0509  1.1087
  900MOL0     C21370   5.230   0.166  11.144  0.7407 -0.0481  0.1003
  900MOL0     C21371   5.108   0.217  11.088  0.3196 -0.8204 -0.0271
  900MOL0     C21372   5.042   0.144  10.989 -0.5742 -0.1928  0.2838
  900MOL0     O21373   4.925   0.174  10.924  0.1945  0.3163  0.4072
  900MOL0     C21374   4.850   0.295  10.955 -0.3698 -0.4559 -1.1984
  900MOL0     C21375   4.744   0.313  10.847 -1.1028 -0.6816 -0.4958
  900MOL0     C21376   4.626   0.210  10.858 -0.2530 -0.1092  0.4838
  900MOL0     C21377   4.510   0.272  10.777 -1.3485  0.5012  0.9722
  900MOL0     C21378   4.389   0.177  10.768 -0.1514 -0.0990 -0.3402
  900MOL0     C21379   4.274   0.249  10.702 -0.4747  0.2217  0.5830
  900MOL0     C21380   4.133   0.189  10.698  0.7759  0.8602 -0.7951
  900MOL0     C21381   4.110   0.061  10.611 -0.3652 -0.7326 -0.4232
  900MOL0     N21382   3.988  -0.008  10.655  0.5387  0.2052  0.6722
  900MOL0     C21383   3.974  -0.150  10.647 -1.0783 -0.0378 -0.3807
  900MOL0     C21384   3.844  -0.167  10.666  0.1122  0.4364  0.6295
  900MOL0     C21385   3.768  -0.301  10.673 -0.5461 -0.6777 -0.2022
  900MOL0     C21386   3.802  -0.398  10.563  0.7698 -0.0773 -0.2929
  900MOL0     C21387   3.703  -0.511  10.543  0.4003 -0.6130 -0.2253
  900MOL0     C21388   3.732  -0.601  10.430 -0.1170 -0.0897 -0.1968
  900MOL0     O21389   3.655  -0.722  10.438  0.1498  0.4806  0.8520
  900MOL0     C21390   3.515  -0.721  10.430 -0.4370 -1.2306  0.2391
  900MOL0     C21391   3.439  -0.762  10.539 -0.5943  0.1372  0.5968
  900MOL0     C21392   3.301  -0.783  10.527 -0.3852  0.4441  0.4137
  900MOL0     C21393   3.229  -0.834  10.641  0.4566  0.1002  0.1333
  900MOL0     C21394   3.236  -0.753  10.405 -0.2733  0.4779 -0.7786
  900MOL0     C21395   3.092  -0.768  10.382 -0.2534 -0.1877 -0.1121
  900MOL0     O21396   3.029  -0.675  10.296  0.2061  0.2991 -0.7848
  900MOL0     C21397   2.894  -0.677  10.281 -1.0593  0.7978 -0.1450
  900MOL0     C21398   2.852  -0.715  10.151 -0.2218 -0.4545  0.9237
  900MOL0     C21399   2.718  -0.711  10.124  0.6272  0.3788  0.6905
  900MOL0     C21400   2.620  -0.690  10.228 -0.0426  0.5631 -0.3063
  900MOL0     O21401   2.483  -0.697  10.198 -0.0422 -0.9761 -0.4081
  900MOL0     C21402   2.409  -0.783  10.289 -0.5850 -0.5007  0.6449
  900MOL0     C21403   2.254  -0.763  10.265  0.3058  0.5154  0.4057
  900MOL0     C21404   2.173  -0.833  10.381 -0.2310 -0.0917  0.7218
  900MOL0     C21405   2.032  -0.877  10.333 -0.2157  0.1335 -0.4020
  900MOL0     C21406   1.942  -0.924  10.453  0.6321 -1.0672  0.5118
  900MOL0     C21407   1.799  -0.965  10.405  0.3579 -0.1655  0.6832
  900MOL0     C21408   1.701  -0.991  10.517  0.7636  0.1349  0.3691
  900MOL0     C21409   1.758  -1.085  10.619 -0.8182  0.1169 -0.0657
  900MOL0    Cl21410   1.829  -0.981  10.744 -0.3512 -0.3539 -0.2438
  900MOL0     C21411   2.667  -0.663  10.353  0.6687 -0.8423  0.1479
  900MOL0     C21412   2.799  -0.645  10.379  0.0396 -0.3276  0.2980
  900MOL0     O21413   3.038  -0.861  10.436 -0.0467  0.3485 -0.0032
  900MOL0     C21414   3.310  -0.697  10.298  0.4675  0.3879  1.0320
  900MOL0     C21415   3.447  -0.681  10.313 -0.5286  0.8242 -0.7854
  900MOL0     N21416   3.779  -0.049  10.674 -0.5026 -0.8343  0.0232
  900MOL0     N21417   3.861   0.049  10.662 -0.0824  0.3008  0.7057
  900MOL0     C21418   5.092   0.022  10.947  0.8418  0.3450  1.0598
  900MOL0     C21419   5.217  -0.022  10.987  0.8376  0.0263 -0.5248
  900MOL0     C21420   5.658   0.041  11.152  0.6916  0.7676 -0.3030
  900MOL0     C21421   5.763   0.111  11.101  0.9691 -0.1487 -0.7010
  900MOL0     C21422   5.896   0.051  11.101  0.4044 -0.2951  0.2502
  900MOL0     C21423   5.917  -0.073  11.156 -0.2941 -0.7055 -0.1502
  900MOL0     O21424   6.029  -0.139  11.178  0.1301 -0.3716  0.2721
  900MOL0     C21425   6.147  -0.079  11.117 -0.0073  0.2528  0.6458
  900MOL0     C21426   6.218   0.028  11.197 -0.0910  0.1067 -0.2032
  900MOL0     C21427   6.278  -0.037  11.324  0.1960 -0.2789  1.2153
  900MOL0     C21428   6.345   0.065  11.417 -0.4294 -0.8312 -0.6402
  900MOL0     C21429   6.443  -0.001  11.495 -0.1366 -0.0866 -0.3114
  900MOL0     C21430   6.514  -0.080  11.555  0.1047  0.1644  0.4127
  900MOL0     C21431   5.811  -0.136  11.210 -0.3321 -0.1966 -0.8761
  900MOL0     C21432   5.676  -0.087  11.211  0.6660 -0.2518  0.2139
  900MOL0     H21433   5.283   0.223  11.220 -0.1393  1.5032 -0.3877
  900MOL0     H21434   5.074   0.311  11.129  1.7958  0.3682 -1.4268
  900MOL0     H21435   4.814   0.282  11.057  1.0751 -1.6738 -0.8132
  900MOL0     H21436   4.921   0.378  10.957 -0.8310  0.1798  4.2500
  900MOL0     H21437   4.697   0.408  10.873 -1.0106 -0.8937  0.4976
  900MOL0     H21438   4.795   0.306  10.750  1.7803 -0.5757  0.9011
  900MOL0     H21439   4.669   0.114  10.827  1.1350  0.3986  0.7502
  900MOL0     H21440   4.591   0.199  10.961  0.5703 -1.5650  0.6413
  900MOL0     H21441   4.479   0.373  10.805 -0.3275  1.0034  0.3508
  900MOL0     H21442   4.554   0.281  10.678 -1.5961 -0.1538  0.7930
  900MOL0     H21443   4.418   0.082  10.722  1.0974 -1.5634  3.0930
  900MOL0     H21444   4.357   0.140  10.866  0.4297  0.6914  0.1590
  900MOL0     H21445   4.268   0.350  10.742 -2.0467 -0.0651  1.1068
  900MOL0     H21446   4.303   0.259  10.596  2.7802  3.9255  1.5820
  900MOL0     H21447   4.113   0.166  10.803  2.7289 -2.1841 -0.9813
  900MOL0     H21448   4.061   0.263  10.662 -1.5172 -1.0020 -0.2289
  900MOL0     H21449   4.191  -0.012  10.618  1.4810  1.2174 -0.2607
  900MOL0     H21450   4.102   0.081  10.504 -2.7357  2.1127  0.1467
  900MOL0     H21451   4.052  -0.225  10.636  0.8181  1.9601 -1.1715
  900MOL0     H21452   3.789  -0.340  10.773 -0.9465 -0.5852 -0.0801
  900MOL0     H21453   3.661  -0.277  10.680 -0.4387 -0.0899 -0.5188
  900MOL0     H21454   3.897  -0.451  10.574 -0.4918 -2.2970  0.5903
  900MOL0     H21455   3.814  -0.357  10.463 -0.1966  0.8021 -0.0666
  900MOL0     H21456   3.601  -0.476  10.523  1.2648  0.1356 -4.0983
  900MOL0     H21457   3.696  -0.567  10.637 -1.7706  0.3333  0.2264
  900MOL0     H21458   3.838  -0.628  10.436  0.0356  0.6435  0.5293
  900MOL0     H21459   3.714  -0.549  10.336  1.1554  0.7057 -0.0227
  900MOL0     H21460   3.494  -0.792  10.627  0.5644 -3.5512 -1.1568
  900MOL0     H21461   3.292  -0.831  10.730  1.2333 -0.4493 -0.3826
  900MOL0     H21462   3.136  -0.778  10.652  0.0654 -0.3334 -0.8072
  900MOL0     H21463   3.197  -0.935  10.613  2.6104 -0.5197 -0.2690
  900MOL0     H21464   2.937  -0.742  10.088 -0.9102  2.6080 -1.5366
  900MOL0     H21465   2.690  -0.739  10.023  0.3725  1.1683  0.5387
  900MOL0     H21466   2.441  -0.887  10.287  0.4604 -0.1863 -0.2621
  900MOL0     H21467   2.426  -0.738  10.388  1.0340  0.7865 -0.1665
  900MOL0     H21468   2.241  -0.655  10.252  4.6513  1.0730 -0.6361
  900MOL0     H21469   2.216  -0.814  10.175  1.3583  1.2098 -0.4526
  900MOL0     H21470   2.154  -0.767  10.466 -2.5331  0.2799 -0.0269
  900MOL0     H21471   2.224  -0.925  10.411 -0.3264  0.1410  1.6183
  900MOL0     H21472   1.983  -0.794  10.282 -1.0760 -0.7012 -0.9826
  900MOL0     H21473   2.030  -0.965  10.268 -2.2819 -0.2392  0.0831
  900MOL0     H21474   1.950  -0.840  10.524  1.4324  0.7073 -1.5476
  900MOL0     H21475   1.992  -1.009  10.501  0.1368 -1.2546  0.7041
  900MOL0     H21476   1.760  -0.878  10.351 -0.3688 -1.0069 -0.1713
  900MOL0     H21477   1.806  -1.056  10.345  2.9442  2.0806 -2.8143
  900MOL0     H21478   1.609  -1.035  10.478  1.2511 -1.3366  0.8127
  900MOL0     H21479   1.669  -0.896  10.558  0.3702  0.3006 -0.3029
  900MOL0     H21480   1.820  -1.160  10.568 -0.9628 -0.0831  0.0471
  900MOL0     H21481   1.684  -1.149  10.670 -0.2358  1.7464  3.0231
  900MOL0     H21482   2.603  -0.631  10.435  3.4398  0.3910  1.9812
  900MOL0     H21483   2.828  -0.607  10.477  0.5234 -2.1480  0.8896
  900MOL0     H21484   3.257  -0.672  10.206 -2.1029 -0.8636  2.0835
  900MOL0     H21485   3.499  -0.641  10.227 -0.6824  1.3917 -0.6221
  900MOL0     H21486   5.042  -0.033  10.868 -0.2969  0.9253  1.3516
  900MOL0     H21487   5.257  -0.107  10.933 -1.0997  0.4942 -2.8710
  900MOL0     H21488   5.744   0.209  11.060 -1.4790 -0.1283  0.2976
  900MOL0     H21489   5.978   0.114  11.067  0.6222 -1.8162 -2.2321
  900MOL0     H21490   6.222  -0.159  11.112  0.4502  0.6240  1.4563
  900MOL0     H21491   6.139  -0.044  11.014 -0.4277 -1.6387 -0.0058
  900MOL0     H21492   6.158   0.116  11.221 -2.0323 -2.0243  3.6114
  900MOL0     H21493   6.301   0.051  11.129  0.4186 -0.5280  0.1827
  900MOL0     H21494   6.357  -0.097  11.278  0.4722  1.9050 -1.3530
  900MOL0     H21495   6.206  -0.098  11.380 -0.9561 -1.7952 -1.7061
  900MOL0     H21496   6.270   0.109  11.483 -2.0855 -1.2684 -2.1602
  900MOL0     H21497   6.393   0.148  11.363 -0.2677 -0.1302  0.5427
  900MOL0     H21498   6.588  -0.150  11.586  3.3262  1.6622 -3.1157
  900MOL0     H21499   5.833  -0.217  11.280 -0.1373  0.9152  0.3955
  900MOL0     H21500   5.595  -0.136  11.263 -0.9566 -0.4336 -2.3142
  901MOL0     O21501   6.640   8.718   1.943 -0.2814  0.6814 -0.2227
  901MOL0     C21502   6.706   8.789   1.873  0.5469  0.0888 -0.0846
  901MOL0     O21503   6.662   8.831   1.746  0.5786 -0.2220  0.8507
  901MOL0     C21504   6.528   8.811   1.715 -0.2891  0.1391  0.0111
  901MOL0     C21505   6.478   8.703   1.640 -1.1827 -0.2334 -0.1918
  901MOL0     C21506   6.343   8.683   1.620  0.2325  0.2819  0.3451
  901MOL0     C21507   6.244   8.770   1.666  0.4008 -0.0204 -0.5142
  901MOL0     O21508   6.111   8.760   1.639  0.3914 -0.3336 -0.3040
  901MOL0     C21509   6.054   8.632   1.647 -1.0796  0.8482  0.5150
  901MOL0     C21510   5.966   8.602   1.527 -1.3389 -1.2400  0.4482
  901MOL0     C21511   5.854   8.694   1.507  0.4587 -0.6806 -0.0615
  901MOL0     C21512   5.789   8.648   1.380 -0.0253  0.2938  0.1516
  901MOL0     C21513   5.633   8.676   1.385  0.0142 -0.3252 -0.3291
  901MOL0     C21514   5.556   8.545   1.399 -1.2508 -0.3345 -0.0288
  901MOL0     C21515   5.414   8.552   1.374  0.6527  0.1876 -0.0008
  901MOL0     C21516   5.340   8.634   1.485 -0.4664  0.2838 -0.7512
  901MOL0     N21517   5.202   8.673   1.441  0.1677  0.4086 -0.8266
  901MOL0     C21518   5.100   8.587   1.409  0.2003  0.7432  0.4049
  901MOL0     C21519   4.994   8.667   1.384  0.0004  0.0459  0.6340
  901MOL0     C21520   4.853   8.630   1.330  0.0260  0.3186  0.2005
  901MOL0     C21521   4.754   8.632   1.444 -0.3139  0.3045 -0.1082
  901MOL0     C21522   4.626   8.548   1.416  0.2293 -0.8021  0.6723
  901MOL0     C21523   4.526   8.577   1.530  0.5694  0.2357 -0.4203
  901MOL0     O21524   4.439   8.476   1.567 -0.3180 -0.1150 -0.1828
  901MOL0     C21525   4.317   8.516   1.610  0.8190 -1.0383 -1.0291
  901MOL0     C21526   4.274   8.480   1.740  0.4502  0.5877  0.0783
  901MOL0     C21527   4.140   8.496   1.772 -0.1564  0.1019  0.3596
  901MOL0     C21528   4.100   8.425   1.902  0.2905  0.9537  0.7579
  901MOL0     C21529   4.049   8.573   1.695 -0.1875  0.2273 -0.0637
  901MOL0     C21530   3.905   8.587   1.724 -0.6007 -0.4122 -0.3989
  901MOL0     O21531   3.854   8.499   1.813  1.0879  0.2688  0.2248
  901MOL0     C21532   3.720   8.488   1.837 -0.6908 -1.0411  0.0700
  901MOL0     C21533   3.675   8.541   1.956  0.8928 -0.1950 -0.0616
  901MOL0     C21534   3.539   8.525   1.988 -0.0095 -0.3036 -0.2795
  901MOL0     C21535   3.449   8.468   1.897 -0.9667  0.0691  0.2709
  901MOL0     O21536   3.317   8.440   1.918  0.1386 -0.2587 -0.3333
  901MOL0     C21537   3.255   8.475   2.039  0.5668  1.2096 -0.2007
  901MOL0     C21538   3.108   8.495   2.025 -0.8562 -0.0975  0.2769
  901MOL0     C21539   3.047   8.349   2.009  0.5175 -0.1408 -0.6169
  901MOL0     C21540   3.062   8.254   2.133 -0.1780 -0.6893 -0.5569
  901MOL0     C21541   2.975   8.136   2.137  0.8632  0.3756  0.0710
  901MOL0     C21542   2.824   8.165   2.153  1.0756 -0.2811 -0.3639
  901MOL0     C21543   2.770   8.224   2.285 -0.7103 -0.4054  0.5269
  901MOL0     C21544   2.690   8.344   2.272  0.9129 -0.2138 -0.5782
  901MOL0    Cl21545   2.787   8.479   2.196  0.2148  0.3690  0.1224
  901MOL0     C21546   3.496   8.442   1.771  0.2746  0.2456  0.1888
  901MOL0     C21547   3.630   8.450   1.735 -0.4470  0.3182 -0.1853
  901MOL0     O21548   3.840   8.680   1.676  0.0055  0.2875 -0.1820
  901MOL0     C21549   4.101   8.616   1.572 -0.3751 -0.7035 -0.4041
  901MOL0     C21550   4.223   8.583   1.521 -0.7136  0.7960 -0.0335
  901MOL0     N21551   5.031   8.802   1.392 -0.1134  0.0362 -0.1400
  901MOL0     N21552   5.157   8.805   1.424  0.6021  0.0813  0.5825
  901MOL0     C21553   6.292   8.881   1.730 -0.0198  1.1133  1.1535
  901MOL0     C21554   6.430   8.899   1.765 -0.0785 -0.2863  0.2742
  901MOL0     C21555   6.845   8.825   1.915 -0.4048 -0.1126  0.5245
  901MOL0     C21556   6.888   8.809   2.047 -0.8882  0.9231 -0.2603
  901MOL0     C21557   7.022   8.837   2.082 -0.1307 -0.0618  0.9563
  901MOL0     C21558   7.106   8.906   1.987 -0.6529  0.2974  0.1867
  901MOL0     O21559   7.227   8.956   2.037 -0.4878  0.4599  0.1276
  901MOL0     C21560   7.264   9.090   2.001 -0.3065 -0.1406  0.2758
  901MOL0     C21561   7.323   9.164   2.121 -0.5609 -0.7911  0.3278
  901MOL0     C21562   7.406   9.283   2.067 -0.0407 -0.7359 -0.4084
  901MOL0     C21563   7.474   9.349   2.190 -0.8270 -0.7107  0.1669
  901MOL0     C21564   7.617   9.324   2.207 -0.0598 -0.4020 -0.7582
  901MOL0     C21565   7.738   9.324   2.219  0.7291  0.4365 -0.4449
  901MOL0     C21566   7.059   8.924   1.857 -0.0550 -0.3447  0.1077
  901MOL0     C21567   6.929   8.883   1.822 -0.2363 -0.1029 -0.4255
  901MOL0     H21568   6.546   8.627   1.603  0.8406 -0.0341  2.7413
  901MOL0     H21569   6.310   8.595   1.566 -2.4831  1.1530  0.4405
  901MOL0     H21570   6.126   8.552   1.669 -1.6032 -1.1239 -3.9397
  901MOL0     H21571   5.997   8.613   1.738 -0.0910 -0.2376  0.9379
  901MOL0     H21572   6.031   8.612   1.440  0.4204  0.6525  1.8680
  901MOL0     H21573   5.936   8.497   1.537 -0.1057 -1.6008  0.6034
  901MOL0     H21574   5.782   8.683   1.588 -3.3566  0.4791 -2.9940
  901MOL0     H21575   5.870   8.801   1.490 -0.7686 -0.5824 -0.7494
  901MOL0     H21576   5.838   8.705   1.301  0.6460 -1.4736 -0.7693
  901MOL0     H21577   5.811   8.545   1.350  2.1322  0.3754  1.2896
  901MOL0     H21578   5.605   8.741   1.468  4.2623 -0.3500  1.3748
  901MOL0     H21579   5.599   8.721   1.291  0.0817 -1.0498 -0.7061
  901MOL0     H21580   5.597   8.467   1.333  2.8625  0.4365  1.3202
  901MOL0     H21581   5.563   8.502   1.499  0.3763  0.2616  0.1505
  901MOL0     H21582   5.404   8.604   1.278 -0.2762 -0.6435 -0.3716
  901MOL0     H21583   5.378   8.449   1.371  1.4259 -0.2329  2.7729
  901MOL0     H21584   5.404   8.716   1.516  0.1333 -0.8159  1.0593
  901MOL0     H21585   5.338   8.570   1.574  1.6242  1.2322  0.0395
  901MOL0     H21586   5.101   8.479   1.396  1.2160  0.7512  0.3395
  901MOL0     H21587   4.822   8.696   1.248  0.9509 -0.4886 -0.8150
  901MOL0     H21588   4.862   8.529   1.291 -3.9540 -1.8278  3.9799
  901MOL0     H21589   4.731   8.734   1.474 -0.7894  0.2744 -0.3646
  901MOL0     H21590   4.799   8.586   1.533 -0.5745  0.6140  0.1890
  901MOL0     H21591   4.653   8.442   1.413  0.6956 -0.7498  2.1880
  901MOL0     H21592   4.571   8.576   1.326 -1.8033  0.1595  2.1561
  901MOL0     H21593   4.478   8.674   1.511  1.8956  0.7270 -1.3986
  901MOL0     H21594   4.587   8.599   1.618  1.7726 -0.5526 -1.0342
  901MOL0     H21595   4.338   8.431   1.813 -1.5229 -0.7730  0.9739
  901MOL0     H21596   4.181   8.387   1.964 -2.9015 -0.2225  4.6537
  901MOL0     H21597   4.054   8.501   1.967  0.0844  2.1170 -0.6946
  901MOL0     H21598   4.030   8.343   1.884 -1.6996  2.4395  1.3534
  901MOL0     H21599   3.756   8.582   2.017  2.1324 -1.1660 -1.0060
  901MOL0     H21600   3.502   8.543   2.089  0.5159  3.2502 -0.6145
  901MOL0     H21601   3.289   8.411   2.121  0.7141  0.1288 -1.0805
  901MOL0     H21602   3.285   8.578   2.063  0.2986  1.3246 -0.3575
  901MOL0     H21603   3.060   8.544   2.111 -0.1798  0.3083  0.4291
  901MOL0     H21604   3.083   8.558   1.940  1.0409  1.0591  0.5107
  901MOL0     H21605   3.095   8.296   1.927 -2.3770 -4.2075 -0.0039
  901MOL0     H21606   2.942   8.364   1.981  0.3878 -0.2442 -0.1942
  901MOL0     H21607   3.165   8.220   2.125  1.0001  2.1838  0.9821
  901MOL0     H21608   3.057   8.306   2.229 -0.0889  0.6782 -1.2731
  901MOL0     H21609   3.000   8.057   2.208 -0.1969 -2.8334 -2.8346
  901MOL0     H21610   2.974   8.085   2.040 -0.3607 -2.1375  1.3069
  901MOL0     H21611   2.790   8.231   2.072  0.6140  0.2111  0.2203
  901MOL0     H21612   2.770   8.072   2.130  0.9767 -0.5926  1.0854
  901MOL0     H21613   2.851   8.239   2.357  0.5019 -0.8019 -0.7134
  901MOL0     H21614   2.712   8.140   2.323  1.1010 -0.9059  2.4055
  901MOL0     H21615   2.653   8.367   2.372 -0.5658  0.0361 -1.1663
  901MOL0     H21616   2.601   8.321   2.214  0.0966 -1.3661  1.0522
  901MOL0     H21617   3.415   8.404   1.710  0.4753 -1.2195  0.7901
  901MOL0     H21618   3.690   8.422   1.649  0.8723  1.5904  0.2691
  901MOL0     H21619   4.032   8.679   1.517  1.9544  2.8616  0.4121
  901MOL0     H21620   4.252   8.602   1.418  1.3930  0.6273  0.4958
  901MOL0     H21621   6.221   8.956   1.761  0.9243  0.8012  4.5150
  901MOL0     H21622   6.458   8.987   1.822 -0.1661  0.7574 -1.2240
  901MOL0     H21623   6.828   8.764   2.125  0.5512 -1.8944 -0.6578
  901MOL0     H21624   7.053   8.821   2.184  0.6299  0.5790  0.8384
  901MOL0     H21625   7.334   9.092   1.918 -0.1528  1.1462  0.4079
  901MOL0     H21626   7.175   9.146   1.970  0.2226  0.8313  0.4824
  901MOL0     H21627   7.383   9.096   2.182  1.6514 -1.9905 -2.9027
  901MOL0     H21628   7.239   9.197   2.182  0.3058  3.4589 -0.5078
  901MOL0     H21629   7.328   9.348   2.028 -0.4758 -1.0584 -0.0748
  901MOL0     H21630   7.484   9.253   1.996  0.4793  0.6428 -0.4489
  901MOL0     H21631   7.423   9.319   2.282  0.1185  0.1418  1.0004
  901MOL0     H21632   7.448   9.456   2.191 -2.2580 -1.0332  1.4274
  901MOL0     H21633   7.845   9.316   2.220  0.9866  3.0309  1.2943
  901MOL0     H21634   7.108   8.987   1.783 -3.3475  1.3170 -0.8607
  901MOL0     H21635   6.887   8.900   1.724 -1.3259 -3.4805 -0.6702
  902MOL0     O21636  10.188   6.530   0.143  0.1821 -0.6449 -0.3831
  902MOL0     C21637  10.166   6.515   0.027  0.6799  0.3976  0.2842
  902MOL0     O21638  10.251   6.465  -0.062 -0.8952  0.5414  0.4137
  902MOL0     C21639  10.387   6.435  -0.031  0.5012  0.0597  0.6135
  902MOL0     C21640  10.459   6.540   0.031  0.3406 -0.4972 -0.9065
  902MOL0     C21641  10.594   6.507   0.056  0.5814 -0.6801 -0.2943
  902MOL0     C21642  10.664   6.392   0.009  0.5747 -0.1642  0.1438
  902MOL0     O21643  10.796   6.362   0.013  0.0387  0.2952  0.0521
  902MOL0     C21644  10.878   6.474   0.038  0.0605 -0.0057  0.3695
  902MOL0     C21645  10.896   6.509   0.190 -0.2921  0.6429  0.0605
  902MOL0     C21646  11.002   6.619   0.201 -0.2145  0.0968 -1.1750
  902MOL0     C21647  11.073   6.635   0.335 -0.7575 -0.2610  1.1359
  902MOL0     C21648  11.206   6.711   0.304  0.0873 -1.2692  0.5521
  902MOL0     C21649  11.173   6.855   0.251  0.8796  0.5240 -0.2058
  902MOL0     C21650  11.069   6.931   0.338 -0.4589  0.1093  0.3537
  902MOL0     C21651  11.060   7.086   0.292 -0.0289  0.1916  0.3772
  902MOL0     N21652  10.948   7.107   0.195  0.0876 -0.1495 -0.2703
  902MOL0     C21653  10.820   7.146   0.225 -0.6206  0.3570 -0.2552
  902MOL0     C21654  10.759   7.155   0.104  0.1572 -0.1337 -0.8887
  902MOL0     C21655  10.620   7.177   0.082 -1.0253 -0.2492 -0.5156
  902MOL0     C21656  10.582   7.323   0.089  0.1096 -0.9253  0.5075
  902MOL0     C21657  10.628   7.394  -0.050  0.3836  1.0649 -0.0116
  902MOL0     C21658  10.528   7.504  -0.069  0.0755  0.2205 -0.3438
  902MOL0     O21659  10.491   7.574   0.048  0.0776 -0.3509 -0.2081
  902MOL0     C21660  10.387   7.664   0.037  0.6888 -0.5284 -0.8167
  902MOL0     C21661  10.392   7.784  -0.034  0.3570 -0.1587 -0.7700
  902MOL0     C21662  10.276   7.852  -0.062 -0.5116  0.1100  0.2285
  902MOL0     C21663  10.283   7.973  -0.149 -0.1973 -0.1275 -0.3185
  902MOL0     C21664  10.148   7.824  -0.009 -1.0434 -0.4749 -0.6340
  902MOL0     C21665  10.024   7.892  -0.036  0.0312 -0.1760 -0.3482
  902MOL0     O21666   9.954   7.943   0.065  0.4482 -0.2346 -0.3230
  902MOL0     C21667   9.844   8.018   0.034 -1.0213 -0.1488  0.0016
  902MOL0     C21668   9.727   7.957  -0.026 -0.0268  1.3621 -0.7548
  902MOL0     C21669   9.623   8.031  -0.072  0.4296  0.0788  1.3341
  902MOL0     C21670   9.614   8.171  -0.055 -0.6540  0.0937 -0.6831
  902MOL0     O21671   9.506   8.253  -0.086 -0.7954 -0.8617 -0.1456
  902MOL0     C21672   9.391   8.198  -0.146 -0.1159  1.2767  0.9561
  902MOL0     C21673   9.328   8.299  -0.241  1.0802  0.2969 -0.0397
  902MOL0     C21674   9.408   8.340  -0.373  0.2060 -0.2549  0.9005
  902MOL0     C21675   9.316   8.388  -0.483 -0.3411 -0.7883  0.7763
  902MOL0     C21676   9.247   8.529  -0.458 -0.5796  0.5221  0.2646
  902MOL0     C21677   9.171   8.585  -0.577  0.4444 -0.2689  0.0879
  902MOL0     C21678   9.039   8.501  -0.614  0.1037 -0.0693  0.2304
  902MOL0     C21679   8.934   8.589  -0.682 -0.4240 -1.1393 -0.4091
  902MOL0    Cl21680   8.775   8.507  -0.674 -0.1225 -0.0791 -0.1293
  902MOL0     C21681   9.728   8.233  -0.001  1.2444  0.4206  0.0534
  902MOL0     C21682   9.841   8.158   0.047  0.0292 -0.2171 -0.5116
  902MOL0     O21683   9.983   7.895  -0.153  0.2680  0.1719  0.1166
  902MOL0     C21684  10.150   7.710   0.077 -0.7165  0.1156  0.4869
  902MOL0     C21685  10.267   7.626   0.102  0.3892 -0.9376 -0.1943
  902MOL0     N21686  10.850   7.116   0.002  0.1797  0.1297  0.7367
  902MOL0     N21687  10.965   7.094   0.059  0.5529 -0.3386 -0.0682
  902MOL0     C21688  10.589   6.301  -0.058 -0.0634 -0.0686  0.7676
  902MOL0     C21689  10.447   6.311  -0.073  0.1542  0.7506 -0.9325
  902MOL0     C21690  10.026   6.554  -0.020  0.3030 -0.1799 -0.2106
  902MOL0     C21691   9.923   6.581   0.077 -0.4461 -0.8140  0.3718
  902MOL0     C21692   9.799   6.624   0.039  0.6693  0.6500 -0.0846
  902MOL0     C21693   9.763   6.624  -0.098 -0.9867  0.5594  0.1668
  902MOL0     O21694   9.639   6.659  -0.138 -0.5498 -0.1980  0.2476
  902MOL0     C21695   9.529   6.577  -0.084  0.0899 -0.7572  0.5139
  902MOL0     C21696   9.480   6.469  -0.185 -0.2130 -0.7891 -0.4232
  902MOL0     C21697   9.349   6.412  -0.142 -0.1764 -0.4107 -0.4930
  902MOL0     C21698   9.283   6.330  -0.245  0.1803 -0.4607 -0.4218
  902MOL0     C21699   9.177   6.241  -0.190  0.6881  0.7774 -0.2322
  902MOL0     C21700   9.099   6.163  -0.159  0.4217  0.0721 -0.2720
  902MOL0     C21701   9.857   6.594  -0.198  0.3450  0.2731 -0.2305
  902MOL0     C21702   9.985   6.564  -0.153 -0.0176  0.0875  0.3151
  902MOL0     H21703  10.418   6.637   0.056  1.6428 -0.1863  0.1369
  902MOL0     H21704  10.647   6.592   0.096 -1.2155  1.0516 -1.3877
  902MOL0     H21705  10.978   6.451   0.001 -0.9832 -4.4005 -0.2383
  902MOL0     H21706  10.842   6.558  -0.022 -0.4332 -0.1214  0.4948
  902MOL0     H21707  10.807   6.549   0.239 -0.0920 -1.5290  2.4162
  902MOL0     H21708  10.928   6.420   0.244  0.2018 -0.6275 -2.2098
  902MOL0     H21709  11.080   6.594   0.130  3.6418  1.6918  2.0853
  902MOL0     H21710  10.948   6.710   0.173  1.7199  0.8041 -2.8712
  902MOL0     H21711  11.009   6.675   0.414 -1.7848  0.2683  0.0528
  902MOL0     H21712  11.098   6.538   0.378  1.3543 -0.2026  0.1644
  902MOL0     H21713  11.273   6.720   0.390  2.6426  0.1524 -1.4564
  902MOL0     H21714  11.263   6.663   0.225  1.1081 -0.1581  0.5814
  902MOL0     H21715  11.264   6.914   0.254  1.4992 -0.2325 -2.3898
  902MOL0     H21716  11.145   6.852   0.145  0.7024 -0.0965 -0.1444
  902MOL0     H21717  10.972   6.881   0.327 -1.0709  1.5245 -1.1141
  902MOL0     H21718  11.099   6.918   0.442 -0.6286 -4.3172  0.0682
  902MOL0     H21719  11.155   7.129   0.258  0.4388 -0.5465  0.7246
  902MOL0     H21720  11.031   7.139   0.384  1.9486  1.4584  0.3440
  902MOL0     H21721  10.780   7.182   0.320 -1.2049  1.1666 -0.7937
  902MOL0     H21722  10.602   7.138  -0.019 -3.7255 -0.3355 -0.0815
  902MOL0     H21723  10.559   7.124   0.155  0.2967  0.7632  1.4033
  902MOL0     H21724  10.641   7.373   0.166 -2.5162 -0.3355  2.2782
  902MOL0     H21725  10.475   7.329   0.111  0.1606 -1.7912  1.0312
  902MOL0     H21726  10.622   7.329  -0.138 -0.8229  2.1993 -0.7811
  902MOL0     H21727  10.730   7.433  -0.042  0.7317  0.0799  0.6014
  902MOL0     H21728  10.440   7.463  -0.119 -0.6630  2.4480 -1.0095
  902MOL0     H21729  10.570   7.579  -0.137 -0.2212 -0.4311 -1.2714
  902MOL0     H21730  10.492   7.799  -0.075  0.1879  0.9349 -0.8121
  902MOL0     H21731  10.391   7.990  -0.161  0.1883 -2.3070 -0.3338
  902MOL0     H21732  10.248   7.956  -0.251  3.7899 -1.3746 -1.6711
  902MOL0     H21733  10.236   8.061  -0.104  0.5068  1.1453 -1.9593
  902MOL0     H21734   9.727   7.850  -0.046 -3.0181  0.4568  2.9415
  902MOL0     H21735   9.541   7.970  -0.110 -0.1991  1.2874  0.6956
  902MOL0     H21736   9.426   8.108  -0.198  3.3135  1.8389  2.0525
  902MOL0     H21737   9.320   8.173  -0.066 -0.7392  0.3598  0.1507
  902MOL0     H21738   9.234   8.258  -0.280  1.3326 -1.1289  0.8098
  902MOL0     H21739   9.307   8.396  -0.194  1.3704 -0.0070  0.7287
  902MOL0     H21740   9.457   8.246  -0.403 -2.8371 -1.6061 -0.3024
  902MOL0     H21741   9.480   8.418  -0.349 -1.2765  1.1926  0.8171
  902MOL0     H21742   9.379   8.402  -0.571 -0.4824 -1.1125  0.6217
  902MOL0     H21743   9.249   8.303  -0.498  0.9716 -1.9057  1.0269
  902MOL0     H21744   9.333   8.597  -0.460  0.6499 -0.9839 -2.0998
  902MOL0     H21745   9.195   8.552  -0.364 -0.8814  1.1074 -0.0380
  902MOL0     H21746   9.139   8.684  -0.544  0.7319 -0.3403  0.5815
  902MOL0     H21747   9.244   8.602  -0.657 -0.7421  0.0067 -0.9726
  902MOL0     H21748   8.995   8.458  -0.523 -1.1642 -0.7832 -0.6877
  902MOL0     H21749   9.067   8.412  -0.671  1.1872  0.7390 -0.5237
  902MOL0     H21750   8.956   8.604  -0.788 -0.9246 -0.6452 -0.4511
  902MOL0     H21751   8.925   8.686  -0.632  0.3884 -1.2019 -0.1254
  902MOL0     H21752   9.733   8.341   0.013 -2.3673  0.6759  0.4402
  902MOL0     H21753   9.934   8.197   0.088  0.6531 -0.9337 -1.2073
  902MOL0     H21754  10.063   7.685   0.136 -0.4717 -1.7036  0.1191
  902MOL0     H21755  10.262   7.543   0.172 -0.4705  0.3580  1.3462
  902MOL0     H21756  10.632   6.207  -0.090 -0.5953  0.3993 -1.5264
  902MOL0     H21757  10.382   6.243  -0.127 -0.3803 -0.6362  1.3598
  902MOL0     H21758   9.944   6.590   0.183 -0.8453  0.4483  0.3692
  902MOL0     H21759   9.730   6.662   0.114  0.3626  0.1772 -0.1201
  902MOL0     H21760   9.564   6.524   0.006  0.0020 -1.7041  0.0038
  902MOL0     H21761   9.437   6.635  -0.069 -0.3002 -1.1556 -0.2648
  902MOL0     H21762   9.546   6.385  -0.209 -2.1051 -1.8893 -2.1419
  902MOL0     H21763   9.470   6.524  -0.280  1.5957 -1.0154 -0.7814
  902MOL0     H21764   9.281   6.482  -0.093 -1.2838 -2.0152  0.3717
  902MOL0     H21765   9.372   6.343  -0.060  2.2175 -1.0257 -1.5949
  902MOL0     H21766   9.362   6.276  -0.298 -0.1789  1.3318 -2.9519
  902MOL0     H21767   9.226   6.388  -0.318 -1.2781  0.0228  1.0373
  902MOL0     H21768   9.029   6.087  -0.131  0.7284  0.2659  1.0764
  902MOL0     H21769   9.838   6.614  -0.303  2.5473 -0.3665 -0.8033
  902MOL0     H21770  10.062   6.536  -0.224 -1.3675 -0.1457 -1.0951
  903MOL0     O21771   4.777   9.681  10.943 -0.3220 -0.4808  0.8664
  903MOL0     C21772   4.836   9.676  10.834 -0.1170 -0.2324  0.4534
  903MOL0     O21773   4.829   9.569  10.747  0.3968 -0.4786  0.6647
  903MOL0     C21774   4.772   9.455  10.785  0.7791  0.6083 -0.3174
  903MOL0     C21775   4.633   9.454  10.797 -0.5203  0.1168  0.1402
  903MOL0     C21776   4.557   9.336  10.823  0.6037 -0.0162  0.7300
  903MOL0     C21777   4.638   9.215  10.817  0.3066 -0.2652  0.4446
  903MOL0     O21778   4.556   9.105  10.802  0.8138 -0.8928  0.4798
  903MOL0     C21779   4.537   9.066  10.661 -0.8405  0.7878  0.0112
  903MOL0     C21780   4.538   8.910  10.649  0.0498  0.4840  0.7079
  903MOL0     C21781   4.444   8.823  10.740  0.0204 -0.4145  0.4838
  903MOL0     C21782   4.299   8.826  10.685 -0.1049  0.8953 -0.6455
  903MOL0     C21783   4.200   8.733  10.764 -0.2587 -0.2142 -0.0166
  903MOL0     C21784   4.052   8.742  10.710 -0.2846  0.5855 -0.2143
  903MOL0     C21785   3.954   8.660  10.803  0.6351 -0.0315  0.2292
  903MOL0     C21786   3.812   8.673  10.759  0.3162  0.1850 -0.3939
  903MOL0     N21787   3.781   8.622  10.624 -0.3253  0.6180  0.1375
  903MOL0     C21788   3.774   8.484  10.596  0.5770  0.5481  0.0826
  903MOL0     C21789   3.737   8.485  10.466 -0.4503 -0.1902  0.9591
  903MOL0     C21790   3.727   8.378  10.360  0.4575  0.1536  0.6724
  903MOL0     C21791   3.589   8.351  10.314 -0.4224 -0.0952  0.2923
  903MOL0     C21792   3.539   8.218  10.348  0.8736  0.7074 -0.7366
  903MOL0     C21793   3.396   8.194  10.290 -0.6000 -0.1571  0.7538
  903MOL0     O21794   3.323   8.293  10.360 -0.5175 -0.3785  0.2166
  903MOL0     C21795   3.187   8.301  10.363  0.0355 -0.1036 -0.1915
  903MOL0     C21796   3.108   8.204  10.308 -0.4843 -0.1869 -1.0983
  903MOL0     C21797   2.973   8.197  10.331 -0.4241 -1.0273 -1.2907
  903MOL0     C21798   2.904   8.067  10.299  0.0551  0.4583 -0.4987
  903MOL0     C21799   2.907   8.307  10.392 -0.3906  0.3445  0.9435
  903MOL0     C21800   2.758   8.314  10.429  0.4294  0.0786  0.0991
  903MOL0     O21801   2.680   8.214  10.385  0.0468 -0.5148  0.2609
  903MOL0     C21802   2.554   8.221  10.426 -0.2460  0.4879 -0.2059
  903MOL0     C21803   2.525   8.178  10.557  0.5829 -0.5669  0.9520
  903MOL0     C21804   2.388   8.178  10.600 -0.6957  0.0543 -0.0066
  903MOL0     C21805   2.283   8.222  10.515  0.1475 -0.2707 -0.2157
  903MOL0     O21806   2.157   8.217  10.563  0.5963 -0.7372 -0.4918
  903MOL0     C21807   2.054   8.224  10.461 -0.7000  0.2397 -0.9479
  903MOL0     C21808   1.911   8.221  10.511  0.0526 -0.1311 -0.0422
  903MOL0     C21809   1.809   8.253  10.398 -0.1409  1.1775  0.1050
  903MOL0     C21810   1.667   8.225  10.441 -0.0288  0.2108 -0.2090
  903MOL0     C21811   1.554   8.319  10.373 -0.0118 -0.1977 -0.5799
  903MOL0     C21812   1.419   8.271  10.424 -0.4155 -0.3294 -0.7175
  903MOL0     C21813   1.313   8.333  10.331  0.2301  0.7658 -0.5301
  903MOL0     C21814   1.181   8.323  10.392 -0.0733  0.2268 -1.0909
  903MOL0    Cl21815   1.057   8.368  10.270  0.0241  0.0740  0.1828
  903MOL0     C21816   2.316   8.269  10.392 -0.4331 -0.4077 -0.4124
  903MOL0     C21817   2.451   8.273  10.348  0.7490  0.1324 -0.2591
  903MOL0     O21818   2.724   8.406  10.504 -0.1509  0.1826 -0.0195
  903MOL0     C21819   2.993   8.406  10.449 -0.2033  0.2901  0.6267
  903MOL0     C21820   3.129   8.406  10.429 -0.0696  0.0499 -0.0167
  903MOL0     N21821   3.732   8.614  10.418 -0.3406 -0.2433 -0.2242
  903MOL0     N21822   3.749   8.694  10.517  0.2641  0.1334 -0.6141
  903MOL0     C21823   4.779   9.210  10.794 -0.8884 -0.2492 -0.1984
  903MOL0     C21824   4.842   9.333  10.784  0.2896  0.4527 -0.2293
  903MOL0     C21825   4.940   9.773  10.804 -0.0948  0.5310  0.2383
  903MOL0     C21826   5.012   9.763  10.677 -0.3457  0.3938  0.4543
  903MOL0     C21827   5.115   9.851  10.641  1.1851  0.0409  0.1387
  903MOL0     C21828   5.167   9.944  10.735  0.6333 -0.5862  0.7942
  903MOL0     O21829   5.276  10.026  10.718 -0.1677  0.8040  0.1925
  903MOL0     C21830   5.315  10.043  10.581 -0.1932  0.1135 -0.2711
  903MOL0     C21831   5.425  10.140  10.572  0.1416  0.2353  0.0351
  903MOL0     C21832   5.564  10.115  10.639  0.6565 -0.1259 -0.0227
  903MOL0     C21833   5.635  10.246  10.671 -0.4852  0.4155 -0.9361
  903MOL0     C21834   5.775  10.221  10.716  0.2834 -0.1909  0.1276
  903MOL0     C21835   5.886  10.200  10.760 -0.3200  0.7775  0.0178
  903MOL0     C21836   5.102   9.957  10.854  0.3240  0.3512 -0.8493
  903MOL0     C21837   4.989   9.875  10.890 -0.6840 -0.0204  0.6139
  903MOL0     H21838   4.584   9.548  10.774 -3.5192 -1.4765 -0.4405
  903MOL0     H21839   4.449   9.340  10.819  0.5994  0.1009  0.9472
  903MOL0     H21840   4.439   9.102  10.630 -0.8559 -0.4285 -1.4572
  903MOL0     H21841   4.616   9.112  10.601  1.5106 -0.4991  1.9269
  903MOL0     H21842   4.520   8.895  10.542  0.2046 -0.5846  0.8157
  903MOL0     H21843   4.640   8.881  10.673  0.7606  2.5037  0.2464
  903MOL0     H21844   4.485   8.722  10.733  0.4786 -0.1195 -2.2720
  903MOL0     H21845   4.450   8.865  10.841 -1.8149 -0.0496  0.4770
  903MOL0     H21846   4.260   8.928  10.677 -0.9754  0.6127 -0.1071
  903MOL0     H21847   4.310   8.800  10.580  1.3573  0.0641 -0.3170
  903MOL0     H21848   4.239   8.631  10.759  1.7385  0.5120 -0.1308
  903MOL0     H21849   4.185   8.750  10.871 -2.8584  0.3087 -0.3954
  903MOL0     H21850   4.021   8.847  10.706  0.7941  0.9450  0.5480
  903MOL0     H21851   4.047   8.707  10.607 -0.2140 -1.5346  0.4524
  903MOL0     H21852   3.982   8.554  10.810  1.2515  0.2059  1.5024
  903MOL0     H21853   3.965   8.705  10.902  2.0885 -1.5176  0.7973
  903MOL0     H21854   3.788   8.779  10.762 -0.0963  0.1610 -2.0213
  903MOL0     H21855   3.755   8.618  10.834  1.0412 -1.2154 -0.8270
  903MOL0     H21856   3.806   8.392  10.644 -1.2066 -1.3752 -2.1661
  903MOL0     H21857   3.796   8.409  10.281  0.1253 -3.1196 -1.0539
  903MOL0     H21858   3.765   8.288  10.408  0.4794 -1.8657 -2.8181
  903MOL0     H21859   3.581   8.360  10.205 -1.6007  1.3247  0.4676
  903MOL0     H21860   3.527   8.430  10.356 -0.1235 -0.0307  0.6206
  903MOL0     H21861   3.538   8.208  10.457  2.7163 -0.1841 -0.7517
  903MOL0     H21862   3.614   8.146  10.315  2.1617  1.9444 -0.6495
  903MOL0     H21863   3.364   8.093  10.316  0.6573 -1.0528 -0.9662
  903MOL0     H21864   3.389   8.191  10.181  0.8181 -0.8795  0.6528
  903MOL0     H21865   3.154   8.119  10.258  1.0646  0.2224 -0.4387
  903MOL0     H21866   2.810   8.068  10.242 -0.6774 -1.9418  0.5626
  903MOL0     H21867   2.966   7.998  10.242  1.6578  0.4150  1.1980
  903MOL0     H21868   2.887   8.024  10.398  0.5985  1.6317  0.1286
  903MOL0     H21869   2.614   8.152  10.613  1.0011 -1.1331  0.0553
  903MOL0     H21870   2.381   8.140  10.702 -0.0446 -0.1182 -0.0249
  903MOL0     H21871   2.066   8.320  10.409  1.6211  0.9686  0.7350
  903MOL0     H21872   2.069   8.149  10.383 -2.2158  1.0769 -2.0922
  903MOL0     H21873   1.878   8.123  10.547  2.3777 -1.1139 -0.4110
  903MOL0     H21874   1.913   8.292  10.595 -0.3238  1.4898 -1.3385
  903MOL0     H21875   1.824   8.193  10.308 -0.9085  0.7189  0.2807
  903MOL0     H21876   1.814   8.361  10.381 -1.4628  1.8584  3.3212
  903MOL0     H21877   1.651   8.118  10.431 -0.0180 -0.3269  3.9907
  903MOL0     H21878   1.670   8.243  10.549  3.7786 -1.3975  0.0847
  903MOL0     H21879   1.559   8.317  10.264 -1.8479  0.2341 -0.6939
  903MOL0     H21880   1.576   8.413  10.424 -2.6826  0.0323  0.3106
  903MOL0     H21881   1.406   8.163  10.435  1.1549 -0.4050  0.9899
  903MOL0     H21882   1.409   8.309  10.526  1.3249  0.0559 -0.6537
  903MOL0     H21883   1.316   8.269  10.243 -0.6721 -1.1106  0.7383
  903MOL0     H21884   1.336   8.436  10.300 -0.1244  0.5835 -1.4239
  903MOL0     H21885   1.185   8.394  10.475  0.5641  0.3875 -1.2525
  903MOL0     H21886   1.172   8.221  10.431 -0.9516  0.7173  0.0619
  903MOL0     H21887   2.244   8.314  10.325 -1.9657 -0.2700  1.2587
  903MOL0     H21888   2.475   8.316  10.251  1.5812 -0.7410 -0.4527
  903MOL0     H21889   2.948   8.487  10.507 -0.3783 -0.6646  1.8508
  903MOL0     H21890   3.188   8.488  10.469  0.8725 -1.2966  1.4537
  903MOL0     H21891   4.827   9.114  10.779 -0.0062 -0.1939  1.9760
  903MOL0     H21892   4.950   9.338  10.774  0.2817  4.0907  0.2244
  903MOL0     H21893   4.998   9.671  10.621  2.1356 -0.3609  0.9593
  903MOL0     H21894   5.175   9.834  10.552  2.5065 -1.9798  1.3335
  903MOL0     H21895   5.353   9.947  10.543  2.7779  1.1207 -0.1269
  903MOL0     H21896   5.230  10.073  10.519  0.6251  1.8145 -0.6270
  903MOL0     H21897   5.380  10.227  10.621 -1.1757 -0.4595  0.1098
  903MOL0     H21898   5.441  10.171  10.468  0.7775  1.4439  0.4818
  903MOL0     H21899   5.611  10.060  10.557  0.8394 -0.2391  0.1569
  903MOL0     H21900   5.548  10.049  10.725  0.0313 -0.5348 -0.4437
  903MOL0     H21901   5.586  10.300  10.753  0.9080 -1.8539  1.5345
  903MOL0     H21902   5.633  10.307  10.580  0.7793  2.7759  0.5113
  903MOL0     H21903   5.987  10.166  10.769 -0.1313  0.5137 -2.3615
  903MOL0     H21904   5.141  10.023  10.930 -1.7834 -1.6557  2.2375
  903MOL0     H21905   4.945   9.872  10.989 -1.8452 -1.3439  0.1091
  904MOL0     O21906   0.506   1.625   7.587  0.0326  0.4754  0.4778
  904MOL0     C21907   0.529   1.512   7.643  0.6282  0.4072  0.9229
  904MOL0     O21908   0.434   1.424   7.696 -0.2914 -0.2243  0.0880
  904MOL0     C21909   0.303   1.447   7.684  0.0767 -0.3530 -0.2257
  904MOL0     C21910   0.231   1.335   7.665 -0.2290 -0.4443 -0.8330
  904MOL0     C21911   0.096   1.332   7.647 -0.0628 -0.8381 -0.4044
  904MOL0     C21912   0.034   1.465   7.639  0.0834  0.9379  0.3450
  904MOL0     O21913  -0.105   1.498   7.620  0.4565  0.0267 -0.0168
  904MOL0     C21914  -0.191   1.387   7.582 -0.0747 -0.3889 -0.1293
  904MOL0     C21915  -0.334   1.417   7.626 -0.4399 -0.5763 -0.2748
  904MOL0     C21916  -0.394   1.549   7.564 -0.7286  0.0239 -1.0513
  904MOL0     C21917  -0.368   1.579   7.412  0.4655 -0.0441 -0.4217
  904MOL0     C21918  -0.445   1.473   7.324 -0.1829 -0.7475  0.3244
  904MOL0     C21919  -0.589   1.418   7.355 -0.6958 -0.8888 -0.0040
  904MOL0     C21920  -0.689   1.530   7.366  0.3561 -0.4514  0.1709
  904MOL0     C21921  -0.831   1.480   7.352  0.1108 -0.3583  0.2091
  904MOL0     N21922  -0.918   1.596   7.337 -0.3474 -0.4611 -0.0553
  904MOL0     C21923  -1.024   1.599   7.248 -0.7203 -0.0213 -0.2433
  904MOL0     C21924  -1.107   1.701   7.290 -0.6545 -0.0448  0.5945
  904MOL0     C21925  -1.246   1.721   7.239  1.0247  0.0638 -0.2571
  904MOL0     C21926  -1.259   1.730   7.084 -0.2447 -0.2941  0.5100
  904MOL0     C21927  -1.296   1.590   7.014 -0.6465 -0.0557  0.1474
  904MOL0     C21928  -1.452   1.566   7.026 -0.0683  0.2627 -0.3963
  904MOL0     O21929  -1.515   1.679   6.976 -0.2635  0.5513  0.1742
  904MOL0     C21930  -1.636   1.701   7.036 -0.0089  0.2023  0.1080
  904MOL0     C21931  -1.658   1.828   7.090 -0.2123  0.3452  0.3928
  904MOL0     C21932  -1.784   1.872   7.131 -0.3892  0.9018 -0.0860
  904MOL0     C21933  -1.784   2.011   7.196 -0.4520  0.5830  0.3204
  904MOL0     C21934  -1.891   1.779   7.131  0.0675  0.1009 -0.0115
  904MOL0     C21935  -2.031   1.798   7.179 -0.0970  0.1495 -0.1513
  904MOL0     O21936  -2.081   1.917   7.208  0.5106  0.9427  0.8085
  904MOL0     C21937  -2.219   1.934   7.214  0.0688 -0.4869  0.6160
  904MOL0     C21938  -2.316   1.867   7.147  0.0660  0.0169  0.2137
  904MOL0     C21939  -2.449   1.896   7.151  0.9107  0.1900 -0.0938
  904MOL0     C21940  -2.499   1.993   7.238 -0.2448  0.1849  0.8011
  904MOL0     O21941  -2.631   2.019   7.238 -0.8234 -0.0028  0.8254
  904MOL0     C21942  -2.687   2.106   7.340 -0.3853 -0.5869  0.1895
  904MOL0     C21943  -2.842   2.099   7.342  0.1780 -0.4488  0.7721
  904MOL0     C21944  -2.900   2.195   7.447 -0.5412  0.0456 -0.0480
  904MOL0     C21945  -3.057   2.212   7.434 -0.0941 -0.5237  0.7507
  904MOL0     C21946  -3.127   2.252   7.573  0.9352 -0.3798 -1.2408
  904MOL0     C21947  -3.276   2.271   7.546 -0.1046 -0.1382  0.8995
  904MOL0     C21948  -3.366   2.284   7.669 -0.0700  0.0912 -0.0556
  904MOL0     C21949  -3.487   2.372   7.642 -0.1825  0.0510 -0.0278
  904MOL0    Cl21950  -3.574   2.360   7.797 -0.2498 -0.3580 -0.0160
  904MOL0     C21951  -2.405   2.079   7.289 -0.7692  0.6527  0.6901
  904MOL0     C21952  -2.270   2.047   7.286 -0.8038 -0.1493  0.5541
  904MOL0     O21953  -2.090   1.695   7.190  0.8719  0.0596 -0.1686
  904MOL0     C21954  -1.869   1.641   7.079  0.0391 -0.3708 -0.4460
  904MOL0     C21955  -1.742   1.609   7.037 -0.9187 -0.4093  0.0870
  904MOL0     N21956  -1.055   1.748   7.412  0.6009  0.1284  0.3836
  904MOL0     N21957  -0.940   1.686   7.432  0.0648  0.0180 -0.1306
  904MOL0     C21958   0.107   1.586   7.668 -0.1199 -0.6006 -0.1988
  904MOL0     C21959   0.241   1.578   7.693  0.4286 -0.4002  0.0648
  904MOL0     C21960   0.669   1.465   7.643  0.0061  0.3161 -0.5808
  904MOL0     C21961   0.715   1.361   7.722 -0.0561  0.2189 -0.0885
  904MOL0     C21962   0.853   1.331   7.716  0.0389 -0.1077  0.0440
  904MOL0     C21963   0.944   1.406   7.641  0.5554  0.2005 -0.1898
  904MOL0     O21964   1.078   1.376   7.664  0.4276  0.3189  0.4812
  904MOL0     C21965   1.179   1.478   7.637 -0.1726  0.0197  0.1433
  904MOL0     C21966   1.305   1.454   7.717 -0.1501  0.2559 -0.6380
  904MOL0     C21967   1.345   1.571   7.807  0.0953 -0.3184  0.0089
  904MOL0     C21968   1.428   1.540   7.936  0.4124 -0.5816 -0.2888
  904MOL0     C21969   1.568   1.502   7.905  1.6434 -0.2374 -0.8297
  904MOL0     C21970   1.682   1.470   7.880 -0.2304  0.6117 -0.3581
  904MOL0     C21971   0.899   1.514   7.564  0.0390 -0.7566 -0.3536
  904MOL0     C21972   0.761   1.537   7.561  0.1180 -0.6570 -0.4845
  904MOL0     H21973   0.289   1.243   7.673 -1.6887 -1.2420  1.3596
  904MOL0     H21974   0.049   1.235   7.644  1.0181 -1.5275  2.1911
  904MOL0     H21975  -0.191   1.370   7.474 -3.6303  0.4748 -0.3654
  904MOL0     H21976  -0.158   1.295   7.633  0.1929 -0.3291 -0.1932
  904MOL0     H21977  -0.393   1.333   7.588 -1.1447 -0.6762  0.9999
  904MOL0     H21978  -0.339   1.422   7.735 -0.4126 -2.7106 -0.1454
  904MOL0     H21979  -0.497   1.558   7.597  0.1258 -1.1762  2.3838
  904MOL0     H21980  -0.346   1.631   7.619  0.3251  0.3738 -2.4165
  904MOL0     H21981  -0.408   1.679   7.395 -0.7795 -0.3859  0.3584
  904MOL0     H21982  -0.263   1.590   7.383  0.7722  1.0804  1.0315
  904MOL0     H21983  -0.445   1.518   7.224  3.3142  0.7048  0.8357
  904MOL0     H21984  -0.383   1.385   7.303  1.4562  0.5825 -0.6893
  904MOL0     H21985  -0.618   1.349   7.275 -2.3278 -1.2219  0.8323
  904MOL0     H21986  -0.584   1.365   7.451  0.5295 -0.0367  0.4213
  904MOL0     H21987  -0.679   1.574   7.466 -0.1794  1.0250 -0.3984
  904MOL0     H21988  -0.661   1.610   7.297 -0.0147  1.6013  2.2483
  904MOL0     H21989  -0.852   1.421   7.441  0.6258  0.8635  1.1833
  904MOL0     H21990  -0.840   1.418   7.263 -4.0036  0.0349  0.1464
  904MOL0     H21991  -1.027   1.527   7.167  1.5817 -1.4957  0.8561
  904MOL0     H21992  -1.301   1.634   7.276  0.4050  0.9203  0.8997
  904MOL0     H21993  -1.279   1.818   7.276 -0.8217 -0.6425  0.0207
  904MOL0     H21994  -1.169   1.778   7.045 -0.1087  2.0288  3.4019
  904MOL0     H21995  -1.333   1.806   7.057 -0.6239  0.0365  2.3596
  904MOL0     H21996  -1.249   1.502   7.059 -2.1232 -0.2970  1.2985
  904MOL0     H21997  -1.268   1.591   6.909  0.0317 -2.1061  0.2624
  904MOL0     H21998  -1.472   1.545   7.132 -2.2797 -1.4225 -1.0626
  904MOL0     H21999  -1.477   1.472   6.976 -0.5636 -0.9667  1.9921
  904MOL0     H22000  -1.579   1.902   7.078  1.6963 -1.8171 -1.2961
  904MOL0     H22001  -1.745   2.009   7.298 -0.1775 -1.9935  0.2491
  904MOL0     H22002  -1.713   2.072   7.140  0.2353  0.5229  1.1065
  904MOL0     H22003  -1.881   2.061   7.189  0.0884  1.7446  0.9125
  904MOL0     H22004  -2.303   1.791   7.070 -0.1350 -0.9214  1.0930
  904MOL0     H22005  -2.525   1.839   7.098 -2.2151  4.3384 -0.6571
  904MOL0     H22006  -2.660   2.067   7.438 -0.7571 -0.8462  0.1911
  904MOL0     H22007  -2.658   2.211   7.332 -0.3745 -0.4640  1.6597
  904MOL0     H22008  -2.876   2.140   7.246  2.4406  2.8185  1.1734
  904MOL0     H22009  -2.890   2.004   7.366 -0.4904  0.3327  2.7531
  904MOL0     H22010  -2.864   2.298   7.436 -1.7627  0.3935 -0.9877
  904MOL0     H22011  -2.866   2.164   7.546  0.8765 -0.3546 -0.6400
  904MOL0     H22012  -3.065   2.291   7.358 -1.2317 -0.0484  1.3358
  904MOL0     H22013  -3.097   2.122   7.389  0.6626 -0.9862  0.9789
  904MOL0     H22014  -3.090   2.341   7.623 -1.2868 -0.1448  0.1115
  904MOL0     H22015  -3.114   2.168   7.642 -1.0504 -0.0290 -0.3936
  904MOL0     H22016  -3.296   2.354   7.477  0.5211  0.4580  1.4273
  904MOL0     H22017  -3.304   2.179   7.494 -1.4425  0.6321  0.2083
  904MOL0     H22018  -3.305   2.330   7.747 -0.3461  0.2506  0.0653
  904MOL0     H22019  -3.393   2.184   7.704  1.2764 -0.4080 -0.3808
  904MOL0     H22020  -3.538   2.324   7.558  0.6984 -4.1768  1.5727
  904MOL0     H22021  -3.456   2.475   7.622 -1.5082  0.7834  1.4649
  904MOL0     H22022  -2.445   2.165   7.342 -1.9384 -1.1883  3.0008
  904MOL0     H22023  -2.194   2.112   7.328 -0.6370  2.1136 -2.8138
  904MOL0     H22024  -1.946   1.566   7.089  2.0208 -2.2541  2.2616
  904MOL0     H22025  -1.720   1.511   6.996 -1.0073 -0.4296  0.0867
  904MOL0     H22026   0.052   1.676   7.692 -4.1317 -2.6638 -0.6827
  904MOL0     H22027   0.309   1.659   7.718  1.1139 -0.2931 -2.0140
  904MOL0     H22028   0.655   1.295   7.784 -3.1911  3.6974  0.9205
  904MOL0     H22029   0.884   1.248   7.779  3.7691  2.3501  1.8211
  904MOL0     H22030   1.217   1.465   7.535  1.9229  0.4693  0.8337
  904MOL0     H22031   1.146   1.582   7.649 -0.1500  0.2338 -1.4800
  904MOL0     H22032   1.394   1.426   7.659  0.6298 -1.2583  1.2124
  904MOL0     H22033   1.279   1.360   7.765  1.3589  0.1547  0.0409
  904MOL0     H22034   1.258   1.628   7.841 -0.0010 -0.2399 -0.3670
  904MOL0     H22035   1.408   1.640   7.751  3.1446 -2.0384  1.0884
  904MOL0     H22036   1.392   1.458   7.998 -1.2495  0.8623  0.7526
  904MOL0     H22037   1.435   1.633   7.993 -5.0721 -1.4150  2.3511
  904MOL0     H22038   1.780   1.437   7.851 -0.6190  0.3035 -1.3953
  904MOL0     H22039   0.963   1.596   7.533 -0.4056  0.0656  0.8469
  904MOL0     H22040   0.721   1.617   7.500  0.2172 -0.0664  0.2039
  905MOL0     O22041   8.491   5.879   1.502 -0.3355  0.0347  0.7667
  905MOL0     C22042   8.483   5.999   1.521 -0.0717 -0.2316  1.1312
  905MOL0     O22043   8.363   6.073   1.505 -0.3004 -0.2362  0.7489
  905MOL0     C22044   8.270   6.029   1.410 -0.1414 -0.8853 -0.4441
  905MOL0     C22045   8.302   5.965   1.286 -0.4540 -0.3571  0.1661
  905MOL0     C22046   8.197   5.928   1.201 -0.2160  0.8799 -0.3340
  905MOL0     C22047   8.066   5.974   1.227 -0.4483  0.2225 -0.4261
  905MOL0     O22048   7.974   5.940   1.132  0.0158 -0.4093  0.0048
  905MOL0     C22049   7.920   5.814   1.113 -0.3059 -0.4780 -0.0930
  905MOL0     C22050   7.775   5.808   1.158 -0.8587 -0.2595  0.9082
  905MOL0     C22051   7.694   5.892   1.059 -0.7805  0.0423 -0.2853
  905MOL0     C22052   7.548   5.868   1.101 -0.4333  0.2359  0.6918
  905MOL0     C22053   7.449   5.980   1.065  0.1133  0.2442  0.5734
  905MOL0     C22054   7.301   5.948   1.108  0.5515  0.4788 -0.0252
  905MOL0     C22055   7.289   5.956   1.269  0.6668 -0.8971 -0.1586
  905MOL0     C22056   7.147   5.922   1.326 -1.5036  0.0030 -0.0895
  905MOL0     N22057   7.031   5.989   1.264 -0.4077  0.5449  0.7022
  905MOL0     C22058   7.015   6.127   1.250 -0.2478 -0.1916 -0.1312
  905MOL0     C22059   6.895   6.140   1.190 -0.1760 -0.1320  0.2164
  905MOL0     C22060   6.834   6.270   1.151 -0.0563  0.4563  0.8282
  905MOL0     C22061   6.791   6.349   1.277 -0.4527 -0.1613 -0.2061
  905MOL0     C22062   6.677   6.289   1.360 -0.2946  0.0006 -0.3947
  905MOL0     C22063   6.530   6.322   1.311  0.0175 -0.3564 -0.3146
  905MOL0     O22064   6.438   6.287   1.413 -0.7790  0.0505 -0.4842
  905MOL0     C22065   6.303   6.267   1.376  0.0581 -0.4065 -0.2385
  905MOL0     C22066   6.260   6.231   1.242 -0.2729  0.0914 -0.0591
  905MOL0     C22067   6.133   6.188   1.216  0.1880 -0.6966  0.6543
  905MOL0     C22068   6.103   6.136   1.072 -0.2838  0.5461 -0.5461
  905MOL0     C22069   6.032   6.189   1.320  0.6944 -1.0239  0.6494
  905MOL0     C22070   5.895   6.187   1.287 -0.3925  0.1861  0.5148
  905MOL0     O22071   5.809   6.257   1.370  0.4052 -0.2658 -0.9973
  905MOL0     C22072   5.672   6.254   1.372  0.3230  0.2460 -0.3059
  905MOL0     C22073   5.616   6.268   1.503  0.1731 -0.3243 -0.0180
  905MOL0     C22074   5.479   6.294   1.514 -0.3932  0.5467  0.0794
  905MOL0     C22075   5.384   6.266   1.410  0.2571 -1.0383  0.3704
  905MOL0     O22076   5.247   6.260   1.435 -0.0897 -0.4098 -0.4555
  905MOL0     C22077   5.166   6.181   1.354  0.7821 -0.3472 -0.0373
  905MOL0     C22078   5.013   6.187   1.380 -1.4479  0.0212 -0.8620
  905MOL0     C22079   4.936   6.110   1.271  0.2577  0.4515 -0.3378
  905MOL0     C22080   4.789   6.105   1.306  0.3924 -0.6938 -0.1424
  905MOL0     C22081   4.718   6.001   1.217 -0.0199  0.6518 -0.4367
  905MOL0     C22082   4.571   5.991   1.253 -0.0997 -0.2282 -0.1059
  905MOL0     C22083   4.502   5.874   1.170 -0.2631 -0.0609 -0.2606
  905MOL0     C22084   4.360   5.859   1.221 -0.0593 -0.0718 -0.7084
  905MOL0    Cl22085   4.284   5.734   1.142 -0.1716  0.0087 -0.2057
  905MOL0     C22086   5.439   6.245   1.280 -0.3946  0.5584 -0.7096
  905MOL0     C22087   5.582   6.253   1.261  0.6904 -0.8941  0.1086
  905MOL0     O22088   5.853   6.113   1.199 -0.0983 -0.5009  0.3740
  905MOL0     C22089   6.072   6.221   1.445  0.4252 -0.4802  0.0500
  905MOL0     C22090   6.202   6.254   1.474 -0.6257  0.1889 -0.2687
  905MOL0     N22091   6.856   6.013   1.149  0.0845  0.3200 -0.6805
  905MOL0     N22092   6.933   5.927   1.198 -0.0011 -0.3932 -0.5809
  905MOL0     C22093   8.034   6.048   1.341 -0.8508  1.0786  0.9191
  905MOL0     C22094   8.143   6.079   1.427 -0.0778 -0.1967  0.0275
  905MOL0     C22095   8.593   6.065   1.583  0.4403 -0.0177  0.5383
  905MOL0     C22096   8.709   6.005   1.624  1.3690 -0.0167  0.8667
  905MOL0     C22097   8.821   6.079   1.674 -0.5354  0.9917 -0.1625
  905MOL0     C22098   8.812   6.217   1.675 -0.6121 -0.3871 -0.1622
  905MOL0     O22099   8.927   6.274   1.715 -0.1919  0.7748  0.3527
  905MOL0     C22100   8.947   6.418   1.694  0.2560  0.4865 -0.5202
  905MOL0     C22101   9.081   6.463   1.740 -0.4871 -0.0252  0.9464
  905MOL0     C22102   9.118   6.608   1.692  0.1964  0.1026  0.4579
  905MOL0     C22103   9.268   6.653   1.716 -0.5088 -0.0664  1.4880
  905MOL0     C22104   9.377   6.578   1.651 -0.4447  0.8553 -0.9355
  905MOL0     C22105   9.466   6.518   1.587  0.3522 -0.4830  0.0635
  905MOL0     C22106   8.694   6.287   1.650 -0.4487  0.3447  0.2560
  905MOL0     C22107   8.591   6.205   1.594  0.8523 -0.4768  0.1936
  905MOL0     H22108   8.405   5.939   1.265  0.3839  1.1928  1.9908
  905MOL0     H22109   8.221   5.871   1.112  2.9993 -0.6742  1.4017
  905MOL0     H22110   7.915   5.792   1.006  1.0784  1.4902 -0.6102
  905MOL0     H22111   7.981   5.733   1.156  1.6636  1.4943  1.0394
  905MOL0     H22112   7.749   5.703   1.143  1.6766 -0.8223 -0.2243
  905MOL0     H22113   7.754   5.829   1.263  1.0793  1.7040  0.9808
  905MOL0     H22114   7.716   5.999   1.064 -0.1785  0.0278 -2.0999
  905MOL0     H22115   7.710   5.855   0.957  4.0471  0.6559 -0.0045
  905MOL0     H22116   7.519   5.770   1.062 -0.1852  0.2798  0.3887
  905MOL0     H22117   7.545   5.853   1.210 -0.7646  0.6096  0.7347
  905MOL0     H22118   7.475   6.077   1.107  0.6858 -0.4727  1.9328
  905MOL0     H22119   7.454   5.999   0.957 -2.1635 -1.1726  0.1520
  905MOL0     H22120   7.240   6.033   1.074 -1.4385  1.9100  5.8605
  905MOL0     H22121   7.258   5.857   1.066  1.5322  0.1927 -0.4295
  905MOL0     H22122   7.360   5.884   1.312  0.9163 -1.2628 -1.1359
  905MOL0     H22123   7.322   6.055   1.301  0.8008 -1.5425  1.8281
  905MOL0     H22124   7.147   5.936   1.434  0.3477  2.3344 -0.3137
  905MOL0     H22125   7.138   5.813   1.317 -2.4034 -0.2057  2.4863
  905MOL0     H22126   7.085   6.205   1.281 -1.2434  0.2012  1.2107
  905MOL0     H22127   6.898   6.327   1.083 -0.9756  0.2973 -0.2074
  905MOL0     H22128   6.741   6.257   1.095  1.1731 -1.7271 -0.8760
  905MOL0     H22129   6.757   6.449   1.251 -1.4520 -0.5441 -0.4335
  905MOL0     H22130   6.881   6.366   1.337 -0.0763 -0.5094 -0.6610
  905MOL0     H22131   6.678   6.329   1.462  0.8357  0.1547 -0.4544
  905MOL0     H22132   6.694   6.184   1.384 -0.5657  0.3048  1.2811
  905MOL0     H22133   6.524   6.272   1.214 -0.9400 -0.9476  0.0336
  905MOL0     H22134   6.522   6.429   1.294 -0.4452  0.0035  1.8766
  905MOL0     H22135   6.334   6.217   1.164  0.8081 -0.1011  0.9681
  905MOL0     H22136   6.027   6.201   1.027 -3.0213 -1.3575  1.0194
  905MOL0     H22137   6.184   6.133   0.998  0.0094  0.2112 -0.2186
  905MOL0     H22138   6.071   6.031   1.079  0.5413  0.2931 -0.4424
  905MOL0     H22139   5.676   6.270   1.593  1.0926 -2.5731 -0.5353
  905MOL0     H22140   5.431   6.325   1.606  0.6944  1.3694  0.3874
  905MOL0     H22141   5.184   6.224   1.255  0.1105 -1.7840 -0.8132
  905MOL0     H22142   5.200   6.076   1.356  0.5915 -0.4189 -0.4816
  905MOL0     H22143   5.004   6.138   1.477 -1.2725 -0.1599 -0.9368
  905MOL0     H22144   4.982   6.292   1.388  1.5640  0.9506  0.0718
  905MOL0     H22145   4.971   6.007   1.261  0.4217  0.5240 -0.5054
  905MOL0     H22146   4.960   6.167   1.180  0.8353  0.0476 -0.4393
  905MOL0     H22147   4.768   6.080   1.410  0.5781 -0.7367 -0.1152
  905MOL0     H22148   4.743   6.203   1.295  0.9051 -0.3562  0.6939
  905MOL0     H22149   4.770   5.909   1.244  0.3454  0.7115 -0.9210
  905MOL0     H22150   4.725   6.027   1.111  0.7544 -1.7930 -1.0515
  905MOL0     H22151   4.563   5.965   1.359  0.8921  3.4660  1.0113
  905MOL0     H22152   4.510   6.079   1.230 -2.7325 -0.4400  4.7311
  905MOL0     H22153   4.546   5.774   1.165 -0.3764 -0.1011 -0.4704
  905MOL0     H22154   4.491   5.903   1.065  1.0115  1.0280 -0.1200
  905MOL0     H22155   4.308   5.955   1.205 -0.4666 -0.5378 -2.4122
  905MOL0     H22156   4.368   5.832   1.327 -0.6474  0.1603 -0.5986
  905MOL0     H22157   5.378   6.234   1.191 -2.9786 -0.0300  1.0057
  905MOL0     H22158   5.616   6.241   1.159  0.1064 -1.2826 -0.0464
  905MOL0     H22159   6.007   6.235   1.532  0.1385  1.0783 -0.3802
  905MOL0     H22160   6.228   6.251   1.579 -2.1502 -2.0635  0.0970
  905MOL0     H22161   7.935   6.067   1.382 -1.4546 -1.6362  0.8869
  905MOL0     H22162   8.118   6.143   1.511 -0.3081  2.3882 -1.8929
  905MOL0     H22163   8.701   5.897   1.630 -1.3428  0.0838  0.6707
  905MOL0     H22164   8.916   6.032   1.694 -0.4773  0.7232 -1.0335
  905MOL0     H22165   8.930   6.440   1.588 -1.4400 -0.2668 -0.4336
  905MOL0     H22166   8.871   6.476   1.747  1.0496  1.9928 -0.9779
  905MOL0     H22167   9.155   6.392   1.702  0.2935  0.8763  0.7319
  905MOL0     H22168   9.088   6.450   1.848  0.6398 -0.1447  0.8754
  905MOL0     H22169   9.056   6.682   1.743  1.5798  1.4046  0.3120
  905MOL0     H22170   9.103   6.619   1.585  2.7178  3.5052  0.2793
  905MOL0     H22171   9.299   6.656   1.821  3.9086 -2.3683  0.4993
  905MOL0     H22172   9.272   6.758   1.687  1.8072  0.0935  2.2092
  905MOL0     H22173   9.542   6.484   1.520  0.7066  1.3141 -0.5189
  905MOL0     H22174   8.689   6.395   1.652  1.3579  1.0187 -6.4063
  905MOL0     H22175   8.505   6.259   1.555  0.8346 -0.8679 -0.3072
  906MOL0     O22176   4.330   0.644   0.418  0.1857 -0.0180  0.0441
  906MOL0     C22177   4.416   0.598   0.345  0.4393 -0.5383 -0.2282
  906MOL0     O22178   4.390   0.526   0.236 -0.2238 -0.1181  0.2233
  906MOL0     C22179   4.262   0.488   0.209  0.1473 -0.4324  0.3285
  906MOL0     C22180   4.186   0.537   0.103 -0.2256  0.3606  1.3974
  906MOL0     C22181   4.062   0.492   0.059 -0.1575  0.3164 -0.4302
  906MOL0     C22182   4.007   0.386   0.139 -0.7463 -0.2456 -0.5281
  906MOL0     O22183   3.873   0.342   0.126  0.1896 -0.6623 -0.0255
  906MOL0     C22184   3.805   0.365  -0.003 -0.4646  0.0660  0.4940
  906MOL0     C22185   3.679   0.273   0.002  0.0592 -0.0288  0.0867
  906MOL0     C22186   3.608   0.267  -0.135 -0.2993 -0.3707 -0.0200
  906MOL0     C22187   3.455   0.217  -0.129  0.7593  0.1814  0.1024
  906MOL0     C22188   3.382   0.217  -0.270 -0.4598 -0.6036  0.0977
  906MOL0     C22189   3.234   0.169  -0.268 -0.2926 -0.2257 -0.1095
  906MOL0     C22190   3.148   0.271  -0.190  0.0304 -1.2179 -0.3271
  906MOL0     C22191   3.007   0.227  -0.191  0.3793 -0.9408  0.5519
  906MOL0     N22192   2.933   0.309  -0.094 -1.3490 -0.3220 -0.3678
  906MOL0     C22193   2.904   0.265   0.029 -0.2758 -0.1538 -0.0541
  906MOL0     C22194   2.831   0.364   0.089 -0.1313  0.2186  0.5521
  906MOL0     C22195   2.758   0.352   0.224 -0.0587  0.2026  0.2533
  906MOL0     C22196   2.611   0.366   0.208 -0.7178  0.4279 -0.5987
  906MOL0     C22197   2.523   0.328   0.335  0.3940 -0.1121  0.2309
  906MOL0     C22198   2.511   0.445   0.433 -0.4557 -0.1511 -0.0151
  906MOL0     O22199   2.418   0.398   0.536  0.4127  0.1051  0.4199
  906MOL0     C22200   2.283   0.394   0.500 -1.5557 -0.1947 -0.6894
  906MOL0     C22201   2.211   0.486   0.432  0.3037 -0.0219 -0.3182
  906MOL0     C22202   2.078   0.464   0.386  0.3597  0.2349  0.4834
  906MOL0     C22203   2.006   0.588   0.328  0.3238  1.1859  0.7304
  906MOL0     C22204   2.016   0.335   0.403 -0.2784 -0.6643  0.3211
  906MOL0     C22205   1.883   0.302   0.363  0.0500  0.3670 -0.1190
  906MOL0     O22206   1.818   0.218   0.450 -0.0075 -0.4313 -0.1013
  906MOL0     C22207   1.705   0.157   0.402 -0.6972  0.5885 -0.4305
  906MOL0     C22208   1.713   0.074   0.285  0.0680  0.1641 -0.7492
  906MOL0     C22209   1.596   0.004   0.250 -0.2298 -0.9330 -0.2619
  906MOL0     C22210   1.475   0.012   0.326 -0.0737 -0.3094  0.1510
  906MOL0     O22211   1.368  -0.066   0.303  0.1187 -0.3647 -0.2884
  906MOL0     C22212   1.368  -0.162   0.192  0.1918 -0.6252 -0.1290
  906MOL0     C22213   1.233  -0.236   0.184  0.6926  0.4229  0.5406
  906MOL0     C22214   1.212  -0.350   0.289  0.6355  0.1061  0.5947
  906MOL0     C22215   1.112  -0.458   0.235  0.4899 -0.0849 -0.4146
  906MOL0     C22216   0.961  -0.433   0.261  0.1830  0.5715 -0.3725
  906MOL0     C22217   0.875  -0.538   0.184 -0.6594  0.7285  0.0213
  906MOL0     C22218   0.727  -0.513   0.221 -0.1693  0.2434 -0.0482
  906MOL0     C22219   0.629  -0.584   0.122  0.1151 -0.1112 -0.3288
  906MOL0    Cl22220   0.450  -0.526   0.144  0.0215  0.1534  0.0323
  906MOL0     C22221   1.480   0.085   0.441  0.2735 -0.1072  0.8289
  906MOL0     C22222   1.594   0.153   0.483 -0.7054 -0.4500 -0.2605
  906MOL0     O22223   1.824   0.363   0.268  0.2792  0.0384 -0.9959
  906MOL0     C22224   2.096   0.238   0.463 -0.4403  0.6289  0.3927
  906MOL0     C22225   2.226   0.270   0.511 -0.5256  0.5355  0.9490
  906MOL0     N22226   2.816   0.464  -0.003 -0.3866  0.1698  0.0506
  906MOL0     N22227   2.864   0.426  -0.114  0.1628  0.4821  0.5869
  906MOL0     C22228   4.083   0.335   0.241 -0.0858  0.8030 -0.3792
  906MOL0     C22229   4.206   0.380   0.281 -0.2988  0.7240  0.2124
  906MOL0     C22230   4.552   0.630   0.376 -1.0431 -0.1747 -0.5471
  906MOL0     C22231   4.590   0.721   0.478  0.3266  0.3224  0.3918
  906MOL0     C22232   4.722   0.748   0.489  0.0720 -0.1508 -0.3852
  906MOL0     C22233   4.822   0.708   0.403 -0.2669 -0.6597  0.2236
  906MOL0     O22234   4.943   0.771   0.413 -1.1474 -0.7361  0.4657
  906MOL0     C22235   5.052   0.686   0.458 -0.2700  0.3062  0.0267
  906MOL0     C22236   5.075   0.687   0.607  0.0787  0.1334  0.4604
  906MOL0     C22237   5.125   0.827   0.660  0.2218  0.6155 -0.2589
  906MOL0     C22238   5.270   0.873   0.626  0.5029  0.2241  0.2818
  906MOL0     C22239   5.374   0.775   0.631  0.6575  0.3622 -0.6249
  906MOL0     C22240   5.469   0.699   0.630  0.4490  0.3904  0.5449
  906MOL0     C22241   4.791   0.610   0.307  0.4812 -0.3401  0.6830
  906MOL0     C22242   4.660   0.570   0.292 -0.1249  0.3705  0.4366
  906MOL0     H22243   4.237   0.599   0.030  1.1082 -4.3421 -2.1512
  906MOL0     H22244   4.014   0.537  -0.027 -0.8808 -0.0255 -0.2069
  906MOL0     H22245   3.774   0.470  -0.010 -0.3257  0.1929  1.6856
  906MOL0     H22246   3.866   0.333  -0.088 -0.4610 -0.3802  0.6635
  906MOL0     H22247   3.698   0.174   0.046 -0.6321  0.3685  1.3268
  906MOL0     H22248   3.613   0.324   0.073  0.3613 -0.4146  0.6571
  906MOL0     H22249   3.594   0.365  -0.183 -1.9332 -0.0618  1.0063
  906MOL0     H22250   3.665   0.198  -0.198 -1.6879 -0.1988 -1.5460
  906MOL0     H22251   3.462   0.110  -0.105  0.2608  0.0174 -0.4599
  906MOL0     H22252   3.400   0.275  -0.055  0.6890 -1.5953  1.4990
  906MOL0     H22253   3.382   0.325  -0.290 -1.2778 -0.8220 -1.1893
  906MOL0     H22254   3.446   0.163  -0.339  0.3364  1.7495 -1.0956
  906MOL0     H22255   3.193   0.149  -0.367 -0.6273 -1.5304  0.2739
  906MOL0     H22256   3.224   0.075  -0.213 -0.0004  0.7592  1.7155
  906MOL0     H22257   3.182   0.272  -0.086 -1.1388  2.7427  0.1993
  906MOL0     H22258   3.166   0.372  -0.229 -0.8186 -0.2259  1.6768
  906MOL0     H22259   2.994   0.120  -0.171  0.2999 -0.8465  0.9961
  906MOL0     H22260   2.977   0.245  -0.295 -0.2157 -3.4607  0.2061
  906MOL0     H22261   2.937   0.173   0.076  3.1958  0.5969 -0.7204
  906MOL0     H22262   2.788   0.252   0.258 -0.6603  0.0995  0.4921
  906MOL0     H22263   2.790   0.425   0.299  1.9852 -1.9073  1.6001
  906MOL0     H22264   2.584   0.294   0.130  0.8163  1.9810 -2.6905
  906MOL0     H22265   2.587   0.463   0.162  2.0696  0.4947 -2.1533
  906MOL0     H22266   2.568   0.240   0.383  0.1533  0.3742  1.3759
  906MOL0     H22267   2.422   0.304   0.301 -0.6740  2.3449  1.3863
  906MOL0     H22268   2.466   0.536   0.391 -2.5037 -0.5046  1.2616
  906MOL0     H22269   2.609   0.474   0.471 -1.3613  2.8820  0.2668
  906MOL0     H22270   2.256   0.575   0.390 -0.3479 -0.9255 -3.1569
  906MOL0     H22271   2.033   0.678   0.382  0.4714  0.1600  2.4469
  906MOL0     H22272   2.045   0.604   0.227  4.8682 -0.8029  1.8941
  906MOL0     H22273   1.898   0.571   0.327  0.5152 -0.6042 -2.1124
  906MOL0     H22274   1.801   0.092   0.224 -0.2020  2.3071 -0.5793
  906MOL0     H22275   1.607  -0.046   0.154  1.8530 -2.2664  0.5929
  906MOL0     H22276   1.378  -0.102   0.102  1.4377  0.2795  0.5882
  906MOL0     H22277   1.450  -0.233   0.189  1.5157  0.5692  3.0092
  906MOL0     H22278   1.147  -0.168   0.186  1.1332  1.1016 -1.2254
  906MOL0     H22279   1.228  -0.281   0.084  0.2038  0.7806  0.3997
  906MOL0     H22280   1.181  -0.317   0.389  0.5445  0.6206  0.4010
  906MOL0     H22281   1.308  -0.402   0.286  0.3598 -0.6109  2.7248
  906MOL0     H22282   1.136  -0.468   0.129 -0.0048  0.6517 -0.6018
  906MOL0     H22283   1.128  -0.557   0.280 -2.7038 -1.2157 -1.4816
  906MOL0     H22284   0.932  -0.332   0.232 -1.4444  1.5051  3.8817
  906MOL0     H22285   0.944  -0.440   0.369 -1.4730  1.4508 -0.5511
  906MOL0     H22286   0.879  -0.536   0.074 -5.4562  0.0614 -0.3735
  906MOL0     H22287   0.904  -0.636   0.221  1.7784  1.7501  1.0162
  906MOL0     H22288   0.706  -0.406   0.213 -1.6030 -0.0712 -0.9106
  906MOL0     H22289   0.702  -0.539   0.324  0.8780 -2.5083 -0.4234
  906MOL0     H22290   0.633  -0.691   0.141  3.1305  0.1933  1.3934
  906MOL0     H22291   0.662  -0.565   0.019 -1.5718 -0.6929 -1.0187
  906MOL0     H22292   1.392   0.082   0.504 -0.1588 -0.5918  0.2090
  906MOL0     H22293   1.594   0.192   0.584  1.6869  3.2956 -1.4935
  906MOL0     H22294   2.057   0.138   0.478  0.2040  0.4587  0.9791
  906MOL0     H22295   2.286   0.188   0.547  0.6623  0.4114 -1.1462
  906MOL0     H22296   4.048   0.242   0.286 -0.4425  0.8770 -0.4966
  906MOL0     H22297   4.273   0.322   0.344  0.8835 -2.5989 -3.7060
  906MOL0     H22298   4.518   0.765   0.546  2.5116  1.9802  1.7727
  906MOL0     H22299   4.748   0.808   0.576  0.2362  0.8800 -1.1303
  906MOL0     H22300   5.028   0.582   0.435  0.5199  0.7262 -3.1121
  906MOL0     H22301   5.145   0.716   0.408 -0.2226 -2.1333 -1.5364
  906MOL0     H22302   5.149   0.609   0.630 -1.1137 -0.5295  2.3719
  906MOL0     H22303   4.985   0.651   0.659  2.6149 -1.8763  3.8823
  906MOL0     H22304   5.126   0.822   0.769  2.9282 -2.2537 -0.2783
  906MOL0     H22305   5.056   0.906   0.629  0.4853  1.2222  0.6738
  906MOL0     H22306   5.290   0.957   0.693 -0.4375 -0.3079  1.2647
  906MOL0     H22307   5.260   0.908   0.523 -4.2254  0.4134  0.5848
  906MOL0     H22308   5.533   0.614   0.632  0.3064  0.2576 -0.1689
  906MOL0     H22309   4.858   0.574   0.230  1.1307  0.3659  0.9043
  906MOL0     H22310   4.618   0.517   0.208 -4.0152  2.7885  0.5791
  907MOL0     O22311  10.241   9.530   5.735 -0.1509  0.1423  0.0310
  907MOL0     C22312  10.279   9.436   5.803 -0.0424 -0.4024 -0.2846
  907MOL0     O22313  10.217   9.309   5.804 -0.5793 -0.1783  1.1087
  907MOL0     C22314  10.100   9.291   5.732  0.2232  0.7726  0.6038
  907MOL0     C22315  10.114   9.247   5.598  0.5275  0.1912  0.7270
  907MOL0     C22316  10.009   9.222   5.512  0.5344 -0.5470  0.1393
  907MOL0     C22317   9.881   9.235   5.567 -0.6169 -0.5822  0.8047
  907MOL0     O22318   9.777   9.194   5.487 -0.0362 -0.6393 -0.7427
  907MOL0     C22319   9.644   9.212   5.539 -0.1447 -0.2395  0.1848
  907MOL0     C22320   9.550   9.168   5.426 -0.6731 -0.0672  0.3617
  907MOL0     C22321   9.408   9.142   5.486 -0.0544  0.2813 -0.4076
  907MOL0     C22322   9.309   9.125   5.379 -0.4838  0.1792  0.0887
  907MOL0     C22323   9.174   9.057   5.414  1.0241 -0.0108 -0.4102
  907MOL0     C22324   9.064   9.134   5.482 -0.2537  0.9168 -0.5509
  907MOL0     C22325   8.957   9.055   5.561 -1.1180  0.1851 -0.5068
  907MOL0     C22326   8.892   8.942   5.476  0.3818 -0.5510  0.3282
  907MOL0     N22327   8.800   8.876   5.565 -0.7134  1.0410 -0.4321
  907MOL0     C22328   8.836   8.773   5.652 -0.2318 -0.0465  0.2268
  907MOL0     C22329   8.722   8.726   5.705 -0.2308 -0.9871  0.7344
  907MOL0     C22330   8.701   8.636   5.820 -0.3831 -0.6202 -0.2830
  907MOL0     C22331   8.605   8.688   5.921  0.0887  0.5514  0.3872
  907MOL0     C22332   8.654   8.820   5.983  0.0520 -0.1400 -0.0637
  907MOL0     C22333   8.580   8.848   6.121  0.4093  0.4118 -0.0925
  907MOL0     O22334   8.455   8.889   6.091  0.8112  0.7106  0.3040
  907MOL0     C22335   8.350   8.849   6.178 -0.0628 -0.3820  0.0911
  907MOL0     C22336   8.319   8.930   6.283 -0.0260  0.6191 -0.4564
  907MOL0     C22337   8.219   8.888   6.376  0.0770 -1.0125 -0.5288
  907MOL0     C22338   8.176   8.993   6.482 -0.6794  0.1066 -0.2090
  907MOL0     C22339   8.170   8.757   6.374  0.5421  0.4299  0.4404
  907MOL0     C22340   8.073   8.695   6.475 -0.1965 -0.8527  0.0095
  907MOL0     O22341   7.983   8.621   6.415 -0.3804 -0.7352 -0.0463
  907MOL0     C22342   7.873   8.562   6.474 -0.6759 -0.3553  0.5803
  907MOL0     C22343   7.774   8.506   6.392  0.6715 -0.0339  0.1487
  907MOL0     C22344   7.667   8.430   6.435 -0.4451  0.6009 -0.3071
  907MOL0     C22345   7.642   8.423   6.573 -0.4417  0.1510  0.3550
  907MOL0     O22346   7.538   8.339   6.622  0.2113  0.0352  0.2866
  907MOL0     C22347   7.413   8.410   6.613 -0.2818  1.1699 -0.9607
  907MOL0     C22348   7.296   8.316   6.664 -0.3010  0.0262 -0.4097
  907MOL0     C22349   7.285   8.170   6.621  0.4072  0.0160  0.0040
  907MOL0     C22350   7.366   8.082   6.717 -0.8986 -0.2795 -0.0522
  907MOL0     C22351   7.411   7.957   6.650  0.0134 -0.0331 -0.7016
  907MOL0     C22352   7.500   7.870   6.736  0.1223  0.3145 -0.3831
  907MOL0     C22353   7.559   7.761   6.641 -0.0536  0.4356 -0.2355
  907MOL0     C22354   7.672   7.662   6.683  0.7941  0.0157 -0.1089
  907MOL0    Cl22355   7.566   7.544   6.781 -0.0667  0.0820  0.0439
  907MOL0     C22356   7.725   8.488   6.663  0.0343 -0.0401  0.2904
  907MOL0     C22357   7.846   8.550   6.617  0.1818 -0.1075  0.3981
  907MOL0     O22358   8.080   8.719   6.598  0.3593  0.7058  0.3037
  907MOL0     C22359   8.211   8.675   6.269 -0.1101 -0.4169 -0.6622
  907MOL0     C22360   8.295   8.722   6.173 -0.3485  0.1765 -0.5557
  907MOL0     N22361   8.619   8.778   5.632  0.9206  0.4139  0.8276
  907MOL0     N22362   8.663   8.860   5.547  0.3135  0.7331  0.0253
  907MOL0     C22363   9.864   9.280   5.705 -0.0974 -0.6861 -0.5101
  907MOL0     C22364   9.970   9.314   5.783  0.4290  0.2959 -0.3078
  907MOL0     C22365  10.405   9.460   5.884  0.1493 -0.6273  0.4117
  907MOL0     C22366  10.513   9.533   5.836  0.2535  0.5449  0.1264
  907MOL0     C22367  10.627   9.545   5.910 -0.2431  0.0696 -0.3946
  907MOL0     C22368  10.632   9.490   6.036 -0.5091  0.7575  0.3450
  907MOL0     O22369  10.754   9.500   6.092  0.5391  0.6434  0.2548
  907MOL0     C22370  10.787   9.426   6.209 -0.2395  0.1697  0.2624
  907MOL0     C22371  10.935   9.406   6.233  0.7874  0.0681 -0.1254
  907MOL0     C22372  11.010   9.383   6.104 -0.1570 -0.5156  0.7351
  907MOL0     C22373  10.947   9.280   5.998 -0.2248  0.4154 -0.3713
  907MOL0     C22374  11.011   9.281   5.865 -0.9695 -0.8522  0.9749
  907MOL0     C22375  11.066   9.263   5.757 -0.3716  0.3933  0.0631
  907MOL0     C22376  10.521   9.415   6.087 -0.3282 -0.4900 -0.2085
  907MOL0     C22377  10.416   9.397   6.002  0.0660  0.7148 -0.4430
  907MOL0     H22378  10.214   9.232   5.558  0.2759  0.3440  0.0276
  907MOL0     H22379  10.029   9.179   5.415 -1.0359 -1.7736  0.3138
  907MOL0     H22380   9.628   9.148   5.626  0.9333  1.3684  1.6402
  907MOL0     H22381   9.628   9.317   5.562 -2.6239 -0.7750  1.2259
  907MOL0     H22382   9.557   9.238   5.343  0.9770  1.4669  1.7002
  907MOL0     H22383   9.584   9.076   5.379  1.3347  2.3057 -3.3240
  907MOL0     H22384   9.423   9.054   5.549  0.9805 -0.0156 -1.0439
  907MOL0     H22385   9.369   9.218   5.555 -0.4831  0.3488 -0.7256
  907MOL0     H22386   9.285   9.220   5.329 -0.6068 -1.4194 -3.1650
  907MOL0     H22387   9.358   9.066   5.301  1.8053 -0.3234  1.7914
  907MOL0     H22388   9.127   9.039   5.317  0.7892 -0.4505 -0.2177
  907MOL0     H22389   9.201   8.959   5.456  0.6319 -0.2247 -0.6544
  907MOL0     H22390   9.123   9.205   5.541  2.4535  0.1213 -2.1353
  907MOL0     H22391   9.008   9.200   5.416  0.3352  1.0125 -0.9619
  907MOL0     H22392   9.004   9.018   5.653  3.9248  0.0578 -2.8258
  907MOL0     H22393   8.875   9.119   5.595  0.4328  1.6634  0.6512
  907MOL0     H22394   8.972   8.882   5.431  2.5874  0.5888  2.5165
  907MOL0     H22395   8.849   8.997   5.392  1.9552  0.4059  0.1023
  907MOL0     H22396   8.942   8.753   5.667 -0.3366 -2.7722 -2.0847
  907MOL0     H22397   8.685   8.534   5.783  1.3806 -1.6860  1.6848
  907MOL0     H22398   8.793   8.617   5.876 -0.2919 -2.5793 -1.0265
  907MOL0     H22399   8.595   8.607   5.994  3.6154 -0.3463  0.0677
  907MOL0     H22400   8.503   8.693   5.883  0.2717  0.8869 -0.0726
  907MOL0     H22401   8.648   8.906   5.916 -0.2071 -1.6149 -1.9838
  907MOL0     H22402   8.758   8.808   6.015 -0.0153 -1.6168 -0.3263
  907MOL0     H22403   8.634   8.924   6.178 -0.2348  1.0102 -0.2649
  907MOL0     H22404   8.585   8.754   6.177  1.1089  0.4723 -0.0458
  907MOL0     H22405   8.360   9.031   6.279 -0.2499  0.8235  1.5416
  907MOL0     H22406   8.081   9.035   6.446 -0.1222 -2.1334 -5.0156
  907MOL0     H22407   8.176   8.946   6.581 -0.4028 -0.8890 -0.6694
  907MOL0     H22408   8.252   9.070   6.499 -2.3742  1.3850  2.1005
  907MOL0     H22409   7.786   8.506   6.285  3.1476  1.8486  0.3337
  907MOL0     H22410   7.611   8.381   6.355 -1.0144 -0.0092  0.4468
  907MOL0     H22411   7.414   8.502   6.672  0.4855 -0.2056  1.3380
  907MOL0     H22412   7.397   8.430   6.507  2.2710 -1.4931 -1.9849
  907MOL0     H22413   7.294   8.324   6.773  2.5183  0.3787 -0.3180
  907MOL0     H22414   7.196   8.358   6.645  0.6424  2.3714 -0.5616
  907MOL0     H22415   7.310   8.158   6.515 -0.9334  0.2302 -0.3566
  907MOL0     H22416   7.179   8.142   6.620 -0.5974  3.3543 -0.4142
  907MOL0     H22417   7.449   8.139   6.759 -1.2367  0.7057 -0.7027
  907MOL0     H22418   7.306   8.042   6.800  1.8845  0.0876  2.2717
  907MOL0     H22419   7.458   7.981   6.554 -0.1927  0.4977 -0.6752
  907MOL0     H22420   7.323   7.895   6.629  0.8462 -1.4210 -0.2136
  907MOL0     H22421   7.578   7.936   6.774  0.4365  0.5861 -1.4640
  907MOL0     H22422   7.439   7.837   6.821 -0.7995  5.0488  1.0950
  907MOL0     H22423   7.597   7.807   6.549 -0.0225  2.3017  0.6660
  907MOL0     H22424   7.479   7.690   6.616 -0.5229  1.6044 -2.3093
  907MOL0     H22425   7.755   7.705   6.741  0.6037 -0.4526  0.5124
  907MOL0     H22426   7.705   7.611   6.592  2.1988  2.8224 -1.3038
  907MOL0     H22427   7.688   8.485   6.765  0.3884  3.4117  0.6308
  907MOL0     H22428   7.916   8.576   6.696  2.6942  1.2082 -2.0684
  907MOL0     H22429   8.174   8.573   6.264  3.0708 -1.6478 -0.8094
  907MOL0     H22430   8.333   8.663   6.090  2.1794  0.8203  0.0572
  907MOL0     H22431   9.762   9.296   5.738  0.1554  0.6205 -0.3336
  907MOL0     H22432   9.964   9.352   5.884 -0.6388 -0.9431  0.1187
  907MOL0     H22433  10.517   9.594   5.746  0.8162  0.0064 -0.2268
  907MOL0     H22434  10.715   9.585   5.860  0.4192  1.4228  1.7215
  907MOL0     H22435  10.750   9.476   6.299 -3.9786  0.4431 -1.2478
  907MOL0     H22436  10.752   9.322   6.204 -0.1795  0.1757 -0.3189
  907MOL0     H22437  10.951   9.332   6.312  0.2655  0.2491  0.1527
  907MOL0     H22438  10.972   9.500   6.276 -0.3799  0.3547  0.2728
  907MOL0     H22439  11.111   9.349   6.128  0.5078  1.7266  1.3548
  907MOL0     H22440  11.011   9.476   6.046  2.3742 -1.1990 -0.4545
  907MOL0     H22441  10.840   9.301   5.987  0.0032  2.4224  0.7615
  907MOL0     H22442  10.948   9.182   6.046 -1.9005  0.1579 -0.7879
  907MOL0     H22443  11.105   9.231   5.663  2.7398  0.1098  1.3175
  907MOL0     H22444  10.531   9.366   6.184  1.2368 -1.1910 -0.6902
  907MOL0     H22445  10.346   9.320   6.033  2.9605 -1.6119  0.8108
  908MOL0     O22446   7.272   1.860  10.783 -0.3047 -0.4129 -0.1426
  908MOL0     C22447   7.317   1.970  10.820  0.4396  0.1471  0.9153
  908MOL0     O22448   7.238   2.069  10.873  0.9012  0.0597  0.7839
  908MOL0     C22449   7.100   2.049  10.887 -0.9378  0.0914 -0.6429
  908MOL0     C22450   7.036   2.035  11.017  0.2320  0.1142 -0.2647
  908MOL0     C22451   6.901   2.013  11.029 -0.8446  0.6677 -0.3492
  908MOL0     C22452   6.821   2.015  10.913 -0.1745 -0.7951  0.0403
  908MOL0     O22453   6.693   1.990  10.905 -0.0803 -0.3027  0.2735
  908MOL0     C22454   6.612   2.019  11.018 -0.2219 -0.3440  0.1850
  908MOL0     C22455   6.464   2.025  10.967  0.4187 -0.3858  0.0576
  908MOL0     C22456   6.449   2.144  10.873  0.4825 -0.6861 -0.9220
  908MOL0     C22457   6.297   2.168  10.836 -0.0392 -0.1484 -0.2144
  908MOL0     C22458   6.284   2.281  10.726 -0.1980 -0.1632 -1.1315
  908MOL0     C22459   6.320   2.419  10.792  0.4450 -0.0973  0.8048
  908MOL0     C22460   6.275   2.535  10.695 -0.0521 -0.6050  0.0642
  908MOL0     C22461   6.283   2.673  10.747 -0.8440  0.5454  0.6111
  908MOL0     N22462   6.292   2.758  10.629 -0.7420 -0.4377 -0.2444
  908MOL0     C22463   6.199   2.770  10.526 -0.0796  0.0974  0.1353
  908MOL0     C22464   6.222   2.880  10.457  0.2265 -0.1032  0.3252
  908MOL0     C22465   6.139   2.944  10.343 -0.2048 -0.5931 -0.2713
  908MOL0     C22466   6.165   2.883  10.205  0.2783  0.8495  0.5405
  908MOL0     C22467   6.058   2.919  10.091  0.0337  0.0776 -0.1737
  908MOL0     C22468   6.114   2.889   9.948  0.5709  0.4351 -1.0667
  908MOL0     O22469   6.017   2.941   9.851  0.0705  0.4868 -0.8476
  908MOL0     C22470   5.888   2.884   9.849 -0.5239 -0.4022 -0.0652
  908MOL0     C22471   5.797   2.948   9.768  0.1493  0.1767  0.3847
  908MOL0     C22472   5.661   2.909   9.762 -0.2952 -0.2382  0.0267
  908MOL0     C22473   5.575   2.999   9.680  0.6890  0.7930 -0.6131
  908MOL0     C22474   5.605   2.796   9.834  0.3078  0.0604 -0.7241
  908MOL0     C22475   5.458   2.746   9.834 -1.2075  0.3076 -0.4675
  908MOL0     O22476   5.374   2.781   9.732  0.3761 -0.2462 -0.2423
  908MOL0     C22477   5.248   2.733   9.723  0.4202 -0.1796 -0.1368
  908MOL0     C22478   5.204   2.694   9.594 -0.9401  0.1984 -0.6462
  908MOL0     C22479   5.076   2.657   9.566 -0.2242  0.5082 -0.0013
  908MOL0     C22480   4.986   2.647   9.674 -0.7244  0.2690 -0.5313
  908MOL0     O22481   4.863   2.590   9.649 -0.0841 -0.0280  0.0544
  908MOL0     C22482   4.750   2.675   9.655  0.2745 -0.5490  0.2740
  908MOL0     C22483   4.617   2.606   9.625 -0.4830  0.5246 -0.5644
  908MOL0     C22484   4.495   2.694   9.651  0.3386 -0.2664  0.1072
  908MOL0     C22485   4.383   2.710   9.547 -0.4490  0.9119 -0.4048
  908MOL0     C22486   4.291   2.830   9.568 -0.7169 -0.5935  0.2261
  908MOL0     C22487   4.171   2.822   9.480 -0.6914  0.4184  0.0572
  908MOL0     C22488   4.068   2.926   9.510 -0.0624  0.5894 -0.1853
  908MOL0     C22489   3.927   2.878   9.468  0.7152 -0.2896  0.1457
  908MOL0    Cl22490   3.894   2.732   9.570  0.1060 -0.1175  0.3718
  908MOL0     C22491   5.029   2.683   9.804 -0.1791  0.7528 -0.1564
  908MOL0     C22492   5.155   2.735   9.826  0.6116 -0.4437  0.8413
  908MOL0     O22493   5.438   2.675   9.937 -0.0792 -0.6462 -0.9269
  908MOL0     C22494   5.704   2.735   9.914 -0.3065 -0.0653 -0.4627
  908MOL0     C22495   5.842   2.775   9.921 -0.2429 -0.2319  0.2154
  908MOL0     N22496   6.345   2.930  10.501 -0.3822  0.5799  0.2494
  908MOL0     N22497   6.390   2.856  10.598  0.1526  0.5639 -0.2142
  908MOL0     C22498   6.879   2.049  10.787  0.4309  0.3100  0.9813
  908MOL0     C22499   7.012   2.066  10.778 -0.7746 -0.2409 -0.0250
  908MOL0     C22500   7.460   1.988  10.812 -0.6484  0.0963  0.5985
  908MOL0     C22501   7.546   1.894  10.751  0.6499 -0.0731  0.0337
  908MOL0     C22502   7.686   1.918  10.765  0.8778  0.7422 -0.1846
  908MOL0     C22503   7.740   2.036  10.826 -0.4968  0.5026  0.3006
  908MOL0     O22504   7.869   2.075  10.833 -0.4548  0.4348  0.5329
  908MOL0     C22505   7.980   1.996  10.785 -0.1589  0.2116 -0.0503
  908MOL0     C22506   8.106   2.076  10.749  1.2963  0.1314  0.7173
  908MOL0     C22507   8.088   2.149  10.613 -0.2060  0.4052 -0.0135
  908MOL0     C22508   8.160   2.284  10.614  0.2533 -1.0196  0.3820
  908MOL0     C22509   8.136   2.355  10.488 -0.3843  0.2424 -0.4848
  908MOL0     C22510   8.115   2.428  10.391 -0.3204 -0.1491  0.2156
  908MOL0     C22511   7.652   2.121  10.884  0.0872 -0.3405 -0.8775
  908MOL0     C22512   7.520   2.101  10.877 -1.0799 -0.3865 -0.2921
  908MOL0     H22513   7.100   2.028  11.105 -1.1343 -2.2116  0.6542
  908MOL0     H22514   6.871   1.988  11.130 -0.0025 -1.8169 -0.6376
  908MOL0     H22515   6.620   1.936  11.090 -1.0989 -0.7635 -0.1823
  908MOL0     H22516   6.626   2.116  11.067  0.5232 -0.2145 -0.2774
  908MOL0     H22517   6.417   1.938  10.922 -2.1845  1.1437 -0.3846
  908MOL0     H22518   6.396   2.049  11.049 -2.9681 -0.0559 -2.6203
  908MOL0     H22519   6.484   2.232  10.928 -2.7918  0.9949 -1.2848
  908MOL0     H22520   6.507   2.114  10.785  0.0632 -5.3536  0.1196
  908MOL0     H22521   6.259   2.073  10.800  1.9115 -1.7783  1.7217
  908MOL0     H22522   6.230   2.188  10.921 -1.8167 -4.4920 -0.3463
  908MOL0     H22523   6.359   2.273  10.647  1.6935 -0.1099  0.5887
  908MOL0     H22524   6.187   2.288  10.675 -0.0198 -0.2163 -1.4797
  908MOL0     H22525   6.255   2.426  10.880 -1.9913 -1.0759 -0.8095
  908MOL0     H22526   6.425   2.418  10.824 -0.0233  0.6007  2.4930
  908MOL0     H22527   6.335   2.526  10.604  2.7004  1.8451  1.4487
  908MOL0     H22528   6.170   2.519  10.670 -0.5486  1.0463  0.9164
  908MOL0     H22529   6.370   2.688  10.812 -1.2510  0.8704  1.0950
  908MOL0     H22530   6.194   2.693  10.808 -1.3144 -3.1295  1.3631
  908MOL0     H22531   6.109   2.713  10.512 -0.4177  0.7975 -0.5979
  908MOL0     H22532   6.034   2.951  10.374  0.1518  3.4941  0.7014
  908MOL0     H22533   6.175   3.048  10.350 -2.7464  0.3304  0.0718
  908MOL0     H22534   6.166   2.774  10.212 -1.8671  0.9072  3.3508
  908MOL0     H22535   6.269   2.908  10.179  0.1207  1.5486  0.5565
  908MOL0     H22536   6.039   3.026  10.102 -2.9967 -0.4266  0.3985
  908MOL0     H22537   5.957   2.880  10.107  0.0273  0.1672  0.0056
  908MOL0     H22538   6.138   2.785   9.924 -4.1968 -1.2353  0.4623
  908MOL0     H22539   6.208   2.945   9.943 -1.3819  4.2985  0.9996
  908MOL0     H22540   5.826   3.031   9.705  1.6422 -0.0029  0.7951
  908MOL0     H22541   5.607   3.101   9.659  0.3173  0.9049 -0.6285
  908MOL0     H22542   5.567   2.947   9.584 -0.3578  1.3891 -0.8627
  908MOL0     H22543   5.481   3.002   9.737 -1.3226 -0.3528 -3.6304
  908MOL0     H22544   5.284   2.700   9.521 -0.1663 -4.5823 -0.5036
  908MOL0     H22545   5.048   2.638   9.463  0.9805 -1.3636 -0.0256
  908MOL0     H22546   4.734   2.713   9.757 -4.8142 -4.4321  1.3026
  908MOL0     H22547   4.766   2.756   9.583  1.1472  0.3419  1.4038
  908MOL0     H22548   4.619   2.595   9.517 -2.5717 -0.2768 -0.5795
  908MOL0     H22549   4.607   2.514   9.683  0.7413  1.6316  1.5646
  908MOL0     H22550   4.546   2.790   9.646  1.9254 -1.0482  0.7620
  908MOL0     H22551   4.449   2.702   9.750 -0.9783  2.2083 -0.6131
  908MOL0     H22552   4.430   2.708   9.448 -2.9435 -2.7592 -1.7571
  908MOL0     H22553   4.322   2.619   9.545  0.2321  0.4603 -0.7394
  908MOL0     H22554   4.337   2.928   9.557 -3.3185  1.0687  2.8124
  908MOL0     H22555   4.249   2.840   9.669 -3.1009  0.9804 -0.8233
  908MOL0     H22556   4.198   2.830   9.374  0.6586  1.4853  0.4599
  908MOL0     H22557   4.124   2.724   9.497 -0.8649 -0.2078 -3.2356
  908MOL0     H22558   4.094   3.017   9.455 -0.6539  1.3972  0.8398
  908MOL0     H22559   4.056   2.946   9.617 -0.4557 -0.5510 -0.0098
  908MOL0     H22560   3.921   2.858   9.361 -2.9053  0.0893  0.1376
  908MOL0     H22561   3.855   2.948   9.512  0.8613 -1.7197  2.9117
  908MOL0     H22562   4.968   2.666   9.892 -0.0364  0.7774 -0.0527
  908MOL0     H22563   5.188   2.763   9.926 -1.3032 -1.4344  1.8121
  908MOL0     H22564   5.678   2.645   9.968  2.9914 -1.1491 -0.4134
  908MOL0     H22565   5.915   2.731   9.989  0.2467  1.2910  0.7321
  908MOL0     H22566   6.814   2.047  10.700  1.9192 -1.4135 -0.1668
  908MOL0     H22567   7.045   2.089  10.678 -0.7850  0.1460  0.0596
  908MOL0     H22568   7.513   1.803  10.701 -1.4420 -0.3080  1.7170
  908MOL0     H22569   7.743   1.835  10.725  0.9506  0.4505  0.5115
  908MOL0     H22570   8.003   1.927  10.866  0.6105  2.3590  1.6535
  908MOL0     H22571   7.957   1.931  10.700  0.8750  0.2808 -0.4002
  908MOL0     H22572   8.192   2.008  10.753  1.3740  0.2760  1.8948
  908MOL0     H22573   8.111   2.150  10.829 -1.8313 -0.7310  1.8481
  908MOL0     H22574   7.982   2.171  10.595  0.4769  3.4336 -0.9533
  908MOL0     H22575   8.123   2.095  10.524 -1.9462  0.8661 -1.0213
  908MOL0     H22576   8.267   2.269  10.629  0.6357 -2.5693 -2.7870
  908MOL0     H22577   8.131   2.343  10.701  2.4877 -1.3051  1.3966
  908MOL0     H22578   8.111   2.487  10.301  2.7196 -0.4816 -0.2244
  908MOL0     H22579   7.694   2.210  10.929  2.6348 -1.1004 -1.5355
  908MOL0     H22580   7.459   2.178  10.923 -1.7730 -0.7251 -0.6214
  909MOL0     O22581   7.075   6.450   9.267  0.3547 -0.4061  0.0914
  909MOL0     C22582   7.118   6.541   9.193  0.0478  0.2998 -0.9897
  909MOL0     O22583   7.245   6.555   9.153  0.5857  0.0545 -0.3101
  909MOL0     C22584   7.343   6.502   9.231  0.1917  0.3829 -0.4448
  909MOL0     C22585   7.445   6.585   9.282 -0.5263 -0.6608 -0.4347
  909MOL0     C22586   7.550   6.535   9.356  0.4063  1.1047  0.8478
  909MOL0     C22587   7.550   6.396   9.391  0.3338 -0.5728 -0.2351
  909MOL0     O22588   7.655   6.366   9.471 -0.6581 -0.1296 -0.4421
  909MOL0     C22589   7.744   6.274   9.400 -0.1336  0.6759 -0.1097
  909MOL0     C22590   7.839   6.317   9.289  0.0895  0.5805 -0.5166
  909MOL0     C22591   7.775   6.352   9.146  0.3217  0.2101  0.0780
  909MOL0     C22592   7.713   6.234   9.074  0.2434 -0.0487 -0.5514
  909MOL0     C22593   7.657   6.273   8.940 -0.3650 -0.0706 -0.2943
  909MOL0     C22594   7.544   6.382   8.937 -0.1793  0.0137 -1.3240
  909MOL0     C22595   7.509   6.431   8.798  0.2203  0.0884 -0.9389
  909MOL0     C22596   7.429   6.562   8.793  0.0981 -0.6336  0.5071
  909MOL0     N22597   7.324   6.540   8.691  0.5819 -0.9814 -0.2696
  909MOL0     C22598   7.204   6.479   8.704 -0.1662 -0.3345 -0.6021
  909MOL0     C22599   7.134   6.500   8.586 -0.7163 -0.5391 -0.0562
  909MOL0     C22600   6.998   6.453   8.568 -0.2073 -1.1054  0.8721
  909MOL0     C22601   6.889   6.571   8.554 -0.0329  0.7931 -0.0600
  909MOL0     C22602   6.761   6.533   8.478  0.5333  0.7545 -1.1948
  909MOL0     C22603   6.662   6.645   8.476  0.4218  0.0699  0.6532
  909MOL0     O22604   6.572   6.620   8.367 -0.3138 -0.4429 -0.0351
  909MOL0     C22605   6.446   6.680   8.374  0.1302 -0.2463 -0.4660
  909MOL0     C22606   6.394   6.770   8.473 -0.4737 -0.5801 -0.3731
  909MOL0     C22607   6.271   6.834   8.464  0.6200  0.5802  0.6417
  909MOL0     C22608   6.224   6.916   8.581 -0.7749 -0.5642 -0.5538
  909MOL0     C22609   6.190   6.803   8.350 -0.0338  0.3210 -0.3656
  909MOL0     C22610   6.054   6.854   8.318  0.9396  0.2556  0.9303
  909MOL0     O22611   5.983   6.799   8.212 -0.5197  0.0399  0.0624
  909MOL0     C22612   5.850   6.832   8.198 -0.3941 -0.3257 -0.5705
  909MOL0     C22613   5.809   6.890   8.081  0.6857  0.2271 -0.5173
  909MOL0     C22614   5.680   6.942   8.066  0.1076 -0.2248  0.3356
  909MOL0     C22615   5.588   6.917   8.167 -0.1492  0.6872 -0.6527
  909MOL0     O22616   5.460   6.974   8.164 -0.1635  0.2606 -0.2881
  909MOL0     C22617   5.393   7.020   8.045 -0.3590  0.5481  0.1639
  909MOL0     C22618   5.327   6.903   7.971  1.1004  0.2787  0.8855
  909MOL0     C22619   5.295   6.936   7.827 -0.2256  0.7457  0.2848
  909MOL0     C22620   5.200   6.834   7.766 -0.3456 -0.2066  0.3903
  909MOL0     C22621   5.049   6.870   7.804 -0.2720  0.8352  0.8305
  909MOL0     C22622   4.954   6.756   7.760  0.5643  0.0204 -0.3260
  909MOL0     C22623   4.808   6.795   7.770 -0.4835 -0.2286 -0.0317
  909MOL0     C22624   4.719   6.682   7.717  0.8216 -0.4010  0.5987
  909MOL0    Cl22625   4.558   6.755   7.675  0.2972  0.6514  0.2465
  909MOL0     C22626   5.629   6.853   8.282  1.0028 -0.5512  0.5677
  909MOL0     C22627   5.760   6.806   8.299  0.2423  0.9374  0.4296
  909MOL0     O22628   6.010   6.930   8.396  0.0098 -0.5361  0.0600
  909MOL0     C22629   6.244   6.720   8.253 -0.2889  0.2942  0.2351
  909MOL0     C22630   6.367   6.663   8.261 -0.3533 -0.0269  0.6076
  909MOL0     N22631   7.216   6.564   8.495 -0.0815  0.2727  0.4381
  909MOL0     N22632   7.335   6.581   8.559 -0.1645 -0.1958  0.4638
  909MOL0     C22633   7.445   6.309   9.339 -0.2131  0.2783 -0.4267
  909MOL0     C22634   7.350   6.371   9.248 -0.4786  0.4774  0.2780
  909MOL0     C22635   7.032   6.630   9.127 -0.6971 -0.2721 -0.5261
  909MOL0     C22636   7.060   6.682   8.995 -0.1729  0.0361  0.6348
  909MOL0     C22637   6.963   6.750   8.925 -0.1421  0.3701 -0.0524
  909MOL0     C22638   6.843   6.793   8.987 -0.4234 -0.1819  0.4724
  909MOL0     O22639   6.751   6.866   8.919  0.1486  0.9127 -0.2397
  909MOL0     C22640   6.803   6.964   8.818 -0.4511 -0.2892 -0.2064
  909MOL0     C22641   6.730   7.096   8.838 -0.0972 -0.5703 -0.0033
  909MOL0     C22642   6.738   7.186   8.713 -0.0619 -0.5806 -0.1015
  909MOL0     C22643   6.628   7.148   8.621 -0.4177 -0.0976 -0.0754
  909MOL0     C22644   6.509   7.235   8.651  0.0399  0.1777  0.1250
  909MOL0     C22645   6.421   7.316   8.682  0.4997 -0.8915 -0.2009
  909MOL0     C22646   6.831   6.766   9.122 -0.4594  0.0462  0.5202
  909MOL0     C22647   6.921   6.680   9.190 -0.2382 -0.4892 -0.6384
  909MOL0     H22648   7.442   6.691   9.263  1.1106 -0.7565 -1.3896
  909MOL0     H22649   7.626   6.594   9.406 -0.4531  1.0314  2.3109
  909MOL0     H22650   7.818   6.248   9.476  3.4254  2.1982 -2.7796
  909MOL0     H22651   7.693   6.181   9.373  0.2415 -0.2355  2.0762
  909MOL0     H22652   7.901   6.399   9.326  0.5620 -0.1331  0.3220
  909MOL0     H22653   7.922   6.249   9.266  1.1328  0.6844  2.5620
  909MOL0     H22654   7.690   6.418   9.163  0.0652  0.1523 -0.9047
  909MOL0     H22655   7.846   6.405   9.081  0.7360  0.1719  0.4978
  909MOL0     H22656   7.788   6.155   9.064 -1.4027 -2.0445  1.8247
  909MOL0     H22657   7.643   6.187   9.144 -0.7088  1.0852 -0.7010
  909MOL0     H22658   7.747   6.300   8.883  0.7957  0.1734  1.5549
  909MOL0     H22659   7.618   6.181   8.894 -1.0663 -0.1299  0.4070
  909MOL0     H22660   7.460   6.340   8.994  0.1543 -1.4468 -1.8637
  909MOL0     H22661   7.581   6.470   8.989  0.3671 -1.2151  0.4707
  909MOL0     H22662   7.598   6.443   8.736  0.1481 -0.0805 -1.0784
  909MOL0     H22663   7.460   6.342   8.756 -2.9463  0.6799  1.0904
  909MOL0     H22664   7.502   6.633   8.753  0.5672 -2.2556 -1.7094
  909MOL0     H22665   7.394   6.580   8.895  1.3269 -2.1815  1.2551
  909MOL0     H22666   7.179   6.425   8.794  1.2763  1.9159  1.2733
  909MOL0     H22667   7.000   6.398   8.474  0.7677 -0.5382  0.5413
  909MOL0     H22668   6.970   6.387   8.650 -1.1585 -0.0873  1.3957
  909MOL0     H22669   6.946   6.640   8.490  0.6223  1.5444  1.2918
  909MOL0     H22670   6.877   6.624   8.648 -0.8710 -0.5528  0.6135
  909MOL0     H22671   6.724   6.442   8.526  0.9484  1.0981 -0.1802
  909MOL0     H22672   6.788   6.510   8.375 -0.7758  0.8556 -1.5771
  909MOL0     H22673   6.722   6.734   8.454 -0.6674  0.7119  0.1730
  909MOL0     H22674   6.609   6.656   8.571 -1.8473  0.4084 -0.5838
  909MOL0     H22675   6.453   6.794   8.561  1.3739 -2.0011 -1.1573
  909MOL0     H22676   6.298   6.901   8.660 -2.1211 -0.3990  0.7770
  909MOL0     H22677   6.210   7.022   8.562 -3.1429 -0.2004  2.3999
  909MOL0     H22678   6.134   6.872   8.624 -0.1675 -0.0238  1.3642
  909MOL0     H22679   5.878   6.917   8.002 -1.2618 -1.3474 -2.8753
  909MOL0     H22680   5.662   7.001   7.976 -0.5330  0.3048  0.8024
  909MOL0     H22681   5.314   7.088   8.078 -2.6510 -2.0390  0.3919
  909MOL0     H22682   5.462   7.070   7.976 -0.0857 -1.8923 -1.4649
  909MOL0     H22683   5.398   6.821   7.965  1.2388  0.2864  2.1126
  909MOL0     H22684   5.235   6.864   8.015 -0.1659  0.8795 -1.0899
  909MOL0     H22685   5.388   6.937   7.768 -1.2438 -2.1398 -1.5691
  909MOL0     H22686   5.265   7.041   7.827  0.1615  0.9300  3.0848
  909MOL0     H22687   5.205   6.836   7.657 -1.6711 -1.5421  0.2658
  909MOL0     H22688   5.212   6.731   7.802  4.3387  0.2179  0.7507
  909MOL0     H22689   5.032   6.965   7.753  1.4467  0.8487  0.2065
  909MOL0     H22690   5.042   6.878   7.913  2.5826  0.2272  1.1342
  909MOL0     H22691   4.977   6.737   7.655 -0.0058  0.5492 -0.5469
  909MOL0     H22692   4.962   6.671   7.829 -1.5050  1.1334  1.3980
  909MOL0     H22693   4.790   6.887   7.713 -2.6373 -0.8122 -0.3516
  909MOL0     H22694   4.778   6.804   7.875  1.3656 -0.1202  0.5302
  909MOL0     H22695   4.706   6.600   7.787 -1.9541 -1.6462 -1.2115
  909MOL0     H22696   4.765   6.628   7.633 -0.9275  1.3262 -1.6194
  909MOL0     H22697   5.565   6.840   8.369 -0.4365  3.4882  0.3214
  909MOL0     H22698   5.786   6.751   8.389 -2.2137 -1.3806 -0.1613
  909MOL0     H22699   6.196   6.694   8.159 -0.8789 -2.0807  1.1202
  909MOL0     H22700   6.413   6.600   8.186  0.3881 -1.0516  1.8680
  909MOL0     H22701   7.434   6.202   9.358  0.4128 -0.1403 -2.2639
  909MOL0     H22702   7.271   6.315   9.199 -2.0453  2.7239  0.0628
  909MOL0     H22703   7.150   6.655   8.940 -0.9776 -0.3558 -0.5524
  909MOL0     H22704   6.971   6.759   8.817 -1.5618  1.9808 -0.0557
  909MOL0     H22705   6.907   6.990   8.840 -0.6512  1.6241 -1.3597
  909MOL0     H22706   6.796   6.932   8.714 -0.2047 -0.2746 -0.2276
  909MOL0     H22707   6.767   7.151   8.926 -1.3504  2.8260 -1.4274
  909MOL0     H22708   6.626   7.081   8.867 -0.6680  1.4971 -0.8331
  909MOL0     H22709   6.828   7.166   8.654  0.3595  2.7743 -0.8079
  909MOL0     H22710   6.748   7.291   8.744  2.9106 -1.2264  1.5510
  909MOL0     H22711   6.603   7.042   8.630  4.3020 -1.4570 -0.3182
  909MOL0     H22712   6.661   7.156   8.517  1.6405  2.5591  0.6559
  909MOL0     H22713   6.340   7.383   8.701  0.3274 -1.3006  0.5289
  909MOL0     H22714   6.749   6.808   9.180  0.7399 -0.8712  3.0342
  909MOL0     H22715   6.904   6.656   9.295 -0.1625 -3.4428 -1.2183
  910MOL0     O22716   7.508   2.372   6.432  0.0114  0.8165  0.5381
  910MOL0     C22717   7.544   2.368   6.544  0.0122 -0.2902  0.7428
  910MOL0     O22718   7.487   2.292   6.644 -0.0881 -0.3089 -0.0030
  910MOL0     C22719   7.388   2.203   6.598  0.5747  0.3334  0.3713
  910MOL0     C22720   7.421   2.064   6.594  0.0614  0.1681 -0.3408
  910MOL0     C22721   7.327   1.970   6.539 -1.3636  0.2504 -0.6886
  910MOL0     C22722   7.199   2.008   6.504  0.1569  0.1164  0.1613
  910MOL0     O22723   7.116   1.913   6.443 -0.5121 -0.8078  0.1556
  910MOL0     C22724   6.979   1.951   6.401  0.6037  0.0742  0.5979
  910MOL0     C22725   6.909   1.842   6.314  0.4561 -0.1930 -0.2126
  910MOL0     C22726   6.794   1.904   6.237 -0.0131  0.5507  0.0855
  910MOL0     C22727   6.710   1.790   6.174  0.0711 -0.1244  0.0135
  910MOL0     C22728   6.575   1.843   6.115  0.1013  0.3194  0.5987
  910MOL0     C22729   6.490   1.729   6.053  0.1547 -0.7488  0.0950
  910MOL0     C22730   6.383   1.792   5.976  0.0285  0.6019  0.4172
  910MOL0     C22731   6.300   1.680   5.910 -1.1886  0.1700  0.3409
  910MOL0     N22732   6.159   1.725   5.905 -0.1958  1.1929 -0.3427
  910MOL0     C22733   6.072   1.697   6.014 -0.9435 -0.1031  0.1749
  910MOL0     C22734   5.952   1.749   5.972 -0.6577 -0.1621 -0.2108
  910MOL0     C22735   5.825   1.751   6.055  0.3629 -0.3234  0.2053
  910MOL0     C22736   5.776   1.607   6.089 -0.9551 -0.3943 -0.2876
  910MOL0     C22737   5.645   1.620   6.174  0.0515 -0.3941 -1.0796
  910MOL0     C22738   5.525   1.629   6.084  0.2711  0.5816 -0.9607
  910MOL0     O22739   5.478   1.499   6.065  0.4309  0.4188 -0.2426
  910MOL0     C22740   5.350   1.466   6.100  1.1332 -1.0367 -0.0473
  910MOL0     C22741   5.243   1.549   6.053 -0.3220  0.7817  1.1139
  910MOL0     C22742   5.108   1.519   6.075 -0.5616 -0.2849 -0.8405
  910MOL0     C22743   4.997   1.605   6.018 -0.1077  0.1384  0.8757
  910MOL0     C22744   5.084   1.403   6.160 -0.2083  0.8869  0.4107
  910MOL0     C22745   4.944   1.352   6.184  0.3710  0.9330 -0.4177
  910MOL0     O22746   4.922   1.228   6.128  0.5348 -0.2205  0.4476
  910MOL0     C22747   4.795   1.177   6.132  0.2288 -0.7267 -0.5552
  910MOL0     C22748   4.755   1.089   6.029  0.2673 -0.3281 -0.7179
  910MOL0     C22749   4.646   1.005   6.044 -0.3434  0.0272  0.3895
  910MOL0     C22750   4.564   1.021   6.152 -0.3929  0.1615 -0.5901
  910MOL0     O22751   4.450   0.933   6.158 -0.8152 -0.4690  0.0684
  910MOL0     C22752   4.351   0.941   6.264 -0.1736 -0.1562  0.0835
  910MOL0     C22753   4.264   0.820   6.265 -1.0569 -0.0520  1.0835
  910MOL0     C22754   4.150   0.827   6.368 -0.4229 -0.0742 -0.3567
  910MOL0     C22755   4.042   0.716   6.355 -0.1013 -0.2967 -0.3204
  910MOL0     C22756   3.943   0.728   6.470  0.2458 -0.7084  0.2913
  910MOL0     C22757   3.846   0.604   6.470 -0.5345 -0.0238 -0.1750
  910MOL0     C22758   3.804   0.575   6.614 -0.1709 -1.4778 -0.2930
  910MOL0     C22759   3.700   0.470   6.608  0.4948  0.3172  0.1280
  910MOL0    Cl22760   3.632   0.437   6.773 -0.3340  0.2086 -0.1542
  910MOL0     C22761   4.598   1.107   6.256 -0.2298 -0.2456 -0.0290
  910MOL0     C22762   4.718   1.180   6.248 -0.1145 -0.1371  0.0360
  910MOL0     O22763   4.862   1.428   6.235 -0.3174 -0.4143 -0.1266
  910MOL0     C22764   5.189   1.338   6.222  0.8472 -0.1453  0.4054
  910MOL0     C22765   5.318   1.360   6.185  0.5886 -1.5873 -0.0502
  910MOL0     N22766   5.963   1.794   5.841 -0.0098  0.1236 -0.0994
  910MOL0     N22767   6.088   1.770   5.801 -0.1451 -0.0455  0.3575
  910MOL0     C22768   7.161   2.142   6.521 -0.0472 -0.2464 -0.4224
  910MOL0     C22769   7.256   2.240   6.569 -0.1568 -0.3180  0.4877
  910MOL0     C22770   7.660   2.456   6.580 -0.5560 -0.7463 -0.1313
  910MOL0     C22771   7.714   2.546   6.483  0.3408 -1.3081 -0.0853
  910MOL0     C22772   7.813   2.635   6.519  0.6374  0.2569  0.0365
  910MOL0     C22773   7.867   2.630   6.642  1.3367 -0.2607 -0.0454
  910MOL0     O22774   7.968   2.722   6.670  0.3509  0.3886 -0.0421
  910MOL0     C22775   8.057   2.703   6.777  0.1901  1.0891 -0.1785
  910MOL0     C22776   8.181   2.793   6.766 -0.2319  0.4347 -0.0382
  910MOL0     C22777   8.283   2.714   6.676  0.8839 -0.1221  0.6000
  910MOL0     C22778   8.405   2.811   6.654 -0.3136  0.4239  0.6301
  910MOL0     C22779   8.521   2.756   6.576  0.4079 -0.9030 -0.2971
  910MOL0     C22780   8.616   2.709   6.528 -0.2602 -0.1416  0.0400
  910MOL0     C22781   7.811   2.545   6.742 -0.4492  0.9958  0.2438
  910MOL0     C22782   7.709   2.459   6.710 -0.0409  0.2731 -0.5212
  910MOL0     H22783   7.512   2.030   6.642  1.1908  1.2557 -1.6105
  910MOL0     H22784   7.355   1.866   6.543  0.1250  0.6454 -0.3563
  910MOL0     H22785   6.921   1.989   6.486 -1.2461  1.7912 -1.3311
  910MOL0     H22786   6.998   2.035   6.335  1.2803  0.0143  0.7072
  910MOL0     H22787   6.970   1.785   6.244 -1.9435 -1.6197 -1.2777
  910MOL0     H22788   6.870   1.768   6.385  2.2644 -2.3821 -1.3790
  910MOL0     H22789   6.738   1.967   6.307  0.4949  0.2534  0.7834
  910MOL0     H22790   6.828   1.971   6.158 -1.3793  1.7987  0.5131
  910MOL0     H22791   6.769   1.741   6.096 -0.8145 -1.4492  0.1427
  910MOL0     H22792   6.692   1.714   6.250 -1.5998 -2.7101 -2.7379
  910MOL0     H22793   6.521   1.891   6.197  2.0254 -0.6312  2.5322
  910MOL0     H22794   6.597   1.920   6.040  1.8320 -0.5496  0.1528
  910MOL0     H22795   6.545   1.667   5.981 -0.1273 -1.5292  0.5338
  910MOL0     H22796   6.447   1.670   6.135 -1.6559 -0.2365 -0.4255
  910MOL0     H22797   6.313   1.855   6.031 -1.3034  0.2901 -0.8405
  910MOL0     H22798   6.425   1.857   5.899 -2.6320  0.6318 -1.1092
  910MOL0     H22799   6.296   1.589   5.971 -2.9346 -2.1496 -2.9308
  910MOL0     H22800   6.342   1.661   5.810  1.2397  1.0472  1.1241
  910MOL0     H22801   6.101   1.648   6.106 -2.3842 -0.5124  0.4314
  910MOL0     H22802   5.855   1.801   6.147  0.9378 -0.5487  0.1449
  910MOL0     H22803   5.760   1.818   5.998  0.4799 -1.0916 -0.8761
  910MOL0     H22804   5.863   1.554   6.127  0.9606  1.2531 -2.0548
  910MOL0     H22805   5.745   1.555   5.997 -0.5612  1.2081 -1.3784
  910MOL0     H22806   5.641   1.709   6.237  1.1414 -0.8703 -0.2938
  910MOL0     H22807   5.631   1.535   6.242 -0.4642  0.4349 -0.1249
  910MOL0     H22808   5.532   1.684   5.989  0.8443  0.3926 -1.0281
  910MOL0     H22809   5.454   1.691   6.139  1.3447  1.2108 -0.2490
  910MOL0     H22810   5.267   1.628   5.983  0.7833  1.1892  1.9178
  910MOL0     H22811   4.926   1.534   5.975 -1.1362  1.2747  0.6627
  910MOL0     H22812   4.953   1.669   6.095  0.0671  0.6794  0.5273
  910MOL0     H22813   5.031   1.668   5.936 -1.3869  1.1007  1.0614
  910MOL0     H22814   4.820   1.082   5.942 -0.5895  2.2749 -1.6725
  910MOL0     H22815   4.619   0.924   5.977 -1.6802  0.9330 -0.1995
  910MOL0     H22816   4.385   0.946   6.368 -1.2297  0.8771  0.4073
  910MOL0     H22817   4.289   1.029   6.244  0.4563  0.2173 -0.2599
  910MOL0     H22818   4.220   0.804   6.166  0.2656 -3.3595  0.8966
  910MOL0     H22819   4.327   0.733   6.281 -2.0963 -1.1752 -0.6213
  910MOL0     H22820   4.105   0.927   6.364  0.1547  0.2808  1.3768
  910MOL0     H22821   4.204   0.826   6.463 -1.4336  0.1335  0.2310
  910MOL0     H22822   3.997   0.740   6.259 -0.7464 -0.0837  0.0281
  910MOL0     H22823   4.093   0.620   6.355  0.9540  0.2334  0.2987
  910MOL0     H22824   3.877   0.815   6.470 -0.9162 -1.5481  1.1671
  910MOL0     H22825   4.000   0.740   6.562  1.3632 -1.3174 -0.2970
  910MOL0     H22826   3.760   0.627   6.406  0.5274  0.7329 -1.3820
  910MOL0     H22827   3.904   0.520   6.430  1.8521 -0.3542  3.4895
  910MOL0     H22828   3.768   0.658   6.675  2.8725 -0.1609 -0.1375
  910MOL0     H22829   3.893   0.536   6.662  0.4595  2.8639  2.6256
  910MOL0     H22830   3.755   0.380   6.580 -0.1709  0.7713 -3.0427
  910MOL0     H22831   3.610   0.487   6.547 -0.0045 -0.6053  0.5777
  910MOL0     H22832   4.543   1.111   6.349  2.2558 -2.1322  1.6596
  910MOL0     H22833   4.744   1.246   6.331 -0.4501  0.1658 -0.0954
  910MOL0     H22834   5.161   1.260   6.292 -0.5034 -1.1057 -1.1290
  910MOL0     H22835   5.389   1.299   6.240 -1.1757 -0.4216  3.8772
  910MOL0     H22836   7.064   2.181   6.493  0.9847  0.6834 -2.9835
  910MOL0     H22837   7.229   2.344   6.582  2.4574  0.4847  0.2510
  910MOL0     H22838   7.679   2.562   6.382  0.2961  1.1203  0.2465
  910MOL0     H22839   7.854   2.704   6.446 -1.0199  2.7402  1.3211
  910MOL0     H22840   8.000   2.716   6.870 -1.6346  0.2292 -1.1310
  910MOL0     H22841   8.089   2.601   6.798 -0.0814  1.0921  0.2807
  910MOL0     H22842   8.232   2.802   6.862  2.4908 -1.8801 -1.0975
  910MOL0     H22843   8.146   2.884   6.718 -3.9976 -1.2294 -0.7933
  910MOL0     H22844   8.250   2.670   6.581  4.9682 -1.0441 -0.5953
  910MOL0     H22845   8.319   2.629   6.735  1.4078 -0.6142 -0.3952
  910MOL0     H22846   8.438   2.839   6.754 -0.1285  4.4263 -0.3852
  910MOL0     H22847   8.374   2.901   6.600 -0.2853  1.2919  2.0107
  910MOL0     H22848   8.696   2.647   6.491  0.2415  1.2656 -1.3684
  910MOL0     H22849   7.850   2.538   6.843 -1.9274 -0.2385  0.7739
  910MOL0     H22850   7.661   2.393   6.781  2.4948 -2.0072 -0.7797
  911MOL0     O22851   3.407   4.273  10.727  0.5012  0.0224 -0.0328
  911MOL0     C22852   3.343   4.186  10.793  0.1316  0.0944  0.0809
  911MOL0     O22853   3.396   4.104  10.887  0.3912 -0.4675 -0.8022
  911MOL0     C22854   3.526   4.122  10.915 -0.5634  0.4800 -0.1123
  911MOL0     C22855   3.610   4.020  10.864 -0.4971  0.2094  0.1230
  911MOL0     C22856   3.749   4.032  10.874  0.2538  0.3834  1.5227
  911MOL0     C22857   3.800   4.130  10.957  0.1655 -0.1145 -0.0348
  911MOL0     O22858   3.941   4.117  10.973 -0.0336 -0.2112  0.0929
  911MOL0     C22859   3.996   4.191  11.077 -0.0525  0.2738 -0.1138
  911MOL0     C22860   4.141   4.195  11.051  0.5570 -0.1962  0.1141
  911MOL0     C22861   4.213   4.236  11.184 -0.4908 -0.1725  0.3809
  911MOL0     C22862   4.360   4.262  11.155 -0.0833 -0.3261  0.2539
  911MOL0     C22863   4.448   4.308  11.276 -0.5372 -0.8241  0.5705
  911MOL0     C22864   4.411   4.435  11.346 -0.7371 -0.3792 -0.0158
  911MOL0     C22865   4.520   4.485  11.437 -0.1469 -0.3276 -1.4837
  911MOL0     C22866   4.509   4.626  11.497  0.1061 -0.0150 -0.1580
  911MOL0     N22867   4.392   4.644  11.580  1.0255 -0.2055  0.5936
  911MOL0     C22868   4.303   4.747  11.549 -0.6016  0.8078 -0.3364
  911MOL0     C22869   4.214   4.744  11.654 -0.7912  0.1210  0.3855
  911MOL0     C22870   4.120   4.858  11.688 -0.5351  0.1911  0.1088
  911MOL0     C22871   3.973   4.824  11.657  0.4321 -0.7843 -0.6097
  911MOL0     C22872   3.926   4.720  11.762 -0.4142  0.3307  0.4980
  911MOL0     C22873   3.783   4.679  11.775 -0.7808 -0.2925 -0.6581
  911MOL0     O22874   3.748   4.627  11.643  0.0500 -0.4554 -0.4984
  911MOL0     C22875   3.629   4.578  11.627  0.7489  0.6449  0.3651
  911MOL0     C22876   3.521   4.556  11.726 -0.6498  0.0606  0.5801
  911MOL0     C22877   3.398   4.521  11.681 -0.5603  0.1426  0.0581
  911MOL0     C22878   3.290   4.505  11.792 -0.0331  0.3021 -0.7568
  911MOL0     C22879   3.372   4.507  11.544  0.2962 -0.2379  0.6794
  911MOL0     C22880   3.243   4.459  11.476 -0.3381  0.6324 -0.8708
  911MOL0     O22881   3.228   4.475  11.342 -0.2792 -0.0591  0.5265
  911MOL0     C22882   3.105   4.457  11.282 -0.4290 -0.0396  1.5895
  911MOL0     C22883   3.009   4.551  11.304  0.0096  0.8545 -0.9556
  911MOL0     C22884   2.880   4.520  11.262  0.4243  0.2110 -0.0436
  911MOL0     C22885   2.858   4.412  11.166  0.2351  0.2287 -0.1412
  911MOL0     O22886   2.740   4.397  11.087  0.3524 -0.3405 -1.0242
  911MOL0     C22887   2.634   4.489  11.123  1.1174 -0.6447 -0.7082
  911MOL0     C22888   2.522   4.473  11.025  0.0457 -0.1155 -0.4404
  911MOL0     C22889   2.380   4.535  11.049  0.2773  0.1349  0.0419
  911MOL0     C22890   2.361   4.679  11.010  0.0474  0.6724  0.2465
  911MOL0     C22891   2.233   4.740  11.066 -0.4465  0.2316 -0.4708
  911MOL0     C22892   2.114   4.677  11.005  0.4708 -0.8497  0.2739
  911MOL0     C22893   1.977   4.728  11.056  0.4321  0.1876 -0.7073
  911MOL0     C22894   1.864   4.674  10.974  0.8313 -0.0331 -0.3998
  911MOL0    Cl22895   1.717   4.732  11.050  0.3070  0.2464 -0.3802
  911MOL0     C22896   2.968   4.339  11.124 -0.5868 -0.0737  0.7358
  911MOL0     C22897   3.089   4.358  11.187  0.6047 -1.1254  0.4553
  911MOL0     O22898   3.152   4.420  11.549 -0.0489  0.7713  0.0946
  911MOL0     C22899   3.479   4.514  11.457 -0.4446  0.2166 -0.7441
  911MOL0     C22900   3.598   4.561  11.496  0.2000  0.5803  0.8727
  911MOL0     N22901   4.256   4.649  11.743  0.1888 -0.9784  0.4144
  911MOL0     N22902   4.361   4.586  11.704 -0.0109 -0.4829 -0.1746
  911MOL0     C22903   3.715   4.217  11.030 -1.0209 -1.2573 -0.0151
  911MOL0     C22904   3.581   4.224  10.994 -0.3337  0.3074  0.6932
  911MOL0     C22905   3.197   4.181  10.777 -0.5158 -0.2678  0.4310
  911MOL0     C22906   3.140   4.059  10.795  0.9166  0.3624 -0.1305
  911MOL0     C22907   3.004   4.053  10.792  0.4011  0.8174 -0.3265
  911MOL0     C22908   2.927   4.164  10.754  0.5992  1.0116  0.2887
  911MOL0     O22909   2.791   4.153  10.756  0.4544  0.2250 -0.0876
  911MOL0     C22910   2.739   4.089  10.868 -0.1466  0.5001  0.2034
  911MOL0     C22911   2.589   4.111  10.864  0.0202  0.2198  0.8086
  911MOL0     C22912   2.530   4.042  10.742  0.1823  0.2305  0.1122
  911MOL0     C22913   2.374   4.004  10.755 -0.0436 -0.6367  0.0197
  911MOL0     C22914   2.296   4.115  10.811 -0.3889  0.1210  0.2055
  911MOL0     C22915   2.220   4.198  10.848 -0.4133  0.0237 -0.5498
  911MOL0     C22916   2.990   4.286  10.742 -0.6350 -0.9034 -0.7834
  911MOL0     C22917   3.123   4.293  10.739 -0.3129 -0.1587 -0.9414
  911MOL0     H22918   3.560   3.939  10.812  0.3501  1.5454 -3.0685
  911MOL0     H22919   3.815   3.954  10.837 -1.6122 -0.2945 -0.6829
  911MOL0     H22920   3.963   4.295  11.086 -1.1147 -0.1915  1.6500
  911MOL0     H22921   3.976   4.128  11.164 -0.4333 -0.9291 -1.0462
  911MOL0     H22922   4.166   4.102  11.001 -0.0147  0.9713 -2.5114
  911MOL0     H22923   4.172   4.273  10.981  3.2924 -0.8122  0.5409
  911MOL0     H22924   4.176   4.324  11.237  0.0264 -0.9105  2.0400
  911MOL0     H22925   4.206   4.153  11.254 -0.3638  0.6666  1.4090
  911MOL0     H22926   4.406   4.169  11.119 -0.1343 -0.3592  0.2743
  911MOL0     H22927   4.376   4.338  11.077  1.4701  1.0547  1.8466
  911MOL0     H22928   4.443   4.240  11.362  2.3106  0.1633  1.6274
  911MOL0     H22929   4.550   4.309  11.237 -0.9263 -1.0383 -0.4894
  911MOL0     H22930   4.414   4.517  11.274  1.1746  0.6304  1.1140
  911MOL0     H22931   4.315   4.434  11.399 -0.7510  1.9869  0.1253
  911MOL0     H22932   4.526   4.418  11.523 -3.5380  3.2537  1.9630
  911MOL0     H22933   4.617   4.485  11.387  1.9694  5.2049  1.6581
  911MOL0     H22934   4.515   4.689  11.409 -0.6746 -1.1899 -1.0880
  911MOL0     H22935   4.600   4.651  11.551  0.3588 -0.9996 -0.1078
  911MOL0     H22936   4.297   4.798  11.453 -0.1512 -1.7694 -1.8254
  911MOL0     H22937   4.137   4.893  11.790  1.3632  0.0012 -0.1042
  911MOL0     H22938   4.145   4.939  11.619 -2.4574  0.8779  0.1514
  911MOL0     H22939   3.965   4.789  11.554  0.5918  2.0635 -1.6784
  911MOL0     H22940   3.918   4.917  11.674  0.7980 -0.7897  0.7152
  911MOL0     H22941   3.960   4.744  11.863  2.4279  2.4258 -0.8112
  911MOL0     H22942   3.968   4.620  11.744  1.4945  1.5102 -2.3433
  911MOL0     H22943   3.731   4.760  11.827 -1.2350 -1.4578  0.7832
  911MOL0     H22944   3.782   4.591  11.841  0.4015  1.0732  1.2814
  911MOL0     H22945   3.530   4.575  11.833  1.1335 -0.5548  0.5623
  911MOL0     H22946   3.331   4.503  11.893 -0.2920 -1.1350 -0.6531
  911MOL0     H22947   3.217   4.584  11.774 -1.6745 -1.1854 -0.9691
  911MOL0     H22948   3.239   4.410  11.771  0.8932 -0.3699 -0.0751
  911MOL0     H22949   3.035   4.631  11.372 -0.1849  1.3553 -1.4605
  911MOL0     H22950   2.800   4.588  11.291 -1.0200 -1.1324 -0.7735
  911MOL0     H22951   2.589   4.472  11.221 -4.7655  1.1565 -2.7096
  911MOL0     H22952   2.669   4.592  11.118  0.3240 -0.3454 -0.2169
  911MOL0     H22953   2.563   4.507  10.930  1.9909 -2.5889 -0.5788
  911MOL0     H22954   2.509   4.365  11.018  2.0935 -0.4297 -0.2254
  911MOL0     H22955   2.355   4.519  11.154 -0.8703 -2.0248 -0.4841
  911MOL0     H22956   2.304   4.477  10.995 -1.9937  2.9376  0.0045
  911MOL0     H22957   2.447   4.739  11.042 -0.9159  1.0339  2.2814
  911MOL0     H22958   2.374   4.686  10.902  0.6068 -0.5046  0.2098
  911MOL0     H22959   2.227   4.848  11.052 -0.2570  0.8720  3.3083
  911MOL0     H22960   2.237   4.722  11.174 -2.7203  0.7684 -0.2614
  911MOL0     H22961   2.120   4.698  10.898 -1.6697 -1.6777 -0.0436
  911MOL0     H22962   2.116   4.569  11.021  1.4341 -0.9673 -0.5292
  911MOL0     H22963   1.977   4.838  11.054 -1.9151  0.2994  0.9077
  911MOL0     H22964   1.965   4.703  11.162 -0.4209 -2.5009 -1.3532
  911MOL0     H22965   1.861   4.565  10.961 -0.3177  0.1718 -2.1110
  911MOL0     H22966   1.870   4.714  10.873  2.4396  0.8221  0.0024
  911MOL0     H22967   2.965   4.270  11.041  1.3845 -1.5877  1.8318
  911MOL0     H22968   3.178   4.302  11.162  2.1679  1.8295 -1.1890
  911MOL0     H22969   3.477   4.486  11.352  1.9753  1.2905 -1.1622
  911MOL0     H22970   3.667   4.583  11.415  1.9636  0.1567  2.2026
  911MOL0     H22971   3.749   4.303  11.088  1.3167 -3.1357  1.6193
  911MOL0     H22972   3.533   4.312  11.034 -2.5390 -0.8838  0.8277
  911MOL0     H22973   3.192   3.965  10.808 -0.8973 -0.6377  0.3697
  911MOL0     H22974   2.952   3.958  10.784  2.3011 -0.5041  1.8293
  911MOL0     H22975   2.758   3.982  10.856  0.8019  0.6693  0.1021
  911MOL0     H22976   2.781   4.136  10.957  2.8462 -0.0753 -0.7868
  911MOL0     H22977   2.566   4.217  10.869 -0.0306  0.1874  1.2605
  911MOL0     H22978   2.556   4.076  10.962  1.4033  0.8101  1.5066
  911MOL0     H22979   2.574   3.947  10.710  0.8969  1.0379 -1.3899
  911MOL0     H22980   2.547   4.109  10.658 -0.3706 -0.4978 -0.5937
  911MOL0     H22981   2.361   3.916  10.819 -1.4374  0.0935  0.7935
  911MOL0     H22982   2.340   3.978  10.655 -1.9452 -1.1315  0.7571
  911MOL0     H22983   2.144   4.264  10.882  0.0795  0.4371 -0.2398
  911MOL0     H22984   2.922   4.369  10.731 -0.4147 -0.7134 -0.7353
  911MOL0     H22985   3.164   4.393  10.728  1.0588 -0.4425  0.9324
  912MOL0     O22986   2.452   3.939   4.704 -0.7773  0.1614  0.3945
  912MOL0     C22987   2.474   3.929   4.824 -0.2181  0.0888  0.3422
  912MOL0     O22988   2.387   3.962   4.918  0.8971  0.4224  0.4021
  912MOL0     C22989   2.267   4.016   4.882 -0.2417  0.3361 -0.1530
  912MOL0     C22990   2.167   3.938   4.820  0.4826  0.7111 -0.1652
  912MOL0     C22991   2.049   3.993   4.782 -0.0225 -0.3042 -0.7690
  912MOL0     C22992   2.025   4.136   4.807  0.2445 -0.1966  0.3735
  912MOL0     O22993   1.913   4.193   4.766  0.3806  0.8474  0.2330
  912MOL0     C22994   1.793   4.112   4.745  0.5058 -1.2473 -0.0092
  912MOL0     C22995   1.681   4.212   4.786  0.3423 -0.0389 -0.4894
  912MOL0     C22996   1.659   4.225   4.939 -0.1359 -0.5112  0.2990
  912MOL0     C22997   1.530   4.309   4.968  0.4920  0.0829  0.2970
  912MOL0     C22998   1.487   4.293   5.122 -0.0206 -0.2735 -0.1170
  912MOL0     C22999   1.373   4.388   5.155  0.4294 -0.1402 -0.0986
  912MOL0     C23000   1.332   4.394   5.302 -0.6792  0.2007 -0.3983
  912MOL0     C23001   1.273   4.528   5.351 -0.3432  0.6565  0.1224
  912MOL0     N23002   1.124   4.530   5.333 -0.1734  0.4196 -0.1606
  912MOL0     C23003   1.065   4.615   5.243 -0.9683  0.4434 -0.2347
  912MOL0     C23004   0.933   4.611   5.282 -0.7049  0.2211 -0.6377
  912MOL0     C23005   0.825   4.696   5.223  0.3414  0.3675 -0.4321
  912MOL0     C23006   0.794   4.646   5.073  0.4516  0.0514 -0.0802
  912MOL0     C23007   0.719   4.509   5.052 -0.4166 -0.2943  0.4215
  912MOL0     C23008   0.815   4.392   5.091 -0.3696  0.1914 -0.3194
  912MOL0     O23009   0.747   4.267   5.064  0.4559 -0.9371 -0.8353
  912MOL0     C23010   0.809   4.149   5.104 -0.3092  0.4237 -0.2624
  912MOL0     C23011   0.939   4.142   5.138  1.1200  0.1978 -0.4600
  912MOL0     C23012   1.001   4.022   5.174  0.6214  0.3660  0.4788
  912MOL0     C23013   1.144   4.031   5.212  0.0622  0.2546 -0.0492
  912MOL0     C23014   0.929   3.898   5.174 -1.0792 -0.3141 -0.2208
  912MOL0     C23015   0.989   3.769   5.210 -0.3550  0.2114 -0.1615
  912MOL0     O23016   1.118   3.757   5.253  0.3283  0.1475  0.7953
  912MOL0     C23017   1.163   3.634   5.300 -0.0364 -0.0924 -0.4252
  912MOL0     C23018   1.120   3.502   5.268  0.3268 -0.2727 -0.4752
  912MOL0     C23019   1.173   3.394   5.332 -1.0402  0.7511  0.0258
  912MOL0     C23020   1.294   3.408   5.402  0.9357 -1.0107 -1.0361
  912MOL0     O23021   1.371   3.305   5.450  0.7225  0.6736 -0.1691
  912MOL0     C23022   1.333   3.169   5.435  0.4060 -1.1166  1.2085
  912MOL0     C23023   1.439   3.086   5.511 -0.4576 -0.9387  0.2859
  912MOL0     C23024   1.575   3.087   5.430 -0.6158 -0.3413 -0.0982
  912MOL0     C23025   1.680   2.985   5.470  0.0562  0.0514 -0.6767
  912MOL0     C23026   1.710   3.005   5.623 -0.6698  1.0163 -0.3182
  912MOL0     C23027   1.824   2.914   5.667 -0.2152 -0.7391  0.4665
  912MOL0     C23028   1.960   2.966   5.605 -0.1226 -0.0245  1.1174
  912MOL0     C23029   2.078   2.893   5.654  0.6453  0.7969 -0.2990
  912MOL0    Cl23030   2.229   2.945   5.591 -0.6518 -0.4185 -0.3377
  912MOL0     C23031   1.340   3.535   5.429  1.1652 -0.2975 -0.0316
  912MOL0     C23032   1.273   3.647   5.381  0.1282  0.2267  0.1186
  912MOL0     O23033   0.904   3.675   5.214 -0.6055 -0.5664  0.4287
  912MOL0     C23034   0.798   3.902   5.129  0.1301  1.1111  0.6415
  912MOL0     C23035   0.734   4.024   5.095 -0.6701 -0.0673  0.2398
  912MOL0     N23036   0.918   4.515   5.383 -0.1494  0.4144  0.2587
  912MOL0     N23037   1.034   4.467   5.409 -0.3572 -0.1103  0.1021
  912MOL0     C23038   2.122   4.217   4.875  0.3687 -0.1600  0.0056
  912MOL0     C23039   2.242   4.157   4.921 -0.4846  0.0213 -0.2910
  912MOL0     C23040   2.603   3.874   4.872  0.4329 -0.1884 -0.2768
  912MOL0     C23041   2.712   3.849   4.788  0.3669 -0.2923  0.1177
  912MOL0     C23042   2.827   3.793   4.839 -0.8208  0.2803 -0.2209
  912MOL0     C23043   2.849   3.777   4.974 -0.1830  0.6417  0.2980
  912MOL0     O23044   2.973   3.756   5.017 -0.9947 -0.3358 -0.5640
  912MOL0     C23045   2.994   3.619   5.038  0.7858  0.5301  0.6946
  912MOL0     C23046   3.130   3.598   5.118  0.6002  0.3005  0.1642
  912MOL0     C23047   3.259   3.654   5.055 -0.1863  0.7808 -0.1129
  912MOL0     C23048   3.316   3.560   4.953  0.7511 -0.4497  0.1488
  912MOL0     C23049   3.356   3.428   5.001  0.0567 -0.0380  0.1962
  912MOL0     C23050   3.407   3.327   5.038  0.4476  0.4627  0.1119
  912MOL0     C23051   2.739   3.794   5.063 -0.8408  0.2091  0.7897
  912MOL0     C23052   2.612   3.841   5.014 -0.6010  0.1619 -0.5034
  912MOL0     H23053   2.193   3.841   4.780 -2.2733  0.2296 -1.0082
  912MOL0     H23054   1.980   3.930   4.727 -1.6309  0.2238  0.5694
  912MOL0     H23055   1.795   4.080   4.640  1.2631 -1.4744  0.0714
  912MOL0     H23056   1.778   4.022   4.806 -1.9738 -2.4225 -2.1229
  912MOL0     H23057   1.697   4.303   4.727 -0.6212 -0.9829 -2.2866
  912MOL0     H23058   1.587   4.177   4.743  1.4423  0.4544 -3.6265
  912MOL0     H23059   1.646   4.126   4.982  1.0078 -0.5727  0.5223
  912MOL0     H23060   1.740   4.278   4.991 -0.0464 -0.3103 -0.0352
  912MOL0     H23061   1.553   4.414   4.950  1.5747 -0.0364  0.8731
  912MOL0     H23062   1.449   4.282   4.899  0.2587  3.2160 -0.8449
  912MOL0     H23063   1.462   4.188   5.138 -0.7944  0.1674  1.9422
  912MOL0     H23064   1.573   4.307   5.189  1.8871 -3.4229 -1.6926
  912MOL0     H23065   1.399   4.487   5.116 -0.9820  1.4578  2.7390
  912MOL0     H23066   1.281   4.355   5.106  1.7604 -4.0735 -0.2927
  912MOL0     H23067   1.267   4.312   5.333 -0.3385  0.1226  0.1256
  912MOL0     H23068   1.426   4.386   5.358 -1.5368  0.9195  1.2178
  912MOL0     H23069   1.330   4.615   5.315 -0.1054  0.7532  0.7096
  912MOL0     H23070   1.279   4.519   5.460 -0.8864 -0.5605  0.0615
  912MOL0     H23071   1.122   4.681   5.178  3.1935 -3.0456 -0.5801
  912MOL0     H23072   0.739   4.692   5.291  2.2134  2.2487  2.2310
  912MOL0     H23073   0.847   4.803   5.223  0.4937  0.3667 -2.1765
  912MOL0     H23074   0.881   4.652   5.008  0.9980 -0.7495  0.5557
  912MOL0     H23075   0.724   4.721   5.035  1.9421  1.1472 -0.7118
  912MOL0     H23076   0.693   4.497   4.947  0.4788  0.5477  0.0898
  912MOL0     H23077   0.629   4.495   5.113 -1.4923  2.1674 -0.4684
  912MOL0     H23078   0.835   4.401   5.198  0.3599  0.3127 -0.4585
  912MOL0     H23079   0.912   4.395   5.041  0.5620  0.2770  1.4325
  912MOL0     H23080   1.002   4.230   5.152  1.4075 -0.1685  0.6589
  912MOL0     H23081   1.181   4.131   5.188  1.2828 -0.2057 -0.1208
  912MOL0     H23082   1.157   4.006   5.318 -2.9536  2.2757  0.9187
  912MOL0     H23083   1.208   3.965   5.153  1.4734 -1.0816  2.7584
  912MOL0     H23084   1.034   3.485   5.203  1.0814  0.7978 -1.8043
  912MOL0     H23085   1.128   3.297   5.310 -3.3952  1.5686  0.8947
  912MOL0     H23086   1.231   3.161   5.474 -0.6760  3.3602 -0.0189
  912MOL0     H23087   1.333   3.144   5.328 -5.1205  3.3932 -0.3479
  912MOL0     H23088   1.456   3.143   5.602  0.7899  1.4163 -1.3268
  912MOL0     H23089   1.407   2.984   5.532  0.1285 -1.3316 -0.6629
  912MOL0     H23090   1.625   3.184   5.430  0.2856 -0.7922  0.1760
  912MOL0     H23091   1.557   3.061   5.326  0.1969 -1.6799  0.0655
  912MOL0     H23092   1.652   2.882   5.447  4.2067 -1.1234 -1.3746
  912MOL0     H23093   1.773   3.001   5.415  1.4525  1.5893  1.9439
  912MOL0     H23094   1.624   2.981   5.687 -1.7688 -0.1763 -2.1625
  912MOL0     H23095   1.730   3.109   5.650 -3.4548  1.2886  1.1034
  912MOL0     H23096   1.840   2.914   5.775  1.5782 -0.2420  0.2347
  912MOL0     H23097   1.808   2.810   5.639 -0.3629 -0.7891  0.7326
  912MOL0     H23098   1.976   3.071   5.633  2.3561  0.0458 -0.3068
  912MOL0     H23099   1.958   2.969   5.496 -3.2723  2.8755  1.0478
  912MOL0     H23100   2.059   2.786   5.641 -1.0538  1.2771 -2.3535
  912MOL0     H23101   2.084   2.911   5.762 -0.6669  0.6280 -0.1767
  912MOL0     H23102   1.409   3.539   5.513 -0.5193 -0.9505  1.4592
  912MOL0     H23103   1.308   3.746   5.411  0.6720 -0.3293  1.4013
  912MOL0     H23104   0.744   3.809   5.117  1.8510  0.2262 -0.6340
  912MOL0     H23105   0.628   4.031   5.070 -0.4991 -2.8781 -1.6902
  912MOL0     H23106   2.094   4.320   4.897  1.6920  0.1336  0.4122
  912MOL0     H23107   2.309   4.208   4.989 -2.5700  0.5477  1.4711
  912MOL0     H23108   2.704   3.862   4.680 -0.6952  1.7391  0.4019
  912MOL0     H23109   2.903   3.755   4.771 -1.9401 -2.6505  0.0272
  912MOL0     H23110   2.908   3.573   5.088 -0.6254  2.5005  0.2115
  912MOL0     H23111   3.000   3.574   4.939  0.3769 -2.0435  1.7587
  912MOL0     H23112   3.150   3.492   5.136  2.6523  0.9562  2.1525
  912MOL0     H23113   3.124   3.642   5.218 -0.1244 -1.1613  0.8011
  912MOL0     H23114   3.324   3.659   5.143 -0.3444  1.1875 -0.0163
  912MOL0     H23115   3.240   3.755   5.018 -1.2245  0.4571 -0.5059
  912MOL0     H23116   3.400   3.605   4.899 -0.3341  2.7312  0.9385
  912MOL0     H23117   3.246   3.546   4.870  2.2311  0.5105 -1.3440
  912MOL0     H23118   3.456   3.232   5.054  2.7172  1.3065 -1.3192
  912MOL0     H23119   2.762   3.786   5.169 -0.2476  0.8748  0.7116
  912MOL0     H23120   2.537   3.861   5.090  1.1352 -0.3715  1.4605
  913MOL0     O23121   8.940   8.784   8.349 -0.6878 -0.1692  0.3056
  913MOL0     C23122   8.997   8.691   8.413  0.7488 -0.4609  0.5643
  913MOL0     O23123   8.960   8.654   8.538 -0.0942  0.0815 -0.0737
  913MOL0     C23124   8.847   8.700   8.594  0.3881 -0.9841  0.1135
  913MOL0     C23125   8.727   8.701   8.534  1.7264  0.9027  0.5815
  913MOL0     C23126   8.614   8.753   8.603  0.5890 -0.2260 -0.2815
  913MOL0     C23127   8.627   8.810   8.728 -0.1190 -0.2269  0.1780
  913MOL0     O23128   8.525   8.862   8.807  0.6951 -0.6798 -0.4289
  913MOL0     C23129   8.483   9.001   8.786  0.5131 -0.3761  0.3082
  913MOL0     C23130   8.329   9.008   8.763 -0.1345  0.9291 -0.2092
  913MOL0     C23131   8.257   8.947   8.883 -0.1619  0.1042  0.0347
  913MOL0     C23132   8.120   9.003   8.892  0.4317  0.5010  0.9790
  913MOL0     C23133   8.042   8.937   9.006 -0.6759 -1.2155 -0.4310
  913MOL0     C23134   7.897   8.989   9.021  1.0141 -0.2694 -0.1630
  913MOL0     C23135   7.842   8.980   9.167 -0.3651 -0.4947 -0.6204
  913MOL0     C23136   7.868   8.843   9.240 -0.4425  0.5739  0.3387
  913MOL0     N23137   7.787   8.828   9.365 -0.8995  0.8722  0.3875
  913MOL0     C23138   7.657   8.816   9.371  0.6962  0.7753  0.0775
  913MOL0     C23139   7.625   8.777   9.496 -0.9367 -0.2613 -0.4680
  913MOL0     C23140   7.482   8.760   9.541  0.4744  0.6085 -0.2383
  913MOL0     C23141   7.416   8.633   9.489 -0.4827 -1.2180 -0.0485
  913MOL0     C23142   7.273   8.606   9.539  0.0409  0.5142 -0.3403
  913MOL0     C23143   7.183   8.732   9.534 -0.1184 -0.1181  0.3642
  913MOL0     O23144   7.185   8.777   9.398  0.3044 -0.4281 -0.3878
  913MOL0     C23145   7.083   8.743   9.317 -0.2836  0.6738  0.2353
  913MOL0     C23146   6.983   8.643   9.352 -0.5598 -0.1944  1.4026
  913MOL0     C23147   6.867   8.627   9.274 -0.1966  0.2696 -0.3839
  913MOL0     C23148   6.768   8.511   9.314  0.1076 -0.5265  0.3382
  913MOL0     C23149   6.840   8.705   9.158 -0.2428 -1.0406  0.3189
  913MOL0     C23150   6.722   8.697   9.069  0.2470  0.1003  0.0742
  913MOL0     O23151   6.714   8.800   8.981 -0.9061 -0.0610 -0.0075
  913MOL0     C23152   6.598   8.803   8.906  0.6185  0.1126  0.7519
  913MOL0     C23153   6.500   8.897   8.940  0.3828 -0.1867 -0.9069
  913MOL0     C23154   6.388   8.917   8.864  1.1418  0.2267 -0.0318
  913MOL0     C23155   6.360   8.832   8.751  0.1649  0.1974  0.1956
  913MOL0     O23156   6.248   8.857   8.681 -0.4880 -0.0576 -0.2539
  913MOL0     C23157   6.217   8.746   8.594 -0.2860 -0.6658 -0.5169
  913MOL0     C23158   6.072   8.754   8.548  1.0289 -1.1841 -0.5132
  913MOL0     C23159   6.040   8.877   8.468 -0.2912 -0.5246 -0.4506
  913MOL0     C23160   6.132   8.916   8.344 -0.6465  0.0225 -0.9246
  913MOL0     C23161   6.068   9.000   8.234 -0.1268  0.6772 -0.2175
  913MOL0     C23162   6.031   9.138   8.279 -0.0060  0.2241 -1.2309
  913MOL0     C23163   5.952   9.225   8.175  0.1029 -0.7391 -0.0305
  913MOL0     C23164   5.919   9.368   8.235  0.8969  0.9153 -0.0746
  913MOL0    Cl23165   5.783   9.429   8.127 -0.1824 -0.1922 -0.0309
  913MOL0     C23166   6.454   8.734   8.725 -0.2832  0.0864 -0.3458
  913MOL0     C23167   6.568   8.714   8.799 -0.1570 -0.8081 -0.2960
  913MOL0     O23168   6.644   8.603   9.077 -0.3129  0.2800 -0.2831
  913MOL0     C23169   6.948   8.793   9.120 -0.6565  0.4694  0.2181
  913MOL0     C23170   7.062   8.815   9.191 -0.8912 -0.1900 -0.8236
  913MOL0     N23171   7.745   8.765   9.562 -0.4855 -0.2885 -0.4842
  913MOL0     N23172   7.840   8.801   9.483  0.3280  0.4924  0.3119
  913MOL0     C23173   8.755   8.813   8.780 -0.3439  0.7875  0.7247
  913MOL0     C23174   8.859   8.748   8.720  0.2090 -0.7215 -0.0608
  913MOL0     C23175   9.130   8.649   8.364  0.0709  0.5680  0.1488
  913MOL0     C23176   9.227   8.588   8.445 -1.0906 -0.3017  0.2966
  913MOL0     C23177   9.351   8.563   8.392 -0.3381 -0.6048 -1.0003
  913MOL0     C23178   9.398   8.602   8.260 -0.0345 -1.1120  0.2092
  913MOL0     O23179   9.518   8.588   8.192 -0.7028 -0.1454  0.6036
  913MOL0     C23180   9.624   8.503   8.245 -0.0147  0.9180  0.3077
  913MOL0     C23181   9.591   8.355   8.208  0.1933 -0.4639 -0.7079
  913MOL0     C23182   9.587   8.331   8.061 -0.0786  0.6020 -0.3434
  913MOL0     C23183   9.547   8.185   8.035  0.2608  0.2513  1.0187
  913MOL0     C23184   9.486   8.164   7.898  0.3647 -0.9442 -0.4167
  913MOL0     C23185   9.417   8.126   7.807 -0.6211 -0.5350  0.2091
  913MOL0     C23186   9.301   8.667   8.191  0.5817  0.2926  0.1921
  913MOL0     C23187   9.167   8.689   8.240 -0.4403 -0.7026 -0.0581
  913MOL0     H23188   8.724   8.641   8.444  1.9168  3.2179 -1.0506
  913MOL0     H23189   8.522   8.747   8.546  0.9757  0.0449 -0.9543
  913MOL0     H23190   8.520   9.060   8.870 -1.1223  1.4882 -0.1973
  913MOL0     H23191   8.535   9.040   8.698 -0.4638 -2.4899 -1.3082
  913MOL0     H23192   8.289   9.108   8.747 -4.0053 -0.5822 -0.9782
  913MOL0     H23193   8.306   8.944   8.676 -1.6013 -2.4067  2.3943
  913MOL0     H23194   8.238   8.839   8.875 -0.0474  0.1169 -0.4205
  913MOL0     H23195   8.306   8.963   8.980 -2.8046 -0.2528  1.5480
  913MOL0     H23196   8.116   9.112   8.904  0.9287  0.4630  1.5180
  913MOL0     H23197   8.064   8.980   8.801  0.8723 -1.1928  1.1037
  913MOL0     H23198   8.041   8.828   8.995  0.4166 -1.2440 -0.3175
  913MOL0     H23199   8.094   8.969   9.096 -2.7823 -0.7971  0.7099
  913MOL0     H23200   7.897   9.088   8.976 -0.0750  0.6288  1.6851
  913MOL0     H23201   7.828   8.940   8.952 -2.4600  3.6362  0.2005
  913MOL0     H23202   7.891   9.060   9.223  0.8669 -0.3856 -1.7995
  913MOL0     H23203   7.737   9.009   9.173  0.1417  1.2542  0.5144
  913MOL0     H23204   7.972   8.829   9.272 -0.4113 -1.5454 -0.5195
  913MOL0     H23205   7.860   8.756   9.174  2.9320  0.4266 -0.0586
  913MOL0     H23206   7.590   8.822   9.286  0.3541 -1.9158  0.0768
  913MOL0     H23207   7.482   8.747   9.650 -1.5233  1.7612 -0.0510
  913MOL0     H23208   7.423   8.850   9.522 -0.5031  0.1912  0.7182
  913MOL0     H23209   7.481   8.558   9.535  0.9952  0.3280  0.4604
  913MOL0     H23210   7.417   8.628   9.380 -0.1265  0.3277 -0.1353
  913MOL0     H23211   7.280   8.567   9.640 -4.2538  1.3995  0.5145
  913MOL0     H23212   7.232   8.524   9.478 -0.0699  0.8466 -0.7247
  913MOL0     H23213   7.236   8.802   9.599  0.8172 -0.9515  0.5269
  913MOL0     H23214   7.083   8.712   9.573 -0.0609 -4.7301 -1.1831
  913MOL0     H23215   7.000   8.578   9.438  3.0343  0.8258  1.6202
  913MOL0     H23216   6.766   8.423   9.248  0.9908 -0.5288  0.3020
  913MOL0     H23217   6.804   8.481   9.412  0.7015  1.3181  0.7198
  913MOL0     H23218   6.664   8.544   9.324  0.2544  0.6100 -1.3760
  913MOL0     H23219   6.510   8.960   9.028 -1.8524 -1.5026  0.3840
  913MOL0     H23220   6.320   8.993   8.902  0.9473 -0.3790  0.8492
  913MOL0     H23221   6.289   8.751   8.511 -0.9048  1.0643 -0.9878
  913MOL0     H23222   6.231   8.647   8.640 -2.6386 -0.7525  0.1472
  913MOL0     H23223   6.057   8.675   8.473  2.2037  0.3478 -2.4364
  913MOL0     H23224   6.004   8.755   8.634  0.6220  3.9345 -0.6408
  913MOL0     H23225   6.053   8.964   8.533  0.8053 -1.0493  0.0511
  913MOL0     H23226   5.940   8.889   8.426 -0.0225  1.9484 -0.4971
  913MOL0     H23227   6.213   8.977   8.383 -0.3397 -1.9150  1.7117
  913MOL0     H23228   6.178   8.835   8.286  0.5872  1.5965 -2.2444
  913MOL0     H23229   5.980   8.943   8.205  1.0327 -1.1197 -0.3680
  913MOL0     H23230   6.144   9.007   8.155  1.2299 -2.4563  0.6409
  913MOL0     H23231   5.967   9.132   8.368  2.2781  2.2492  0.6971
  913MOL0     H23232   6.115   9.199   8.314 -0.4941  0.0802  0.2740
  913MOL0     H23233   5.855   9.186   8.142 -1.2001  3.4394 -1.8922
  913MOL0     H23234   6.013   9.234   8.084  1.1055  3.3522  0.8275
  913MOL0     H23235   6.003   9.438   8.245  0.4540  1.8818 -2.4471
  913MOL0     H23236   5.872   9.357   8.334 -0.8244 -0.0742 -0.9591
  913MOL0     H23237   6.442   8.675   8.635 -0.3965  1.0548 -0.9894
  913MOL0     H23238   6.644   8.639   8.784  2.6295  1.4530  1.5196
  913MOL0     H23239   6.942   8.842   9.023 -4.0488 -0.2295 -0.0602
  913MOL0     H23240   7.132   8.889   9.156  0.9943 -1.4562  0.0614
  913MOL0     H23241   8.780   8.851   8.879  1.3845 -0.1132  0.6799
  913MOL0     H23242   8.953   8.741   8.773 -0.5528 -0.1753  1.4323
  913MOL0     H23243   9.195   8.564   8.546 -0.0231 -0.2403  0.6602
  913MOL0     H23244   9.424   8.535   8.467  1.5716  2.4164 -1.5605
  913MOL0     H23245   9.721   8.529   8.201 -0.4412  0.6018 -0.8342
  913MOL0     H23246   9.644   8.519   8.351  0.8346 -0.3160  0.3491
  913MOL0     H23247   9.495   8.340   8.258 -0.1572  1.3199 -0.7617
  913MOL0     H23248   9.660   8.285   8.256 -1.4215 -0.9879  0.9864
  913MOL0     H23249   9.679   8.339   8.003 -1.5387 -3.1044 -3.6173
  913MOL0     H23250   9.524   8.404   8.009  1.9362  0.9894 -2.4307
  913MOL0     H23251   9.478   8.162   8.116 -1.2600  0.1246 -0.2775
  913MOL0     H23252   9.634   8.119   8.043 -0.1424 -0.2389  1.3565
  913MOL0     H23253   9.344   8.087   7.738  0.9535 -2.1396 -0.6467
  913MOL0     H23254   9.333   8.707   8.096 -1.9965  1.6127 -0.2094
  913MOL0     H23255   9.100   8.754   8.184 -1.0166 -0.1513  1.2288
  914MOL0     O23256   4.524   9.004   6.374  0.3048  0.1462 -0.9073
  914MOL0     C23257   4.526   8.875   6.373 -1.3060 -1.2301 -0.3210
  914MOL0     O23258   4.420   8.793   6.393  0.0872  0.0382 -0.2187
  914MOL0     C23259   4.291   8.836   6.412 -0.3741 -0.6290 -0.7230
  914MOL0     C23260   4.245   8.972   6.404 -0.2486  0.2323 -0.1412
  914MOL0     C23261   4.109   8.997   6.422  0.9430 -0.2849 -0.1879
  914MOL0     C23262   4.016   8.899   6.443 -0.1759 -0.2160  0.6567
  914MOL0     O23263   3.890   8.952   6.440 -0.2414  0.2232  0.4852
  914MOL0     C23264   3.786   8.851   6.436  0.5835  0.1956 -0.1469
  914MOL0     C23265   3.644   8.908   6.461  0.0289  0.1185 -0.3158
  914MOL0     C23266   3.542   8.799   6.480  0.0233 -0.0941  0.0962
  914MOL0     C23267   3.406   8.848   6.526  0.6647 -0.9745 -0.8701
  914MOL0     C23268   3.311   8.740   6.568  0.2426 -0.4880 -0.2243
  914MOL0     C23269   3.162   8.783   6.570 -0.7576  0.1258 -1.2736
  914MOL0     C23270   3.085   8.661   6.622 -0.3750  0.6319  0.3509
  914MOL0     C23271   3.107   8.530   6.536 -0.5560 -0.2537  0.5230
  914MOL0     N23272   2.994   8.435   6.535  0.5224  0.5491 -0.4027
  914MOL0     C23273   2.903   8.434   6.641 -0.3174  0.4376 -0.1791
  914MOL0     C23274   2.793   8.375   6.595  0.3532 -0.2793  0.2601
  914MOL0     C23275   2.674   8.355   6.678 -0.5101  0.4687  0.3656
  914MOL0     C23276   2.571   8.465   6.638 -0.2048  0.3319 -0.3736
  914MOL0     C23277   2.432   8.429   6.693  0.0335  0.5444 -0.9802
  914MOL0     C23278   2.319   8.517   6.637 -0.4399  0.9394  0.2997
  914MOL0     O23279   2.209   8.441   6.684 -0.1263  0.0632  0.2900
  914MOL0     C23280   2.103   8.416   6.608 -0.0151  0.6845  1.0747
  914MOL0     C23281   2.008   8.328   6.651  0.2337 -0.9995 -0.7287
  914MOL0     C23282   1.882   8.315   6.592 -1.3177  0.9169  0.4626
  914MOL0     C23283   1.784   8.227   6.657  0.2660  0.9626 -0.5247
  914MOL0     C23284   1.852   8.385   6.461 -0.3275 -0.3481 -0.2306
  914MOL0     C23285   1.731   8.382   6.382 -0.2597  0.3059  0.8073
  914MOL0     O23286   1.623   8.348   6.450  0.2146  0.0600  0.0944
  914MOL0     C23287   1.504   8.304   6.387  0.7456 -0.2500 -0.5247
  914MOL0     C23288   1.404   8.261   6.482  0.4497 -0.5492 -0.2814
  914MOL0     C23289   1.282   8.203   6.444  0.9911 -0.5198  0.1223
  914MOL0     C23290   1.256   8.190   6.307 -0.1693 -0.1193  0.6892
  914MOL0     O23291   1.140   8.144   6.251  0.6161 -0.0475 -0.1098
  914MOL0     C23292   1.067   8.045   6.327  0.3036  0.0722 -0.2593
  914MOL0     C23293   0.974   7.966   6.229  0.7835 -0.7385  0.3671
  914MOL0     C23294   0.854   8.054   6.198 -0.6610 -0.1820  0.0189
  914MOL0     C23295   0.736   7.981   6.123 -0.3463  1.1117 -0.0642
  914MOL0     C23296   0.638   8.096   6.081 -0.1095 -1.5973 -0.0135
  914MOL0     C23297   0.500   8.041   6.056  0.1010 -0.2157  1.2512
  914MOL0     C23298   0.398   8.151   6.041  0.0265 -0.6027 -0.0262
  914MOL0     C23299   0.299   8.134   5.930  0.2809 -0.1498  0.4778
  914MOL0    Cl23300   0.207   7.983   5.949 -0.4718 -0.2975  0.3764
  914MOL0     C23301   1.362   8.217   6.208 -0.5282  0.5000 -0.1030
  914MOL0     C23302   1.485   8.274   6.248 -0.6561 -0.3539 -1.1264
  914MOL0     O23303   1.735   8.421   6.260 -0.2475 -1.2620  0.8106
  914MOL0     C23304   1.956   8.467   6.417 -0.6965  0.2365  0.0626
  914MOL0     C23305   2.072   8.487   6.488 -0.1678  0.5164  0.2665
  914MOL0     N23306   2.811   8.331   6.468 -0.2172  0.3877 -0.6164
  914MOL0     N23307   2.932   8.360   6.433  0.2794 -0.4552 -0.6346
  914MOL0     C23308   4.063   8.765   6.457  0.0583  0.2848  0.6027
  914MOL0     C23309   4.199   8.739   6.444 -0.2738 -0.1486 -0.0004
  914MOL0     C23310   4.662   8.810   6.340 -0.2476 -0.3179  0.3720
  914MOL0     C23311   4.670   8.672   6.357  0.8577  0.8811 -0.5519
  914MOL0     C23312   4.786   8.605   6.319 -0.0800  0.4998 -0.6243
  914MOL0     C23313   4.901   8.676   6.274  0.6245  0.2554 -0.2191
  914MOL0     O23314   5.014   8.605   6.225 -0.0020  0.1884  0.7065
  914MOL0     C23315   5.127   8.673   6.176 -0.8418 -0.1876  1.2058
  914MOL0     C23316   5.219   8.567   6.106  0.3311  0.4621  0.8846
  914MOL0     C23317   5.329   8.636   6.010 -0.8102  0.9062 -0.4822
  914MOL0     C23318   5.424   8.534   5.946  0.4223 -0.7960  0.2144
  914MOL0     C23319   5.509   8.464   6.043 -0.5441  0.4244 -0.6544
  914MOL0     C23320   5.574   8.395   6.121 -0.2339 -0.0364  0.2480
  914MOL0     C23321   4.894   8.812   6.269 -0.3572 -0.9705 -0.1350
  914MOL0     C23322   4.772   8.880   6.296 -0.9869  0.5789  0.2983
  914MOL0     H23323   4.304   9.059   6.378  1.2643 -1.0458 -1.1945
  914MOL0     H23324   4.064   9.095   6.422 -1.2129 -1.1316  2.5961
  914MOL0     H23325   3.777   8.804   6.338 -0.3261 -1.5279  0.7244
  914MOL0     H23326   3.806   8.776   6.513  4.6500 -0.0687 -1.2445
  914MOL0     H23327   3.650   8.970   6.551  1.3735 -3.1188  2.0221
  914MOL0     H23328   3.609   8.954   6.368 -0.7506 -1.0925 -0.6527
  914MOL0     H23329   3.519   8.758   6.381 -0.6502  1.4080 -0.4037
  914MOL0     H23330   3.589   8.719   6.538  0.8916 -0.4485 -1.0371
  914MOL0     H23331   3.429   8.914   6.610 -0.2136 -2.1669  0.3620
  914MOL0     H23332   3.363   8.904   6.443  0.3449  0.5723  0.3104
  914MOL0     H23333   3.309   8.661   6.492 -1.2038  0.8682 -1.6645
  914MOL0     H23334   3.342   8.713   6.670  0.9557 -0.3231 -0.3978
  914MOL0     H23335   3.143   8.872   6.631 -1.5357 -1.1176  0.3435
  914MOL0     H23336   3.135   8.801   6.465 -0.0173  0.8013 -1.3592
  914MOL0     H23337   3.123   8.643   6.723 -2.1591  0.4293  1.0183
  914MOL0     H23338   2.979   8.681   6.638 -0.8621 -1.8601  0.6606
  914MOL0     H23339   3.193   8.474   6.573  0.9937  1.9895  0.4956
  914MOL0     H23340   3.129   8.554   6.432  2.2765 -3.3084  0.2665
  914MOL0     H23341   2.923   8.473   6.741  0.9101 -0.3955 -0.0732
  914MOL0     H23342   2.631   8.256   6.659 -2.9251  1.8319 -2.0077
  914MOL0     H23343   2.710   8.361   6.781  2.2719 -0.6880 -0.4362
  914MOL0     H23344   2.568   8.472   6.529 -0.7076 -2.3688 -0.6042
  914MOL0     H23345   2.608   8.562   6.672 -1.8593  0.9431 -0.2453
  914MOL0     H23346   2.421   8.459   6.798 -1.5067  0.9514 -1.2370
  914MOL0     H23347   2.406   8.326   6.669 -3.1949  0.7179  1.1352
  914MOL0     H23348   2.335   8.522   6.529 -0.2933  1.7372  0.3508
  914MOL0     H23349   2.324   8.619   6.675  1.8759  0.8414  0.3505
  914MOL0     H23350   2.029   8.277   6.745 -2.6556  0.2364  0.7130
  914MOL0     H23351   1.731   8.172   6.579  0.2273 -0.0049  0.1687
  914MOL0     H23352   1.832   8.153   6.722  1.2732  2.2395  0.2528
  914MOL0     H23353   1.708   8.275   6.719 -1.7443 -0.4145 -1.8199
  914MOL0     H23354   1.414   8.277   6.589 -1.6066 -1.2546  0.0659
  914MOL0     H23355   1.213   8.171   6.522  1.4436  1.8111  1.5557
  914MOL0     H23356   1.131   7.977   6.384 -1.5729 -0.2495  1.5986
  914MOL0     H23357   1.002   8.090   6.403 -1.9733 -1.1928 -1.3551
  914MOL0     H23358   1.020   7.934   6.135 -0.7436 -2.1088  0.0571
  914MOL0     H23359   0.946   7.874   6.280  1.0487 -0.7189  0.5531
  914MOL0     H23360   0.888   8.132   6.130 -1.9386 -1.9268 -2.8288
  914MOL0     H23361   0.820   8.094   6.295  1.0019 -1.2176  1.0758
  914MOL0     H23362   0.780   7.930   6.037 -0.8459  0.3482  0.1228
  914MOL0     H23363   0.674   7.909   6.177  2.6323 -2.9831 -1.6815
  914MOL0     H23364   0.670   8.146   5.989  1.7589  0.5789  1.6720
  914MOL0     H23365   0.634   8.181   6.150  1.3214 -1.3528 -0.1869
  914MOL0     H23366   0.504   7.991   5.959  0.4432  1.6396  0.2714
  914MOL0     H23367   0.476   7.971   6.137 -1.8720 -0.1146  0.8099
  914MOL0     H23368   0.454   8.241   6.014 -0.8542 -0.2793 -0.8798
  914MOL0     H23369   0.329   8.161   6.125 -1.2798  0.8680 -1.1999
  914MOL0     H23370   0.350   8.143   5.833 -1.3794 -2.3709 -0.7015
  914MOL0     H23371   0.214   8.202   5.937 -2.3291 -3.2355  1.0556
  914MOL0     H23372   1.340   8.188   6.106 -1.3305 -2.3474  0.7953
  914MOL0     H23373   1.561   8.303   6.175  0.0595  1.6186  0.2926
  914MOL0     H23374   1.954   8.516   6.320 -2.2087  2.8182  1.3132
  914MOL0     H23375   2.147   8.551   6.444 -0.3862  0.8055  0.3068
  914MOL0     H23376   3.995   8.681   6.463 -1.3198  1.2617 -0.5602
  914MOL0     H23377   4.238   8.639   6.462  0.0456  0.1848  1.2264
  914MOL0     H23378   4.599   8.598   6.393  1.1868  0.7365 -0.2001
  914MOL0     H23379   4.796   8.498   6.327 -2.2714 -0.1688 -4.5428
  914MOL0     H23380   5.097   8.749   6.103 -0.7434  0.4001  1.7711
  914MOL0     H23381   5.184   8.727   6.252 -0.2646  0.7660  0.1330
  914MOL0     H23382   5.160   8.496   6.049 -1.1727  2.6602 -0.4480
  914MOL0     H23383   5.268   8.506   6.183 -1.2710 -2.0415  0.0491
  914MOL0     H23384   5.386   8.706   6.072 -0.8598  0.9712 -0.5095
  914MOL0     H23385   5.282   8.692   5.929  0.0145  4.5557  1.3612
  914MOL0     H23386   5.493   8.585   5.878 -0.4375  1.1818  0.7818
  914MOL0     H23387   5.358   8.466   5.891  0.0983  1.1518 -1.9625
  914MOL0     H23388   5.629   8.332   6.188  1.5849  0.0548 -1.0968
  914MOL0     H23389   4.983   8.869   6.245 -0.3376 -0.4694  1.0293
  914MOL0     H23390   4.771   8.985   6.270  1.8697  0.3864 -0.8618
  915MOL0     O23391   6.346   2.948   6.334 -0.3221 -0.0771 -0.1127
  915MOL0     C23392   6.425   2.859   6.360 -0.5497 -0.3019  0.2303
  915MOL0     O23393   6.390   2.724   6.390  0.5509  0.2473  0.3639
  915MOL0     C23394   6.253   2.690   6.383  0.5624 -0.4131  0.6336
  915MOL0     C23395   6.169   2.739   6.481  0.0207  0.9554 -0.7644
  915MOL0     C23396   6.027   2.694   6.477  0.1980  0.5672  0.0104
  915MOL0     C23397   5.982   2.621   6.368  0.1029 -0.1242 -0.1417
  915MOL0     O23398   5.848   2.586   6.354 -0.7189 -0.3069 -0.8032
  915MOL0     C23399   5.822   2.443   6.376  0.3940 -0.9987 -0.1246
  915MOL0     C23400   5.681   2.441   6.432  0.6033  0.6883 -0.1371
  915MOL0     C23401   5.648   2.293   6.462  0.3288 -0.0068 -0.1947
  915MOL0     C23402   5.528   2.274   6.563 -0.1366 -0.4105  0.4382
  915MOL0     C23403   5.529   2.148   6.641 -0.2333  0.0332 -0.1850
  915MOL0     C23404   5.406   2.136   6.738  0.3453 -0.4448 -0.0641
  915MOL0     C23405   5.298   2.025   6.709 -0.2014 -0.4889 -0.0862
  915MOL0     C23406   5.178   2.083   6.634 -0.3092 -0.0332 -0.9684
  915MOL0     N23407   5.110   2.204   6.708 -1.1024 -0.2841  0.2665
  915MOL0     C23408   5.042   2.201   6.828 -0.4290  0.5665  0.7893
  915MOL0     C23409   4.961   2.311   6.817  0.6476  0.2187 -0.3653
  915MOL0     C23410   4.865   2.351   6.931  0.2257 -0.0521 -0.3400
  915MOL0     C23411   4.716   2.343   6.889 -0.5831  1.2441 -0.3805
  915MOL0     C23412   4.679   2.212   6.833 -0.2696  0.6511 -0.2441
  915MOL0     C23413   4.530   2.183   6.816  0.4581 -0.5143  0.3160
  915MOL0     O23414   4.506   2.056   6.758 -0.2472 -0.7886  0.0110
  915MOL0     C23415   4.379   2.028   6.734 -0.4541 -0.0608 -0.5855
  915MOL0     C23416   4.346   1.900   6.705 -0.0782  0.2501  0.8290
  915MOL0     C23417   4.216   1.857   6.669  0.9705 -0.5972 -0.6019
  915MOL0     C23418   4.184   1.707   6.660  0.4564 -0.0341  0.0687
  915MOL0     C23419   4.107   1.947   6.689  0.2499  0.4889 -0.8523
  915MOL0     C23420   3.958   1.912   6.677  0.2387  0.5279  0.0996
  915MOL0     O23421   3.917   1.807   6.599  0.2025  0.1214 -0.5652
  915MOL0     C23422   3.797   1.743   6.619  0.5046  0.0565  0.7337
  915MOL0     C23423   3.776   1.618   6.672 -0.0263  0.1648 -0.0621
  915MOL0     C23424   3.645   1.566   6.688  0.3438  0.4615  0.2994
  915MOL0     C23425   3.533   1.637   6.649 -0.1184 -0.6435  0.4332
  915MOL0     O23426   3.404   1.589   6.655 -0.1124  0.8151 -0.0754
  915MOL0     C23427   3.359   1.483   6.743  0.0337  0.2550 -0.9818
  915MOL0     C23428   3.277   1.538   6.867  0.0519  0.0670 -0.4090
  915MOL0     C23429   3.151   1.622   6.838  0.6112 -0.4926 -0.1979
  915MOL0     C23430   3.034   1.548   6.791 -0.1428 -0.0221 -0.9011
  915MOL0     C23431   2.926   1.630   6.730  0.5827  0.0400  0.6412
  915MOL0     C23432   2.814   1.533   6.673 -0.5114 -1.1751  0.3270
  915MOL0     C23433   2.713   1.609   6.585  0.4440  0.1077 -0.5522
  915MOL0     C23434   2.610   1.683   6.656 -0.1815  0.8812  0.1604
  915MOL0    Cl23435   2.502   1.758   6.533 -0.2844  0.0396 -0.4574
  915MOL0     C23436   3.555   1.762   6.592 -0.7044  0.2449  0.0059
  915MOL0     C23437   3.682   1.816   6.586  0.7404 -0.3751  0.9258
  915MOL0     O23438   3.878   1.975   6.745 -0.4572 -0.6299 -0.3429
  915MOL0     C23439   4.146   2.071   6.724  0.2212 -0.0983 -0.2213
  915MOL0     C23440   4.276   2.111   6.731 -1.0429  0.1481 -0.0542
  915MOL0     N23441   4.998   2.388   6.713  0.3191  0.4280  0.9142
  915MOL0     N23442   5.094   2.328   6.658  0.0748  1.2416  0.0468
  915MOL0     C23443   6.069   2.591   6.264  0.0015  0.1894 -0.4820
  915MOL0     C23444   6.204   2.618   6.273  0.2339 -0.4722  0.0755
  915MOL0     C23445   6.573   2.890   6.356 -0.0446  0.8990 -0.4935
  915MOL0     C23446   6.664   2.787   6.396 -0.7372  0.1169 -0.2874
  915MOL0     C23447   6.796   2.817   6.392  0.3433  0.3573  0.2191
  915MOL0     C23448   6.843   2.942   6.336  0.6279  0.7261 -0.1135
  915MOL0     O23449   6.979   2.953   6.305 -0.2603  0.1344 -0.3532
  915MOL0     C23450   7.075   2.871   6.373 -0.1120  0.6604  0.0761
  915MOL0     C23451   7.209   2.930   6.348 -0.1618 -0.6141  0.3155
  915MOL0     C23452   7.301   2.885   6.459 -0.7312 -0.5095  0.0283
  915MOL0     C23453   7.437   2.955   6.467  0.0256 -0.3136  1.0622
  915MOL0     C23454   7.500   2.951   6.330 -0.0294  0.1068  0.3544
  915MOL0     C23455   7.542   2.943   6.212 -0.2064 -0.4842  0.4822
  915MOL0     C23456   6.754   3.036   6.284 -0.2470  0.3333 -0.6702
  915MOL0     C23457   6.621   3.009   6.296  0.7020  0.0262 -0.6709
  915MOL0     H23458   6.207   2.816   6.547  1.0746  1.4222 -1.8698
  915MOL0     H23459   5.950   2.732   6.543 -0.0158  1.8355 -0.9312
  915MOL0     H23460   5.822   2.400   6.276 -0.6302 -0.1887 -0.4916
  915MOL0     H23461   5.897   2.390   6.435 -0.4696 -0.7132  1.2796
  915MOL0     H23462   5.668   2.501   6.523  1.6005  1.4879 -0.4998
  915MOL0     H23463   5.609   2.487   6.363 -1.3507 -2.2397 -0.2113
  915MOL0     H23464   5.635   2.240   6.367  1.9718  2.0157 -1.6451
  915MOL0     H23465   5.735   2.246   6.508 -1.4934 -0.2324  3.3809
  915MOL0     H23466   5.527   2.354   6.639 -3.0209 -0.4675  0.5832
  915MOL0     H23467   5.437   2.287   6.504  0.1867  1.7621  0.3282
  915MOL0     H23468   5.531   2.064   6.572  2.8919 -1.1864  1.1948
  915MOL0     H23469   5.629   2.146   6.686  0.6659 -0.8105 -2.1314
  915MOL0     H23470   5.453   2.100   6.830 -0.6619 -5.2859 -1.1803
  915MOL0     H23471   5.355   2.231   6.756  0.2318 -0.3816 -0.6845
  915MOL0     H23472   5.345   1.935   6.668  1.7279 -0.0829  1.0899
  915MOL0     H23473   5.269   1.982   6.806  2.2535 -3.7371 -0.5906
  915MOL0     H23474   5.102   2.005   6.628 -0.0704 -0.5195  1.5135
  915MOL0     H23475   5.221   2.107   6.536 -3.0208 -0.5819 -2.4036
  915MOL0     H23476   5.050   2.124   6.905  1.4165  1.4133  1.4999
  915MOL0     H23477   4.891   2.297   7.022  1.2220  0.3596 -0.3692
  915MOL0     H23478   4.891   2.454   6.959  1.3227 -0.1738 -0.8813
  915MOL0     H23479   4.690   2.427   6.823  1.5510  2.4471  0.2126
  915MOL0     H23480   4.655   2.352   6.980  0.0865 -1.9890  0.4982
  915MOL0     H23481   4.722   2.144   6.906 -0.7755  1.9278  1.2980
  915MOL0     H23482   4.728   2.193   6.737  0.2044 -1.2894  0.3482
  915MOL0     H23483   4.482   2.266   6.763  3.3990 -0.7703 -3.1220
  915MOL0     H23484   4.487   2.177   6.916 -0.1113 -1.5559  0.0226
  915MOL0     H23485   4.420   1.821   6.711 -0.7757 -0.8315 -2.3193
  915MOL0     H23486   4.274   1.644   6.665  1.0943  0.9754  2.2441
  915MOL0     H23487   4.133   1.688   6.755 -1.5069  3.4179 -0.1575
  915MOL0     H23488   4.133   1.674   6.569 -2.3385 -0.0881  1.5566
  915MOL0     H23489   3.868   1.562   6.690 -0.0673  0.6011  1.6711
  915MOL0     H23490   3.633   1.470   6.736 -0.9650  0.4304 -0.0543
  915MOL0     H23491   3.296   1.414   6.687  2.7266 -2.3994 -1.0392
  915MOL0     H23492   3.450   1.430   6.776  1.2264  3.4503  1.4198
  915MOL0     H23493   3.239   1.467   6.941 -0.2632 -0.5899 -1.1778
  915MOL0     H23494   3.342   1.605   6.924 -0.8163  1.1637 -0.6806
  915MOL0     H23495   3.183   1.694   6.762 -0.2789  0.9715  0.7579
  915MOL0     H23496   3.124   1.680   6.927 -1.8900 -0.4080 -0.9265
  915MOL0     H23497   3.064   1.472   6.719 -0.6948 -0.6295 -0.4977
  915MOL0     H23498   2.992   1.495   6.877 -0.4842  0.8844 -0.4937
  915MOL0     H23499   2.968   1.687   6.647 -1.0238  0.5652  0.1404
  915MOL0     H23500   2.884   1.694   6.807 -0.9681  2.2947 -1.9065
  915MOL0     H23501   2.854   1.450   6.614  1.7959  1.4344 -2.1019
  915MOL0     H23502   2.764   1.486   6.758 -0.4219 -1.6429  0.1259
  915MOL0     H23503   2.681   1.540   6.507  0.6277 -1.5283  0.7685
  915MOL0     H23504   2.778   1.677   6.529  2.0717 -1.6716 -0.9155
  915MOL0     H23505   2.661   1.755   6.721 -0.5048 -1.0451  2.6938
  915MOL0     H23506   2.557   1.620   6.728  1.9786  0.6126  1.5916
  915MOL0     H23507   3.470   1.816   6.552 -0.3526  0.7747 -0.0294
  915MOL0     H23508   3.692   1.915   6.541  0.6464 -2.3387 -4.0794
  915MOL0     H23509   4.070   2.148   6.735  0.2712 -0.0584 -0.1526
  915MOL0     H23510   4.280   2.219   6.740 -2.7030  0.2367  0.0021
  915MOL0     H23511   6.042   2.529   6.180 -2.1827  3.5061 -2.4676
  915MOL0     H23512   6.274   2.590   6.196  1.6315  1.7386  0.4493
  915MOL0     H23513   6.626   2.690   6.429 -1.8166  1.2424  2.0233
  915MOL0     H23514   6.866   2.742   6.428 -0.7291 -0.7980 -0.0616
  915MOL0     H23515   7.058   2.858   6.480  1.4869 -1.4739  0.1273
  915MOL0     H23516   7.080   2.767   6.340  0.7377 -0.0363  2.2323
  915MOL0     H23517   7.205   3.040   6.342  0.6477 -0.6465 -1.5884
  915MOL0     H23518   7.245   2.899   6.249 -2.1225  1.1920 -1.0732
  915MOL0     H23519   7.317   2.778   6.447  1.7285 -0.1823 -0.1918
  915MOL0     H23520   7.248   2.910   6.551 -0.5609  1.5276 -0.3652
  915MOL0     H23521   7.491   2.897   6.543 -0.3624 -0.4507  1.2355
  915MOL0     H23522   7.427   3.056   6.509 -0.1099  1.3464 -2.5959
  915MOL0     H23523   7.570   2.934   6.109  0.9729 -1.4220  0.8600
  915MOL0     H23524   6.786   3.127   6.236 -0.6702  1.5410  1.2184
  915MOL0     H23525   6.554   3.076   6.242 -0.9983  1.5627  3.0382
  916MOL0     O23526   6.570   8.698   3.769  0.0124 -0.0364  0.9324
  916MOL0     C23527   6.493   8.614   3.719 -0.1024 -0.0347  0.0822
  916MOL0     O23528   6.522   8.476   3.701  0.3686  0.7968  0.7167
  916MOL0     C23529   6.644   8.429   3.739 -0.8961  0.5336  0.3771
  916MOL0     C23530   6.765   8.469   3.676 -0.4875 -0.5917 -0.2115
  916MOL0     C23531   6.892   8.407   3.704 -0.0111  1.4556 -0.4635
  916MOL0     C23532   6.903   8.312   3.806  1.0952  0.1529  0.5940
  916MOL0     O23533   7.024   8.254   3.842  0.2351  0.6729 -0.2914
  916MOL0     C23534   7.073   8.296   3.972 -0.1081  0.6351  0.0621
  916MOL0     C23535   7.146   8.427   3.961 -0.3128 -0.1566 -0.0215
  916MOL0     C23536   7.224   8.480   4.089  0.4710  0.1542  0.7365
  916MOL0     C23537   7.266   8.369   4.185 -0.1328 -0.5676 -0.2925
  916MOL0     C23538   7.312   8.407   4.320  0.4481  0.8478  0.5699
  916MOL0     C23539   7.435   8.500   4.319  0.8073 -0.5758  0.2284
  916MOL0     C23540   7.561   8.431   4.282 -0.5060 -0.2802 -0.1261
  916MOL0     C23541   7.678   8.522   4.253 -0.2156  0.0007 -0.6258
  916MOL0     N23542   7.641   8.594   4.133  0.5385  0.3501 -1.0437
  916MOL0     C23543   7.648   8.556   4.003 -0.1013  0.3355  0.2351
  916MOL0     C23544   7.629   8.667   3.931 -0.3955 -0.5179  0.1700
  916MOL0     C23545   7.636   8.682   3.787  0.1250  0.1418  0.5116
  916MOL0     C23546   7.528   8.598   3.718 -1.0518  0.3615 -0.3083
  916MOL0     C23547   7.387   8.632   3.747 -0.4837  0.7660 -0.6823
  916MOL0     C23548   7.349   8.765   3.682  0.2741  0.7355 -0.3752
  916MOL0     O23549   7.221   8.735   3.611 -0.4319 -0.5768  0.1675
  916MOL0     C23550   7.145   8.839   3.577  0.5498 -0.6198 -0.1124
  916MOL0     C23551   7.009   8.823   3.594 -0.3361  0.1612 -0.7730
  916MOL0     C23552   6.914   8.927   3.574 -0.8044 -0.6211 -0.2060
  916MOL0     C23553   6.785   8.894   3.634  0.6201 -0.2980  0.3000
  916MOL0     C23554   6.962   9.047   3.512  0.4323  0.9705  0.8946
  916MOL0     C23555   6.867   9.155   3.469  0.6973 -0.2485 -0.9790
  916MOL0     O23556   6.924   9.271   3.433 -0.5261 -0.0242 -0.1313
  916MOL0     C23557   6.849   9.373   3.392 -0.7083 -1.1939  0.7888
  916MOL0     C23558   6.786   9.370   3.262  0.4736  0.0352  0.9964
  916MOL0     C23559   6.721   9.482   3.211 -0.3573 -0.3031  0.0399
  916MOL0     C23560   6.700   9.599   3.287 -0.4595  0.2238 -0.4521
  916MOL0     O23561   6.623   9.704   3.247  0.1658  0.2095 -0.8329
  916MOL0     C23562   6.660   9.783   3.131 -0.3204  0.4599  0.1553
  916MOL0     C23563   6.544   9.811   3.038 -0.0744 -0.3562 -0.0659
  916MOL0     C23564   6.406   9.856   3.106 -0.8854  0.3530 -0.1125
  916MOL0     C23565   6.298   9.847   2.993  0.2045  0.4195 -0.5511
  916MOL0     C23566   6.152   9.867   3.040 -0.2660  0.5240  0.2514
  916MOL0     C23567   6.058   9.901   2.925  0.7211 -0.1509  0.3188
  916MOL0     C23568   5.953  10.010   2.961 -0.5685  0.6534 -0.9683
  916MOL0     C23569   5.881   9.958   3.084  0.1918 -0.6364 -0.2889
  916MOL0    Cl23570   5.720  10.042   3.109 -0.1620 -0.0286  0.1293
  916MOL0     C23571   6.750   9.595   3.418 -0.0005 -0.4723 -0.2303
  916MOL0     C23572   6.828   9.490   3.466  0.1457  0.0677 -0.1927
  916MOL0     O23573   6.748   9.135   3.475 -0.8922 -0.1397  0.5018
  916MOL0     C23574   7.102   9.063   3.490  0.1941  0.6313  1.0118
  916MOL0     C23575   7.193   8.963   3.531  0.4795 -0.0031 -1.1589
  916MOL0     N23576   7.601   8.773   4.014  0.2167 -0.6908 -0.3966
  916MOL0     N23577   7.607   8.725   4.139 -0.1771 -0.1717  0.6640
  916MOL0     C23578   6.784   8.279   3.874 -0.7877  0.4827  1.2753
  916MOL0     C23579   6.660   8.334   3.840 -0.7418  0.8076  0.5369
  916MOL0     C23580   6.360   8.653   3.676 -0.8357  0.0740 -0.2399
  916MOL0     C23581   6.326   8.794   3.689  1.1429 -0.1331  0.6386
  916MOL0     C23582   6.193   8.837   3.669 -0.7565  0.4923  1.1957
  916MOL0     C23583   6.097   8.749   3.623  0.0564  0.1612 -0.0300
  916MOL0     O23584   5.975   8.804   3.617 -0.1827 -0.4674 -0.0649
  916MOL0     C23585   5.876   8.759   3.529  0.1880  0.7571 -0.4120
  916MOL0     C23586   5.746   8.833   3.561  0.6917 -0.5914  0.4203
  916MOL0     C23587   5.743   8.977   3.505  0.1268  0.3223  0.2126
  916MOL0     C23588   5.637   9.069   3.543  0.0209  0.1504  0.3236
  916MOL0     C23589   5.509   9.009   3.499 -0.1977  0.2680  0.4613
  916MOL0     C23590   5.402   8.954   3.478  0.1728  0.4071  0.1329
  916MOL0     C23591   6.133   8.615   3.593 -0.1739 -0.1177 -0.3744
  916MOL0     C23592   6.259   8.566   3.624  0.4295  0.3195 -1.1249
  916MOL0     H23593   6.745   8.562   3.623 -3.5140  1.4697  3.9712
  916MOL0     H23594   6.981   8.432   3.647 -0.2871 -2.7601 -3.1450
  916MOL0     H23595   6.989   8.312   4.039 -0.0239 -1.7838  0.8198
  916MOL0     H23596   7.143   8.218   4.003 -0.1404 -0.0979 -1.5987
  916MOL0     H23597   7.229   8.422   3.889 -0.6117  0.4558 -0.4140
  916MOL0     H23598   7.077   8.510   3.943  0.4795  0.7025  0.7747
  916MOL0     H23599   7.305   8.548   4.064  0.8885 -0.1047  1.3479
  916MOL0     H23600   7.149   8.540   4.142  2.5377  2.5510  1.1277
  916MOL0     H23601   7.175   8.309   4.201 -0.8267  1.0765  2.5392
  916MOL0     H23602   7.343   8.302   4.145  1.0809 -0.3713  1.6031
  916MOL0     H23603   7.224   8.449   4.370 -2.0797 -0.8956 -2.0373
  916MOL0     H23604   7.337   8.310   4.364 -0.5090 -0.8039 -2.2523
  916MOL0     H23605   7.425   8.587   4.253  2.6385 -0.4471  0.0689
  916MOL0     H23606   7.444   8.533   4.423 -1.5277  2.2644 -0.3403
  916MOL0     H23607   7.600   8.365   4.359  2.1250 -0.1946 -1.2816
  916MOL0     H23608   7.536   8.373   4.192 -0.7691 -1.4676  0.6979
  916MOL0     H23609   7.769   8.464   4.236 -1.2549 -1.5683 -1.0540
  916MOL0     H23610   7.677   8.590   4.339 -2.3302 -1.4516  0.6065
  916MOL0     H23611   7.662   8.463   3.949 -2.5744  0.9201 -1.6515
  916MOL0     H23612   7.611   8.785   3.758 -0.3233  0.1608  0.9670
  916MOL0     H23613   7.740   8.660   3.760  0.9477  0.6196  3.0604
  916MOL0     H23614   7.536   8.497   3.757  1.1747  1.8784  3.7562
  916MOL0     H23615   7.546   8.608   3.610  0.9169 -3.4510 -0.4771
  916MOL0     H23616   7.371   8.641   3.855  0.5363 -1.8128 -0.2313
  916MOL0     H23617   7.321   8.552   3.713 -0.0738 -1.4793  3.1692
  916MOL0     H23618   7.417   8.804   3.605  1.1940 -1.9404 -1.0383
  916MOL0     H23619   7.332   8.833   3.766  0.0700  1.1143 -0.7183
  916MOL0     H23620   6.977   8.723   3.620 -0.2852  0.1098 -0.9039
  916MOL0     H23621   6.715   8.898   3.550  1.8912 -3.7969 -1.1185
  916MOL0     H23622   6.784   8.794   3.677 -0.7742  0.1586  1.3922
  916MOL0     H23623   6.774   8.959   3.721  1.9743 -0.5603  0.7007
  916MOL0     H23624   6.792   9.280   3.202  0.5706  0.4774  0.3321
  916MOL0     H23625   6.687   9.473   3.109 -1.8884 -1.7681  0.6312
  916MOL0     H23626   6.693   9.880   3.170 -4.5930  1.2985  2.2447
  916MOL0     H23627   6.748   9.738   3.083 -0.7721  0.6159 -0.8353
  916MOL0     H23628   6.575   9.888   2.966 -2.0622  3.2532  2.6007
  916MOL0     H23629   6.520   9.718   2.986  0.7257  0.6327 -2.3691
  916MOL0     H23630   6.400   9.954   3.153 -1.5382 -0.0280  0.6255
  916MOL0     H23631   6.374   9.786   3.184 -1.9062  0.3687 -0.5013
  916MOL0     H23632   6.329   9.922   2.920  1.2041 -1.1330 -1.7710
  916MOL0     H23633   6.310   9.757   2.932  0.0905  1.3469 -1.9708
  916MOL0     H23634   6.149   9.953   3.108 -1.9947  0.3250  0.4625
  916MOL0     H23635   6.113   9.783   3.097 -2.4359  0.0997 -1.7043
  916MOL0     H23636   6.112   9.950   2.844  0.3603  1.6021  1.0827
  916MOL0     H23637   6.018   9.809   2.883  0.2237  1.1726 -2.3027
  916MOL0     H23638   5.868  10.018   2.893 -2.2967 -0.7167  0.9193
  916MOL0     H23639   6.001  10.108   2.977 -1.1112  0.7533  0.1719
  916MOL0     H23640   5.932   9.962   3.181 -0.4792  4.8639  0.1405
  916MOL0     H23641   5.842   9.857   3.065 -0.8837  0.0420 -1.8541
  916MOL0     H23642   6.726   9.678   3.483  1.0664  1.0475 -1.6880
  916MOL0     H23643   6.850   9.515   3.570 -1.0069  2.5218 -0.4838
  916MOL0     H23644   7.132   9.150   3.433 -3.6958 -0.8855 -4.0842
  916MOL0     H23645   7.299   8.983   3.523  1.1541 -1.9005  1.5092
  916MOL0     H23646   6.792   8.201   3.949 -0.2133 -1.3278 -0.5596
  916MOL0     H23647   6.568   8.296   3.884  1.2223 -1.2298  3.1955
  916MOL0     H23648   6.396   8.867   3.727  0.3595  0.8699  0.2228
  916MOL0     H23649   6.175   8.943   3.685 -1.2538  0.9316 -1.6842
  916MOL0     H23650   5.914   8.779   3.429 -1.0642 -3.3689 -1.8976
  916MOL0     H23651   5.867   8.652   3.548  0.8798  1.1607  2.9982
  916MOL0     H23652   5.725   8.812   3.666 -1.4089 -3.4341 -0.4197
  916MOL0     H23653   5.659   8.787   3.512 -0.6545  2.1819  0.0471
  916MOL0     H23654   5.753   8.981   3.396  1.2143 -2.7435  0.1075
  916MOL0     H23655   5.831   9.031   3.539  0.1255  0.0414  0.6733
  916MOL0     H23656   5.667   9.159   3.489 -1.3027 -0.2875 -1.2049
  916MOL0     H23657   5.642   9.090   3.651 -2.0485  3.0443 -0.0171
  916MOL0     H23658   5.306   8.919   3.446  0.6095  1.1891 -2.2595
  916MOL0     H23659   6.055   8.550   3.556  1.0763 -1.6295 -0.4714
  916MOL0     H23660   6.284   8.463   3.598  2.2476  0.8024 -1.3846
  917MOL0     O23661   0.958   6.916   0.550  1.0328  0.0609 -0.6122
  917MOL0     C23662   0.983   6.937   0.434 -1.0885 -0.2837  0.8031
  917MOL0     O23663   0.924   6.886   0.323  0.0089  0.2979 -0.1577
  917MOL0     C23664   0.834   6.786   0.346 -0.4897  0.2249  0.4154
  917MOL0     C23665   0.870   6.650   0.329  0.3686 -0.7583 -1.1039
  917MOL0     C23666   0.764   6.556   0.326  0.1249  0.1607 -0.0604
  917MOL0     C23667   0.629   6.591   0.313 -0.2556 -0.0287 -0.0810
  917MOL0     O23668   0.523   6.501   0.300 -0.3986 -0.0042 -0.2716
  917MOL0     C23669   0.539   6.401   0.197 -0.2599 -0.1955 -0.8578
  917MOL0     C23670   0.496   6.275   0.253 -0.0371  0.4309  0.3012
  917MOL0     C23671   0.523   6.163   0.142  0.5966 -0.1685  0.3434
  917MOL0     C23672   0.443   6.031   0.152 -0.0262 -0.5736  0.2191
  917MOL0     C23673   0.486   5.939   0.032  0.3275  0.1063 -0.3006
  917MOL0     C23674   0.375   5.857  -0.009 -0.3757  0.0940  0.6147
  917MOL0     C23675   0.300   5.766   0.095  0.7812  0.5086  0.1844
  917MOL0     C23676   0.370   5.678   0.196 -0.3024  0.1450  0.7001
  917MOL0     N23677   0.414   5.563   0.117  0.1633 -0.3606  0.6300
  917MOL0     C23678   0.535   5.560   0.054 -0.4175 -1.0283 -0.3041
  917MOL0     C23679   0.540   5.442  -0.011 -1.1279 -0.2692 -0.6508
  917MOL0     C23680   0.651   5.384  -0.093 -0.3245 -0.1420 -0.2562
  917MOL0     C23681   0.753   5.302  -0.007  0.7646  0.0496 -1.0348
  917MOL0     C23682   0.839   5.389   0.080  0.4259 -0.4082 -0.5854
  917MOL0     C23683   0.931   5.301   0.168 -0.4112 -0.3130 -0.5188
  917MOL0     O23684   1.054   5.369   0.202 -0.6898 -0.1474 -0.5728
  917MOL0     C23685   1.165   5.283   0.190  0.1656 -0.0279 -0.0066
  917MOL0     C23686   1.241   5.277   0.074 -0.4598 -0.1450  0.1376
  917MOL0     C23687   1.359   5.209   0.066 -0.0193 -0.8358  0.0205
  917MOL0     C23688   1.437   5.222  -0.063  0.4497 -0.6263  0.0126
  917MOL0     C23689   1.418   5.148   0.180  0.7463 -0.3178  0.9521
  917MOL0     C23690   1.551   5.074   0.180 -0.0041 -0.0187  0.4846
  917MOL0     O23691   1.646   5.098   0.079  0.2753 -0.6106  0.1866
  917MOL0     C23692   1.775   5.053   0.093  0.6710  0.6957 -0.0296
  917MOL0     C23693   1.794   4.914   0.097  0.3078  0.2136 -0.2588
  917MOL0     C23694   1.919   4.858   0.105  0.1841  0.1748 -0.4259
  917MOL0     C23695   2.031   4.937   0.111 -0.1133  0.0785  0.0466
  917MOL0     O23696   2.165   4.886   0.111 -0.2615 -0.0606  0.1932
  917MOL0     C23697   2.187   4.745   0.143  0.1038  0.2733 -0.2384
  917MOL0     C23698   2.345   4.746   0.152 -1.1722  0.4098 -0.0363
  917MOL0     C23699   2.405   4.607   0.159  0.3770 -0.8850 -0.8731
  917MOL0     C23700   2.558   4.613   0.182 -0.1118 -0.4415  0.8365
  917MOL0     C23701   2.594   4.649   0.329 -0.6660  0.4616 -0.5695
  917MOL0     C23702   2.745   4.678   0.337  0.1778  0.0604  0.5963
  917MOL0     C23703   2.842   4.560   0.328  1.4248 -0.5407 -0.7489
  917MOL0     C23704   2.839   4.472   0.454 -0.0001  0.1058 -0.0203
  917MOL0    Cl23705   2.861   4.584   0.600 -0.2119  0.4676  0.4051
  917MOL0     C23706   2.011   5.078   0.126 -0.7282  0.3110 -0.3261
  917MOL0     C23707   1.881   5.137   0.118 -0.0409  0.7610  0.2903
  917MOL0     O23708   1.568   5.004   0.278 -0.4979 -0.2342 -0.6922
  917MOL0     C23709   1.341   5.160   0.300 -0.7928 -0.2934  0.0902
  917MOL0     C23710   1.216   5.219   0.305  0.4071 -0.2406 -0.1123
  917MOL0     N23711   0.427   5.369   0.012 -0.1375  0.4792  0.5188
  917MOL0     N23712   0.351   5.441   0.091  0.2918 -0.0899 -0.1740
  917MOL0     C23713   0.591   6.729   0.330 -0.0752  0.0594  0.6006
  917MOL0     C23714   0.694   6.817   0.333 -1.3705 -1.0939 -0.1956
  917MOL0     C23715   1.097   7.029   0.411  0.2044 -0.0569  0.2938
  917MOL0     C23716   1.150   7.111   0.517  0.4839 -0.2214 -0.3806
  917MOL0     C23717   1.255   7.198   0.490 -0.1043 -0.3023 -0.1922
  917MOL0     C23718   1.305   7.224   0.360 -0.3961 -0.2853  0.3472
  917MOL0     O23719   1.395   7.325   0.338  0.3347 -0.3504  0.7714
  917MOL0     C23720   1.466   7.317   0.218  0.4908  0.3157 -0.2124
  917MOL0     C23721   1.603   7.376   0.240 -0.9956 -1.2137  0.7034
  917MOL0     C23722   1.698   7.304   0.337 -0.0485 -0.1204 -0.4710
  917MOL0     C23723   1.827   7.382   0.356 -0.4321 -0.0425 -0.4991
  917MOL0     C23724   1.816   7.523   0.405  0.3435  0.8759 -0.7770
  917MOL0     C23725   1.823   7.626   0.469 -0.1921 -0.6797 -0.2138
  917MOL0     C23726   1.255   7.139   0.255  0.0751  0.1063  0.1647
  917MOL0     C23727   1.157   7.043   0.286  0.2284  0.2196  0.6585
  917MOL0     H23728   0.974   6.621   0.316  0.5528 -0.3342 -0.6524
  917MOL0     H23729   0.787   6.451   0.314  0.6615  0.2014  0.5531
  917MOL0     H23730   0.469   6.426   0.117 -1.4132  0.0119  0.1798
  917MOL0     H23731   0.642   6.388   0.163  0.3154  0.4222  0.5429
  917MOL0     H23732   0.563   6.259   0.338 -2.5669  1.4347  2.6483
  917MOL0     H23733   0.394   6.276   0.294 -0.7445  1.0827 -1.4056
  917MOL0     H23734   0.493   6.206   0.046 -1.1028 -1.9225  0.0327
  917MOL0     H23735   0.630   6.139   0.137  0.9666  1.6487 -2.1341
  917MOL0     H23736   0.471   5.975   0.241 -0.6768  0.6207  1.1938
  917MOL0     H23737   0.335   6.049   0.153 -0.0214 -0.5664  0.5749
  917MOL0     H23738   0.517   6.006  -0.048 -0.9206  1.8867  0.6260
  917MOL0     H23739   0.570   5.873   0.055 -2.4015 -3.8916 -0.5769
  917MOL0     H23740   0.301   5.916  -0.064 -0.4431 -1.8382 -1.5156
  917MOL0     H23741   0.411   5.788  -0.085 -0.2248  1.9688 -1.1048
  917MOL0     H23742   0.236   5.830   0.157 -0.1473 -1.8174  1.7507
  917MOL0     H23743   0.239   5.710   0.024 -0.3004  2.0863 -0.1844
  917MOL0     H23744   0.303   5.641   0.275 -3.7773  2.1839 -1.0334
  917MOL0     H23745   0.452   5.742   0.231 -0.2575 -0.1037  1.0574
  917MOL0     H23746   0.608   5.639   0.048 -0.3462 -1.1546 -1.2099
  917MOL0     H23747   0.617   5.320  -0.175  1.1981 -0.4845 -0.6559
  917MOL0     H23748   0.712   5.466  -0.134 -0.3206  1.4152  2.6076
  917MOL0     H23749   0.813   5.244  -0.079  2.4486 -0.5633  0.7914
  917MOL0     H23750   0.700   5.240   0.066  1.1358 -0.5811 -1.2888
  917MOL0     H23751   0.777   5.450   0.146  0.8515  1.9805 -2.2755
  917MOL0     H23752   0.903   5.460   0.026 -0.4347 -1.9308 -3.8319
  917MOL0     H23753   0.951   5.214   0.105 -1.0686  1.2076 -2.9480
  917MOL0     H23754   0.871   5.272   0.255  0.3183 -2.4893 -0.6834
  917MOL0     H23755   1.198   5.331  -0.010 -3.5270  1.6237  2.5817
  917MOL0     H23756   1.438   5.127  -0.118  2.1868  0.2596 -1.6359
  917MOL0     H23757   1.396   5.304  -0.122 -0.6239 -1.5926 -0.6346
  917MOL0     H23758   1.539   5.257  -0.044 -0.3054  1.8954 -0.2691
  917MOL0     H23759   1.704   4.853   0.097  0.4147  0.0348 -1.1596
  917MOL0     H23760   1.933   4.751   0.093 -1.7197 -0.4128  1.6942
  917MOL0     H23761   2.136   4.719   0.237 -0.1958  0.7919 -0.2523
  917MOL0     H23762   2.147   4.686   0.060  2.2637 -0.2673 -0.9397
  917MOL0     H23763   2.392   4.791   0.064  0.9178  0.3307  0.9750
  917MOL0     H23764   2.377   4.808   0.236 -2.4312  0.9976  0.0396
  917MOL0     H23765   2.373   4.546   0.074  1.1376  1.6671 -3.1254
  917MOL0     H23766   2.368   4.558   0.250  3.1910  0.4919  1.1588
  917MOL0     H23767   2.603   4.515   0.164  0.7492 -0.6173  3.4812
  917MOL0     H23768   2.602   4.676   0.105 -1.9057 -0.2709 -0.0924
  917MOL0     H23769   2.562   4.565   0.391 -2.7382  0.9351 -0.9165
  917MOL0     H23770   2.532   4.728   0.374 -0.2195 -0.0625  1.0369
  917MOL0     H23771   2.770   4.746   0.255 -2.1580 -1.3963 -1.4759
  917MOL0     H23772   2.762   4.724   0.435  0.2303  0.9350  0.1762
  917MOL0     H23773   2.943   4.591   0.301  1.1164  1.9890  0.7488
  917MOL0     H23774   2.824   4.491   0.244  2.3660 -2.6990  0.7315
  917MOL0     H23775   2.925   4.404   0.455  0.5461  0.7150 -1.6296
  917MOL0     H23776   2.746   4.415   0.458  0.2134 -0.2026  0.7303
  917MOL0     H23777   2.095   5.143   0.149 -0.9470 -0.8329  4.8206
  917MOL0     H23778   1.859   5.243   0.121  0.5171  0.8742  0.4994
  917MOL0     H23779   1.365   5.108   0.392 -2.1538 -1.2728 -0.0671
  917MOL0     H23780   1.157   5.225   0.396 -0.7677  0.4773 -0.8806
  917MOL0     H23781   0.491   6.771   0.329 -0.4490 -0.8280  0.1547
  917MOL0     H23782   0.666   6.921   0.335 -0.3634 -0.7740 -1.7011
  917MOL0     H23783   1.112   7.100   0.618 -2.6449  3.2801 -0.9712
  917MOL0     H23784   1.287   7.250   0.580  1.4070  0.0368 -0.8875
  917MOL0     H23785   1.473   7.212   0.184 -4.8547 -0.5901  0.6347
  917MOL0     H23786   1.406   7.375   0.147  1.6917  1.5356 -0.2630
  917MOL0     H23787   1.585   7.480   0.271 -1.9128  0.6830 -5.0255
  917MOL0     H23788   1.657   7.387   0.146  1.7197 -0.5664  2.2348
  917MOL0     H23789   1.728   7.206   0.299  0.1245 -1.7427  3.4017
  917MOL0     H23790   1.655   7.295   0.437 -0.7960  1.7853 -0.5940
  917MOL0     H23791   1.888   7.378   0.266  1.5073  1.1145  0.6774
  917MOL0     H23792   1.889   7.329   0.430 -2.8209  0.2221  1.8459
  917MOL0     H23793   1.837   7.721   0.517 -1.4691 -0.2166 -0.7294
  917MOL0     H23794   1.277   7.136   0.149 -1.4418 -0.7331 -0.1644
  917MOL0     H23795   1.129   6.994   0.193 -4.2554  1.9575  0.8689
  918MOL0     O23796   2.165   7.905   7.937  0.1811  0.1296  0.6846
  918MOL0     C23797   2.115   7.790   7.939  0.2559 -0.4181  0.2237
  918MOL0     O23798   1.997   7.753   8.007  0.5437  0.1784  0.6810
  918MOL0     C23799   1.917   7.856   8.054 -0.3129  0.0105 -0.4565
  918MOL0     C23800   1.863   7.951   7.975 -0.6194 -0.4324  0.3233
  918MOL0     C23801   1.774   8.047   8.029 -0.8453  0.2657 -0.2429
  918MOL0     C23802   1.727   8.027   8.156  0.5582  0.2691  0.1958
  918MOL0     O23803   1.637   8.131   8.205  0.6853  0.1999  0.4099
  918MOL0     C23804   1.688   8.197   8.316  0.1245  0.0539 -0.5117
  918MOL0     C23805   1.599   8.316   8.362  0.0094  0.1027  0.5840
  918MOL0     C23806   1.582   8.411   8.248  0.5747  0.7739  0.3427
  918MOL0     C23807   1.476   8.504   8.300 -0.0771  0.3027  0.4532
  918MOL0     C23808   1.441   8.608   8.193  0.1712 -0.1547 -0.1361
  918MOL0     C23809   1.311   8.685   8.232 -0.0645  0.3678  0.8748
  918MOL0     C23810   1.298   8.792   8.122  0.5020  0.3334 -0.7163
  918MOL0     C23811   1.201   8.894   8.173  0.0953 -1.2235 -0.3171
  918MOL0     N23812   1.064   8.845   8.209 -0.5453 -0.0581  0.3017
  918MOL0     C23813   1.008   8.759   8.305  0.0373 -0.4707 -1.1945
  918MOL0     C23814   0.876   8.784   8.305  0.4795 -0.4225  0.2879
  918MOL0     C23815   0.768   8.710   8.376  0.6391 -0.2925  0.2519
  918MOL0     C23816   0.774   8.729   8.526  0.6181 -0.2480  0.8748
  918MOL0     C23817   0.703   8.851   8.565 -1.1006  0.1561  0.0426
  918MOL0     C23818   0.701   8.860   8.720  0.2972 -1.2198 -0.3030
  918MOL0     O23819   0.654   8.988   8.770 -0.3769  0.0555 -0.3873
  918MOL0     C23820   0.523   9.022   8.752  0.5316 -0.1054  0.5153
  918MOL0     C23821   0.432   9.050   8.859  0.2883  0.2851  0.1787
  918MOL0     C23822   0.298   9.094   8.838 -0.7029  0.3974 -0.1979
  918MOL0     C23823   0.215   9.114   8.959  0.4449 -0.8914 -0.3109
  918MOL0     C23824   0.258   9.131   8.713  0.8946  0.0371 -0.8712
  918MOL0     C23825   0.124   9.189   8.702 -0.6738 -0.5771 -0.2032
  918MOL0     O23826   0.111   9.294   8.612  0.5490  0.2740  0.5048
  918MOL0     C23827  -0.007   9.359   8.578 -0.2281 -0.5838  0.2954
  918MOL0     C23828  -0.017   9.392   8.445 -0.3613 -0.0873 -0.3753
  918MOL0     C23829  -0.129   9.462   8.406 -0.0367 -1.0835  0.1827
  918MOL0     C23830  -0.231   9.500   8.496 -0.1654 -0.0173 -0.7543
  918MOL0     O23831  -0.340   9.580   8.466  0.1605  0.0967  0.1003
  918MOL0     C23832  -0.433   9.530   8.368  0.0016 -0.1968  0.2085
  918MOL0     C23833  -0.533   9.428   8.424 -0.1367 -0.2531 -0.1680
  918MOL0     C23834  -0.612   9.488   8.536 -0.3419  0.1587 -0.0049
  918MOL0     C23835  -0.708   9.396   8.605 -0.0772  0.1009  0.1410
  918MOL0     C23836  -0.789   9.464   8.716  0.4277 -0.3283 -0.1946
  918MOL0     C23837  -0.905   9.371   8.747 -0.0835  0.0084 -0.2373
  918MOL0     C23838  -0.863   9.257   8.852  0.1609 -0.5811 -0.4054
  918MOL0     C23839  -0.987   9.181   8.903  0.0747  0.2991 -0.4457
  918MOL0    Cl23840  -1.099   9.295   8.966 -0.2764  0.1789  0.2376
  918MOL0     C23841  -0.221   9.451   8.631  0.3745 -1.3399  0.1391
  918MOL0     C23842  -0.110   9.372   8.668  0.5791 -0.4672  0.4420
  918MOL0     O23843   0.026   9.127   8.747  0.0342 -0.1033  0.1477
  918MOL0     C23844   0.358   9.132   8.613 -0.2246  0.1275 -0.3486
  918MOL0     C23845   0.487   9.072   8.632  0.5337  0.3530  0.3454
  918MOL0     N23846   0.849   8.889   8.220 -0.2705 -0.4967  1.2504
  918MOL0     N23847   0.965   8.923   8.168 -0.6236  0.1142 -0.3050
  918MOL0     C23848   1.775   7.923   8.237  1.4011 -0.0654  0.3871
  918MOL0     C23849   1.866   7.834   8.185 -0.1778  0.6677  0.7712
  918MOL0     C23850   2.192   7.691   7.866 -1.1757  0.1920 -0.3687
  918MOL0     C23851   2.146   7.565   7.865  0.3525  0.0554  0.1872
  918MOL0     C23852   2.215   7.464   7.799  0.2370 -0.5021  0.1524
  918MOL0     C23853   2.334   7.500   7.730 -0.1743  0.1167 -0.7827
  918MOL0     O23854   2.407   7.416   7.646 -0.1519  0.2788  0.1156
  918MOL0     C23855   2.411   7.279   7.653  0.4608  0.4799  0.0395
  918MOL0     C23856   2.540   7.234   7.581  0.0791 -0.1006  0.0053
  918MOL0     C23857   2.559   7.079   7.598  0.7759 -0.2170 -0.3258
  918MOL0     C23858   2.698   7.037   7.538 -0.1292 -0.0277 -0.1866
  918MOL0     C23859   2.703   6.897   7.500  0.0084  0.4938 -0.3613
  918MOL0     C23860   2.688   6.782   7.463  0.3257  0.6639 -0.7121
  918MOL0     C23861   2.378   7.624   7.733  0.1004 -0.8164  0.3851
  918MOL0     C23862   2.310   7.722   7.797  0.4922 -0.1039 -0.6866
  918MOL0     H23863   1.889   7.951   7.869  1.1586 -0.5585  0.7335
  918MOL0     H23864   1.741   8.118   7.954 -0.7604 -1.8539 -2.4436
  918MOL0     H23865   1.692   8.136   8.407 -2.0108  0.5301 -0.0460
  918MOL0     H23866   1.786   8.234   8.285  0.1959  0.6551  0.3949
  918MOL0     H23867   1.510   8.265   8.400  1.5629 -3.0334  0.3507
  918MOL0     H23868   1.651   8.365   8.445 -0.8159  0.0140  1.1668
  918MOL0     H23869   1.675   8.466   8.231  0.3693  1.0936  0.2283
  918MOL0     H23870   1.550   8.357   8.159 -1.2194  1.3728  0.5793
  918MOL0     H23871   1.391   8.442   8.330 -0.1023  0.7153  1.2744
  918MOL0     H23872   1.489   8.562   8.392 -0.3811  0.3804  0.4479
  918MOL0     H23873   1.520   8.683   8.182 -2.6432  3.4709  2.0104
  918MOL0     H23874   1.430   8.554   8.098 -0.1155 -3.5358  1.6599
  918MOL0     H23875   1.220   8.624   8.226 -1.1782  2.0285  0.3711
  918MOL0     H23876   1.318   8.732   8.330  0.8330  1.2862  0.3909
  918MOL0     H23877   1.394   8.838   8.099  1.6938  0.0224  2.9054
  918MOL0     H23878   1.249   8.742   8.038 -1.2026  0.7398 -0.0101
  918MOL0     H23879   1.198   8.976   8.101  0.0413  0.9824  2.0495
  918MOL0     H23880   1.240   8.937   8.266 -1.3463 -0.9693  0.1981
  918MOL0     H23881   1.054   8.679   8.363 -0.2398  0.8592  0.9588
  918MOL0     H23882   0.675   8.742   8.329  0.7553  0.7370  0.6889
  918MOL0     H23883   0.772   8.603   8.357  1.0897 -0.5255  1.5090
  918MOL0     H23884   0.880   8.729   8.554  0.6466 -2.6535  0.9673
  918MOL0     H23885   0.737   8.641   8.580  3.4629 -1.2879  1.2954
  918MOL0     H23886   0.602   8.845   8.523 -0.4504  0.1930 -1.5928
  918MOL0     H23887   0.746   8.944   8.527 -1.6372  0.8498  1.0594
  918MOL0     H23888   0.804   8.840   8.752  0.3627 -1.3433 -0.5919
  918MOL0     H23889   0.637   8.790   8.774 -3.5461  1.3231 -1.1245
  918MOL0     H23890   0.458   9.022   8.961 -4.2625 -2.4979  0.8952
  918MOL0     H23891   0.131   9.045   8.946 -0.7392  0.8302 -2.6477
  918MOL0     H23892   0.281   9.087   9.041  0.8344 -2.5307 -1.1228
  918MOL0     H23893   0.184   9.219   8.959  2.2210 -0.2332  2.9678
  918MOL0     H23894   0.051   9.363   8.366 -1.5021 -1.9992 -0.7035
  918MOL0     H23895  -0.144   9.489   8.302 -1.6851  1.3684  0.9869
  918MOL0     H23896  -0.483   9.620   8.329 -1.5653 -1.5266 -0.9894
  918MOL0     H23897  -0.384   9.482   8.283  0.7287 -1.7512  1.4508
  918MOL0     H23898  -0.607   9.394   8.352 -2.0707  3.4030 -0.1694
  918MOL0     H23899  -0.477   9.351   8.478  0.0340  0.6015  0.9371
  918MOL0     H23900  -0.669   9.567   8.487  0.3393  0.1306 -0.8606
  918MOL0     H23901  -0.539   9.534   8.603  1.0386  0.8299 -1.9171
  918MOL0     H23902  -0.776   9.362   8.526 -1.0411 -0.2969  1.1173
  918MOL0     H23903  -0.657   9.304   8.634 -0.2859 -0.6385 -1.6490
  918MOL0     H23904  -0.822   9.561   8.678  2.1355  0.5709  0.5245
  918MOL0     H23905  -0.737   9.482   8.811 -0.6469  1.2063  0.1379
  918MOL0     H23906  -0.990   9.430   8.783  0.7359  2.7080 -2.3521
  918MOL0     H23907  -0.934   9.317   8.657  3.2531 -1.4535 -0.5957
  918MOL0     H23908  -0.815   9.310   8.934  0.9724  0.1421 -1.3363
  918MOL0     H23909  -0.794   9.180   8.818  2.2320  0.5856  0.9418
  918MOL0     H23910  -0.970   9.108   8.983 -2.2152  1.3376  1.0951
  918MOL0     H23911  -1.045   9.136   8.821 -1.9277  1.4983  0.2411
  918MOL0     H23912  -0.304   9.480   8.694  0.9703  0.3017  0.2330
  918MOL0     H23913  -0.088   9.331   8.766  1.4281 -0.5192  0.2391
  918MOL0     H23914   0.339   9.180   8.517 -3.4246 -0.4742 -0.1489
  918MOL0     H23915   0.551   9.069   8.545 -1.8854  3.3953 -1.8040
  918MOL0     H23916   1.723   7.906   8.331  0.2088  3.6127  0.5797
  918MOL0     H23917   1.893   7.747   8.244  0.7106  0.5067  0.1502
  918MOL0     H23918   2.057   7.534   7.919  0.0534 -2.1218 -1.4080
  918MOL0     H23919   2.181   7.362   7.814  0.7472 -0.8035 -0.7083
  918MOL0     H23920   2.393   7.244   7.755 -1.5073  1.0795 -0.0542
  918MOL0     H23921   2.330   7.230   7.598  2.1071 -1.5698 -0.6656
  918MOL0     H23922   2.628   7.282   7.625 -0.3423  2.5753 -1.8083
  918MOL0     H23923   2.540   7.256   7.474  1.4463 -2.6522 -0.5836
  918MOL0     H23924   2.472   7.036   7.548  1.1686  1.4301 -2.6098
  918MOL0     H23925   2.565   7.057   7.705  1.5007  1.3928  0.0036
  918MOL0     H23926   2.787   7.068   7.592  0.4680 -2.3618  0.2785
  918MOL0     H23927   2.713   7.099   7.449  0.8583  0.3801  0.2481
  918MOL0     H23928   2.672   6.680   7.435  3.0051 -0.4920  1.4685
  918MOL0     H23929   2.470   7.635   7.676  1.1534 -0.6752  2.0380
  918MOL0     H23930   2.354   7.820   7.814  0.6201 -0.0010 -1.5732
  919MOL0     O23931   5.808   4.852   1.470 -0.4857  0.3786 -0.0144
  919MOL0     C23932   5.916   4.789   1.473  0.6763 -0.6697 -0.3057
  919MOL0     O23933   5.937   4.665   1.530 -0.2069  0.3401 -0.2320
  919MOL0     C23934   5.825   4.599   1.579  0.9110 -0.2807  0.3241
  919MOL0     C23935   5.721   4.658   1.652  0.7321  0.5655  0.3509
  919MOL0     C23936   5.599   4.593   1.677 -0.6558 -0.0862 -0.5016
  919MOL0     C23937   5.585   4.461   1.630  0.3831 -0.2007 -0.0432
  919MOL0     O23938   5.464   4.391   1.620  0.3591 -0.2461 -0.0949
  919MOL0     C23939   5.357   4.417   1.715 -0.4259 -0.0109  0.3808
  919MOL0     C23940   5.226   4.338   1.657 -0.8496  0.0192  1.0655
  919MOL0     C23941   5.086   4.379   1.712  0.4359 -0.0065 -0.4120
  919MOL0     C23942   4.988   4.299   1.629  0.6844  0.1395  0.5176
  919MOL0     C23943   4.837   4.307   1.689 -0.1663  0.2767 -0.1432
  919MOL0     C23944   4.731   4.240   1.602 -0.2229 -0.0346 -0.3264
  919MOL0     C23945   4.589   4.253   1.660  0.0021  0.1271  0.1966
  919MOL0     C23946   4.493   4.154   1.586 -0.5518 -0.8024 -0.4901
  919MOL0     N23947   4.359   4.175   1.644 -0.3316 -0.4843  0.2414
  919MOL0     C23948   4.279   4.283   1.604  0.5009 -0.1194 -0.5596
  919MOL0     C23949   4.156   4.262   1.667  0.1949  0.2095  0.5824
  919MOL0     C23950   4.023   4.342   1.660 -0.3396 -0.3713 -0.0595
  919MOL0     C23951   3.930   4.292   1.767 -0.2936  0.4277  0.3725
  919MOL0     C23952   3.850   4.164   1.732 -0.5187 -0.0219  0.2176
  919MOL0     C23953   3.798   4.099   1.858 -0.2800 -0.1438 -0.0076
  919MOL0     O23954   3.731   3.976   1.840  0.5243  0.0682  0.3408
  919MOL0     C23955   3.655   3.910   1.937  0.2972  0.0442 -0.1922
  919MOL0     C23956   3.649   3.945   2.081  0.3249  0.2231  1.2162
  919MOL0     C23957   3.572   3.873   2.173  0.0143  0.0333  0.1830
  919MOL0     C23958   3.573   3.931   2.308 -0.4856  0.1527  0.6428
  919MOL0     C23959   3.494   3.765   2.128 -0.4637 -0.0059 -0.1824
  919MOL0     C23960   3.420   3.677   2.209 -0.6703  0.1342  0.3293
  919MOL0     O23961   3.330   3.591   2.151 -0.4303 -0.1379 -0.4686
  919MOL0     C23962   3.256   3.498   2.222 -0.7920 -0.4097 -0.1251
  919MOL0     C23963   3.123   3.525   2.257 -0.9205  0.0012 -0.1498
  919MOL0     C23964   3.042   3.450   2.333  1.2972  0.4321 -0.4043
  919MOL0     C23965   3.084   3.329   2.374 -0.5542  0.5669 -0.5309
  919MOL0     O23966   2.990   3.251   2.435 -0.2787  0.0592 -0.2295
  919MOL0     C23967   3.002   3.106   2.417  0.0447  0.3097  0.2733
  919MOL0     C23968   2.855   3.041   2.416  0.2300  0.8152 -0.0574
  919MOL0     C23969   2.862   2.894   2.391 -0.3587  0.7728 -0.7261
  919MOL0     C23970   2.738   2.821   2.358  0.4886 -0.0658  0.0434
  919MOL0     C23971   2.762   2.672   2.334 -0.3794  0.1665 -0.0783
  919MOL0     C23972   2.636   2.608   2.283  0.4701  0.1996 -0.0935
  919MOL0     C23973   2.646   2.451   2.264 -0.0935 -0.1618 -1.1488
  919MOL0     C23974   2.540   2.399   2.173  0.5522 -0.5718 -0.7374
  919MOL0    Cl23975   2.518   2.225   2.195  0.1248 -0.5340 -0.3544
  919MOL0     C23976   3.217   3.286   2.340  0.0390 -0.1554  0.3414
  919MOL0     C23977   3.303   3.374   2.269  0.7135  0.9524  0.0430
  919MOL0     O23978   3.436   3.686   2.330  0.0900  0.5845  0.5735
  919MOL0     C23979   3.508   3.733   1.992  0.1284  0.1685 -0.0911
  919MOL0     C23980   3.588   3.800   1.902  0.0059  0.3247 -0.1533
  919MOL0     N23981   4.173   4.144   1.746  0.2722  0.1129  0.4032
  919MOL0     N23982   4.290   4.090   1.724  0.6018 -0.3184 -0.0276
  919MOL0     C23983   5.697   4.396   1.570  0.2790  0.2669 -0.3457
  919MOL0     C23984   5.815   4.466   1.539 -0.2858  0.0277 -0.4438
  919MOL0     C23985   6.040   4.843   1.404 -0.2866  0.2432 -0.7194
  919MOL0     C23986   6.033   4.919   1.290  0.1898 -0.3258  0.3582
  919MOL0     C23987   6.146   4.981   1.230 -0.3386  0.1654  0.6286
  919MOL0     C23988   6.277   4.969   1.285  0.4777  0.2492  0.4511
  919MOL0     O23989   6.389   5.008   1.218  0.3143  0.0752 -0.1169
  919MOL0     C23990   6.386   5.135   1.144  0.1285  0.0652  0.2658
  919MOL0     C23991   6.527   5.167   1.107 -0.0447 -0.5898  1.3773
  919MOL0     C23992   6.621   5.231   1.214  1.4620 -0.0071 -0.7119
  919MOL0     C23993   6.759   5.285   1.159 -0.2010  0.2020  0.6521
  919MOL0     C23994   6.841   5.354   1.264 -0.4147 -0.4643 -0.0308
  919MOL0     C23995   6.885   5.405   1.361 -0.5238  0.3265 -0.0040
  919MOL0     C23996   6.288   4.881   1.394  0.4323 -0.1004 -0.6656
  919MOL0     C23997   6.170   4.829   1.459  0.5015  0.1653  0.1109
  919MOL0     H23998   5.725   4.755   1.699 -1.8544  1.2117 -0.5996
  919MOL0     H23999   5.522   4.653   1.726 -0.1750 -1.1240  1.6408
  919MOL0     H24000   5.368   4.380   1.817 -2.2507  1.0006  0.9767
  919MOL0     H24001   5.348   4.526   1.711  0.6736  0.1753  1.9056
  919MOL0     H24002   5.228   4.345   1.548  2.6777  0.6868  1.0744
  919MOL0     H24003   5.234   4.232   1.680  0.6623 -0.4659 -1.3148
  919MOL0     H24004   5.075   4.351   1.817 -0.1134  1.8362  0.0749
  919MOL0     H24005   5.057   4.483   1.693  1.5197  0.7200  1.5318
  919MOL0     H24006   4.987   4.329   1.523  1.5728 -1.5311  0.0006
  919MOL0     H24007   5.017   4.194   1.630  0.3236  0.0305 -0.1164
  919MOL0     H24008   4.840   4.257   1.787 -3.0802 -1.4359 -0.8235
  919MOL0     H24009   4.818   4.414   1.696 -3.3422 -0.2935  2.9948
  919MOL0     H24010   4.738   4.281   1.501 -1.2864 -1.9798 -1.2528
  919MOL0     H24011   4.751   4.134   1.590 -0.1813  0.1741 -2.2978
  919MOL0     H24012   4.598   4.222   1.765  2.6063 -2.3160 -0.6020
  919MOL0     H24013   4.558   4.357   1.646  1.9813  0.7694  0.2783
  919MOL0     H24014   4.537   4.056   1.607  1.9898  1.1648  4.9658
  919MOL0     H24015   4.499   4.173   1.478  1.3896  1.5153 -0.0524
  919MOL0     H24016   4.308   4.365   1.540 -0.4515  1.2457  0.6792
  919MOL0     H24017   4.035   4.449   1.680  0.5460 -0.6658  1.0769
  919MOL0     H24018   3.974   4.345   1.562  1.6265  1.2728 -1.0889
  919MOL0     H24019   3.852   4.365   1.787 -0.1825  0.4571  0.7143
  919MOL0     H24020   3.990   4.286   1.858  1.0465  0.3899 -0.4828
  919MOL0     H24021   3.927   4.102   1.685  1.1389  2.2350 -0.2690
  919MOL0     H24022   3.773   4.182   1.657 -0.1212 -3.7434 -1.2773
  919MOL0     H24023   3.732   4.176   1.901 -1.2500  0.1979 -1.9992
  919MOL0     H24024   3.882   4.081   1.926 -1.7050 -0.5741  1.7079
  919MOL0     H24025   3.706   4.030   2.118  1.6336  0.1729 -0.5260
  919MOL0     H24026   3.590   4.039   2.305 -0.2666  0.1246  0.9419
  919MOL0     H24027   3.468   3.935   2.339 -0.4379  1.7884  0.6565
  919MOL0     H24028   3.635   3.873   2.377  2.2626  0.2124 -1.5949
  919MOL0     H24029   3.076   3.617   2.225 -4.1358 -1.3444  0.3575
  919MOL0     H24030   2.941   3.481   2.361  1.9194  3.2396 -0.9488
  919MOL0     H24031   3.052   3.090   2.320  1.6029  5.4588 -0.0491
  919MOL0     H24032   3.052   3.066   2.506 -2.0306  2.3490  2.4943
  919MOL0     H24033   2.808   3.057   2.513 -0.7039 -2.8960  0.2632
  919MOL0     H24034   2.810   3.094   2.332  0.4978  0.7211 -0.2637
  919MOL0     H24035   2.924   2.847   2.467 -0.7876  0.6186 -0.4686
  919MOL0     H24036   2.911   2.889   2.293  1.4619  1.3505  0.1232
  919MOL0     H24037   2.666   2.821   2.441 -0.6234 -0.7483 -0.8875
  919MOL0     H24038   2.687   2.867   2.273  0.1996 -1.5999 -0.6444
  919MOL0     H24039   2.802   2.629   2.427  0.3902  0.9417 -0.0456
  919MOL0     H24040   2.849   2.657   2.270  0.3617  1.2369  0.6587
  919MOL0     H24041   2.558   2.627   2.358  1.1214  0.1971  0.6042
  919MOL0     H24042   2.608   2.652   2.187  1.9626  0.1245 -0.5938
  919MOL0     H24043   2.625   2.384   2.348  1.0679 -0.5441 -1.1425
  919MOL0     H24044   2.742   2.430   2.216  0.7482  3.4450 -1.3672
  919MOL0     H24045   2.573   2.405   2.069 -2.5158 -0.9708 -1.8299
  919MOL0     H24046   2.448   2.458   2.172  0.9856  0.1145 -1.4089
  919MOL0     H24047   3.250   3.190   2.377  0.0774 -1.3004 -2.4178
  919MOL0     H24048   3.399   3.329   2.247  1.1387  2.0648 -0.4864
  919MOL0     H24049   3.456   3.654   1.939  2.3835 -0.9115 -0.8324
  919MOL0     H24050   3.586   3.764   1.799 -2.0622  0.8381 -0.3279
  919MOL0     H24051   5.683   4.306   1.511 -2.0222 -1.5696  2.7182
  919MOL0     H24052   5.897   4.421   1.485 -1.0749 -0.8844 -0.9210
  919MOL0     H24053   5.932   4.924   1.251  0.3710 -3.5743 -0.8577
  919MOL0     H24054   6.128   5.051   1.150 -0.9881 -1.0686 -0.3296
  919MOL0     H24055   6.313   5.142   1.063 -0.9084 -2.0397  0.9491
  919MOL0     H24056   6.357   5.210   1.219  0.2774 -0.9206  1.3497
  919MOL0     H24057   6.521   5.233   1.020 -2.1958 -1.1736  1.0317
  919MOL0     H24058   6.565   5.071   1.069 -1.4870  0.0747 -2.0521
  919MOL0     H24059   6.647   5.161   1.294 -0.5653  0.0263  0.0225
  919MOL0     H24060   6.564   5.316   1.250 -1.5091 -1.2955 -1.9914
  919MOL0     H24061   6.746   5.361   1.081  0.3245 -0.8358 -0.4605
  919MOL0     H24062   6.818   5.198   1.131 -2.7082 -1.2718 -0.4473
  919MOL0     H24063   6.913   5.468   1.443  0.8576  1.1728 -1.0771
  919MOL0     H24064   6.388   4.859   1.431  0.2234  0.0303 -0.0026
  919MOL0     H24065   6.181   4.761   1.543 -1.2087 -1.3283 -0.8056
  920MOL0     O24066   8.682  11.234  10.140 -0.0660  0.2678  0.6640
  920MOL0     C24067   8.722  11.154  10.222  0.5670 -0.1177 -0.3963
  920MOL0     O24068   8.647  11.068  10.301 -0.1748  0.6798  0.4875
  920MOL0     C24069   8.513  11.084  10.286 -0.1306  0.3250 -0.7257
  920MOL0     C24070   8.438  11.163  10.386 -0.4982 -0.3772 -0.1214
  920MOL0     C24071   8.304  11.190  10.363  0.2833 -0.0712  0.2424
  920MOL0     C24072   8.230  11.133  10.257  0.3342  0.1795 -0.3125
  920MOL0     O24073   8.102  11.170  10.243  0.1848 -0.9761 -0.4115
  920MOL0     C24074   8.039  11.135  10.120 -1.7059 -0.1137 -1.0308
  920MOL0     C24075   7.902  11.194  10.093 -0.5845 -0.6688 -0.8499
  920MOL0     C24076   7.829  11.122   9.978 -0.0087  0.0400  0.9494
  920MOL0     C24077   7.735  11.009  10.014  0.7524 -0.5427 -0.3945
  920MOL0     C24078   7.669  10.948   9.892  0.2590  0.9383  0.7150
  920MOL0     C24079   7.546  10.872   9.945 -1.1820  0.2615  0.0288
  920MOL0     C24080   7.482  10.801   9.834  0.7747 -0.1205  0.6385
  920MOL0     C24081   7.402  10.670   9.880  0.8175 -0.6625 -0.6678
  920MOL0     N24082   7.296  10.642   9.782  0.9300 -0.5239 -0.7387
  920MOL0     C24083   7.318  10.636   9.648 -0.2672  0.3005 -0.2311
  920MOL0     C24084   7.189  10.625   9.602  0.4530  0.1491  0.6284
  920MOL0     C24085   7.144  10.609   9.459  0.0367  0.2956 -0.0856
  920MOL0     C24086   7.062  10.722   9.391 -0.6993 -0.2899 -0.5386
  920MOL0     C24087   6.931  10.760   9.474  0.0911 -0.0367  0.4742
  920MOL0     C24088   6.830  10.828   9.378  0.2450  0.6027  0.3918
  920MOL0     O24089   6.744  10.905   9.463 -0.1193 -0.0417 -0.1840
  920MOL0     C24090   6.615  10.863   9.478  0.9802 -0.6010 -0.3115
  920MOL0     C24091   6.525  10.962   9.525  0.4549  0.2019 -0.3902
  920MOL0     C24092   6.395  10.937   9.558  0.2496  0.3062 -0.4135
  920MOL0     C24093   6.302  11.051   9.606  0.0034  1.2020 -0.5594
  920MOL0     C24094   6.344  10.804   9.535 -0.8055  0.0471 -0.8593
  920MOL0     C24095   6.208  10.762   9.552  0.1333  0.5954 -0.3667
  920MOL0     O24096   6.189  10.630   9.601  0.5768 -0.6582 -0.1827
  920MOL0     C24097   6.071  10.562   9.615 -0.1901  0.4091  0.7375
  920MOL0     C24098   5.945  10.611   9.574 -0.6527  0.0015  0.0976
  920MOL0     C24099   5.825  10.538   9.605  0.5861  0.2260  0.5683
  920MOL0     C24100   5.841  10.406   9.659  0.4338  0.1690  0.8773
  920MOL0     O24101   5.743  10.318   9.705  0.1679 -0.9620  0.1024
  920MOL0     C24102   5.606  10.369   9.722  0.3110 -0.2815 -0.0948
  920MOL0     C24103   5.534  10.267   9.812  0.3947 -0.0196  0.3162
  920MOL0     C24104   5.380  10.284   9.796 -0.1106 -0.5092 -0.0339
  920MOL0     C24105   5.323  10.179   9.904  0.4303  0.3706 -0.4191
  920MOL0     C24106   5.170  10.151   9.920  0.1427 -0.1652 -0.1449
  920MOL0     C24107   5.139  10.012   9.992  0.1131 -0.2318  0.7191
  920MOL0     C24108   5.000   9.997  10.043  0.1324 -0.3548 -0.3689
  920MOL0     C24109   4.897   9.957   9.932 -0.6794  0.0783 -0.3017
  920MOL0    Cl24110   4.734   9.944   9.994 -0.2543 -0.1191 -0.8354
  920MOL0     C24111   5.968  10.364   9.690 -0.2056 -0.7111 -0.2774
  920MOL0     C24112   6.082  10.438   9.663  0.1259 -0.6036 -0.6309
  920MOL0     O24113   6.118  10.833   9.510 -0.0809  0.1383 -0.2458
  920MOL0     C24114   6.439  10.706   9.492  0.4357 -0.0618 -0.6122
  920MOL0     C24115   6.572  10.729   9.468  0.7457 -0.2146  0.2038
  920MOL0     N24116   7.096  10.628   9.702  0.5463 -0.1242 -0.3734
  920MOL0     N24117   7.160  10.636   9.811 -0.3808  0.3684  0.7826
  920MOL0     C24118   8.300  11.057  10.167  0.2697  1.0093  0.1677
  920MOL0     C24119   8.442  11.041  10.173 -0.8000  0.2195  0.0736
  920MOL0     C24120   8.866  11.155  10.250 -0.3254  0.2779 -0.5925
  920MOL0     C24121   8.921  11.041  10.316  0.4405 -0.6813  0.3214
  920MOL0     C24122   9.063  11.024  10.336 -0.3196 -1.5544  0.4315
  920MOL0     C24123   9.152  11.137  10.304  0.1441 -0.4341  0.5281
  920MOL0     O24124   9.288  11.131  10.314  0.5601 -0.0653  0.7172
  920MOL0     C24125   9.352  11.030  10.378  0.2021 -0.7612 -0.3092
  920MOL0     C24126   9.477  11.013  10.296 -0.2701  0.5189  0.1441
  920MOL0     C24127   9.570  10.912  10.367 -0.7081 -0.1781 -0.2202
  920MOL0     C24128   9.688  10.868  10.269  0.1072 -0.8500  0.4173
  920MOL0     C24129   9.633  10.790  10.159  0.3211 -0.0254 -0.2982
  920MOL0     C24130   9.559  10.729  10.084  0.1317  0.2118  0.8195
  920MOL0     C24131   9.081  11.254  10.260 -0.7243 -0.3018  0.3558
  920MOL0     C24132   8.946  11.265  10.230 -0.1625  0.2152 -0.6352
  920MOL0     H24133   8.498  11.188  10.474 -0.8819  3.9450 -0.8499
  920MOL0     H24134   8.255  11.256  10.435  1.1400  1.0041 -0.1429
  920MOL0     H24135   8.106  11.169  10.041 -1.2613  0.4782 -0.4088
  920MOL0     H24136   8.033  11.026  10.109 -1.7606  0.0673 -3.1781
  920MOL0     H24137   7.838  11.210  10.180 -1.7127  3.0690 -2.1690
  920MOL0     H24138   7.926  11.300  10.078 -0.2827 -0.7243 -0.7609
  920MOL0     H24139   7.773  11.200   9.926 -0.4971 -0.3622  0.8663
  920MOL0     H24140   7.913  11.085   9.919  2.2425  3.0857  1.9523
  920MOL0     H24141   7.797  10.929  10.056  0.7411  0.0658  0.8153
  920MOL0     H24142   7.663  11.047  10.087  0.7415  2.4337 -1.8139
  920MOL0     H24143   7.631  11.025   9.824  0.3491 -0.5120 -1.0171
  920MOL0     H24144   7.735  10.880   9.838 -1.0618  0.7865 -0.7467
  920MOL0     H24145   7.592  10.800  10.012 -0.8511  1.0090  0.6226
  920MOL0     H24146   7.482  10.946   9.994  1.4289  2.2855  0.6039
  920MOL0     H24147   7.413  10.870   9.783  2.1361  0.3803 -0.5768
  920MOL0     H24148   7.550  10.777   9.753  2.8161 -1.5658  2.6546
  920MOL0     H24149   7.357  10.709   9.972  1.4941  0.0846 -0.6380
  920MOL0     H24150   7.468  10.584   9.895  2.9034  1.0636  0.7020
  920MOL0     H24151   7.406  10.663   9.590  0.8175  1.2782  1.7796
  920MOL0     H24152   7.230  10.581   9.398 -0.4468 -0.1981 -0.5548
  920MOL0     H24153   7.068  10.529   9.457 -3.2598  3.1665 -2.6302
  920MOL0     H24154   7.031  10.689   9.292  0.0947 -1.4133 -0.4253
  920MOL0     H24155   7.123  10.813   9.387 -1.3091  0.0748 -2.0180
  920MOL0     H24156   6.960  10.825   9.557  0.8115 -1.7271  1.6068
  920MOL0     H24157   6.882  10.670   9.513 -0.3322 -0.2347 -0.4738
  920MOL0     H24158   6.777  10.757   9.314 -1.5345  1.1143  1.2269
  920MOL0     H24159   6.893  10.891   9.316  1.5511 -1.9392 -1.0372
  920MOL0     H24160   6.570  11.060   9.537  0.4796 -0.0678  2.4118
  920MOL0     H24161   6.363  11.117   9.668  0.0544  0.3528  0.3259
  920MOL0     H24162   6.256  11.101   9.521  1.2832  2.2115 -0.6982
  920MOL0     H24163   6.220  11.013   9.667  0.6837  0.7583  0.0943
  920MOL0     H24164   5.930  10.714   9.543  0.2868  0.7979  2.1359
  920MOL0     H24165   5.724  10.574   9.588  0.5466  0.3333  1.0178
  920MOL0     H24166   5.609  10.469   9.766  0.5359 -0.0558 -0.6112
  920MOL0     H24167   5.554  10.380   9.626  0.7188 -0.1925 -0.3108
  920MOL0     H24168   5.569  10.171   9.772  1.3650  1.4146 -2.5819
  920MOL0     H24169   5.569  10.270   9.915  0.8756 -0.5915  0.1766
  920MOL0     H24170   5.360  10.253   9.693 -1.2338 -1.2413  0.3827
  920MOL0     H24171   5.335  10.382   9.810 -0.8278 -0.6301 -1.3221
  920MOL0     H24172   5.358  10.079   9.876 -0.1257  0.0462  0.0221
  920MOL0     H24173   5.356  10.196  10.006  1.1130 -3.9470  0.2638
  920MOL0     H24174   5.116  10.150   9.825 -0.6212  2.6612  0.1907
  920MOL0     H24175   5.133  10.241   9.969  0.6696 -0.1291  0.1928
  920MOL0     H24176   5.150   9.932   9.919 -1.3034  2.4370 -2.7117
  920MOL0     H24177   5.210  10.004  10.075  4.4788 -0.6625 -2.6642
  920MOL0     H24178   4.987  10.092  10.096  0.9820 -0.6665  0.4219
  920MOL0     H24179   4.997   9.926  10.126  2.6646  1.4709  1.4415
  920MOL0     H24180   4.928   9.869   9.875 -0.9031  0.3255 -0.8103
  920MOL0     H24181   4.897  10.024   9.846  0.1481 -1.2710 -1.3965
  920MOL0     H24182   5.986  10.266   9.733  2.3901 -0.7205 -1.2005
  920MOL0     H24183   6.182  10.406   9.690 -0.1795  0.8613  2.7063
  920MOL0     H24184   6.392  10.611   9.469  0.3281 -0.3771  0.8291
  920MOL0     H24185   6.634  10.646   9.435 -0.8462 -0.9803 -1.0494
  920MOL0     H24186   8.257  11.018  10.075  0.6843 -1.9717  1.1362
  920MOL0     H24187   8.490  10.995  10.087  1.7597  1.3226  0.8110
  920MOL0     H24188   8.856  10.956  10.336 -1.7087  0.6669 -0.5396
  920MOL0     H24189   9.104  10.929  10.368 -0.0678 -1.1780  1.2400
  920MOL0     H24190   9.378  11.061  10.479  1.3646 -2.3267 -0.1022
  920MOL0     H24191   9.301  10.934  10.379  0.8043 -1.0823 -0.2513
  920MOL0     H24192   9.524  11.111  10.300 -0.4675  0.5805  3.5444
  920MOL0     H24193   9.446  10.988  10.194  1.3910 -2.5320  0.2640
  920MOL0     H24194   9.509  10.827  10.399 -0.5981 -0.2560 -0.2142
  920MOL0     H24195   9.623  10.960  10.450  1.8690  0.5857 -2.1764
  920MOL0     H24196   9.751  10.799  10.326 -0.1358 -2.8636 -1.5965
  920MOL0     H24197   9.751  10.950  10.234 -2.2691  1.0152  0.2760
  920MOL0     H24198   9.509  10.674  10.006  0.8226  0.4121  0.2205
  920MOL0     H24199   9.146  11.341  10.252  0.4720 -1.2524 -0.6445
  920MOL0     H24200   8.894  11.354  10.195 -2.9020  0.4369  3.3055
  921MOL0     O24201   6.630   7.772   0.643  0.5520  1.2028  0.2628
  921MOL0     C24202   6.701   7.734   0.736 -0.8078 -0.0944  0.2745
  921MOL0     O24203   6.660   7.656   0.839  0.3614  0.1963 -0.4184
  921MOL0     C24204   6.532   7.608   0.825 -0.6792 -0.6145  0.2448
  921MOL0     C24205   6.507   7.481   0.788  0.5934  0.4936 -0.2158
  921MOL0     C24206   6.373   7.441   0.771  0.8791 -0.4253  0.6930
  921MOL0     C24207   6.264   7.524   0.793  0.6770  0.3010 -0.3000
  921MOL0     O24208   6.137   7.469   0.775 -0.4464 -0.8670  0.2952
  921MOL0     C24209   6.027   7.541   0.818 -0.3127  0.1937 -0.0930
  921MOL0     C24210   5.903   7.466   0.789 -1.0770 -0.2473 -0.0787
  921MOL0     C24211   5.775   7.539   0.781  0.2949 -0.4772 -0.2691
  921MOL0     C24212   5.666   7.434   0.732 -0.7572 -0.0436  0.0863
  921MOL0     C24213   5.528   7.502   0.719 -0.0633 -0.6434  0.3723
  921MOL0     C24214   5.422   7.393   0.704  0.0275 -0.4860 -0.6642
  921MOL0     C24215   5.276   7.444   0.721 -0.4975  0.2352 -0.4002
  921MOL0     C24216   5.163   7.322   0.733 -0.8897 -0.8284 -0.0456
  921MOL0     N24217   5.030   7.376   0.775 -0.8171  0.6731 -0.3756
  921MOL0     C24218   4.924   7.397   0.694 -0.6058 -0.0147 -0.8311
  921MOL0     C24219   4.825   7.443   0.772  0.2872  0.8686  0.8240
  921MOL0     C24220   4.692   7.460   0.705 -0.0982  0.4076 -0.6365
  921MOL0     C24221   4.579   7.441   0.803 -0.1734  0.7356  0.0728
  921MOL0     C24222   4.439   7.411   0.725 -0.0332 -1.2581 -0.8369
  921MOL0     C24223   4.314   7.424   0.815 -0.2222  0.5029  0.6216
  921MOL0     O24224   4.309   7.317   0.908 -0.1006  0.1250 -0.2348
  921MOL0     C24225   4.193   7.269   0.967 -1.0809  0.1662 -0.8085
  921MOL0     C24226   4.206   7.199   1.091 -0.6726 -0.3504 -0.3610
  921MOL0     C24227   4.103   7.134   1.154 -0.8661  0.2667  0.1845
  921MOL0     C24228   4.145   7.043   1.269 -0.3959 -0.4063 -1.0397
  921MOL0     C24229   3.973   7.135   1.100  0.1043 -0.4379 -0.6562
  921MOL0     C24230   3.849   7.073   1.159 -0.0899  0.0973 -0.0156
  921MOL0     O24231   3.763   7.031   1.064 -0.6583 -0.2649 -0.6684
  921MOL0     C24232   3.642   6.977   1.100  0.6264 -0.3548  0.8352
  921MOL0     C24233   3.546   7.041   1.181 -0.0300  0.3584 -0.2285
  921MOL0     C24234   3.421   6.981   1.196  1.0775  0.3347 -0.2544
  921MOL0     C24235   3.397   6.851   1.142  0.2235 -0.0183 -0.5221
  921MOL0     O24236   3.274   6.790   1.152 -0.1456  0.4964 -0.1713
  921MOL0     C24237   3.162   6.874   1.186  0.2921  0.3091 -0.7688
  921MOL0     C24238   3.033   6.808   1.173 -0.0615 -0.7966 -0.0105
  921MOL0     C24239   3.004   6.735   1.043 -0.0554  0.4278  0.4814
  921MOL0     C24240   2.898   6.632   1.073  0.4426 -0.1051  0.1010
  921MOL0     C24241   2.880   6.551   0.954 -0.2847  0.6473  0.1570
  921MOL0     C24242   2.755   6.471   0.969  0.9229 -0.4909 -0.0482
  921MOL0     C24243   2.768   6.366   1.080  0.0157 -0.1461  0.0108
  921MOL0     C24244   2.640   6.287   1.084  0.5597  1.0193 -0.1454
  921MOL0    Cl24245   2.624   6.194   0.926 -0.4461 -0.1461  0.3797
  921MOL0     C24246   3.496   6.785   1.067 -0.0616 -0.0003  0.0109
  921MOL0     C24247   3.615   6.852   1.051  0.6946 -0.0454  0.8614
  921MOL0     O24248   3.832   7.044   1.281  0.2050 -0.6800  0.0203
  921MOL0     C24249   3.951   7.200   0.982 -0.2847  0.6240  0.8979
  921MOL0     C24250   4.062   7.266   0.915  0.4113 -0.2703 -0.1042
  921MOL0     N24251   4.862   7.442   0.900  0.0337 -0.5891 -0.2734
  921MOL0     N24252   4.989   7.408   0.901 -0.3083 -0.5078  0.3062
  921MOL0     C24253   6.291   7.651   0.830  1.1303 -0.2092 -0.1528
  921MOL0     C24254   6.425   7.696   0.838  0.1244 -1.1263  0.5672
  921MOL0     C24255   6.845   7.787   0.750 -0.1984 -0.1957  0.3538
  921MOL0     C24256   6.898   7.872   0.659  0.3635 -0.4947  0.1653
  921MOL0     C24257   7.021   7.936   0.676 -0.4305 -0.7631 -0.7880
  921MOL0     C24258   7.109   7.901   0.779 -0.3995 -0.2249  1.0847
  921MOL0     O24259   7.245   7.936   0.777 -0.5999  0.4096  0.1404
  921MOL0     C24260   7.294   8.040   0.694  0.4042  0.1103  0.0833
  921MOL0     C24261   7.423   8.100   0.748  0.0928 -0.0157 -0.5022
  921MOL0     C24262   7.399   8.168   0.876 -0.4899 -0.2174 -1.1000
  921MOL0     C24263   7.515   8.266   0.914 -1.4643 -0.2877  0.4533
  921MOL0     C24264   7.488   8.406   0.879 -0.5567  0.2651 -0.2861
  921MOL0     C24265   7.481   8.524   0.857 -0.2566 -0.1160 -0.0786
  921MOL0     C24266   7.059   7.805   0.867  0.4977 -0.8428 -0.0725
  921MOL0     C24267   6.933   7.748   0.858  0.1210  0.4260  0.7194
  921MOL0     H24268   6.588   7.409   0.778  0.6542  0.2674  1.5071
  921MOL0     H24269   6.350   7.340   0.740  2.8092 -0.5919 -0.3337
  921MOL0     H24270   6.036   7.560   0.925 -0.5411 -0.1992 -0.0010
  921MOL0     H24271   6.025   7.637   0.765  0.5276 -0.5326 -1.5021
  921MOL0     H24272   5.910   7.430   0.686  0.7438  2.9623 -1.2571
  921MOL0     H24273   5.902   7.384   0.862 -0.3749 -0.6338 -0.4954
  921MOL0     H24274   5.753   7.581   0.879 -0.1444  2.4712 -1.5151
  921MOL0     H24275   5.776   7.617   0.704  0.6755  1.8089  1.9207
  921MOL0     H24276   5.698   7.385   0.640 -0.7481  1.1466 -0.5660
  921MOL0     H24277   5.655   7.352   0.804  1.1896  1.3265  2.0784
  921MOL0     H24278   5.503   7.559   0.808 -2.8865 -0.0413 -0.6717
  921MOL0     H24279   5.528   7.568   0.631 -0.1328 -1.7754 -0.5117
  921MOL0     H24280   5.434   7.337   0.610  2.2361 -0.4869 -0.4420
  921MOL0     H24281   5.433   7.316   0.781 -2.9256 -0.7043 -0.3477
  921MOL0     H24282   5.273   7.503   0.813 -0.9385 -2.3762  1.3839
  921MOL0     H24283   5.250   7.500   0.631  3.0106  3.6390  0.3865
  921MOL0     H24284   5.207   7.251   0.803  2.5399 -0.9042 -2.0828
  921MOL0     H24285   5.144   7.262   0.644 -1.8081  0.1195 -0.5094
  921MOL0     H24286   4.930   7.385   0.586  1.2180 -1.9896 -0.5695
  921MOL0     H24287   4.707   7.561   0.667 -1.2624  0.0915 -2.0257
  921MOL0     H24288   4.679   7.395   0.618 -0.8961  0.1444 -0.3365
  921MOL0     H24289   4.554   7.532   0.859 -0.4170 -0.1331  1.4018
  921MOL0     H24290   4.601   7.357   0.869 -0.9193 -0.0476 -0.6442
  921MOL0     H24291   4.434   7.308   0.686 -2.0342 -1.5578  0.0587
  921MOL0     H24292   4.437   7.471   0.634  0.7695 -0.7071 -0.4987
  921MOL0     H24293   4.226   7.430   0.751 -0.4208  1.7580  0.9829
  921MOL0     H24294   4.304   7.515   0.876 -0.4707  0.8575  0.0556
  921MOL0     H24295   4.309   7.197   1.125  0.7733 -1.5382 -4.2838
  921MOL0     H24296   4.209   7.098   1.338  1.2537 -2.5713 -0.7246
  921MOL0     H24297   4.057   7.006   1.322 -2.1790  1.9623 -2.1702
  921MOL0     H24298   4.205   6.960   1.229 -1.6163 -1.0912 -1.5196
  921MOL0     H24299   3.576   7.133   1.232  0.8154 -0.3593  0.6013
  921MOL0     H24300   3.350   7.033   1.259  2.0013 -0.8168  1.8576
  921MOL0     H24301   3.178   6.911   1.288  1.0225  1.7585 -1.3722
  921MOL0     H24302   3.163   6.958   1.115 -1.5977  0.9046 -0.1582
  921MOL0     H24303   3.025   6.738   1.256  3.8124 -2.0385 -0.4511
  921MOL0     H24304   2.962   6.891   1.167  2.1197  1.1917 -0.0115
  921MOL0     H24305   3.096   6.696   0.998  0.6786 -0.8010  2.8574
  921MOL0     H24306   2.961   6.806   0.972 -1.6485 -1.2628 -0.3131
  921MOL0     H24307   2.928   6.571   1.159 -0.7115  0.2453  0.7723
  921MOL0     H24308   2.806   6.680   1.107  0.5101  1.1706 -1.4307
  921MOL0     H24309   2.963   6.483   0.936 -1.3166 -1.1519  1.8629
  921MOL0     H24310   2.862   6.615   0.867 -2.2910 -1.0036 -0.7351
  921MOL0     H24311   2.666   6.535   0.973  0.1338 -1.4246 -1.6643
  921MOL0     H24312   2.742   6.415   0.876  3.1021 -0.6814 -0.2927
  921MOL0     H24313   2.772   6.425   1.172 -2.0226  2.0554 -1.2081
  921MOL0     H24314   2.851   6.296   1.063 -0.1870 -0.8388  1.7026
  921MOL0     H24315   2.552   6.351   1.098 -1.0608 -0.7641 -1.7112
  921MOL0     H24316   2.628   6.211   1.161 -2.8857  0.4273 -1.1032
  921MOL0     H24317   3.491   6.679   1.042  3.9700  0.1302 -2.2463
  921MOL0     H24318   3.700   6.809   0.999 -0.1677  0.2906 -0.8947
  921MOL0     H24319   3.850   7.199   0.944 -0.5887 -2.4991  1.5452
  921MOL0     H24320   4.035   7.328   0.830 -1.0288  0.5734  0.9043
  921MOL0     H24321   6.201   7.709   0.850  0.1671 -2.4647  2.7178
  921MOL0     H24322   6.441   7.794   0.881  0.8429 -0.2384 -1.5648
  921MOL0     H24323   6.842   7.901   0.570  3.5144  2.6825 -1.0395
  921MOL0     H24324   7.057   7.995   0.592 -0.0136 -0.9763 -0.7610
  921MOL0     H24325   7.299   8.004   0.591 -2.9301  0.8089 -0.4336
  921MOL0     H24326   7.217   8.116   0.685 -0.7641 -1.1504 -1.0280
  921MOL0     H24327   7.471   8.161   0.671 -1.8954 -0.5953 -2.3077
  921MOL0     H24328   7.486   8.013   0.770  2.1665  1.1297 -1.5726
  921MOL0     H24329   7.404   8.087   0.949 -0.3124  0.7894  0.0288
  921MOL0     H24330   7.296   8.203   0.885 -0.7602 -0.4800 -2.8620
  921MOL0     H24331   7.611   8.232   0.874 -1.9591 -1.5816  0.3179
  921MOL0     H24332   7.525   8.276   1.023 -2.9998  2.6486  0.4489
  921MOL0     H24333   7.473   8.626   0.827 -1.2764  0.3309  1.5650
  921MOL0     H24334   7.129   7.773   0.943  2.2429 -0.4223 -1.4454
  921MOL0     H24335   6.900   7.681   0.937  0.8197 -0.8202 -0.0216
  922MOL0     O24336   0.155   1.683   2.738 -0.6964  0.1746 -0.4378
  922MOL0     C24337   0.230   1.774   2.706 -0.3596  1.0430 -0.0339
  922MOL0     O24338   0.188   1.902   2.689 -0.2451 -0.1301 -0.4233
  922MOL0     C24339   0.060   1.942   2.708 -0.2747 -0.0627 -0.4067
  922MOL0     C24340   0.016   2.040   2.622 -0.5252  0.9468  0.3436
  922MOL0     C24341  -0.114   2.084   2.614  0.0147 -0.1603 -0.8271
  922MOL0     C24342  -0.207   2.023   2.705 -0.2141 -1.4176  0.3894
  922MOL0     O24343  -0.336   2.052   2.731  0.3360 -0.5035  0.7658
  922MOL0     C24344  -0.356   2.194   2.713  0.2129 -0.0487  0.1136
  922MOL0     C24345  -0.499   2.215   2.769  0.3018  0.7581 -0.2231
  922MOL0     C24346  -0.610   2.179   2.672  0.6615 -0.1236  0.5365
  922MOL0     C24347  -0.740   2.237   2.726 -0.4540  0.5630 -0.1653
  922MOL0     C24348  -0.781   2.155   2.855  0.1096 -0.3174 -0.9815
  922MOL0     C24349  -0.924   2.174   2.917 -1.0283 -0.6391  0.7686
  922MOL0     C24350  -1.046   2.107   2.845  0.0273  0.7736  0.7711
  922MOL0     C24351  -1.173   2.154   2.921 -0.0638 -0.1286 -0.1458
  922MOL0     N24352  -1.281   2.069   2.881  0.6306 -0.3180  0.2152
  922MOL0     C24353  -1.410   2.117   2.876 -0.0469  0.9711  0.1636
  922MOL0     C24354  -1.482   2.018   2.807  0.3962  1.0071 -0.2204
  922MOL0     C24355  -1.621   2.048   2.767  0.8705  0.1549  0.5728
  922MOL0     C24356  -1.694   1.927   2.713 -0.3944  0.2570 -0.1581
  922MOL0     C24357  -1.836   1.957   2.652  0.3856  0.0825 -0.8069
  922MOL0     C24358  -1.928   2.034   2.747  0.6670  0.0273 -0.2897
  922MOL0     O24359  -2.069   2.041   2.710  0.1787 -0.5271  0.8277
  922MOL0     C24360  -2.151   2.143   2.761  0.4278 -0.0652 -0.7730
  922MOL0     C24361  -2.126   2.210   2.876 -0.0624 -0.4653  0.1828
  922MOL0     C24362  -2.204   2.314   2.936  1.0071  0.5103 -0.7338
  922MOL0     C24363  -2.153   2.380   3.061 -0.4403  0.3178 -1.1455
  922MOL0     C24364  -2.328   2.345   2.867 -0.0670  0.0399  0.7054
  922MOL0     C24365  -2.437   2.444   2.896  0.3957 -0.5934  0.0977
  922MOL0     O24366  -2.418   2.540   2.994  0.4656 -0.3985 -1.1869
  922MOL0     C24367  -2.501   2.654   2.980  0.4860  0.0587  0.5571
  922MOL0     C24368  -2.620   2.670   3.046 -0.5631 -0.1280 -0.8410
  922MOL0     C24369  -2.686   2.801   3.039 -0.4820  0.7179 -0.2829
  922MOL0     C24370  -2.625   2.908   2.971  0.1297 -0.9228  0.2789
  922MOL0     O24371  -2.668   3.040   2.970  0.0101 -0.0087  0.1492
  922MOL0     C24372  -2.807   3.064   2.991  0.1709 -0.1408 -0.0838
  922MOL0     C24373  -2.881   3.019   2.866 -0.0397  0.6567 -0.5535
  922MOL0     C24374  -3.032   3.049   2.892  0.0337 -0.5766 -0.6476
  922MOL0     C24375  -3.097   2.949   2.989 -0.1328  0.3935 -0.0281
  922MOL0     C24376  -3.228   2.904   2.945  0.8350  0.4016 -0.5724
  922MOL0     C24377  -3.337   3.011   2.929  0.5896  0.1272  0.3563
  922MOL0     C24378  -3.471   2.943   2.886  0.6284 -0.3073  0.4921
  922MOL0     C24379  -3.580   3.039   2.862 -0.4037 -0.2763  0.6593
  922MOL0    Cl24380  -3.705   2.929   2.798 -0.5066 -0.1483 -0.2106
  922MOL0     C24381  -2.506   2.895   2.907 -0.0630  0.6528  0.6840
  922MOL0     C24382  -2.443   2.765   2.914  0.3648 -0.2570  0.0213
  922MOL0     O24383  -2.538   2.437   2.822 -0.2641 -0.5601  0.5792
  922MOL0     C24384  -2.356   2.270   2.748 -0.0933 -0.3849 -0.7865
  922MOL0     C24385  -2.274   2.165   2.704 -1.0303  0.3007  0.0940
  922MOL0     N24386  -1.395   1.926   2.761  0.3009 -0.0407 -0.1601
  922MOL0     N24387  -1.273   1.960   2.798  0.5302 -0.2780  0.7173
  922MOL0     C24388  -0.160   1.932   2.796 -0.0331 -0.0007 -0.4453
  922MOL0     C24389  -0.031   1.892   2.800  1.2483 -0.2566 -0.7058
  922MOL0     C24390   0.372   1.731   2.686  0.1492  0.1332  0.1233
  922MOL0     C24391   0.429   1.610   2.740 -0.2636  0.3777  0.8013
  922MOL0     C24392   0.561   1.579   2.717  0.0281  0.1868  0.5947
  922MOL0     C24393   0.640   1.659   2.640 -0.5264 -1.1046  0.2944
  922MOL0     O24394   0.772   1.625   2.626  0.4850 -0.0075 -0.0201
  922MOL0     C24395   0.861   1.716   2.553  0.1056 -0.4575  1.1423
  922MOL0     C24396   0.999   1.644   2.532  0.4581  0.2588 -0.7766
  922MOL0     C24397   1.097   1.741   2.457 -0.3839 -0.0859 -0.1892
  922MOL0     C24398   1.245   1.714   2.488  0.0129 -0.7625 -0.5119
  922MOL0     C24399   1.283   1.579   2.444 -0.6340 -0.9404 -0.5474
  922MOL0     C24400   1.326   1.469   2.419  0.2865  0.2313  1.2660
  922MOL0     C24401   0.592   1.785   2.595 -0.4803 -0.1031 -0.1690
  922MOL0     C24402   0.458   1.821   2.609 -0.6224  0.5050 -0.7145
  922MOL0     H24403   0.082   2.088   2.550 -1.3628  0.2021 -0.9571
  922MOL0     H24404  -0.137   2.153   2.534  0.1571 -1.1116 -1.7075
  922MOL0     H24405  -0.275   2.248   2.763  2.0227 -2.4065 -0.0662
  922MOL0     H24406  -0.355   2.216   2.606  1.4154  1.5885  0.4280
  922MOL0     H24407  -0.519   2.141   2.847 -1.2106 -1.1116 -2.2488
  922MOL0     H24408  -0.516   2.318   2.800  0.9533  1.3062 -1.6279
  922MOL0     H24409  -0.590   2.224   2.575 -0.8863  1.7773  1.0181
  922MOL0     H24410  -0.614   2.070   2.673 -0.2568 -0.1621  3.1616
  922MOL0     H24411  -0.742   2.344   2.750  0.1027  0.9362 -1.6692
  922MOL0     H24412  -0.819   2.218   2.653 -0.5623  0.2728  0.0280
  922MOL0     H24413  -0.755   2.049   2.854 -0.0924 -0.3673 -0.9130
  922MOL0     H24414  -0.718   2.196   2.935 -2.3981 -0.1830  1.0483
  922MOL0     H24415  -0.913   2.153   3.023 -0.2992 -0.2088  0.7828
  922MOL0     H24416  -0.945   2.282   2.914  0.7648 -0.2630  0.9459
  922MOL0     H24417  -1.046   2.148   2.743 -2.4288 -0.0092  0.3807
  922MOL0     H24418  -1.041   1.998   2.840 -0.4997  0.6933  1.6674
  922MOL0     H24419  -1.199   2.257   2.897 -2.9190 -1.1882 -2.1476
  922MOL0     H24420  -1.167   2.143   3.030 -0.3201  3.6584  0.3541
  922MOL0     H24421  -1.437   2.210   2.926  0.1663  1.1758 -0.1030
  922MOL0     H24422  -1.675   2.068   2.860  0.9625 -3.1564  1.4465
  922MOL0     H24423  -1.638   2.128   2.694  2.0207 -0.4123 -0.3418
  922MOL0     H24424  -1.707   1.844   2.782  2.2324 -0.4296 -0.3881
  922MOL0     H24425  -1.641   1.873   2.634  0.0631  2.4688 -1.4448
  922MOL0     H24426  -1.879   1.859   2.629 -0.8994  0.7058 -1.1126
  922MOL0     H24427  -1.818   2.015   2.561 -1.1027  1.4204 -0.2848
  922MOL0     H24428  -1.882   2.132   2.734 -0.3634  0.4380 -0.9423
  922MOL0     H24429  -1.911   2.002   2.850  1.3912  1.2758 -0.0018
  922MOL0     H24430  -2.037   2.179   2.931  1.3898 -0.1300 -1.8625
  922MOL0     H24431  -2.087   2.319   3.123 -2.9254  1.0951  2.5299
  922MOL0     H24432  -2.102   2.476   3.047  1.8494 -0.2921  1.9040
  922MOL0     H24433  -2.231   2.404   3.133  0.3094 -0.7023  0.0449
  922MOL0     H24434  -2.646   2.588   3.112  1.6582 -0.5051 -0.3534
  922MOL0     H24435  -2.772   2.808   3.104 -1.9578 -0.3381 -2.0198
  922MOL0     H24436  -2.832   3.016   3.086  1.2047 -0.8454 -0.1524
  922MOL0     H24437  -2.825   3.172   2.996  3.6067  0.5042  1.0396
  922MOL0     H24438  -2.843   3.067   2.776 -0.0568 -0.5953 -1.2515
  922MOL0     H24439  -2.871   2.912   2.848  1.9303  0.8279 -0.7035
  922MOL0     H24440  -3.085   3.046   2.796  2.1900 -1.3473 -1.9031
  922MOL0     H24441  -3.056   3.149   2.930 -2.2367 -0.6381 -1.7474
  922MOL0     H24442  -3.039   2.859   3.010  2.4031  2.3137  1.9141
  922MOL0     H24443  -3.113   3.001   3.084 -1.0861 -0.2714  0.1837
  922MOL0     H24444  -3.258   2.842   3.030  0.9958 -1.4141 -1.7883
  922MOL0     H24445  -3.221   2.846   2.853  1.6358 -1.1206  0.4107
  922MOL0     H24446  -3.331   3.067   3.023 -0.2253 -1.7395  1.5684
  922MOL0     H24447  -3.310   3.079   2.847  1.1075 -1.7181 -1.0724
  922MOL0     H24448  -3.495   2.859   2.951 -0.6762  1.5018  2.4874
  922MOL0     H24449  -3.454   2.900   2.787  2.9575  1.5653 -0.0327
  922MOL0     H24450  -3.556   3.121   2.793 -2.2467  0.7195  1.1393
  922MOL0     H24451  -3.613   3.087   2.955  2.5094  0.6126  1.3293
  922MOL0     H24452  -2.461   2.973   2.847  1.0830  0.5829  1.4147
  922MOL0     H24453  -2.342   2.752   2.876  0.6830  3.2926 -0.7324
  922MOL0     H24454  -2.439   2.291   2.683  0.2351  2.3219 -0.4290
  922MOL0     H24455  -2.303   2.108   2.616 -0.7449 -0.1892  0.3177
  922MOL0     H24456  -0.231   1.895   2.869  0.5137  2.1337  1.2616
  922MOL0     H24457  -0.005   1.809   2.866 -1.8814  0.7108  2.0212
  922MOL0     H24458   0.361   1.541   2.791  1.2718 -1.5081  0.3962
  922MOL0     H24459   0.604   1.488   2.758  1.8567 -0.3804 -2.2937
  922MOL0     H24460   0.825   1.744   2.453  0.8127 -1.0310  0.7162
  922MOL0     H24461   0.877   1.802   2.619  2.4199 -1.6636  2.2771
  922MOL0     H24462   0.985   1.547   2.483 -1.1383  0.4379 -0.7263
  922MOL0     H24463   1.046   1.628   2.630 -0.9604 -0.5199 -0.2007
  922MOL0     H24464   1.091   1.846   2.487  2.1510 -0.0762  0.5079
  922MOL0     H24465   1.077   1.742   2.349 -0.6178 -1.6675 -0.1739
  922MOL0     H24466   1.260   1.707   2.596  0.7416  1.3438 -0.4250
  922MOL0     H24467   1.315   1.782   2.438 -1.9694  0.1919 -2.1731
  922MOL0     H24468   1.353   1.371   2.386  0.2819  0.7258 -0.2693
  922MOL0     H24469   0.659   1.858   2.551  1.9409 -2.0605  0.0087
  922MOL0     H24470   0.420   1.914   2.569 -0.7828 -0.6665 -3.5137
  923MOL0     O24471   4.226  10.195   0.097 -0.0770 -0.5800 -0.2811
  923MOL0     C24472   4.185  10.307   0.075  0.0607 -0.0038  0.5233
  923MOL0     O24473   4.064  10.360   0.115  1.2601  0.0970  0.3908
  923MOL0     C24474   3.948  10.283   0.116 -0.2114  0.3929  0.7071
  923MOL0     C24475   3.878  10.270   0.231 -0.8079 -0.0033  0.0004
  923MOL0     C24476   3.750  10.216   0.229 -0.2850 -0.4660 -0.1675
  923MOL0     C24477   3.689  10.175   0.111 -0.2145  0.2133  0.1622
  923MOL0     O24478   3.568  10.110   0.112 -0.0436 -0.8551  0.1982
  923MOL0     C24479   3.470  10.155   0.206  0.1637  0.6860 -0.7087
  923MOL0     C24480   3.338  10.107   0.158 -0.6098 -0.4914  1.0549
  923MOL0     C24481   3.230  10.168   0.247 -0.1797 -0.2579  0.1577
  923MOL0     C24482   3.094  10.092   0.207 -0.4513  0.2614 -0.1886
  923MOL0     C24483   2.978  10.141   0.303  0.1609 -0.1331 -0.2430
  923MOL0     C24484   2.852  10.071   0.253 -0.0570 -0.5982  0.7957
  923MOL0     C24485   2.722  10.132   0.312 -0.1799 -0.2692  0.7336
  923MOL0     C24486   2.593  10.074   0.236 -0.2772 -0.4310  0.1024
  923MOL0     N24487   2.469  10.135   0.282  0.3259  0.1271 -0.1817
  923MOL0     C24488   2.414  10.105   0.408  0.5140 -1.1050 -0.2348
  923MOL0     C24489   2.292  10.177   0.408 -0.3467  0.0998 -0.3840
  923MOL0     C24490   2.182  10.175   0.519 -0.5974 -0.2827  0.2104
  923MOL0     C24491   2.218  10.210   0.661 -1.4303 -0.3793  0.3111
  923MOL0     C24492   2.262  10.360   0.677 -0.5089 -0.2849 -0.1898
  923MOL0     C24493   2.379  10.419   0.595 -0.8908 -0.5427  0.0567
  923MOL0     O24494   2.503  10.358   0.631  0.4731  0.4557  0.4121
  923MOL0     C24495   2.617  10.408   0.575  0.0485 -0.3564  0.5703
  923MOL0     C24496   2.728  10.384   0.649 -0.4797 -0.4506 -0.1400
  923MOL0     C24497   2.857  10.424   0.605 -0.4095  0.0305  0.1245
  923MOL0     C24498   2.969  10.387   0.700 -0.3091  0.0875  0.1296
  923MOL0     C24499   2.875  10.506   0.492 -0.4753  0.1742 -0.4242
  923MOL0     C24500   3.006  10.572   0.469  0.4759  0.0934 -0.1184
  923MOL0     O24501   3.115  10.495   0.486  0.0703 -0.4813 -0.2072
  923MOL0     C24502   3.235  10.555   0.470  1.1403  0.5981 -0.4843
  923MOL0     C24503   3.332  10.472   0.430  0.2156  0.4823  0.1424
  923MOL0     C24504   3.465  10.521   0.409  0.1244  0.0789 -0.9228
  923MOL0     C24505   3.502  10.649   0.452  0.6085 -0.5285 -0.0016
  923MOL0     O24506   3.632  10.700   0.449  0.5880  0.0293 -0.0675
  923MOL0     C24507   3.747  10.623   0.403 -0.0625 -0.6430  0.2924
  923MOL0     C24508   3.873  10.712   0.415  0.4805 -0.3655  0.2081
  923MOL0     C24509   3.997  10.629   0.384 -0.2276 -0.0376 -0.6832
  923MOL0     C24510   4.124  10.714   0.412 -0.1978 -0.3267  0.0170
  923MOL0     C24511   4.240  10.622   0.383 -0.3603  0.1048  0.0580
  923MOL0     C24512   4.376  10.702   0.427  0.7374 -0.7156 -0.2459
  923MOL0     C24513   4.499  10.651   0.354 -0.1252  0.4124  0.4598
  923MOL0     C24514   4.634  10.715   0.372  0.1282 -0.5297  0.3043
  923MOL0    Cl24515   4.676  10.694   0.546 -0.3718 -0.2403  0.1737
  923MOL0     C24516   3.402  10.732   0.491 -0.1741  0.1153 -0.3412
  923MOL0     C24517   3.265  10.687   0.506 -0.3256 -0.4588  0.4495
  923MOL0     O24518   2.994  10.688   0.433 -0.4334 -0.1768 -0.7458
  923MOL0     C24519   2.752  10.542   0.430 -0.0507 -0.2028  0.5204
  923MOL0     C24520   2.629  10.490   0.466  0.4242  0.2799  0.1160
  923MOL0     N24521   2.290  10.247   0.284 -0.2115 -0.9728  0.4390
  923MOL0     N24522   2.400  10.233   0.217 -0.3386  0.5862 -0.7359
  923MOL0     C24523   3.768  10.171  -0.006 -0.3139  0.2263  0.6124
  923MOL0     C24524   3.897  10.233  -0.003 -0.2057 -0.0217  0.1451
  923MOL0     C24525   4.283  10.398   0.015 -0.7684 -0.3394 -0.0065
  923MOL0     C24526   4.244  10.526  -0.017  0.1207  0.7945  0.3855
  923MOL0     C24527   4.334  10.621  -0.077 -0.2538 -0.4652  0.4736
  923MOL0     C24528   4.462  10.582  -0.103 -0.2893  0.5896  0.3188
  923MOL0     O24529   4.544  10.675  -0.166  0.1067 -0.1237  0.5237
  923MOL0     C24530   4.688  10.661  -0.177  0.0787 -0.5106 -0.4408
  923MOL0     C24531   4.737  10.652  -0.322 -0.3462  0.2319 -0.6898
  923MOL0     C24532   4.748  10.800  -0.382  0.6787 -0.3005  0.9870
  923MOL0     C24533   4.794  10.815  -0.523 -0.7688  0.2841  0.4552
  923MOL0     C24534   4.793  10.951  -0.563 -0.2001  0.1081 -0.3035
  923MOL0     C24535   4.797  11.069  -0.611  0.4727  0.4024 -0.2470
  923MOL0     C24536   4.502  10.450  -0.072 -0.5327 -0.7309 -0.2380
  923MOL0     C24537   4.413  10.355  -0.017  0.0653 -0.7197 -0.0116
  923MOL0     H24538   3.923  10.320   0.316  2.0004  0.7339 -1.7955
  923MOL0     H24539   3.695  10.205   0.322  2.5959  1.8662  2.0070
  923MOL0     H24540   3.491  10.109   0.303 -0.2624 -2.5847 -2.0372
  923MOL0     H24541   3.456  10.263   0.218  1.9758  1.1119 -2.1093
  923MOL0     H24542   3.327  10.128   0.052  2.3235  1.5905  1.0575
  923MOL0     H24543   3.337   9.997   0.160  0.0254 -0.5923 -1.4928
  923MOL0     H24544   3.263  10.152   0.350 -0.8221 -1.6691  0.1757
  923MOL0     H24545   3.209  10.273   0.227 -2.5747 -0.9354 -1.4660
  923MOL0     H24546   3.077  10.114   0.101  1.2576  0.6232 -0.4220
  923MOL0     H24547   3.101   9.986   0.233 -1.5202  0.8517  2.9502
  923MOL0     H24548   3.000  10.108   0.405 -1.7650  0.0101  0.2587
  923MOL0     H24549   2.964  10.249   0.299 -1.8817 -0.3849 -1.1016
  923MOL0     H24550   2.853  10.084   0.144  0.1386  1.4902  1.0033
  923MOL0     H24551   2.849   9.962   0.267 -0.7135 -0.4850  1.6013
  923MOL0     H24552   2.711  10.095   0.415  0.8291  0.3629  1.0755
  923MOL0     H24553   2.717  10.241   0.307 -0.4727 -0.3256 -0.4211
  923MOL0     H24554   2.586   9.968   0.262 -1.0486  0.5851  4.8620
  923MOL0     H24555   2.612  10.095   0.130  0.9377  0.0094  0.3894
  923MOL0     H24556   2.457  10.037   0.481  0.1233 -1.4170 -0.2907
  923MOL0     H24557   2.110  10.253   0.493 -0.0867  1.0318  2.4464
  923MOL0     H24558   2.141  10.074   0.514  1.3302 -1.0873 -0.3731
  923MOL0     H24559   2.308  10.150   0.679  0.5150  1.9576 -1.0117
  923MOL0     H24560   2.143  10.180   0.734 -0.8926 -1.4470  0.4402
  923MOL0     H24561   2.281  10.378   0.784 -2.0548 -1.2653  0.2930
  923MOL0     H24562   2.168  10.410   0.652  0.9003  2.6128 -0.1301
  923MOL0     H24563   2.383  10.529   0.595  3.0358 -0.3359 -4.2973
  923MOL0     H24564   2.361  10.406   0.488 -2.5704  0.7534  0.1363
  923MOL0     H24565   2.721  10.328   0.741  0.0738 -0.0607  0.1470
  923MOL0     H24566   3.038  10.318   0.650 -1.4772  0.6901 -2.5054
  923MOL0     H24567   3.022  10.478   0.729  0.3807 -0.5063  0.8018
  923MOL0     H24568   2.934  10.333   0.788 -0.6249 -2.4839 -1.4661
  923MOL0     H24569   3.308  10.367   0.417  0.5807  0.3836  0.2636
  923MOL0     H24570   3.540  10.458   0.362 -0.2102 -1.5460  0.6275
  923MOL0     H24571   3.759  10.530   0.461  0.9025  0.1498  1.4304
  923MOL0     H24572   3.726  10.593   0.300  1.1271 -1.8144  0.3640
  923MOL0     H24573   3.874  10.793   0.341 -0.7468 -0.0319  0.5320
  923MOL0     H24574   3.881  10.743   0.519  2.0486 -1.7647  0.5650
  923MOL0     H24575   3.999  10.607   0.277  2.2307  1.7006 -1.0964
  923MOL0     H24576   4.002  10.534   0.438  0.4550  0.4570  0.1468
  923MOL0     H24577   4.130  10.793   0.336  1.5310 -0.1690  0.2678
  923MOL0     H24578   4.121  10.759   0.511 -2.7240  1.9022 -0.9730
  923MOL0     H24579   4.245  10.590   0.279  0.6096 -0.0863  0.1460
  923MOL0     H24580   4.236  10.539   0.454 -1.3173 -1.1257 -1.3752
  923MOL0     H24581   4.363  10.808   0.403 -1.4251  0.3439  4.5511
  923MOL0     H24582   4.389  10.701   0.535  1.5847 -0.2447 -0.3350
  923MOL0     H24583   4.482  10.659   0.246  1.7749 -4.2918 -0.4709
  923MOL0     H24584   4.505  10.545   0.381  2.2501  0.7887  1.7526
  923MOL0     H24585   4.629  10.819   0.339  2.5031 -1.0739 -2.0951
  923MOL0     H24586   4.701  10.666   0.300  0.0208  0.4123 -0.4530
  923MOL0     H24587   3.430  10.832   0.524 -1.7519  0.3873  0.3060
  923MOL0     H24588   3.192  10.749   0.558  0.8851 -0.8400  2.7281
  923MOL0     H24589   2.755  10.619   0.353 -0.5775 -0.3340  0.3608
  923MOL0     H24590   2.548  10.523   0.401  0.0107 -0.8417  0.0506
  923MOL0     H24591   3.737  10.122  -0.097 -3.2653  2.6693  0.1407
  923MOL0     H24592   3.966  10.234  -0.087 -0.1766  1.5834  0.1647
  923MOL0     H24593   4.138  10.546  -0.006 -0.7925 -2.9031 -0.2415
  923MOL0     H24594   4.294  10.717  -0.109 -0.7134 -1.0239 -0.6735
  923MOL0     H24595   4.742  10.739  -0.122  0.1840  0.4200 -1.7932
  923MOL0     H24596   4.719  10.570  -0.125 -1.1544 -0.6247  0.1239
  923MOL0     H24597   4.680  10.579  -0.381 -0.2633 -0.5902  0.2214
  923MOL0     H24598   4.836  10.605  -0.322 -2.0944 -3.9583  1.5973
  923MOL0     H24599   4.811  10.865  -0.320  2.2615 -0.6076 -0.2351
  923MOL0     H24600   4.645  10.835  -0.379  0.0212 -2.0654  0.1903
  923MOL0     H24601   4.736  10.750  -0.589  1.1730  0.5498 -1.6577
  923MOL0     H24602   4.896  10.776  -0.526 -0.6828  0.2949  2.1040
  923MOL0     H24603   4.791  11.165  -0.659  1.3094  0.5445 -0.0661
  923MOL0     H24604   4.597  10.403  -0.094 -0.7527 -0.5327 -1.6729
  923MOL0     H24605   4.436  10.250  -0.005  2.5114 -0.2635 -0.1224
  924MOL0     O24606   3.769   8.706   3.224 -0.5455 -0.3184  0.6678
  924MOL0     C24607   3.723   8.599   3.259  1.0396  0.2436 -0.3227
  924MOL0     O24608   3.776   8.479   3.256  0.1692 -0.2151 -0.3516
  924MOL0     C24609   3.910   8.465   3.224  0.4777  0.9151  0.0817
  924MOL0     C24610   3.938   8.421   3.094 -0.2644  0.8450  0.4853
  924MOL0     C24611   4.066   8.409   3.043 -0.4348 -0.4426 -0.1771
  924MOL0     C24612   4.174   8.444   3.135  0.3118 -0.2787 -0.4334
  924MOL0     O24613   4.300   8.446   3.081  0.0839  0.3004  0.2426
  924MOL0     C24614   4.402   8.482   3.169 -0.4912  0.4065  0.3567
  924MOL0     C24615   4.525   8.433   3.092  1.1865 -0.0974  0.1105
  924MOL0     C24616   4.654   8.460   3.163 -0.5348 -0.5298 -0.5291
  924MOL0     C24617   4.677   8.400   3.306 -0.7400 -0.5203  0.2408
  924MOL0     C24618   4.827   8.387   3.348 -0.1216  0.2004 -0.5228
  924MOL0     C24619   4.891   8.523   3.337 -0.3997  0.1552 -0.1576
  924MOL0     C24620   5.013   8.533   3.431 -0.0352 -0.2515 -0.8622
  924MOL0     C24621   5.100   8.649   3.396  0.3844 -0.6097  0.1202
  924MOL0     N24622   5.035   8.777   3.426  0.2761  0.6341  0.1511
  924MOL0     C24623   4.953   8.833   3.336 -0.7161 -0.1175  0.1630
  924MOL0     C24624   4.906   8.940   3.401  0.2732  0.2536 -0.9667
  924MOL0     C24625   4.809   9.036   3.351  0.5746  0.0158 -0.1960
  924MOL0     C24626   4.667   9.022   3.404 -0.0005 -0.0966 -0.0748
  924MOL0     C24627   4.577   8.926   3.324  0.3700  0.0109 -0.2440
  924MOL0     C24628   4.439   8.886   3.388  0.9365  0.5404  0.5995
  924MOL0     O24629   4.350   8.992   3.413 -0.1518 -0.7719  0.5560
  924MOL0     C24630   4.222   8.958   3.437 -0.9965 -0.2562 -1.1204
  924MOL0     C24631   4.194   8.848   3.523 -0.8482  0.8861 -0.2647
  924MOL0     C24632   4.059   8.809   3.547  0.6057  0.0748  0.3807
  924MOL0     C24633   4.029   8.689   3.635 -0.3711  0.3086 -0.2172
  924MOL0     C24634   3.955   8.880   3.481  0.1336 -0.9043 -0.1398
  924MOL0     C24635   3.808   8.857   3.498 -0.0448 -0.6514 -0.4790
  924MOL0     O24636   3.737   8.980   3.485 -0.1869 -0.0479 -0.2602
  924MOL0     C24637   3.602   8.981   3.499 -0.4188 -1.1434 -0.4679
  924MOL0     C24638   3.528   8.896   3.583  0.1179  0.5380  0.7882
  924MOL0     C24639   3.388   8.913   3.583 -0.4678  0.2786  0.1207
  924MOL0     C24640   3.320   9.012   3.515  0.0444  1.1831 -0.3830
  924MOL0     O24641   3.180   9.006   3.527 -0.3333  0.8086  0.6009
  924MOL0     C24642   3.100   9.114   3.484 -0.1278  1.0519 -0.5396
  924MOL0     C24643   2.953   9.068   3.474  0.4012 -0.6625 -0.3146
  924MOL0     C24644   2.853   9.179   3.428 -0.5663  0.1061  0.8448
  924MOL0     C24645   2.721   9.122   3.375 -0.1184 -0.1044 -0.3163
  924MOL0     C24646   2.602   9.224   3.374  1.2905  0.0970 -0.2061
  924MOL0     C24647   2.456   9.160   3.352 -0.6378 -0.3514 -0.8186
  924MOL0     C24648   2.363   9.265   3.290 -0.7115 -0.5104 -0.3322
  924MOL0     C24649   2.213   9.242   3.303 -0.3020 -0.3924 -0.5589
  924MOL0    Cl24650   2.148   9.151   3.161 -0.0591  0.0585  0.1773
  924MOL0     C24651   3.393   9.110   3.458  0.8043 -0.1105 -0.5254
  924MOL0     C24652   3.529   9.089   3.441 -0.2924 -0.1323  0.5574
  924MOL0     O24653   3.762   8.746   3.529  0.2440  0.1396  0.1500
  924MOL0     C24654   3.983   8.976   3.387  0.6342 -0.1262 -0.6395
  924MOL0     C24655   4.121   9.017   3.370  0.4835 -0.0501  0.2730
  924MOL0     N24656   4.961   8.941   3.535  0.4018 -0.0509  0.3025
  924MOL0     N24657   5.025   8.836   3.551 -0.0904  0.1818 -0.0166
  924MOL0     C24658   4.139   8.497   3.266 -0.3418  0.0531 -0.2373
  924MOL0     C24659   4.005   8.504   3.312  0.2872 -0.0723  1.5874
  924MOL0     C24660   3.575   8.619   3.280  1.5408 -0.0289  0.2978
  924MOL0     C24661   3.491   8.516   3.330  0.0006 -0.6097 -0.3596
  924MOL0     C24662   3.358   8.550   3.364  0.0472 -0.1384 -0.3219
  924MOL0     C24663   3.290   8.676   3.331 -0.5308  0.3175 -1.3069
  924MOL0     O24664   3.162   8.702   3.350  0.8215 -0.3313 -0.1296
  924MOL0     C24665   3.078   8.609   3.424  0.1605  0.3392 -0.2529
  924MOL0     C24666   2.934   8.656   3.445 -0.7103  0.0486  0.3124
  924MOL0     C24667   2.848   8.676   3.312  0.1574 -0.7002  0.2925
  924MOL0     C24668   2.704   8.728   3.331  0.3107  0.2506 -0.2330
  924MOL0     C24669   2.651   8.801   3.213  1.2340  0.5707  0.8874
  924MOL0     C24670   2.594   8.851   3.122  0.7382  0.3271  0.1593
  924MOL0     C24671   3.369   8.771   3.275 -0.4099  0.7650  0.7378
  924MOL0     C24672   3.506   8.745   3.249 -0.0926  0.0566  0.4338
  924MOL0     H24673   3.862   8.383   3.025 -0.2295  3.5239 -1.1563
  924MOL0     H24674   4.088   8.355   2.952 -1.1208  0.3251 -0.8079
  924MOL0     H24675   4.398   8.589   3.192 -1.2336  1.1082 -2.6472
  924MOL0     H24676   4.403   8.433   3.267  0.5998 -0.8393 -0.2356
  924MOL0     H24677   4.523   8.324   3.082 -1.0682 -0.1505  0.6692
  924MOL0     H24678   4.524   8.480   2.993  1.2511 -0.6195 -0.1389
  924MOL0     H24679   4.729   8.430   3.089  2.8491 -0.1825  2.4813
  924MOL0     H24680   4.673   8.568   3.171 -0.7381 -0.3147 -2.4855
  924MOL0     H24681   4.632   8.477   3.369  0.2703  0.3416 -0.0660
  924MOL0     H24682   4.620   8.309   3.327  2.7426 -2.5304  1.7095
  924MOL0     H24683   4.827   8.347   3.449 -0.6754  0.9003 -0.2313
  924MOL0     H24684   4.891   8.316   3.295  0.1973  0.6592 -0.7617
  924MOL0     H24685   4.927   8.534   3.235 -3.1850  0.4848 -1.2139
  924MOL0     H24686   4.824   8.605   3.368 -3.7917 -1.8543 -1.6313
  924MOL0     H24687   4.969   8.551   3.530  0.2617  2.1089 -1.1035
  924MOL0     H24688   5.066   8.437   3.429 -0.3456 -0.5256  1.1939
  924MOL0     H24689   5.123   8.653   3.289 -0.0236  3.5796  0.0072
  924MOL0     H24690   5.196   8.643   3.448  2.1326  1.4563 -2.5638
  924MOL0     H24691   4.927   8.802   3.235 -2.8459  1.8953  0.0167
  924MOL0     H24692   4.859   9.130   3.375 -0.8962  0.5468  1.0035
  924MOL0     H24693   4.815   9.036   3.242  1.9165  1.6068 -0.1673
  924MOL0     H24694   4.626   9.123   3.394 -1.5104 -0.6023  0.6765
  924MOL0     H24695   4.659   8.997   3.510 -1.3833  1.3305  0.2056
  924MOL0     H24696   4.623   8.828   3.306  1.5903  0.7429 -1.1647
  924MOL0     H24697   4.565   8.968   3.224 -0.0696 -4.7410 -2.4609
  924MOL0     H24698   4.459   8.833   3.481 -0.6884 -2.0189 -0.4036
  924MOL0     H24699   4.387   8.821   3.316 -0.1783 -0.7900  2.5194
  924MOL0     H24700   4.269   8.788   3.572 -0.4606  1.1180 -0.5713
  924MOL0     H24701   4.004   8.718   3.737  0.7165  2.0982 -0.4143
  924MOL0     H24702   3.949   8.621   3.603  0.6323 -0.9589 -0.0898
  924MOL0     H24703   4.119   8.628   3.642 -1.5190 -1.2495  3.8895
  924MOL0     H24704   3.570   8.810   3.636 -3.8953 -2.1123  0.1312
  924MOL0     H24705   3.327   8.855   3.651  1.1426 -0.6186  0.8382
  924MOL0     H24706   3.098   9.196   3.557  3.0926  0.5206  0.3081
  924MOL0     H24707   3.139   9.157   3.391 -0.1753  1.2067 -0.4887
  924MOL0     H24708   2.942   8.983   3.406 -1.2189  1.4853 -2.9240
  924MOL0     H24709   2.909   9.042   3.571  1.1284  0.1526  0.2434
  924MOL0     H24710   2.898   9.220   3.337  1.9990 -0.1205  1.9159
  924MOL0     H24711   2.848   9.261   3.501  0.3752  0.8765  0.0785
  924MOL0     H24712   2.733   9.075   3.277 -0.5860 -0.9859  0.0312
  924MOL0     H24713   2.692   9.044   3.446 -3.6721  0.1873 -1.2659
  924MOL0     H24714   2.610   9.302   3.297 -0.2378 -2.6509 -3.4036
  924MOL0     H24715   2.598   9.279   3.468 -0.7045  0.2608 -0.3271
  924MOL0     H24716   2.453   9.071   3.288  0.1016 -1.7710  1.0283
  924MOL0     H24717   2.423   9.127   3.451  0.4793  0.1908 -0.2509
  924MOL0     H24718   2.389   9.288   3.187  0.3324 -1.5978 -0.3413
  924MOL0     H24719   2.382   9.354   3.350  0.0389  0.3846 -1.8656
  924MOL0     H24720   2.149   9.331   3.306 -0.6517 -0.6218 -1.1813
  924MOL0     H24721   2.201   9.185   3.396  2.4083 -1.3797 -0.7224
  924MOL0     H24722   3.344   9.193   3.407 -1.7932  0.7978  3.1023
  924MOL0     H24723   3.598   9.156   3.390 -0.8512 -0.0509 -0.1174
  924MOL0     H24724   3.913   9.033   3.328 -0.6419  0.3307  1.2359
  924MOL0     H24725   4.156   9.094   3.302  0.5543  0.1141  0.4919
  924MOL0     H24726   4.214   8.525   3.340  0.6318 -2.2418 -0.2712
  924MOL0     H24727   3.983   8.548   3.409  1.8566  0.7058  1.6132
  924MOL0     H24728   3.533   8.417   3.345  1.0238  0.1059  2.0771
  924MOL0     H24729   3.301   8.469   3.409  1.5705 -0.0330  1.9277
  924MOL0     H24730   3.076   8.520   3.361 -0.7313  0.9641 -1.1484
  924MOL0     H24731   3.125   8.586   3.520 -1.2583  0.1043  0.4088
  924MOL0     H24732   2.938   8.749   3.504  0.0780  0.0194  0.3222
  924MOL0     H24733   2.890   8.580   3.510 -0.9730  0.0383  0.1222
  924MOL0     H24734   2.847   8.589   3.246  1.3459  1.0131 -2.1112
  924MOL0     H24735   2.902   8.760   3.268 -2.3150  1.3138  0.8727
  924MOL0     H24736   2.699   8.798   3.415  1.5800  2.3882 -1.8408
  924MOL0     H24737   2.643   8.641   3.356 -1.6527  1.9985  1.3390
  924MOL0     H24738   2.542   8.905   3.045  1.1167  2.9192  1.5978
  924MOL0     H24739   3.322   8.864   3.245 -1.0347  0.9543  2.2509
  924MOL0     H24740   3.557   8.832   3.210 -1.6402  1.2059  0.8379
  925MOL0     O24741   9.102  10.723   5.726 -0.3471 -0.2220  0.1964
  925MOL0     C24742   9.089  10.657   5.827 -0.1628 -0.6067  0.5614
  925MOL0     O24743   8.989  10.566   5.863 -0.3105 -0.1717  0.0865
  925MOL0     C24744   8.899  10.515   5.773  0.0102  0.4716  0.6744
  925MOL0     C24745   8.856  10.581   5.655  0.0792 -0.6729  0.2629
  925MOL0     C24746   8.773  10.516   5.561  0.7029  0.5502 -0.1460
  925MOL0     C24747   8.718  10.393   5.601 -0.2265 -0.2252 -0.3416
  925MOL0     O24748   8.634  10.320   5.524 -0.2653  0.2072  0.0763
  925MOL0     C24749   8.668  10.318   5.380  0.1203 -0.6746  0.3255
  925MOL0     C24750   8.568  10.241   5.300  0.5914  0.8896  0.4463
  925MOL0     C24751   8.425  10.292   5.311 -0.8057 -0.6718  0.1742
  925MOL0     C24752   8.314  10.201   5.259 -0.5511 -0.7376  0.2224
  925MOL0     C24753   8.171  10.249   5.300  0.3885  0.3859 -0.5244
  925MOL0     C24754   8.055  10.148   5.300 -0.0973 -0.1358  1.3629
  925MOL0     C24755   7.906  10.211   5.330 -0.1688  0.3776 -0.1912
  925MOL0     C24756   7.793  10.131   5.258 -0.6861 -0.5925 -0.4650
  925MOL0     N24757   7.660  10.161   5.300 -0.3372  0.0791  0.3041
  925MOL0     C24758   7.613  10.251   5.398 -0.2728 -0.6615  0.3841
  925MOL0     C24759   7.484  10.237   5.388  0.6289 -0.0926 -0.0687
  925MOL0     C24760   7.390  10.308   5.489 -0.7790  1.2556 -0.4368
  925MOL0     C24761   7.242  10.324   5.447  0.1535 -0.0184 -0.3530
  925MOL0     C24762   7.223  10.415   5.321 -0.0247  0.4748  0.4999
  925MOL0     C24763   7.079  10.438   5.259 -0.0746  0.5770 -0.3617
  925MOL0     O24764   6.997  10.498   5.361 -0.0694  0.4426  1.0782
  925MOL0     C24765   6.886  10.569   5.313 -1.3063 -0.2079 -0.4130
  925MOL0     C24766   6.848  10.587   5.179 -1.1670 -0.6854  0.1454
  925MOL0     C24767   6.735  10.662   5.149  0.2307 -0.3535 -0.2678
  925MOL0     C24768   6.687  10.669   5.002  0.7901 -0.4687  0.8758
  925MOL0     C24769   6.669  10.730   5.252  0.9186  0.4598 -0.8555
  925MOL0     C24770   6.543  10.808   5.236 -1.0882  0.3115  0.7266
  925MOL0     O24771   6.445  10.806   5.332  0.3416  0.2325 -0.2671
  925MOL0     C24772   6.322  10.860   5.305  0.3734 -0.0079  0.6025
  925MOL0     C24773   6.225  10.787   5.250 -0.5469 -0.1808  0.1348
  925MOL0     C24774   6.097  10.835   5.227  1.3131 -0.6889  0.2007
  925MOL0     C24775   6.070  10.964   5.257  0.3815 -0.3842 -0.1959
  925MOL0     O24776   5.941  11.004   5.222  0.5182 -0.6295 -0.9627
  925MOL0     C24777   5.916  11.142   5.248 -0.7546 -0.0533  0.1483
  925MOL0     C24778   5.767  11.153   5.231  0.2445 -0.6016  0.2338
  925MOL0     C24779   5.719  11.299   5.243  0.4909 -0.0716 -0.4043
  925MOL0     C24780   5.579  11.307   5.188  0.1870  0.8270  0.2425
  925MOL0     C24781   5.479  11.216   5.266  1.0445 -0.2295 -0.3932
  925MOL0     C24782   5.347  11.241   5.197  0.1016  0.1840  0.0723
  925MOL0     C24783   5.231  11.235   5.298 -0.5531 -0.1878  0.6463
  925MOL0     C24784   5.116  11.320   5.248  0.2321  0.8497 -0.7373
  925MOL0    Cl24785   5.151  11.491   5.260 -0.0419 -0.2354  0.2033
  925MOL0     C24786   6.170  11.051   5.313 -0.4340  0.0683  0.3381
  925MOL0     C24787   6.295  10.991   5.330 -0.1996 -0.6136  0.1498
  925MOL0     O24788   6.546  10.874   5.131 -0.6646 -0.1387 -1.2677
  925MOL0     C24789   6.713  10.714   5.388 -0.3050 -0.2745  0.2184
  925MOL0     C24790   6.823  10.634   5.415  0.7842  0.1798  0.0115
  925MOL0     N24791   7.446  10.158   5.288 -0.3173  0.8101 -0.2854
  925MOL0     N24792   7.547  10.128   5.225  0.1311  0.0827 -1.1261
  925MOL0     C24793   8.747  10.331   5.720 -0.4301 -0.3583 -0.9182
  925MOL0     C24794   8.848  10.392   5.805 -0.0896  0.5233 -0.6026
  925MOL0     C24795   9.195  10.682   5.933  0.2947  0.8165 -0.4116
  925MOL0     C24796   9.313  10.748   5.911 -0.7862  0.7602  0.5325
  925MOL0     C24797   9.413  10.771   6.011  0.5555 -0.7562  0.1063
  925MOL0     C24798   9.390  10.738   6.148 -0.7807 -0.5264 -0.4599
  925MOL0     O24799   9.489  10.766   6.234  0.1006 -0.3011  0.4375
  925MOL0     C24800   9.498  10.703   6.367 -0.7103  0.6563 -0.4460
  925MOL0     C24801   9.517  10.788   6.488 -0.1139  0.2063  0.3936
  925MOL0     C24802   9.448  10.748   6.623 -1.1086  0.0658  0.4947
  925MOL0     C24803   9.494  10.610   6.680  0.3139 -0.5403  0.5722
  925MOL0     C24804   9.634  10.580   6.665 -1.3269 -0.0998  0.2718
  925MOL0     C24805   9.747  10.542   6.638  0.0019 -0.8314 -0.8131
  925MOL0     C24806   9.262  10.686   6.176 -0.2830 -0.3438  1.1670
  925MOL0     C24807   9.177  10.655   6.068 -0.5617  0.1105 -0.5426
  925MOL0     H24808   8.875  10.687   5.640  0.7396 -1.2256 -3.8399
  925MOL0     H24809   8.739  10.558   5.467 -0.2533 -2.1206 -1.0853
  925MOL0     H24810   8.663  10.421   5.346  1.2631 -0.0290  1.9880
  925MOL0     H24811   8.763  10.265   5.364 -0.9888 -2.5301 -0.4567
  925MOL0     H24812   8.600  10.249   5.195 -0.2703  1.7120  0.2291
  925MOL0     H24813   8.559  10.136   5.327 -1.9202  1.4397  2.1269
  925MOL0     H24814   8.402  10.320   5.415 -0.0804 -0.6027  0.3215
  925MOL0     H24815   8.426  10.380   5.246  0.5721 -0.5041  0.3963
  925MOL0     H24816   8.336  10.183   5.154 -0.5858  1.3762 -0.1829
  925MOL0     H24817   8.328  10.097   5.290  1.2849 -1.1490 -1.7533
  925MOL0     H24818   8.167  10.282   5.404 -0.7067  0.9649 -0.7384
  925MOL0     H24819   8.146  10.337   5.240  0.4843  0.4456 -0.4772
  925MOL0     H24820   8.058  10.101   5.201 -2.7914 -1.8177  1.9497
  925MOL0     H24821   8.070  10.061   5.366 -2.7475 -1.6185  0.1980
  925MOL0     H24822   7.896  10.196   5.437  0.0444  1.0070 -0.0811
  925MOL0     H24823   7.912  10.319   5.310  1.7544  0.0361 -1.8003
  925MOL0     H24824   7.817  10.025   5.276  1.9753  0.1993  1.2126
  925MOL0     H24825   7.806  10.146   5.150 -1.1011  0.3091 -0.3946
  925MOL0     H24826   7.673  10.308   5.468  0.9514 -0.0779 -1.0678
  925MOL0     H24827   7.396  10.239   5.574  0.6022 -0.4251 -1.8199
  925MOL0     H24828   7.433  10.401   5.527  2.9106 -1.2401  2.2714
  925MOL0     H24829   7.186  10.371   5.529  1.0486  2.2418 -0.9573
  925MOL0     H24830   7.191  10.228   5.435 -1.4400  0.9957 -2.1513
  925MOL0     H24831   7.276  10.367   5.239  1.8774  0.0144  1.9413
  925MOL0     H24832   7.266  10.513   5.344 -0.6995  0.7865  0.4750
  925MOL0     H24833   7.031  10.346   5.224  0.7690  0.1114 -0.3303
  925MOL0     H24834   7.080  10.496   5.166 -0.4513 -2.9684 -2.8143
  925MOL0     H24835   6.889  10.522   5.103 -1.6660 -0.8062 -0.0292
  925MOL0     H24836   6.695  10.770   4.961 -3.1741 -0.1212  0.6308
  925MOL0     H24837   6.738  10.597   4.936 -1.8370 -0.3259 -1.4845
  925MOL0     H24838   6.579  10.653   4.999  0.5736  1.0151 -0.6149
  925MOL0     H24839   6.246  10.683   5.226  0.2786  0.3701 -1.6230
  925MOL0     H24840   6.009  10.793   5.181 -0.1706  1.6496  0.7296
  925MOL0     H24841   5.934  11.171   5.352 -1.5549  0.8755  0.0428
  925MOL0     H24842   5.966  11.206   5.174  2.3392 -0.2888  1.8756
  925MOL0     H24843   5.745  11.118   5.130 -0.6237  0.1172  0.1607
  925MOL0     H24844   5.719  11.087   5.304  2.4710 -1.8672  0.6607
  925MOL0     H24845   5.779  11.365   5.179 -1.8502 -0.5784 -3.3883
  925MOL0     H24846   5.728  11.330   5.347  1.6049 -0.4840 -0.3654
  925MOL0     H24847   5.543  11.409   5.199 -1.6751  0.4304 -1.5613
  925MOL0     H24848   5.560  11.277   5.084 -3.8083 -2.1651  1.5691
  925MOL0     H24849   5.467  11.246   5.371  0.8844 -1.4560 -0.0423
  925MOL0     H24850   5.510  11.112   5.264 -0.0623 -0.6205  0.9173
  925MOL0     H24851   5.339  11.340   5.151 -1.1766 -0.6602 -1.6494
  925MOL0     H24852   5.332  11.164   5.120  2.7011 -0.7202  0.3694
  925MOL0     H24853   5.247  11.302   5.383 -2.1875  1.1326 -0.0168
  925MOL0     H24854   5.193  11.136   5.325 -3.0951  0.4715 -0.2124
  925MOL0     H24855   5.031  11.303   5.314 -0.0289 -1.0748 -1.4949
  925MOL0     H24856   5.077  11.287   5.151 -1.7915 -3.5212  1.2797
  925MOL0     H24857   6.158  11.153   5.345 -5.1725 -0.7908  2.1854
  925MOL0     H24858   6.373  11.053   5.374  0.6563 -1.1134 -0.6414
  925MOL0     H24859   6.671  10.772   5.469  2.5904 -1.9976  3.1684
  925MOL0     H24860   6.865  10.628   5.515  1.8343  1.3386 -0.3328
  925MOL0     H24861   8.693  10.237   5.733 -0.6830 -0.5831 -3.2122
  925MOL0     H24862   8.878  10.345   5.898 -1.7116 -2.4886 -1.4523
  925MOL0     H24863   9.335  10.776   5.808  0.7040 -3.0604 -0.3369
  925MOL0     H24864   9.503  10.804   5.960 -2.4626  2.8019 -3.6434
  925MOL0     H24865   9.403  10.648   6.375 -0.8517  1.0092  0.3136
  925MOL0     H24866   9.580  10.631   6.362 -1.1145  0.0730  0.9698
  925MOL0     H24867   9.481  10.886   6.457  2.1913 -0.1726 -4.3957
  925MOL0     H24868   9.624  10.797   6.508 -0.3022 -0.3732  1.8199
  925MOL0     H24869   9.339  10.744   6.615 -1.1859  0.1818  1.3761
  925MOL0     H24870   9.472  10.828   6.693 -3.8133  2.0643 -0.6978
  925MOL0     H24871   9.436  10.545   6.615 -2.4601  1.4013  0.9334
  925MOL0     H24872   9.472  10.595   6.786  1.0731 -0.8949  0.6869
  925MOL0     H24873   9.840  10.502   6.604 -0.5922 -3.2369  0.1653
  925MOL0     H24874   9.218  10.674   6.275 -0.9437  0.1176  0.9328
  925MOL0     H24875   9.083  10.618   6.108 -0.7827  1.2321  0.0373
  926MOL0     O24876   5.335   7.555   5.210 -0.3728 -0.2815 -0.7343
  926MOL0     C24877   5.232   7.608   5.188  0.5467  0.9868 -1.4415
  926MOL0     O24878   5.108   7.542   5.171 -0.8409 -0.0030  0.3508
  926MOL0     C24879   5.097   7.407   5.158  0.0689  0.4013 -0.3256
  926MOL0     C24880   5.163   7.315   5.238  0.5019  0.3606 -0.7564
  926MOL0     C24881   5.140   7.173   5.238 -0.5800 -0.3210  0.1615
  926MOL0     C24882   5.050   7.115   5.151  0.5456  0.0496 -0.4082
  926MOL0     O24883   5.014   6.985   5.170  0.5499  0.2630  0.0783
  926MOL0     C24884   5.004   6.895   5.057 -0.2599 -0.7448  0.3537
  926MOL0     C24885   4.905   6.788   5.089  0.0687  0.2960  0.8788
  926MOL0     C24886   4.924   6.711   5.222  0.6318 -0.0542  0.0892
  926MOL0     C24887   4.831   6.597   5.226  0.0537  0.3657 -0.8517
  926MOL0     C24888   4.696   6.645   5.279  0.0266  0.4282  0.4022
  926MOL0     C24889   4.602   6.530   5.296  0.3422  0.7669  0.4041
  926MOL0     C24890   4.478   6.552   5.392 -0.0693  0.5141 -0.7325
  926MOL0     C24891   4.396   6.681   5.356  0.0028  0.3253 -0.2314
  926MOL0     N24892   4.286   6.702   5.449 -0.5247 -0.7608 -0.1720
  926MOL0     C24893   4.272   6.813   5.533  0.6943 -0.1492 -0.4369
  926MOL0     C24894   4.153   6.789   5.604  0.6808  0.2397  0.5629
  926MOL0     C24895   4.091   6.863   5.719 -0.1411 -0.1392 -0.2986
  926MOL0     C24896   3.937   6.865   5.723 -0.4721 -0.1777 -0.2388
  926MOL0     C24897   3.885   7.004   5.762  0.2283  0.4418 -0.6038
  926MOL0     C24898   3.731   7.012   5.784 -0.8584  0.0115 -0.0690
  926MOL0     O24899   3.693   6.917   5.881  0.0441  0.1753  0.1445
  926MOL0     C24900   3.569   6.918   5.933  0.4340  0.3026 -0.0014
  926MOL0     C24901   3.553   6.822   6.041  0.3781  0.2476  0.9609
  926MOL0     C24902   3.430   6.826   6.115 -1.3122 -0.2771 -0.1091
  926MOL0     C24903   3.421   6.726   6.230  0.2216 -1.0013  0.3410
  926MOL0     C24904   3.327   6.925   6.078 -0.7977  0.1967 -0.4944
  926MOL0     C24905   3.201   6.946   6.154 -0.1721 -0.3709 -0.3540
  926MOL0     O24906   3.090   6.983   6.074  0.5403 -0.8366  0.2104
  926MOL0     C24907   2.981   7.054   6.124 -0.4069  1.0281 -0.5287
  926MOL0     C24908   2.942   7.169   6.058  0.4020  0.7901  0.3430
  926MOL0     C24909   2.831   7.245   6.098  0.0730 -0.2913  0.3720
  926MOL0     C24910   2.770   7.219   6.221  0.0980  0.1626 -0.8464
  926MOL0     O24911   2.671   7.302   6.279  0.4789 -0.2670 -0.4752
  926MOL0     C24912   2.708   7.442   6.301 -0.4147  0.6798 -0.2083
  926MOL0     C24913   2.634   7.509   6.410 -0.0860 -0.8920 -0.5110
  926MOL0     C24914   2.543   7.628   6.356 -0.4020 -0.5062 -0.0817
  926MOL0     C24915   2.444   7.593   6.240 -0.4483 -0.7038  0.1035
  926MOL0     C24916   2.298   7.563   6.276 -0.0488  0.1597 -0.0486
  926MOL0     C24917   2.285   7.415   6.335 -0.6177 -0.6708  0.8804
  926MOL0     C24918   2.147   7.386   6.393  0.0771  0.0198 -0.3524
  926MOL0     C24919   2.031   7.416   6.288 -0.7791  0.8497  0.2466
  926MOL0    Cl24920   2.053   7.335   6.125 -0.3554  0.2962  0.1138
  926MOL0     C24921   2.812   7.103   6.293  0.6138 -0.1875 -0.4142
  926MOL0     C24922   2.921   7.026   6.248 -0.2957 -0.5707  0.0727
  926MOL0     O24923   3.204   6.943   6.280  0.4226  0.0985 -0.3474
  926MOL0     C24924   3.343   6.996   5.962 -0.1337 -0.2686  0.0407
  926MOL0     C24925   3.462   6.993   5.886  0.1680 -0.6374  0.5057
  926MOL0     N24926   4.093   6.671   5.557  0.9224  0.0198 -0.4797
  926MOL0     N24927   4.180   6.625   5.470 -0.0926  0.0902  0.3681
  926MOL0     C24928   4.979   7.206   5.066  0.2494  0.6229  0.0147
  926MOL0     C24929   5.000   7.349   5.067  0.5795  0.0621  0.1945
  926MOL0     C24930   5.223   7.755   5.177  0.2336  0.9687 -0.4260
  926MOL0     C24931   5.338   7.829   5.206 -0.5160 -0.3930 -0.5725
  926MOL0     C24932   5.327   7.971   5.202 -0.2149  0.2490 -0.3773
  926MOL0     C24933   5.209   8.034   5.159  0.1112  0.4260  1.3103
  926MOL0     O24934   5.197   8.174   5.145 -0.2981  0.5587  0.3892
  926MOL0     C24935   5.311   8.257   5.179  0.5805 -0.2729 -0.0023
  926MOL0     C24936   5.417   8.267   5.069 -1.0221 -0.0546  0.4669
  926MOL0     C24937   5.548   8.338   5.135  0.2945 -0.2477 -0.2529
  926MOL0     C24938   5.637   8.257   5.225 -0.2440  0.3579  0.6001
  926MOL0     C24939   5.718   8.155   5.157  0.1951  0.0448  0.1245
  926MOL0     C24940   5.785   8.055   5.119  0.1821 -0.6432 -1.0022
  926MOL0     C24941   5.100   7.959   5.127 -0.4273 -0.1640 -0.2995
  926MOL0     C24942   5.104   7.827   5.141 -0.4070  1.3596  0.9341
  926MOL0     H24943   5.236   7.363   5.302  0.5241 -1.2327  0.4613
  926MOL0     H24944   5.191   7.113   5.312 -3.3905 -1.9359  0.9301
  926MOL0     H24945   4.982   6.941   4.960 -2.7192 -4.5845 -1.1085
  926MOL0     H24946   5.103   6.850   5.052  0.6640  1.2346 -0.4416
  926MOL0     H24947   4.805   6.832   5.089  0.8214  2.2276 -1.6033
  926MOL0     H24948   4.916   6.716   5.008  1.8103  0.7305  0.6889
  926MOL0     H24949   5.027   6.677   5.235  0.6892 -0.7958 -1.9489
  926MOL0     H24950   4.906   6.786   5.300 -0.7627 -1.1501  0.8631
  926MOL0     H24951   4.812   6.539   5.135 -2.6750 -1.5053  0.7550
  926MOL0     H24952   4.865   6.524   5.300  0.0684  1.7099  0.5221
  926MOL0     H24953   4.711   6.687   5.379 -2.7453 -0.2740  1.2099
  926MOL0     H24954   4.654   6.724   5.217  2.4854  1.8213  0.4237
  926MOL0     H24955   4.557   6.494   5.203 -0.9907 -2.2059  2.0770
  926MOL0     H24956   4.661   6.449   5.340  1.9969  0.3856 -2.3023
  926MOL0     H24957   4.413   6.464   5.387 -0.4746  0.6724  1.0447
  926MOL0     H24958   4.521   6.570   5.491 -2.4992  2.0934  0.1236
  926MOL0     H24959   4.360   6.674   5.253  2.4489 -0.4223 -1.0866
  926MOL0     H24960   4.462   6.769   5.356  1.9875 -1.1060 -0.4701
  926MOL0     H24961   4.327   6.906   5.545 -3.7287  2.8089 -0.7726
  926MOL0     H24962   4.120   6.819   5.815 -0.5989  0.6551  0.2158
  926MOL0     H24963   4.135   6.963   5.725 -1.0158  0.3058 -1.0668
  926MOL0     H24964   3.917   6.780   5.789  0.3041 -0.6761 -0.6310
  926MOL0     H24965   3.909   6.833   5.623  4.5731 -0.7144 -1.7460
  926MOL0     H24966   3.910   7.063   5.674 -0.4766 -0.8802 -1.7297
  926MOL0     H24967   3.938   7.042   5.849 -0.3078  1.6105 -0.7764
  926MOL0     H24968   3.681   6.983   5.691 -0.3351 -0.5104 -0.1981
  926MOL0     H24969   3.705   7.113   5.817  0.7331  0.7962 -1.1088
  926MOL0     H24970   3.632   6.751   6.063 -0.7392 -0.3305  3.5212
  926MOL0     H24971   3.410   6.787   6.320 -1.2700 -1.0227  0.1978
  926MOL0     H24972   3.331   6.665   6.220 -0.3480  0.0526 -1.5650
  926MOL0     H24973   3.514   6.670   6.236  0.4788 -0.6069  0.0341
  926MOL0     H24974   3.004   7.196   5.974  1.3344 -1.2052  0.3362
  926MOL0     H24975   2.806   7.321   6.025  0.2743 -2.5590 -2.2095
  926MOL0     H24976   2.813   7.462   6.320 -0.3201  2.0152 -1.8643
  926MOL0     H24977   2.699   7.505   6.212  1.4546 -1.0856 -1.7593
  926MOL0     H24978   2.571   7.441   6.467  0.7081  0.1348  1.7085
  926MOL0     H24979   2.705   7.551   6.482 -0.2002 -3.3773  1.1519
  926MOL0     H24980   2.602   7.714   6.323 -0.4431 -1.7080 -3.6370
  926MOL0     H24981   2.481   7.662   6.440  0.0331  0.9897 -0.3358
  926MOL0     H24982   2.440   7.684   6.179  0.8362 -1.0556 -0.5307
  926MOL0     H24983   2.481   7.514   6.174  1.2522 -1.1100  1.4872
  926MOL0     H24984   2.241   7.574   6.184 -0.6010 -0.9390  0.1343
  926MOL0     H24985   2.254   7.637   6.344 -2.9556 -1.0306 -0.4806
  926MOL0     H24986   2.299   7.343   6.254 -1.0264 -2.5514  2.4066
  926MOL0     H24987   2.363   7.415   6.411 -0.6762 -1.0019  0.9404
  926MOL0     H24988   2.140   7.453   6.479 -1.4871 -0.0074 -0.4314
  926MOL0     H24989   2.154   7.281   6.423  1.0033  0.2223  0.1842
  926MOL0     H24990   2.018   7.521   6.260  2.2357  0.8310 -1.7096
  926MOL0     H24991   1.941   7.371   6.331 -0.3844 -0.4969 -0.2864
  926MOL0     H24992   2.764   7.081   6.388 -0.9648 -1.5823 -1.4790
  926MOL0     H24993   2.946   6.936   6.302 -0.1174 -0.8323 -0.4422
  926MOL0     H24994   3.268   7.070   5.936 -0.1505  0.1902  1.3590
  926MOL0     H24995   3.474   7.053   5.797 -1.5067 -3.2297 -1.6260
  926MOL0     H24996   4.899   7.168   5.003 -1.0420  1.6604  0.9649
  926MOL0     H24997   4.931   7.401   5.002  0.9684  1.1418  0.6285
  926MOL0     H24998   5.427   7.774   5.233 -1.2426 -1.5195 -0.4047
  926MOL0     H24999   5.410   8.037   5.221 -0.0373  0.4990 -1.9287
  926MOL0     H25000   5.276   8.358   5.205 -0.0386 -1.2806  3.7136
  926MOL0     H25001   5.358   8.225   5.273  3.0850  1.1879 -0.6572
  926MOL0     H25002   5.386   8.333   4.987  1.9615  1.9745  0.8255
  926MOL0     H25003   5.438   8.168   5.027  0.7628  0.1253  0.8486
  926MOL0     H25004   5.519   8.427   5.190  1.2016  0.5948 -1.1083
  926MOL0     H25005   5.624   8.371   5.064  2.8654 -0.3931  2.2566
  926MOL0     H25006   5.564   8.217   5.297 -0.1357  1.4596  1.3442
  926MOL0     H25007   5.705   8.319   5.284 -0.8827  2.0862 -0.4303
  926MOL0     H25008   5.832   7.960   5.103  0.4004 -1.0002  1.3170
  926MOL0     H25009   5.004   8.005   5.106  0.6274  1.8778 -0.9901
  926MOL0     H25010   5.011   7.773   5.129 -1.4999  3.2661  0.3499
  927MOL0     O25011   8.221  10.508   5.031 -0.2108  0.1206  1.1133
  927MOL0     C25012   8.260  10.599   5.100  0.6100 -0.4478 -1.3119
  927MOL0     O25013   8.182  10.691   5.169  0.0190  0.5973  0.8878
  927MOL0     C25014   8.053  10.683   5.143 -0.2897  0.6468 -0.6437
  927MOL0     C25015   8.002  10.802   5.093 -1.0693 -0.1156 -0.5850
  927MOL0     C25016   7.869  10.808   5.058 -0.2585  0.8087 -0.7995
  927MOL0     C25017   7.787  10.693   5.074  0.2656 -0.0738 -0.1063
  927MOL0     O25018   7.653  10.687   5.047 -0.2069 -0.0052 -0.5804
  927MOL0     C25019   7.582  10.807   5.055 -0.7503 -0.3152  0.2940
  927MOL0     C25020   7.441  10.760   5.084  0.1649 -0.5407  0.0851
  927MOL0     C25021   7.377  10.682   4.972  0.0510 -0.1241 -0.3235
  927MOL0     C25022   7.327  10.770   4.874  0.5693  0.2991  1.0010
  927MOL0     C25023   7.194  10.723   4.818  0.0160 -0.2984  0.0120
  927MOL0     C25024   7.135  10.831   4.720 -0.2732 -0.1470 -1.2395
  927MOL0     C25025   6.993  10.807   4.663  0.0367  0.2814 -0.5738
  927MOL0     C25026   6.941  10.915   4.564  1.0827  0.0275  0.2360
  927MOL0     N25027   6.798  10.896   4.542  0.8085  0.1970 -0.5620
  927MOL0     C25028   6.700  10.964   4.605 -0.0942  0.6770  0.4776
  927MOL0     C25029   6.588  10.908   4.557  0.5779 -0.0498 -0.2547
  927MOL0     C25030   6.444  10.946   4.585 -0.1045  0.5602 -0.9198
  927MOL0     C25031   6.382  10.875   4.706 -0.0985 -1.4265  0.3360
  927MOL0     C25032   6.347  10.963   4.824 -0.4978  0.2377 -0.6602
  927MOL0     C25033   6.268  10.882   4.930  0.1487  0.6767  1.0166
  927MOL0     O25034   6.147  10.818   4.883  0.0677 -0.6128  0.2408
  927MOL0     C25035   6.025  10.878   4.873 -0.6683 -0.7690  0.0456
  927MOL0     C25036   5.926  10.798   4.816  0.3386  1.0289  0.0253
  927MOL0     C25037   5.796  10.852   4.796  0.9857  0.3421 -0.6592
  927MOL0     C25038   5.682  10.757   4.752 -0.1049  0.6229 -0.1762
  927MOL0     C25039   5.779  10.996   4.813  1.1358  0.8703 -0.0176
  927MOL0     C25040   5.645  11.058   4.788 -0.2971 -0.3696  0.3807
  927MOL0     O25041   5.541  11.001   4.723 -0.6119  0.1341 -0.5849
  927MOL0     C25042   5.423  11.058   4.728  0.3503  0.6087  0.0423
  927MOL0     C25043   5.345  11.059   4.841 -1.0921  0.2401 -0.2188
  927MOL0     C25044   5.227  11.130   4.845  0.5192  0.2401  0.3429
  927MOL0     C25045   5.171  11.185   4.725 -0.4847  0.6159  0.1994
  927MOL0     O25046   5.056  11.255   4.710 -0.2943  0.1888 -0.2104
  927MOL0     C25047   4.949  11.243   4.815 -0.9145  1.1222 -0.0506
  927MOL0     C25048   4.824  11.325   4.780 -0.3786  0.7752  0.1063
  927MOL0     C25049   4.725  11.328   4.899 -0.3157 -0.3798  0.0527
  927MOL0     C25050   4.752  11.441   5.002 -0.3467  0.6789  0.5550
  927MOL0     C25051   4.703  11.417   5.143  0.0793  0.3378  0.4714
  927MOL0     C25052   4.546  11.414   5.138 -0.1341  0.4456 -0.7020
  927MOL0     C25053   4.478  11.418   5.271  0.3850  0.2944  0.1645
  927MOL0     C25054   4.328  11.422   5.239  0.3776  0.3165 -0.6089
  927MOL0    Cl25055   4.224  11.381   5.384 -0.1613 -0.2934 -0.0606
  927MOL0     C25056   5.247  11.184   4.611  0.0578  1.2562  0.5024
  927MOL0     C25057   5.377  11.122   4.612 -0.4568  0.6809  0.4093
  927MOL0     O25058   5.647  11.173   4.831 -0.4529 -0.1927 -0.0387
  927MOL0     C25059   5.883  11.073   4.871  1.0686 -0.8876  0.4635
  927MOL0     C25060   6.004  11.017   4.902 -0.1580 -0.8053  0.2158
  927MOL0     N25061   6.618  10.801   4.475 -0.2390 -0.4808 -0.2959
  927MOL0     N25062   6.740  10.798   4.464 -0.5727  0.3972  0.5924
  927MOL0     C25063   7.830  10.575   5.127 -0.3671 -0.4753 -1.5253
  927MOL0     C25064   7.969  10.568   5.154  0.3626  0.0639 -0.4116
  927MOL0     C25065   8.406  10.614   5.110  0.4204  0.2923 -0.6009
  927MOL0     C25066   8.498  10.538   5.039  0.3373  0.0385 -0.9432
  927MOL0     C25067   8.638  10.561   5.047 -0.0929 -0.1334 -0.2397
  927MOL0     C25068   8.687  10.659   5.123  0.0060 -0.1273 -0.5058
  927MOL0     O25069   8.819  10.676   5.113  0.2644 -0.0610  0.2083
  927MOL0     C25070   8.884  10.712   5.230 -0.1035 -0.3949 -0.0653
  927MOL0     C25071   9.016  10.641   5.245 -0.5532  0.3584 -0.4944
  927MOL0     C25072   9.099  10.701   5.362  0.2003  0.1961  0.2895
  927MOL0     C25073   9.245  10.665   5.334  0.0576  0.1382 -0.1496
  927MOL0     C25074   9.332  10.730   5.433  0.1883 -0.1664  0.6050
  927MOL0     C25075   9.420  10.780   5.500  0.0018 -0.4297 -0.3027
  927MOL0     C25076   8.598  10.736   5.202  0.6740  0.8932 -0.3248
  927MOL0     C25077   8.462  10.710   5.203 -0.1111  0.5795 -0.5826
  927MOL0     H25078   8.060  10.894   5.093  2.3759 -2.0795  1.9968
  927MOL0     H25079   7.830  10.902   5.021 -3.5513  0.3823  1.2163
  927MOL0     H25080   7.611  10.883   5.129 -0.9885  0.6465 -0.5884
  927MOL0     H25081   7.589  10.849   4.955 -1.3252 -2.3624 -0.6693
  927MOL0     H25082   7.442  10.704   5.178 -0.5657  0.6444  0.8212
  927MOL0     H25083   7.373  10.843   5.105 -0.6723 -1.1728 -0.0435
  927MOL0     H25084   7.451  10.619   4.921 -0.3228  1.1103 -2.5292
  927MOL0     H25085   7.297  10.619   5.012  1.0583 -2.9111 -2.3313
  927MOL0     H25086   7.316  10.870   4.915  0.4889 -0.1006  1.9738
  927MOL0     H25087   7.391  10.774   4.785 -0.6156 -0.1973  0.0995
  927MOL0     H25088   7.204  10.629   4.764 -0.2556 -0.0933 -0.3981
  927MOL0     H25089   7.129  10.706   4.904  0.5875  3.0346  1.2553
  927MOL0     H25090   7.115  10.927   4.768  0.0759 -0.0491 -1.2805
  927MOL0     H25091   7.214  10.855   4.648  4.3354  0.0480  3.3061
  927MOL0     H25092   6.988  10.704   4.627 -2.1535  0.2456 -0.3474
  927MOL0     H25093   6.923  10.811   4.748 -1.1854 -0.6551 -1.4872
  927MOL0     H25094   6.980  10.921   4.462  1.3876  1.5392  0.4217
  927MOL0     H25095   6.950  11.009   4.619 -1.4426  0.8430 -0.6379
  927MOL0     H25096   6.708  11.049   4.673  1.5839  2.0077 -1.2382
  927MOL0     H25097   6.450  11.054   4.602  1.4015  0.1277  1.9930
  927MOL0     H25098   6.377  10.920   4.503  1.4221 -1.0410 -1.7156
  927MOL0     H25099   6.459  10.805   4.741  1.3565 -0.7920 -1.4589
  927MOL0     H25100   6.298  10.812   4.673 -1.8757 -0.2571  2.3963
  927MOL0     H25101   6.292  11.054   4.799 -0.4140  0.4632 -0.0519
  927MOL0     H25102   6.440  11.002   4.866 -0.2332 -2.9908  2.1661
  927MOL0     H25103   6.258  10.955   5.011  2.4926  1.6995  0.4985
  927MOL0     H25104   6.336  10.801   4.958 -0.9346 -1.2728 -1.6207
  927MOL0     H25105   5.947  10.696   4.787 -0.7420  0.7994  0.0040
  927MOL0     H25106   5.706  10.658   4.792 -1.3989  0.6042  0.5790
  927MOL0     H25107   5.586  10.775   4.800  0.3850 -1.0701  1.5328
  927MOL0     H25108   5.661  10.776   4.646 -0.2411  3.6904  0.3186
  927MOL0     H25109   5.368  11.000   4.929 -1.0323 -1.3821 -1.2686
  927MOL0     H25110   5.184  11.144   4.944  1.6398  2.0377  0.6259
  927MOL0     H25111   4.927  11.137   4.832  1.3298  0.1148 -2.5301
  927MOL0     H25112   4.997  11.274   4.909  1.4325  1.2662 -1.2094
  927MOL0     H25113   4.866  11.421   4.750  0.6645  0.7088  1.3161
  927MOL0     H25114   4.768  11.279   4.697 -1.1292  0.0364  0.9947
  927MOL0     H25115   4.721  11.232   4.950 -4.2050 -0.8590 -0.8039
  927MOL0     H25116   4.626  11.343   4.855 -0.7121  3.1816  1.7762
  927MOL0     H25117   4.855  11.472   5.019 -0.8116  2.9706 -0.4030
  927MOL0     H25118   4.706  11.532   4.961  1.5508  1.4105 -0.0447
  927MOL0     H25119   4.740  11.495   5.211 -0.8952  1.0048  0.2633
  927MOL0     H25120   4.740  11.324   5.188  0.5992 -0.6210 -1.7996
  927MOL0     H25121   4.523  11.499   5.073  1.2262 -0.1279 -1.9698
  927MOL0     H25122   4.510  11.324   5.087  0.0277  0.1151 -0.2423
  927MOL0     H25123   4.505  11.502   5.336  2.6923  0.0117 -0.3311
  927MOL0     H25124   4.509  11.331   5.331  1.5038 -0.5051 -1.4834
  927MOL0     H25125   4.304  11.362   5.151 -2.4706 -1.3065  1.1113
  927MOL0     H25126   4.306  11.525   5.210  0.5551  0.9103  1.2120
  927MOL0     H25127   5.195  11.218   4.522 -0.1875 -0.9630 -0.2909
  927MOL0     H25128   5.428  11.115   4.517  0.0563 -2.1701  0.8105
  927MOL0     H25129   5.862  11.173   4.906 -3.6586 -1.5715  0.2380
  927MOL0     H25130   6.080  11.077   4.950 -2.0411 -1.0494  3.8069
  927MOL0     H25131   7.772  10.484   5.129  0.6840 -1.2239  2.0771
  927MOL0     H25132   8.014  10.476   5.190 -1.0552  0.3822  2.4342
  927MOL0     H25133   8.467  10.465   4.964  1.4956  0.4325 -1.8367
  927MOL0     H25134   8.704  10.494   4.993  1.1250  3.3922 -3.5800
  927MOL0     H25135   8.911  10.818   5.223 -2.3413  0.2591  0.5595
  927MOL0     H25136   8.830  10.704   5.325 -1.1643  1.1798 -0.4979
  927MOL0     H25137   9.073  10.639   5.152  1.1082 -0.1369  0.5061
  927MOL0     H25138   8.993  10.539   5.278 -1.0469  0.7957  0.5513
  927MOL0     H25139   9.061  10.657   5.455  0.8283 -3.3912 -0.9946
  927MOL0     H25140   9.094  10.811   5.364 -1.5011  0.1345  0.0713
  927MOL0     H25141   9.261  10.702   5.232 -2.9550 -3.1364 -2.0621
  927MOL0     H25142   9.264  10.558   5.326  0.1254  0.1701 -0.4383
  927MOL0     H25143   9.501  10.827   5.553 -0.1626 -1.4777  0.9191
  927MOL0     H25144   8.636  10.817   5.264  1.8739 -1.3929  2.1713
  927MOL0     H25145   8.391  10.761   5.268 -1.2919 -2.7919  0.9811
  928MOL0     O25146   9.750   1.345   4.257 -0.7447 -0.3678 -0.0781
  928MOL0     C25147   9.749   1.341   4.379 -0.3790  0.2276 -0.2202
  928MOL0     O25148   9.648   1.366   4.459 -0.8027  0.3938  0.4429
  928MOL0     C25149   9.532   1.382   4.402  0.8476 -0.1444  0.4314
  928MOL0     C25150   9.492   1.510   4.345  0.6549  0.5228 -0.4800
  928MOL0     C25151   9.366   1.520   4.286 -0.4310 -0.0140  0.3591
  928MOL0     C25152   9.277   1.401   4.292  0.0924 -0.4106  0.1563
  928MOL0     O25153   9.148   1.388   4.249  0.8940 -0.4894  0.3246
  928MOL0     C25154   9.089   1.501   4.173 -0.7015  0.6176 -0.1279
  928MOL0     C25155   8.946   1.464   4.128 -0.0303  0.1071 -0.3450
  928MOL0     C25156   8.889   1.564   4.026 -0.1627 -0.5201 -0.3482
  928MOL0     C25157   8.763   1.509   3.967  0.1826 -0.4615  0.1717
  928MOL0     C25158   8.687   1.623   3.907  0.4795  0.6412 -0.3339
  928MOL0     C25159   8.594   1.576   3.788  0.3057  0.8008 -0.2316
  928MOL0     C25160   8.530   1.691   3.709  0.5356 -0.1651  0.0034
  928MOL0     C25161   8.441   1.785   3.798  0.0189  0.1723 -0.4679
  928MOL0     N25162   8.346   1.714   3.881  0.6565  0.3016  0.1294
  928MOL0     C25163   8.222   1.667   3.842  0.2273  0.2564  0.8693
  928MOL0     C25164   8.165   1.622   3.960  0.0474 -0.1724  0.8622
  928MOL0     C25165   8.024   1.567   3.967 -0.0699 -0.0109  0.3108
  928MOL0     C25166   7.970   1.566   4.109  0.3378  0.5347  0.1838
  928MOL0     C25167   7.835   1.480   4.113  0.2531 -0.3479  0.9230
  928MOL0     C25168   7.766   1.512   4.241  0.0458 -0.2315  0.5340
  928MOL0     O25169   7.734   1.653   4.251 -0.3032 -0.6156  0.2336
  928MOL0     C25170   7.604   1.690   4.219 -0.3871 -0.2061  0.3317
  928MOL0     C25171   7.488   1.643   4.284  0.0794  0.6865  0.9646
  928MOL0     C25172   7.363   1.691   4.248 -0.2568 -0.3265 -0.3434
  928MOL0     C25173   7.257   1.632   4.342 -0.7155  0.5188 -0.6344
  928MOL0     C25174   7.343   1.796   4.150  0.0019  0.2546  0.1035
  928MOL0     C25175   7.211   1.859   4.119  0.2674 -0.3647  0.3329
  928MOL0     O25176   7.103   1.816   4.190 -0.2979 -0.9619  0.2469
  928MOL0     C25177   6.986   1.886   4.173 -1.0280  1.5430  0.0448
  928MOL0     C25178   6.869   1.808   4.182  0.0501 -0.0484 -0.6044
  928MOL0     C25179   6.740   1.865   4.175 -0.1284  0.6287 -0.3359
  928MOL0     C25180   6.719   2.003   4.145  0.2339 -0.0799 -1.2053
  928MOL0     O25181   6.602   2.064   4.123  0.5752  0.2243  0.6955
  928MOL0     C25182   6.496   1.984   4.059 -0.4324  0.1604  0.1628
  928MOL0     C25183   6.370   2.066   4.035  0.0209  0.7244  0.7003
  928MOL0     C25184   6.250   1.978   3.994  0.3862  0.3225  0.4620
  928MOL0     C25185   6.128   2.066   3.982  0.0269 -0.6690  0.4207
  928MOL0     C25186   6.000   1.985   3.951 -0.4761 -0.1021  0.2712
  928MOL0     C25187   5.940   1.925   4.081 -0.6723  0.4831  0.2895
  928MOL0     C25188   5.811   1.848   4.058 -0.0635 -0.6972 -0.5742
  928MOL0     C25189   5.780   1.753   4.182 -0.7828 -0.5761  0.0861
  928MOL0    Cl25190   5.598   1.743   4.176 -0.1966 -0.1996 -0.1426
  928MOL0     C25191   6.838   2.084   4.140 -0.4091 -0.5872  0.1493
  928MOL0     C25192   6.969   2.021   4.152 -0.1425 -0.3719 -0.4603
  928MOL0     O25193   7.208   1.945   4.026  0.5032 -0.0527 -0.0909
  928MOL0     C25194   7.456   1.837   4.084  0.3307  0.8513  0.5504
  928MOL0     C25195   7.582   1.783   4.116 -0.2182  0.5022  0.2688
  928MOL0     N25196   8.258   1.642   4.060  0.0833 -0.2263 -0.8210
  928MOL0     N25197   8.367   1.698   4.015 -0.4417 -0.2970  0.1517
  928MOL0     C25198   9.318   1.284   4.358  0.4125 -1.1735  0.0381
  928MOL0     C25199   9.447   1.272   4.408  0.6551 -0.3060 -0.2270
  928MOL0     C25200   9.880   1.296   4.442  0.5075  0.4815 -0.8053
  928MOL0     C25201   9.997   1.279   4.364  1.0058  0.2241 -0.0604
  928MOL0     C25202  10.124   1.253   4.438  0.3529  0.5822  0.4319
  928MOL0     C25203  10.135   1.249   4.578  0.1390  0.5519  0.7778
  928MOL0     O25204  10.259   1.245   4.624 -0.1749  0.1681  0.4089
  928MOL0     C25205  10.286   1.274   4.759  0.0742  0.2886 -0.2527
  928MOL0     C25206  10.432   1.282   4.777  0.1165  0.0221  0.4965
  928MOL0     C25207  10.509   1.180   4.686  0.2639  0.1740 -0.7785
  928MOL0     C25208  10.658   1.178   4.716 -0.8952  0.6867  0.5641
  928MOL0     C25209  10.691   1.070   4.812  0.4803  0.1642  0.2041
  928MOL0     C25210  10.720   0.971   4.879  0.6888 -0.3751 -0.0112
  928MOL0     C25211  10.019   1.271   4.644  0.2628 -0.3066 -0.5475
  928MOL0     C25212   9.890   1.287   4.582  0.0743  0.6327 -0.6843
  928MOL0     H25213   9.574   1.581   4.337  1.4719 -0.4123 -0.6469
  928MOL0     H25214   9.340   1.610   4.231  0.9681  1.0297  1.3418
  928MOL0     H25215   9.088   1.589   4.237 -0.1226 -0.8623  2.0184
  928MOL0     H25216   9.162   1.509   4.092  3.6314  0.8937  3.3961
  928MOL0     H25217   8.943   1.367   4.078 -2.8690 -1.2042  2.1075
  928MOL0     H25218   8.881   1.436   4.211 -0.6081  1.8644 -0.1633
  928MOL0     H25219   8.892   1.667   4.062 -2.4887  0.0511 -1.6203
  928MOL0     H25220   8.968   1.577   3.951  2.5767  0.0443  2.4304
  928MOL0     H25221   8.783   1.435   3.888 -3.6507  0.1065 -1.5602
  928MOL0     H25222   8.707   1.458   4.046  0.0943 -2.2033 -0.9533
  928MOL0     H25223   8.627   1.668   3.987 -0.4637 -4.0156  1.9663
  928MOL0     H25224   8.757   1.696   3.867  2.3316 -0.5537  0.6069
  928MOL0     H25225   8.657   1.519   3.720 -0.2595  0.9399 -0.8816
  928MOL0     H25226   8.512   1.516   3.829 -1.7878  2.8959 -1.0827
  928MOL0     H25227   8.606   1.760   3.673  0.5606 -0.3040 -0.2119
  928MOL0     H25228   8.468   1.642   3.633  0.5124 -0.9356  0.5009
  928MOL0     H25229   8.384   1.854   3.735 -0.4036  0.4901  0.2513
  928MOL0     H25230   8.512   1.842   3.859  1.9172  0.5324 -2.8818
  928MOL0     H25231   8.170   1.672   3.747 -1.2707  3.9139  1.7347
  928MOL0     H25232   7.964   1.640   3.912  3.0365  0.8796 -2.2520
  928MOL0     H25233   8.014   1.471   3.915  0.2781  1.4769 -2.7325
  928MOL0     H25234   7.963   1.670   4.141 -2.4800  0.2886  0.5862
  928MOL0     H25235   8.044   1.520   4.176  2.6847  0.6857 -2.1649
  928MOL0     H25236   7.848   1.371   4.110 -1.9997 -0.8053  3.6964
  928MOL0     H25237   7.772   1.511   4.029  0.7441  0.8101  0.9729
  928MOL0     H25238   7.824   1.477   4.327 -0.6060  0.7297  1.3855
  928MOL0     H25239   7.671   1.457   4.242  0.7899 -1.5607  0.9864
  928MOL0     H25240   7.495   1.575   4.368  1.1198  0.7885  0.9718
  928MOL0     H25241   7.249   1.691   4.434 -0.5711  1.2260 -1.0692
  928MOL0     H25242   7.160   1.617   4.293 -0.9445 -0.9609  0.2308
  928MOL0     H25243   7.284   1.530   4.371 -3.2657 -0.2849 -0.8330
  928MOL0     H25244   6.881   1.706   4.216  1.5190 -0.2554 -1.6220
  928MOL0     H25245   6.650   1.805   4.186 -1.4408  2.5313 -0.0883
  928MOL0     H25246   6.527   1.933   3.968 -4.7214 -3.2429  0.3256
  928MOL0     H25247   6.466   1.906   4.130  1.0102  0.6051  1.3224
  928MOL0     H25248   6.342   2.118   4.127 -2.7766 -1.6926  1.3654
  928MOL0     H25249   6.387   2.134   3.951  0.1507 -0.2310 -0.0618
  928MOL0     H25250   6.227   1.903   4.071  0.4349 -1.9801 -1.6466
  928MOL0     H25251   6.257   1.932   3.895 -1.0733  1.6067 -0.2738
  928MOL0     H25252   6.116   2.121   4.075 -2.6798  1.4920 -1.0689
  928MOL0     H25253   6.140   2.136   3.899 -2.3402  2.4279  2.4531
  928MOL0     H25254   6.035   1.908   3.881 -0.9563  0.3806 -0.5166
  928MOL0     H25255   5.922   2.040   3.897 -1.0421 -2.5219 -1.5740
  928MOL0     H25256   6.013   1.856   4.124 -1.1079 -0.4421 -0.4134
  928MOL0     H25257   5.931   2.008   4.153 -1.7657 -1.4675  2.5384
  928MOL0     H25258   5.813   1.793   3.964  0.3654  0.0979 -1.0493
  928MOL0     H25259   5.727   1.918   4.049 -0.1072 -0.3620  1.8077
  928MOL0     H25260   5.805   1.806   4.274 -3.3630  1.0854 -0.0716
  928MOL0     H25261   5.834   1.659   4.168 -1.0173 -0.5473 -1.1239
  928MOL0     H25262   6.840   2.186   4.105 -2.4228  0.0877  1.7667
  928MOL0     H25263   7.052   2.090   4.146 -0.6747  0.4437  0.8839
  928MOL0     H25264   7.435   1.918   4.014 -0.8723  0.1353  0.0581
  928MOL0     H25265   7.667   1.802   4.052  1.8408 -1.1816  2.3315
  928MOL0     H25266   9.254   1.199   4.377  1.2542 -1.7797  0.2002
  928MOL0     H25267   9.470   1.186   4.469 -0.2895  0.1266  0.7861
  928MOL0     H25268  10.007   1.275   4.256 -0.7595  0.1975 -0.2452
  928MOL0     H25269  10.204   1.238   4.367  0.3737 -1.0622  0.7766
  928MOL0     H25270  10.251   1.375   4.781 -2.2929 -0.0719 -2.0285
  928MOL0     H25271  10.242   1.198   4.825 -2.6299  2.3154  0.4468
  928MOL0     H25272  10.444   1.245   4.879  2.7273 -4.1542 -1.1060
  928MOL0     H25273  10.482   1.377   4.752 -0.7804 -0.3705 -3.6403
  928MOL0     H25274  10.505   1.212   4.582  1.8342  0.0094 -0.9190
  928MOL0     H25275  10.456   1.084   4.686 -0.7574  0.6338 -4.1292
  928MOL0     H25276  10.689   1.276   4.751  1.3267  0.2293  0.0214
  928MOL0     H25277  10.725   1.157   4.632 -0.2335  1.9557  0.7549
  928MOL0     H25278  10.720   0.893   4.953  0.9837 -0.1771  0.2029
  928MOL0     H25279  10.018   1.287   4.751  1.5815 -1.5041 -0.3297
  928MOL0     H25280   9.811   1.311   4.653 -0.2446 -2.2712  0.0770
  929MOL0     O25281   7.220   8.968   6.255 -0.0367 -0.1188  0.4358
  929MOL0     C25282   7.234   9.088   6.225  0.2014 -0.6729  0.5559
  929MOL0     O25283   7.128   9.170   6.188  0.1324  0.0708 -0.1953
  929MOL0     C25284   7.002   9.125   6.229  0.4118 -0.7118  0.3187
  929MOL0     C25285   6.937   9.031   6.154  0.7535 -0.3444  0.1814
  929MOL0     C25286   6.809   8.984   6.182  0.2293 -0.5936 -0.5755
  929MOL0     C25287   6.742   9.039   6.292 -0.7963 -1.0007 -0.5926
  929MOL0     O25288   6.616   8.995   6.333 -0.3496  0.3522  0.0501
  929MOL0     C25289   6.575   8.863   6.312 -0.4274 -0.1023 -0.4809
  929MOL0     C25290   6.490   8.820   6.434 -0.6736  0.0411 -0.3320
  929MOL0     C25291   6.447   8.670   6.431 -0.2157 -0.3212 -0.5846
  929MOL0     C25292   6.339   8.652   6.328  0.7299  0.1300 -0.2837
  929MOL0     C25293   6.286   8.505   6.324  0.2487 -0.4251 -0.3278
  929MOL0     C25294   6.173   8.483   6.228 -0.9496 -0.4391 -0.7493
  929MOL0     C25295   6.043   8.565   6.244 -0.4185 -0.4339  0.4955
  929MOL0     C25296   5.983   8.569   6.384  0.0550 -0.0994  0.0456
  929MOL0     N25297   5.915   8.444   6.433 -0.0152  0.8368 -0.1820
  929MOL0     C25298   5.969   8.333   6.504 -0.3017  0.9644  0.0593
  929MOL0     C25299   5.854   8.253   6.527 -0.1165  0.0517 -0.2064
  929MOL0     C25300   5.849   8.112   6.586  0.4716 -0.4777 -0.7186
  929MOL0     C25301   5.846   8.103   6.740  0.7989 -0.6440 -0.5303
  929MOL0     C25302   5.719   8.185   6.790 -0.0022 -0.2863 -0.7151
  929MOL0     C25303   5.582   8.150   6.727  0.0779  1.0983 -0.7992
  929MOL0     O25304   5.565   8.006   6.753  0.4073  0.0105 -0.4191
  929MOL0     C25305   5.444   7.944   6.740  0.6434 -0.0099  0.7426
  929MOL0     C25306   5.429   7.810   6.782  0.5492 -0.6808 -0.1536
  929MOL0     C25307   5.314   7.745   6.773  0.5294  0.3486 -0.2359
  929MOL0     C25308   5.328   7.594   6.805  0.4008  0.0265 -0.0466
  929MOL0     C25309   5.200   7.808   6.712  0.3188 -0.2042  0.6637
  929MOL0     C25310   5.071   7.737   6.687  0.5680 -0.4778 -0.6053
  929MOL0     O25311   5.023   7.770   6.566 -0.0696  0.0333  0.7825
  929MOL0     C25312   4.902   7.736   6.509 -0.3144  1.1262 -0.3332
  929MOL0     C25313   4.786   7.693   6.583 -0.5801  0.2912  0.5561
  929MOL0     C25314   4.665   7.679   6.520  0.6754  0.4365  0.5883
  929MOL0     C25315   4.657   7.691   6.378  0.2041  0.6194  0.1737
  929MOL0     O25316   4.543   7.674   6.300 -0.1581 -0.7230 -0.3846
  929MOL0     C25317   4.427   7.614   6.355 -0.5181 -0.1701 -0.4298
  929MOL0     C25318   4.307   7.600   6.266 -0.2465  0.3342  0.0035
  929MOL0     C25319   4.184   7.522   6.309  0.4322 -0.2457 -0.1524
  929MOL0     C25320   4.207   7.399   6.405  0.2792  0.2988  0.3290
  929MOL0     C25321   4.069   7.318   6.428 -0.0341  0.2472  0.1926
  929MOL0     C25322   3.968   7.404   6.509 -0.6359  0.1529  0.2968
  929MOL0     C25323   3.834   7.325   6.531 -0.0656 -0.1046 -0.2107
  929MOL0     C25324   3.844   7.208   6.627  0.3395 -0.6657 -0.6295
  929MOL0    Cl25325   3.872   7.267   6.799  0.0244  0.1828  0.6060
  929MOL0     C25326   4.769   7.745   6.311  0.5731 -0.0668  0.0827
  929MOL0     C25327   4.887   7.773   6.375 -0.4242  0.4600  0.5998
  929MOL0     O25328   5.030   7.640   6.752 -0.0012 -0.0086 -0.1774
  929MOL0     C25329   5.214   7.939   6.665  0.3253 -0.0394  0.3767
  929MOL0     C25330   5.329   8.002   6.684  0.3354 -0.4262  0.0587
  929MOL0     N25331   5.749   8.301   6.457 -0.7023  0.8192  0.9330
  929MOL0     N25332   5.787   8.410   6.410 -0.1865  0.2695 -0.1284
  929MOL0     C25333   6.809   9.140   6.368  0.7246  0.1550  0.8891
  929MOL0     C25334   6.933   9.187   6.332 -0.6092  0.5304 -0.2750
  929MOL0     C25335   7.373   9.145   6.217 -0.4777 -1.0511  1.2290
  929MOL0     C25336   7.487   9.066   6.237  0.3040  0.1310  0.0325
  929MOL0     C25337   7.614   9.131   6.255  0.2768  0.0455  0.5996
  929MOL0     C25338   7.641   9.268   6.250  0.0596  0.3888  0.6206
  929MOL0     O25339   7.777   9.300   6.297 -0.3553 -0.1480 -0.2770
  929MOL0     C25340   7.797   9.442   6.320 -1.1051  0.0160 -0.0643
  929MOL0     C25341   7.926   9.479   6.389 -0.4634  0.9911 -0.7770
  929MOL0     C25342   8.047   9.406   6.342 -0.1936  0.3836  0.2094
  929MOL0     C25343   8.186   9.459   6.387  0.5901 -0.7447 -0.8635
  929MOL0     C25344   8.208   9.590   6.333  0.9732 -1.3860 -0.6386
  929MOL0     C25345   8.226   9.701   6.279 -0.3421  0.1031 -0.8098
  929MOL0     C25346   7.531   9.347   6.235  0.6848  0.3121  0.7059
  929MOL0     C25347   7.397   9.285   6.220 -1.2635  0.1937 -0.2799
  929MOL0     H25348   6.981   8.988   6.064  0.7734 -1.8657  0.8836
  929MOL0     H25349   6.753   8.908   6.128 -0.1243  0.7742 -2.2503
  929MOL0     H25350   6.517   8.852   6.220 -2.8936 -0.2630  0.9723
  929MOL0     H25351   6.663   8.798   6.311  0.3102  0.8845 -0.7446
  929MOL0     H25352   6.545   8.841   6.526 -1.4175 -0.3621  0.2142
  929MOL0     H25353   6.403   8.887   6.428 -0.0709  0.7593 -1.5943
  929MOL0     H25354   6.537   8.611   6.414  1.5403  1.6503  1.2510
  929MOL0     H25355   6.414   8.645   6.532  2.2340  0.6783  0.5375
  929MOL0     H25356   6.251   8.712   6.354  1.2624  0.8842 -0.2101
  929MOL0     H25357   6.366   8.673   6.224 -0.2535 -0.4701 -0.6756
  929MOL0     H25358   6.372   8.443   6.297 -0.0222 -1.1062  0.3435
  929MOL0     H25359   6.254   8.468   6.421  0.1427 -1.6976 -0.8300
  929MOL0     H25360   6.213   8.497   6.127 -0.8703 -2.8860 -1.1190
  929MOL0     H25361   6.136   8.381   6.240 -2.2122 -0.2588 -2.6052
  929MOL0     H25362   6.074   8.666   6.214 -1.4099 -0.4504 -0.6375
  929MOL0     H25363   5.979   8.534   6.161  3.0203  0.2234 -2.6598
  929MOL0     H25364   5.905   8.645   6.375 -3.6959 -3.4868  0.9066
  929MOL0     H25365   6.059   8.605   6.454  1.0001  1.3453 -1.6572
  929MOL0     H25366   6.070   8.322   6.542 -0.3751  1.0309  0.2792
  929MOL0     H25367   5.765   8.063   6.536  0.2725  0.3946 -1.2676
  929MOL0     H25368   5.940   8.064   6.550  2.9063  5.3241 -3.7834
  929MOL0     H25369   5.932   8.157   6.780  1.1906 -1.2223 -0.5720
  929MOL0     H25370   5.847   7.998   6.772 -1.8533 -1.0590 -1.4998
  929MOL0     H25371   5.744   8.290   6.773 -0.5003  0.1003  0.7933
  929MOL0     H25372   5.709   8.174   6.898 -0.1913 -2.0420 -0.8797
  929MOL0     H25373   5.585   8.184   6.623 -0.2864 -0.6288 -1.4070
  929MOL0     H25374   5.498   8.200   6.775 -0.7136  1.3172 -2.3590
  929MOL0     H25375   5.518   7.767   6.828  1.3993 -0.6272 -1.6681
  929MOL0     H25376   5.406   7.571   6.878  1.8136  0.9858 -1.1945
  929MOL0     H25377   5.235   7.555   6.848 -0.2093  1.1153 -0.3432
  929MOL0     H25378   5.344   7.543   6.709  0.5038  2.6079 -1.5057
  929MOL0     H25379   4.797   7.655   6.684 -5.1069 -1.9873  0.4523
  929MOL0     H25380   4.578   7.644   6.575  2.2643 -0.7444  2.5049
  929MOL0     H25381   4.453   7.517   6.397  1.5472  0.8142  0.7021
  929MOL0     H25382   4.402   7.679   6.439 -1.4752 -1.4395  0.2915
  929MOL0     H25383   4.266   7.700   6.244  1.8186  1.9213  2.8004
  929MOL0     H25384   4.341   7.546   6.177  0.6843 -0.7661  0.9971
  929MOL0     H25385   4.134   7.475   6.224  0.7508  1.0375 -1.0821
  929MOL0     H25386   4.122   7.596   6.361  0.9704 -1.4161  2.3256
  929MOL0     H25387   4.283   7.335   6.359 -1.8916 -1.9395 -0.3554
  929MOL0     H25388   4.249   7.429   6.501  0.7814  0.3500  0.0976
  929MOL0     H25389   4.094   7.223   6.476 -0.7355 -0.9279 -1.6691
  929MOL0     H25390   4.030   7.284   6.332  0.7192 -1.5947  0.4967
  929MOL0     H25391   4.012   7.428   6.606  2.1989 -0.8688 -0.6129
  929MOL0     H25392   3.958   7.497   6.453  2.7075  2.2976  2.8713
  929MOL0     H25393   3.795   7.297   6.433  1.9545  2.8822 -2.0492
  929MOL0     H25394   3.752   7.391   6.562  0.1110 -0.8193  2.0104
  929MOL0     H25395   3.932   7.150   6.598  1.7608  0.8555  0.4456
  929MOL0     H25396   3.755   7.144   6.629 -0.6190  0.6125 -1.1625
  929MOL0     H25397   4.757   7.766   6.205  1.8368 -0.9318 -0.2585
  929MOL0     H25398   4.967   7.831   6.331 -1.8246  0.1912 -2.5491
  929MOL0     H25399   5.128   7.983   6.616  1.7828  0.5990 -1.7157
  929MOL0     H25400   5.325   8.097   6.631  0.1865 -0.3231  0.2542
  929MOL0     H25401   6.752   9.172   6.454  1.4808  0.8042  1.1616
  929MOL0     H25402   6.994   9.254   6.391 -1.7027 -0.7141  2.4217
  929MOL0     H25403   7.473   8.959   6.241 -1.2550  0.2545 -1.0463
  929MOL0     H25404   7.702   9.070   6.272  0.2672 -0.3308 -0.6007
  929MOL0     H25405   7.809   9.491   6.222  1.6709 -0.5739 -0.1097
  929MOL0     H25406   7.711   9.482   6.375  0.9415  4.5795  0.3217
  929MOL0     H25407   7.913   9.458   6.496 -2.5101 -0.5993 -1.2804
  929MOL0     H25408   7.953   9.584   6.372 -0.5024  1.2245  0.4919
  929MOL0     H25409   8.043   9.407   6.233 -1.0220  3.1744  0.1916
  929MOL0     H25410   8.037   9.305   6.382 -1.4301  0.3963 -0.0301
  929MOL0     H25411   8.262   9.388   6.355  0.0238 -2.3034  1.0177
  929MOL0     H25412   8.186   9.453   6.496  1.0328 -2.5769 -0.9300
  929MOL0     H25413   8.246   9.792   6.225  1.1293 -2.2564 -4.5713
  929MOL0     H25414   7.523   9.455   6.225 -0.3366  0.1085 -1.2151
  929MOL0     H25415   7.310   9.347   6.199 -1.2247 -0.3121 -2.0654
  930MOL0     O25416   6.920  10.214   8.282 -0.3045  0.3786  0.5630
  930MOL0     C25417   6.900  10.121   8.361 -0.1275 -0.5197  0.0196
  930MOL0     O25418   6.999  10.030   8.399  0.3628  0.4776  0.0711
  930MOL0     C25419   7.136  10.043   8.381  0.2327 -0.1080 -0.6068
  930MOL0     C25420   7.190   9.998   8.260  0.1004 -0.1664 -0.2496
  930MOL0     C25421   7.327  10.008   8.237 -0.0074  0.4069 -0.4811
  930MOL0     C25422   7.410  10.072   8.330 -0.7964  0.3456 -0.4236
  930MOL0     O25423   7.540  10.105   8.303  0.1688  0.1256 -0.6141
  930MOL0     C25424   7.635  10.035   8.388  0.2186 -1.2609  0.0874
  930MOL0     C25425   7.777  10.048   8.337  0.1526 -0.0327  0.1666
  930MOL0     C25426   7.883   9.986   8.432  0.1078 -0.0069 -0.0060
  930MOL0     C25427   8.021  10.024   8.387 -0.3711  0.4220 -0.1722
  930MOL0     C25428   8.124   9.962   8.478  0.2950  0.7910  0.6693
  930MOL0     C25429   8.127  10.036   8.617  0.3985 -0.2535  0.2154
  930MOL0     C25430   8.167  10.179   8.620 -0.1552  0.3934 -0.1774
  930MOL0     C25431   8.169  10.244   8.757 -0.0825 -0.6959 -0.4012
  930MOL0     N25432   8.284  10.190   8.839 -0.0995  0.4859 -0.4254
  930MOL0     C25433   8.411  10.184   8.795 -0.1952 -0.0535  0.1391
  930MOL0     C25434   8.483  10.159   8.902  0.3581 -0.5259 -0.3696
  930MOL0     C25435   8.628  10.146   8.892 -0.3610 -0.1856 -0.3116
  930MOL0     C25436   8.710  10.270   8.872 -0.5293  0.1957 -0.2520
  930MOL0     C25437   8.707  10.378   8.984 -0.4617 -0.2012  0.2665
  930MOL0     C25438   8.793  10.331   9.093 -1.0244 -0.1331  0.3096
  930MOL0     O25439   8.816  10.442   9.189  0.2143  0.5581  0.2059
  930MOL0     C25440   8.710  10.474   9.275  0.5866  0.1329  0.5488
  930MOL0     C25441   8.700  10.607   9.325  0.4204 -0.1048  0.6496
  930MOL0     C25442   8.588  10.652   9.405 -0.4073 -0.7923 -0.0476
  930MOL0     C25443   8.591  10.802   9.444 -0.3220  0.0980  0.0394
  930MOL0     C25444   8.495  10.563   9.441  1.1779 -0.9477  0.0924
  930MOL0     C25445   8.383  10.595   9.533  0.4601  0.2994 -0.1836
  930MOL0     O25446   8.411  10.655   9.658 -0.0956 -0.2247  0.2495
  930MOL0     C25447   8.309  10.663   9.748 -0.1950  0.9892  0.0101
  930MOL0     C25448   8.279  10.548   9.813 -0.6948  0.0098 -0.2643
  930MOL0     C25449   8.175  10.539   9.903 -0.1563  0.0291  0.1910
  930MOL0     C25450   8.094  10.652   9.928 -1.2075 -0.6452  0.0999
  930MOL0     O25451   7.980  10.639  10.005 -0.3697  0.3973 -0.6430
  930MOL0     C25452   7.903  10.515  10.017 -0.6381 -0.1581  0.3026
  930MOL0     C25453   7.758  10.550  10.059 -1.1278  0.8678  0.4265
  930MOL0     C25454   7.669  10.422  10.053 -0.1967 -0.1678 -0.4544
  930MOL0     C25455   7.668  10.336  10.182  0.3799  0.5134  0.1781
  930MOL0     C25456   7.601  10.198  10.147 -0.1035  0.7337 -0.1675
  930MOL0     C25457   7.626  10.097  10.262  0.2212 -1.1961 -0.2036
  930MOL0     C25458   7.554   9.966  10.234  0.0302  0.6983  0.1940
  930MOL0     C25459   7.592   9.858  10.329 -1.8138 -0.2672  0.3457
  930MOL0    Cl25460   7.767   9.827  10.324  0.1314  0.1607 -0.2665
  930MOL0     C25461   8.127  10.774   9.864 -0.1585  0.9888  0.1985
  930MOL0     C25462   8.234  10.779   9.771 -1.0335  0.4486 -0.1877
  930MOL0     O25463   8.269  10.561   9.496  0.4943 -0.9802 -0.0926
  930MOL0     C25464   8.495  10.432   9.395 -0.2849  0.1823  0.5175
  930MOL0     C25465   8.599  10.387   9.310  0.9549 -0.0698 -0.3121
  930MOL0     N25466   8.400  10.127   9.003  0.4956 -0.4350 -0.2706
  930MOL0     N25467   8.280  10.162   8.970  0.2524  0.4125 -0.3788
  930MOL0     C25468   7.355  10.108   8.453  0.8611 -0.2094 -0.3784
  930MOL0     C25469   7.215  10.089   8.479 -0.0334 -0.0301 -0.5295
  930MOL0     C25470   6.754  10.090   8.405  0.4865 -0.5513 -0.1170
  930MOL0     C25471   6.646  10.168   8.367  0.1163 -0.5167 -1.0752
  930MOL0     C25472   6.520  10.150   8.420 -0.5634 -0.0825 -1.2315
  930MOL0     C25473   6.495  10.040   8.510  0.0106  1.4358 -0.0424
  930MOL0     O25474   6.376  10.021   8.570 -1.1407  1.2886  0.0700
  930MOL0     C25475   6.277   9.951   8.500  0.1915  0.4154  0.6257
  930MOL0     C25476   6.293   9.794   8.523  0.6204 -0.8694  0.1374
  930MOL0     C25477   6.284   9.744   8.666  0.2118 -0.5987  0.0503
  930MOL0     C25478   6.152   9.771   8.731  0.0722  0.1652  0.3994
  930MOL0     C25479   6.163   9.731   8.869 -0.3610  0.2432 -0.7603
  930MOL0     C25480   6.172   9.723   8.994  0.4276 -0.7039 -0.4321
  930MOL0     C25481   6.593   9.945   8.524 -0.8994  0.0649  0.3772
  930MOL0     C25482   6.720   9.974   8.478  0.1930 -0.1244 -0.4258
  930MOL0     H25483   7.122   9.971   8.180 -0.5350  0.8028 -0.0564
  930MOL0     H25484   7.364   9.972   8.141 -2.3257 -0.9265 -0.9645
  930MOL0     H25485   7.619  10.067   8.491 -0.0553  0.9019 -0.5825
  930MOL0     H25486   7.612   9.928   8.386 -0.3197 -1.1413 -0.5249
  930MOL0     H25487   7.787   9.997   8.242 -0.6818  1.0082 -0.5070
  930MOL0     H25488   7.787  10.155   8.317 -0.9071 -0.7394 -5.9509
  930MOL0     H25489   7.853  10.021   8.530  0.9775 -0.4477  0.4340
  930MOL0     H25490   7.860   9.879   8.438 -0.6681  0.0983 -0.9178
  930MOL0     H25491   8.037   9.979   8.289  1.2455  0.0333  0.2362
  930MOL0     H25492   8.025  10.133   8.384 -0.9633  0.4198 -1.5239
  930MOL0     H25493   8.103   9.854   8.482 -1.6329  1.0972 -0.0814
  930MOL0     H25494   8.223   9.962   8.433  1.5140 -1.9711  3.0011
  930MOL0     H25495   8.028  10.024   8.663  0.6148 -1.4559  0.4154
  930MOL0     H25496   8.204   9.979   8.671  0.3106 -1.4382 -0.8576
  930MOL0     H25497   8.268  10.182   8.578  1.7624  1.1623  4.0486
  930MOL0     H25498   8.100  10.241   8.559 -1.5037 -1.0365 -0.1933
  930MOL0     H25499   8.077  10.204   8.800 -0.3009 -0.8124 -0.9683
  930MOL0     H25500   8.160  10.352   8.749 -1.0099 -0.8357 -1.4949
  930MOL0     H25501   8.455  10.198   8.697  1.3506 -0.1101  0.7953
  930MOL0     H25502   8.651  10.090   8.983 -2.4858 -1.9280 -0.7632
  930MOL0     H25503   8.649  10.081   8.806  0.3999  1.5398 -1.4949
  930MOL0     H25504   8.676  10.305   8.774 -0.6672  0.6527 -0.0410
  930MOL0     H25505   8.813  10.235   8.859 -0.0390  0.8918  1.5671
  930MOL0     H25506   8.608  10.406   9.021  0.7887  2.3333  1.9205
  930MOL0     H25507   8.755  10.470   8.950  0.4169 -0.0411  1.8768
  930MOL0     H25508   8.891  10.298   9.059 -0.6039  0.5473  0.8245
  930MOL0     H25509   8.745  10.247   9.145 -2.0630  1.0480  1.3257
  930MOL0     H25510   8.780  10.672   9.291  2.6435 -2.3136  1.3602
  930MOL0     H25511   8.574  10.820   9.550 -4.1918  1.4966 -0.6460
  930MOL0     H25512   8.689  10.849   9.428 -1.1099  2.9907  2.7293
  930MOL0     H25513   8.517  10.855   9.383 -0.0681 -1.1331 -1.4100
  930MOL0     H25514   8.342  10.462   9.788  2.6783  2.3165 -0.3323
  930MOL0     H25515   8.157  10.441   9.945  1.9289 -1.3718 -1.9345
  930MOL0     H25516   7.914  10.454   9.927  2.1388 -0.1352  0.5334
  930MOL0     H25517   7.959  10.452  10.087 -0.1327  0.1939  0.2188
  930MOL0     H25518   7.749  10.613  10.149 -0.0768  0.8646  0.5441
  930MOL0     H25519   7.726  10.617   9.979  0.8908 -0.9895 -2.1254
  930MOL0     H25520   7.708  10.360   9.971  0.4405 -0.5908  0.1550
  930MOL0     H25521   7.567  10.456  10.036 -0.2326  0.2879  0.6206
  930MOL0     H25522   7.771  10.329  10.219  0.4404  2.7591  0.5496
  930MOL0     H25523   7.603  10.391  10.251 -0.7571 -1.0840  0.4535
  930MOL0     H25524   7.651  10.157  10.059 -0.1927  1.0361 -0.3605
  930MOL0     H25525   7.493  10.211  10.139 -0.2583 -0.7414 -0.8305
  930MOL0     H25526   7.733  10.086  10.282  0.4991  2.6069  1.1710
  930MOL0     H25527   7.584  10.134  10.356  1.6065 -2.7950  1.1247
  930MOL0     H25528   7.587   9.923  10.139 -1.1427  0.2177 -0.0068
  930MOL0     H25529   7.446   9.980  10.232 -0.1432 -0.3386  1.2208
  930MOL0     H25530   7.541   9.764  10.310 -0.5477 -0.8202 -0.4580
  930MOL0     H25531   7.562   9.903  10.425 -1.5401  1.3674 -0.2932
  930MOL0     H25532   8.063  10.861   9.877 -0.9362  0.1666  2.1705
  930MOL0     H25533   8.274  10.866   9.720 -0.4477  2.4516  3.3709
  930MOL0     H25534   8.422  10.358   9.429 -1.3698 -0.7941 -3.3909
  930MOL0     H25535   8.600  10.284   9.275  1.5154 -0.8655  1.8484
  930MOL0     H25536   7.420  10.166   8.517 -1.7071  0.9575  1.3479
  930MOL0     H25537   7.174  10.119   8.575 -2.5378 -0.2982 -1.4432
  930MOL0     H25538   6.655  10.256   8.304 -1.0995 -0.6502 -1.4585
  930MOL0     H25539   6.450  10.232   8.415  1.0962  1.7725  2.1313
  930MOL0     H25540   6.180   9.989   8.533 -0.9425 -0.0156 -1.9732
  930MOL0     H25541   6.287   9.969   8.392 -0.9204  1.7574  0.7179
  930MOL0     H25542   6.378   9.757   8.466 -0.1978 -1.2680 -0.8495
  930MOL0     H25543   6.208   9.750   8.470  0.4275  1.9782 -2.1695
  930MOL0     H25544   6.367   9.796   8.716 -1.3095  0.4480  1.6374
  930MOL0     H25545   6.297   9.636   8.662 -1.3889 -0.9923  2.7545
  930MOL0     H25546   6.079   9.706   8.681  2.0916 -1.2404 -0.8994
  930MOL0     H25547   6.121   9.875   8.719 -0.1781  0.0438 -0.0097
  930MOL0     H25548   6.158   9.720   9.100  1.0518 -1.9245 -0.3665
  930MOL0     H25549   6.594   9.856   8.586  4.1987  1.3604  2.7287
  930MOL0     H25550   6.801   9.908   8.509  3.0124  3.4654  0.4384
  931MOL0     O25551  10.846   6.983   3.869  0.5607 -0.9327  0.2060
  931MOL0     C25552  10.924   7.011   3.963  0.9317 -0.0333  0.1442
  931MOL0     O25553  10.890   7.055   4.090 -0.1359 -0.3342  0.4559
  931MOL0     C25554  10.755   7.035   4.119  0.5910 -1.0883 -0.0878
  931MOL0     C25555  10.654   7.097   4.048 -0.0369  0.3834  0.4966
  931MOL0     C25556  10.524   7.080   4.094 -0.0917 -0.0402 -0.6150
  931MOL0     C25557  10.494   7.009   4.213 -0.6017 -0.2552  0.9415
  931MOL0     O25558  10.364   7.017   4.248 -0.3741 -0.1934 -0.2881
  931MOL0     C25559  10.309   6.923   4.342  0.2393 -0.8643 -0.4179
  931MOL0     C25560  10.163   6.958   4.346  0.1964 -0.2490  1.0187
  931MOL0     C25561  10.095   6.885   4.230  0.7834 -0.2610  0.1257
  931MOL0     C25562   9.974   6.974   4.190  0.0573  0.6852 -0.7039
  931MOL0     C25563   9.884   6.906   4.082  0.3593  0.3004 -0.1219
  931MOL0     C25564   9.766   6.998   4.040  0.6274  0.1949  0.2586
  931MOL0     C25565   9.645   6.936   3.968  0.2597  0.0329 -0.3811
  931MOL0     C25566   9.510   6.996   4.017 -0.7332  0.5096  0.3953
  931MOL0     N25567   9.407   6.917   3.953  0.0327 -0.0687 -0.2023
  931MOL0     C25568   9.411   6.864   3.822 -0.0397 -0.1495 -0.9017
  931MOL0     C25569   9.275   6.840   3.808 -0.8358  0.0182  1.0687
  931MOL0     C25570   9.232   6.801   3.668  0.0895  0.1418 -0.2421
  931MOL0     C25571   9.079   6.799   3.666  0.7335  0.1393 -0.2156
  931MOL0     C25572   9.018   6.723   3.549  0.0144 -0.6666 -0.0802
  931MOL0     C25573   8.857   6.741   3.551  0.2298  0.7333 -0.5448
  931MOL0     O25574   8.794   6.691   3.676 -0.3851  0.0951 -0.0843
  931MOL0     C25575   8.657   6.716   3.682  0.0100  0.2577  0.2281
  931MOL0     C25576   8.595   6.715   3.805  0.1226 -0.5315 -0.3352
  931MOL0     C25577   8.455   6.735   3.826  0.7593 -0.4288  0.7172
  931MOL0     C25578   8.405   6.732   3.972 -0.7032  0.3772  0.9836
  931MOL0     C25579   8.381   6.749   3.708 -0.0206  0.2774  0.1349
  931MOL0     C25580   8.240   6.775   3.711  0.3108 -0.0105 -0.3954
  931MOL0     O25581   8.185   6.902   3.685 -0.5967 -0.8048  0.3709
  931MOL0     C25582   8.049   6.920   3.674  0.6445 -0.0615 -0.5296
  931MOL0     C25583   8.004   7.004   3.577  0.2294  0.3717 -0.6669
  931MOL0     C25584   7.862   7.020   3.554 -0.7661 -0.1479  0.1667
  931MOL0     C25585   7.775   6.963   3.641  0.1423 -0.1120 -0.7461
  931MOL0     O25586   7.645   6.997   3.618  0.1823 -0.8325  0.0568
  931MOL0     C25587   7.545   6.937   3.702  0.6746  0.1571 -0.2681
  931MOL0     C25588   7.424   7.036   3.726 -0.2065  0.3374  0.5307
  931MOL0     C25589   7.354   7.045   3.587 -0.0741 -0.4079  0.3552
  931MOL0     C25590   7.256   7.165   3.572 -0.7547 -0.1018  0.4683
  931MOL0     C25591   7.204   7.183   3.427 -0.2032 -0.5525  0.2408
  931MOL0     C25592   7.114   7.069   3.382  0.1648  0.2247  0.6997
  931MOL0     C25593   7.000   7.116   3.293 -0.7838  0.5617  0.5958
  931MOL0     C25594   6.908   7.000   3.244  0.1233  0.4573 -0.6283
  931MOL0    Cl25595   6.820   6.933   3.384  0.1067  0.0852  0.0988
  931MOL0     C25596   7.821   6.877   3.746 -0.4031 -0.3607 -0.3932
  931MOL0     C25597   7.958   6.863   3.760  0.2051 -0.0038 -0.2342
  931MOL0     O25598   8.171   6.677   3.731 -0.2407 -0.2450 -0.1627
  931MOL0     C25599   8.440   6.752   3.582  0.6087  0.1619 -1.0011
  931MOL0     C25600   8.576   6.735   3.567  0.7537  0.2216  0.1409
  931MOL0     N25601   9.208   6.880   3.917  0.0067 -0.4376  0.0395
  931MOL0     N25602   9.281   6.921   4.010 -0.2620  0.3649  0.5576
  931MOL0     C25603  10.601   6.941   4.277  0.4795  0.5101 -0.6782
  931MOL0     C25604  10.730   6.950   4.226 -0.3719  0.2962 -0.2320
  931MOL0     C25605  11.064   6.991   3.937 -0.8712  0.0643 -0.6868
  931MOL0     C25606  11.110   6.920   3.828  0.4239 -0.3108 -0.8482
  931MOL0     C25607  11.240   6.918   3.790 -0.0769 -0.3670 -0.3381
  931MOL0     C25608  11.332   6.983   3.868 -0.4874 -0.5973 -0.2615
  931MOL0     O25609  11.465   6.983   3.831  0.7422  0.2475  0.2442
  931MOL0     C25610  11.492   7.086   3.733 -0.3983 -0.1824 -0.5728
  931MOL0     C25611  11.630   7.075   3.667 -0.1336  0.1100  1.3711
  931MOL0     C25612  11.736   7.095   3.772 -0.0270  0.4042  0.0670
  931MOL0     C25613  11.873   7.071   3.698 -0.1944 -0.2471  0.3968
  931MOL0     C25614  11.901   6.927   3.675 -0.0928 -0.3364  0.7888
  931MOL0     C25615  11.924   6.817   3.636 -0.2533  0.4378  0.2198
  931MOL0     C25616  11.293   7.058   3.981  0.3433 -0.6768 -0.7225
  931MOL0     C25617  11.160   7.058   4.018  0.3629 -0.1031  0.2713
  931MOL0     H25618  10.674   7.163   3.964 -1.3018  1.0934  0.7285
  931MOL0     H25619  10.455   7.139   4.035  1.2419  0.4873 -1.7081
  931MOL0     H25620  10.314   6.815   4.326 -2.5940 -1.7657  3.2333
  931MOL0     H25621  10.350   6.941   4.442 -3.2955 -2.1290  1.4626
  931MOL0     H25622  10.118   6.920   4.438  0.4912 -0.6393  1.0060
  931MOL0     H25623  10.156   7.067   4.335  2.6644 -0.2451 -2.1157
  931MOL0     H25624  10.157   6.863   4.142 -0.1471 -0.1115 -0.5897
  931MOL0     H25625  10.055   6.788   4.262 -0.7787  0.6394  1.0250
  931MOL0     H25626   9.920   6.991   4.283  1.3811  1.5663 -0.0648
  931MOL0     H25627   9.992   7.076   4.153 -0.2125 -0.0857 -3.1700
  931MOL0     H25628   9.933   6.881   3.987 -3.1518  0.3009 -2.1068
  931MOL0     H25629   9.838   6.820   4.132  1.0437 -0.3838 -0.6498
  931MOL0     H25630   9.735   7.046   4.134  1.0749 -1.3550  1.2524
  931MOL0     H25631   9.807   7.069   3.969  1.3250  0.5815  1.0256
  931MOL0     H25632   9.656   6.966   3.863  0.0051 -1.0732 -0.7444
  931MOL0     H25633   9.648   6.827   3.969 -0.0335  0.0265 -0.0976
  931MOL0     H25634   9.501   7.102   3.990 -0.4715  0.1893 -1.0839
  931MOL0     H25635   9.500   6.990   4.125 -0.2942  1.7606  0.5220
  931MOL0     H25636   9.486   6.848   3.744  0.7977 -2.7757  0.3245
  931MOL0     H25637   9.281   6.855   3.585  0.3176 -0.4446 -0.4934
  931MOL0     H25638   9.268   6.699   3.652 -0.7116 -0.1094 -0.4620
  931MOL0     H25639   9.061   6.905   3.646  0.4210  0.3526  1.0979
  931MOL0     H25640   9.038   6.763   3.761  2.2220  2.1303  1.2688
  931MOL0     H25641   9.050   6.619   3.559 -1.8057 -1.3852 -1.2428
  931MOL0     H25642   9.054   6.766   3.456  3.0261  0.7960  1.6051
  931MOL0     H25643   8.819   6.677   3.471 -0.0779 -1.1717  1.0256
  931MOL0     H25644   8.827   6.844   3.533 -0.5622  0.3260 -1.6504
  931MOL0     H25645   8.652   6.695   3.895  0.0452 -1.8098 -0.5464
  931MOL0     H25646   8.489   6.754   4.039 -0.6683 -0.2417  1.1484
  931MOL0     H25647   8.317   6.797   3.984 -2.0562 -1.4095  1.1544
  931MOL0     H25648   8.378   6.629   3.998 -1.7094  0.1511 -0.7887
  931MOL0     H25649   8.082   7.051   3.517  1.6112  0.0550  0.8179
  931MOL0     H25650   7.825   7.077   3.470 -1.6712  0.0405  0.6789
  931MOL0     H25651   7.518   6.843   3.653 -0.4049  1.1801 -1.7145
  931MOL0     H25652   7.583   6.927   3.804  1.4998  1.3715 -0.4364
  931MOL0     H25653   7.353   7.003   3.801  1.0244  0.5072  1.8153
  931MOL0     H25654   7.451   7.139   3.752  1.2647  1.5371 -4.5287
  931MOL0     H25655   7.299   6.950   3.583 -2.1029  0.7648 -2.0345
  931MOL0     H25656   7.421   7.051   3.501 -3.4507 -0.5655 -2.4539
  931MOL0     H25657   7.171   7.154   3.640 -0.7736  4.4499  1.4824
  931MOL0     H25658   7.309   7.253   3.608 -0.3703  0.3528 -1.1293
  931MOL0     H25659   7.283   7.201   3.354  0.9213 -0.7879  1.3650
  931MOL0     H25660   7.163   7.283   3.438  1.3901  0.0568  0.8878
  931MOL0     H25661   7.170   6.992   3.328 -2.1034 -0.8072 -0.3357
  931MOL0     H25662   7.060   7.025   3.466 -0.8176 -0.4298 -0.2490
  931MOL0     H25663   7.036   7.176   3.209 -1.1678  0.0892  0.0834
  931MOL0     H25664   6.933   7.183   3.346  0.0732  0.4514  1.8738
  931MOL0     H25665   6.957   6.920   3.189 -0.2393 -2.4809  2.9065
  931MOL0     H25666   6.828   7.046   3.185 -0.1188 -0.9632 -1.4486
  931MOL0     H25667   7.752   6.819   3.806 -1.0961 -1.4805 -2.2018
  931MOL0     H25668   7.990   6.806   3.846 -0.3279  2.5016  1.7609
  931MOL0     H25669   8.379   6.762   3.492 -0.5356  2.2969 -0.0677
  931MOL0     H25670   8.621   6.748   3.469 -3.1949 -1.4008 -2.1343
  931MOL0     H25671  10.589   6.902   4.377  1.5529 -0.7571 -1.0154
  931MOL0     H25672  10.810   6.916   4.291 -0.9719  1.7029  1.2952
  931MOL0     H25673  11.054   6.837   3.785  0.8976 -2.1948  1.9180
  931MOL0     H25674  11.272   6.858   3.705  1.3763  1.3078 -1.0300
  931MOL0     H25675  11.419   7.090   3.651 -1.0218 -2.0364 -0.1753
  931MOL0     H25676  11.490   7.182   3.784  0.7440 -1.3674  1.8719
  931MOL0     H25677  11.648   7.148   3.588  3.7066 -1.2183  0.7779
  931MOL0     H25678  11.635   6.980   3.612 -1.6929 -0.1912  1.6973
  931MOL0     H25679  11.734   7.027   3.858  0.7288  0.2234 -0.0507
  931MOL0     H25680  11.723   7.190   3.823 -4.0162 -0.8748  1.8519
  931MOL0     H25681  11.955   7.110   3.759  2.0360 -3.9880  0.0394
  931MOL0     H25682  11.874   7.133   3.608  1.8094  1.6127  1.5711
  931MOL0     H25683  11.921   6.714   3.606 -0.6389  0.0857  1.3892
  931MOL0     H25684  11.371   7.122   4.020  1.0967 -1.2565 -1.2439
  931MOL0     H25685  11.132   7.117   4.105 -0.2393  1.1471 -0.7348
  932MOL0     O25686  10.320   8.939   5.526  0.2757  0.6817  0.3237
  932MOL0     C25687  10.381   9.017   5.460  0.1056 -0.7094  0.0771
  932MOL0     O25688  10.494   9.088   5.508  0.2820  0.4630  0.0605
  932MOL0     C25689  10.529   9.090   5.641 -0.1052  0.5962 -0.2771
  932MOL0     C25690  10.666   9.093   5.665  0.7007  0.4486  0.4248
  932MOL0     C25691  10.707   9.106   5.796 -0.3464 -0.6092 -0.1817
  932MOL0     C25692  10.616   9.108   5.900  0.1784  0.5257 -0.6236
  932MOL0     O25693  10.674   9.096   6.028 -0.0268 -0.3578  0.5163
  932MOL0     C25694  10.607   9.036   6.135  1.3173 -0.1136  0.3153
  932MOL0     C25695  10.711   9.001   6.245  0.5334 -0.3138 -0.3108
  932MOL0     C25696  10.800   8.885   6.211 -0.3912  0.1828 -0.3813
  932MOL0     C25697  10.921   8.875   6.303 -0.3017 -0.6425 -0.5173
  932MOL0     C25698  10.898   8.870   6.452  0.3120 -0.5677  0.5259
  932MOL0     C25699  10.831   8.735   6.496 -0.3296  0.4966  0.2440
  932MOL0     C25700  10.802   8.727   6.646 -0.1867  1.3592 -0.4455
  932MOL0     C25701  10.685   8.800   6.702 -0.0769  0.9077 -0.0487
  932MOL0     N25702  10.553   8.778   6.640  0.4183  0.3021  0.6849
  932MOL0     C25703  10.466   8.670   6.669 -0.3152 -0.3611 -0.1384
  932MOL0     C25704  10.366   8.696   6.584 -0.0030  0.7442  0.5246
  932MOL0     C25705  10.260   8.597   6.559  1.0860 -0.4975 -0.3534
  932MOL0     C25706  10.130   8.651   6.606  0.2202  0.2427 -0.6251
  932MOL0     C25707  10.038   8.525   6.653  0.7106 -0.7559  0.3135
  932MOL0     C25708   9.904   8.570   6.705  0.8207 -0.0528  0.4321
  932MOL0     O25709   9.825   8.594   6.584  0.3212 -0.0378 -0.2969
  932MOL0     C25710   9.692   8.629   6.608  0.1189 -0.8681  0.3801
  932MOL0     C25711   9.644   8.746   6.547 -0.0519  0.0821  0.1985
  932MOL0     C25712   9.513   8.788   6.555 -0.4305  0.7318  1.2342
  932MOL0     C25713   9.470   8.917   6.486 -0.4030 -0.1334 -0.1160
  932MOL0     C25714   9.430   8.713   6.633 -0.6634  0.2670  0.3913
  932MOL0     C25715   9.283   8.737   6.648 -1.1306 -0.1473 -1.5693
  932MOL0     O25716   9.202   8.624   6.658  0.3209 -0.3285  0.1579
  932MOL0     C25717   9.062   8.632   6.641 -0.0543 -0.3470 -0.2395
  932MOL0     C25718   8.998   8.723   6.549 -0.4024  0.0349 -0.7196
  932MOL0     C25719   8.857   8.730   6.548 -0.1057 -0.1100 -0.0544
  932MOL0     C25720   8.785   8.645   6.626  0.8649  0.2890 -0.2766
  932MOL0     O25721   8.642   8.653   6.627 -0.4360 -0.2641 -0.5666
  932MOL0     C25722   8.573   8.537   6.576 -0.3245 -0.6934 -0.0775
  932MOL0     C25723   8.427   8.545   6.603  0.7364 -0.1776  0.6767
  932MOL0     C25724   8.357   8.411   6.588  0.2185 -0.0746  0.0291
  932MOL0     C25725   8.246   8.388   6.685  1.0201 -0.4281 -0.6130
  932MOL0     C25726   8.196   8.238   6.687  0.5606  0.8270  0.1312
  932MOL0     C25727   8.086   8.219   6.795 -0.9751  0.3449 -0.8039
  932MOL0     C25728   8.060   8.069   6.799  0.6009 -0.0943 -0.4018
  932MOL0     C25729   7.970   8.034   6.921 -0.0089 -1.0094 -0.6423
  932MOL0    Cl25730   7.799   8.040   6.878  0.2895  0.1462  0.0754
  932MOL0     C25731   8.848   8.564   6.724 -0.0654  0.2445 -0.5252
  932MOL0     C25732   8.985   8.548   6.730 -0.0129 -0.6731  0.1878
  932MOL0     O25733   9.236   8.852   6.647  0.0651  0.0919 -0.6361
  932MOL0     C25734   9.480   8.605   6.703  0.0818  0.5129  0.4011
  932MOL0     C25735   9.607   8.564   6.697  0.5424 -0.3048 -0.0646
  932MOL0     N25736  10.392   8.800   6.495 -0.0352 -0.0127 -0.3773
  932MOL0     N25737  10.503   8.850   6.532 -0.2682  0.4727 -0.8071
  932MOL0     C25738  10.480   9.100   5.877  0.3482  0.2631 -0.3446
  932MOL0     C25739  10.436   9.095   5.746 -0.3872  0.1192 -0.5207
  932MOL0     C25740  10.337   9.029   5.321 -0.4353  0.6151  0.7621
  932MOL0     C25741  10.226   8.959   5.261 -0.8007  0.5963  1.0281
  932MOL0     C25742  10.188   8.963   5.126  0.0748 -0.4036  0.0611
  932MOL0     C25743  10.247   9.058   5.044 -0.9394 -0.7104 -0.3296
  932MOL0     O25744  10.208   9.050   4.912  0.8125  0.9998  0.6834
  932MOL0     C25745  10.227   9.157   4.818  0.1453 -0.3749 -0.2645
  932MOL0     C25746  10.167   9.115   4.684 -1.5541  0.9110 -0.2844
  932MOL0     C25747  10.017   9.080   4.700  0.4126 -1.0733  0.0733
  932MOL0     C25748   9.985   8.932   4.668 -0.2506 -0.1616 -0.3852
  932MOL0     C25749   9.847   8.905   4.714  0.3995  0.7974 -0.2725
  932MOL0     C25750   9.735   8.876   4.750  0.9937  1.5836 -0.8767
  932MOL0     C25751  10.355   9.132   5.092  0.2625  0.0784 -0.0352
  932MOL0     C25752  10.401   9.112   5.226 -0.2905  0.1818 -0.5410
  932MOL0     H25753  10.742   9.094   5.588  0.4243  0.5376  0.1492
  932MOL0     H25754  10.809   9.133   5.821 -1.0911  0.0838  2.3588
  932MOL0     H25755  10.532   9.107   6.171 -0.1379  0.1672 -2.9296
  932MOL0     H25756  10.555   8.947   6.098 -0.2590  1.6226 -1.9514
  932MOL0     H25757  10.773   9.091   6.252  0.2125  0.0395 -1.7397
  932MOL0     H25758  10.663   8.989   6.343  2.5312 -1.6806  0.5631
  932MOL0     H25759  10.745   8.792   6.221  1.4332 -0.9142  0.0050
  932MOL0     H25760  10.844   8.886   6.110 -1.3008  0.6132 -0.7843
  932MOL0     H25761  10.979   8.784   6.282  1.4061  0.3989 -0.5121
  932MOL0     H25762  10.985   8.959   6.274 -0.4978 -0.7335 -1.2440
  932MOL0     H25763  10.993   8.885   6.504 -0.8349  0.0046  2.5471
  932MOL0     H25764  10.830   8.948   6.486  0.7663  0.0889 -0.0425
  932MOL0     H25765  10.746   8.710   6.432  1.2734 -0.5794 -1.6242
  932MOL0     H25766  10.911   8.662   6.476 -0.2269  0.4255  0.9176
  932MOL0     H25767  10.778   8.623   6.671  0.1010  1.4600  0.2523
  932MOL0     H25768  10.891   8.754   6.704  2.5674 -4.0289 -1.4494
  932MOL0     H25769  10.706   8.907   6.689  0.6008  0.6421 -1.2585
  932MOL0     H25770  10.683   8.776   6.809  0.0003  1.1228  0.0003
  932MOL0     H25771  10.484   8.596   6.747  2.4126 -0.0166 -0.3598
  932MOL0     H25772  10.251   8.583   6.451  3.7876 -1.3852 -0.5256
  932MOL0     H25773  10.287   8.514   6.625  0.8513  1.1335  1.9118
  932MOL0     H25774  10.083   8.713   6.530  0.2858 -0.7692 -1.5161
  932MOL0     H25775  10.132   8.716   6.694 -1.2553  2.6555 -2.2464
  932MOL0     H25776  10.096   8.466   6.724  1.5540 -0.1283  0.1664
  932MOL0     H25777  10.022   8.463   6.564 -2.8299  0.6252 -0.1819
  932MOL0     H25778   9.918   8.664   6.758 -0.4290  0.7061 -0.5118
  932MOL0     H25779   9.863   8.488   6.764  0.6592 -0.1446  0.1964
  932MOL0     H25780   9.714   8.807   6.490  0.6278  0.3158  1.2425
  932MOL0     H25781   9.364   8.905   6.461 -0.0979 -0.0439 -1.5522
  932MOL0     H25782   9.488   8.996   6.559  1.4885 -2.0505  1.6365
  932MOL0     H25783   9.521   8.943   6.393  0.6627 -0.0424  0.4822
  932MOL0     H25784   9.053   8.797   6.491 -2.0160  1.0779 -0.9827
  932MOL0     H25785   8.794   8.795   6.489 -0.9081 -1.0558 -0.2763
  932MOL0     H25786   8.591   8.543   6.468 -0.0740  1.1129  0.0328
  932MOL0     H25787   8.615   8.447   6.622  0.0652  0.2524  1.5158
  932MOL0     H25788   8.420   8.572   6.709  0.7336  1.1512  0.3508
  932MOL0     H25789   8.389   8.632   6.549 -0.2029 -1.2239 -0.4177
  932MOL0     H25790   8.423   8.327   6.612 -1.0662 -0.8573  0.9491
  932MOL0     H25791   8.322   8.405   6.484  2.3583 -0.1419 -0.7262
  932MOL0     H25792   8.264   8.419   6.789 -0.4151  0.1293 -0.5101
  932MOL0     H25793   8.155   8.436   6.650 -1.3476 -3.2453  1.2205
  932MOL0     H25794   8.274   8.162   6.702  0.5157  1.0121  1.3997
  932MOL0     H25795   8.154   8.208   6.590  2.6716  0.2558 -0.6603
  932MOL0     H25796   8.116   8.256   6.894  1.5088  1.8873 -2.0226
  932MOL0     H25797   8.000   8.280   6.767 -0.8922  0.4741 -0.7788
  932MOL0     H25798   8.150   8.007   6.806  1.7230  1.4208 -0.9358
  932MOL0     H25799   8.011   8.052   6.702  0.4210  0.3249 -0.3870
  932MOL0     H25800   7.994   8.103   7.003  0.5759 -1.8368 -0.1087
  932MOL0     H25801   7.998   7.934   6.955  0.2605 -1.1562 -1.2863
  932MOL0     H25802   8.781   8.512   6.791 -0.8065  1.1001 -0.5864
  932MOL0     H25803   9.034   8.475   6.795  1.7052  1.1176  0.9993
  932MOL0     H25804   9.413   8.538   6.755 -0.9166 -0.0896 -1.5996
  932MOL0     H25805   9.647   8.477   6.748 -0.6801 -0.6705  0.2807
  932MOL0     H25806  10.409   9.093   5.959  1.1005 -0.0215  0.2871
  932MOL0     H25807  10.334   9.090   5.710 -0.0112 -2.0472 -1.4781
  932MOL0     H25808  10.165   8.891   5.321 -2.0421  0.3070 -0.5015
  932MOL0     H25809  10.101   8.910   5.089  0.5879  0.2504 -2.3071
  932MOL0     H25810  10.172   9.245   4.851 -0.3600 -0.4531 -0.8656
  932MOL0     H25811  10.331   9.192   4.808  0.2737 -0.9258 -0.9887
  932MOL0     H25812  10.228   9.034   4.643 -2.7097 -0.4382  0.5490
  932MOL0     H25813  10.165   9.199   4.615 -1.5675 -0.5033 -2.0614
  932MOL0     H25814   9.964   9.144   4.629  1.5844 -0.3709 -0.1948
  932MOL0     H25815   9.974   9.110   4.797  1.2739 -1.2482  0.5202
  932MOL0     H25816  10.063   8.874   4.719  1.5905  0.4884 -2.2877
  932MOL0     H25817  10.008   8.917   4.562 -0.5957  0.0401 -0.4878
  932MOL0     H25818   9.647   8.835   4.796  2.4010 -3.5642 -2.1602
  932MOL0     H25819  10.405   9.206   5.031 -0.1679  0.5728  0.1926
  932MOL0     H25820  10.495   9.157   5.258  0.6065  1.7195 -4.6777
  933MOL0     O25821   2.329   3.269   4.627 -0.4578  0.0313  0.0110
  933MOL0     C25822   2.385   3.353   4.695  1.0010 -0.3260  0.6046
  933MOL0     O25823   2.337   3.479   4.708 -0.5067 -0.0698  0.0829
  933MOL0     C25824   2.252   3.532   4.619  0.4294 -0.6282 -0.2984
  933MOL0     C25825   2.273   3.662   4.566  0.2835  0.3384  0.0501
  933MOL0     C25826   2.189   3.725   4.481 -0.4161 -0.0934 -0.8664
  933MOL0     C25827   2.069   3.663   4.453  0.6070 -0.3529 -0.0918
  933MOL0     O25828   1.981   3.724   4.366 -0.2257  0.1717  0.5246
  933MOL0     C25829   1.973   3.861   4.335  0.3756  0.2141 -0.3504
  933MOL0     C25830   1.837   3.906   4.300 -0.3117  0.0508  0.8132
  933MOL0     C25831   1.820   4.058   4.297 -0.5259  0.5865  0.1155
  933MOL0     C25832   1.703   4.092   4.210  1.0487 -0.1936  0.0807
  933MOL0     C25833   1.646   4.237   4.250  0.1878  0.8886  1.1981
  933MOL0     C25834   1.507   4.249   4.176 -1.0337  0.2060 -0.5306
  933MOL0     C25835   1.452   4.390   4.199 -0.6974  0.2347 -0.1447
  933MOL0     C25836   1.306   4.414   4.159 -0.7468  0.3717 -0.2264
  933MOL0     N25837   1.279   4.561   4.155  0.1559 -0.0258 -0.3186
  933MOL0     C25838   1.321   4.647   4.063 -0.7680 -1.1695  0.3740
  933MOL0     C25839   1.241   4.759   4.082  0.2887 -0.2693  0.4533
  933MOL0     C25840   1.259   4.894   4.021  0.2076  0.9059 -0.2413
  933MOL0     C25841   1.283   4.892   3.871  0.0668 -0.0957 -0.7414
  933MOL0     C25842   1.276   5.036   3.811  0.8697  1.2329  0.6687
  933MOL0     C25843   1.313   5.160   3.899  0.2817  0.0579 -0.3104
  933MOL0     O25844   1.453   5.179   3.920  0.0507  0.1806  0.1347
  933MOL0     C25845   1.540   5.187   3.821 -0.0078 -0.4064  0.0069
  933MOL0     C25846   1.511   5.230   3.690  0.5630  0.7601 -0.4222
  933MOL0     C25847   1.597   5.236   3.586  1.2163 -0.5494 -0.8684
  933MOL0     C25848   1.539   5.271   3.457 -0.0971 -0.4478 -0.2668
  933MOL0     C25849   1.739   5.228   3.613 -0.5312 -0.2238  0.6152
  933MOL0     C25850   1.861   5.250   3.522  0.3410 -1.2034 -0.3998
  933MOL0     O25851   1.988   5.255   3.585  0.0773 -0.0312  0.0677
  933MOL0     C25852   2.108   5.272   3.508  0.7018  0.7726  0.3019
  933MOL0     C25853   2.131   5.213   3.380 -0.3705  0.4223 -0.6588
  933MOL0     C25854   2.239   5.239   3.304  0.2635 -0.2032 -0.4433
  933MOL0     C25855   2.352   5.300   3.369 -0.2460 -0.4288  0.4897
  933MOL0     O25856   2.460   5.311   3.287  0.1637 -0.4708  0.2164
  933MOL0     C25857   2.580   5.340   3.352  0.3532  0.4850  0.1531
  933MOL0     C25858   2.691   5.349   3.255  0.1915  0.2851  0.6786
  933MOL0     C25859   2.823   5.380   3.325  1.0418  0.2050  0.4510
  933MOL0     C25860   2.957   5.360   3.249  0.5796 -0.4114  0.3999
  933MOL0     C25861   3.066   5.298   3.330  0.4486 -0.4877  0.2895
  933MOL0     C25862   3.195   5.259   3.260  0.8204 -0.7226  0.1422
  933MOL0     C25863   3.311   5.219   3.352 -0.1982  0.4431 -1.0862
  933MOL0     C25864   3.443   5.227   3.275  0.8891  0.2057 -0.2063
  933MOL0    Cl25865   3.457   5.077   3.188 -0.3384  0.0905 -0.4627
  933MOL0     C25866   2.337   5.351   3.502 -0.1440 -0.9402  0.1833
  933MOL0     C25867   2.214   5.330   3.570 -0.6386  0.2691 -0.5862
  933MOL0     O25868   1.840   5.240   3.403 -0.0477 -0.1889 -0.1720
  933MOL0     C25869   1.765   5.192   3.746 -0.6855  0.9390 -0.6216
  933MOL0     C25870   1.676   5.169   3.847  0.4899  0.2381  0.5874
  933MOL0     N25871   1.139   4.734   4.170 -1.1266 -0.9851  0.4038
  933MOL0     N25872   1.175   4.618   4.222 -0.1169 -0.0079  0.9858
  933MOL0     C25873   2.040   3.539   4.503  0.5536 -1.3484 -0.0700
  933MOL0     C25874   2.132   3.475   4.586  1.6487 -0.2710 -0.0297
  933MOL0     C25875   2.511   3.318   4.768  0.5203 -0.1069  0.2265
  933MOL0     C25876   2.538   3.187   4.803 -0.2409  0.1643 -0.5016
  933MOL0     C25877   2.656   3.160   4.877 -0.3249 -0.6532 -0.7204
  933MOL0     C25878   2.739   3.263   4.922 -0.6201 -0.0170 -0.0239
  933MOL0     O25879   2.858   3.253   4.987  0.5143  0.2802  0.4810
  933MOL0     C25880   2.903   3.117   5.002  0.4260 -0.2326  0.0954
  933MOL0     C25881   3.045   3.112   5.053 -0.0704  0.0287  0.4049
  933MOL0     C25882   3.070   2.967   5.108 -0.1597 -0.3433  0.3488
  933MOL0     C25883   3.217   2.941   5.137 -0.7970  0.1726  0.0071
  933MOL0     C25884   3.272   3.026   5.239 -0.1570 -0.5162 -0.8859
  933MOL0     C25885   3.311   3.103   5.322 -0.9687 -0.1746 -0.1266
  933MOL0     C25886   2.710   3.392   4.883 -0.4267  0.2754  0.8971
  933MOL0     C25887   2.594   3.421   4.808 -0.2199 -0.2776  0.3109
  933MOL0     H25888   2.376   3.695   4.578  0.2631  0.4092  0.0329
  933MOL0     H25889   2.228   3.814   4.433  2.4335  0.1427  1.5987
  933MOL0     H25890   2.000   3.911   4.429  0.5860  2.9116 -1.7544
  933MOL0     H25891   2.040   3.900   4.258 -0.6329  1.2452 -0.7164
  933MOL0     H25892   1.814   3.865   4.202 -2.5055 -4.2095  2.8233
  933MOL0     H25893   1.765   3.868   4.374 -0.5373  2.4423  1.9061
  933MOL0     H25894   1.808   4.104   4.395 -3.2229 -0.6602  0.4594
  933MOL0     H25895   1.905   4.100   4.243 -0.0205 -1.4361 -0.7582
  933MOL0     H25896   1.732   4.106   4.105 -0.5240 -1.9280 -0.6368
  933MOL0     H25897   1.623   4.020   4.223  2.1059 -1.6309 -0.9983
  933MOL0     H25898   1.632   4.258   4.356  0.8175  1.6880  1.1322
  933MOL0     H25899   1.718   4.306   4.205  2.0211 -2.9488 -2.4256
  933MOL0     H25900   1.534   4.232   4.072  2.3782  2.8124 -0.2257
  933MOL0     H25901   1.443   4.167   4.210  1.1971  0.5085  5.6241
  933MOL0     H25902   1.458   4.410   4.306 -2.6781  2.2690 -0.3557
  933MOL0     H25903   1.518   4.458   4.144  0.7268  0.6263  1.9322
  933MOL0     H25904   1.254   4.354   4.233 -1.6640  0.1600 -1.0276
  933MOL0     H25905   1.291   4.371   4.060  0.2323  1.1558 -0.7378
  933MOL0     H25906   1.402   4.641   3.992  0.8926  2.5470  1.6903
  933MOL0     H25907   1.175   4.959   4.048 -0.2046 -0.5289  2.2864
  933MOL0     H25908   1.346   4.945   4.064 -0.3737  1.7175 -0.0001
  933MOL0     H25909   1.199   4.834   3.833  0.3234 -2.1421  1.5510
  933MOL0     H25910   1.377   4.839   3.851  0.4795 -0.5361  1.9104
  933MOL0     H25911   1.182   5.045   3.756  1.6642  1.2970 -0.7303
  933MOL0     H25912   1.350   5.030   3.731 -2.1178 -0.1575 -2.2469
  933MOL0     H25913   1.260   5.169   3.995 -2.0500 -2.0933 -1.2824
  933MOL0     H25914   1.286   5.247   3.837 -0.7142 -0.6700 -0.9310
  933MOL0     H25915   1.406   5.253   3.673 -0.9408 -4.0972  0.5716
  933MOL0     H25916   1.508   5.177   3.411  0.9789  0.4824 -3.0846
  933MOL0     H25917   1.460   5.345   3.474  0.7684  0.4107  0.1437
  933MOL0     H25918   1.622   5.322   3.407  1.7587 -0.6005  2.4122
  933MOL0     H25919   2.060   5.148   3.331  0.0587 -2.3062  2.0687
  933MOL0     H25920   2.232   5.206   3.200 -1.3108  1.6036 -0.9764
  933MOL0     H25921   2.563   5.439   3.397 -0.5853  1.1085 -1.4784
  933MOL0     H25922   2.610   5.271   3.431 -0.3687  0.2192  0.1969
  933MOL0     H25923   2.696   5.251   3.207  1.2456  1.0896 -0.9488
  933MOL0     H25924   2.678   5.432   3.185 -0.7894  0.5524  1.1506
  933MOL0     H25925   2.823   5.314   3.412 -0.3681 -0.3113  0.0866
  933MOL0     H25926   2.825   5.484   3.360 -0.2120  0.6093 -0.5978
  933MOL0     H25927   2.934   5.298   3.161 -2.3018 -0.2130  0.9201
  933MOL0     H25928   2.983   5.458   3.209 -1.2132 -1.1366 -2.8824
  933MOL0     H25929   3.023   5.205   3.370 -4.1036  1.3429  0.2073
  933MOL0     H25930   3.089   5.366   3.412 -2.0041  0.4226  0.3018
  933MOL0     H25931   3.173   5.175   3.193 -1.1834 -0.3962  0.3381
  933MOL0     H25932   3.231   5.340   3.195  0.6230 -0.8860 -0.1754
  933MOL0     H25933   3.297   5.117   3.390 -2.3633  0.9137 -0.4360
  933MOL0     H25934   3.314   5.290   3.435  0.7877  0.8367 -1.4447
  933MOL0     H25935   3.522   5.249   3.348 -0.8786  0.7048  1.6317
  933MOL0     H25936   3.434   5.304   3.199  1.3264  0.9442  0.4717
  933MOL0     H25937   2.419   5.386   3.564 -4.1769  2.1605  4.4357
  933MOL0     H25938   2.209   5.364   3.673  3.5750  0.6541 -0.3374
  933MOL0     H25939   1.868   5.176   3.776  0.0137 -0.1388 -3.3008
  933MOL0     H25940   1.700   5.139   3.949 -1.3772 -2.3868  0.3606
  933MOL0     H25941   1.952   3.481   4.478  0.6977 -0.9899 -1.5072
  933MOL0     H25942   2.106   3.376   4.622  1.8491  0.4104  2.0911
  933MOL0     H25943   2.470   3.109   4.768  1.1661 -0.7337 -1.3197
  933MOL0     H25944   2.670   3.055   4.899 -0.3186 -0.5534 -0.2360
  933MOL0     H25945   2.837   3.077   5.080 -1.4250  1.5938 -0.4355
  933MOL0     H25946   2.892   3.059   4.909  1.1031 -1.9667  1.0574
  933MOL0     H25947   3.056   3.184   5.135 -0.9641 -0.4134  0.9281
  933MOL0     H25948   3.105   3.135   4.965 -1.1161  0.1987 -0.2782
  933MOL0     H25949   3.036   2.886   5.042 -1.2193 -0.9950  1.6524
  933MOL0     H25950   3.024   2.955   5.206 -3.2506  0.3973 -0.8829
  933MOL0     H25951   3.274   2.963   5.046 -2.2730  1.5757 -0.6311
  933MOL0     H25952   3.227   2.840   5.178  0.0730  1.0185  2.0220
  933MOL0     H25953   3.343   3.178   5.391  1.5004  0.3861 -1.7473
  933MOL0     H25954   2.784   3.464   4.913 -0.6829  0.7020  0.5244
  933MOL0     H25955   2.566   3.522   4.780  0.9808 -0.0825 -0.2462
  934MOL0     O25956   6.950   0.189   2.401  0.2383  0.3125 -0.2065
  934MOL0     C25957   7.072   0.160   2.419  0.9109 -0.8377  0.5002
  934MOL0     O25958   7.132   0.034   2.407 -0.5473 -0.3208 -0.3355
  934MOL0     C25959   7.059  -0.073   2.367  0.1953  0.5493 -0.1059
  934MOL0     C25960   6.980  -0.066   2.251  0.3457 -0.0531 -0.4152
  934MOL0     C25961   6.901  -0.176   2.218 -0.8007  0.2487  0.3334
  934MOL0     C25962   6.919  -0.299   2.290  0.7810  0.2647 -0.1731
  934MOL0     O25963   6.852  -0.414   2.270  0.0125 -0.2925  0.5096
  934MOL0     C25964   6.753  -0.412   2.173 -0.1570  0.1520  0.5828
  934MOL0     C25965   6.725  -0.558   2.151  0.7992  0.4091  1.2204
  934MOL0     C25966   6.841  -0.637   2.097  0.0219 -0.2657  0.4097
  934MOL0     C25967   6.788  -0.771   2.051  0.2456  0.3256  0.6257
  934MOL0     C25968   6.882  -0.855   1.966  0.4789  0.1859  0.0374
  934MOL0     C25969   6.897  -0.808   1.820 -0.0087  0.1600  0.4467
  934MOL0     C25970   6.995  -0.894   1.740  0.3421  0.2510 -0.5980
  934MOL0     C25971   7.138  -0.907   1.782 -0.2957  0.4042  0.4796
  934MOL0     N25972   7.230  -0.791   1.742 -0.1722  0.7571 -0.5179
  934MOL0     C25973   7.218  -0.657   1.745 -0.8227  0.1737  0.0935
  934MOL0     C25974   7.321  -0.606   1.669 -0.3806 -1.2976 -0.3570
  934MOL0     C25975   7.340  -0.451   1.658  1.0799 -0.0950 -0.3744
  934MOL0     C25976   7.479  -0.415   1.710 -0.6133 -0.3880 -0.0003
  934MOL0     C25977   7.508  -0.273   1.723 -0.4613 -0.7981 -0.4025
  934MOL0     C25978   7.663  -0.256   1.751 -0.1234 -0.2515 -0.0803
  934MOL0     O25979   7.724  -0.280   1.629  0.1918 -0.0984  0.8151
  934MOL0     C25980   7.861  -0.286   1.624 -0.1039  0.3721  0.7902
  934MOL0     C25981   7.946  -0.225   1.712 -0.5402 -0.2724  0.4745
  934MOL0     C25982   8.089  -0.247   1.699  0.0421 -0.4712  0.6329
  934MOL0     C25983   8.169  -0.180   1.803  0.3404 -0.7423 -0.6323
  934MOL0     C25984   8.142  -0.308   1.585  0.1489  0.5136 -0.1483
  934MOL0     C25985   8.290  -0.324   1.564  0.2337  0.2557  0.3106
  934MOL0     O25986   8.343  -0.286   1.440 -0.0054  0.1680  0.4199
  934MOL0     C25987   8.477  -0.269   1.426 -1.3817 -0.7743  0.3445
  934MOL0     C25988   8.588  -0.273   1.522 -0.4247  0.9385 -0.2164
  934MOL0     C25989   8.721  -0.287   1.482 -0.2330 -0.8052 -0.7156
  934MOL0     C25990   8.759  -0.278   1.348  0.8711 -0.4358  1.1332
  934MOL0     O25991   8.881  -0.276   1.288  0.7473  0.9555  0.4626
  934MOL0     C25992   8.978  -0.201   1.359  0.3162 -0.7123 -0.0792
  934MOL0     C25993   9.090  -0.187   1.269 -0.2080 -0.4293  0.9230
  934MOL0     C25994   9.179  -0.060   1.300  0.3278 -0.5335  0.5792
  934MOL0     C25995   9.290  -0.054   1.193 -0.3418 -0.1404  0.3511
  934MOL0     C25996   9.368   0.075   1.191 -0.1296 -0.8403  0.2533
  934MOL0     C25997   9.478   0.083   1.081  0.5011 -0.4681 -0.0688
  934MOL0     C25998   9.434   0.095   0.924  0.6679 -0.8895  0.3559
  934MOL0     C25999   9.527   0.019   0.830 -0.0306 -0.6165  0.0573
  934MOL0    Cl26000   9.693   0.084   0.815  0.3108  0.2659  0.4570
  934MOL0     C26001   8.651  -0.249   1.259 -1.2116  0.4842 -0.0296
  934MOL0     C26002   8.521  -0.247   1.295 -0.0855 -0.8098  0.0958
  934MOL0     O26003   8.350  -0.388   1.650  0.5457 -0.1848 -0.3793
  934MOL0     C26004   8.049  -0.354   1.491  0.2475  0.2681 -0.1628
  934MOL0     C26005   7.917  -0.351   1.516  0.6860 -0.5763  0.4139
  934MOL0     N26006   7.403  -0.705   1.630 -0.5609  0.4252 -0.0371
  934MOL0     N26007   7.348  -0.812   1.670  0.6620  0.3257  0.4197
  934MOL0     C26008   7.008  -0.308   2.390 -0.2737 -0.2672  0.8497
  934MOL0     C26009   7.082  -0.198   2.433  0.7279 -0.0365 -0.0437
  934MOL0     C26010   7.165   0.272   2.446  0.0492  0.7681 -0.8878
  934MOL0     C26011   7.306   0.251   2.482 -0.5728  1.1606  0.8953
  934MOL0     C26012   7.394   0.353   2.518  0.0760  0.5612  0.0013
  934MOL0     C26013   7.345   0.485   2.516  0.1939  0.2469 -0.6609
  934MOL0     O26014   7.432   0.590   2.551  0.4248 -0.7091  0.0076
  934MOL0     C26015   7.545   0.559   2.632 -0.5899  0.3219 -0.3122
  934MOL0     C26016   7.670   0.545   2.548  0.1131 -0.2324  0.2046
  934MOL0     C26017   7.730   0.681   2.514 -0.5123  0.2215 -0.4174
  934MOL0     C26018   7.796   0.684   2.377  0.1856 -0.3901 -0.0403
  934MOL0     C26019   7.927   0.624   2.374  0.9179 -0.5058  0.9410
  934MOL0     C26020   8.034   0.568   2.365  0.0807  1.2930  0.7409
  934MOL0     C26021   7.207   0.506   2.496  0.9647 -0.4392 -1.0206
  934MOL0     C26022   7.128   0.406   2.453  0.1588  0.3149  0.0896
  934MOL0     H26023   6.972   0.028   2.197 -0.1855 -0.0673 -0.3586
  934MOL0     H26024   6.832  -0.159   2.136 -1.8576 -1.4492  0.8202
  934MOL0     H26025   6.664  -0.371   2.221 -1.3075 -1.3101 -0.2025
  934MOL0     H26026   6.783  -0.368   2.079  4.1835 -1.6502  0.9080
  934MOL0     H26027   6.687  -0.607   2.241  0.0532 -0.4350  0.4745
  934MOL0     H26028   6.640  -0.563   2.082 -1.7572  0.5595  4.1123
  934MOL0     H26029   6.879  -0.588   2.006 -1.7636  0.4304 -0.0115
  934MOL0     H26030   6.921  -0.653   2.169 -0.1146  1.8919  1.0992
  934MOL0     H26031   6.751  -0.832   2.133  0.9996 -0.4268  0.4285
  934MOL0     H26032   6.703  -0.749   1.986  0.3862  1.1977  0.7230
  934MOL0     H26033   6.980  -0.849   2.016  1.1667 -1.3848 -1.0517
  934MOL0     H26034   6.844  -0.958   1.973 -2.3135  1.2363  1.6304
  934MOL0     H26035   6.800  -0.814   1.771 -0.2030  2.5640  0.4532
  934MOL0     H26036   6.919  -0.701   1.817 -0.5680  0.2569 -1.0036
  934MOL0     H26037   6.962  -0.998   1.741 -1.6367  0.7604 -2.8263
  934MOL0     H26038   6.989  -0.872   1.633 -3.2091  2.2449 -0.1563
  934MOL0     H26039   7.178  -0.997   1.735 -0.2005 -0.1621  1.6136
  934MOL0     H26040   7.150  -0.924   1.889  0.0285 -0.0596  0.3687
  934MOL0     H26041   7.128  -0.603   1.771 -0.2181  0.0648  2.6577
  934MOL0     H26042   7.323  -0.421   1.554 -2.3520  0.1576  0.1459
  934MOL0     H26043   7.262  -0.406   1.719  0.1582 -2.2339  0.1101
  934MOL0     H26044   7.554  -0.452   1.639  1.6982  3.7067 -0.0205
  934MOL0     H26045   7.478  -0.466   1.806  1.1436 -0.6024 -0.0535
  934MOL0     H26046   7.460  -0.245   1.817  0.1194  0.5176 -0.4739
  934MOL0     H26047   7.472  -0.208   1.643  0.9364  0.0414 -0.3968
  934MOL0     H26048   7.701  -0.318   1.833 -1.0969  0.8058  1.2152
  934MOL0     H26049   7.688  -0.151   1.767 -1.1271  0.4172 -2.4701
  934MOL0     H26050   7.921  -0.180   1.807  3.3981  0.3003  1.3929
  934MOL0     H26051   8.108  -0.098   1.840 -0.7583 -1.8205  0.0235
  934MOL0     H26052   8.185  -0.247   1.888  1.4757 -1.1283 -1.1210
  934MOL0     H26053   8.269  -0.149   1.770 -0.3393 -0.0790 -2.1969
  934MOL0     H26054   8.562  -0.293   1.626  0.6719 -1.8844 -0.3995
  934MOL0     H26055   8.799  -0.313   1.553  0.9410 -0.7874 -1.9763
  934MOL0     H26056   8.947  -0.104   1.400 -2.5735 -1.4124 -0.4233
  934MOL0     H26057   9.020  -0.252   1.447  1.5019 -0.2056 -0.3244
  934MOL0     H26058   9.148  -0.280   1.278  2.3994  1.1211  0.9334
  934MOL0     H26059   9.045  -0.168   1.171 -0.1900 -0.5580  0.8896
  934MOL0     H26060   9.210  -0.048   1.404  1.1752  3.5899  0.0344
  934MOL0     H26061   9.123   0.032   1.285  0.2851 -1.0652 -4.1089
  934MOL0     H26062   9.358  -0.139   1.198 -1.0771 -0.7708 -0.1235
  934MOL0     H26063   9.239  -0.057   1.096  1.6350  0.7179 -0.7536
  934MOL0     H26064   9.426   0.071   1.284 -3.1213 -0.1528  2.2806
  934MOL0     H26065   9.309   0.167   1.188  3.4369  1.6117 -2.2926
  934MOL0     H26066   9.535   0.173   1.109  0.2824  0.8168 -3.2334
  934MOL0     H26067   9.546  -0.002   1.084  1.8929  0.6053  0.1774
  934MOL0     H26068   9.424   0.197   0.885 -4.4670 -1.5094 -0.6214
  934MOL0     H26069   9.332   0.058   0.911 -0.2699  0.6960  2.4963
  934MOL0     H26070   9.486   0.021   0.729  0.1697  0.3494 -0.0085
  934MOL0     H26071   9.523  -0.089   0.852 -0.9230 -0.6051 -0.0202
  934MOL0     H26072   8.666  -0.234   1.152  0.5207  0.2367  0.1521
  934MOL0     H26073   8.441  -0.225   1.225 -1.4838  1.7240  2.3096
  934MOL0     H26074   8.081  -0.392   1.394  0.7790  2.3865 -0.8812
  934MOL0     H26075   7.848  -0.390   1.441 -0.6314 -0.4041  1.5043
  934MOL0     H26076   7.011  -0.405   2.437  0.4035 -2.0700 -2.6010
  934MOL0     H26077   7.152  -0.202   2.516 -0.8931  3.4673  1.7379
  934MOL0     H26078   7.337   0.147   2.487  0.0888  1.3080  0.1337
  934MOL0     H26079   7.497   0.326   2.536 -0.3039 -0.3961  0.8851
  934MOL0     H26080   7.562   0.640   2.704  1.9684  1.7813 -2.3928
  934MOL0     H26081   7.525   0.472   2.696 -2.3991  1.2665  0.4837
  934MOL0     H26082   7.644   0.489   2.458 -1.2268 -0.6146  0.8022
  934MOL0     H26083   7.739   0.477   2.598 -0.7038 -1.7343 -0.6618
  934MOL0     H26084   7.800   0.721   2.588 -0.5937 -1.7641  0.7942
  934MOL0     H26085   7.650   0.755   2.518  1.2422  2.2424  4.6286
  934MOL0     H26086   7.827   0.788   2.358  0.6490 -0.7760 -1.5846
  934MOL0     H26087   7.733   0.643   2.297  0.3342  0.6051 -0.6870
  934MOL0     H26088   8.124   0.510   2.366 -0.9188 -0.3200  0.4183
  934MOL0     H26089   7.176   0.609   2.480 -0.8143 -1.2158 -3.0417
  934MOL0     H26090   7.035   0.445   2.414  0.7855  0.4671 -1.3407
  935MOL0     O26091   7.388   1.267   7.807  0.7901  0.8650  0.1378
  935MOL0     C26092   7.478   1.205   7.748 -0.0973 -0.4795 -0.2728
  935MOL0     O26093   7.454   1.123   7.645 -0.4237 -0.7581 -0.2006
  935MOL0     C26094   7.340   1.057   7.643  0.0949  0.4137 -1.1277
  935MOL0     C26095   7.237   1.091   7.562  0.2373 -0.5101  0.8410
  935MOL0     C26096   7.120   1.003   7.550 -0.4174  0.2741 -0.1147
  935MOL0     C26097   7.116   0.881   7.626  0.2749 -0.7424  0.1994
  935MOL0     O26098   7.018   0.787   7.611  0.0050  0.4926 -0.2929
  935MOL0     C26099   6.884   0.839   7.578  0.1942  0.2282 -1.0420
  935MOL0     C26100   6.793   0.718   7.577 -0.3012 -0.0523 -0.0440
  935MOL0     C26101   6.646   0.749   7.570  0.7657  0.5644 -0.2806
  935MOL0     C26102   6.570   0.619   7.541 -0.0309 -0.0560 -0.3950
  935MOL0     C26103   6.422   0.647   7.523  0.2003 -1.2293 -0.3338
  935MOL0     C26104   6.339   0.667   7.648  0.2717 -0.3250  0.4673
  935MOL0     C26105   6.205   0.697   7.605  0.5328  0.1898 -0.4552
  935MOL0     C26106   6.107   0.736   7.716 -0.4001 -0.3410  0.3511
  935MOL0     N26107   5.975   0.782   7.676 -0.2276  0.3253 -0.1488
  935MOL0     C26108   5.933   0.913   7.669  0.3457 -0.5004 -0.3267
  935MOL0     C26109   5.800   0.910   7.648 -0.7803 -0.8418  0.7052
  935MOL0     C26110   5.713   1.038   7.629  0.0084 -0.1312 -0.2397
  935MOL0     C26111   5.572   1.030   7.694  0.5694  0.2787 -1.0609
  935MOL0     C26112   5.581   0.990   7.846  0.3175  0.1290  0.1212
  935MOL0     C26113   5.448   1.038   7.910 -0.2438  1.0481  0.4961
  935MOL0     O26114   5.338   0.972   7.851  0.2786  0.2919 -0.5214
  935MOL0     C26115   5.211   1.013   7.880  0.9418 -0.1185  0.6338
  935MOL0     C26116   5.170   1.104   7.978 -0.6170  0.0742 -0.5754
  935MOL0     C26117   5.034   1.124   8.009  0.0757 -0.4827  0.0441
  935MOL0     C26118   4.994   1.207   8.132 -0.5330 -0.6406 -0.3466
  935MOL0     C26119   4.928   1.076   7.922  0.0937 -0.6525 -1.0459
  935MOL0     C26120   4.783   1.114   7.924 -1.1977 -1.2114  0.1289
  935MOL0     O26121   4.710   1.055   7.823 -0.0968  0.1106  0.5243
  935MOL0     C26122   4.575   1.083   7.819 -0.3404  0.3957  0.1375
  935MOL0     C26123   4.487   1.092   7.926  0.9256 -0.4865  0.2134
  935MOL0     C26124   4.351   1.109   7.904 -0.8089  0.0634 -0.1262
  935MOL0     C26125   4.302   1.132   7.774  0.3682  1.1636 -0.1959
  935MOL0     O26126   4.164   1.139   7.750  0.2153  0.0805 -0.6427
  935MOL0     C26127   4.068   1.081   7.844 -0.0565  0.2820 -0.2475
  935MOL0     C26128   3.927   1.084   7.789  0.1668 -0.0441 -0.4304
  935MOL0     C26129   3.822   1.069   7.905 -0.6448 -0.5829 -0.3194
  935MOL0     C26130   3.683   1.117   7.864 -1.2815  0.7803  0.3274
  935MOL0     C26131   3.596   1.112   7.983  0.9667 -0.4398  0.5881
  935MOL0     C26132   3.443   1.111   7.935  0.0353 -0.0916 -0.5066
  935MOL0     C26133   3.340   1.139   8.042  0.9784  0.0599 -0.6750
  935MOL0     C26134   3.318   1.031   8.148 -0.4203 -0.1860  0.4444
  935MOL0    Cl26135   3.320   0.869   8.084 -0.1105 -0.4953 -0.1296
  935MOL0     C26136   4.388   1.126   7.668  0.5599 -1.1699 -0.3310
  935MOL0     C26137   4.527   1.101   7.688  0.3525 -0.0486 -0.4462
  935MOL0     O26138   4.742   1.199   8.001  0.1162  0.0876 -0.0988
  935MOL0     C26139   4.974   0.977   7.826 -0.6781 -0.6523 -0.3220
  935MOL0     C26140   5.109   0.951   7.805  0.0117 -0.0217  0.0359
  935MOL0     N26141   5.762   0.778   7.622 -0.1650 -0.3079 -1.3224
  935MOL0     N26142   5.867   0.699   7.641 -0.8739 -0.3112  0.2243
  935MOL0     C26143   7.219   0.857   7.711 -0.1041 -0.3301  0.3525
  935MOL0     C26144   7.333   0.937   7.716  0.6747 -0.4715 -0.2923
  935MOL0     C26145   7.621   1.245   7.785 -0.5305  0.3845 -0.1506
  935MOL0     C26146   7.727   1.170   7.731 -0.0071  0.0577  0.1766
  935MOL0     C26147   7.857   1.173   7.791  0.1189 -0.4286  0.2117
  935MOL0     C26148   7.866   1.247   7.908 -1.4770 -0.6033 -0.0575
  935MOL0     O26149   7.988   1.241   7.975  0.4957  0.5471  0.3271
  935MOL0     C26150   8.101   1.151   7.945  0.3504  0.0038  0.2812
  935MOL0     C26151   8.172   1.191   7.821  0.6318 -0.3053 -0.0423
  935MOL0     C26152   8.320   1.169   7.814  0.0533  0.3258 -0.8930
  935MOL0     C26153   8.371   1.193   7.670 -0.2931 -0.3089  0.2214
  935MOL0     C26154   8.522   1.200   7.679  0.4828 -1.6841 -0.2256
  935MOL0     C26155   8.643   1.208   7.686  0.1820  0.2728  0.5397
  935MOL0     C26156   7.758   1.325   7.957  0.2146  0.0205 -0.2837
  935MOL0     C26157   7.636   1.325   7.895  0.1466 -0.3573  0.6949
  935MOL0     H26158   7.251   1.181   7.502 -0.3431  0.3912  2.0181
  935MOL0     H26159   7.050   1.028   7.471  0.5963  0.8875 -0.8523
  935MOL0     H26160   6.849   0.910   7.653 -4.2365  1.2732 -3.7311
  935MOL0     H26161   6.872   0.891   7.482 -2.3425  2.0091  0.1219
  935MOL0     H26162   6.821   0.650   7.496 -0.4589  0.2083 -0.3214
  935MOL0     H26163   6.810   0.670   7.673 -1.8221  4.6824  2.9535
  935MOL0     H26164   6.612   0.794   7.663 -0.3253  0.0853 -0.4373
  935MOL0     H26165   6.628   0.811   7.482  0.0892  1.5809  0.5551
  935MOL0     H26166   6.617   0.593   7.446  1.9891  1.5483  0.0938
  935MOL0     H26167   6.585   0.534   7.609  0.2241 -0.0864 -0.4872
  935MOL0     H26168   6.420   0.738   7.462  1.8869 -2.7448 -2.8370
  935MOL0     H26169   6.379   0.561   7.470  0.3840 -0.2351 -2.1984
  935MOL0     H26170   6.328   0.577   7.708  1.1493 -0.2152  0.8035
  935MOL0     H26171   6.381   0.747   7.710  0.9187  1.0957 -1.6920
  935MOL0     H26172   6.200   0.768   7.522 -3.5829 -1.5649 -1.9508
  935MOL0     H26173   6.157   0.607   7.565 -0.0630  0.6769 -0.8604
  935MOL0     H26174   6.150   0.826   7.762 -0.1911  0.9978 -2.3025
  935MOL0     H26175   6.100   0.662   7.796  0.1477 -3.0317 -1.9507
  935MOL0     H26176   5.996   0.998   7.693 -0.1682 -0.3069  0.3847
  935MOL0     H26177   5.768   1.126   7.662  3.3081 -1.3793 -1.9848
  935MOL0     H26178   5.699   1.057   7.522  2.8512 -0.3222 -0.7019
  935MOL0     H26179   5.517   0.950   7.644  2.7054 -0.4151 -2.4087
  935MOL0     H26180   5.513   1.122   7.686  0.2245  0.2083  0.3902
  935MOL0     H26181   5.662   1.040   7.899  1.9311 -0.2891 -1.8312
  935MOL0     H26182   5.611   0.885   7.838  1.6625  0.5074  0.0628
  935MOL0     H26183   5.446   1.147   7.916  4.1463  1.5677 -2.8327
  935MOL0     H26184   5.449   1.002   8.013  2.6387 -2.4241 -0.5778
  935MOL0     H26185   5.242   1.171   8.023 -1.5236 -0.7986  2.3872
  935MOL0     H26186   4.952   1.301   8.095  0.1534  0.5188  1.6707
  935MOL0     H26187   4.921   1.157   8.196 -0.3645 -0.2943  0.1157
  935MOL0     H26188   5.085   1.228   8.189 -1.0545 -2.6406  1.3365
  935MOL0     H26189   4.515   1.080   8.031 -0.5777  1.4027  0.8861
  935MOL0     H26190   4.276   1.109   7.983 -1.5984 -1.8777 -0.8224
  935MOL0     H26191   4.086   0.975   7.864 -1.3414 -0.1587 -1.2716
  935MOL0     H26192   4.065   1.132   7.941 -0.6301 -0.0190 -0.1025
  935MOL0     H26193   3.915   1.177   7.732  1.0685 -0.0142 -0.5799
  935MOL0     H26194   3.917   0.998   7.723  0.3660 -0.9448  0.6844
  935MOL0     H26195   3.855   1.126   7.992  0.8574  0.4671 -1.5075
  935MOL0     H26196   3.818   0.963   7.930  0.0865 -0.3671  0.7746
  935MOL0     H26197   3.679   1.221   7.831  0.5053  1.0889  0.9930
  935MOL0     H26198   3.642   1.056   7.784 -0.2106  1.4202 -0.7377
  935MOL0     H26199   3.620   1.200   8.044 -2.0382 -0.6741  2.3363
  935MOL0     H26200   3.609   1.027   8.050  3.1971  0.6807  1.7019
  935MOL0     H26201   3.426   1.183   7.854  2.6276  0.2814 -0.8144
  935MOL0     H26202   3.414   1.020   7.883 -1.0350 -0.3615  0.5232
  935MOL0     H26203   3.248   1.162   7.988  0.0284 -1.1275  0.3825
  935MOL0     H26204   3.377   1.230   8.091 -1.8488  1.3855 -0.8225
  935MOL0     H26205   3.221   1.065   8.185 -0.8566  1.1421 -1.7142
  935MOL0     H26206   3.394   1.038   8.227  2.5895 -1.8380 -2.0890
  935MOL0     H26207   4.358   1.160   7.569 -0.4236  1.8659  0.8981
  935MOL0     H26208   4.591   1.114   7.601  0.1552  0.9205 -0.4529
  935MOL0     H26209   4.911   0.946   7.744 -1.8468  3.5095 -1.1995
  935MOL0     H26210   5.135   0.879   7.728  0.4599  0.0019  0.1651
  935MOL0     H26211   7.210   0.763   7.765 -0.2907  0.2960  1.4432
  935MOL0     H26212   7.416   0.883   7.759 -1.1184 -3.7432 -0.6415
  935MOL0     H26213   7.704   1.105   7.647  1.6928 -1.5526  0.8653
  935MOL0     H26214   7.934   1.120   7.737 -0.9937  0.7091 -2.7054
  935MOL0     H26215   8.167   1.152   8.032 -1.4224 -1.1921  1.7134
  935MOL0     H26216   8.062   1.049   7.939 -2.4521  0.7406  2.9215
  935MOL0     H26217   8.148   1.297   7.804  1.9416  0.0454  0.2480
  935MOL0     H26218   8.127   1.138   7.737 -2.9787 -0.1343  1.5745
  935MOL0     H26219   8.333   1.063   7.840 -0.5567  0.5408  0.3138
  935MOL0     H26220   8.367   1.239   7.883  1.0423  0.5289 -1.7358
  935MOL0     H26221   8.344   1.293   7.634  2.0477  0.3969  0.2185
  935MOL0     H26222   8.332   1.126   7.594  1.4726  1.0724 -2.0404
  935MOL0     H26223   8.749   1.218   7.683  0.1059  0.9441  0.0471
  935MOL0     H26224   7.775   1.374   8.053 -0.6221 -2.6138  1.3122
  935MOL0     H26225   7.550   1.382   7.928  0.1870 -1.8936  3.8762
  936MOL0     O26226   9.462   9.183   7.642  0.3504  0.7659 -0.1078
  936MOL0     C26227   9.552   9.232   7.706 -0.5528  0.3714 -0.0906
  936MOL0     O26228   9.534   9.268   7.839  0.0451 -0.4478 -0.6841
  936MOL0     C26229   9.408   9.246   7.900  0.3825  0.0277  1.2889
  936MOL0     C26230   9.388   9.130   7.970 -0.3095  0.5829 -1.0361
  936MOL0     C26231   9.266   9.113   8.051 -1.0811  0.5844  0.5005
  936MOL0     C26232   9.175   9.218   8.063 -0.3161 -0.0486  0.5553
  936MOL0     O26233   9.058   9.226   8.140  0.3181  0.2449  0.7906
  936MOL0     C26234   9.026   9.116   8.221 -0.3430  0.3993 -0.0313
  936MOL0     C26235   8.908   9.159   8.307 -0.5193  0.6829 -0.0649
  936MOL0     C26236   8.949   9.245   8.436  0.3389  0.4242  0.1686
  936MOL0     C26237   8.832   9.347   8.461 -0.7083 -0.3819  0.1421
  936MOL0     C26238   8.850   9.419   8.596  0.7103 -0.0252  0.1653
  936MOL0     C26239   8.735   9.510   8.626  0.1254 -0.0771 -0.5696
  936MOL0     C26240   8.776   9.627   8.725  0.4111 -0.4270 -0.4912
  936MOL0     C26241   8.823   9.566   8.864 -0.2453 -0.4688 -0.6685
  936MOL0     N26242   8.847   9.675   8.956  0.4572 -0.6032 -1.4057
  936MOL0     C26243   8.929   9.787   8.930  0.0622 -0.0235 -0.8040
  936MOL0     C26244   8.907   9.867   9.043 -0.2777  0.4761 -0.2754
  936MOL0     C26245   8.956  10.006   9.081 -0.6392  0.2132  0.3826
  936MOL0     C26246   9.101   9.997   9.137 -0.3351 -0.5273  0.4525
  936MOL0     C26247   9.200  10.057   9.034  0.5476  0.5853  0.0609
  936MOL0     C26248   9.340  10.028   9.052 -0.7619  0.2629  0.3183
  936MOL0     O26249   9.375   9.891   9.067 -0.2715  0.1959 -0.3529
  936MOL0     C26250   9.512   9.869   9.066  0.4005 -0.9497 -0.6511
  936MOL0     C26251   9.552   9.739   9.040 -0.3045  0.1015 -0.4631
  936MOL0     C26252   9.684   9.693   9.035  0.2399  0.4503 -0.5502
  936MOL0     C26253   9.715   9.544   9.014 -0.1257  0.6746  0.4399
  936MOL0     C26254   9.788   9.787   9.061 -0.0040 -0.0852  0.6278
  936MOL0     C26255   9.931   9.758   9.061 -0.0314 -0.0609  0.1543
  936MOL0     O26256  10.012   9.859   9.099 -1.3457  0.7665 -0.1043
  936MOL0     C26257  10.148   9.830   9.086 -0.1018  0.0631  0.2937
  936MOL0     C26258  10.227   9.825   9.204  0.6369 -0.7826 -0.3057
  936MOL0     C26259  10.364   9.794   9.204  0.0918 -0.8498 -0.1956
  936MOL0     C26260  10.431   9.778   9.080  0.0347 -0.4350  0.0657
  936MOL0     O26261  10.568   9.753   9.064 -0.0902 -0.0235  0.2709
  936MOL0     C26262  10.657   9.762   9.173  0.3515 -0.8067  0.0699
  936MOL0     C26263  10.669   9.626   9.258  0.3016  0.1313 -0.0132
  936MOL0     C26264  10.679   9.503   9.182 -0.3908 -0.2611 -0.4566
  936MOL0     C26265  10.834   9.487   9.160  0.7647  0.4189 -0.3117
  936MOL0     C26266  10.859   9.362   9.081 -0.3852  0.5676  0.1246
  936MOL0     C26267  11.008   9.327   9.094 -0.1250  0.1193 -0.6986
  936MOL0     C26268  11.036   9.193   9.031  0.0859  0.4459 -0.5296
  936MOL0     C26269  11.184   9.168   9.029  0.0499 -0.4322 -0.4595
  936MOL0    Cl26270  11.248   9.159   9.183  0.3085 -0.0438  0.0403
  936MOL0     C26271  10.350   9.775   8.959 -0.7139  0.2102 -0.2676
  936MOL0     C26272  10.213   9.810   8.966 -1.2961  0.8272 -0.0633
  936MOL0     O26273   9.972   9.646   9.029 -0.3902 -0.0488 -0.2901
  936MOL0     C26274   9.746   9.924   9.087  0.0683  0.8466  1.1140
  936MOL0     C26275   9.612   9.968   9.085  0.1571  0.0568 -1.2005
  936MOL0     N26276   8.825   9.802   9.130  0.6012  0.1900 -0.1304
  936MOL0     N26277   8.793   9.689   9.077  0.6251 -0.7248  0.0470
  936MOL0     C26278   9.205   9.333   7.993 -0.1993 -0.3075  0.5125
  936MOL0     C26279   9.314   9.346   7.910 -0.1405 -0.1116 -0.2534
  936MOL0     C26280   9.687   9.234   7.648  0.1857 -1.0816  0.1411
  936MOL0     C26281   9.773   9.339   7.692  0.2572  1.1051 -0.1245
  936MOL0     C26282   9.900   9.346   7.648  0.3871 -1.2364 -0.3400
  936MOL0     C26283   9.950   9.245   7.565 -0.6075  0.7518 -0.1714
  936MOL0     O26284  10.086   9.246   7.521 -0.3759 -0.6735  0.3023
  936MOL0     C26285  10.180   9.251   7.624  0.3429  0.7025 -0.4690
  936MOL0     C26286  10.212   9.115   7.687 -0.0197 -0.1073  0.1271
  936MOL0     C26287  10.284   9.018   7.587 -0.2278  0.2950  0.4769
  936MOL0     C26288  10.189   8.944   7.501  0.3635 -0.2627  0.9614
  936MOL0     C26289  10.259   8.849   7.422  0.2734 -0.3728 -0.0968
  936MOL0     C26290  10.339   8.782   7.359  0.2136 -0.2109  0.2547
  936MOL0     C26291   9.871   9.147   7.512 -0.1049  0.1168 -0.3773
  936MOL0     C26292   9.742   9.134   7.558 -0.4071 -0.3509  0.2405
  936MOL0     H26293   9.473   9.065   7.989  1.3102  2.2772 -2.1766
  936MOL0     H26294   9.254   9.017   8.100 -2.0214  0.3430 -0.1585
  936MOL0     H26295   8.992   9.035   8.156 -0.3973 -1.2846  1.9770
  936MOL0     H26296   9.117   9.092   8.278  1.4904  1.2374 -2.4421
  936MOL0     H26297   8.832   9.219   8.257 -1.9793 -1.1316 -0.1295
  936MOL0     H26298   8.858   9.069   8.343 -1.6423 -0.1304 -3.3630
  936MOL0     H26299   8.959   9.171   8.517 -0.0263 -0.0549 -0.2216
  936MOL0     H26300   9.043   9.296   8.414 -0.7808  2.6608  0.3421
  936MOL0     H26301   8.831   9.420   8.379  0.8309 -2.7535 -2.1359
  936MOL0     H26302   8.731   9.306   8.459 -1.6128  1.6023  1.5168
  936MOL0     H26303   8.861   9.332   8.662  1.8076  1.8093  2.5538
  936MOL0     H26304   8.948   9.467   8.592  0.4668  0.6053  1.4293
  936MOL0     H26305   8.720   9.565   8.533 -1.4005 -0.3693 -0.5169
  936MOL0     H26306   8.649   9.449   8.655  0.2745  0.4447  1.0837
  936MOL0     H26307   8.855   9.686   8.677 -0.1039 -0.3457 -1.2491
  936MOL0     H26308   8.688   9.685   8.752  1.0888 -0.5904  2.4694
  936MOL0     H26309   8.917   9.512   8.850  0.3971  0.3920  0.1305
  936MOL0     H26310   8.763   9.486   8.907  1.8199 -2.1266 -0.7045
  936MOL0     H26311   8.988   9.809   8.842  1.7489 -0.9862  0.0197
  936MOL0     H26312   8.945  10.071   8.994  0.2141 -4.5103 -3.6933
  936MOL0     H26313   8.898  10.048   9.164 -0.0802 -1.8305  1.8948
  936MOL0     H26314   9.121   9.891   9.151  0.5375 -0.6380 -1.3305
  936MOL0     H26315   9.117  10.055   9.228 -0.3825  0.4333 -0.1303
  936MOL0     H26316   9.191  10.166   9.038 -0.6560  0.4705  3.9156
  936MOL0     H26317   9.167  10.023   8.935  0.7039  1.6857 -0.3816
  936MOL0     H26318   9.363  10.080   9.146 -1.6269 -1.4006  1.4921
  936MOL0     H26319   9.398  10.074   8.972 -1.4317  1.2895  0.4018
  936MOL0     H26320   9.474   9.666   9.026  0.6382 -1.3549  1.3811
  936MOL0     H26321   9.784   9.535   8.929 -1.2416 -2.1386 -0.2813
  936MOL0     H26322   9.762   9.501   9.103 -2.5894 -2.8617  0.2480
  936MOL0     H26323   9.624   9.487   8.994  0.7251 -0.3256 -0.7794
  936MOL0     H26324  10.169   9.842   9.294  0.5934 -0.3325 -0.4201
  936MOL0     H26325  10.412   9.798   9.301 -1.6817  0.5402  0.6814
  936MOL0     H26326  10.753   9.800   9.137  0.0698  1.0064  1.1315
  936MOL0     H26327  10.620   9.840   9.239  0.0433 -0.0166 -1.0077
  936MOL0     H26328  10.756   9.640   9.322  0.6239  1.2167 -0.6661
  936MOL0     H26329  10.578   9.631   9.319  0.8595 -0.8318  0.9450
  936MOL0     H26330  10.632   9.515   9.084  0.7585 -0.3761 -1.0410
  936MOL0     H26331  10.640   9.419   9.240  1.9374 -0.2291  1.2963
  936MOL0     H26332  10.867   9.569   9.097  2.6331 -1.2037 -1.5853
  936MOL0     H26333  10.879   9.480   9.260 -1.3148  1.4291  0.7463
  936MOL0     H26334  10.839   9.392   8.978  0.8710 -1.1439 -0.6558
  936MOL0     H26335  10.796   9.279   9.112 -1.7514  0.8069 -1.8671
  936MOL0     H26336  11.057   9.407   9.037 -0.1407 -1.0266 -2.3902
  936MOL0     H26337  11.035   9.327   9.200  0.9498 -2.7192 -0.9094
  936MOL0     H26338  10.996   9.181   8.930  0.6274 -0.1748 -0.6804
  936MOL0     H26339  10.986   9.109   9.079  1.1282  0.5067  0.7073
  936MOL0     H26340  11.227   9.251   8.971  0.6681  0.0913  0.7297
  936MOL0     H26341  11.208   9.074   8.979 -0.1397 -0.1777 -1.0493
  936MOL0     H26342  10.389   9.750   8.861  1.5866 -1.9708  1.0653
  936MOL0     H26343  10.155   9.811   8.875 -0.9597  2.0196 -0.2789
  936MOL0     H26344   9.829   9.990   9.112  1.5703 -1.3379  2.2783
  936MOL0     H26345   9.583  10.071   9.103 -0.5985 -0.0040 -1.9662
  936MOL0     H26346   9.145   9.423   7.996  1.3538  0.8015  0.0839
  936MOL0     H26347   9.330   9.437   7.853  2.4665  0.0206  0.5588
  936MOL0     H26348   9.742   9.409   7.769  0.0534 -0.0973  0.9209
  936MOL0     H26349   9.955   9.434   7.680  0.3153 -1.1118 -0.5602
  936MOL0     H26350  10.273   9.286   7.579  1.1835  0.5794  1.1385
  936MOL0     H26351  10.147   9.323   7.699  0.8448  2.1274 -1.5659
  936MOL0     H26352  10.117   9.070   7.717  2.5476 -4.2044  3.2480
  936MOL0     H26353  10.275   9.136   7.774  0.2637 -0.3855 -0.0092
  936MOL0     H26354  10.353   8.954   7.643  1.1782  2.1584  1.0034
  936MOL0     H26355  10.356   9.073   7.526 -0.1699  2.2895  2.2100
  936MOL0     H26356  10.122   9.005   7.440  0.9997 -0.0236  0.4957
  936MOL0     H26357  10.128   8.880   7.565  2.0680 -0.0567  2.8823
  936MOL0     H26358  10.402   8.731   7.289  1.3868  1.8353 -0.2708
  936MOL0     H26359   9.919   9.072   7.450  1.7309 -0.2135  1.3743
  936MOL0     H26360   9.671   9.063   7.518  0.5408 -0.8688 -0.5871
  937MOL0     O26361  11.145   9.351   1.155  0.2522  0.4600  0.2455
  937MOL0     C26362  11.208   9.251   1.122 -0.0021  0.5530 -0.2887
  937MOL0     O26363  11.166   9.120   1.133  0.2831 -0.1914 -0.3399
  937MOL0     C26364  11.035   9.091   1.136 -0.7939 -0.8787 -0.3259
  937MOL0     C26365  10.986   9.036   1.247 -0.4299  0.4888 -0.0744
  937MOL0     C26366  10.852   9.027   1.264  0.1009  0.5202 -0.4477
  937MOL0     C26367  10.766   9.059   1.158  0.0754 -0.1221 -0.4164
  937MOL0     O26368  10.632   9.034   1.171  0.2846 -0.3756  0.4094
  937MOL0     C26369  10.586   8.913   1.107  0.4244 -0.7184 -0.0607
  937MOL0     C26370  10.560   8.811   1.218  0.7538  0.3169 -0.0886
  937MOL0     C26371  10.475   8.856   1.342  0.0654 -0.9976  0.1283
  937MOL0     C26372  10.495   8.764   1.462 -0.4529 -0.3145 -0.0096
  937MOL0     C26373  10.403   8.808   1.573 -0.0000 -0.3927  0.2063
  937MOL0     C26374  10.403   8.716   1.690  0.2839  0.7242 -0.0703
  937MOL0     C26375  10.536   8.700   1.763  0.3479 -0.3127 -0.1132
  937MOL0     C26376  10.522   8.673   1.918 -0.2736  0.0055  0.0218
  937MOL0     N26377  10.442   8.787   1.979  0.1476 -0.3675  0.0449
  937MOL0     C26378  10.309   8.785   1.995 -0.0569  0.3630 -0.5360
  937MOL0     C26379  10.280   8.915   2.011 -0.4755 -0.3751 -0.8760
  937MOL0     C26380  10.138   8.963   2.022  0.4488 -0.1673  0.3569
  937MOL0     C26381  10.068   8.990   1.888  0.2086  0.7236 -0.0773
  937MOL0     C26382   9.925   9.034   1.907  0.5052 -0.7178  0.1789
  937MOL0     C26383   9.846   9.071   1.788  0.4430  0.8623 -0.3515
  937MOL0     O26384   9.814   8.965   1.696 -0.2403 -0.0565  0.2207
  937MOL0     C26385   9.706   8.883   1.715 -0.4977  0.0571  0.4087
  937MOL0     C26386   9.631   8.872   1.836 -0.1919  0.5963 -0.7893
  937MOL0     C26387   9.512   8.803   1.848  0.1011  0.0606 -0.4379
  937MOL0     C26388   9.455   8.793   1.989  0.5015 -1.0536  0.4694
  937MOL0     C26389   9.467   8.718   1.743 -0.0695 -0.8345 -0.2471
  937MOL0     C26390   9.351   8.620   1.753 -0.4696 -0.3404  0.3073
  937MOL0     O26391   9.315   8.561   1.635  0.0566 -0.0091  0.0979
  937MOL0     C26392   9.203   8.483   1.646 -0.8364 -0.2871 -0.0194
  937MOL0     C26393   9.228   8.344   1.646  0.1159  0.1356  0.0489
  937MOL0     C26394   9.120   8.259   1.657  0.2922 -0.5176  0.5256
  937MOL0     C26395   8.991   8.300   1.656 -0.0345 -0.2357 -0.6692
  937MOL0     O26396   8.880   8.226   1.657  1.1523  0.5270  0.3245
  937MOL0     C26397   8.897   8.092   1.605  0.4557  0.0512  0.2243
  937MOL0     C26398   8.755   8.040   1.577 -0.1638 -0.4128  0.1911
  937MOL0     C26399   8.771   7.899   1.532  0.5101 -0.2997  0.4960
  937MOL0     C26400   8.638   7.836   1.498 -0.7895  0.7020 -0.5662
  937MOL0     C26401   8.637   7.686   1.466 -0.2858 -1.1991 -0.0710
  937MOL0     C26402   8.518   7.660   1.364 -0.2925 -0.4344 -0.6145
  937MOL0     C26403   8.505   7.509   1.338 -0.4103 -0.2761  1.1533
  937MOL0     C26404   8.401   7.478   1.228 -0.2519  0.7426 -0.5402
  937MOL0    Cl26405   8.246   7.541   1.277 -0.0126  0.0092  0.4438
  937MOL0     C26406   8.967   8.431   1.663 -0.4350  0.0003 -0.0370
  937MOL0     C26407   9.069   8.523   1.652  0.0017  0.4993  0.9750
  937MOL0     O26408   9.302   8.599   1.864 -0.0604  0.7733  0.3748
  937MOL0     C26409   9.543   8.724   1.621 -0.0553 -0.3943 -1.2657
  937MOL0     C26410   9.658   8.808   1.609 -0.3118  0.1474 -0.1776
  937MOL0     N26411  10.389   8.989   2.047  0.0648 -0.2976  0.1726
  937MOL0     N26412  10.488   8.910   2.022  0.5006  0.1395  1.1578
  937MOL0     C26413  10.811   9.111   1.037 -0.1360 -0.0988  0.9087
  937MOL0     C26414  10.953   9.121   1.024 -0.2145 -0.4733 -0.7197
  937MOL0     C26415  11.344   9.269   1.078  0.5707 -0.2862 -0.9829
  937MOL0     C26416  11.414   9.377   1.124  0.3241  0.1511 -1.0788
  937MOL0     C26417  11.549   9.402   1.087  0.3549  0.3898  0.0817
  937MOL0     C26418  11.608   9.308   0.999 -0.3894 -0.1071  0.4777
  937MOL0     O26419  11.745   9.307   0.961 -0.0698  0.5123  0.2637
  937MOL0     C26420  11.841   9.370   1.053  0.1627 -0.1493 -0.0914
  937MOL0     C26421  11.979   9.299   1.038  0.5723 -0.5337 -0.2073
  937MOL0     C26422  12.035   9.332   0.901  0.1121  0.6327 -0.1083
  937MOL0     C26423  12.143   9.230   0.843 -0.6248 -0.2475  0.4467
  937MOL0     C26424  12.176   9.264   0.702 -0.1781 -0.3573  0.2576
  937MOL0     C26425  12.197   9.283   0.588  0.0629 -1.1989  0.9798
  937MOL0     C26426  11.537   9.203   0.948  0.2628 -0.5612  1.1741
  937MOL0     C26427  11.412   9.177   0.993  0.1939  0.2130 -0.4670
  937MOL0     H26428  11.062   9.013   1.320  2.6741  0.9072 -2.9551
  937MOL0     H26429  10.810   8.977   1.350  0.0699  0.3417 -0.5662
  937MOL0     H26430  10.490   8.933   1.058  0.6136 -1.0474 -0.5631
  937MOL0     H26431  10.657   8.869   1.038  1.0823 -0.6723  0.5701
  937MOL0     H26432  10.508   8.724   1.175  2.1499  0.1414 -1.5263
  937MOL0     H26433  10.651   8.767   1.260 -1.1845 -3.2454  0.7829
  937MOL0     H26434  10.503   8.958   1.373  3.4259 -1.3420 -1.3580
  937MOL0     H26435  10.368   8.860   1.318 -0.0838  2.4190  0.8273
  937MOL0     H26436  10.484   8.657   1.446  0.1005 -0.9093  2.9668
  937MOL0     H26437  10.596   8.783   1.500 -1.3132  5.7281  0.3308
  937MOL0     H26438  10.433   8.905   1.613 -1.9483 -0.2489  1.4691
  937MOL0     H26439  10.299   8.822   1.543 -0.0489  1.2951  1.0414
  937MOL0     H26440  10.322   8.744   1.757 -2.0566  2.6030 -3.4194
  937MOL0     H26441  10.366   8.619   1.655  1.9445 -1.7086  4.0670
  937MOL0     H26442  10.588   8.618   1.714 -2.5290 -1.3243 -1.6971
  937MOL0     H26443  10.590   8.794   1.747 -2.1222  0.7622 -3.1076
  937MOL0     H26444  10.620   8.661   1.965 -0.9144 -1.5873  1.0184
  937MOL0     H26445  10.474   8.579   1.944  0.6851 -0.3600  0.5283
  937MOL0     H26446  10.228   8.714   1.979 -1.3262  1.3897  0.9911
  937MOL0     H26447  10.082   8.898   2.089  1.4081 -0.4765  0.8807
  937MOL0     H26448  10.127   9.047   2.092 -0.8929  0.6072 -0.7521
  937MOL0     H26449  10.064   8.899   1.826 -3.5913  1.6484 -1.4946
  937MOL0     H26450  10.118   9.068   1.831  3.2471 -1.2061 -0.3149
  937MOL0     H26451   9.929   9.122   1.972 -0.1318  0.2841 -1.1124
  937MOL0     H26452   9.876   8.953   1.963 -0.7017  0.9118  1.5853
  937MOL0     H26453   9.888   9.156   1.732 -0.0034  2.0133  0.9931
  937MOL0     H26454   9.755   9.113   1.832 -0.4496 -1.2246 -0.1240
  937MOL0     H26455   9.672   8.932   1.917 -1.7194  1.7012 -0.7874
  937MOL0     H26456   9.346   8.798   1.988  0.4403 -1.5482 -1.7934
  937MOL0     H26457   9.488   8.699   2.034  2.4592 -0.6843 -0.0657
  937MOL0     H26458   9.498   8.873   2.050  3.2210 -1.3960 -0.8353
  937MOL0     H26459   9.333   8.316   1.637  0.5343  1.0393  1.6833
  937MOL0     H26460   9.140   8.153   1.651  1.1285 -0.3193 -0.5145
  937MOL0     H26461   8.959   8.074   1.517  1.8453 -0.4273  1.2661
  937MOL0     H26462   8.934   8.027   1.684 -2.3989 -2.2919 -0.1744
  937MOL0     H26463   8.710   8.049   1.676  0.8175  0.5501  0.5716
  937MOL0     H26464   8.689   8.104   1.519 -0.4483 -3.4589 -3.2156
  937MOL0     H26465   8.821   7.844   1.612  2.4763  0.9636  0.1897
  937MOL0     H26466   8.834   7.892   1.443  1.2018  1.6162  0.8031
  937MOL0     H26467   8.560   7.860   1.571 -0.3575 -0.0233  0.1417
  937MOL0     H26468   8.608   7.892   1.408  1.0857  0.8971 -1.1046
  937MOL0     H26469   8.620   7.635   1.561 -3.0893  1.3195  0.9452
  937MOL0     H26470   8.735   7.655   1.431  1.4810  1.4534  2.1429
  937MOL0     H26471   8.426   7.706   1.401  0.2016 -0.3476  0.5468
  937MOL0     H26472   8.529   7.700   1.262 -1.9292 -0.3653 -0.8015
  937MOL0     H26473   8.479   7.459   1.432  0.7109 -1.1961  0.9981
  937MOL0     H26474   8.605   7.467   1.319 -1.0114 -0.8519 -0.9539
  937MOL0     H26475   8.399   7.371   1.203 -1.9710  0.5608  0.2094
  937MOL0     H26476   8.443   7.512   1.133  0.2736 -2.2250 -1.4884
  937MOL0     H26477   8.865   8.466   1.675 -1.5802 -1.7167 -3.4050
  937MOL0     H26478   9.053   8.631   1.652  0.2054  0.5427 -0.1958
  937MOL0     H26479   9.512   8.671   1.532 -2.2889  1.7444 -1.8724
  937MOL0     H26480   9.721   8.798   1.521 -0.1583 -1.8219  0.1137
  937MOL0     H26481  10.742   9.143   0.960  2.0678  0.1787 -1.1035
  937MOL0     H26482  10.988   9.168   0.933 -1.1805 -2.3199 -2.1177
  937MOL0     H26483  11.386   9.440   1.208  3.0492 -0.0049  0.0834
  937MOL0     H26484  11.603   9.479   1.140 -0.0039  3.3481 -3.4652
  937MOL0     H26485  11.854   9.476   1.028  0.8400  0.3774  2.2324
  937MOL0     H26486  11.807   9.356   1.156  1.1663 -1.0510  0.1395
  937MOL0     H26487  11.959   9.193   1.053 -0.4314 -0.7256 -2.4949
  937MOL0     H26488  12.057   9.335   1.106  1.4682  1.1207 -2.0010
  937MOL0     H26489  12.085   9.429   0.905  1.6293 -0.1115 -0.4394
  937MOL0     H26490  11.956   9.347   0.826  1.5315  2.2028 -1.3777
  937MOL0     H26491  12.115   9.124   0.832 -2.3513  0.4423 -4.3015
  937MOL0     H26492  12.241   9.228   0.891  1.0549 -0.6818 -2.7592
  937MOL0     H26493  12.220   9.314   0.489  0.5257 -0.8047  1.2059
  937MOL0     H26494  11.583   9.123   0.890  0.3872 -0.2694  0.8708
  937MOL0     H26495  11.368   9.083   0.960 -1.5490  0.1735  1.7511
  938MOL0     O26496   1.704   4.078   3.097  0.2809 -0.0419 -0.2580
  938MOL0     C26497   1.800   4.035   3.163  0.2359 -0.5589  0.6428
  938MOL0     O26498   1.879   3.933   3.129  0.5558  0.1949  0.0281
  938MOL0     C26499   1.867   3.877   3.002  0.3346  0.4167 -0.0845
  938MOL0     C26500   1.749   3.813   2.964  0.1604 -0.4754  0.5744
  938MOL0     C26501   1.749   3.755   2.837  0.4436  0.4161 -0.4000
  938MOL0     C26502   1.860   3.759   2.752 -0.5267 -0.1641 -0.4158
  938MOL0     O26503   1.837   3.692   2.636  0.0398 -0.2092  0.0332
  938MOL0     C26504   1.955   3.637   2.571 -0.2965 -0.0918  0.4229
  938MOL0     C26505   1.921   3.542   2.452 -0.6769 -0.8453  0.4570
  938MOL0     C26506   1.810   3.584   2.360 -0.0785  0.6239  0.0093
  938MOL0     C26507   1.813   3.491   2.231 -0.5459 -0.2699  0.3105
  938MOL0     C26508   1.743   3.547   2.109 -0.7961 -0.5348  0.1178
  938MOL0     C26509   1.597   3.569   2.111  1.2065  0.3596  0.7581
  938MOL0     C26510   1.522   3.443   2.090 -0.3810  0.4875 -0.6111
  938MOL0     C26511   1.370   3.458   2.073  0.1438 -0.3119 -0.4837
  938MOL0     N26512   1.297   3.330   2.065  0.0094 -0.1299  0.6043
  938MOL0     C26513   1.243   3.259   2.172  0.4785 -0.4366  0.4711
  938MOL0     C26514   1.221   3.133   2.123 -0.4293  0.1838  0.0992
  938MOL0     C26515   1.199   3.011   2.214 -0.9362 -0.4558  0.6745
  938MOL0     C26516   1.047   2.982   2.213  0.3128 -0.3362  0.1065
  938MOL0     C26517   0.999   2.943   2.075 -0.1655  0.2478 -0.0520
  938MOL0     C26518   0.848   2.908   2.085 -0.0467 -0.6507 -0.0715
  938MOL0     O26519   0.822   2.851   1.950  0.3879 -0.1000  0.1634
  938MOL0     C26520   0.705   2.788   1.926  0.0490 -0.0581  1.2275
  938MOL0     C26521   0.661   2.785   1.788 -0.8333  0.7285  0.2573
  938MOL0     C26522   0.549   2.715   1.752  0.0777 -0.3146  0.1450
  938MOL0     C26523   0.531   2.696   1.603  1.1287 -0.6637  0.0413
  938MOL0     C26524   0.456   2.664   1.853  0.1234  0.6786 -0.2025
  938MOL0     C26525   0.334   2.594   1.824 -0.1524 -0.2858  1.0973
  938MOL0     O26526   0.254   2.639   1.716  0.9807 -0.0287 -0.3608
  938MOL0     C26527   0.132   2.580   1.697 -0.0971 -0.3780 -0.3489
  938MOL0     C26528   0.094   2.521   1.571  0.2309 -0.4455 -0.0197
  938MOL0     C26529  -0.026   2.455   1.558 -0.1648  0.5407 -0.2105
  938MOL0     C26530  -0.112   2.434   1.658 -0.5211 -0.5514 -0.3979
  938MOL0     O26531  -0.220   2.362   1.625  0.6899  0.1169 -0.3063
  938MOL0     C26532  -0.338   2.370   1.710  0.2401 -0.1577  0.1745
  938MOL0     C26533  -0.463   2.322   1.648 -0.5003 -0.0872 -0.0924
  938MOL0     C26534  -0.573   2.332   1.745 -0.1887 -0.5740  0.8029
  938MOL0     C26535  -0.612   2.469   1.791  0.9701  0.4094 -0.1572
  938MOL0     C26536  -0.745   2.459   1.879  0.2612 -0.4640  0.0335
  938MOL0     C26537  -0.809   2.601   1.884  0.4910  0.4214 -0.6985
  938MOL0     C26538  -0.871   2.646   1.744  1.0368  0.0975  0.0118
  938MOL0     C26539  -0.984   2.550   1.679 -0.5712  0.7605  0.4417
  938MOL0    Cl26540  -1.124   2.549   1.776  0.4862 -0.1732 -0.3737
  938MOL0     C26541  -0.082   2.496   1.780  0.5008  0.3510 -0.2173
  938MOL0     C26542   0.040   2.557   1.804 -0.4765  0.2020  0.5204
  938MOL0     O26543   0.309   2.494   1.893  0.1913 -0.3836 -0.0813
  938MOL0     C26544   0.488   2.690   1.986 -0.1460  0.2191 -0.1701
  938MOL0     C26545   0.615   2.751   2.021  0.3982  0.2496 -0.1877
  938MOL0     N26546   1.251   3.131   1.989 -0.8652  0.0877 -0.2744
  938MOL0     N26547   1.303   3.244   1.954  0.4998  0.1908 -0.5326
  938MOL0     C26548   1.978   3.827   2.795  0.3291 -0.1076 -0.0719
  938MOL0     C26549   1.978   3.887   2.920  0.2180 -0.0691 -0.6753
  938MOL0     C26550   1.838   4.099   3.281 -0.1113 -0.6042 -0.1609
  938MOL0     C26551   1.760   4.202   3.343 -0.3131 -0.0094 -0.4372
  938MOL0     C26552   1.790   4.252   3.474  0.3111 -0.4627  0.4181
  938MOL0     C26553   1.887   4.198   3.555  0.2977  0.9099  0.1863
  938MOL0     O26554   1.906   4.207   3.691  0.6645  0.4189 -0.2123
  938MOL0     C26555   1.842   4.317   3.769 -0.9044  0.1110  0.1907
  938MOL0     C26556   1.910   4.447   3.729  0.5653  0.5430  0.2821
  938MOL0     C26557   1.856   4.561   3.823  0.1296  0.1192 -0.2584
  938MOL0     C26558   1.702   4.580   3.839  0.0972 -0.4569 -0.1670
  938MOL0     C26559   1.675   4.716   3.895 -0.1263  0.4354  0.2419
  938MOL0     C26560   1.649   4.828   3.931 -0.0846  0.2452 -0.6998
  938MOL0     C26561   1.960   4.090   3.498  0.5967  0.3426 -0.1798
  938MOL0     C26562   1.936   4.050   3.363  0.6179  0.8076 -0.5203
  938MOL0     H26563   1.661   3.825   3.026  0.2129  2.2306  0.2456
  938MOL0     H26564   1.661   3.699   2.807  1.3521  0.3729 -3.2787
  938MOL0     H26565   2.014   3.719   2.528  0.0531  0.1519  1.3540
  938MOL0     H26566   2.024   3.595   2.644  1.5825 -0.8003 -1.6391
  938MOL0     H26567   2.015   3.527   2.397  0.4097 -0.2497  2.0682
  938MOL0     H26568   1.896   3.442   2.487 -1.1215 -0.6174  0.7972
  938MOL0     H26569   1.714   3.563   2.410 -0.2959 -1.5461 -1.1805
  938MOL0     H26570   1.821   3.691   2.346  1.6274  0.6015  0.8784
  938MOL0     H26571   1.919   3.480   2.210 -0.5841  0.3482 -0.2386
  938MOL0     H26572   1.777   3.390   2.253 -1.4748  0.5395  3.0167
  938MOL0     H26573   1.799   3.639   2.085  2.2476 -2.5728 -1.2438
  938MOL0     H26574   1.768   3.493   2.017  0.1985  1.1283 -0.6604
  938MOL0     H26575   1.553   3.623   2.196 -3.0450  3.4551 -2.9651
  938MOL0     H26576   1.576   3.642   2.033  1.0120 -0.9243 -0.4274
  938MOL0     H26577   1.547   3.384   2.001 -0.8154 -0.0300 -0.4023
  938MOL0     H26578   1.539   3.383   2.180  0.3768  0.7098 -0.6012
  938MOL0     H26579   1.346   3.525   1.990 -0.0459 -1.9631 -1.8170
  938MOL0     H26580   1.346   3.519   2.161  0.9104  1.0593 -1.1840
  938MOL0     H26581   1.226   3.293   2.274  0.3219  0.7628  0.0706
  938MOL0     H26582   1.252   2.934   2.159 -0.0531  1.1305 -0.7939
  938MOL0     H26583   1.232   3.027   2.317 -1.0491 -2.0975  0.9860
  938MOL0     H26584   1.004   3.078   2.243  0.8797  0.0842 -0.3753
  938MOL0     H26585   1.012   2.900   2.276 -1.1300  0.4212  0.3214
  938MOL0     H26586   1.058   2.859   2.038 -3.3949 -1.0063 -2.8090
  938MOL0     H26587   1.014   3.022   2.001 -0.7366  0.6644  0.2607
  938MOL0     H26588   0.784   2.997   2.086  0.2124 -0.4073 -1.8502
  938MOL0     H26589   0.826   2.836   2.165 -0.2507  0.2030  0.6544
  938MOL0     H26590   0.731   2.821   1.714 -1.3219 -0.8305 -1.0278
  938MOL0     H26591   0.547   2.591   1.577 -2.0225 -1.1593 -0.2230
  938MOL0     H26592   0.426   2.721   1.583  1.7381  1.3140 -0.9332
  938MOL0     H26593   0.578   2.771   1.539 -1.4717  2.9622  2.0327
  938MOL0     H26594   0.159   2.534   1.485  0.7164  0.3540  0.4640
  938MOL0     H26595  -0.062   2.411   1.466  1.1997 -1.7316  0.2422
  938MOL0     H26596  -0.321   2.305   1.796 -0.0318 -0.2934  0.1289
  938MOL0     H26597  -0.362   2.469   1.750 -1.0503  0.7138 -2.4900
  938MOL0     H26598  -0.488   2.385   1.562  2.1013 -1.3144 -1.8837
  938MOL0     H26599  -0.453   2.217   1.618 -3.5422 -1.3671  2.7083
  938MOL0     H26600  -0.536   2.271   1.828  1.7254 -1.2842 -0.5027
  938MOL0     H26601  -0.660   2.279   1.707 -0.2115  1.0182 -1.5224
  938MOL0     H26602  -0.534   2.525   1.844  0.2644  1.9553 -0.7017
  938MOL0     H26603  -0.637   2.523   1.699 -0.2099 -1.5246 -1.0362
  938MOL0     H26604  -0.721   2.412   1.975  1.7078  0.0506 -0.0531
  938MOL0     H26605  -0.813   2.395   1.822  2.5747 -2.5526 -0.5171
  938MOL0     H26606  -0.897   2.592   1.950 -0.5283 -2.9619 -2.2992
  938MOL0     H26607  -0.734   2.671   1.920 -1.4506  1.9002  0.7513
  938MOL0     H26608  -0.783   2.659   1.680  1.2541  0.5200  0.3952
  938MOL0     H26609  -0.919   2.743   1.762 -1.5345 -0.8878 -1.1075
  938MOL0     H26610  -0.953   2.446   1.671  1.8338  1.3872  0.7204
  938MOL0     H26611  -1.009   2.584   1.578  4.7317  2.8033 -0.5431
  938MOL0     H26612  -0.147   2.475   1.865  0.7152 -1.1136 -0.3835
  938MOL0     H26613   0.063   2.601   1.901 -1.9843 -0.9828  1.4615
  938MOL0     H26614   0.421   2.648   2.060 -1.3426  2.7652  0.2739
  938MOL0     H26615   0.638   2.760   2.126  1.7631  1.9798 -0.5789
  938MOL0     H26616   2.059   3.847   2.726  0.9020 -3.6580 -0.6264
  938MOL0     H26617   2.069   3.941   2.941  1.0823 -1.3739 -0.9579
  938MOL0     H26618   1.676   4.245   3.291 -0.2820  0.9750  0.3024
  938MOL0     H26619   1.720   4.329   3.507 -0.0524  0.6217 -2.5110
  938MOL0     H26620   1.734   4.328   3.749 -0.6537  1.2654 -0.6804
  938MOL0     H26621   1.850   4.300   3.876  3.4573 -2.9573 -0.3877
  938MOL0     H26622   1.884   4.463   3.624 -0.9689  1.0648  0.7067
  938MOL0     H26623   2.015   4.420   3.734 -0.2234 -3.0183  0.4601
  938MOL0     H26624   1.902   4.657   3.796 -2.0583  1.3204  0.0503
  938MOL0     H26625   1.903   4.548   3.921 -0.0061  3.3377  0.3532
  938MOL0     H26626   1.648   4.504   3.896  1.3502 -3.4374 -2.6528
  938MOL0     H26627   1.660   4.567   3.739 -3.6618 -2.7511  1.4708
  938MOL0     H26628   1.629   4.932   3.947  0.2951  0.4318 -1.3719
  938MOL0     H26629   2.031   4.033   3.558  2.6574  2.0100 -0.9110
  938MOL0     H26630   1.995   3.967   3.323 -0.2483 -0.2742  0.3737
  939MOL0     O26631   8.589   0.803   7.765  0.0531 -0.0847 -0.2119
  939MOL0     C26632   8.671   0.825   7.854 -0.6304 -0.7338 -0.0290
  939MOL0     O26633   8.637   0.845   7.988  0.4361 -0.3570  0.4058
  939MOL0     C26634   8.511   0.840   8.024  1.1922  0.7526  0.1634
  939MOL0     C26635   8.464   0.940   8.108  0.3267 -0.3294  0.4038
  939MOL0     C26636   8.334   0.932   8.156 -0.0319  0.2021  1.0054
  939MOL0     C26637   8.248   0.822   8.119  0.3047  0.5184  0.1926
  939MOL0     O26638   8.112   0.805   8.147 -0.3961  0.8467 -0.5689
  939MOL0     C26639   8.057   0.907   8.234  1.6656  0.3683  0.3620
  939MOL0     C26640   7.902   0.897   8.223  0.5749  0.2731  0.4121
  939MOL0     C26641   7.832   0.972   8.340 -0.6247 -0.1556 -0.1335
  939MOL0     C26642   7.883   1.120   8.356 -0.3928  0.3459 -0.1465
  939MOL0     C26643   7.802   1.214   8.447 -0.2667  0.8474 -0.5202
  939MOL0     C26644   7.703   1.315   8.383  0.1117  0.1436  0.4875
  939MOL0     C26645   7.588   1.251   8.312  0.8650 -0.4367 -0.4424
  939MOL0     C26646   7.488   1.344   8.254  0.2526 -0.7015  0.2137
  939MOL0     N26647   7.365   1.277   8.203  0.4144 -0.7013  0.5344
  939MOL0     C26648   7.343   1.201   8.095 -0.2147  0.0848 -0.6664
  939MOL0     C26649   7.209   1.181   8.099 -0.0313 -0.3677 -0.5210
  939MOL0     C26650   7.121   1.103   8.006 -1.0430  0.6795  0.9584
  939MOL0     C26651   7.065   0.987   8.075 -0.6017  0.6502 -1.3920
  939MOL0     C26652   6.959   0.925   7.977 -0.2353 -0.3887 -0.2618
  939MOL0     C26653   6.873   0.818   8.046  0.3137  1.1800  0.0416
  939MOL0     O26654   6.766   0.767   7.954 -0.2044 -0.6081 -0.1958
  939MOL0     C26655   6.643   0.826   7.949  0.8756 -0.1205  0.3169
  939MOL0     C26656   6.607   0.946   7.897 -0.2759 -0.6546  0.4762
  939MOL0     C26657   6.476   0.993   7.902  0.0602 -0.6708 -0.6163
  939MOL0     C26658   6.449   1.138   7.851  0.2429 -0.5106  0.0556
  939MOL0     C26659   6.372   0.913   7.957 -0.8958 -1.0130 -0.1220
  939MOL0     C26660   6.237   0.959   7.993 -0.0931 -0.5612 -0.5238
  939MOL0     O26661   6.190   0.904   8.105 -0.5118  0.0015 -1.0877
  939MOL0     C26662   6.055   0.896   8.119 -0.1385  0.0228 -0.5832
  939MOL0     C26663   5.975   0.801   8.055 -0.7974 -0.2683  0.0392
  939MOL0     C26664   5.835   0.814   8.072  0.0528  0.9465  0.1511
  939MOL0     C26665   5.780   0.901   8.159 -0.6222  0.3369  0.6745
  939MOL0     O26666   5.645   0.920   8.174  0.0709  0.6686 -0.3944
  939MOL0     C26667   5.567   0.801   8.190  0.5412 -0.2755  0.3650
  939MOL0     C26668   5.427   0.843   8.255 -0.3000 -0.3187 -0.1099
  939MOL0     C26669   5.456   0.876   8.397  0.6448  0.3091 -0.5306
  939MOL0     C26670   5.491   1.021   8.419  0.1006  1.2362 -0.8068
  939MOL0     C26671   5.600   1.043   8.525  0.3791  0.2195  0.4629
  939MOL0     C26672   5.562   0.980   8.662  1.0673  0.0840 -0.0858
  939MOL0     C26673   5.671   1.024   8.762 -0.4720 -0.2858  0.4807
  939MOL0     C26674   5.652   0.992   8.912 -0.4990  0.7733  1.0374
  939MOL0    Cl26675   5.519   1.093   8.970 -0.0857  0.5386 -0.3339
  939MOL0     C26676   5.859   0.992   8.227 -0.1057  0.4307 -0.3773
  939MOL0     C26677   5.996   0.985   8.209 -0.1427  0.0631 -0.2608
  939MOL0     O26678   6.172   1.014   7.904 -0.4791  0.3759  0.8587
  939MOL0     C26679   6.406   0.784   7.999 -0.4316  1.2280  0.5523
  939MOL0     C26680   6.541   0.744   7.998  0.2041  0.1378  0.0448
  939MOL0     N26681   7.154   1.248   8.211 -1.3308 -0.0619  0.6981
  939MOL0     N26682   7.254   1.298   8.275  0.2099 -0.9452 -0.4537
  939MOL0     C26683   8.304   0.717   8.043  1.0920  0.1669 -0.0406
  939MOL0     C26684   8.423   0.729   7.994 -0.5115 -0.3269  0.1398
  939MOL0     C26685   8.820   0.832   7.821 -0.5674 -0.3813 -0.2380
  939MOL0     C26686   8.869   0.837   7.689 -0.0924  0.5453  0.2244
  939MOL0     C26687   9.005   0.838   7.662 -0.6337  0.3170 -0.0908
  939MOL0     C26688   9.105   0.849   7.757 -0.2319 -0.3602  0.3499
  939MOL0     O26689   9.236   0.850   7.714  0.2799 -0.0527  0.2244
  939MOL0     C26690   9.343   0.853   7.816  1.3365  0.3136 -0.5847
  939MOL0     C26691   9.474   0.869   7.740 -0.2457 -0.5866  0.4791
  939MOL0     C26692   9.597   0.867   7.822 -0.3541 -0.5956 -0.6637
  939MOL0     C26693   9.733   0.854   7.744 -0.3532  0.6813  0.8778
  939MOL0     C26694   9.770   0.972   7.669 -0.0680  0.1599 -0.7939
  939MOL0     C26695   9.791   1.069   7.606 -0.6857 -0.4305  0.3287
  939MOL0     C26696   9.056   0.857   7.886 -0.6255  0.0386  0.0352
  939MOL0     C26697   8.925   0.846   7.919  0.3743  0.4940  0.4845
  939MOL0     H26698   8.533   1.020   8.132  1.3232 -0.9017 -0.4915
  939MOL0     H26699   8.311   1.019   8.217  1.1204  1.3386 -0.1154
  939MOL0     H26700   8.103   0.886   8.331  4.2159 -2.9469 -1.3302
  939MOL0     H26701   8.075   1.009   8.200  0.1922 -0.4431 -3.3258
  939MOL0     H26702   7.870   0.943   8.129 -1.3571 -0.2328  0.7898
  939MOL0     H26703   7.872   0.792   8.219 -1.1516  0.7582 -2.7908
  939MOL0     H26704   7.725   0.976   8.322 -0.5003 -1.5279 -1.3625
  939MOL0     H26705   7.846   0.911   8.431 -0.3228 -1.1232 -0.8114
  939MOL0     H26706   7.989   1.125   8.382  0.6203 -1.9146 -3.2190
  939MOL0     H26707   7.878   1.165   8.257  0.4594 -0.2166 -0.4572
  939MOL0     H26708   7.759   1.170   8.537  0.1491  3.3581  1.0088
  939MOL0     H26709   7.877   1.272   8.501  0.2684 -0.0459 -0.2962
  939MOL0     H26710   7.666   1.388   8.455 -0.7286 -0.4158  0.6372
  939MOL0     H26711   7.757   1.365   8.302 -1.2797 -0.1090 -0.6289
  939MOL0     H26712   7.615   1.183   8.230 -3.2851 -0.7845 -1.7425
  939MOL0     H26713   7.536   1.196   8.392  1.3326 -4.3048 -2.5627
  939MOL0     H26714   7.536   1.398   8.172  0.2719 -0.4036  0.4225
  939MOL0     H26715   7.455   1.410   8.334  2.3305 -2.4467  2.6866
  939MOL0     H26716   7.407   1.157   8.020  1.0476  1.9552 -0.7452
  939MOL0     H26717   7.046   1.162   7.953 -0.2793 -0.5671 -1.7224
  939MOL0     H26718   7.172   1.056   7.921 -1.1253 -0.2693  1.4246
  939MOL0     H26719   7.008   1.005   8.167  0.0601  4.7962 -1.6027
  939MOL0     H26720   7.138   0.911   8.105 -0.8865  1.4507  1.6850
  939MOL0     H26721   6.997   0.891   7.881 -1.4077 -2.3989 -0.0801
  939MOL0     H26722   6.881   1.000   7.960 -0.9197 -1.1629 -0.6438
  939MOL0     H26723   6.820   0.869   8.128  0.9751  4.0345 -1.1916
  939MOL0     H26724   6.934   0.731   8.072 -0.5780 -0.4627 -2.9956
  939MOL0     H26725   6.679   1.003   7.841 -2.1655  2.0159  0.5829
  939MOL0     H26726   6.426   1.135   7.744  0.6082 -1.0061 -0.0118
  939MOL0     H26727   6.370   1.193   7.903  0.2295  1.0236 -1.4784
  939MOL0     H26728   6.537   1.202   7.865  0.9023 -1.9127  3.0395
  939MOL0     H26729   6.026   0.728   7.994  3.3224  1.1557  1.4740
  939MOL0     H26730   5.772   0.753   8.008  1.0840 -0.6251  0.5520
  939MOL0     H26731   5.553   0.757   8.091  2.5497  0.1756 -0.1662
  939MOL0     H26732   5.610   0.720   8.250  2.2946  0.4330  0.1407
  939MOL0     H26733   5.363   0.918   8.209 -2.3396  1.8957  5.4633
  939MOL0     H26734   5.363   0.755   8.256 -1.9210  0.8270  0.0245
  939MOL0     H26735   5.542   0.823   8.439  0.4752  1.4646  1.3852
  939MOL0     H26736   5.370   0.852   8.461  1.4532  1.3443  0.9914
  939MOL0     H26737   5.519   1.076   8.329 -0.2310  2.5760 -0.1212
  939MOL0     H26738   5.402   1.072   8.458 -0.0500  0.8477 -0.6315
  939MOL0     H26739   5.623   1.150   8.534 -0.4653  0.4916 -0.4253
  939MOL0     H26740   5.686   0.983   8.497  1.8740  1.0115  3.0125
  939MOL0     H26741   5.458   1.001   8.690  0.8264 -1.4470  0.2643
  939MOL0     H26742   5.573   0.871   8.666  1.5569  0.0108 -2.3406
  939MOL0     H26743   5.673   1.133   8.754 -1.1806 -0.3326 -0.4230
  939MOL0     H26744   5.772   0.993   8.735  0.1388 -0.1218  2.4313
  939MOL0     H26745   5.738   1.024   8.972 -0.7597  0.1971  1.7472
  939MOL0     H26746   5.640   0.885   8.934 -2.3816  0.8552  0.5797
  939MOL0     H26747   5.818   1.069   8.292 -1.4609 -0.3783 -0.2307
  939MOL0     H26748   6.057   1.055   8.266 -0.2817 -0.3908  0.4622
  939MOL0     H26749   6.333   0.710   8.030 -0.6326  0.9810 -0.4567
  939MOL0     H26750   6.576   0.649   8.039  0.8429 -0.7112 -2.3354
  939MOL0     H26751   8.237   0.635   8.019  0.8519 -0.3580  2.1974
  939MOL0     H26752   8.449   0.652   7.923  3.6588  0.7446  0.2360
  939MOL0     H26753   8.803   0.834   7.603 -1.2185  3.9598  0.8009
  939MOL0     H26754   9.021   0.839   7.555  1.5587  0.0021  0.1956
  939MOL0     H26755   9.326   0.932   7.891 -0.0390 -1.8561  1.5597
  939MOL0     H26756   9.343   0.761   7.874 -3.1783  0.0740 -0.6220
  939MOL0     H26757   9.470   0.964   7.685  0.2566 -0.4680  0.6462
  939MOL0     H26758   9.480   0.781   7.675  0.1152 -0.9085  0.9428
  939MOL0     H26759   9.603   0.781   7.889 -0.5859  1.2508  1.8482
  939MOL0     H26760   9.598   0.958   7.883 -2.3094  0.3689 -1.9412
  939MOL0     H26761   9.714   0.788   7.659  0.9817  0.4082  0.7636
  939MOL0     H26762   9.814   0.822   7.810 -1.1364  0.6997  1.8719
  939MOL0     H26763   9.807   1.147   7.534  2.1990 -1.8314 -0.7257
  939MOL0     H26764   9.128   0.879   7.964 -1.6342  1.8567  0.5240
  939MOL0     H26765   8.894   0.840   8.023 -1.2540  2.4852  0.1688
  940MOL0     O26766   6.333   1.981   8.667  0.3594 -0.3156 -0.8175
  940MOL0     C26767   6.354   1.874   8.728 -0.3265 -0.7299  1.1048
  940MOL0     O26768   6.257   1.787   8.774 -0.2560  0.4138 -0.3289
  940MOL0     C26769   6.124   1.816   8.744  0.6384 -0.7100 -0.1607
  940MOL0     C26770   6.042   1.721   8.687  0.4987 -1.2938 -1.0242
  940MOL0     C26771   5.907   1.739   8.678  0.4711 -0.1806 -1.9083
  940MOL0     C26772   5.858   1.867   8.724  0.4027 -0.5182  0.0120
  940MOL0     O26773   5.726   1.909   8.715 -0.4657  0.1996 -0.3988
  940MOL0     C26774   5.625   1.821   8.657 -0.7115 -0.2246 -0.9088
  940MOL0     C26775   5.498   1.915   8.651  0.0954 -0.6364 -0.4055
  940MOL0     C26776   5.369   1.836   8.653  0.3198 -0.7679 -0.2493
  940MOL0     C26777   5.250   1.930   8.663  0.1973  0.0132  0.0432
  940MOL0     C26778   5.112   1.861   8.679 -0.2828  0.2082 -0.6676
  940MOL0     C26779   4.996   1.956   8.690  0.0877 -0.0451  0.2080
  940MOL0     C26780   4.875   1.887   8.759  0.1141 -0.4861  0.3514
  940MOL0     C26781   4.769   1.985   8.796 -0.7016 -0.3017  0.5695
  940MOL0     N26782   4.713   2.043   8.676  0.0920  0.4047  0.0444
  940MOL0     C26783   4.592   2.011   8.629  0.3993  0.2612 -0.0548
  940MOL0     C26784   4.565   2.109   8.535 -0.7509  0.4073  0.7305
  940MOL0     C26785   4.440   2.117   8.439 -0.2054 -0.2337  0.8497
  940MOL0     C26786   4.301   2.129   8.515 -0.2969 -0.6651 -0.3566
  940MOL0     C26787   4.187   2.160   8.420  0.1968  0.9090  0.4079
  940MOL0     C26788   4.045   2.149   8.473 -0.8217  0.1232 -0.1655
  940MOL0     O26789   3.953   2.174   8.371  0.0608 -0.2420 -0.1417
  940MOL0     C26790   3.822   2.128   8.370 -0.5569  0.2712  0.0632
  940MOL0     C26791   3.757   2.111   8.245 -0.9189  0.0333 -0.0193
  940MOL0     C26792   3.617   2.084   8.243 -0.2146 -0.6663  0.8659
  940MOL0     C26793   3.546   2.091   8.104 -0.0595 -0.5253  0.0741
  940MOL0     C26794   3.548   2.055   8.366 -0.5283 -0.4196  0.3467
  940MOL0     C26795   3.410   2.004   8.368 -0.1605  0.0274  0.3875
  940MOL0     O26796   3.318   2.056   8.292  0.1037 -0.1414 -1.0940
  940MOL0     C26797   3.190   1.999   8.265  0.7125  0.1345  0.1221
  940MOL0     C26798   3.096   2.085   8.215  1.3497 -0.1125  0.7073
  940MOL0     C26799   2.967   2.041   8.199  0.0507  0.1581  0.0990
  940MOL0     C26800   2.921   1.916   8.242 -0.5989 -1.0233 -0.3626
  940MOL0     O26801   2.782   1.888   8.235 -1.3822 -0.2425 -0.1995
  940MOL0     C26802   2.744   1.751   8.267  0.0602  0.3515  1.1374
  940MOL0     C26803   2.593   1.732   8.249  0.1670  0.0718  0.2416
  940MOL0     C26804   2.532   1.593   8.296  0.8746  0.1990 -0.3799
  940MOL0     C26805   2.391   1.576   8.272 -0.0663  0.2513 -0.0791
  940MOL0     C26806   2.332   1.430   8.295 -0.0946 -0.1000  0.2799
  940MOL0     C26807   2.297   1.414   8.447  0.2747 -0.1182  0.4026
  940MOL0     C26808   2.250   1.272   8.483  0.0943 -0.0531 -0.1907
  940MOL0     C26809   2.198   1.243   8.626  0.0613 -0.2213  0.6665
  940MOL0    Cl26810   2.064   1.351   8.661 -0.2203 -0.5179 -0.1233
  940MOL0     C26811   3.017   1.825   8.288  0.1163 -0.3959 -0.4122
  940MOL0     C26812   3.154   1.873   8.303  0.0006  0.1751  0.5335
  940MOL0     O26813   3.383   1.920   8.452 -0.7351 -0.0940  0.1936
  940MOL0     C26814   3.620   2.064   8.484  0.4690 -0.3838  0.2218
  940MOL0     C26815   3.751   2.099   8.487 -0.5058  0.0600  0.0388
  940MOL0     N26816   4.674   2.189   8.533  0.2769  0.5927 -0.4958
  940MOL0     N26817   4.751   2.160   8.634 -0.6805  0.7247  0.2360
  940MOL0     C26818   5.937   1.963   8.781  0.6667  0.2140 -0.1148
  940MOL0     C26819   6.072   1.944   8.794  0.8160 -1.3566 -0.1478
  940MOL0     C26820   6.492   1.828   8.730  0.2470  0.1459 -0.4846
  940MOL0     C26821   6.516   1.696   8.759 -0.5683  1.6568 -0.5512
  940MOL0     C26822   6.642   1.640   8.775  0.0974 -0.4525 -0.6941
  940MOL0     C26823   6.750   1.729   8.757  0.3090  0.1635  0.4321
  940MOL0     O26824   6.880   1.699   8.774 -0.1371 -0.3751  0.0640
  940MOL0     C26825   6.922   1.570   8.827 -0.7089 -0.4653 -0.1135
  940MOL0     C26826   7.069   1.545   8.805  0.3528  0.1810 -0.0035
  940MOL0     C26827   7.159   1.649   8.867 -0.3900 -0.3539  0.2036
  940MOL0     C26828   7.305   1.613   8.814 -0.5399  0.5515  0.1056
  940MOL0     C26829   7.392   1.735   8.839  0.0927  0.8610  0.2257
  940MOL0     C26830   7.473   1.817   8.887 -0.2990  0.6810  0.0778
  940MOL0     C26831   6.728   1.863   8.718  0.4528  0.7081  1.1314
  940MOL0     C26832   6.599   1.910   8.710  0.0761 -0.7624 -0.7759
  940MOL0     H26833   6.083   1.633   8.639  0.3470 -0.0592 -3.5886
  940MOL0     H26834   5.844   1.664   8.631  0.0357 -0.8198 -0.3775
  940MOL0     H26835   5.650   1.791   8.554  1.6826 -0.2215 -0.3829
  940MOL0     H26836   5.604   1.745   8.732  1.8159  0.1521  0.2944
  940MOL0     H26837   5.495   1.986   8.734 -1.5551  0.1816 -1.1192
  940MOL0     H26838   5.493   1.989   8.570  0.1520  1.8611  1.7678
  940MOL0     H26839   5.358   1.776   8.562 -3.6187 -3.9629  2.0202
  940MOL0     H26840   5.369   1.767   8.737 -3.5380 -0.6335  0.0175
  940MOL0     H26841   5.265   2.003   8.743  1.1983  1.1692 -1.1531
  940MOL0     H26842   5.241   1.985   8.569  1.4274 -2.0360 -1.3631
  940MOL0     H26843   5.091   1.792   8.596 -0.3684 -1.4364  0.6648
  940MOL0     H26844   5.111   1.794   8.766  3.8019 -2.0942 -2.0703
  940MOL0     H26845   5.028   2.046   8.744  3.1192 -0.0651 -1.3331
  940MOL0     H26846   4.962   1.974   8.587 -0.1023 -1.1750  0.0592
  940MOL0     H26847   4.833   1.808   8.696  2.6491 -1.4306 -0.2961
  940MOL0     H26848   4.902   1.838   8.853 -1.1878 -2.9376 -0.4552
  940MOL0     H26849   4.808   2.066   8.858  0.4252 -0.8648  0.6249
  940MOL0     H26850   4.687   1.938   8.852 -0.0967 -1.8112  0.2534
  940MOL0     H26851   4.530   1.925   8.649  1.6612 -1.0427 -1.4823
  940MOL0     H26852   4.454   2.194   8.363 -1.0271 -0.3866  0.5393
  940MOL0     H26853   4.431   2.023   8.385 -3.2047  0.1484  0.4874
  940MOL0     H26854   4.311   2.214   8.583 -0.2365  1.4292 -2.8250
  940MOL0     H26855   4.277   2.040   8.574  0.5090  0.0883  1.1710
  940MOL0     H26856   4.185   2.073   8.353 -2.6778  0.4748  0.8937
  940MOL0     H26857   4.215   2.252   8.369  0.0673  0.8307  0.1913
  940MOL0     H26858   4.030   2.219   8.557 -0.5566 -1.7387  1.5126
  940MOL0     H26859   4.033   2.052   8.523  2.8177 -0.2462  0.2671
  940MOL0     H26860   3.813   2.124   8.153 -0.9074  3.8778  0.3530
  940MOL0     H26861   3.617   2.095   8.021  0.5152  0.6929  0.6125
  940MOL0     H26862   3.485   2.001   8.087  0.3885 -0.3123 -3.6248
  940MOL0     H26863   3.487   2.183   8.105  1.8054  0.7315 -0.3794
  940MOL0     H26864   3.113   2.181   8.167 -1.7387 -0.2645 -0.9265
  940MOL0     H26865   2.892   2.101   8.147  0.2043 -0.6955 -1.1407
  940MOL0     H26866   2.803   1.676   8.213 -0.5359 -3.0238  4.6775
  940MOL0     H26867   2.772   1.726   8.370 -1.5852 -3.0928  0.8973
  940MOL0     H26868   2.537   1.802   8.312  0.1587  0.0218  0.2893
  940MOL0     H26869   2.569   1.757   8.146  0.8754  1.0460  0.2983
  940MOL0     H26870   2.545   1.586   8.405 -0.5365 -0.4560 -0.2254
  940MOL0     H26871   2.590   1.516   8.245  1.5968 -0.4688  1.3603
  940MOL0     H26872   2.337   1.652   8.328 -0.6117  1.0777 -1.6508
  940MOL0     H26873   2.368   1.607   8.169 -0.5626 -0.4371 -0.1931
  940MOL0     H26874   2.403   1.352   8.268 -0.1924 -0.3021  0.6043
  940MOL0     H26875   2.234   1.417   8.249 -0.7809  0.8443  1.3833
  940MOL0     H26876   2.388   1.436   8.504  1.4138 -1.9383 -0.6156
  940MOL0     H26877   2.216   1.486   8.461 -0.3789 -0.3540 -1.8613
  940MOL0     H26878   2.333   1.205   8.458 -1.1242 -1.8358  0.3813
  940MOL0     H26879   2.172   1.236   8.416 -4.7937  2.1146  3.7389
  940MOL0     H26880   2.278   1.255   8.700 -0.3450 -2.1266  1.4818
  940MOL0     H26881   2.158   1.142   8.637  0.1184 -0.3536 -0.2533
  940MOL0     H26882   2.998   1.721   8.312 -3.2685  0.4186  0.8835
  940MOL0     H26883   3.224   1.796   8.334 -1.9150 -1.4224  1.0995
  940MOL0     H26884   3.562   2.058   8.575  1.7406 -0.7984  1.0344
  940MOL0     H26885   3.798   2.117   8.584  0.2532 -0.7955 -0.1534
  940MOL0     H26886   5.889   2.057   8.809  0.2844  1.1814 -3.4599
  940MOL0     H26887   6.133   2.025   8.832 -1.3601 -0.1020  0.8519
  940MOL0     H26888   6.438   1.621   8.765 -0.1761  1.0830 -2.2546
  940MOL0     H26889   6.657   1.542   8.818 -0.6329 -0.6066 -0.7668
  940MOL0     H26890   6.901   1.566   8.934  1.7125  2.8033  0.6300
  940MOL0     H26891   6.867   1.489   8.778 -0.7326 -0.1252 -0.6603
  940MOL0     H26892   7.083   1.549   8.696 -0.4288 -0.7776 -0.1559
  940MOL0     H26893   7.098   1.448   8.844  0.8397  0.8069  1.2413
  940MOL0     H26894   7.161   1.639   8.976  0.8613  0.7271  0.3137
  940MOL0     H26895   7.136   1.751   8.833 -3.3350 -0.9611  0.1118
  940MOL0     H26896   7.309   1.595   8.706 -2.5636  0.7426 -0.0391
  940MOL0     H26897   7.347   1.525   8.865  1.4943  0.6976 -1.1869
  940MOL0     H26898   7.547   1.878   8.934  2.3772 -1.7852 -0.6262
  940MOL0     H26899   6.809   1.934   8.715  0.7117  0.4690 -2.7510
  940MOL0     H26900   6.589   2.017   8.691  0.3264 -0.2871  1.5445
  941MOL0     O26901   2.808   6.453   3.121  0.0751 -1.3703  0.3903
  941MOL0     C26902   2.791   6.576   3.110 -0.2075 -0.1250 -0.3455
  941MOL0     O26903   2.679   6.642   3.143  0.3855  0.1936 -0.1246
  941MOL0     C26904   2.566   6.580   3.201  0.1205 -0.1293 -0.7674
  941MOL0     C26905   2.490   6.646   3.304 -0.0058  0.2149 -0.0128
  941MOL0     C26906   2.389   6.576   3.363 -0.2861  0.0613 -0.2647
  941MOL0     C26907   2.342   6.455   3.326  0.0571 -0.0788  0.2415
  941MOL0     O26908   2.221   6.407   3.376  0.2186  0.4265  0.2842
  941MOL0     C26909   2.213   6.261   3.398  0.2350  0.0438 -0.0460
  941MOL0     C26910   2.131   6.211   3.518 -0.3470 -0.1301 -0.3699
  941MOL0     C26911   1.991   6.263   3.525 -0.6897  0.3970  0.5401
  941MOL0     C26912   1.904   6.184   3.617 -0.1390  0.1132  0.1941
  941MOL0     C26913   1.771   6.245   3.648  0.1453  0.1349  0.1346
  941MOL0     C26914   1.683   6.266   3.524  0.3554 -0.0022 -0.6175
  941MOL0     C26915   1.556   6.337   3.579 -0.0908 -0.7763  0.0429
  941MOL0     C26916   1.473   6.398   3.468  0.2604 -0.3292 -0.1226
  941MOL0     N26917   1.402   6.296   3.392  0.5440 -0.4472  0.3953
  941MOL0     C26918   1.307   6.202   3.431  0.3199 -0.0474  0.0068
  941MOL0     C26919   1.250   6.158   3.311 -0.1996  0.0424 -0.3179
  941MOL0     C26920   1.130   6.062   3.313  0.2791  0.5740  0.0187
  941MOL0     C26921   0.998   6.132   3.278  0.0328 -0.1447 -0.1615
  941MOL0     C26922   0.978   6.150   3.124 -0.1178 -0.2508 -0.1300
  941MOL0     C26923   0.844   6.221   3.088 -0.6553  0.6454  0.4283
  941MOL0     O26924   0.735   6.129   3.116 -0.5230 -0.0904  0.6481
  941MOL0     C26925   0.613   6.166   3.067  0.6205 -0.4254 -0.5022
  941MOL0     C26926   0.584   6.297   3.021  0.2054 -0.5508 -0.4541
  941MOL0     C26927   0.457   6.338   2.980 -0.1532  0.3067 -0.3087
  941MOL0     C26928   0.449   6.483   2.962 -0.1585 -0.1842  1.2736
  941MOL0     C26929   0.345   6.239   2.973 -0.2948  0.1657  0.1905
  941MOL0     C26930   0.204   6.274   2.929 -0.2897  0.3541  0.0780
  941MOL0     O26931   0.109   6.179   2.908  0.2836  0.4732  0.0300
  941MOL0     C26932  -0.021   6.219   2.900  0.8732 -0.1611 -0.1228
  941MOL0     C26933  -0.085   6.289   3.000  0.1117  0.0906 -0.4250
  941MOL0     C26934  -0.223   6.322   2.999  0.2453 -0.1574  0.1570
  941MOL0     C26935  -0.301   6.294   2.884 -0.1054  0.9702  0.2006
  941MOL0     O26936  -0.440   6.304   2.887  0.6121  0.1048  0.1233
  941MOL0     C26937  -0.501   6.199   2.970  0.0567  0.1144 -0.1045
  941MOL0     C26938  -0.645   6.226   3.006  0.2096 -0.0237  0.3547
  941MOL0     C26939  -0.649   6.358   3.098 -0.3663  0.7288  0.6020
  941MOL0     C26940  -0.788   6.419   3.088  0.8735 -0.6112  1.4447
  941MOL0     C26941  -0.841   6.475   2.944 -1.0683  0.4339 -0.4716
  941MOL0     C26942  -0.991   6.513   2.962 -0.8136 -0.5044 -0.7747
  941MOL0     C26943  -1.058   6.605   2.853  0.1256  0.2385 -0.0374
  941MOL0     C26944  -1.210   6.597   2.884 -0.3040 -0.3443  0.0090
  941MOL0    Cl26945  -1.254   6.663   3.047 -0.1075  0.0285  0.4035
  941MOL0     C26946  -0.235   6.213   2.786 -0.5635  0.0752  0.1701
  941MOL0     C26947  -0.102   6.177   2.795 -0.5691  0.0276  0.1883
  941MOL0     O26948   0.176   6.395   2.922  0.1418  0.0277 -0.3230
  941MOL0     C26949   0.369   6.109   3.008 -0.3331  0.5785 -0.2458
  941MOL0     C26950   0.505   6.078   3.051 -0.3078  0.1669 -0.1378
  941MOL0     N26951   1.318   6.210   3.210  0.4571 -0.2569 -0.0879
  941MOL0     N26952   1.402   6.301   3.252 -1.0366 -0.0678 -0.0253
  941MOL0     C26953   2.410   6.389   3.221  0.7456  0.6453 -0.1027
  941MOL0     C26954   2.520   6.455   3.159  0.0690  0.2323  0.3921
  941MOL0     C26955   2.907   6.648   3.039 -0.1468 -0.8551  0.3840
  941MOL0     C26956   2.881   6.775   2.989 -0.4707 -1.3767  0.1544
  941MOL0     C26957   2.992   6.850   2.935 -0.0123 -0.1841 -0.4731
  941MOL0     C26958   3.118   6.786   2.905  0.2617 -0.8615  0.2655
  941MOL0     O26959   3.208   6.865   2.833  0.2977  0.6307 -0.7570
  941MOL0     C26960   3.310   6.803   2.752 -0.2526  0.0299  0.0777
  941MOL0     C26961   3.354   6.897   2.640  0.2098  0.6075  0.2139
  941MOL0     C26962   3.473   6.834   2.560  0.0933 -0.0133 -0.3855
  941MOL0     C26963   3.541   6.951   2.486 -0.3703  0.2204 -0.0367
  941MOL0     C26964   3.672   6.913   2.428  0.5341  0.0011 -0.4381
  941MOL0     C26965   3.770   6.858   2.379  0.0917 -0.8503 -0.5064
  941MOL0     C26966   3.130   6.654   2.934  0.7674 -0.6612 -0.2036
  941MOL0     C26967   3.029   6.585   3.001  0.9467  0.0799 -0.1561
  941MOL0     H26968   2.512   6.743   3.347 -3.3348  0.4879  1.4024
  941MOL0     H26969   2.345   6.636   3.443 -1.8902 -1.7142  0.2622
  941MOL0     H26970   2.158   6.223   3.311 -2.0277  1.2574  0.7803
  941MOL0     H26971   2.315   6.223   3.390  1.3247  2.3523  1.7214
  941MOL0     H26972   2.121   6.102   3.521 -3.7775  0.0958  0.0041
  941MOL0     H26973   2.182   6.243   3.610 -0.6422  2.2318 -0.9752
  941MOL0     H26974   1.997   6.365   3.565  0.9617  0.2291  0.7834
  941MOL0     H26975   1.947   6.265   3.425 -0.7912 -0.3606  0.5682
  941MOL0     H26976   1.885   6.089   3.565 -0.3124 -0.0094  0.4773
  941MOL0     H26977   1.951   6.176   3.716 -0.4733  1.1296  0.4475
  941MOL0     H26978   1.720   6.171   3.710 -3.9508  0.5013 -2.4102
  941MOL0     H26979   1.787   6.336   3.706 -2.7245  0.4266  0.5881
  941MOL0     H26980   1.737   6.331   3.453  3.2088 -1.6903 -0.1316
  941MOL0     H26981   1.654   6.177   3.467 -2.4166  1.2711 -1.3799
  941MOL0     H26982   1.498   6.269   3.642  0.6059  1.1669  2.9998
  941MOL0     H26983   1.595   6.415   3.646 -0.7290 -0.9725  0.6569
  941MOL0     H26984   1.532   6.463   3.402  0.2354 -0.4931 -0.3060
  941MOL0     H26985   1.396   6.461   3.515  0.5474  0.8004 -1.1266
  941MOL0     H26986   1.270   6.179   3.530  2.5093  1.6755  1.3058
  941MOL0     H26987   1.149   5.985   3.238  3.2652  2.6081 -1.5070
  941MOL0     H26988   1.125   6.016   3.412 -0.8055 -0.7215 -0.6039
  941MOL0     H26989   0.993   6.227   3.331  1.0968 -1.8525  3.2679
  941MOL0     H26990   0.914   6.065   3.299  0.5897 -1.8498 -2.8413
  941MOL0     H26991   0.970   6.053   3.075 -3.3885  0.0435 -0.4126
  941MOL0     H26992   1.065   6.206   3.088 -0.7596  0.8225 -0.0556
  941MOL0     H26993   0.848   6.251   2.983 -1.6345  1.0014  0.4816
  941MOL0     H26994   0.834   6.315   3.143 -1.1375  0.1139  1.2600
  941MOL0     H26995   0.662   6.371   3.008  0.6484 -0.8455  0.4532
  941MOL0     H26996   0.370   6.527   3.024 -0.1442  2.8551 -0.6263
  941MOL0     H26997   0.542   6.539   2.973  0.4855 -0.9083 -0.1302
  941MOL0     H26998   0.414   6.498   2.859 -0.5306 -2.1646  1.0627
  941MOL0     H26999  -0.022   6.330   3.079  2.5010 -1.0299 -1.6323
  941MOL0     H27000  -0.285   6.369   3.075 -0.9989  0.1959 -1.0391
  941MOL0     H27001  -0.497   6.107   2.911 -1.0675 -1.0454  1.5502
  941MOL0     H27002  -0.440   6.190   3.060 -0.5666  1.1875  0.4514
  941MOL0     H27003  -0.708   6.228   2.917 -1.4686 -2.8582  1.3482
  941MOL0     H27004  -0.686   6.146   3.068  1.4005 -1.4059 -0.5869
  941MOL0     H27005  -0.571   6.430   3.071 -1.3254  1.3918 -0.4699
  941MOL0     H27006  -0.627   6.318   3.198  1.7429 -0.5911 -0.3119
  941MOL0     H27007  -0.852   6.335   3.114  1.2334 -0.9768  1.1680
  941MOL0     H27008  -0.802   6.500   3.160  0.0857  1.4988 -0.9198
  941MOL0     H27009  -0.826   6.403   2.863 -2.0217  0.0482 -0.3153
  941MOL0     H27010  -0.785   6.567   2.922 -3.2240  1.7246 -0.8647
  941MOL0     H27011  -1.054   6.424   2.973 -2.3646  0.3589 -2.3370
  941MOL0     H27012  -0.997   6.566   3.058  1.6177 -1.0115 -0.2613
  941MOL0     H27013  -1.041   6.565   2.753  0.3148  1.7919 -0.6547
  941MOL0     H27014  -1.020   6.708   2.861  0.3918  0.1853 -0.6136
  941MOL0     H27015  -1.232   6.490   2.888  0.2593 -0.4226  1.8490
  941MOL0     H27016  -1.272   6.631   2.801  1.6098 -1.3780 -1.9465
  941MOL0     H27017  -0.291   6.194   2.695 -2.2354  0.0638  1.1619
  941MOL0     H27018  -0.055   6.134   2.708 -1.3802 -1.3932  0.4160
  941MOL0     H27019   0.290   6.035   3.004 -1.6184  1.8907  0.0220
  941MOL0     H27020   0.524   5.973   3.074  1.0779  0.4196 -0.0406
  941MOL0     H27021   2.377   6.292   3.185  1.9894  0.3533 -0.5077
  941MOL0     H27022   2.558   6.396   3.077 -0.1484 -1.3734  1.3959
  941MOL0     H27023   2.786   6.827   2.985  0.4370  0.4687  1.2626
  941MOL0     H27024   2.980   6.952   2.900  1.0899 -0.6958 -2.4753
  941MOL0     H27025   3.398   6.772   2.809 -1.2596 -1.4048  0.9041
  941MOL0     H27026   3.263   6.716   2.704  0.8007 -0.4000 -0.2070
  941MOL0     H27027   3.383   6.992   2.687  2.1371  0.7167 -1.0793
  941MOL0     H27028   3.267   6.915   2.576 -1.3936 -2.1511  1.4344
  941MOL0     H27029   3.434   6.757   2.493 -1.1269 -0.1287  0.4234
  941MOL0     H27030   3.549   6.796   2.630 -0.6919 -2.1920 -0.6457
  941MOL0     H27031   3.547   7.033   2.559 -0.1701  0.0382  0.1541
  941MOL0     H27032   3.469   6.989   2.413 -1.4843 -0.3250  0.7567
  941MOL0     H27033   3.853   6.813   2.330  0.4075 -0.6982 -0.1224
  941MOL0     H27034   3.226   6.611   2.908  0.4622  0.2039 -3.0797
  941MOL0     H27035   3.044   6.480   3.025 -2.2756 -0.7603 -1.3793
  942MOL0     O27036   5.451   6.487   5.677  0.5192 -0.2032 -0.5535
  942MOL0     C27037   5.512   6.389   5.714 -0.4986  0.6247 -0.6909
  942MOL0     O27038   5.479   6.311   5.819 -0.8293 -0.4169  0.0676
  942MOL0     C27039   5.396   6.356   5.916 -0.1376  0.3427  0.1874
  942MOL0     C27040   5.263   6.398   5.890 -0.3714 -0.0724 -0.5085
  942MOL0     C27041   5.188   6.451   5.994 -0.0505 -0.1987 -0.0669
  942MOL0     C27042   5.237   6.455   6.126 -0.4378 -0.6631 -0.4627
  942MOL0     O27043   5.165   6.507   6.231 -0.4539 -0.7570  0.1965
  942MOL0     C27044   5.170   6.419   6.347  0.9902 -0.6712 -0.4873
  942MOL0     C27045   5.027   6.422   6.415  0.6577  0.6327 -0.2492
  942MOL0     C27046   4.925   6.347   6.331 -0.2801  0.8774 -0.0554
  942MOL0     C27047   4.804   6.297   6.412  0.3424  0.4038 -0.4806
  942MOL0     C27048   4.727   6.427   6.465 -0.4714 -0.2575 -0.0985
  942MOL0     C27049   4.592   6.372   6.516 -0.1403  0.2663 -0.6701
  942MOL0     C27050   4.512   6.483   6.577  0.3569  0.4970 -0.0991
  942MOL0     C27051   4.402   6.427   6.668 -0.3653 -0.4396  0.9970
  942MOL0     N27052   4.328   6.312   6.612  0.7856  0.1320  0.5850
  942MOL0     C27053   4.236   6.322   6.510  0.5961 -0.0035 -0.1681
  942MOL0     C27054   4.193   6.204   6.480 -0.8511  0.5935 -0.2327
  942MOL0     C27055   4.090   6.161   6.383  0.4251 -0.1263 -0.1586
  942MOL0     C27056   3.952   6.236   6.412  0.0918  0.1488 -0.8352
  942MOL0     C27057   3.891   6.223   6.552  0.4903 -0.3794 -0.8886
  942MOL0     C27058   3.767   6.303   6.563 -0.5982 -0.0246 -0.5806
  942MOL0     O27059   3.714   6.289   6.692  0.5218 -0.0841 -0.0004
  942MOL0     C27060   3.618   6.374   6.730 -0.0315 -0.0852 -0.8647
  942MOL0     C27061   3.596   6.497   6.674  0.5717  0.0332 -0.4455
  942MOL0     C27062   3.479   6.568   6.702  0.5457 -0.5257 -0.6320
  942MOL0     C27063   3.453   6.702   6.634 -0.1325  0.2948  0.2616
  942MOL0     C27064   3.386   6.514   6.793  0.6466  0.6890 -1.0660
  942MOL0     C27065   3.256   6.572   6.853 -0.0469 -0.2464  0.1265
  942MOL0     O27066   3.179   6.472   6.911 -0.5197  0.0189 -0.9375
  942MOL0     C27067   3.051   6.503   6.946 -0.7506  0.3456  0.0726
  942MOL0     C27068   3.014   6.460   7.078  0.3940 -0.0419 -0.9184
  942MOL0     C27069   2.888   6.489   7.131 -0.8338  1.4579  0.4049
  942MOL0     C27070   2.797   6.556   7.057 -0.2894 -0.0228  1.3655
  942MOL0     O27071   2.669   6.588   7.099  0.0709 -0.0743  0.1694
  942MOL0     C27072   2.579   6.490   7.154  0.1643 -0.9362 -0.4762
  942MOL0     C27073   2.431   6.538   7.166 -0.5753 -0.6796  0.5438
  942MOL0     C27074   2.346   6.431   7.237 -0.3935  0.5768  0.0089
  942MOL0     C27075   2.389   6.408   7.384  0.5642  0.5959 -0.1243
  942MOL0     C27076   2.300   6.311   7.470  0.7579  0.7194  1.0586
  942MOL0     C27077   2.319   6.327   7.624 -0.4901 -0.1574  0.9602
  942MOL0     C27078   2.192   6.270   7.693  0.1197 -0.9654 -0.1934
  942MOL0     C27079   2.200   6.261   7.842  0.3591  0.0167 -0.9007
  942MOL0    Cl27080   2.244   6.426   7.911  0.2755  0.3251  0.1196
  942MOL0     C27081   2.837   6.601   6.929  1.0878  0.1845  0.1548
  942MOL0     C27082   2.961   6.574   6.870 -0.0391  0.0256  0.0615
  942MOL0     O27083   3.230   6.693   6.854  0.3131  0.3397 -0.1359
  942MOL0     C27084   3.410   6.380   6.838 -0.4329 -0.1819  0.1909
  942MOL0     C27085   3.515   6.321   6.808  0.0636  0.4041  0.5609
  942MOL0     N27086   4.254   6.114   6.565 -0.7685 -0.1513 -0.4754
  942MOL0     N27087   4.334   6.179   6.645  0.2249 -0.0548  0.5795
  942MOL0     C27088   5.375   6.422   6.151  0.3378 -0.2529 -0.2326
  942MOL0     C27089   5.453   6.376   6.044  0.6528  0.1719 -0.4371
  942MOL0     C27090   5.630   6.349   5.633  0.3391  0.3205 -0.5733
  942MOL0     C27091   5.706   6.234   5.663  0.1367  0.2499 -0.5822
  942MOL0     C27092   5.817   6.195   5.585 -0.3131 -0.6667  0.2401
  942MOL0     C27093   5.864   6.278   5.482  0.0338 -0.0003 -0.0604
  942MOL0     O27094   5.968   6.260   5.396  0.7535 -0.6003 -0.1575
  942MOL0     C27095   6.035   6.133   5.391  0.8011  0.4690  0.6671
  942MOL0     C27096   6.124   6.116   5.267  0.6627  0.2469  0.9038
  942MOL0     C27097   6.260   6.172   5.273 -0.7766  0.0341 -0.1426
  942MOL0     C27098   6.289   6.279   5.164 -0.4518  0.4709  0.2247
  942MOL0     C27099   6.209   6.401   5.183 -1.1069  1.0476  0.7328
  942MOL0     C27100   6.120   6.482   5.199 -0.1090 -0.5014 -0.4301
  942MOL0     C27101   5.784   6.393   5.463 -0.6595 -0.2079  1.0777
  942MOL0     C27102   5.665   6.430   5.527 -0.4795  0.1222  0.2893
  942MOL0     H27103   5.216   6.396   5.793 -0.1267  2.9988 -0.8161
  942MOL0     H27104   5.084   6.478   5.978 -0.8719 -1.8140  2.0953
  942MOL0     H27105   5.198   6.314   6.342  2.6930 -0.5903  3.4021
  942MOL0     H27106   5.252   6.460   6.408  1.2143 -0.4296 -0.9445
  942MOL0     H27107   5.050   6.378   6.512 -0.1573 -0.2189 -0.4430
  942MOL0     H27108   4.993   6.524   6.436 -0.0978  0.5954 -1.2228
  942MOL0     H27109   4.904   6.409   6.243  1.1171  0.0112 -1.0504
  942MOL0     H27110   4.979   6.259   6.293 -0.8990  0.5467 -0.1735
  942MOL0     H27111   4.735   6.236   6.353 -0.0609  0.9835 -0.6253
  942MOL0     H27112   4.828   6.234   6.498 -1.0683 -1.6822 -1.5366
  942MOL0     H27113   4.778   6.484   6.543 -0.1045  1.1147 -1.2761
  942MOL0     H27114   4.717   6.488   6.374  0.3520  0.5099  0.3070
  942MOL0     H27115   4.545   6.314   6.436  1.3415 -0.6410 -0.9322
  942MOL0     H27116   4.595   6.299   6.597 -2.3938 -0.7839 -1.4534
  942MOL0     H27117   4.567   6.547   6.646 -0.1225 -1.4692  2.2483
  942MOL0     H27118   4.459   6.540   6.501 -4.1350  0.4485  2.6248
  942MOL0     H27119   4.323   6.501   6.688 -2.3516 -2.3894  0.6974
  942MOL0     H27120   4.451   6.398   6.761  0.8826 -0.4784  0.3487
  942MOL0     H27121   4.212   6.420   6.470  0.8397 -0.9200 -2.7561
  942MOL0     H27122   4.118   6.186   6.280  2.6984  2.6951  1.0194
  942MOL0     H27123   4.086   6.052   6.395  0.9927  0.1225  3.1265
  942MOL0     H27124   3.870   6.198   6.349 -2.3496  0.6850  1.8213
  942MOL0     H27125   3.987   6.339   6.399  0.5799  0.5805  2.8587
  942MOL0     H27126   3.957   6.249   6.635  1.2790 -1.3677 -1.1943
  942MOL0     H27127   3.861   6.121   6.579  2.3663 -0.2368  2.2059
  942MOL0     H27128   3.695   6.261   6.493 -0.8802 -0.5396  0.0052
  942MOL0     H27129   3.788   6.407   6.537  0.5745 -0.0389  0.2263
  942MOL0     H27130   3.660   6.549   6.604  2.8792 -0.3134  1.2930
  942MOL0     H27131   3.367   6.685   6.569 -0.7121  0.8718  0.8642
  942MOL0     H27132   3.435   6.789   6.697 -1.9377  1.9593 -2.3332
  942MOL0     H27133   3.540   6.723   6.570  1.1956 -1.1191  1.5209
  942MOL0     H27134   3.095   6.421   7.139 -1.7233 -0.1624  2.0201
  942MOL0     H27135   2.890   6.453   7.233  1.5738  1.3451  0.3791
  942MOL0     H27136   2.581   6.408   7.082 -1.8753  0.9344 -2.8267
  942MOL0     H27137   2.617   6.475   7.255  0.2931  1.8329 -0.0504
  942MOL0     H27138   2.425   6.634   7.219 -0.8412 -0.5213  0.2304
  942MOL0     H27139   2.396   6.559   7.065  0.2366 -0.3859  0.3193
  942MOL0     H27140   2.341   6.342   7.174 -2.2974  0.0132  0.8795
  942MOL0     H27141   2.242   6.463   7.227  0.2137  1.8259 -5.2397
  942MOL0     H27142   2.493   6.391   7.412  0.3837  0.0616  0.2531
  942MOL0     H27143   2.364   6.507   7.422  1.5994  0.4923  0.8884
  942MOL0     H27144   2.322   6.205   7.453 -0.0527  0.9570 -1.9664
  942MOL0     H27145   2.195   6.325   7.447 -0.0053 -2.4022  2.0926
  942MOL0     H27146   2.412   6.274   7.644 -0.9249 -1.4578 -0.2698
  942MOL0     H27147   2.326   6.434   7.641  0.5254  0.4321 -2.3510
  942MOL0     H27148   2.175   6.171   7.652  1.5142 -0.6600 -1.6255
  942MOL0     H27149   2.111   6.338   7.666  0.7481 -0.2640 -0.3769
  942MOL0     H27150   2.274   6.184   7.869 -2.6167 -2.1170  1.9666
  942MOL0     H27151   2.110   6.222   7.889  1.2516  1.2917  2.1156
  942MOL0     H27152   2.767   6.669   6.881  0.3961 -1.5189 -1.3670
  942MOL0     H27153   2.976   6.612   6.770  0.0180 -2.1039 -0.7693
  942MOL0     H27154   3.345   6.324   6.905 -2.4983  1.8754  0.0561
  942MOL0     H27155   3.532   6.215   6.825  1.1701 -0.2830 -3.6334
  942MOL0     H27156   5.418   6.421   6.251  0.1239 -1.6565 -0.1369
  942MOL0     H27157   5.561   6.371   6.058  0.3214 -1.6461  2.0522
  942MOL0     H27158   5.676   6.157   5.733 -3.2859  2.7459  1.0671
  942MOL0     H27159   5.883   6.116   5.620  0.6539 -0.7364 -1.6055
  942MOL0     H27160   6.098   6.112   5.478  1.0126 -0.0567  0.3935
  942MOL0     H27161   5.960   6.054   5.386 -1.7923  2.8051  0.4188
  942MOL0     H27162   6.074   6.162   5.182 -1.3298 -2.0035  0.7467
  942MOL0     H27163   6.137   6.010   5.240 -1.7128  0.2631 -0.6186
  942MOL0     H27164   6.334   6.093   5.253 -1.6418 -0.3461 -2.0267
  942MOL0     H27165   6.282   6.220   5.368  0.0268  0.7542 -0.6744
  942MOL0     H27166   6.257   6.239   5.067 -1.3838  0.4555  0.5290
  942MOL0     H27167   6.397   6.293   5.158 -0.4113 -0.0966 -0.6248
  942MOL0     H27168   6.040   6.548   5.225  0.8363 -0.3291  2.3771
  942MOL0     H27169   5.819   6.464   5.389  2.0413 -2.1011  0.3824
  942MOL0     H27170   5.601   6.514   5.503 -2.0918 -1.6362 -2.2345
  943MOL0     O27171   9.892   9.234   6.262 -0.1453  0.6579 -0.6809
  943MOL0     C27172   9.961   9.216   6.358  0.0213 -0.6404 -0.1049
  943MOL0     O27173  10.070   9.126   6.365 -0.1143 -0.3393 -0.4834
  943MOL0     C27174  10.120   9.060   6.259 -0.3994 -0.8541 -0.5532
  943MOL0     C27175  10.129   9.121   6.135 -0.1484  0.5871  0.0945
  943MOL0     C27176  10.174   9.043   6.026 -0.2044  0.0118  0.9836
  943MOL0     C27177  10.203   8.910   6.044  0.4905 -0.2477 -0.6819
  943MOL0     O27178  10.223   8.824   5.942 -0.2349 -0.3519  0.1775
  943MOL0     C27179  10.152   8.843   5.822  0.0839 -0.5352  0.2397
  943MOL0     C27180  10.022   8.771   5.816 -0.2220  0.4322 -0.6800
  943MOL0     C27181   9.936   8.792   5.695  0.4792 -0.4816  0.3552
  943MOL0     C27182   9.802   8.730   5.721 -0.1185  0.4994 -0.5720
  943MOL0     C27183   9.687   8.783   5.627 -0.5389  0.6387  0.3638
  943MOL0     C27184   9.588   8.678   5.583  1.1117 -0.0239  0.7223
  943MOL0     C27185   9.492   8.658   5.711  0.0345 -0.6332 -0.3628
  943MOL0     C27186   9.366   8.569   5.684  0.5241 -0.1465  0.7476
  943MOL0     N27187   9.259   8.592   5.777 -0.5232 -0.3747 -0.5827
  943MOL0     C27188   9.244   8.550   5.903 -0.4623 -0.3921 -0.7356
  943MOL0     C27189   9.135   8.617   5.958 -1.0642  0.1497 -0.0782
  943MOL0     C27190   9.099   8.616   6.111 -0.2514 -0.0008 -0.0655
  943MOL0     C27191   8.991   8.508   6.145  0.4091 -0.0996  0.3077
  943MOL0     C27192   8.943   8.513   6.290  0.0784  0.6724 -0.2933
  943MOL0     C27193   8.834   8.408   6.317  0.1010  0.1122 -0.4760
  943MOL0     O27194   8.722   8.426   6.236 -0.1115  0.1570  0.2931
  943MOL0     C27195   8.611   8.348   6.255  0.3482 -0.1792  0.7511
  943MOL0     C27196   8.603   8.222   6.321 -0.4065 -0.1789 -0.4308
  943MOL0     C27197   8.484   8.151   6.342  0.3450 -0.1251 -1.1325
  943MOL0     C27198   8.497   8.026   6.437  0.9764 -0.0239  0.0841
  943MOL0     C27199   8.365   8.195   6.283  1.0928  0.7767 -0.7711
  943MOL0     C27200   8.234   8.122   6.299  0.0675 -0.2288  0.4575
  943MOL0     O27201   8.130   8.200   6.253  0.6741 -0.2282 -0.8308
  943MOL0     C27202   8.001   8.146   6.243  0.5156 -0.4077 -0.0746
  943MOL0     C27203   7.911   8.174   6.352 -0.3396 -0.1109 -0.6871
  943MOL0     C27204   7.785   8.108   6.362 -1.1497  1.1630 -0.1706
  943MOL0     C27205   7.741   8.019   6.256 -0.3001  0.1427  0.0694
  943MOL0     O27206   7.614   7.972   6.278 -0.6422 -0.8018  0.1609
  943MOL0     C27207   7.559   7.896   6.168  0.1268  0.3901  0.6788
  943MOL0     C27208   7.418   7.852   6.206  0.3235 -0.6773  0.3556
  943MOL0     C27209   7.335   7.794   6.088 -0.1410 -0.0114  0.2668
  943MOL0     C27210   7.298   7.913   5.999 -0.3267 -0.6622 -0.6538
  943MOL0     C27211   7.163   7.889   5.931 -0.0486 -0.0433  0.2618
  943MOL0     C27212   7.184   7.763   5.843  0.9396  0.1316  0.2456
  943MOL0     C27213   7.079   7.747   5.735  0.5264 -0.3589  0.3110
  943MOL0     C27214   6.961   7.681   5.785  0.0592 -0.0882  0.1000
  943MOL0    Cl27215   6.847   7.652   5.637 -0.2204 -0.3029 -0.3831
  943MOL0     C27216   7.828   8.007   6.147 -0.4047  0.0175  0.2707
  943MOL0     C27217   7.957   8.057   6.146  0.7590  0.2524 -0.1914
  943MOL0     O27218   8.232   8.001   6.334 -0.3398 -0.5000 -0.7805
  943MOL0     C27219   8.370   8.319   6.211  0.2938  0.2421 -0.5578
  943MOL0     C27220   8.489   8.393   6.191  0.0190 -0.5516 -0.3089
  943MOL0     N27221   9.087   8.689   5.854 -0.1025 -0.6450 -0.2742
  943MOL0     N27222   9.162   8.678   5.751  1.1178 -0.1148 -0.7495
  943MOL0     C27223  10.199   8.849   6.172 -0.4695 -0.1962 -0.0351
  943MOL0     C27224  10.170   8.932   6.282  0.2512  0.0374  0.0018
  943MOL0     C27225   9.927   9.285   6.491  0.2619  0.0147  0.4903
  943MOL0     C27226  10.008   9.282   6.607 -0.2554 -0.1406  0.7632
  943MOL0     C27227   9.961   9.350   6.719 -0.2731 -1.0248  0.2278
  943MOL0     C27228   9.848   9.428   6.720  0.3320 -0.3503  0.5003
  943MOL0     O27229   9.794   9.498   6.826  0.9146 -0.3934 -0.4059
  943MOL0     C27230   9.809   9.439   6.956  0.5150 -0.0817  0.3881
  943MOL0     C27231   9.723   9.514   7.057 -0.0911  0.2839  0.3628
  943MOL0     C27232   9.746   9.464   7.206 -0.0325 -0.0674  0.6674
  943MOL0     C27233   9.677   9.332   7.234  0.5281  0.7585  0.5945
  943MOL0     C27234   9.529   9.347   7.233 -0.6964  1.0370 -1.0954
  943MOL0     C27235   9.412   9.370   7.240 -0.1855 -0.2317  0.9176
  943MOL0     C27236   9.767   9.428   6.599  0.1843 -0.2806  0.4015
  943MOL0     C27237   9.809   9.358   6.490  1.3807  0.9463 -0.0028
  943MOL0     H27238  10.101   9.224   6.116 -1.1403  0.4284  0.6444
  943MOL0     H27239  10.182   9.091   5.929 -0.0940 -1.4220  0.2732
  943MOL0     H27240  10.138   8.948   5.797  2.0026 -0.4426 -0.6089
  943MOL0     H27241  10.213   8.798   5.743 -1.0005 -1.6036 -0.0191
  943MOL0     H27242  10.041   8.663   5.826  0.1570  0.5516 -0.0674
  943MOL0     H27243   9.966   8.797   5.906  0.5507  1.9913 -0.6207
  943MOL0     H27244   9.922   8.900   5.687 -1.8769 -0.4467  3.2461
  943MOL0     H27245   9.979   8.755   5.601 -1.0534 -1.1019 -0.1353
  943MOL0     H27246   9.810   8.621   5.707  0.8213  0.1916  1.8347
  943MOL0     H27247   9.765   8.745   5.823  0.4724  0.2920 -0.3256
  943MOL0     H27248   9.649   8.877   5.668 -0.5301  2.1870 -2.8849
  943MOL0     H27249   9.730   8.818   5.533  1.1928 -2.5035 -0.1662
  943MOL0     H27250   9.530   8.719   5.500  1.3944 -1.1461 -0.0613
  943MOL0     H27251   9.640   8.586   5.556  1.2460 -0.0010  0.9035
  943MOL0     H27252   9.543   8.602   5.790 -3.0432 -3.5992 -0.2571
  943MOL0     H27253   9.458   8.757   5.744  1.1101 -0.6295  0.8066
  943MOL0     H27254   9.390   8.462   5.683 -1.2493 -0.5816 -0.3712
  943MOL0     H27255   9.326   8.584   5.583 -0.6189 -1.9606  0.8849
  943MOL0     H27256   9.300   8.474   5.957 -1.0750 -1.1477 -1.1412
  943MOL0     H27257   9.190   8.587   6.164  0.2428 -2.3474 -2.0266
  943MOL0     H27258   9.071   8.716   6.147  0.4091 -0.3621  1.5475
  943MOL0     H27259   9.025   8.407   6.120 -1.6513 -0.1043 -2.9750
  943MOL0     H27260   8.904   8.513   6.080 -0.6338  1.2028  1.7155
  943MOL0     H27261   8.910   8.615   6.314  1.5667  1.1255 -0.0727
  943MOL0     H27262   9.028   8.496   6.357  1.7225  1.0044 -2.2029
  943MOL0     H27263   8.817   8.411   6.425  1.2134  1.0430 -0.3163
  943MOL0     H27264   8.882   8.312   6.297  1.2113  0.2651  1.3205
  943MOL0     H27265   8.684   8.174   6.375 -0.6219 -2.3599 -1.9306
  943MOL0     H27266   8.560   8.048   6.524  1.6362 -0.8667 -0.1656
  943MOL0     H27267   8.408   7.979   6.481 -0.4378  4.3684  2.4398
  943MOL0     H27268   8.541   7.955   6.367  1.3248  1.2060 -0.9743
  943MOL0     H27269   7.933   8.234   6.440 -2.5300 -1.2638  0.7201
  943MOL0     H27270   7.719   8.109   6.448 -2.6873 -1.2277 -1.2115
  943MOL0     H27271   7.564   7.943   6.069 -0.3787 -3.8035 -1.6169
  943MOL0     H27272   7.631   7.814   6.155  1.5566  1.4526  1.6512
  943MOL0     H27273   7.424   7.779   6.287  0.6534 -1.7153 -0.5995
  943MOL0     H27274   7.365   7.936   6.253  0.2888 -1.2164  1.3038
  943MOL0     H27275   7.241   7.751   6.124 -1.3973  3.5988  1.6893
  943MOL0     H27276   7.403   7.731   6.030 -2.2046 -1.5405 -0.5988
  943MOL0     H27277   7.275   8.008   6.049 -3.5510 -1.4206 -0.4867
  943MOL0     H27278   7.384   7.932   5.933  0.2931  0.5859  0.4604
  943MOL0     H27279   7.137   7.980   5.876  3.2491  0.8629 -0.0352
  943MOL0     H27280   7.092   7.875   6.013  1.8798  1.0881  2.2251
  943MOL0     H27281   7.281   7.779   5.796  0.7565  0.4203 -0.0327
  943MOL0     H27282   7.196   7.678   5.911  2.1208  1.5230  1.8654
  943MOL0     H27283   7.126   7.691   5.654  1.1543 -1.0864  1.1593
  943MOL0     H27284   7.049   7.843   5.694  0.2085  0.0748  1.5183
  943MOL0     H27285   6.909   7.742   5.860  0.3036 -1.5828  1.5457
  943MOL0     H27286   6.986   7.579   5.817  0.7375 -0.9527 -2.8637
  943MOL0     H27287   7.813   7.953   6.054  0.8364  1.7978 -1.0186
  943MOL0     H27288   8.011   8.060   6.052  0.3055  1.9719 -0.4371
  943MOL0     H27289   8.280   8.360   6.166 -0.0393  0.2410  0.0932
  943MOL0     H27290   8.471   8.474   6.121  1.3669 -1.0721 -1.2955
  943MOL0     H27291  10.246   8.752   6.177  0.1142  0.0463 -0.6951
  943MOL0     H27292  10.168   8.877   6.375 -2.3445  0.5761  0.3498
  943MOL0     H27293  10.103   9.229   6.610  0.2211  0.7401  1.6517
  943MOL0     H27294  10.024   9.338   6.807 -0.0907  1.2775  0.4551
  943MOL0     H27295   9.777   9.335   6.945  1.0978 -0.1915 -0.3068
  943MOL0     H27296   9.913   9.437   6.987  0.0220 -0.2906  2.1269
  943MOL0     H27297   9.619   9.497   7.026  0.1444  0.3965 -0.5162
  943MOL0     H27298   9.746   9.620   7.046  3.2196 -0.3335  0.2935
  943MOL0     H27299   9.717   9.542   7.277  1.1746  2.7900 -1.7380
  943MOL0     H27300   9.853   9.441   7.212  0.0284 -0.0915 -0.3668
  943MOL0     H27301   9.710   9.298   7.333  0.0760 -1.6261 -0.0185
  943MOL0     H27302   9.700   9.246   7.171 -3.0748 -0.5527  0.8558
  943MOL0     H27303   9.306   9.381   7.249 -0.8801 -1.8876 -3.0438
  943MOL0     H27304   9.672   9.481   6.589  0.5574  0.3720  0.2310
  943MOL0     H27305   9.745   9.352   6.402 -0.4037 -1.5438  1.3408
  944MOL0     O27306   5.180   0.185   0.282  0.6680 -0.3108 -0.0108
  944MOL0     C27307   5.243   0.154   0.383 -0.2049 -0.8028 -0.2052
  944MOL0     O27308   5.193   0.170   0.511 -0.0724  0.1894  0.5422
  944MOL0     C27309   5.066   0.220   0.547  0.3406  0.1385 -0.7373
  944MOL0     C27310   5.029   0.194   0.677  0.0193  0.0194  0.4056
  944MOL0     C27311   4.908   0.233   0.731 -0.2367 -0.0831 -0.2097
  944MOL0     C27312   4.813   0.305   0.652 -0.1799 -0.6041  0.0583
  944MOL0     O27313   4.697   0.358   0.697 -0.2950 -0.4043  0.1245
  944MOL0     C27314   4.676   0.365   0.837  0.3502  0.3943 -0.3178
  944MOL0     C27315   4.532   0.426   0.856  0.5223 -0.1166  0.3974
  944MOL0     C27316   4.548   0.575   0.829 -0.4291  0.4985  0.4370
  944MOL0     C27317   4.421   0.659   0.797 -0.9018  0.1996  0.2492
  944MOL0     C27318   4.312   0.663   0.901  0.4149 -0.4690  0.2305
  944MOL0     C27319   4.197   0.740   0.836 -0.0581  0.0489 -0.5330
  944MOL0     C27320   4.073   0.741   0.924  0.0486 -0.4656 -0.7814
  944MOL0     C27321   4.011   0.600   0.941  0.8047 -0.4989 -0.1442
  944MOL0     N27322   3.883   0.605   1.008 -0.7163  0.2404  0.2861
  944MOL0     C27323   3.834   0.684   1.102  0.4860 -0.1848  0.4317
  944MOL0     C27324   3.707   0.652   1.120  0.1665  0.2488  1.2897
  944MOL0     C27325   3.614   0.694   1.230 -1.1065 -0.3769 -0.0640
  944MOL0     C27326   3.472   0.739   1.168 -1.2588  0.5656 -0.2190
  944MOL0     C27327   3.373   0.734   1.285 -0.2178  0.5756 -0.4948
  944MOL0     C27328   3.232   0.745   1.231 -0.8864 -0.1127 -0.7794
  944MOL0     O27329   3.199   0.638   1.136  0.2900 -0.3173 -0.1764
  944MOL0     C27330   3.208   0.515   1.199 -0.0552 -0.5322  0.0339
  944MOL0     C27331   3.316   0.434   1.195  0.2103 -0.3109 -0.0942
  944MOL0     C27332   3.327   0.320   1.281  1.1988 -0.7986 -0.1991
  944MOL0     C27333   3.447   0.234   1.270 -1.0907  0.7361 -0.5040
  944MOL0     C27334   3.214   0.284   1.368 -0.0910  0.0496 -0.1349
  944MOL0     C27335   3.208   0.177   1.472 -0.0436 -0.6504 -0.4922
  944MOL0     O27336   3.090   0.155   1.539 -0.2519 -0.4314  0.0273
  944MOL0     C27337   3.076   0.075   1.646  0.2974 -0.0626  0.0262
  944MOL0     C27338   3.176   0.051   1.747 -0.2416 -0.5246  0.4174
  944MOL0     C27339   3.137  -0.009   1.865 -0.0997 -0.2413 -0.1057
  944MOL0     C27340   3.015  -0.070   1.878  0.6970 -0.6012 -0.3601
  944MOL0     O27341   2.966  -0.140   1.986 -0.0205 -0.4311 -0.4433
  944MOL0     C27342   3.045  -0.151   2.104 -0.2466  0.9320  0.0145
  944MOL0     C27343   2.970  -0.251   2.200  0.1499  0.3942  0.1986
  944MOL0     C27344   2.842  -0.195   2.262  0.5003  0.0392  0.3004
  944MOL0     C27345   2.712  -0.286   2.236 -0.0839 -0.4246  0.2939
  944MOL0     C27346   2.588  -0.215   2.277  0.1923  0.1354 -0.4991
  944MOL0     C27347   2.571  -0.237   2.435  0.8918 -0.3095 -0.6596
  944MOL0     C27348   2.447  -0.168   2.485 -0.4395  0.1974  0.2505
  944MOL0     C27349   2.430  -0.186   2.633 -0.2158 -0.3995  0.6341
  944MOL0    Cl27350   2.348  -0.347   2.666 -0.4401 -0.1474  0.2864
  944MOL0     C27351   2.925  -0.050   1.777  0.3222  0.1517  0.7193
  944MOL0     C27352   2.960   0.013   1.668 -0.1611  0.0099 -0.6564
  944MOL0     O27353   3.317   0.121   1.494  0.4667 -0.0475  0.0484
  944MOL0     C27354   3.105   0.376   1.370  0.4265 -0.8116 -0.0109
  944MOL0     C27355   3.104   0.483   1.284 -0.1471  0.2786  0.7639
  944MOL0     N27356   3.672   0.555   1.027 -0.4909  0.7495 -0.0181
  944MOL0     N27357   3.784   0.531   0.966  0.8412 -0.5506  0.6633
  944MOL0     C27358   4.850   0.334   0.521  0.0925  0.2405  0.3870
  944MOL0     C27359   4.971   0.291   0.461 -0.6882 -0.3496  0.3577
  944MOL0     C27360   5.374   0.101   0.381  0.6033  0.5359  0.0390
  944MOL0     C27361   5.426   0.025   0.482 -0.2561 -0.3385  0.7235
  944MOL0     C27362   5.549  -0.040   0.474 -0.0052 -0.0072 -0.1784
  944MOL0     C27363   5.634  -0.023   0.358  0.2239 -0.1978 -1.1807
  944MOL0     O27364   5.753  -0.094   0.366 -0.3575 -0.1872 -0.5389
  944MOL0     C27365   5.863  -0.071   0.279 -0.1875  0.6016  0.6912
  944MOL0     C27366   5.978  -0.176   0.299  0.4255 -0.7264  0.1154
  944MOL0     C27367   5.977  -0.211   0.443 -0.1469 -0.2903 -0.3331
  944MOL0     C27368   6.085  -0.315   0.487 -0.7422 -0.2090  0.6963
  944MOL0     C27369   6.069  -0.446   0.423  0.4519 -0.1735  0.0215
  944MOL0     C27370   6.057  -0.553   0.369  0.2836 -0.0559  0.2506
  944MOL0     C27371   5.581   0.047   0.244  0.8211  0.3120 -0.5986
  944MOL0     C27372   5.451   0.118   0.263 -0.8112  0.7703 -0.0568
  944MOL0     H27373   5.094   0.129   0.735  0.8993  1.2585  0.8665
  944MOL0     H27374   4.875   0.203   0.829 -3.0832  2.4324 -0.2341
  944MOL0     H27375   4.682   0.267   0.887  1.1185  0.5884 -0.0192
  944MOL0     H27376   4.755   0.426   0.882  0.0979  0.2121  0.3981
  944MOL0     H27377   4.454   0.369   0.804  0.3267  0.3974  0.1116
  944MOL0     H27378   4.510   0.416   0.962 -0.8630  0.5199  0.1913
  944MOL0     H27379   4.596   0.605   0.923 -0.8658  0.2253  0.7496
  944MOL0     H27380   4.622   0.604   0.754 -1.5802  1.4174 -0.3781
  944MOL0     H27381   4.455   0.758   0.766  0.9650 -0.5635 -0.2466
  944MOL0     H27382   4.367   0.619   0.711  0.5369  0.3158 -0.7288
  944MOL0     H27383   4.287   0.559   0.925 -0.9832 -0.0688  0.6427
  944MOL0     H27384   4.351   0.712   0.991 -0.1091 -0.6210  0.5481
  944MOL0     H27385   4.239   0.839   0.817 -0.1295 -0.1612 -1.8837
  944MOL0     H27386   4.175   0.697   0.737  2.4326 -1.2676 -0.5903
  944MOL0     H27387   4.086   0.782   1.025  1.9250 -1.5630 -0.5337
  944MOL0     H27388   4.006   0.807   0.868 -0.4027  0.6028  0.9384
  944MOL0     H27389   4.080   0.541   1.002 -1.1181 -2.5568  0.1863
  944MOL0     H27390   3.999   0.543   0.848 -3.0867  1.1162 -0.8501
  944MOL0     H27391   3.893   0.751   1.164 -0.2532  1.2477 -0.3571
  944MOL0     H27392   3.603   0.608   1.297 -1.6385  1.9123  2.9673
  944MOL0     H27393   3.653   0.781   1.284 -0.7566 -0.8674  0.4878
  944MOL0     H27394   3.448   0.675   1.083 -0.6085 -4.0066  2.7409
  944MOL0     H27395   3.477   0.840   1.126 -2.1701 -0.0182 -1.7858
  944MOL0     H27396   3.397   0.813   1.357 -3.4673  0.8148  0.4927
  944MOL0     H27397   3.391   0.637   1.333 -1.3383  0.3769 -0.4509
  944MOL0     H27398   3.225   0.841   1.179 -1.0745 -0.1710 -0.8641
  944MOL0     H27399   3.159   0.741   1.313 -0.7650  1.7943 -0.5350
  944MOL0     H27400   3.388   0.467   1.120 -0.8553  0.1055 -0.9528
  944MOL0     H27401   3.411   0.132   1.249  1.0748  0.1863 -1.8490
  944MOL0     H27402   3.521   0.261   1.194 -1.7473  4.1784 -0.0835
  944MOL0     H27403   3.488   0.224   1.370 -2.2002  0.6363 -0.0376
  944MOL0     H27404   3.274   0.098   1.743 -1.0870  1.3320  0.8739
  944MOL0     H27405   3.215  -0.005   1.939  2.2593 -3.2022 -2.1625
  944MOL0     H27406   3.144  -0.193   2.082 -0.9012 -1.0704  0.6122
  944MOL0     H27407   3.059  -0.054   2.152 -0.9990 -0.7023  3.9951
  944MOL0     H27408   2.949  -0.337   2.136  2.0631 -0.7111  0.9587
  944MOL0     H27409   3.030  -0.282   2.286  0.1213 -0.0056  0.0770
  944MOL0     H27410   2.822  -0.092   2.229  1.7570  0.3812  0.5620
  944MOL0     H27411   2.853  -0.196   2.371 -1.1000 -1.1193  0.4890
  944MOL0     H27412   2.722  -0.308   2.129  2.7813  1.5825  0.0119
  944MOL0     H27413   2.717  -0.381   2.291 -2.7649 -0.0322  1.3736
  944MOL0     H27414   2.508  -0.273   2.231  0.1702 -1.5506  1.5367
  944MOL0     H27415   2.576  -0.112   2.243 -0.5810  0.0315 -0.5420
  944MOL0     H27416   2.561  -0.345   2.448 -1.4548 -0.4203 -2.5031
  944MOL0     H27417   2.660  -0.199   2.485  1.9979 -2.4002 -0.9089
  944MOL0     H27418   2.361  -0.201   2.426 -1.3746  1.7357  0.6936
  944MOL0     H27419   2.478  -0.065   2.466 -2.0769  0.6342 -0.1892
  944MOL0     H27420   2.362  -0.112   2.673  1.3204 -0.4474  3.5771
  944MOL0     H27421   2.527  -0.174   2.682  3.0230  2.0487 -5.2691
  944MOL0     H27422   2.823  -0.070   1.810  1.0023  2.1085  4.5151
  944MOL0     H27423   2.884   0.033   1.593 -0.6243  1.0228  0.0590
  944MOL0     H27424   3.019   0.360   1.434 -0.8291 -3.1351 -2.1244
  944MOL0     H27425   3.020   0.550   1.290  0.5338  1.0873  1.4948
  944MOL0     H27426   4.786   0.401   0.464  0.7289  0.5198 -0.0059
  944MOL0     H27427   4.994   0.326   0.361  0.5109  1.7231  1.2788
  944MOL0     H27428   5.363   0.007   0.568  0.8687  1.7182  2.0445
  944MOL0     H27429   5.592  -0.096   0.557  0.5847 -0.2611 -0.6458
  944MOL0     H27430   5.828  -0.074   0.175  0.6445  2.1093  0.3326
  944MOL0     H27431   5.907   0.027   0.299  0.4156  0.2770  0.9948
  944MOL0     H27432   6.071  -0.124   0.273 -0.2372 -0.3715 -1.7074
  944MOL0     H27433   5.957  -0.254   0.226  1.5229 -1.2633  0.3553
  944MOL0     H27434   5.883  -0.256   0.478 -0.8073  1.3732  0.1578
  944MOL0     H27435   6.005  -0.119   0.497  1.3597  0.8372 -2.8423
  944MOL0     H27436   6.077  -0.330   0.595 -1.3366 -0.6786  0.5901
  944MOL0     H27437   6.181  -0.266   0.469 -1.3348  0.2562 -1.5597
  944MOL0     H27438   6.043  -0.650   0.325  0.6707  0.0398 -0.0983
  944MOL0     H27439   5.634   0.049   0.149 -0.7256  1.1032 -1.4722
  944MOL0     H27440   5.410   0.166   0.175 -0.1051 -0.8577 -1.3389
  945MOL0     O27441   5.822   5.867   5.383 -0.2595  0.0500 -0.8064
  945MOL0     C27442   5.911   5.789   5.361 -0.2792  0.0615  0.6227
  945MOL0     O27443   5.980   5.707   5.449 -0.1177 -0.3967 -0.0910
  945MOL0     C27444   5.905   5.685   5.555  0.0283  0.7730 -0.6020
  945MOL0     C27445   5.913   5.766   5.666  0.4537  0.0827 -0.2451
  945MOL0     C27446   5.838   5.734   5.781 -0.3123 -0.5528 -0.1406
  945MOL0     C27447   5.751   5.626   5.773  0.6381 -0.2484  0.2866
  945MOL0     O27448   5.679   5.611   5.890  0.5979  0.1639  0.7432
  945MOL0     C27449   5.670   5.480   5.948 -0.5601 -0.2494  0.3868
  945MOL0     C27450   5.576   5.497   6.071 -0.5263 -0.7409  0.1138
  945MOL0     C27451   5.537   5.375   6.139  0.2949 -0.6356 -0.7701
  945MOL0     C27452   5.415   5.403   6.225 -0.0962 -0.8334  0.2247
  945MOL0     C27453   5.414   5.300   6.339 -0.2082  0.2646  0.8535
  945MOL0     C27454   5.311   5.348   6.431  0.8566  0.3231 -0.2278
  945MOL0     C27455   5.288   5.225   6.530 -0.6119 -0.1461 -0.5624
  945MOL0     C27456   5.175   5.252   6.633  0.2263  0.4000 -0.2594
  945MOL0     N27457   5.053   5.188   6.592  0.0119  0.8902  0.1117
  945MOL0     C27458   5.001   5.190   6.468  0.5963 -0.4805 -1.1023
  945MOL0     C27459   4.899   5.113   6.465 -0.3085 -0.1701 -0.3080
  945MOL0     C27460   4.794   5.093   6.352 -0.3611 -0.0151 -0.1570
  945MOL0     C27461   4.651   5.053   6.412 -0.8780  0.7272  0.2663
  945MOL0     C27462   4.554   5.007   6.312  0.7249  0.6402  0.0061
  945MOL0     C27463   4.423   4.962   6.385 -0.0608 -0.1403  0.0930
  945MOL0     O27464   4.342   4.894   6.294  0.4762 -0.3560  0.7596
  945MOL0     C27465   4.210   4.885   6.321  0.9527  0.2231 -0.2276
  945MOL0     C27466   4.139   4.827   6.215 -0.9067  0.0556 -0.4488
  945MOL0     C27467   4.008   4.792   6.226 -0.0607  0.6070  0.6260
  945MOL0     C27468   3.942   4.711   6.109  0.1593  0.5919 -0.1567
  945MOL0     C27469   3.934   4.826   6.346  0.7875  0.9921  0.7531
  945MOL0     C27470   3.788   4.792   6.376  0.5334  0.4927 -0.1617
  945MOL0     O27471   3.712   4.722   6.285 -0.9252  0.0405 -0.4666
  945MOL0     C27472   3.584   4.704   6.310  0.8134 -1.1728  1.1992
  945MOL0     C27473   3.536   4.578   6.346  0.9165 -0.7322 -0.9896
  945MOL0     C27474   3.405   4.551   6.360 -1.2684  0.2890 -0.3415
  945MOL0     C27475   3.314   4.654   6.357  0.3403  0.0488  0.7272
  945MOL0     O27476   3.174   4.624   6.362 -0.4160 -0.2793 -0.7383
  945MOL0     C27477   3.073   4.718   6.332  0.4898 -0.1424  0.5141
  945MOL0     C27478   3.063   4.756   6.183  0.4628 -0.0204  0.0894
  945MOL0     C27479   3.045   4.626   6.105  0.2345 -0.1370  1.4033
  945MOL0     C27480   3.019   4.654   5.953 -0.9557 -0.1694 -0.8957
  945MOL0     C27481   2.936   4.543   5.885 -0.3621 -0.5521  0.3670
  945MOL0     C27482   3.004   4.404   5.891  0.4137  0.8786  0.3175
  945MOL0     C27483   3.113   4.402   5.787  0.1359 -0.2326  0.2945
  945MOL0     C27484   3.165   4.254   5.784  0.1110 -0.4703  0.0582
  945MOL0    Cl27485   3.277   4.234   5.916 -0.0725 -0.2516 -0.0444
  945MOL0     C27486   3.361   4.788   6.358  0.4838  0.6204 -0.0808
  945MOL0     C27487   3.497   4.814   6.323  0.2010  0.5801  0.5966
  945MOL0     O27488   3.744   4.833   6.482 -0.1684 -0.2089  0.2904
  945MOL0     C27489   4.004   4.895   6.449 -0.7870  0.1436 -0.8197
  945MOL0     C27490   4.147   4.928   6.429  0.4018  0.0133 -0.1387
  945MOL0     N27491   4.885   5.060   6.593  0.4375 -0.2162 -0.0827
  945MOL0     N27492   4.972   5.115   6.669 -0.7360 -0.0079  0.3259
  945MOL0     C27493   5.750   5.548   5.663 -0.5611  0.5319  0.2680
  945MOL0     C27494   5.828   5.579   5.550  0.3100  0.2504  0.3484
  945MOL0     C27495   5.963   5.805   5.224 -0.5037  0.0516 -0.0590
  945MOL0     C27496   5.890   5.877   5.123 -0.2077 -0.0248 -0.0335
  945MOL0     C27497   5.937   5.887   4.996  0.2869  0.0732 -0.9141
  945MOL0     C27498   6.060   5.838   4.954 -0.9828 -0.6805 -0.1876
  945MOL0     O27499   6.103   5.856   4.824  0.5431  0.3495 -0.1482
  945MOL0     C27500   6.242   5.853   4.797  0.0564  0.9568 -0.5088
  945MOL0     C27501   6.315   5.976   4.853  0.5018  0.1637 -0.4474
  945MOL0     C27502   6.464   5.983   4.823 -0.0811  0.1022  0.3988
  945MOL0     C27503   6.525   6.101   4.896  0.4058 -0.0441 -0.6376
  945MOL0     C27504   6.661   6.125   4.854  0.1875 -0.1027  0.4399
  945MOL0     C27505   6.772   6.141   4.802  0.5078 -0.0367 -0.3674
  945MOL0     C27506   6.143   5.777   5.054  0.7767 -0.2660  0.1714
  945MOL0     C27507   6.091   5.753   5.184 -0.0050 -0.0426  0.3018
  945MOL0     H27508   5.984   5.848   5.667 -0.5023  0.9428 -1.2220
  945MOL0     H27509   5.847   5.796   5.869 -1.4351 -1.6883  0.8038
  945MOL0     H27510   5.624   5.400   5.890 -1.4137  0.1787  0.4576
  945MOL0     H27511   5.768   5.437   5.972 -0.9017 -1.5885 -0.5300
  945MOL0     H27512   5.605   5.571   6.146 -1.0698 -0.5869  0.1779
  945MOL0     H27513   5.486   5.545   6.032 -0.3684  1.0232  1.8064
  945MOL0     H27514   5.519   5.292   6.071  1.5936 -0.4304 -1.4038
  945MOL0     H27515   5.619   5.340   6.203  0.4403  1.6664  0.4264
  945MOL0     H27516   5.424   5.501   6.273 -1.1024 -1.7300  2.3344
  945MOL0     H27517   5.323   5.409   6.166  1.1526  1.5623 -1.6957
  945MOL0     H27518   5.400   5.197   6.306  3.6890 -0.7193  1.7791
  945MOL0     H27519   5.511   5.286   6.386  0.1575 -0.1780 -0.0129
  945MOL0     H27520   5.349   5.420   6.504 -3.8966  0.4579  2.5497
  945MOL0     H27521   5.216   5.382   6.389  0.3103 -0.1448  0.5864
  945MOL0     H27522   5.271   5.137   6.467  1.3995 -0.9600 -0.0649
  945MOL0     H27523   5.380   5.203   6.586 -0.0200 -1.2210 -1.8821
  945MOL0     H27524   5.172   5.360   6.646  2.5270  0.5967 -0.9437
  945MOL0     H27525   5.208   5.203   6.725  0.1095  2.0824  0.7245
  945MOL0     H27526   5.036   5.246   6.382 -1.0909 -0.0440 -1.5382
  945MOL0     H27527   4.790   5.187   6.297 -2.3782 -1.7409 -3.2055
  945MOL0     H27528   4.831   5.015   6.285 -0.5898 -1.8830  1.7379
  945MOL0     H27529   4.609   5.137   6.467 -0.3047  0.8322  0.5483
  945MOL0     H27530   4.678   4.973   6.482  1.1143 -1.6359 -2.9398
  945MOL0     H27531   4.598   4.926   6.253 -1.3117 -1.0864  0.7346
  945MOL0     H27532   4.523   5.083   6.239 -3.0523 -2.3240 -1.8597
  945MOL0     H27533   4.386   5.057   6.425  0.5864 -0.6975  2.1277
  945MOL0     H27534   4.441   4.892   6.466  2.2622 -1.2394 -1.2844
  945MOL0     H27535   4.196   4.797   6.128 -0.4024  2.6484 -1.0865
  945MOL0     H27536   3.913   4.619   6.161  1.0419 -0.3261 -1.2561
  945MOL0     H27537   3.856   4.758   6.062  0.4102 -0.1075 -1.3460
  945MOL0     H27538   4.015   4.691   6.030  3.0176  2.6847  1.7562
  945MOL0     H27539   3.603   4.493   6.349 -0.2073 -1.6675 -1.4427
  945MOL0     H27540   3.363   4.452   6.372 -0.7671  0.0510 -0.5354
  945MOL0     H27541   2.980   4.668   6.362  1.4260 -0.9991  2.1158
  945MOL0     H27542   3.087   4.804   6.399 -0.3713 -1.2687  2.1951
  945MOL0     H27543   2.982   4.829   6.168  1.2958  0.8674 -0.1564
  945MOL0     H27544   3.158   4.793   6.145  0.9561 -2.7050 -1.5892
  945MOL0     H27545   2.961   4.566   6.140 -0.6133  0.2634  0.1329
  945MOL0     H27546   3.138   4.568   6.097  0.5749  0.5523  0.1409
  945MOL0     H27547   2.965   4.749   5.943 -2.8654 -0.9599  1.1624
  945MOL0     H27548   3.111   4.666   5.895 -2.1945  0.4649 -2.8366
  945MOL0     H27549   2.909   4.575   5.784  1.2819 -0.0242  0.0639
  945MOL0     H27550   2.838   4.541   5.933 -1.5640  3.3977 -1.5344
  945MOL0     H27551   3.033   4.366   5.989 -0.2856 -0.9775 -0.1570
  945MOL0     H27552   2.922   4.337   5.864  0.2943  1.3159 -0.4457
  945MOL0     H27553   3.192   4.470   5.822  0.9027 -1.4364  0.9821
  945MOL0     H27554   3.090   4.427   5.683  1.4210 -1.2391 -0.2558
  945MOL0     H27555   3.220   4.232   5.693 -0.9135  0.4077 -0.8083
  945MOL0     H27556   3.084   4.181   5.794 -0.3345  0.1366  1.1328
  945MOL0     H27557   3.298   4.876   6.358 -0.4886 -0.0186  2.2235
  945MOL0     H27558   3.526   4.918   6.308 -1.0935  0.9448  0.4576
  945MOL0     H27559   3.954   4.910   6.545 -3.7817  1.3682 -2.4252
  945MOL0     H27560   4.213   4.969   6.505  1.6568  1.1388 -1.7770
  945MOL0     H27561   5.679   5.466   5.660 -1.4136  1.1543  2.0445
  945MOL0     H27562   5.825   5.507   5.469 -0.4890  0.7596 -0.0801
  945MOL0     H27563   5.793   5.920   5.144  0.3220  1.5670 -0.7237
  945MOL0     H27564   5.878   5.936   4.919 -0.7356  0.3349  0.0156
  945MOL0     H27565   6.275   5.753   4.824  1.2432  1.3929 -0.2968
  945MOL0     H27566   6.258   5.842   4.689 -1.6054 -1.5722 -0.5689
  945MOL0     H27567   6.298   5.986   4.960 -1.5584 -0.6516 -0.6390
  945MOL0     H27568   6.262   6.062   4.811  1.1261  0.7018 -0.1530
  945MOL0     H27569   6.470   5.984   4.713 -2.8327 -0.5280  0.1604
  945MOL0     H27570   6.513   5.893   4.862  3.0128  1.1730 -0.6739
  945MOL0     H27571   6.527   6.086   5.004  2.8383  1.6296 -0.3833
  945MOL0     H27572   6.464   6.190   4.879  0.2045  0.1893  1.1219
  945MOL0     H27573   6.869   6.161   4.761  0.2468  0.8014 -0.5907
  945MOL0     H27574   6.243   5.741   5.032  1.3248  2.5562 -2.5397
  945MOL0     H27575   6.155   5.699   5.253 -0.5482  0.9059  1.5850
  946MOL0     O27576   0.326   3.687   0.952 -0.2442  0.1039  0.3121
  946MOL0     C27577   0.388   3.794   0.947 -0.2790 -0.0506  0.0195
  946MOL0     O27578   0.360   3.909   1.016 -0.8675 -0.2537  0.2360
  946MOL0     C27579   0.253   3.923   1.101 -0.0523  0.8428  0.5491
  946MOL0     C27580   0.128   3.861   1.077 -0.1321 -0.4763 -0.2850
  946MOL0     C27581   0.032   3.883   1.183 -0.0200  0.0094 -0.6694
  946MOL0     C27582   0.054   3.971   1.289 -0.0087 -0.4786  0.4666
  946MOL0     O27583  -0.042   3.970   1.383  0.1238  0.1088 -0.8955
  946MOL0     C27584  -0.017   3.894   1.501 -0.0670  0.2286  0.8159
  946MOL0     C27585  -0.146   3.872   1.569  0.1969  0.3817  1.2696
  946MOL0     C27586  -0.236   3.784   1.465 -0.3547 -1.0365 -0.6292
  946MOL0     C27587  -0.360   3.730   1.544 -0.1233 -0.4139  0.1180
  946MOL0     C27588  -0.434   3.648   1.439 -0.5036  1.0823 -0.5944
  946MOL0     C27589  -0.559   3.586   1.508  0.7587 -0.2165 -0.0238
  946MOL0     C27590  -0.672   3.565   1.401 -0.7541 -0.3091 -0.6294
  946MOL0     C27591  -0.758   3.452   1.428  0.0734  0.5444  0.0613
  946MOL0     N27592  -0.881   3.435   1.341 -0.8487 -0.5737  1.0546
  946MOL0     C27593  -0.972   3.536   1.307  0.6305  0.4288  0.7629
  946MOL0     C27594  -1.068   3.470   1.241  0.2395  0.3398  0.5172
  946MOL0     C27595  -1.186   3.536   1.195 -0.2558 -0.0481  0.1850
  946MOL0     C27596  -1.320   3.490   1.258  0.2913  0.1455 -0.2080
  946MOL0     C27597  -1.423   3.577   1.180  0.2178  0.3736  0.5457
  946MOL0     C27598  -1.554   3.592   1.256  0.1797 -0.2530  0.3677
  946MOL0     O27599  -1.625   3.469   1.261 -0.1300 -0.2296 -0.2604
  946MOL0     C27600  -1.754   3.476   1.316 -0.1986  0.5709  0.1493
  946MOL0     C27601  -1.822   3.585   1.380 -0.6457 -0.8324  0.0658
  946MOL0     C27602  -1.955   3.592   1.417 -0.5357 -0.1290 -0.4819
  946MOL0     C27603  -1.989   3.714   1.498 -0.0305  0.1111 -0.4984
  946MOL0     C27604  -2.025   3.474   1.399 -0.0856  0.3877 -0.3406
  946MOL0     C27605  -2.156   3.450   1.477  0.2880  0.8824  0.4763
  946MOL0     O27606  -2.219   3.552   1.529  0.7232 -0.7059  0.0944
  946MOL0     C27607  -2.297   3.524   1.631 -0.7835  0.3890  0.4373
  946MOL0     C27608  -2.433   3.507   1.624  0.5991 -0.0752 -0.4665
  946MOL0     C27609  -2.508   3.478   1.740  0.2297 -0.2829  0.9400
  946MOL0     C27610  -2.443   3.444   1.856 -0.0077 -0.0077  0.3747
  946MOL0     O27611  -2.524   3.391   1.957  0.1825  0.4866  1.2854
  946MOL0     C27612  -2.471   3.323   2.068 -0.0147  0.1251 -0.4238
  946MOL0     C27613  -2.580   3.239   2.129 -0.0039  0.1561  0.7402
  946MOL0     C27614  -2.718   3.312   2.142 -0.5286 -0.3683  0.5714
  946MOL0     C27615  -2.702   3.408   2.260 -0.2251  0.0661  0.4646
  946MOL0     C27616  -2.823   3.495   2.300 -0.6494 -0.1397 -0.0473
  946MOL0     C27617  -2.852   3.608   2.201  0.6192  0.3243  0.0030
  946MOL0     C27618  -2.971   3.699   2.240 -1.0789  0.3501  0.3485
  946MOL0     C27619  -2.997   3.802   2.128  0.5000  0.3320  0.0931
  946MOL0    Cl27620  -3.086   3.727   1.976  0.3157  0.0052 -0.1821
  946MOL0     C27621  -2.304   3.469   1.872  0.1914 -0.1560 -0.5463
  946MOL0     C27622  -2.230   3.504   1.754  0.6855  0.2855 -1.0813
  946MOL0     O27623  -2.182   3.326   1.510 -0.4023 -0.5462 -0.2076
  946MOL0     C27624  -1.968   3.360   1.335  0.6874  0.2763 -0.1095
  946MOL0     C27625  -1.834   3.363   1.295 -0.5492 -0.4196  0.8335
  946MOL0     N27626  -1.034   3.332   1.234  0.0567 -0.6913  0.2909
  946MOL0     N27627  -0.921   3.317   1.285  0.5318  0.3399  0.2913
  946MOL0     C27628   0.174   4.027   1.302 -0.7360 -0.6685  0.0437
  946MOL0     C27629   0.279   4.001   1.213  0.2297  0.2778  0.2566
  946MOL0     C27630   0.507   3.795   0.865  0.4745  0.0291  0.9882
  946MOL0     C27631   0.570   3.675   0.806 -0.2861 -0.0892 -0.6104
  946MOL0     C27632   0.683   3.681   0.720 -0.1358 -0.3430 -0.8699
  946MOL0     C27633   0.732   3.809   0.689  1.4585  0.6375 -0.6026
  946MOL0     O27634   0.841   3.815   0.599  0.2470 -0.1905  0.0274
  946MOL0     C27635   0.841   3.731   0.488 -1.1668  1.3760 -0.2652
  946MOL0     C27636   0.917   3.800   0.369 -0.1878 -0.2683 -0.1268
  946MOL0     C27637   1.067   3.834   0.391 -1.0342 -0.7410  0.3812
  946MOL0     C27638   1.134   3.890   0.272  0.1831  0.5208 -0.6123
  946MOL0     C27639   1.275   3.934   0.304  0.3192  0.9941  0.5077
  946MOL0     C27640   1.388   3.972   0.348  0.3770  0.5791  0.1094
  946MOL0     C27641   0.673   3.926   0.743  0.2175  0.2045  0.5187
  946MOL0     C27642   0.565   3.927   0.830  0.3836  0.2585  0.4704
  946MOL0     H27643   0.100   3.798   0.994 -0.6501 -1.1362  0.3730
  946MOL0     H27644  -0.062   3.830   1.174  1.1559 -3.0397  2.7364
  946MOL0     H27645   0.025   3.796   1.478 -4.5307 -2.6580  3.3735
  946MOL0     H27646   0.054   3.939   1.572  0.9088  1.6331 -0.9793
  946MOL0     H27647  -0.129   3.825   1.667  2.8912  1.1307  1.2217
  946MOL0     H27648  -0.187   3.973   1.579  1.5896  0.8808  2.2141
  946MOL0     H27649  -0.259   3.841   1.374 -1.2647 -0.3457  0.0202
  946MOL0     H27650  -0.175   3.696   1.440  0.8131 -0.1700 -0.9074
  946MOL0     H27651  -0.329   3.661   1.623  0.0301 -1.4678 -0.8177
  946MOL0     H27652  -0.424   3.809   1.583  1.1124 -0.0755  1.5641
  946MOL0     H27653  -0.459   3.717   1.358  3.3074  1.2358 -1.8186
  946MOL0     H27654  -0.379   3.561   1.402 -1.4417  0.0296  0.4135
  946MOL0     H27655  -0.532   3.485   1.542 -0.5587 -0.1787  1.2156
  946MOL0     H27656  -0.601   3.647   1.588 -0.0545 -3.1242  1.9270
  946MOL0     H27657  -0.714   3.666   1.396  1.7252  0.7864 -1.3984
  946MOL0     H27658  -0.628   3.547   1.302 -0.5341 -0.5363 -0.4918
  946MOL0     H27659  -0.794   3.451   1.532  2.4620  1.1807  0.9648
  946MOL0     H27660  -0.704   3.359   1.410 -0.0867  0.7775 -1.7602
  946MOL0     H27661  -0.983   3.639   1.339 -1.5789  0.5645 -0.2264
  946MOL0     H27662  -1.176   3.644   1.212  0.0171  0.0240 -0.4155
  946MOL0     H27663  -1.184   3.526   1.086  3.6864  1.3252 -0.0116
  946MOL0     H27664  -1.317   3.506   1.366  1.3448 -1.5847  0.0470
  946MOL0     H27665  -1.341   3.385   1.237 -0.6743  0.4747 -0.9522
  946MOL0     H27666  -1.442   3.536   1.080 -0.8383  0.6399  0.6299
  946MOL0     H27667  -1.379   3.677   1.168 -0.7121  0.8042  0.6465
  946MOL0     H27668  -1.615   3.655   1.191  0.2234 -0.3916  0.1916
  946MOL0     H27669  -1.539   3.641   1.352  1.0731  1.5601 -0.6334
  946MOL0     H27670  -1.766   3.676   1.398 -1.0498 -0.1604 -1.9064
  946MOL0     H27671  -2.071   3.770   1.453  1.3190  0.9421 -2.0452
  946MOL0     H27672  -2.005   3.681   1.601  2.3895  0.2218 -0.0291
  946MOL0     H27673  -1.908   3.786   1.510 -2.4424  2.5878  2.8691
  946MOL0     H27674  -2.484   3.528   1.531 -0.0933  0.0871 -0.0606
  946MOL0     H27675  -2.616   3.470   1.733 -0.0699  2.8909  0.4709
  946MOL0     H27676  -2.387   3.261   2.035  0.0916  1.2996 -2.5203
  946MOL0     H27677  -2.435   3.394   2.142 -2.6852  2.5817 -1.2761
  946MOL0     H27678  -2.586   3.149   2.066  1.9496  0.2969  0.3163
  946MOL0     H27679  -2.542   3.204   2.226  2.2984  0.9887  0.1979
  946MOL0     H27680  -2.806   3.253   2.172 -2.4326  1.7773 -0.4575
  946MOL0     H27681  -2.746   3.359   2.048  3.2362 -0.6496 -0.8480
  946MOL0     H27682  -2.680   3.340   2.343  1.7405  0.3932  0.2512
  946MOL0     H27683  -2.619   3.474   2.236 -0.3544 -0.7339 -2.6076
  946MOL0     H27684  -2.801   3.554   2.389  1.9776  0.0194 -0.7065
  946MOL0     H27685  -2.904   3.422   2.309 -0.0912 -0.6621  0.9654
  946MOL0     H27686  -2.758   3.662   2.184  1.2854 -0.3429  1.3889
  946MOL0     H27687  -2.879   3.559   2.107  1.0810 -1.9807  0.9937
  946MOL0     H27688  -2.953   3.750   2.335  1.1236  2.6474 -1.2019
  946MOL0     H27689  -3.060   3.635   2.249 -1.2698  0.3300 -1.4642
  946MOL0     H27690  -2.903   3.838   2.084 -0.8153  0.7067 -2.6419
  946MOL0     H27691  -3.048   3.889   2.169  0.5274 -0.6561  2.3726
  946MOL0     H27692  -2.254   3.469   1.968  0.0334  3.0377 -0.3515
  946MOL0     H27693  -2.123   3.523   1.760  0.7299 -0.3336  0.5842
  946MOL0     H27694  -2.038   3.280   1.318 -1.7435  2.3184 -0.2970
  946MOL0     H27695  -1.795   3.276   1.242 -0.9282 -0.4594  0.6154
  946MOL0     H27696   0.216   4.076   1.389 -0.0899  1.1938 -1.2692
  946MOL0     H27697   0.378   4.037   1.240 -0.1501  1.1486  0.5174
  946MOL0     H27698   0.531   3.577   0.833  1.0031 -0.3215  0.5506
  946MOL0     H27699   0.729   3.590   0.682  0.9585 -0.5638  0.8875
  946MOL0     H27700   0.886   3.639   0.524 -3.9824 -0.3014 -0.7445
  946MOL0     H27701   0.744   3.710   0.442 -0.5841  2.5836 -2.1664
  946MOL0     H27702   0.858   3.881   0.326 -0.4653  0.6977  1.9243
  946MOL0     H27703   0.905   3.717   0.299 -0.1452 -1.4563  1.2159
  946MOL0     H27704   1.121   3.744   0.422 -0.5553 -0.4664  0.3582
  946MOL0     H27705   1.076   3.904   0.475 -1.5168  2.3291 -1.9382
  946MOL0     H27706   1.069   3.972   0.240  0.1896  0.4115 -0.9024
  946MOL0     H27707   1.129   3.808   0.201 -1.2582 -0.8853  0.9980
  946MOL0     H27708   1.472   4.029   0.381 -1.0772  3.0420 -0.1659
  946MOL0     H27709   0.707   4.024   0.711 -2.2926  0.8751 -0.3031
  946MOL0     H27710   0.521   4.017   0.872 -0.2473  0.6299 -0.9262
  947MOL0     O27711   3.389  10.793   3.296 -0.4800  0.3538  0.3460
  947MOL0     C27712   3.417  10.705   3.211  0.6102 -0.4354 -0.5864
  947MOL0     O27713   3.334  10.602   3.165 -0.7629  0.1411  0.8949
  947MOL0     C27714   3.205  10.629   3.160 -0.3799 -0.5183  0.0071
  947MOL0     C27715   3.154  10.709   3.064 -0.0494 -0.0261 -0.7255
  947MOL0     C27716   3.017  10.743   3.055 -1.4093  0.5659 -0.6349
  947MOL0     C27717   2.932  10.684   3.148 -1.0997  0.1032  0.2160
  947MOL0     O27718   2.798  10.715   3.145 -1.0982  0.3630 -0.1777
  947MOL0     C27719   2.768  10.827   3.227  0.1381 -0.2391 -0.2045
  947MOL0     C27720   2.615  10.817   3.230 -0.6071 -0.4842  0.4132
  947MOL0     C27721   2.555  10.717   3.337  0.7869 -0.2111  0.1813
  947MOL0     C27722   2.566  10.571   3.299 -0.0233  0.1082  0.1505
  947MOL0     C27723   2.508  10.484   3.410 -0.4571 -0.2620  0.2609
  947MOL0     C27724   2.608  10.466   3.524 -0.0566 -0.5567 -1.7760
  947MOL0     C27725   2.718  10.361   3.491  0.1089  0.2704 -0.0734
  947MOL0     C27726   2.788  10.292   3.610 -1.2295 -0.1639 -0.1589
  947MOL0     N27727   2.880  10.382   3.659  0.1722  0.2111  0.0636
  947MOL0     C27728   2.844  10.491   3.731 -0.1718 -0.6299  0.7366
  947MOL0     C27729   2.956  10.565   3.742 -0.6006 -0.5079 -0.3621
  947MOL0     C27730   2.969  10.693   3.822 -0.1817  0.0106 -0.3380
  947MOL0     C27731   2.880  10.808   3.773 -0.1316  0.9669 -1.0678
  947MOL0     C27732   2.895  10.844   3.624  1.0742  0.3347  0.8249
  947MOL0     C27733   3.038  10.852   3.586 -0.6981  0.2367  0.1137
  947MOL0     O27734   3.091  10.969   3.655  0.2326  0.3834  0.0387
  947MOL0     C27735   3.229  10.976   3.666 -0.3428  0.9053  0.1597
  947MOL0     C27736   3.298  11.002   3.786 -0.0036  0.2804  0.1011
  947MOL0     C27737   3.442  11.014   3.789 -0.0780  0.0033 -0.0159
  947MOL0     C27738   3.495  11.057   3.926  0.5679 -0.4700  0.1638
  947MOL0     C27739   3.521  11.000   3.674  0.3025  0.1031  0.5378
  947MOL0     C27740   3.663  11.005   3.681  0.4019 -0.1744 -0.7281
  947MOL0     O27741   3.719  10.971   3.806 -0.2342  0.0736 -0.5471
  947MOL0     C27742   3.852  11.000   3.825 -0.0286  0.2537  0.1102
  947MOL0     C27743   3.891  11.094   3.921 -0.0342  0.9230 -0.4602
  947MOL0     C27744   4.030  11.103   3.951 -0.1697 -0.2302  0.2711
  947MOL0     C27745   4.130  11.027   3.890 -1.3444 -0.0758  0.4411
  947MOL0     O27746   4.265  11.045   3.914 -0.2967  0.8325  0.5862
  947MOL0     C27747   4.325  11.148   3.984  0.3515  0.1849  0.6988
  947MOL0     C27748   4.470  11.113   4.002  0.0887 -0.2605 -0.8418
  947MOL0     C27749   4.556  11.185   3.896 -0.4878 -0.5201  0.5327
  947MOL0     C27750   4.700  11.177   3.932 -1.1955  0.4215  0.7663
  947MOL0     C27751   4.789  11.232   3.820 -1.1296  0.2030 -0.6563
  947MOL0     C27752   4.944  11.221   3.839  0.1918  0.2096 -0.5425
  947MOL0     C27753   4.982  11.250   3.990 -0.4753  0.0855 -0.8309
  947MOL0     C27754   5.135  11.239   3.991 -0.9054  1.5669  0.4047
  947MOL0    Cl27755   5.191  11.075   3.967 -0.0428 -0.1863  0.1642
  947MOL0     C27756   4.088  10.951   3.783 -0.0141 -0.0331 -0.4558
  947MOL0     C27757   3.950  10.928   3.757 -0.5100 -0.1000 -0.2422
  947MOL0     O27758   3.727  11.022   3.583 -0.5051  0.0889 -0.1167
  947MOL0     C27759   3.456  10.980   3.549  0.0957 -0.3094  1.0407
  947MOL0     C27760   3.310  10.974   3.547 -0.7345  0.9553 -0.3272
  947MOL0     N27761   3.057  10.497   3.683 -0.0425 -0.1863 -0.5576
  947MOL0     N27762   3.017  10.384   3.639  0.7291  0.0156  0.4552
  947MOL0     C27763   2.988  10.595   3.248  0.4830  0.1648 -0.1558
  947MOL0     C27764   3.125  10.564   3.251  0.7079 -0.0016 -0.0890
  947MOL0     C27765   3.560  10.712   3.166 -0.5629  0.6013 -0.1661
  947MOL0     C27766   3.591  10.665   3.040  0.1634 -0.5756 -0.1696
  947MOL0     C27767   3.722  10.661   3.000  0.1148  1.2216 -0.2120
  947MOL0     C27768   3.825  10.708   3.082  0.4676  0.0935  0.0037
  947MOL0     O27769   3.956  10.700   3.022 -0.0963  0.2068 -0.6682
  947MOL0     C27770   4.071  10.650   3.096 -0.3096 -0.0257  0.4142
  947MOL0     C27771   4.127  10.517   3.019  0.2669 -0.8678 -0.8836
  947MOL0     C27772   4.132  10.534   2.870  0.6092  1.0111 -0.4084
  947MOL0     C27773   4.151  10.394   2.803  0.4673  0.9021  0.2968
  947MOL0     C27774   4.020  10.322   2.795 -0.4099 -0.3736  0.4228
  947MOL0     C27775   3.914  10.267   2.788  0.0678  0.2956  0.2765
  947MOL0     C27776   3.802  10.742   3.213  0.3737 -0.0908 -0.2906
  947MOL0     C27777   3.665  10.745   3.254 -0.8147 -0.6834  0.0155
  947MOL0     H27778   3.221  10.739   2.984 -0.6644  0.1066 -1.1955
  947MOL0     H27779   2.976  10.805   2.976  0.4456  3.1234  0.2494
  947MOL0     H27780   2.812  10.812   3.326  0.4702  0.8949 -0.1671
  947MOL0     H27781   2.789  10.923   3.178  0.1744  0.7439  1.6498
  947MOL0     H27782   2.576  10.916   3.257  1.0283  0.5085 -0.6937
  947MOL0     H27783   2.572  10.789   3.134 -0.2076 -0.3698  0.1971
  947MOL0     H27784   2.600  10.736   3.434 -2.0599  0.5548  1.4595
  947MOL0     H27785   2.448  10.735   3.345  0.9958  1.3369 -0.1748
  947MOL0     H27786   2.505  10.550   3.210  1.4750 -3.0935 -0.2635
  947MOL0     H27787   2.665  10.538   3.267 -0.7645 -2.9028  0.5966
  947MOL0     H27788   2.421  10.522   3.464 -0.7807 -1.7454  0.8274
  947MOL0     H27789   2.474  10.391   3.364  0.1831  0.9529 -2.9757
  947MOL0     H27790   2.647  10.561   3.561  0.9722 -2.1968  1.8096
  947MOL0     H27791   2.548  10.425   3.606  0.2932  0.8477 -0.7969
  947MOL0     H27792   2.678  10.280   3.429  2.0388 -0.3321 -0.5994
  947MOL0     H27793   2.791  10.411   3.428 -0.1045  0.5309 -0.1145
  947MOL0     H27794   2.854  10.212   3.574 -0.8093  0.8280 -1.6694
  947MOL0     H27795   2.721  10.260   3.690 -0.0671  1.8984  1.7400
  947MOL0     H27796   2.745  10.519   3.765 -0.1110  2.1213 -1.0055
  947MOL0     H27797   2.939  10.670   3.924  0.8728 -2.3922 -0.4994
  947MOL0     H27798   3.074  10.724   3.821  0.0605  0.3382  5.4394
  947MOL0     H27799   2.904  10.894   3.837  2.1280 -1.9029  2.3556
  947MOL0     H27800   2.774  10.784   3.781  0.2163 -0.0724  1.6382
  947MOL0     H27801   2.843  10.936   3.599  0.4096 -0.7306 -2.0379
  947MOL0     H27802   2.842  10.768   3.566  0.1568  1.1759  0.5292
  947MOL0     H27803   3.049  10.865   3.478 -1.9928 -3.6351 -0.6440
  947MOL0     H27804   3.090  10.757   3.602 -3.0369 -2.0779 -4.2047
  947MOL0     H27805   3.234  11.009   3.873  3.3600 -0.7015  2.8500
  947MOL0     H27806   3.416  11.115   3.974  0.5219  1.0156 -1.5798
  947MOL0     H27807   3.537  10.974   3.984  0.2282  1.4123  3.2919
  947MOL0     H27808   3.563  11.142   3.913 -0.5128  0.2756 -0.8680
  947MOL0     H27809   3.800  11.132   3.965 -0.5737 -1.0445  0.2299
  947MOL0     H27810   4.059  11.170   4.031  2.4934 -0.0938 -0.6869
  947MOL0     H27811   4.300  11.239   3.930 -0.1562 -0.3243  0.0525
  947MOL0     H27812   4.273  11.158   4.080 -1.9707 -1.4946 -0.2895
  947MOL0     H27813   4.492  11.165   4.096 -0.0567  2.1159 -2.0316
  947MOL0     H27814   4.483  11.005   4.006  1.6250 -0.0979 -0.8283
  947MOL0     H27815   4.521  11.288   3.889 -0.6381 -0.4021  2.3909
  947MOL0     H27816   4.553  11.141   3.797  3.8199  0.4251 -0.2168
  947MOL0     H27817   4.727  11.232   4.023 -1.2964  2.1185 -0.2058
  947MOL0     H27818   4.719  11.071   3.953 -0.0639  0.1082 -1.5642
  947MOL0     H27819   4.781  11.342   3.822  2.8582  0.6891 -2.0552
  947MOL0     H27820   4.766  11.186   3.724 -0.6444 -0.8020 -0.3046
  947MOL0     H27821   4.969  11.116   3.821  1.7916 -0.1255  2.7964
  947MOL0     H27822   4.994  11.293   3.774  2.7946  0.9189  2.0096
  947MOL0     H27823   4.943  11.174   4.058  0.7228  0.8037  0.7247
  947MOL0     H27824   4.941  11.347   4.020  1.4092  0.3650  0.9977
  947MOL0     H27825   5.169  11.282   4.086  0.3701  0.1510  0.6289
  947MOL0     H27826   5.184  11.300   3.914  0.7843  0.0744  0.2379
  947MOL0     H27827   4.172  10.902   3.736  0.5285 -0.9937  1.4123
  947MOL0     H27828   3.922  10.853   3.683  1.0314 -0.4805 -0.4812
  947MOL0     H27829   3.507  10.984   3.453 -0.2530 -1.3268  0.8062
  947MOL0     H27830   3.271  10.967   3.446 -0.1095  1.3544 -0.6044
  947MOL0     H27831   2.912  10.558   3.317 -3.1712  1.8181 -2.9213
  947MOL0     H27832   3.172  10.499   3.325 -2.4266 -0.8413  1.3743
  947MOL0     H27833   3.508  10.635   2.976 -0.5266  1.2583 -0.1979
  947MOL0     H27834   3.755  10.621   2.904 -1.2265  0.5607 -0.4187
  947MOL0     H27835   4.150  10.726   3.097  0.1547 -0.4670 -0.9581
  947MOL0     H27836   4.046  10.617   3.197 -0.5384  1.4403  0.8599
  947MOL0     H27837   4.061  10.434   3.049  1.2808 -1.9068 -1.4585
  947MOL0     H27838   4.222  10.488   3.063 -1.3776 -1.1235  2.8995
  947MOL0     H27839   4.219  10.598   2.850  1.2585  2.3081  5.1194
  947MOL0     H27840   4.041  10.576   2.826 -0.2271  2.9578  2.8793
  947MOL0     H27841   4.217  10.338   2.870  0.8829 -1.6931 -2.1052
  947MOL0     H27842   4.202  10.401   2.707  1.0380 -0.8771  0.4330
  947MOL0     H27843   3.821  10.216   2.776  0.2407  0.3764 -2.0059
  947MOL0     H27844   3.884  10.761   3.281  2.5414 -0.7960 -2.5687
  947MOL0     H27845   3.651  10.778   3.357  0.3251  3.4176 -0.9589
  948MOL0     O27846   7.518   3.192   5.810  0.7023  0.0453 -0.3233
  948MOL0     C27847   7.521   3.101   5.729 -0.0404  0.4387  0.6965
  948MOL0     O27848   7.421   3.020   5.692 -0.1105 -0.1792 -0.0692
  948MOL0     C27849   7.292   3.022   5.743 -0.7198  0.1737  0.5116
  948MOL0     C27850   7.192   3.006   5.656 -0.4836  0.4183  0.0635
  948MOL0     C27851   7.064   2.977   5.701  0.0313 -0.0111  0.3687
  948MOL0     C27852   7.038   2.979   5.839  0.3583 -1.0015 -0.0530
  948MOL0     O27853   6.918   2.962   5.895 -0.1035 -0.2835  0.0278
  948MOL0     C27854   6.893   2.819   5.916  0.6367  0.3722  0.6603
  948MOL0     C27855   6.759   2.794   5.997 -0.6561  0.0238  1.1051
  948MOL0     C27856   6.639   2.835   5.918 -0.0050 -0.0129  0.7035
  948MOL0     C27857   6.502   2.812   5.998 -0.2237  0.1195 -0.1082
  948MOL0     C27858   6.377   2.834   5.911  0.3559  0.3966  0.2582
  948MOL0     C27859   6.243   2.803   5.980 -0.3331  0.4323  0.2192
  948MOL0     C27860   6.134   2.870   5.888 -0.2449 -0.4634  0.3476
  948MOL0     C27861   5.997   2.847   5.950  0.0070 -0.4627 -0.1593
  948MOL0     N27862   5.892   2.880   5.855 -0.2487 -0.6553 -0.3067
  948MOL0     C27863   5.879   2.982   5.763 -0.3488 -0.1343  0.7815
  948MOL0     C27864   5.761   2.960   5.707 -0.3884 -0.7319 -0.2476
  948MOL0     C27865   5.700   3.057   5.608  0.8218  0.2423  0.6009
  948MOL0     C27866   5.644   3.186   5.675 -1.2628 -0.2597  0.2215
  948MOL0     C27867   5.536   3.160   5.776 -0.5116  0.3901 -0.3764
  948MOL0     C27868   5.408   3.157   5.710  0.1988  0.2189 -0.0790
  948MOL0     O27869   5.315   3.154   5.824 -0.6671  0.7404 -0.7932
  948MOL0     C27870   5.185   3.140   5.792  0.7779 -0.0022  0.6407
  948MOL0     C27871   5.128   3.035   5.717 -0.6087 -0.0772 -0.5150
  948MOL0     C27872   4.995   3.034   5.682 -0.6229  0.7863  0.6890
  948MOL0     C27873   4.950   2.899   5.629 -0.5182  0.7722 -0.3286
  948MOL0     C27874   4.906   3.141   5.708  1.3749 -0.7244  0.2433
  948MOL0     C27875   4.765   3.146   5.666  0.3602  0.4363  0.0602
  948MOL0     O27876   4.706   3.260   5.701  0.3208  0.0664  0.3667
  948MOL0     C27877   4.568   3.272   5.689  0.8459 -0.6316 -0.4215
  948MOL0     C27878   4.512   3.294   5.811 -0.0275 -0.0744 -0.3747
  948MOL0     C27879   4.372   3.278   5.829 -0.5297  0.0799 -0.4292
  948MOL0     C27880   4.282   3.246   5.725  0.5959 -0.5883 -0.4434
  948MOL0     O27881   4.146   3.233   5.750 -0.3863 -0.3910  0.0161
  948MOL0     C27882   4.102   3.101   5.738 -0.0656  0.3547 -0.5145
  948MOL0     C27883   3.950   3.085   5.772 -0.8169 -1.1458 -1.3496
  948MOL0     C27884   3.935   3.103   5.927 -0.3638 -0.2897  0.8626
  948MOL0     C27885   3.788   3.099   5.966 -0.3348 -0.1060 -0.0708
  948MOL0     C27886   3.767   3.202   6.079 -0.0469  0.0458 -0.3065
  948MOL0     C27887   3.630   3.188   6.147  0.2748 -0.3341 -0.1060
  948MOL0     C27888   3.614   3.270   6.276 -0.1184 -0.3859  0.1675
  948MOL0     C27889   3.465   3.273   6.324 -0.4104  0.4743 -0.5455
  948MOL0    Cl27890   3.348   3.355   6.205 -0.0538 -0.2995 -0.0501
  948MOL0     C27891   4.339   3.228   5.600  0.2324  0.5564  0.1666
  948MOL0     C27892   4.482   3.241   5.581 -0.4547  0.3755 -0.9226
  948MOL0     O27893   4.719   3.064   5.594  0.2391  0.0421  0.2056
  948MOL0     C27894   4.958   3.249   5.780  0.0013  0.3121  0.0893
  948MOL0     C27895   5.095   3.243   5.818  0.0657 -0.4394  0.3614
  948MOL0     N27896   5.706   2.844   5.758 -0.1191  0.7736 -0.3298
  948MOL0     N27897   5.785   2.798   5.848 -0.3033 -0.6518  0.0852
  948MOL0     C27898   7.135   2.997   5.932 -0.2938  0.4157 -1.2138
  948MOL0     C27899   7.260   3.026   5.880  0.2643  0.1265  0.6512
  948MOL0     C27900   7.651   3.095   5.655  0.9821  0.3309 -0.3847
  948MOL0     C27901   7.762   3.167   5.700 -0.0153 -0.3825  0.0038
  948MOL0     C27902   7.881   3.142   5.633  0.0285 -0.9767  0.8723
  948MOL0     C27903   7.894   3.070   5.519  0.5521 -0.0846 -0.3084
  948MOL0     O27904   8.004   3.053   5.446 -0.6419 -0.7148  0.6266
  948MOL0     C27905   8.096   3.165   5.434 -0.1431 -0.0185 -0.2818
  948MOL0     C27906   8.104   3.194   5.281 -0.8381 -0.1054 -0.3552
  948MOL0     C27907   8.194   3.325   5.260  0.3961 -0.7444 -0.0566
  948MOL0     C27908   8.338   3.306   5.304 -1.5001 -0.3422 -1.0982
  948MOL0     C27909   8.424   3.429   5.297  0.0352 -0.4096 -0.1003
  948MOL0     C27910   8.488   3.533   5.289  0.3464 -0.4175 -0.3258
  948MOL0     C27911   7.783   3.004   5.487  0.7268  0.8746  0.3384
  948MOL0     C27912   7.663   3.014   5.549 -0.5636  0.4786 -0.7430
  948MOL0     H27913   7.207   3.005   5.549 -0.6968 -0.7562  0.0250
  948MOL0     H27914   6.988   2.948   5.629  0.6341 -0.8904  0.0668
  948MOL0     H27915   6.870   2.773   5.820 -0.9154 -0.8039  1.5371
  948MOL0     H27916   6.968   2.764   5.974 -0.3954 -0.6860  1.0487
  948MOL0     H27917   6.754   2.690   6.030 -0.3487 -0.3490  0.0385
  948MOL0     H27918   6.757   2.853   6.089 -1.1031  0.2490  0.9524
  948MOL0     H27919   6.658   2.938   5.884 -2.3193 -0.2061 -1.4126
  948MOL0     H27920   6.632   2.767   5.832 -1.4594 -0.5897  1.2523
  948MOL0     H27921   6.500   2.714   6.047  2.0449 -0.5849 -1.3018
  948MOL0     H27922   6.509   2.893   6.071  0.8797  0.8645 -0.9954
  948MOL0     H27923   6.380   2.941   5.892  1.1734  0.6130  1.5038
  948MOL0     H27924   6.388   2.772   5.821 -0.1373  0.3185  0.2495
  948MOL0     H27925   6.242   2.694   5.993  2.3105  0.2050 -0.9388
  948MOL0     H27926   6.242   2.842   6.082 -1.9648 -0.7900  0.7226
  948MOL0     H27927   6.164   2.974   5.868 -1.8241 -0.0796 -0.2229
  948MOL0     H27928   6.135   2.817   5.792 -1.0125 -0.0894  0.1244
  948MOL0     H27929   5.992   2.891   6.050  0.1991  0.8890 -0.7159
  948MOL0     H27930   5.998   2.740   5.973  2.2017 -0.4432  0.0600
  948MOL0     H27931   5.943   3.064   5.734 -1.5495 -0.4180 -3.2675
  948MOL0     H27932   5.785   3.093   5.549  0.8420 -2.1887 -0.9900
  948MOL0     H27933   5.620   3.023   5.543  0.7510  0.5313  0.5367
  948MOL0     H27934   5.617   3.259   5.598  1.3687  1.4191  0.7584
  948MOL0     H27935   5.735   3.222   5.724 -2.1973  1.8282  0.5450
  948MOL0     H27936   5.528   3.244   5.846 -1.8391  0.3132 -0.4134
  948MOL0     H27937   5.574   3.078   5.837  4.5082  1.4371 -1.5680
  948MOL0     H27938   5.410   3.059   5.662 -0.2512 -1.7419  3.5530
  948MOL0     H27939   5.382   3.242   5.646 -0.7113 -0.6865 -0.9563
  948MOL0     H27940   5.199   2.956   5.694  1.1856  1.9350 -2.3140
  948MOL0     H27941   5.026   2.827   5.660 -2.4660 -1.0002  0.6508
  948MOL0     H27942   4.851   2.868   5.665  0.1932  0.4562  1.4829
  948MOL0     H27943   4.948   2.897   5.520  1.1010 -0.8517 -0.3711
  948MOL0     H27944   4.577   3.305   5.898  0.0731  1.4456 -0.6066
  948MOL0     H27945   4.330   3.285   5.929  0.5314 -0.0501  0.0321
  948MOL0     H27946   4.126   3.066   5.637  1.1752 -0.6875  0.1175
  948MOL0     H27947   4.158   3.040   5.809  0.3555  1.2405 -0.0610
  948MOL0     H27948   3.894   3.163   5.720  3.3805  2.8018 -0.6152
  948MOL0     H27949   3.917   2.988   5.734  0.7112 -1.6283 -1.5479
  948MOL0     H27950   3.986   3.196   5.956  1.5516 -0.9113 -0.3365
  948MOL0     H27951   3.980   3.020   5.982  0.5656  0.0423  0.6370
  948MOL0     H27952   3.728   3.131   5.880  1.2642 -0.3520 -1.3339
  948MOL0     H27953   3.769   2.996   5.998 -1.7929 -0.3329 -1.5267
  948MOL0     H27954   3.779   3.299   6.029 -1.2771 -0.0137 -0.7709
  948MOL0     H27955   3.849   3.194   6.150 -1.4164  0.7081  1.4200
  948MOL0     H27956   3.552   3.222   6.079 -0.4212 -0.9235  0.3899
  948MOL0     H27957   3.629   3.081   6.167 -0.3420 -0.2129  0.5210
  948MOL0     H27958   3.663   3.368   6.267  0.1532 -0.6701 -2.3124
  948MOL0     H27959   3.670   3.217   6.354 -1.2261 -2.0926 -0.1464
  948MOL0     H27960   3.462   3.317   6.424 -0.0544  2.9027 -1.5301
  948MOL0     H27961   3.436   3.168   6.324  0.9642  0.0155 -3.1660
  948MOL0     H27962   4.279   3.211   5.511  1.9533  3.4010 -1.6851
  948MOL0     H27963   4.529   3.229   5.484  2.5543  3.0953  0.0077
  948MOL0     H27964   4.901   3.337   5.808 -2.2380 -0.7852 -0.8055
  948MOL0     H27965   5.131   3.328   5.876 -1.1187 -1.4326  2.7064
  948MOL0     H27966   7.115   2.985   6.038 -2.2330 -1.1924 -1.6987
  948MOL0     H27967   7.338   3.046   5.953  1.2140  2.5842 -0.9026
  948MOL0     H27968   7.757   3.220   5.795  0.1087 -0.3961  0.0172
  948MOL0     H27969   7.971   3.185   5.678  0.7393 -1.8101  0.2834
  948MOL0     H27970   8.080   3.258   5.490  3.5298  0.2601  0.5666
  948MOL0     H27971   8.193   3.129   5.469  0.7549  0.8284 -1.8020
  948MOL0     H27972   8.009   3.213   5.231 -0.3966 -0.2506 -1.2531
  948MOL0     H27973   8.150   3.114   5.222  0.7164  0.2433  0.3189
  948MOL0     H27974   8.154   3.409   5.319  1.7529 -0.8598  1.0922
  948MOL0     H27975   8.187   3.357   5.156 -2.0635 -0.7109  0.0619
  948MOL0     H27976   8.387   3.234   5.238  1.4922 -0.5808  1.1739
  948MOL0     H27977   8.358   3.254   5.398  0.1150 -1.4465 -1.9983
  948MOL0     H27978   8.537   3.628   5.281  2.6287 -1.6969 -2.5950
  948MOL0     H27979   7.794   2.953   5.392  1.2325 -0.7381  1.2202
  948MOL0     H27980   7.580   2.946   5.531 -0.7451  0.3085  0.6363
  949MOL0     O27981   3.184   1.477   9.818  0.7339 -0.0132  0.4248
  949MOL0     C27982   3.131   1.450   9.931  0.4368  0.2312 -0.2105
  949MOL0     O27983   3.170   1.343  10.012 -0.3307  0.1487  0.0957
  949MOL0     C27984   3.280   1.262   9.986 -0.0601 -0.4351 -0.0093
  949MOL0     C27985   3.399   1.284  10.054 -0.2079 -0.1219 -0.4341
  949MOL0     C27986   3.512   1.217  10.015 -0.2769  0.4471 -0.1886
  949MOL0     C27987   3.508   1.123   9.921  1.0100 -0.4147  0.3457
  949MOL0     O27988   3.617   1.053   9.883 -0.3631 -0.4578  0.0852
  949MOL0     C27989   3.736   1.125   9.854  0.5280 -0.2259  0.7146
  949MOL0     C27990   3.854   1.048   9.910  0.7111 -0.5708 -0.2871
  949MOL0     C27991   3.991   1.092   9.871 -0.4127  0.3220  0.0979
  949MOL0     C27992   4.111   1.032   9.959  0.4875 -0.2951 -0.4461
  949MOL0     C27993   4.143   0.891   9.917 -0.8565  1.0371 -0.0293
  949MOL0     C27994   4.267   0.831   9.992 -0.1744  0.1188 -0.0822
  949MOL0     C27995   4.237   0.817  10.150  0.2093  0.1358  0.4582
  949MOL0     C27996   4.351   0.743  10.219 -0.2812  0.0961  0.0152
  949MOL0     N27997   4.388   0.610  10.164  0.4339  0.5884 -0.1905
  949MOL0     C27998   4.512   0.560  10.153  0.3025  0.5677 -1.0999
  949MOL0     C27999   4.505   0.430  10.118  0.0569  0.1601 -0.3031
  949MOL0     C28000   4.622   0.335  10.092  0.1133  0.1607  0.4702
  949MOL0     C28001   4.767   0.397  10.090  0.9842 -0.3247  0.1631
  949MOL0     C28002   4.822   0.438   9.957 -0.8319 -0.0328  0.1850
  949MOL0     C28003   4.795   0.585   9.928  0.1660  0.4054 -1.2497
  949MOL0     O28004   4.661   0.588   9.875  0.1131 -0.2890 -0.1305
  949MOL0     C28005   4.604   0.690   9.813 -0.9315 -0.6145  0.6419
  949MOL0     C28006   4.668   0.817   9.807  0.2941 -0.2155 -0.0138
  949MOL0     C28007   4.607   0.931   9.765  0.1154  0.6328  0.2318
  949MOL0     C28008   4.689   1.064   9.794  0.9521  0.5317 -0.0812
  949MOL0     C28009   4.480   0.912   9.702  0.2897 -1.5492  0.2830
  949MOL0     C28010   4.413   1.027   9.638  0.5219  0.3734  0.1664
  949MOL0     O28011   4.288   1.004   9.597  0.3643 -0.0431 -0.0619
  949MOL0     C28012   4.215   1.107   9.540  0.6551 -0.4039  0.1727
  949MOL0     C28013   4.212   1.229   9.598  0.0843  0.8993  0.0264
  949MOL0     C28014   4.157   1.336   9.533  0.1992  0.1931  0.0232
  949MOL0     C28015   4.086   1.331   9.411 -0.2532  0.8556 -0.7697
  949MOL0     O28016   4.034   1.439   9.344 -0.6704 -0.8136 -0.3182
  949MOL0     C28017   4.073   1.570   9.390 -0.1028  0.1409 -0.3806
  949MOL0     C28018   4.047   1.669   9.277  0.8046 -0.5235 -0.3244
  949MOL0     C28019   4.057   1.814   9.328  0.0803 -0.0089  0.4215
  949MOL0     C28020   4.061   1.909   9.216 -0.0040  0.0464  0.3210
  949MOL0     C28021   4.057   2.059   9.250  0.4751  0.4135  0.2944
  949MOL0     C28022   4.180   2.103   9.315 -0.4381 -0.3998  0.4996
  949MOL0     C28023   4.182   2.250   9.335 -0.0649  0.6354  0.3254
  949MOL0     C28024   4.308   2.298   9.393  0.1814  0.2371 -0.1231
  949MOL0    Cl28025   4.302   2.270   9.571 -0.1608  0.2929 -0.3363
  949MOL0     C28026   4.058   1.195   9.370 -0.1935  0.6381  0.4600
  949MOL0     C28027   4.121   1.088   9.430 -0.6988  0.3305 -0.5728
  949MOL0     O28028   4.477   1.129   9.621  1.1553 -0.5759 -0.3709
  949MOL0     C28029   4.416   0.786   9.690  0.7142 -0.2149  0.3448
  949MOL0     C28030   4.484   0.679   9.749 -0.0413 -0.1337  0.3204
  949MOL0     N28031   4.367   0.409  10.104  0.2254 -0.1123 -0.3783
  949MOL0     N28032   4.305   0.511  10.131  0.4710  0.8365 -0.0843
  949MOL0     C28033   3.380   1.089   9.873 -0.0752  0.1379  0.0899
  949MOL0     C28034   3.266   1.156   9.910  0.2380 -0.4888 -0.3561
  949MOL0     C28035   3.008   1.523   9.971  0.3218 -0.1345  0.8373
  949MOL0     C28036   2.932   1.500  10.089  0.9854 -0.4315  0.2135
  949MOL0     C28037   2.812   1.568  10.115 -0.8829  0.2381 -0.8070
  949MOL0     C28038   2.784   1.681  10.042  0.8418  0.0023 -0.3472
  949MOL0     O28039   2.677   1.744  10.095 -0.1632 -0.0834  0.3606
  949MOL0     C28040   2.639   1.868  10.042  0.1124 -0.1258  0.3351
  949MOL0     C28041   2.545   1.853   9.926  0.2972 -0.1958 -0.2461
  949MOL0     C28042   2.413   1.783   9.982  0.1926  0.0707  0.3823
  949MOL0     C28043   2.324   1.893  10.049  0.0328 -0.3236 -0.2863
  949MOL0     C28044   2.187   1.860  10.060 -0.8865 -0.0589  0.0682
  949MOL0     C28045   2.071   1.837  10.052  0.1037  0.1752  0.1786
  949MOL0     C28046   2.859   1.712   9.932  0.5249  0.6800 -0.5132
  949MOL0     C28047   2.969   1.636   9.891  0.1034 -0.0165 -0.4677
  949MOL0     H28048   3.407   1.359  10.132 -0.0527 -1.9215  1.3674
  949MOL0     H28049   3.608   1.235  10.062  0.0014  2.2924 -1.3416
  949MOL0     H28050   3.741   1.137   9.745 -2.5369 -0.7967  0.4197
  949MOL0     H28051   3.731   1.225   9.897  0.2933 -1.4749  3.8001
  949MOL0     H28052   3.842   1.047  10.019 -0.7498  1.8141 -0.3385
  949MOL0     H28053   3.838   0.946   9.875 -1.3631  0.7984 -3.8972
  949MOL0     H28054   4.013   1.066   9.767 -0.1274 -0.0790  0.2547
  949MOL0     H28055   3.990   1.201   9.870 -1.3245  0.3494 -2.0638
  949MOL0     H28056   4.197   1.099   9.944  0.7915 -0.8332 -1.1728
  949MOL0     H28057   4.080   1.034  10.064  1.5687  2.8722 -0.0786
  949MOL0     H28058   4.053   0.838   9.951  0.2314 -0.0976  1.1872
  949MOL0     H28059   4.158   0.879   9.809  1.4314 -2.9114  0.5184
  949MOL0     H28060   4.277   0.729   9.954  1.4021  0.1367  0.1964
  949MOL0     H28061   4.362   0.881   9.969  0.6036 -0.5886  1.4244
  949MOL0     H28062   4.222   0.916  10.194 -2.3285  0.0669 -0.0960
  949MOL0     H28063   4.148   0.757  10.173  0.0938 -0.9239 -2.3340
  949MOL0     H28064   4.334   0.737  10.327  0.3175  0.2942  0.1243
  949MOL0     H28065   4.440   0.805  10.208  0.6046 -0.6535  2.2340
  949MOL0     H28066   4.608   0.606  10.173  0.8681 -0.1006 -2.2112
  949MOL0     H28067   4.631   0.247  10.156 -0.7424  0.5176  1.0928
  949MOL0     H28068   4.610   0.302   9.988 -0.7061 -1.3238  1.0118
  949MOL0     H28069   4.828   0.311  10.116 -2.3169 -2.9233 -0.0400
  949MOL0     H28070   4.783   0.469  10.171  2.2411  0.3078 -0.6180
  949MOL0     H28071   4.766   0.381   9.882 -3.1911  1.6874  0.5312
  949MOL0     H28072   4.929   0.418   9.951 -0.9991 -0.9620  0.2314
  949MOL0     H28073   4.868   0.619   9.853 -1.0464  0.2688 -2.5421
  949MOL0     H28074   4.804   0.644  10.019 -0.5449  0.3215 -1.1224
  949MOL0     H28075   4.768   0.827   9.848  0.6282  0.2464 -0.8965
  949MOL0     H28076   4.613   1.125   9.844 -1.5527 -0.7316 -2.0769
  949MOL0     H28077   4.775   1.054   9.861  0.8838  1.0409  0.0912
  949MOL0     H28078   4.719   1.109   9.699 -4.4701  0.2312 -2.3171
  949MOL0     H28079   4.276   1.246   9.684  0.3376  3.5076 -0.5837
  949MOL0     H28080   4.185   1.433   9.573  1.8192 -0.0289 -0.5061
  949MOL0     H28081   4.009   1.603   9.473 -1.4881 -0.2888 -1.2548
  949MOL0     H28082   4.179   1.565   9.418 -0.2579 -2.8320  0.0247
  949MOL0     H28083   4.117   1.652   9.194  0.9607 -2.4942  0.1657
  949MOL0     H28084   3.950   1.638   9.236  1.4645  0.0487 -2.4438
  949MOL0     H28085   4.150   1.825   9.385  3.3574 -0.3393 -4.3300
  949MOL0     H28086   3.968   1.835   9.389  1.3748  0.9345  2.0972
  949MOL0     H28087   4.158   1.893   9.169 -1.0994 -0.3328 -1.9103
  949MOL0     H28088   3.992   1.887   9.135  2.7485 -1.2408 -1.8474
  949MOL0     H28089   3.962   2.076   9.302 -0.9499  2.0093 -2.6048
  949MOL0     H28090   4.057   2.117   9.158  2.0685  2.4997  1.5191
  949MOL0     H28091   4.205   2.053   9.409  2.2092 -1.1532 -0.4904
  949MOL0     H28092   4.263   2.080   9.247 -0.5516  0.2199  0.1439
  949MOL0     H28093   4.101   2.278   9.403 -2.2822 -4.8017  0.4190
  949MOL0     H28094   4.160   2.308   9.244 -1.6700 -0.3086  0.0849
  949MOL0     H28095   4.331   2.405   9.382  0.0795  0.5203  1.9854
  949MOL0     H28096   4.399   2.245   9.362  1.5902  1.7760  1.1603
  949MOL0     H28097   3.987   1.168   9.292  1.9669 -2.2336 -0.6841
  949MOL0     H28098   4.109   0.988   9.387 -0.6284 -0.9023  2.0973
  949MOL0     H28099   4.319   0.772   9.644  0.7378 -0.1146  0.2620
  949MOL0     H28100   4.442   0.579   9.747  2.5942 -1.3833  1.8751
  949MOL0     H28101   3.368   1.006   9.804 -2.2474 -1.9433  2.7402
  949MOL0     H28102   3.168   1.133   9.871  0.3898  0.2985 -1.2315
  949MOL0     H28103   2.958   1.406  10.138 -0.3169 -0.3906  1.0159
  949MOL0     H28104   2.754   1.537  10.202  1.2178 -0.4605  0.4256
  949MOL0     H28105   2.587   1.921  10.122 -1.4933 -1.9147  0.5576
  949MOL0     H28106   2.721   1.933  10.012 -1.2212  1.4756 -0.0281
  949MOL0     H28107   2.584   1.795   9.842 -0.0445 -0.2326 -0.3789
  949MOL0     H28108   2.524   1.948   9.876 -2.2815 -1.4667 -1.8065
  949MOL0     H28109   2.432   1.704  10.055 -1.2592  1.3033  2.2121
  949MOL0     H28110   2.367   1.730   9.899  0.1352  0.8548 -0.1005
  949MOL0     H28111   2.338   1.985   9.991  0.3585 -0.5040 -0.4983
  949MOL0     H28112   2.361   1.909  10.151 -2.6960 -1.2848  0.9411
  949MOL0     H28113   1.967   1.831  10.028  0.8258 -2.0565 -3.1301
  949MOL0     H28114   2.822   1.795   9.874  1.8670 -0.2446 -2.8133
  949MOL0     H28115   3.013   1.664   9.796 -4.1838  4.8676 -1.5141
  950MOL0     O28116   4.734  11.068   5.607  0.2113  0.1650 -0.5226
  950MOL0     C28117   4.826  11.152   5.619  0.6947 -0.0987 -0.5780
  950MOL0     O28118   4.806  11.285   5.593 -0.4643 -0.9507 -0.5237
  950MOL0     C28119   4.689  11.358   5.586 -0.6581  0.1160  0.4624
  950MOL0     C28120   4.714  11.497   5.552  0.1195  0.3146 -0.1666
  950MOL0     C28121   4.613  11.594   5.575 -0.3609  0.1842 -0.1842
  950MOL0     C28122   4.489  11.555   5.619 -0.1704  0.6507 -0.9930
  950MOL0     O28123   4.380  11.640   5.627 -0.5003 -0.0110  0.1076
  950MOL0     C28124   4.375  11.756   5.538 -0.1612  0.4288  0.3010
  950MOL0     C28125   4.234  11.812   5.544  0.2757 -0.1119  0.8024
  950MOL0     C28126   4.138  11.716   5.466  0.6170 -0.3145 -0.2269
  950MOL0     C28127   3.999  11.773   5.502  0.4469  1.4766  0.3442
  950MOL0     C28128   3.886  11.703   5.426  0.0378  0.9798  0.2201
  950MOL0     C28129   3.859  11.780   5.294  0.6389  0.3145  0.0899
  950MOL0     C28130   3.743  11.725   5.208  0.6042 -0.2355 -0.0151
  950MOL0     C28131   3.775  11.598   5.123  0.1280  0.0864 -1.0200
  950MOL0     N28132   3.901  11.619   5.041  0.4432 -0.5106 -0.6343
  950MOL0     C28133   3.928  11.739   4.979  0.1317 -1.0245  0.4606
  950MOL0     C28134   4.055  11.729   4.933  0.0836 -0.8013  0.8496
  950MOL0     C28135   4.129  11.847   4.883  0.3789 -0.8447  0.1419
  950MOL0     C28136   4.244  11.889   4.963 -1.2178 -0.3872 -0.5776
  950MOL0     C28137   4.224  11.912   5.117  0.8572 -0.2288  1.2665
  950MOL0     C28138   4.342  11.966   5.189  0.0654  0.0152  0.3107
  950MOL0     O28139   4.430  11.856   5.198  0.1890  0.3273  0.0592
  950MOL0     C28140   4.559  11.878   5.256  0.1232 -0.4871  0.0060
  950MOL0     C28141   4.606  11.990   5.319  0.3988 -0.2089 -1.7145
  950MOL0     C28142   4.741  11.999   5.368 -0.1354  0.3101 -0.2696
  950MOL0     C28143   4.793  12.111   5.442  0.3620  0.6573 -0.2672
  950MOL0     C28144   4.827  11.889   5.351  0.3521  0.9493  0.4435
  950MOL0     C28145   4.968  11.883   5.390 -0.8762  0.6068 -0.0264
  950MOL0     O28146   5.063  11.977   5.350 -0.0974  0.3895  0.1931
  950MOL0     C28147   5.197  11.937   5.347 -0.0541 -0.2257 -0.0652
  950MOL0     C28148   5.244  11.821   5.289 -0.5255  0.3530 -0.2649
  950MOL0     C28149   5.381  11.780   5.292  0.0680  0.4547  0.7510
  950MOL0     C28150   5.480  11.866   5.347 -0.8341  0.3695 -0.1643
  950MOL0     O28151   5.607  11.822   5.340  0.2800  0.4474  0.1307
  950MOL0     C28152   5.716  11.898   5.406 -0.9938  0.0564  0.3666
  950MOL0     C28153   5.837  11.813   5.387 -0.5708 -0.5061 -0.0091
  950MOL0     C28154   5.973  11.867   5.444  0.1658 -0.2824 -0.3138
  950MOL0     C28155   6.078  11.774   5.389  0.2295 -1.0900  0.6215
  950MOL0     C28156   6.225  11.821   5.418  1.2823  0.0660  0.2263
  950MOL0     C28157   6.319  11.703   5.430 -0.9358  0.3297 -0.5468
  950MOL0     C28158   6.459  11.738   5.493 -0.2167  0.4838  1.4177
  950MOL0     C28159   6.548  11.610   5.513  0.3034  0.0630 -0.3195
  950MOL0    Cl28160   6.709  11.659   5.571  0.2041  0.3787 -0.3765
  950MOL0     C28161   5.435  11.988   5.394 -0.2089  0.0976 -0.0508
  950MOL0     C28162   5.294  12.013   5.407  0.1478 -0.0941  0.3952
  950MOL0     O28163   4.992  11.784   5.457 -0.3525 -0.4538 -0.0980
  950MOL0     C28164   4.779  11.769   5.284  0.0235 -0.0589 -0.5354
  950MOL0     C28165   4.645  11.774   5.235  0.1138  0.6094 -0.6842
  950MOL0     N28166   4.096  11.601   4.971  0.3046  0.6116 -1.4639
  950MOL0     N28167   4.000  11.529   5.017  0.1953  0.4109 -0.5155
  950MOL0     C28168   4.470  11.422   5.654 -0.6196  0.1950 -0.4944
  950MOL0     C28169   4.563  11.321   5.637 -0.5505 -0.0755  0.2445
  950MOL0     C28170   4.959  11.107   5.642  0.2829  0.5372  1.3433
  950MOL0     C28171   4.980  10.976   5.665 -0.7698  0.4174 -0.2432
  950MOL0     C28172   5.115  10.934   5.673  0.3418 -0.0221 -0.0637
  950MOL0     C28173   5.223  11.018   5.644  0.5791 -1.1720 -0.1080
  950MOL0     O28174   5.350  10.959   5.639 -0.3719 -0.1685  0.7125
  950MOL0     C28175   5.468  11.027   5.601  0.1186  0.1826 -0.3438
  950MOL0     C28176   5.593  10.940   5.622 -0.1666  0.3180 -0.1125
  950MOL0     C28177   5.578  10.810   5.548  1.0116  0.3213 -0.4354
  950MOL0     C28178   5.702  10.721   5.543  0.5408  0.4548 -0.2877
  950MOL0     C28179   5.737  10.669   5.676 -0.0809 -0.0886 -0.1146
  950MOL0     C28180   5.745  10.609   5.784  0.2106 -1.0571  0.2169
  950MOL0     C28181   5.201  11.152   5.613  0.1093  0.0872  0.3508
  950MOL0     C28182   5.069  11.199   5.618 -0.0255 -0.2787  0.3472
  950MOL0     H28183   4.809  11.526   5.506 -0.0470 -0.3608 -0.9582
  950MOL0     H28184   4.616  11.699   5.547  0.8799  0.7382  1.8011
  950MOL0     H28185   4.443  11.834   5.575 -1.6347  2.1232 -0.4785
  950MOL0     H28186   4.397  11.740   5.432  0.5123 -1.3885  0.6759
  950MOL0     H28187   4.199  11.823   5.647  2.6129 -0.2404  1.6592
  950MOL0     H28188   4.232  11.913   5.503 -0.5473  0.2559  1.7066
  950MOL0     H28189   4.163  11.722   5.359  2.6580  2.6878  0.2989
  950MOL0     H28190   4.145  11.611   5.497  0.7272 -0.9053 -2.0952
  950MOL0     H28191   3.976  11.756   5.608  1.8499 -2.1822  0.2280
  950MOL0     H28192   4.002  11.882   5.492 -1.7048  1.5594  0.3139
  950MOL0     H28193   3.919  11.599   5.417  0.6548  1.3077 -1.6024
  950MOL0     H28194   3.794  11.704   5.486  0.1652  1.9733  0.4124
  950MOL0     H28195   3.825  11.881   5.321  2.2407  0.2735  2.5868
  950MOL0     H28196   3.949  11.783   5.231 -0.7686 -0.7367 -2.0969
  950MOL0     H28197   3.664  11.704   5.280  0.4487  1.7972  0.4855
  950MOL0     H28198   3.707  11.799   5.136 -1.4382 -0.7821  0.3790
  950MOL0     H28199   3.692  11.581   5.054 -0.7781  1.1892 -0.2484
  950MOL0     H28200   3.793  11.514   5.189 -0.8285 -0.3205 -1.2625
  950MOL0     H28201   3.866  11.828   4.986  0.0200 -1.1385  0.9699
  950MOL0     H28202   4.156  11.820   4.780  1.8261 -2.0940  0.8168
  950MOL0     H28203   4.056  11.928   4.876  0.3499 -0.9644 -1.5030
  950MOL0     H28204   4.287  11.980   4.919  0.2253  0.1411  1.7386
  950MOL0     H28205   4.316  11.808   4.953  0.4647  0.9609  0.0935
  950MOL0     H28206   4.182  11.817   5.150  1.2557 -0.6939  0.4698
  950MOL0     H28207   4.145  11.988   5.126 -0.9462 -1.8112 -0.3065
  950MOL0     H28208   4.316  12.009   5.286 -1.8214 -0.6441  0.1366
  950MOL0     H28209   4.392  12.048   5.137 -0.4533  0.3932  0.4074
  950MOL0     H28210   4.546  12.080   5.327  0.2528 -0.3086 -1.6778
  950MOL0     H28211   4.707  12.177   5.460 -0.2418 -0.3877  0.8529
  950MOL0     H28212   4.841  12.081   5.536  0.0512  1.6799  0.2381
  950MOL0     H28213   4.866  12.172   5.388  2.6836  1.0835  2.9845
  950MOL0     H28214   5.174  11.750   5.246  2.3059 -1.0155 -3.1007
  950MOL0     H28215   5.418  11.685   5.255  0.4851  1.2056 -0.8550
  950MOL0     H28216   5.741  11.996   5.363 -3.5351  0.5529 -0.1457
  950MOL0     H28217   5.698  11.916   5.512  1.9308  0.4207  0.8797
  950MOL0     H28218   5.806  11.722   5.439  1.3633  0.3404  2.8497
  950MOL0     H28219   5.844  11.797   5.279  0.6660 -1.8543  0.2431
  950MOL0     H28220   5.967  11.863   5.553 -1.3739 -0.9899 -0.3947
  950MOL0     H28221   5.988  11.966   5.401  0.7876 -0.5938 -0.8444
  950MOL0     H28222   6.077  11.682   5.449 -0.5724 -1.2787  0.3221
  950MOL0     H28223   6.061  11.749   5.284  1.4720 -0.6338  0.2900
  950MOL0     H28224   6.217  11.871   5.516 -1.4309 -1.8437  1.0901
  950MOL0     H28225   6.247  11.886   5.332 -0.4363 -1.8848 -1.7809
  950MOL0     H28226   6.273  11.634   5.501 -1.4239  3.5663  2.5583
  950MOL0     H28227   6.333  11.652   5.334 -1.4503  0.9276 -0.9493
  950MOL0     H28228   6.445  11.789   5.589 -1.1938  0.9834  1.0269
  950MOL0     H28229   6.516  11.792   5.416 -0.4979 -0.6703  0.3577
  950MOL0     H28230   6.562  11.562   5.415 -0.2527 -1.7816  0.4694
  950MOL0     H28231   6.497  11.531   5.569 -0.6763 -1.8675 -3.6316
  950MOL0     H28232   5.501  12.061   5.440 -0.7277 -0.5584  1.8069
  950MOL0     H28233   5.258  12.098   5.464 -0.4566  1.0905 -1.6203
  950MOL0     H28234   4.848  11.685   5.280  3.0395  2.0862  1.7815
  950MOL0     H28235   4.590  11.687   5.200 -2.1382 -0.5564  4.6196
  950MOL0     H28236   4.372  11.388   5.683  0.8541 -1.5358  2.9556
  950MOL0     H28237   4.542  11.219   5.667 -2.2438  0.1013 -0.2574
  950MOL0     H28238   4.910  10.894   5.678 -0.8511  0.3696 -0.9203
  950MOL0     H28239   5.150  10.834   5.696 -2.9944 -0.5576  3.6875
  950MOL0     H28240   5.468  11.066   5.499  2.0753 -0.5968 -0.6860
  950MOL0     H28241   5.483  11.111   5.670  1.8340 -1.0601  0.8763
  950MOL0     H28242   5.632  10.931   5.724 -0.6108  1.4167  0.1571
  950MOL0     H28243   5.675  10.990   5.569  2.3497 -0.7896  2.4643
  950MOL0     H28244   5.552  10.826   5.443  1.9604 -0.0803 -0.7481
  950MOL0     H28245   5.500  10.749   5.594  1.8507  0.1913  0.8748
  950MOL0     H28246   5.790  10.766   5.497  1.9905 -3.2548 -1.5453
  950MOL0     H28247   5.683  10.624   5.497  3.8793  0.1413 -1.2823
  950MOL0     H28248   5.748  10.556   5.877 -1.0016 -1.8965 -0.1903
  950MOL0     H28249   5.281  11.222   5.592 -1.0274  1.1005 -0.7591
  950MOL0     H28250   5.040  11.303   5.604  0.5428 -0.1310  0.2288
  951MOL0     O28251   1.878   4.103   8.506 -0.5292  0.1394 -0.4805
  951MOL0     C28252   1.841   4.076   8.623 -0.2616 -0.1813  0.9285
  951MOL0     O28253   1.726   4.018   8.653  0.3306 -0.3977  0.6366
  951MOL0     C28254   1.627   4.002   8.558 -0.0612  0.8436  0.2693
  951MOL0     C28255   1.661   3.921   8.440 -0.5748  1.2135 -0.0433
  951MOL0     C28256   1.557   3.895   8.355  0.8425 -0.2960  0.8285
  951MOL0     C28257   1.430   3.948   8.370 -0.4975  0.1673  0.3608
  951MOL0     O28258   1.337   3.913   8.281  0.5033  0.0448 -0.3617
  951MOL0     C28259   1.201   3.931   8.308  0.2615  0.1088 -0.3825
  951MOL0     C28260   1.118   3.859   8.197 -0.7599 -0.0285  0.3709
  951MOL0     C28261   0.969   3.863   8.218  0.2322 -0.5367 -0.2623
  951MOL0     C28262   0.889   3.814   8.088 -0.5729 -1.2080 -0.4528
  951MOL0     C28263   0.740   3.850   8.108  0.6579  0.3335 -0.2533
  951MOL0     C28264   0.674   3.799   7.980  0.0221 -0.8526  0.4873
  951MOL0     C28265   0.522   3.839   7.975 -0.8741 -0.6222 -0.5440
  951MOL0     C28266   0.463   3.798   7.836 -0.0182  0.2521 -0.2550
  951MOL0     N28267   0.316   3.815   7.832  0.6170  1.1056 -0.8248
  951MOL0     C28268   0.252   3.939   7.817 -0.9173  0.3758 -0.0341
  951MOL0     C28269   0.121   3.906   7.810  0.0360 -0.4336  0.6562
  951MOL0     C28270   0.003   4.008   7.799 -0.4147 -0.1564  0.2372
  951MOL0     C28271  -0.110   3.995   7.903 -0.2802  0.0171  0.0922
  951MOL0     C28272  -0.166   4.135   7.926  0.4310 -0.5693 -0.0243
  951MOL0     C28273  -0.246   4.193   7.799 -0.5506 -0.4735 -0.1069
  951MOL0     O28274  -0.373   4.136   7.802  0.0743  0.3249  0.1681
  951MOL0     C28275  -0.447   4.142   7.692  0.2438 -0.2542 -0.3978
  951MOL0     C28276  -0.410   4.192   7.561 -0.4069  0.7111  0.3143
  951MOL0     C28277  -0.495   4.204   7.450 -0.6138 -0.4101  0.8059
  951MOL0     C28278  -0.441   4.253   7.318  0.0134  0.0547 -0.7397
  951MOL0     C28279  -0.638   4.166   7.469 -0.0157  0.1891 -0.2769
  951MOL0     C28280  -0.739   4.167   7.353 -0.0488 -0.1526  0.6841
  951MOL0     O28281  -0.875   4.173   7.390 -0.3863  0.3105  0.1663
  951MOL0     C28282  -0.978   4.177   7.300 -0.1231 -0.1081 -0.1565
  951MOL0     C28283  -0.973   4.172   7.165  0.4542  0.5018  1.2888
  951MOL0     C28284  -1.090   4.178   7.088  0.1656  0.3461 -0.0436
  951MOL0     C28285  -1.215   4.182   7.150 -0.8262  0.0789  0.9491
  951MOL0     O28286  -1.321   4.184   7.065 -0.7931  0.1688  1.0921
  951MOL0     C28287  -1.451   4.205   7.124 -0.6950 -0.2367 -0.7753
  951MOL0     C28288  -1.556   4.207   7.017  0.6219  0.0933  0.5210
  951MOL0     C28289  -1.696   4.234   7.068 -0.4476  0.0221  0.7371
  951MOL0     C28290  -1.801   4.269   6.958  0.0993  0.0559 -0.3860
  951MOL0     C28291  -1.939   4.279   7.032  0.4688 -0.1103  0.1575
  951MOL0     C28292  -2.044   4.326   6.925  0.2805  0.7829  0.1768
  951MOL0     C28293  -2.185   4.345   6.977 -0.7340 -0.2233 -0.6116
  951MOL0     C28294  -2.294   4.390   6.874 -0.8934  0.1418 -0.2097
  951MOL0    Cl28295  -2.453   4.365   6.962 -0.2720 -0.4720 -0.2994
  951MOL0     C28296  -1.217   4.196   7.286  0.1521  0.0858  0.2152
  951MOL0     C28297  -1.097   4.205   7.361  0.0908 -0.5621 -0.0474
  951MOL0     O28298  -0.691   4.158   7.235 -0.6510 -0.6092 -0.6800
  951MOL0     C28299  -0.675   4.112   7.594 -0.1424  0.2220 -0.3010
  951MOL0     C28300  -0.576   4.097   7.707  0.9937 -0.3746  0.1790
  951MOL0     N28301   0.105   3.771   7.821  0.2226 -0.5694  0.8805
  951MOL0     N28302   0.219   3.717   7.839 -0.2508 -0.2493 -0.3338
  951MOL0     C28303   1.400   4.014   8.487 -0.7787  0.0730 -0.4330
  951MOL0     C28304   1.500   4.050   8.586 -0.5754 -0.2817 -0.0687
  951MOL0     C28305   1.939   4.076   8.734  0.1915 -0.4483 -0.3993
  951MOL0     C28306   1.889   4.053   8.865  0.5162 -0.1016 -0.7619
  951MOL0     C28307   1.976   4.063   8.974 -0.0403  0.4494 -0.2501
  951MOL0     C28308   2.108   4.104   8.961  0.0259  0.3606 -0.9491
  951MOL0     O28309   2.186   4.127   9.079 -0.1551 -0.2211 -0.1252
  951MOL0     C28310   2.323   4.187   9.078  0.9330  0.6328  0.3770
  951MOL0     C28311   2.430   4.069   9.059  0.4891 -0.1224 -0.7333
  951MOL0     C28312   2.573   4.131   9.065 -0.2620 -0.1753 -0.4215
  951MOL0     C28313   2.662   4.063   8.963  0.4378  0.0781  0.0231
  951MOL0     C28314   2.632   4.096   8.822  0.5235  0.6675  0.1636
  951MOL0     C28315   2.625   4.127   8.708 -0.0881  0.1222  0.3441
  951MOL0     C28316   2.160   4.131   8.835 -0.2435 -0.2817 -0.3954
  951MOL0     C28317   2.073   4.115   8.723 -0.9030  0.6814  0.0896
  951MOL0     H28318   1.763   3.883   8.437 -0.7259  0.8493 -0.7170
  951MOL0     H28319   1.568   3.834   8.266 -0.7927 -1.6125  1.4685
  951MOL0     H28320   1.169   3.892   8.404 -1.4202 -0.7977 -1.2638
  951MOL0     H28321   1.177   4.037   8.318 -0.3175  0.0814 -1.3236
  951MOL0     H28322   1.143   3.889   8.095  0.8836  1.4547  1.1669
  951MOL0     H28323   1.146   3.753   8.206 -1.7503 -0.9621 -4.5549
  951MOL0     H28324   0.947   3.798   8.303 -1.2294  0.6965  0.3529
  951MOL0     H28325   0.932   3.964   8.235  0.0878 -0.5455 -0.5201
  951MOL0     H28326   0.934   3.865   8.003  2.1787 -0.4717  1.3066
  951MOL0     H28327   0.904   3.707   8.069  1.6331 -0.7599 -1.4720
  951MOL0     H28328   0.692   3.804   8.195 -3.0042  1.4371 -1.4988
  951MOL0     H28329   0.743   3.959   8.119  1.9176  0.3361 -0.4581
  951MOL0     H28330   0.720   3.838   7.888 -0.6548  1.2682  0.9793
  951MOL0     H28331   0.673   3.690   7.977 -4.2339 -0.9402 -0.9698
  951MOL0     H28332   0.478   3.788   8.061 -2.4545  1.8171  0.1970
  951MOL0     H28333   0.522   3.947   7.993  0.0083 -0.6290 -0.4419
  951MOL0     H28334   0.482   3.694   7.808 -0.1301  0.3464 -0.6805
  951MOL0     H28335   0.501   3.872   7.766  1.2910  1.7962  1.9582
  951MOL0     H28336   0.305   4.033   7.810  1.5861 -0.8654  1.1743
  951MOL0     H28337   0.049   4.105   7.820 -2.4238  0.5122  1.8124
  951MOL0     H28338  -0.034   4.008   7.696  1.6287  1.7641 -0.5831
  951MOL0     H28339  -0.072   3.962   8.000 -0.8073  0.7324  0.5524
  951MOL0     H28340  -0.200   3.937   7.882  0.1567 -0.3049 -0.9514
  951MOL0     H28341  -0.089   4.209   7.947 -1.3656  1.0582  1.1552
  951MOL0     H28342  -0.232   4.127   8.013  0.6260 -0.5535  0.1262
  951MOL0     H28343  -0.188   4.163   7.711 -1.7287 -0.4799 -0.9073
  951MOL0     H28344  -0.259   4.301   7.808 -0.8125 -0.6041  1.3481
  951MOL0     H28345  -0.311   4.232   7.548 -0.3201  0.5038  0.3394
  951MOL0     H28346  -0.344   4.304   7.324  3.0492 -4.4892 -4.0979
  951MOL0     H28347  -0.441   4.178   7.238  2.5265  0.2140 -0.9606
  951MOL0     H28348  -0.515   4.328   7.291  0.0386  1.0434  1.7050
  951MOL0     H28349  -0.884   4.172   7.103  0.0263 -2.6979  0.4910
  951MOL0     H28350  -1.092   4.171   6.980 -1.7502  0.5633 -0.0477
  951MOL0     H28351  -1.471   4.128   7.200 -2.9988  0.1476 -0.9246
  951MOL0     H28352  -1.444   4.299   7.179  1.0644 -1.6113  1.5321
  951MOL0     H28353  -1.537   4.283   6.941 -2.7894 -0.6721 -1.3059
  951MOL0     H28354  -1.557   4.118   6.953 -0.1471  1.8750 -2.1099
  951MOL0     H28355  -1.699   4.316   7.141 -0.2864  2.5601 -1.9590
  951MOL0     H28356  -1.724   4.134   7.105  2.5725 -0.6335  1.5318
  951MOL0     H28357  -1.781   4.367   6.914  2.6332  0.6665  1.8674
  951MOL0     H28358  -1.788   4.193   6.880  2.3692 -0.0997  0.0783
  951MOL0     H28359  -1.935   4.354   7.112  1.2849 -0.4165  0.4074
  951MOL0     H28360  -1.958   4.182   7.081 -1.8623 -0.9911 -2.2489
  951MOL0     H28361  -2.013   4.417   6.872 -0.2050  0.4144 -0.7571
  951MOL0     H28362  -2.031   4.250   6.848 -0.7133  1.7208 -0.9596
  951MOL0     H28363  -2.177   4.422   7.055 -0.5703  0.0930 -0.9387
  951MOL0     H28364  -2.218   4.251   7.022  1.9626 -0.9511  0.0402
  951MOL0     H28365  -2.288   4.327   6.785 -2.3588 -0.6060  0.1859
  951MOL0     H28366  -2.281   4.495   6.846 -0.8226 -0.3767 -2.2769
  951MOL0     H28367  -1.306   4.197   7.348  0.8171 -0.7172  1.1924
  951MOL0     H28368  -1.085   4.225   7.468  0.4712 -1.8242  0.1595
  951MOL0     H28369  -0.779   4.081   7.599  0.2924 -1.3085 -0.0538
  951MOL0     H28370  -0.604   4.057   7.804  0.4529 -0.9606 -0.2051
  951MOL0     H28371   1.302   4.046   8.521 -0.8579 -1.6195  1.0668
  951MOL0     H28372   1.485   4.109   8.676  0.6183 -2.4649  1.6539
  951MOL0     H28373   1.789   4.017   8.888 -0.1585  1.6576 -0.8066
  951MOL0     H28374   1.939   4.046   9.074 -0.0613  1.5527 -0.0537
  951MOL0     H28375   2.329   4.269   9.006  2.8686 -1.1993 -1.7064
  951MOL0     H28376   2.349   4.232   9.175  1.3563 -1.8539  1.5003
  951MOL0     H28377   2.416   4.018   8.963 -2.1209 -1.8102  0.4458
  951MOL0     H28378   2.417   3.996   9.139  0.6622  0.9729  0.3286
  951MOL0     H28379   2.610   4.124   9.167 -0.4711 -0.8129 -0.3877
  951MOL0     H28380   2.571   4.239   9.048 -0.4375 -0.3521 -1.6448
  951MOL0     H28381   2.648   3.957   8.985  3.4773 -0.4303 -0.0150
  951MOL0     H28382   2.768   4.085   8.983  0.4625 -1.2094  1.5557
  951MOL0     H28383   2.612   4.160   8.607 -0.9526 -1.3208 -0.0504
  951MOL0     H28384   2.259   4.165   8.805 -1.1297 -0.1173 -3.4528
  951MOL0     H28385   2.115   4.125   8.624 -1.0067 -0.6535 -0.1059
  952MOL0     O28386   4.250   8.021   0.294  0.4776  0.1399  0.2303
  952MOL0     C28387   4.245   8.036   0.169 -0.3094  0.1952 -0.0658
  952MOL0     O28388   4.136   8.000   0.088 -0.2828  0.3365  1.1248
  952MOL0     C28389   4.016   7.996   0.150  0.3575  0.6717  0.2692
  952MOL0     C28390   3.949   7.872   0.150  0.1975 -0.6574  0.2620
  952MOL0     C28391   3.826   7.855   0.217  0.9778 -1.0708 -1.8564
  952MOL0     C28392   3.774   7.965   0.296 -1.0013 -0.3612  0.1272
  952MOL0     O28393   3.668   7.958   0.383 -0.1836  0.3013  0.2604
  952MOL0     C28394   3.610   7.832   0.407  0.5745  1.3222 -0.0455
  952MOL0     C28395   3.504   7.859   0.511  0.0551 -0.6016  0.5958
  952MOL0     C28396   3.541   7.893   0.651  0.3186  0.3492 -0.3663
  952MOL0     C28397   3.585   8.035   0.670  0.6466 -0.0154 -0.3422
  952MOL0     C28398   3.655   8.050   0.813 -0.5861  0.8443 -0.8193
  952MOL0     C28399   3.688   8.187   0.828  1.0690 -0.4506 -0.4583
  952MOL0     C28400   3.728   8.206   0.976 -0.6741 -0.4142  0.2652
  952MOL0     C28401   3.813   8.344   0.993  0.4528  0.3391  0.5331
  952MOL0     N28402   3.943   8.324   0.931  0.4736 -0.3938 -0.1097
  952MOL0     C28403   4.041   8.236   0.966 -0.0257  0.1977 -0.5605
  952MOL0     C28404   4.140   8.246   0.880 -1.0278  0.2653 -0.0728
  952MOL0     C28405   4.267   8.179   0.876 -0.1477  0.0778 -0.6475
  952MOL0     C28406   4.265   8.057   0.773  1.1256 -0.6847  0.3640
  952MOL0     C28407   4.167   7.948   0.826 -0.4099  0.4104  0.2952
  952MOL0     C28408   4.223   7.869   0.941 -0.1737 -0.2302 -1.0176
  952MOL0     O28409   4.125   7.853   1.049 -0.0688 -0.0012 -0.2740
  952MOL0     C28410   4.019   7.760   1.037 -0.0714 -0.3575 -0.1914
  952MOL0     C28411   3.932   7.767   1.137  0.9656  0.7505 -0.5798
  952MOL0     C28412   3.806   7.704   1.130  0.3991  0.2013 -0.2903
  952MOL0     C28413   3.704   7.742   1.240 -0.2600  0.0500  0.4784
  952MOL0     C28414   3.775   7.618   1.014  0.0009 -0.0763 -0.5147
  952MOL0     C28415   3.640   7.551   0.993 -0.1878 -0.4813 -0.4276
  952MOL0     O28416   3.641   7.453   0.898  0.2283  0.1319  0.1359
  952MOL0     C28417   3.523   7.392   0.867  0.1466 -0.1612  0.5282
  952MOL0     C28418   3.444   7.460   0.776 -0.6212 -0.9681 -0.0706
  952MOL0     C28419   3.331   7.399   0.727  0.3398  0.2839  0.0152
  952MOL0     C28420   3.285   7.271   0.773 -1.3375  0.0778  0.4616
  952MOL0     O28421   3.172   7.223   0.717 -0.2148 -0.2553  0.1670
  952MOL0     C28422   3.095   7.144   0.807 -0.2035  0.7718 -0.3836
  952MOL0     C28423   2.967   7.226   0.835  0.9176  0.6734  0.3081
  952MOL0     C28424   2.856   7.157   0.921  0.2347  0.4461 -0.0390
  952MOL0     C28425   2.725   7.236   0.905  0.0767 -0.0871 -0.0262
  952MOL0     C28426   2.661   7.206   0.773  0.3343  0.4368  0.6750
  952MOL0     C28427   2.553   7.303   0.718 -0.4090  0.5153 -0.6055
  952MOL0     C28428   2.424   7.313   0.796  0.7112 -0.3217 -1.1112
  952MOL0     C28429   2.351   7.183   0.796  0.6032  0.1230  0.5241
  952MOL0    Cl28430   2.276   7.155   0.623 -0.3800 -0.3036 -0.4146
  952MOL0     C28431   3.373   7.202   0.865  0.0281 -0.1059 -0.6868
  952MOL0     C28432   3.484   7.266   0.915  0.5376 -0.0665 -0.2917
  952MOL0     O28433   3.537   7.595   1.043 -0.0783  0.1492  0.2382
  952MOL0     C28434   3.890   7.582   0.930  0.5236 -0.4134 -0.8718
  952MOL0     C28435   4.002   7.665   0.937 -0.0138 -0.3965  0.4293
  952MOL0     N28436   4.098   8.341   0.784  0.8600  0.1665 -0.1148
  952MOL0     N28437   3.984   8.380   0.815  0.0648 -0.5819  0.2913
  952MOL0     C28438   3.839   8.089   0.287 -0.9613  0.2686  0.0644
  952MOL0     C28439   3.960   8.100   0.215  0.1283 -0.3726 -0.9947
  952MOL0     C28440   4.364   8.086   0.095 -0.2853  0.3419  0.3049
  952MOL0     C28441   4.359   8.118  -0.041  0.9533  0.1051 -0.0277
  952MOL0     C28442   4.477   8.132  -0.111 -0.6863  0.2834  0.7997
  952MOL0     C28443   4.600   8.136  -0.047  0.4831 -0.6300  0.4197
  952MOL0     O28444   4.718   8.176  -0.101 -0.6292  0.0899  0.0061
  952MOL0     C28445   4.711   8.268  -0.211  0.5204 -0.2180 -0.1423
  952MOL0     C28446   4.679   8.409  -0.158 -0.9244  0.0832  0.1805
  952MOL0     C28447   4.791   8.481  -0.069 -0.3609 -0.3541  0.1274
  952MOL0     C28448   4.936   8.490  -0.123  0.4016 -0.1550  0.0136
  952MOL0     C28449   5.017   8.371  -0.095 -0.1193  0.2546 -0.7641
  952MOL0     C28450   5.078   8.257  -0.099 -0.0663 -0.1943 -0.0607
  952MOL0     C28451   4.610   8.116   0.091 -0.2465  0.5676  0.1488
  952MOL0     C28452   4.493   8.076   0.155  0.6417 -0.5410  0.4766
  952MOL0     H28453   3.989   7.789   0.093  3.9521  2.0893 -1.5704
  952MOL0     H28454   3.763   7.767   0.225 -0.1433 -0.1671  0.1913
  952MOL0     H28455   3.570   7.784   0.318 -0.6019  1.1334  0.5610
  952MOL0     H28456   3.684   7.766   0.453  0.6682  0.7364 -1.0177
  952MOL0     H28457   3.438   7.939   0.476  0.8682 -0.7250 -1.2842
  952MOL0     H28458   3.442   7.769   0.525 -0.1926 -0.2238  2.1746
  952MOL0     H28459   3.464   7.869   0.725  2.5514 -0.5652  1.8150
  952MOL0     H28460   3.621   7.831   0.692 -0.5153  0.2313  1.1626
  952MOL0     H28461   3.658   8.075   0.600  0.2622  3.5795  1.0620
  952MOL0     H28462   3.502   8.107   0.664  1.2603  0.9495  1.9160
  952MOL0     H28463   3.584   8.005   0.883  0.2199  1.9404  0.7569
  952MOL0     H28464   3.745   7.987   0.808  1.3300  3.4677 -1.2446
  952MOL0     H28465   3.766   8.216   0.757  0.5048 -1.6539 -1.6124
  952MOL0     H28466   3.600   8.252   0.818  2.8153  1.8281 -2.0958
  952MOL0     H28467   3.642   8.215   1.043 -0.1892 -0.8649  0.9636
  952MOL0     H28468   3.787   8.118   1.005 -2.5057 -2.0093 -0.6724
  952MOL0     H28469   3.816   8.386   1.094  1.6524  1.9840 -0.1421
  952MOL0     H28470   3.756   8.417   0.935 -1.6422 -0.2437  1.7737
  952MOL0     H28471   4.047   8.183   1.060 -0.6386 -2.5107 -1.9334
  952MOL0     H28472   4.347   8.243   0.838 -0.3317  0.8173  0.1820
  952MOL0     H28473   4.284   8.134   0.974  0.6114  0.5981 -0.5351
  952MOL0     H28474   4.365   8.020   0.750  0.7326 -1.7230  0.2647
  952MOL0     H28475   4.230   8.097   0.677  1.3061 -1.4079 -0.0059
  952MOL0     H28476   4.149   7.880   0.742 -1.1750  0.7478  0.1737
  952MOL0     H28477   4.063   7.980   0.840 -0.8799 -0.0477 -1.7974
  952MOL0     H28478   4.308   7.927   0.979 -0.7114 -0.8753  1.3464
  952MOL0     H28479   4.248   7.767   0.912  0.2639 -0.2110 -0.7229
  952MOL0     H28480   3.957   7.818   1.229  2.6084  0.9436 -1.1137
  952MOL0     H28481   3.743   7.818   1.308 -0.4197  0.0911  0.5254
  952MOL0     H28482   3.615   7.771   1.182 -0.3823 -1.3906 -0.0979
  952MOL0     H28483   3.672   7.655   1.297 -0.6777 -1.4473 -1.9087
  952MOL0     H28484   3.468   7.563   0.755  0.0747 -0.8603  1.1651
  952MOL0     H28485   3.268   7.447   0.653 -2.0002 -0.0775  1.6715
  952MOL0     H28486   3.065   7.051   0.758  0.6678  0.0220  0.4716
  952MOL0     H28487   3.138   7.102   0.899 -1.2268  0.2701 -0.1137
  952MOL0     H28488   3.000   7.322   0.876  3.1151 -0.3464  1.1053
  952MOL0     H28489   2.926   7.256   0.738  0.4168  3.8551  1.4135
  952MOL0     H28490   2.881   7.138   1.026 -1.5750 -1.3957  0.1438
  952MOL0     H28491   2.838   7.060   0.874  1.1419 -0.8449  2.0908
  952MOL0     H28492   2.653   7.212   0.984  0.9764 -1.9983  0.2861
  952MOL0     H28493   2.736   7.345   0.907  3.0158 -0.3050  0.7723
  952MOL0     H28494   2.619   7.106   0.785 -0.4107  0.6307 -0.2464
  952MOL0     H28495   2.743   7.197   0.701  1.6522  1.1746  2.0126
  952MOL0     H28496   2.615   7.390   0.694  1.7515 -1.1146 -1.3468
  952MOL0     H28497   2.518   7.251   0.628  0.9519 -1.3888 -0.0833
  952MOL0     H28498   2.357   7.391   0.758  0.2857  0.0736  0.3731
  952MOL0     H28499   2.450   7.331   0.901  1.1839  1.2192 -1.4697
  952MOL0     H28500   2.264   7.187   0.862  0.4346  1.4940  0.2541
  952MOL0     H28501   2.410   7.094   0.817  1.4823  1.1934  2.9068
  952MOL0     H28502   3.355   7.105   0.909  1.8018  0.3127  1.1107
  952MOL0     H28503   3.558   7.217   0.977  2.5464  2.6760 -0.3151
  952MOL0     H28504   3.880   7.507   0.851  1.7418 -0.4323 -1.0289
  952MOL0     H28505   4.081   7.636   0.869  0.9620  0.0518  1.3491
  952MOL0     H28506   3.801   8.173   0.344  2.1018  1.9086 -0.0621
  952MOL0     H28507   4.018   8.191   0.209 -1.1030  0.3803 -1.8807
  952MOL0     H28508   4.267   8.118  -0.099  1.2065  1.9068 -0.4826
  952MOL0     H28509   4.477   8.117  -0.218 -0.1770 -1.2811  0.9807
  952MOL0     H28510   4.813   8.273  -0.249  0.2756  1.8017 -0.6409
  952MOL0     H28511   4.640   8.233  -0.287  1.8967 -2.9333 -0.2959
  952MOL0     H28512   4.593   8.395  -0.092 -1.2269 -2.5551 -0.6709
  952MOL0     H28513   4.655   8.464  -0.250  1.8405 -0.3681 -0.8888
  952MOL0     H28514   4.806   8.406   0.010  0.8195 -0.2015  0.0751
  952MOL0     H28515   4.753   8.576  -0.033 -2.8593 -1.4855  0.6525
  952MOL0     H28516   4.996   8.563  -0.066 -1.3889  1.4296 -0.0301
  952MOL0     H28517   4.936   8.523  -0.227 -0.4651 -0.0305  0.0480
  952MOL0     H28518   5.141   8.170  -0.107 -1.0638 -1.6404  4.6690
  952MOL0     H28519   4.702   8.132   0.147 -0.9259  1.9805  0.9134
  952MOL0     H28520   4.495   8.034   0.255 -0.2510  2.3125  1.8213
  953MOL0     O28521   6.370   9.689   9.916 -0.4271  0.2343  0.0792
  953MOL0     C28522   6.418   9.613   9.832  0.1271 -0.0832  0.2462
  953MOL0     O28523   6.340   9.547   9.742 -0.0260  0.1231  1.0467
  953MOL0     C28524   6.206   9.546   9.763 -0.0772 -0.6166  0.6668
  953MOL0     C28525   6.114   9.583   9.662  0.9280 -0.6166 -0.0693
  953MOL0     C28526   5.983   9.546   9.659  0.8328  0.3958 -1.0984
  953MOL0     C28527   5.932   9.472   9.760  0.2445  0.6559  0.7851
  953MOL0     O28528   5.802   9.424   9.747  0.4845 -0.3739  0.0744
  953MOL0     C28529   5.739   9.414   9.878 -0.1267  0.0408  0.3858
  953MOL0     C28530   5.585   9.406   9.866 -0.2601  0.3908  0.2048
  953MOL0     C28531   5.529   9.258   9.873 -0.2330  0.4717 -0.1582
  953MOL0     C28532   5.553   9.177   9.745  0.0237  0.5317 -0.9878
  953MOL0     C28533   5.441   9.077   9.708 -0.6477  0.0240  0.3888
  953MOL0     C28534   5.481   8.997   9.584  0.1345 -0.0464  0.3419
  953MOL0     C28535   5.376   8.893   9.540  0.9309  0.3725  0.1728
  953MOL0     C28536   5.337   8.784   9.648  0.3375 -0.5842  0.0943
  953MOL0     N28537   5.250   8.687   9.578  0.4732 -0.3002  0.1870
  953MOL0     C28538   5.114   8.706   9.550 -0.1167  0.3502  0.1966
  953MOL0     C28539   5.075   8.587   9.500 -0.2000  0.4168 -0.5420
  953MOL0     C28540   4.929   8.557   9.443  0.1838  0.0915 -0.2010
  953MOL0     C28541   4.823   8.584   9.543  0.1778  0.1071  0.7869
  953MOL0     C28542   4.826   8.493   9.673 -0.9344 -0.3421 -0.3175
  953MOL0     C28543   4.754   8.358   9.647 -0.6455  0.2236 -0.2983
  953MOL0     O28544   4.616   8.376   9.684  1.0870 -0.8133 -0.1570
  953MOL0     C28545   4.534   8.265   9.687 -0.1771 -0.0698  0.0494
  953MOL0     C28546   4.574   8.130   9.677 -0.3801 -0.0405  0.5543
  953MOL0     C28547   4.484   8.029   9.696 -1.0372  0.3004  0.0681
  953MOL0     C28548   4.543   7.897   9.708  0.1977  0.1450  0.2445
  953MOL0     C28549   4.351   8.056   9.729 -0.2777  0.3267  0.1888
  953MOL0     C28550   4.234   7.959   9.756 -0.5606  0.5489  0.4263
  953MOL0     O28551   4.120   8.022   9.804  0.5084 -0.2457  0.0153
  953MOL0     C28552   4.006   7.941   9.798 -0.3371 -0.8496  0.3636
  953MOL0     C28553   3.910   7.970   9.699  0.5000  0.2295  0.3639
  953MOL0     C28554   3.792   7.892   9.687  0.6218 -0.2181 -0.2883
  953MOL0     C28555   3.761   7.799   9.782  0.2321 -0.1903 -0.5439
  953MOL0     O28556   3.630   7.751   9.783 -0.1637  0.0585 -0.5784
  953MOL0     C28557   3.564   7.737   9.908  0.1013  0.6180 -0.2483
  953MOL0     C28558   3.408   7.732   9.883 -0.0327 -1.1828  0.4555
  953MOL0     C28559   3.334   7.719  10.013  0.1461  0.0814 -0.6125
  953MOL0     C28560   3.201   7.789   9.996 -0.0463 -0.0367 -0.4219
  953MOL0     C28561   3.099   7.792  10.107 -0.1743 -0.1090 -0.2565
  953MOL0     C28562   3.019   7.664  10.126 -0.5696 -0.4442  0.7475
  953MOL0     C28563   2.936   7.677  10.254 -0.4327  0.4904  0.7374
  953MOL0     C28564   2.839   7.560  10.260 -0.9052  0.4222 -0.4789
  953MOL0    Cl28565   2.695   7.592  10.158  0.0766 -0.0832  0.2501
  953MOL0     C28566   3.844   7.775   9.890  0.4104 -0.1544  0.1419
  953MOL0     C28567   3.969   7.847   9.899 -0.7031  0.1825  0.0897
  953MOL0     O28568   4.248   7.837   9.730 -0.1266  0.0721  0.1414
  953MOL0     C28569   4.314   8.195   9.744 -0.6080 -0.0719  0.6607
  953MOL0     C28570   4.404   8.297   9.715  0.2130 -0.0377 -0.7967
  953MOL0     N28571   5.190   8.504   9.489  1.0951  1.2071 -0.3927
  953MOL0     N28572   5.280   8.558   9.546 -0.1307 -0.5355 -0.4613
  953MOL0     C28573   6.018   9.442   9.867 -0.3877  0.3757 -0.1472
  953MOL0     C28574   6.154   9.486   9.869 -0.2249  0.2196  0.2000
  953MOL0     C28575   6.562   9.606   9.813 -0.3869  0.5746  0.5468
  953MOL0     C28576   6.638   9.668   9.914 -0.2536  0.3505  0.1329
  953MOL0     C28577   6.776   9.686   9.897 -1.0831  0.2276  0.5287
  953MOL0     C28578   6.846   9.647   9.775  0.5777  0.7983 -0.0467
  953MOL0     O28579   6.978   9.667   9.763  0.0586  0.0759 -0.0577
  953MOL0     C28580   7.047   9.615   9.645  0.1941  0.0303 -0.5015
  953MOL0     C28581   7.207   9.636   9.649  0.2981 -0.3101 -1.0862
  953MOL0     C28582   7.255   9.550   9.766  0.3612  1.1442  0.0579
  953MOL0     C28583   7.398   9.590   9.795  0.3692 -0.7039 -0.3461
  953MOL0     C28584   7.402   9.724   9.852 -0.8931 -0.4626 -0.7662
  953MOL0     C28585   7.416   9.839   9.896 -0.0533  0.2532 -0.2198
  953MOL0     C28586   6.764   9.593   9.673 -0.2051  0.6810  0.0176
  953MOL0     C28587   6.625   9.576   9.689 -0.2001 -0.3156  0.2967
  953MOL0     H28588   6.150   9.631   9.573 -2.0294 -1.5635 -1.9301
  953MOL0     H28589   5.920   9.561   9.572 -0.1543 -2.2340 -0.9287
  953MOL0     H28590   5.780   9.326   9.929 -0.8492  0.2904  1.4408
  953MOL0     H28591   5.752   9.509   9.930 -1.5316 -0.1831  1.2182
  953MOL0     H28592   5.556   9.447   9.963  0.0210 -0.8268  0.8173
  953MOL0     H28593   5.542   9.461   9.782 -0.4897 -0.4599 -0.2466
  953MOL0     H28594   5.580   9.212   9.958 -1.1409  1.7673  1.1349
  953MOL0     H28595   5.424   9.255   9.904 -0.5152  0.9273 -1.0441
  953MOL0     H28596   5.575   9.244   9.661  1.3158  2.7701  1.0179
  953MOL0     H28597   5.639   9.116   9.772 -1.7074 -0.4402  3.0845
  953MOL0     H28598   5.421   9.006   9.789  0.2854  0.0067  0.6069
  953MOL0     H28599   5.352   9.136   9.683  0.0430  0.3539 -1.3750
  953MOL0     H28600   5.502   9.065   9.501 -2.2261 -1.0072 -1.1712
  953MOL0     H28601   5.575   8.947   9.606  0.0775  0.0844  0.9085
  953MOL0     H28602   5.285   8.945   9.508 -0.7989 -1.7466  1.3559
  953MOL0     H28603   5.409   8.847   9.447  0.5175 -1.6855  0.9985
  953MOL0     H28604   5.300   8.818   9.745  2.1252 -0.7101  0.8689
  953MOL0     H28605   5.434   8.740   9.673 -0.1438 -1.7176  0.0203
  953MOL0     H28606   5.062   8.799   9.569  0.2775  0.6834 -0.3250
  953MOL0     H28607   4.910   8.614   9.352 -1.7518 -0.2559 -0.0477
  953MOL0     H28608   4.916   8.451   9.419 -2.7422 -0.7066  3.8734
  953MOL0     H28609   4.723   8.580   9.498  0.8172 -1.8303 -0.6195
  953MOL0     H28610   4.827   8.685   9.584 -1.3508  0.8230 -0.6918
  953MOL0     H28611   4.778   8.547   9.755  3.4837 -0.5289  2.7258
  953MOL0     H28612   4.929   8.478   9.704 -0.7667  1.3572  0.0322
  953MOL0     H28613   4.794   8.279   9.711  2.7615  3.4219  1.8546
  953MOL0     H28614   4.761   8.327   9.542  2.0191  1.1113 -0.4544
  953MOL0     H28615   4.676   8.101   9.655 -0.1074  0.3888  1.2130
  953MOL0     H28616   4.501   7.840   9.791  1.7958  0.4294  1.2923
  953MOL0     H28617   4.528   7.853   9.609  2.1893 -0.3476  0.1150
  953MOL0     H28618   4.650   7.903   9.729  0.1975  0.3706  0.1819
  953MOL0     H28619   3.945   8.033   9.618 -3.4280  0.1490 -1.6586
  953MOL0     H28620   3.722   7.909   9.605 -1.5430 -0.1154  1.4970
  953MOL0     H28621   3.588   7.643   9.959 -1.4038  0.9428  1.1496
  953MOL0     H28622   3.595   7.823   9.968  3.2089 -0.1682 -0.5825
  953MOL0     H28623   3.376   7.825   9.837  2.6305 -0.3494  0.1080
  953MOL0     H28624   3.379   7.647   9.820  1.1769 -1.3586  0.1091
  953MOL0     H28625   3.402   7.764  10.086  1.2055 -1.0843 -0.8452
  953MOL0     H28626   3.328   7.615  10.045 -1.2332  1.1471  3.2083
  953MOL0     H28627   3.225   7.894   9.973 -1.2168  0.9074  2.2306
  953MOL0     H28628   3.158   7.741   9.907 -0.0860 -2.4956  0.8561
  953MOL0     H28629   3.027   7.868  10.076 -0.3500  0.2333  0.9693
  953MOL0     H28630   3.152   7.817  10.199 -0.0794 -1.7989  0.1829
  953MOL0     H28631   2.954   7.659  10.038  0.1295  4.6732 -0.3814
  953MOL0     H28632   3.093   7.584  10.137  0.5616  0.6638  1.3381
  953MOL0     H28633   2.875   7.767  10.242  0.8944  1.3108 -0.0733
  953MOL0     H28634   3.001   7.685  10.341 -0.4285 -0.2678  0.8084
  953MOL0     H28635   2.812   7.548  10.365  0.9642 -3.1529 -0.2545
  953MOL0     H28636   2.886   7.464  10.236 -2.5476 -0.6221  0.2616
  953MOL0     H28637   3.816   7.719   9.979 -2.9679  0.4017 -0.4233
  953MOL0     H28638   4.048   7.829   9.971 -1.5145 -1.6324  0.5981
  953MOL0     H28639   4.223   8.225   9.795  0.1315 -0.3341  2.1827
  953MOL0     H28640   4.376   8.402   9.720  1.3634  0.3102 -1.3684
  953MOL0     H28641   5.988   9.373   9.946 -0.9719 -0.8147 -1.3808
  953MOL0     H28642   6.222   9.449   9.945  1.1643 -2.5663 -2.1977
  953MOL0     H28643   6.594   9.712  10.003 -1.9865  0.7904 -0.8976
  953MOL0     H28644   6.838   9.728   9.976 -0.1168  1.6750 -0.9568
  953MOL0     H28645   7.015   9.510   9.644  2.0960 -0.6137 -2.4136
  953MOL0     H28646   7.004   9.653   9.552  1.8047 -0.4646 -1.5008
  953MOL0     H28647   7.222   9.742   9.674  0.5154 -0.5970  0.0288
  953MOL0     H28648   7.249   9.597   9.556 -1.5008 -0.0079 -2.0926
  953MOL0     H28649   7.243   9.444   9.742 -1.3993  1.6493 -1.5352
  953MOL0     H28650   7.182   9.561   9.847  1.7982 -0.6252  1.6857
  953MOL0     H28651   7.458   9.578   9.704  1.6415 -0.9769  0.4936
  953MOL0     H28652   7.447   9.521   9.865  2.3503  0.2482 -0.7172
  953MOL0     H28653   7.414   9.940   9.934 -2.3753 -0.1529  0.9017
  953MOL0     H28654   6.805   9.555   9.581  0.4221 -0.8844  0.9021
  953MOL0     H28655   6.565   9.539   9.606 -0.3781 -0.0478  0.3055
  954MOL0     O28656   5.944   3.906   7.997 -0.5648  0.2714 -0.4178
  954MOL0     C28657   5.952   3.961   8.107  0.1721  0.4793 -0.0344
  954MOL0     O28658   5.860   3.967   8.205 -0.2815 -0.1530 -0.0868
  954MOL0     C28659   5.738   3.913   8.170 -0.1388  0.7405  0.9738
  954MOL0     C28660   5.715   3.788   8.113 -0.1414  0.0601  0.6833
  954MOL0     C28661   5.587   3.736   8.103  0.2792 -0.3036  0.5310
  954MOL0     C28662   5.480   3.806   8.152 -0.2891 -0.2282  0.1756
  954MOL0     O28663   5.349   3.772   8.128  0.1596  0.1324 -1.0081
  954MOL0     C28664   5.334   3.654   8.044  0.9273 -0.9642 -0.6069
  954MOL0     C28665   5.179   3.633   8.001  0.3362 -0.1766 -0.3602
  954MOL0     C28666   5.097   3.572   8.120  0.5348 -0.7728 -0.7473
  954MOL0     C28667   4.946   3.554   8.080  0.0767 -0.4282 -0.2038
  954MOL0     C28668   4.861   3.683   8.064 -0.6050  0.1522 -0.1553
  954MOL0     C28669   4.713   3.661   8.037 -0.5052 -0.1534  0.4914
  954MOL0     C28670   4.652   3.595   8.162  0.1205  0.5629  0.4795
  954MOL0     C28671   4.505   3.619   8.168  0.2077 -0.2299 -0.2232
  954MOL0     N28672   4.428   3.566   8.052  0.0648 -0.6816  0.4033
  954MOL0     C28673   4.422   3.627   7.929 -0.0589 -0.2453  0.5006
  954MOL0     C28674   4.348   3.543   7.852  0.0701  0.0807  0.2168
  954MOL0     C28675   4.297   3.562   7.716 -0.2079 -0.3000 -0.1447
  954MOL0     C28676   4.185   3.468   7.680  0.4447 -0.3922  0.3629
  954MOL0     C28677   4.066   3.456   7.785  1.0458 -0.1852  0.8204
  954MOL0     C28678   3.926   3.442   7.723 -0.4098 -0.0878  0.4136
  954MOL0     O28679   3.830   3.465   7.831  0.2656  0.0547  0.1514
  954MOL0     C28680   3.698   3.486   7.794 -0.1694  0.9842  0.0628
  954MOL0     C28681   3.658   3.463   7.660 -0.2795 -1.0085  0.0132
  954MOL0     C28682   3.519   3.484   7.625 -0.0813 -0.1798  0.0881
  954MOL0     C28683   3.487   3.463   7.481 -0.4807 -0.1351 -0.2665
  954MOL0     C28684   3.430   3.534   7.723  0.6444 -0.2933 -0.9930
  954MOL0     C28685   3.283   3.565   7.698  0.2326 -0.7849  0.0395
  954MOL0     O28686   3.219   3.484   7.615 -0.1062 -0.2977 -0.0839
  954MOL0     C28687   3.085   3.496   7.597  0.0801 -0.8882  0.3539
  954MOL0     C28688   2.997   3.408   7.663 -0.5246 -0.0470 -0.3215
  954MOL0     C28689   2.863   3.436   7.650 -0.0177 -0.1677 -0.1854
  954MOL0     C28690   2.810   3.543   7.572  0.4089  0.1674 -0.2314
  954MOL0     O28691   2.667   3.555   7.571  0.4831 -0.4734  1.6399
  954MOL0     C28692   2.612   3.640   7.462 -0.2197  0.0307 -0.5155
  954MOL0     C28693   2.460   3.617   7.463 -0.0620  0.1833  1.1327
  954MOL0     C28694   2.393   3.726   7.367 -0.0787 -0.1459 -0.5479
  954MOL0     C28695   2.249   3.702   7.369 -0.4142  0.3613  0.2976
  954MOL0     C28696   2.174   3.806   7.454  1.4903  0.0758  0.3118
  954MOL0     C28697   2.020   3.783   7.450  0.1174 -0.0123 -0.2926
  954MOL0     C28698   1.953   3.839   7.324  1.1334  0.1598  0.3787
  954MOL0     C28699   1.806   3.834   7.338  0.5611  1.0573 -0.3379
  954MOL0    Cl28700   1.738   3.677   7.309  0.1319  0.2685 -0.1346
  954MOL0     C28701   2.900   3.636   7.516 -0.7408 -0.0750 -0.3361
  954MOL0     C28702   3.040   3.612   7.532  0.7475  0.8344 -0.4141
  954MOL0     O28703   3.230   3.653   7.763 -0.2679 -0.8161 -0.4069
  954MOL0     C28704   3.474   3.558   7.852  1.4180  0.8585 -0.3532
  954MOL0     C28705   3.604   3.528   7.888 -0.4952 -0.4145  0.4272
  954MOL0     N28706   4.329   3.429   7.927  0.0373  0.6302  0.3825
  954MOL0     N28707   4.380   3.445   8.040 -0.1291  1.0390 -0.2587
  954MOL0     C28708   5.506   3.931   8.210  0.9024  0.7505 -0.2085
  954MOL0     C28709   5.631   3.985   8.220  0.4397  0.2897 -0.1076
  954MOL0     C28710   6.084   4.025   8.134  0.2355  0.6284  0.4099
  954MOL0     C28711   6.120   4.046   8.267 -0.5788  0.2803  0.4456
  954MOL0     C28712   6.251   4.088   8.293  1.0478  0.4651  0.0480
  954MOL0     C28713   6.349   4.101   8.194  0.5499 -0.5865 -0.1278
  954MOL0     O28714   6.480   4.130   8.203  0.0942 -0.1456 -0.7704
  954MOL0     C28715   6.533   4.148   8.334  0.7972 -0.6188 -0.0678
  954MOL0     C28716   6.681   4.195   8.339  0.0451 -0.4498  0.2317
  954MOL0     C28717   6.773   4.085   8.301  0.6267 -0.5015  0.6574
  954MOL0     C28718   6.907   4.145   8.277  0.2612  0.5231  0.2993
  954MOL0     C28719   6.960   4.191   8.402  0.6201 -0.1953  0.5716
  954MOL0     C28720   6.985   4.231   8.509 -0.4310  0.3399 -0.1071
  954MOL0     C28721   6.305   4.101   8.060  0.1479  0.2998 -0.4321
  954MOL0     C28722   6.173   4.059   8.036  0.2245 -0.3279  0.4263
  954MOL0     H28723   5.805   3.736   8.079  1.2804  1.5118  2.0259
  954MOL0     H28724   5.568   3.636   8.065 -2.5513 -0.1175  1.2885
  954MOL0     H28725   5.389   3.677   7.953  0.1312 -2.2110 -1.4342
  954MOL0     H28726   5.371   3.561   8.086 -0.5547 -2.1749 -1.8552
  954MOL0     H28727   5.136   3.731   7.978 -0.1312 -0.3513 -0.2526
  954MOL0     H28728   5.173   3.562   7.918 -2.9459 -0.7901  0.2513
  954MOL0     H28729   5.144   3.483   8.162 -0.2759 -1.2696 -0.8719
  954MOL0     H28730   5.089   3.640   8.205  0.5442 -2.4724  0.6652
  954MOL0     H28731   4.944   3.508   7.981  1.5105 -0.1184 -0.3995
  954MOL0     H28732   4.901   3.488   8.155  4.2031 -1.9436  1.2557
  954MOL0     H28733   4.866   3.742   8.157  1.1915 -0.4738  0.1999
  954MOL0     H28734   4.904   3.751   7.990  1.5781  0.5079  1.3366
  954MOL0     H28735   4.668   3.761   8.025  0.4065 -0.0108 -2.4298
  954MOL0     H28736   4.700   3.599   7.949  1.7498 -1.1580  0.8041
  954MOL0     H28737   4.667   3.487   8.152 -0.6848  0.6312 -1.8947
  954MOL0     H28738   4.703   3.616   8.257 -0.6770  0.9497  0.8278
  954MOL0     H28739   4.494   3.728   8.167  2.0742 -0.0005  0.5934
  954MOL0     H28740   4.474   3.576   8.263 -0.6648 -1.0754 -0.8704
  954MOL0     H28741   4.457   3.727   7.906  0.4564 -0.2156  1.3414
  954MOL0     H28742   4.266   3.666   7.701 -0.6058 -0.5425 -1.1125
  954MOL0     H28743   4.381   3.543   7.648  2.7131  3.0668  2.1398
  954MOL0     H28744   4.229   3.369   7.661  0.1831 -0.9470  2.4649
  954MOL0     H28745   4.147   3.513   7.587  0.9713  0.6715  0.6444
  954MOL0     H28746   4.078   3.545   7.847  0.9523 -1.1062  2.1828
  954MOL0     H28747   4.083   3.371   7.852  3.1461 -0.8924 -0.4853
  954MOL0     H28748   3.921   3.347   7.670 -0.2638 -0.4622  1.0711
  954MOL0     H28749   3.918   3.518   7.644  0.9275 -2.1079 -1.8084
  954MOL0     H28750   3.716   3.422   7.577 -0.5702 -1.4917  0.0432
  954MOL0     H28751   3.431   3.551   7.449  1.4547  2.4770  2.9330
  954MOL0     H28752   3.574   3.437   7.419 -1.4564 -2.0207 -0.9523
  954MOL0     H28753   3.420   3.376   7.480 -0.0830 -0.6608  3.7288
  954MOL0     H28754   3.035   3.319   7.712  0.8168  0.2425 -0.7668
  954MOL0     H28755   2.799   3.371   7.709 -0.3387  1.1687  0.9972
  954MOL0     H28756   2.632   3.747   7.474 -0.0512  0.1197 -1.5060
  954MOL0     H28757   2.652   3.609   7.366 -2.1962 -0.5472 -1.1953
  954MOL0     H28758   2.434   3.518   7.424 -0.3223  0.0686  1.5891
  954MOL0     H28759   2.424   3.620   7.566 -1.2184  0.1246  0.7534
  954MOL0     H28760   2.428   3.708   7.265  0.5410  2.3109 -0.8241
  954MOL0     H28761   2.414   3.830   7.393  1.8932 -0.1581 -1.8965
  954MOL0     H28762   2.213   3.711   7.266  0.2502  1.2203  0.1265
  954MOL0     H28763   2.222   3.605   7.413 -0.8767 -0.0270 -0.7839
  954MOL0     H28764   2.197   3.912   7.442  0.0440  0.4971  1.1337
  954MOL0     H28765   2.200   3.789   7.559 -0.0119 -0.0376  0.6778
  954MOL0     H28766   2.002   3.676   7.458 -0.8242  0.2282  1.3170
  954MOL0     H28767   1.978   3.815   7.546  2.1095 -2.6581  1.6225
  954MOL0     H28768   1.974   3.784   7.232 -0.9952 -1.2306  0.6512
  954MOL0     H28769   1.983   3.943   7.309 -2.1656  1.5814  2.3805
  954MOL0     H28770   1.758   3.895   7.261 -1.7253  0.3074  0.4334
  954MOL0     H28771   1.782   3.869   7.439  2.7832  2.7634 -0.3204
  954MOL0     H28772   2.880   3.726   7.458  1.4445  0.8034  0.1741
  954MOL0     H28773   3.100   3.689   7.485  0.3588  0.5467 -1.4080
  954MOL0     H28774   3.421   3.590   7.941  0.5858 -0.4350 -0.3580
  954MOL0     H28775   3.639   3.549   7.989 -0.0649 -1.0171  0.4065
  954MOL0     H28776   5.418   3.988   8.239  2.5570  2.2156  2.2740
  954MOL0     H28777   5.639   4.091   8.240 -2.5670  0.3763  1.2245
  954MOL0     H28778   6.059   4.022   8.353  1.7601 -2.1378  1.5899
  954MOL0     H28779   6.276   4.109   8.396 -1.7131  2.2565  0.4721
  954MOL0     H28780   6.470   4.218   8.389 -0.2472 -1.2295 -0.4579
  954MOL0     H28781   6.535   4.048   8.379  2.6225 -1.0245 -0.9513
  954MOL0     H28782   6.701   4.230   8.441 -1.1851  1.7154 -0.2261
  954MOL0     H28783   6.690   4.279   8.270 -0.3506 -0.9003 -0.3895
  954MOL0     H28784   6.729   4.044   8.209 -1.6810  1.3235  0.8663
  954MOL0     H28785   6.781   4.001   8.371 -0.9875 -1.2412  0.0147
  954MOL0     H28786   6.898   4.229   8.208 -1.6772  1.9963  2.2038
  954MOL0     H28787   6.974   4.069   8.236  0.8337 -0.5694  3.0363
  954MOL0     H28788   6.998   4.277   8.605 -0.7894 -1.3323  0.7752
  954MOL0     H28789   6.371   4.108   7.974 -0.7495  1.3753 -1.0699
  954MOL0     H28790   6.148   4.039   7.932  0.3016 -2.6663  0.7889
  955MOL0     O28791   0.052   6.360  10.419 -0.3448 -0.7366 -0.2130
  955MOL0     C28792   0.079   6.241  10.417 -0.1812  0.0437  0.3767
  955MOL0     O28793   0.002   6.143  10.364 -0.1558 -0.3944  0.2993
  955MOL0     C28794  -0.110   6.176  10.296 -0.7652 -0.3446 -0.0362
  955MOL0     C28795  -0.228   6.119  10.347  0.1235 -0.3804  0.1317
  955MOL0     C28796  -0.346   6.128  10.272 -0.4648  0.5212 -0.8859
  955MOL0     C28797  -0.349   6.209  10.160 -1.1159  0.2823  1.0237
  955MOL0     O28798  -0.462   6.222  10.080 -0.4429  0.6075 -0.0612
  955MOL0     C28799  -0.589   6.219  10.143 -0.1690  0.1109 -0.4527
  955MOL0     C28800  -0.694   6.239  10.046 -0.2215 -0.5552  0.3038
  955MOL0     C28801  -0.695   6.378   9.984  0.2044 -0.2869  0.0184
  955MOL0     C28802  -0.820   6.414   9.907  0.9339 -0.1312  0.8533
  955MOL0     C28803  -0.852   6.309   9.800 -0.5787 -0.5133 -0.2809
  955MOL0     C28804  -0.929   6.361   9.685 -0.4630 -0.4861 -0.1081
  955MOL0     C28805  -0.842   6.401   9.563 -0.3772  1.1015  0.0848
  955MOL0     C28806  -0.922   6.470   9.459  0.8256  0.5597 -0.4221
  955MOL0     N28807  -0.849   6.537   9.346 -0.1034 -0.3070 -0.1324
  955MOL0     C28808  -0.752   6.475   9.269  0.0116  0.9237 -0.3724
  955MOL0     C28809  -0.716   6.555   9.167  0.3460  0.1289  1.0623
  955MOL0     C28810  -0.595   6.526   9.072 -0.1051 -0.1396 -0.3610
  955MOL0     C28811  -0.467   6.597   9.120  0.3566  0.8100  0.0745
  955MOL0     C28812  -0.396   6.536   9.248 -0.1549  0.6811  0.5996
  955MOL0     C28813  -0.248   6.530   9.241 -0.2477 -0.5003  0.1299
  955MOL0     O28814  -0.194   6.476   9.123 -0.8291  0.2145 -0.0555
  955MOL0     C28815  -0.061   6.448   9.121  0.4557  0.0503  0.2697
  955MOL0     C28816  -0.032   6.368   9.011 -0.2367  0.2247 -0.3656
  955MOL0     C28817   0.105   6.328   8.989  0.2129 -0.0170  0.1083
  955MOL0     C28818   0.129   6.256   8.855  0.1519  0.1915 -0.3771
  955MOL0     C28819   0.216   6.378   9.069  0.6108  0.3560 -0.2595
  955MOL0     C28820   0.365   6.349   9.049  0.0096 -0.3740  0.0248
  955MOL0     O28821   0.460   6.422   9.130  0.4278  0.8352 -0.1049
  955MOL0     C28822   0.585   6.440   9.073  0.4386 -0.1869 -0.0760
  955MOL0     C28823   0.653   6.560   9.076  0.6725  0.0300  0.1520
  955MOL0     C28824   0.780   6.573   9.034 -0.2298 -0.0300 -0.3816
  955MOL0     C28825   0.864   6.467   9.006  0.3616  0.3843  1.0258
  955MOL0     O28826   0.983   6.509   8.973 -0.6663 -0.6434  0.3144
  955MOL0     C28827   1.084   6.410   8.951  0.9174  0.3708 -0.8998
  955MOL0     C28828   1.216   6.465   8.897  0.3516 -0.6780  0.2680
  955MOL0     C28829   1.351   6.379   8.929  0.3155  0.1635  0.3207
  955MOL0     C28830   1.473   6.443   8.862  0.1517  0.3591  0.4474
  955MOL0     C28831   1.600   6.390   8.915  0.3816  0.3309 -0.7183
  955MOL0     C28832   1.630   6.421   9.067  0.0316 -0.7499  0.3846
  955MOL0     C28833   1.779   6.413   9.123  0.3540  0.4431 -0.1002
  955MOL0     C28834   1.853   6.276   9.100 -1.3307  0.2920 -0.6046
  955MOL0    Cl28835   1.747   6.133   9.149 -0.0058 -0.1061 -0.0478
  955MOL0     C28836   0.808   6.334   9.017  0.3185 -0.2911  0.0219
  955MOL0     C28837   0.667   6.327   9.048  0.2391  0.2960  0.3044
  955MOL0     O28838   0.392   6.274   8.960 -0.4419  0.3160  0.2728
  955MOL0     C28839   0.174   6.459   9.169  0.4233 -0.0175 -0.5292
  955MOL0     C28840   0.042   6.496   9.199 -0.2683 -0.0648 -0.1537
  955MOL0     N28841  -0.809   6.658   9.171  0.3245  0.5262 -0.2516
  955MOL0     N28842  -0.890   6.652   9.274 -0.5260 -0.2318  0.2771
  955MOL0     C28843  -0.227   6.262  10.101  0.4396  0.0137 -0.4377
  955MOL0     C28844  -0.111   6.246  10.174  1.0597  0.5364 -0.0060
  955MOL0     C28845   0.211   6.198  10.464  0.1381  0.2052 -0.6161
  955MOL0     C28846   0.259   6.066  10.449  0.3235  0.1868 -0.2972
  955MOL0     C28847   0.381   6.019  10.493 -0.4737  0.3793 -0.5808
  955MOL0     C28848   0.460   6.108  10.571 -0.1784 -0.2894 -0.0753
  955MOL0     O28849   0.578   6.065  10.619 -0.2739  0.5405 -0.2423
  955MOL0     C28850   0.681   6.065  10.517  0.3073  0.3806  0.1566
  955MOL0     C28851   0.814   6.039  10.577 -0.7329 -0.4011 -0.2168
  955MOL0     C28852   0.919   6.013  10.470  0.8068  0.1803 -0.0227
  955MOL0     C28853   1.053   5.978  10.529  0.4289 -0.5983  0.0135
  955MOL0     C28854   1.056   5.856  10.604  0.0606  0.6911  0.4944
  955MOL0     C28855   1.068   5.755  10.665 -0.5668  0.1452 -0.6085
  955MOL0     C28856   0.417   6.238  10.590 -0.5897  0.0242  0.1523
  955MOL0     C28857   0.294   6.286  10.537 -0.6502 -0.7187  0.3327
  955MOL0     H28858  -0.217   6.069  10.443 -0.9623  0.0207  0.4777
  955MOL0     H28859  -0.440   6.082  10.302 -0.8262 -0.1144 -2.8248
  955MOL0     H28860  -0.603   6.113  10.167 -3.0901 -1.0303 -5.6590
  955MOL0     H28861  -0.586   6.286  10.229  1.0425 -0.1046 -0.3112
  955MOL0     H28862  -0.672   6.179   9.957  2.4755 -1.9511  1.7892
  955MOL0     H28863  -0.795   6.217  10.082 -0.7099  0.9834 -0.0567
  955MOL0     H28864  -0.676   6.449  10.066  2.0835 -2.3644  1.5101
  955MOL0     H28865  -0.606   6.391   9.922 -1.0579  2.1898 -1.4482
  955MOL0     H28866  -0.902   6.423   9.978 -0.8030 -2.2467 -0.7484
  955MOL0     H28867  -0.811   6.507   9.850 -0.6809 -0.3347  0.2313
  955MOL0     H28868  -0.762   6.254   9.770  1.2300  1.7117  0.7030
  955MOL0     H28869  -0.919   6.242   9.854 -2.3638  1.4614  0.0570
  955MOL0     H28870  -1.000   6.284   9.653 -1.5303  1.2724 -2.2152
  955MOL0     H28871  -0.997   6.443   9.711 -1.2163 -0.7435 -1.1835
  955MOL0     H28872  -0.757   6.462   9.596  1.1204 -1.3495  1.0453
  955MOL0     H28873  -0.794   6.309   9.529 -1.2525  1.4294 -2.1496
  955MOL0     H28874  -0.982   6.545   9.511  1.1678  0.4164  0.1855
  955MOL0     H28875  -0.990   6.401   9.407  0.9833  1.9007 -2.5205
  955MOL0     H28876  -0.713   6.376   9.293 -0.1334  0.9307 -0.1027
  955MOL0     H28877  -0.579   6.418   9.079 -0.7913 -0.2858 -0.9410
  955MOL0     H28878  -0.622   6.562   8.972 -3.2269  0.5989  0.6292
  955MOL0     H28879  -0.480   6.703   9.143 -2.3666  0.2961  1.3232
  955MOL0     H28880  -0.393   6.613   9.040  0.2109  1.9485  0.1437
  955MOL0     H28881  -0.441   6.439   9.268 -1.7720  0.8526 -1.8003
  955MOL0     H28882  -0.425   6.604   9.329  1.1710  1.6828  0.2652
  955MOL0     H28883  -0.207   6.482   9.331 -1.1097  2.2570  2.1001
  955MOL0     H28884  -0.217   6.633   9.261 -0.3695 -0.8052  2.1974
  955MOL0     H28885  -0.104   6.332   8.938 -0.7264 -0.5255  0.4718
  955MOL0     H28886   0.183   6.162   8.873 -0.2965 -0.3990 -1.9610
  955MOL0     H28887   0.042   6.225   8.797 -0.0448  1.4911 -0.7847
  955MOL0     H28888   0.187   6.319   8.787  3.4816 -1.0617  1.0675
  955MOL0     H28889   0.605   6.653   9.103 -1.6651 -1.3113  0.9118
  955MOL0     H28890   0.820   6.673   9.046 -0.2479 -0.2839  2.7505
  955MOL0     H28891   1.093   6.354   9.045 -0.2954 -1.0954 -1.6088
  955MOL0     H28892   1.043   6.340   8.877 -4.3975 -0.3350  2.1997
  955MOL0     H28893   1.207   6.468   8.788 -3.3319  1.1699  0.4658
  955MOL0     H28894   1.235   6.568   8.929 -1.7708  0.1454 -0.9654
  955MOL0     H28895   1.339   6.275   8.900  2.0793  0.9940 -4.1630
  955MOL0     H28896   1.362   6.381   9.038  0.8131  0.0790  0.2743
  955MOL0     H28897   1.467   6.421   8.755  4.0066  2.0548 -0.3291
  955MOL0     H28898   1.472   6.552   8.856  2.7121  0.3650 -2.6477
  955MOL0     H28899   1.676   6.423   8.843 -1.2994 -0.6077 -3.0891
  955MOL0     H28900   1.596   6.282   8.898 -1.6586  0.1994  0.3614
  955MOL0     H28901   1.605   6.528   9.073  0.4909 -0.3222 -3.2388
  955MOL0     H28902   1.559   6.362   9.125 -0.1326  0.7330  1.7583
  955MOL0     H28903   1.786   6.430   9.230 -0.6450 -0.4795  0.1279
  955MOL0     H28904   1.849   6.486   9.079  0.0056  1.0420  0.3236
  955MOL0     H28905   1.945   6.256   9.156 -2.3053 -0.9929  0.6016
  955MOL0     H28906   1.875   6.256   8.995 -0.5942 -2.4944  0.0023
  955MOL0     H28907   0.870   6.246   9.005 -1.2287 -1.6940  1.8114
  955MOL0     H28908   0.629   6.227   9.064  0.8699  0.1778  1.1548
  955MOL0     H28909   0.253   6.508   9.227 -0.5994  2.0612 -0.8195
  955MOL0     H28910   0.026   6.554   9.289  0.0297  0.5666 -0.5023
  955MOL0     H28911  -0.236   6.327  10.014  0.5613 -0.6476 -0.9451
  955MOL0     H28912  -0.020   6.285  10.131  1.9191 -0.1403  1.1388
  955MOL0     H28913   0.189   5.989  10.419 -0.1764  0.3420  0.4596
  955MOL0     H28914   0.407   5.915  10.479 -2.9264 -0.4639  0.6252
  955MOL0     H28915   0.644   5.997  10.440 -0.2169 -0.6619  1.2933
  955MOL0     H28916   0.684   6.164  10.470 -1.9729  1.0987  1.3409
  955MOL0     H28917   0.805   5.948  10.637  0.1804  0.5042  1.3464
  955MOL0     H28918   0.852   6.117  10.644  1.0641  0.3961 -2.0380
  955MOL0     H28919   0.927   6.104  10.410 -0.1462 -0.1557 -0.6819
  955MOL0     H28920   0.881   5.928  10.411  0.9182  0.2742 -0.2307
  955MOL0     H28921   1.076   6.066  10.590  0.6840 -0.0867 -0.8014
  955MOL0     H28922   1.130   5.979  10.451  1.6534 -1.4794  1.1730
  955MOL0     H28923   1.074   5.661  10.716  0.6175  0.8320  0.5639
  955MOL0     H28924   0.478   6.309  10.645  1.9461 -1.6596 -0.3160
  955MOL0     H28925   0.271   6.391  10.548  0.9885 -0.5406  2.9992
  956MOL0     O28926   7.092   0.913  10.197 -0.0856  0.2747  0.1742
  956MOL0     C28927   7.146   1.007  10.137  0.1201 -0.6685 -0.0620
  956MOL0     O28928   7.083   1.095  10.054 -0.2575  0.0216  0.7289
  956MOL0     C28929   6.943   1.112  10.053  0.4678 -0.0264  0.7247
  956MOL0     C28930   6.885   1.151   9.932  0.4097 -0.0325  0.4491
  956MOL0     C28931   6.745   1.166   9.915  0.2729 -0.6399 -0.4099
  956MOL0     C28932   6.665   1.154  10.028  0.4902 -0.2560  0.2573
  956MOL0     O28933   6.529   1.177  10.017 -0.0120 -0.3439 -0.1481
  956MOL0     C28934   6.450   1.092  10.101 -0.1843 -0.0971 -0.0899
  956MOL0     C28935   6.313   1.069  10.036  0.2927 -0.7889 -0.0812
  956MOL0     C28936   6.314   0.992   9.912 -0.4426 -0.2469  0.5071
  956MOL0     C28937   6.175   0.952   9.860 -0.1103 -1.3237  1.3893
  956MOL0     C28938   6.108   1.064   9.793  0.0071 -0.9358 -0.9525
  956MOL0     C28939   5.954   1.041   9.785  0.3088 -0.2559  0.3579
  956MOL0     C28940   5.889   1.164   9.723 -0.2805 -0.3789 -0.5107
  956MOL0     C28941   5.744   1.142   9.713  0.3020  0.6438 -0.1048
  956MOL0     N28942   5.673   1.251   9.643  0.6842 -0.2002  0.4121
  956MOL0     C28943   5.674   1.267   9.508 -0.4366 -0.6576  0.0746
  956MOL0     C28944   5.603   1.380   9.479  0.1914 -0.4980  0.1502
  956MOL0     C28945   5.601   1.453   9.344  0.8089 -0.6553 -0.7206
  956MOL0     C28946   5.489   1.413   9.247  0.2305 -0.5662 -0.7528
  956MOL0     C28947   5.351   1.459   9.305  0.0586 -0.3357  0.1164
  956MOL0     C28948   5.242   1.459   9.197  0.1766 -0.0777 -1.0948
  956MOL0     O28949   5.134   1.529   9.259 -0.3843  0.0256  0.5879
  956MOL0     C28950   5.029   1.558   9.183  0.7568  0.5867  0.3935
  956MOL0     C28951   4.949   1.668   9.236  0.6728 -0.1522  0.5299
  956MOL0     C28952   4.822   1.684   9.192  0.4152 -0.6261  0.0943
  956MOL0     C28953   4.741   1.796   9.255 -0.0713 -0.6414  0.1281
  956MOL0     C28954   4.769   1.599   9.088  0.4450 -0.0843 -0.3581
  956MOL0     C28955   4.636   1.621   9.030 -0.0739  0.0848  0.2973
  956MOL0     O28956   4.565   1.503   9.041 -0.2120 -0.1660  0.6120
  956MOL0     C28957   4.431   1.503   9.002 -0.8689 -0.5039 -0.2636
  956MOL0     C28958   4.338   1.440   9.085  0.3391 -0.5921  0.1430
  956MOL0     C28959   4.206   1.450   9.051  0.1790  0.2117  0.1145
  956MOL0     C28960   4.162   1.507   8.920 -0.5373  0.1242 -0.4781
  956MOL0     O28961   4.031   1.511   8.870 -0.3962 -0.2661 -0.2754
  956MOL0     C28962   3.935   1.430   8.941 -0.1604 -0.3502  0.0174
  956MOL0     C28963   3.799   1.392   8.874 -0.3158  0.7182 -0.0350
  956MOL0     C28964   3.704   1.309   8.962  0.1538  0.4860  0.0155
  956MOL0     C28965   3.562   1.291   8.892 -0.4358 -0.1996 -1.2214
  956MOL0     C28966   3.479   1.188   8.968  0.4313  0.5319  0.1418
  956MOL0     C28967   3.487   1.191   9.127 -0.2358 -0.3319 -0.7786
  956MOL0     C28968   3.409   1.305   9.203 -0.5631 -0.4392 -0.8115
  956MOL0     C28969   3.265   1.292   9.168  0.4591 -0.3978  0.1900
  956MOL0    Cl28970   3.177   1.409   9.242 -0.3425 -0.2391 -0.1126
  956MOL0     C28971   4.267   1.548   8.834 -0.7405  0.4170 -0.4667
  956MOL0     C28972   4.400   1.550   8.872 -0.4233  0.6977  0.1815
  956MOL0     O28973   4.602   1.729   8.976 -0.3449  0.0507 -0.4123
  956MOL0     C28974   4.845   1.491   9.041 -0.0683 -0.8736  0.0083
  956MOL0     C28975   4.980   1.465   9.087 -0.5394  0.3458 -0.4902
  956MOL0     N28976   5.539   1.425   9.603 -1.0268  0.4411 -0.8590
  956MOL0     N28977   5.587   1.346   9.698 -0.1908 -0.0506  0.3005
  956MOL0     C28978   6.722   1.127  10.151 -0.3003  0.2876  0.2732
  956MOL0     C28979   6.865   1.104  10.167  0.6451 -0.6087  0.9242
  956MOL0     C28980   7.291   1.017  10.152  0.1917 -0.0802  0.1968
  956MOL0     C28981   7.351   0.989  10.274  0.6928  0.1995 -0.0588
  956MOL0     C28982   7.490   1.012  10.290 -0.1348  0.4623 -0.0135
  956MOL0     C28983   7.566   1.055  10.180 -0.2221 -0.5866  0.3532
  956MOL0     O28984   7.700   1.061  10.201 -0.3733 -0.2508  0.6518
  956MOL0     C28985   7.782   1.114  10.098 -0.2997 -0.2206  0.1542
  956MOL0     C28986   7.938   1.114  10.134  1.1628  0.3588 -0.0924
  956MOL0     C28987   7.977   1.175  10.273  0.4293  0.5010  0.2544
  956MOL0     C28988   7.909   1.311  10.300  0.7557  0.5974 -0.1910
  956MOL0     C28989   7.931   1.418  10.205  0.3893 -0.2343  0.6926
  956MOL0     C28990   7.946   1.515  10.132 -0.1223 -0.0326 -0.2399
  956MOL0     C28991   7.504   1.070  10.054 -0.7547  0.3342 -0.2270
  956MOL0     C28992   7.369   1.057  10.040 -0.3338 -0.4776  0.0922
  956MOL0     H28993   6.937   1.164   9.837 -0.2925  1.0639  0.1901
  956MOL0     H28994   6.709   1.200   9.819  1.1982  0.2201 -0.4606
  956MOL0     H28995   6.504   0.998  10.116 -0.8922 -0.8935 -2.2616
  956MOL0     H28996   6.443   1.129  10.204  2.7051 -3.2566  1.4380
  956MOL0     H28997   6.244   1.024  10.108  2.4135  0.4791  2.9554
  956MOL0     H28998   6.275   1.171  10.022  2.5657  0.2334  0.7848
  956MOL0     H28999   6.381   1.033   9.835 -1.1940  1.3177  0.6479
  956MOL0     H29000   6.363   0.896   9.925 -1.3068 -1.2002 -2.3994
  956MOL0     H29001   6.185   0.873   9.785  0.1229 -0.8029  0.8575
  956MOL0     H29002   6.111   0.912   9.939 -2.8506 -0.6112 -0.3217
  956MOL0     H29003   6.111   1.150   9.860  1.9165  0.3449 -2.5701
  956MOL0     H29004   6.159   1.087   9.699  2.5379 -1.1827  0.2990
  956MOL0     H29005   5.930   0.950   9.729  0.6936 -0.0002 -0.2305
  956MOL0     H29006   5.914   1.022   9.885 -1.0884 -3.0383 -0.6071
  956MOL0     H29007   5.909   1.247   9.792 -2.3252 -1.2432  1.2588
  956MOL0     H29008   5.936   1.185   9.627  0.0449 -0.5081 -0.3797
  956MOL0     H29009   5.695   1.137   9.811  1.1434 -1.5633  0.2549
  956MOL0     H29010   5.725   1.045   9.667  3.5184  1.4410 -3.6115
  956MOL0     H29011   5.730   1.206   9.438  0.1183 -1.2627  1.0299
  956MOL0     H29012   5.596   1.560   9.368 -1.9760 -0.1473 -2.9776
  956MOL0     H29013   5.696   1.431   9.295  1.0337  0.2315 -0.6937
  956MOL0     H29014   5.497   1.305   9.235 -1.0664 -0.5317 -2.1503
  956MOL0     H29015   5.504   1.456   9.147  1.3130 -1.0909 -0.8349
  956MOL0     H29016   5.362   1.554   9.359  0.4134 -0.5746  0.4697
  956MOL0     H29017   5.325   1.385   9.381  3.6008 -0.3938  1.4585
  956MOL0     H29018   5.219   1.353   9.182 -1.6859  0.1635 -0.2416
  956MOL0     H29019   5.280   1.503   9.105  0.0488  1.6582 -0.3588
  956MOL0     H29020   4.993   1.723   9.319 -2.2090 -0.7613  2.5930
  956MOL0     H29021   4.692   1.868   9.189 -0.3102  0.7743  1.7516
  956MOL0     H29022   4.659   1.760   9.318  1.5535 -1.7920  1.6926
  956MOL0     H29023   4.814   1.853   9.313  1.9607 -1.7264 -1.2336
  956MOL0     H29024   4.385   1.393   9.171  2.8212 -2.5910 -2.1357
  956MOL0     H29025   4.132   1.398   9.110 -0.7100  0.3566 -0.8624
  956MOL0     H29026   3.976   1.333   8.974  0.2453  0.2578  1.3608
  956MOL0     H29027   3.912   1.486   9.032  1.2127  0.4146 -0.0794
  956MOL0     H29028   3.751   1.489   8.858  0.3204  0.8216 -1.4345
  956MOL0     H29029   3.822   1.348   8.776 -0.6365  1.6980 -0.5621
  956MOL0     H29030   3.691   1.364   9.056  3.1640  0.3044  0.6278
  956MOL0     H29031   3.732   1.207   8.988 -1.2929  0.2257  0.6754
  956MOL0     H29032   3.506   1.382   8.872  0.6631  0.7962 -0.0016
  956MOL0     H29033   3.587   1.253   8.793 -0.5344 -0.0097 -1.3189
  956MOL0     H29034   3.521   1.094   8.932  1.0153 -0.0177  2.0868
  956MOL0     H29035   3.378   1.198   8.928  1.2260  3.3835 -1.3493
  956MOL0     H29036   3.445   1.098   9.167  3.2908 -1.9511 -0.4502
  956MOL0     H29037   3.593   1.180   9.151 -0.0532  1.8925 -0.3231
  956MOL0     H29038   3.435   1.409   9.179 -0.3123 -0.0140  1.0935
  956MOL0     H29039   3.430   1.294   9.310  0.7588 -1.8721 -1.1746
  956MOL0     H29040   3.224   1.196   9.201 -1.3757  0.0466 -0.6738
  956MOL0     H29041   3.237   1.298   9.062 -0.0871 -0.5529  0.3183
  956MOL0     H29042   4.241   1.592   8.738  2.8744  2.9192 -0.5031
  956MOL0     H29043   4.478   1.591   8.809 -0.1799 -2.9823 -2.2105
  956MOL0     H29044   4.799   1.423   8.970  0.4549  0.3342 -1.5253
  956MOL0     H29045   5.037   1.378   9.059  1.0846  0.3666  2.3609
  956MOL0     H29046   6.656   1.124  10.237 -2.6956 -1.5562 -1.4962
  956MOL0     H29047   6.918   1.078  10.259  0.9013  0.3193  1.0549
  956MOL0     H29048   7.292   0.953  10.357  2.7208  2.0234  2.3351
  956MOL0     H29049   7.532   0.981  10.385 -2.5295 -0.4355  0.8579
  956MOL0     H29050   7.767   1.051  10.010 -3.8089 -1.3552  1.4250
  956MOL0     H29051   7.758   1.218  10.077 -2.9495 -0.3004  2.2351
  956MOL0     H29052   7.981   1.193  10.071 -1.3146  2.2218  0.3947
  956MOL0     H29053   7.983   1.017  10.113 -0.9615 -0.5326 -0.7786
  956MOL0     H29054   8.083   1.198  10.285  0.4175 -0.1527  1.8998
  956MOL0     H29055   7.966   1.111  10.361  0.1704  4.0379  3.0012
  956MOL0     H29056   7.938   1.343  10.400  3.2898 -0.2201 -0.5924
  956MOL0     H29057   7.800   1.298  10.301  0.8476 -0.4941 -1.1862
  956MOL0     H29058   7.942   1.591  10.056 -2.2881 -0.4039 -0.5590
  956MOL0     H29059   7.565   1.094   9.968 -1.0915  0.6420 -0.3833
  956MOL0     H29060   7.320   1.086   9.948 -2.7896  0.9511  1.7123
  957MOL0     O29061   5.230   0.186   2.882 -0.3627  0.2345 -0.0015
  957MOL0     C29062   5.262   0.093   2.808 -0.1986 -0.3607  0.9106
  957MOL0     O29063   5.179   0.042   2.707  0.2042  0.6411 -0.5209
  957MOL0     C29064   5.043   0.073   2.695 -0.5523 -0.2421 -0.5805
  957MOL0     C29065   4.946  -0.023   2.706  0.4037  0.5129 -0.4907
  957MOL0     C29066   4.817   0.008   2.696  0.4550  0.6929  0.1243
  957MOL0     C29067   4.769   0.146   2.680  0.4835  0.9151  0.5647
  957MOL0     O29068   4.636   0.193   2.680  0.3164 -0.5049 -0.1011
  957MOL0     C29069   4.534   0.096   2.701 -0.1686  0.1683 -1.4154
  957MOL0     C29070   4.397   0.146   2.748 -0.4655 -0.0530 -1.0023
  957MOL0     C29071   4.331   0.231   2.636 -0.0764  0.7583 -0.6891
  957MOL0     C29072   4.222   0.321   2.690  0.1932 -0.0081  0.1595
  957MOL0     C29073   4.140   0.364   2.575  0.5173 -0.0099 -0.1755
  957MOL0     C29074   4.031   0.467   2.612 -0.4616  0.0722 -1.1456
  957MOL0     C29075   3.920   0.475   2.510 -1.0034  1.2530 -0.4830
  957MOL0     C29076   3.811   0.566   2.544 -0.7899  0.1920 -0.9175
  957MOL0     N29077   3.753   0.644   2.430  0.4099  0.0646  0.0676
  957MOL0     C29078   3.806   0.730   2.341  1.0907  0.3626 -1.3111
  957MOL0     C29079   3.719   0.749   2.236  1.0184 -0.8492  0.4802
  957MOL0     C29080   3.702   0.843   2.113  0.2867 -0.0282 -0.1164
  957MOL0     C29081   3.832   0.850   2.037  0.3325  1.0005  0.3509
  957MOL0     C29082   3.829   0.939   1.912  0.1895 -0.0660  0.3122
  957MOL0     C29083   3.964   0.951   1.842 -0.4290 -0.2581 -0.0867
  957MOL0     O29084   3.999   0.825   1.788  0.4162 -0.4375 -0.4966
  957MOL0     C29085   4.127   0.786   1.780  0.1262 -0.0413 -0.4259
  957MOL0     C29086   4.153   0.656   1.751  0.0473 -0.0348  1.1286
  957MOL0     C29087   4.276   0.600   1.733  0.4994  0.6543 -0.7840
  957MOL0     C29088   4.284   0.449   1.730  0.7750 -0.7859 -0.0699
  957MOL0     C29089   4.386   0.691   1.745  0.4260  0.0967  0.7031
  957MOL0     C29090   4.525   0.650   1.701  0.7818  0.1821 -0.4561
  957MOL0     O29091   4.619   0.744   1.724  0.2115 -0.8723 -0.2407
  957MOL0     C29092   4.748   0.712   1.687 -0.2713 -0.4008  0.3548
  957MOL0     C29093   4.832   0.619   1.759 -0.1040 -0.4248 -0.7376
  957MOL0     C29094   4.966   0.591   1.714 -0.0808 -0.3202  0.8099
  957MOL0     C29095   5.015   0.661   1.600  0.8028 -0.8115  0.2841
  957MOL0     O29096   5.130   0.640   1.542 -0.6464 -0.4343 -0.3050
  957MOL0     C29097   5.247   0.643   1.624  0.3603 -0.6981 -0.1828
  957MOL0     C29098   5.360   0.674   1.531 -0.1568  0.2943 -0.0241
  957MOL0     C29099   5.491   0.727   1.605  0.9852  0.3841  0.0958
  957MOL0     C29100   5.596   0.757   1.501  1.0351 -0.3696  0.1953
  957MOL0     C29101   5.736   0.785   1.561 -0.0228 -0.9236  0.0068
  957MOL0     C29102   5.773   0.917   1.639  0.4435  0.9124 -0.0066
  957MOL0     C29103   5.922   0.915   1.684  0.0896  0.7874  0.8237
  957MOL0     C29104   5.952   1.048   1.763  0.5680  0.4244 -0.0598
  957MOL0    Cl29105   5.922   1.021   1.944  0.2508 -0.2124 -0.1854
  957MOL0     C29106   4.939   0.755   1.529 -0.1484  0.2502  0.5579
  957MOL0     C29107   4.805   0.768   1.572  0.2136  0.2778 -0.0049
  957MOL0     O29108   4.548   0.541   1.649  0.0399 -0.1835  0.8086
  957MOL0     C29109   4.366   0.830   1.780 -0.1871 -0.0497 -0.3008
  957MOL0     C29110   4.242   0.878   1.791  1.2530 -0.0163 -0.2723
  957MOL0     N29111   3.616   0.658   2.269  0.0400  0.3218 -0.1971
  957MOL0     N29112   3.634   0.601   2.380  0.5407  0.1411  0.0790
  957MOL0     C29113   4.870   0.240   2.659  0.1355 -0.5728 -0.3339
  957MOL0     C29114   4.999   0.205   2.668  0.2235 -0.0390  0.5351
  957MOL0     C29115   5.404   0.045   2.814 -0.0274  0.3783 -0.3707
  957MOL0     C29116   5.437  -0.084   2.759 -0.8177 -0.5975  0.6128
  957MOL0     C29117   5.579  -0.125   2.758  0.2616  0.2736  0.8134
  957MOL0     C29118   5.675  -0.053   2.831  0.6122 -0.2445 -0.0495
  957MOL0     O29119   5.804  -0.077   2.817 -0.0189  0.4269  0.4280
  957MOL0     C29120   5.894  -0.058   2.921 -0.1799 -0.8850  0.1621
  957MOL0     C29121   6.016  -0.146   2.900  0.3508  0.6482 -0.5853
  957MOL0     C29122   6.116  -0.143   3.022 -0.0734  0.0862 -0.3585
  957MOL0     C29123   6.253  -0.200   2.990 -0.5024  1.3407 -0.1247
  957MOL0     C29124   6.325  -0.226   3.110 -0.3576 -0.1078 -0.1537
  957MOL0     C29125   6.394  -0.239   3.212  0.5634 -0.7398  0.4090
  957MOL0     C29126   5.630   0.063   2.898 -0.4984 -1.3654  0.3927
  957MOL0     C29127   5.499   0.116   2.881 -0.2195 -0.1194  0.3643
  957MOL0     H29128   4.983  -0.123   2.723  2.4091  1.1794 -0.6208
  957MOL0     H29129   4.746  -0.074   2.693  1.6163 -0.3412 -1.5931
  957MOL0     H29130   4.533   0.042   2.606  2.0404  0.4140 -1.6402
  957MOL0     H29131   4.574   0.031   2.780  0.2719  2.0168 -0.0586
  957MOL0     H29132   4.340   0.057   2.777  0.2117 -0.7110 -1.6303
  957MOL0     H29133   4.411   0.206   2.838 -1.6390 -2.3790  0.8360
  957MOL0     H29134   4.409   0.286   2.583  2.8690  0.1967  2.6376
  957MOL0     H29135   4.284   0.163   2.563  2.5865 -0.8631 -1.0252
  957MOL0     H29136   4.159   0.267   2.761  2.8822 -0.8033  2.1090
  957MOL0     H29137   4.269   0.406   2.740  0.5611 -0.9216  1.3978
  957MOL0     H29138   4.192   0.408   2.489  0.6892  1.4265  0.6444
  957MOL0     H29139   4.082   0.277   2.543  0.5175 -1.2204  2.7875
  957MOL0     H29140   3.990   0.438   2.709 -0.2986 -0.3587 -1.2024
  957MOL0     H29141   4.071   0.569   2.617 -0.4628  0.0753 -1.1995
  957MOL0     H29142   3.955   0.515   2.414 -0.4181 -1.2948 -1.4097
  957MOL0     H29143   3.877   0.375   2.499 -2.6181  2.1004 -2.4376
  957MOL0     H29144   3.844   0.640   2.618  0.0056 -2.0091  1.0640
  957MOL0     H29145   3.731   0.509   2.592  0.7164 -0.6123  0.7843
  957MOL0     H29146   3.899   0.786   2.352  0.8887  0.2637  1.3491
  957MOL0     H29147   3.624   0.814   2.043  0.5051 -1.3191  0.1463
  957MOL0     H29148   3.668   0.941   2.148 -3.7453 -0.7529 -1.4960
  957MOL0     H29149   3.849   0.749   1.997 -2.4969  0.0048  1.3834
  957MOL0     H29150   3.911   0.873   2.108  1.1030 -0.3597 -0.0144
  957MOL0     H29151   3.798   1.036   1.951 -2.6786 -1.4622  1.8152
  957MOL0     H29152   3.755   0.900   1.843 -0.9473  0.4276  1.2272
  957MOL0     H29153   4.036   0.994   1.913  1.4891  0.2065 -2.1761
  957MOL0     H29154   3.949   1.015   1.755  0.0274 -2.3024 -1.7412
  957MOL0     H29155   4.063   0.603   1.724  1.4954 -1.6678 -0.8079
  957MOL0     H29156   4.318   0.417   1.631  1.2934  0.7537 -0.4181
  957MOL0     H29157   4.341   0.407   1.814  3.8421  3.3036  0.2261
  957MOL0     H29158   4.185   0.405   1.739 -0.2496  1.4002 -0.0831
  957MOL0     H29159   4.787   0.570   1.845 -0.1249  2.3768  0.9396
  957MOL0     H29160   5.041   0.523   1.750  0.0016 -0.9722 -0.5197
  957MOL0     H29161   5.242   0.727   1.694  1.7813  0.2373 -1.1359
  957MOL0     H29162   5.266   0.550   1.679 -1.3231 -2.1660 -1.9201
  957MOL0     H29163   5.378   0.588   1.467 -1.8327 -0.2389  0.1668
  957MOL0     H29164   5.325   0.758   1.470  0.4591  1.3114  0.9653
  957MOL0     H29165   5.518   0.663   1.690 -1.2121  0.7193  1.1048
  957MOL0     H29166   5.460   0.824   1.645 -0.3448 -0.5098  1.3471
  957MOL0     H29167   5.609   0.669   1.438  1.2968 -1.3182  1.5224
  957MOL0     H29168   5.560   0.841   1.441  1.1686  0.3693  1.1172
  957MOL0     H29169   5.815   0.779   1.485 -0.0573  0.7509 -0.1972
  957MOL0     H29170   5.753   0.704   1.632 -1.3189  0.4047  1.9277
  957MOL0     H29171   5.756   1.009   1.583  0.3782 -0.1197 -1.7693
  957MOL0     H29172   5.716   0.923   1.732  3.3821 -1.2172  2.1205
  957MOL0     H29173   5.982   0.925   1.593  0.5301  2.5083  1.2560
  957MOL0     H29174   5.959   0.839   1.754 -1.2649  1.5006  2.3719
  957MOL0     H29175   5.880   1.116   1.716  0.8591  0.0157 -1.1367
  957MOL0     H29176   6.055   1.080   1.751  0.9465  0.3982  2.5679
  957MOL0     H29177   4.976   0.805   1.440  1.0940 -0.2961  0.7552
  957MOL0     H29178   4.747   0.838   1.513  2.7820  2.3553 -0.2278
  957MOL0     H29179   4.446   0.902   1.769  0.6609 -0.7960  0.8100
  957MOL0     H29180   4.211   0.982   1.796  0.0714 -0.2130 -2.3744
  957MOL0     H29181   4.855   0.345   2.635  1.2896 -0.5058 -0.8631
  957MOL0     H29182   5.068   0.289   2.658  0.3951 -0.2533 -0.1387
  957MOL0     H29183   5.358  -0.133   2.702 -2.1359  2.6351 -0.6301
  957MOL0     H29184   5.615  -0.217   2.714  0.5020 -0.6940  2.9095
  957MOL0     H29185   5.922   0.047   2.922  0.2672 -0.9794 -1.2597
  957MOL0     H29186   5.851  -0.088   3.017 -0.4316 -0.6523  0.1222
  957MOL0     H29187   6.047  -0.110   2.801 -1.1752  0.6794 -1.0709
  957MOL0     H29188   5.987  -0.251   2.893  3.2243 -0.4837  1.8533
  957MOL0     H29189   6.085  -0.203   3.108  0.4145 -1.6231 -1.3491
  957MOL0     H29190   6.143  -0.043   3.058 -0.8343 -0.3030  1.4457
  957MOL0     H29191   6.319  -0.139   2.928 -0.2350  1.5078  0.3175
  957MOL0     H29192   6.247  -0.293   2.932  2.1316  1.7938 -1.2616
  957MOL0     H29193   6.458  -0.259   3.295 -0.1257 -1.8307  0.6966
  957MOL0     H29194   5.699   0.125   2.956  0.7305 -1.7042 -0.6469
  957MOL0     H29195   5.467   0.202   2.940 -0.4609 -0.7725  1.2093
  958MOL0     O29196   4.942   7.142   0.256  0.3159  0.5722  0.0896
  958MOL0     C29197   4.969   7.252   0.302  0.4816  0.3235 -0.8420
  958MOL0     O29198   4.879   7.333   0.357 -0.2997 -0.2573 -0.4914
  958MOL0     C29199   4.762   7.281   0.383  0.1455  0.2695  0.2113
  958MOL0     C29200   4.745   7.190   0.488 -0.1242 -0.2213  0.0004
  958MOL0     C29201   4.618   7.142   0.511  0.1900 -0.0297 -0.1324
  958MOL0     C29202   4.508   7.189   0.440  0.8307 -0.1137 -0.0289
  958MOL0     O29203   4.378   7.151   0.465 -0.3919  0.2540 -0.2175
  958MOL0     C29204   4.357   7.011   0.433 -0.5719 -0.2393 -0.3264
  958MOL0     C29205   4.226   6.953   0.491 -0.0813 -0.0992 -0.0903
  958MOL0     C29206   4.240   6.935   0.654 -1.0566  0.3258 -0.0351
  958MOL0     C29207   4.113   6.929   0.732 -1.5445 -0.1883  0.1137
  958MOL0     C29208   4.143   6.855   0.864  1.1698  0.7334 -0.3072
  958MOL0     C29209   4.022   6.826   0.947 -0.0418  0.1495 -0.1375
  958MOL0     C29210   3.984   6.672   0.955 -0.5859 -0.1071  0.4501
  958MOL0     C29211   4.066   6.593   1.065  0.3395  0.5479  0.2708
  958MOL0     N29212   4.024   6.621   1.202 -0.2510 -0.1022 -0.1581
  958MOL0     C29213   3.899   6.655   1.244  0.2221 -0.6715 -0.2246
  958MOL0     C29214   3.909   6.696   1.373  0.4962 -0.1149 -0.2904
  958MOL0     C29215   3.797   6.758   1.454  0.4212 -0.7007  0.2471
  958MOL0     C29216   3.745   6.656   1.559 -0.1837  0.7820 -0.1806
  958MOL0     C29217   3.649   6.704   1.674 -0.1189  0.3154  0.1424
  958MOL0     C29218   3.511   6.689   1.625 -0.6494 -0.1338  0.8532
  958MOL0     O29219   3.440   6.773   1.719  0.9884  0.4531  0.3457
  958MOL0     C29220   3.311   6.805   1.678  0.5512 -0.9947  0.0280
  958MOL0     C29221   3.212   6.736   1.741  0.1345 -0.0138 -0.8069
  958MOL0     C29222   3.079   6.759   1.711  0.0940 -0.3429 -0.0169
  958MOL0     C29223   2.973   6.692   1.793  0.7872  0.5519 -0.2214
  958MOL0     C29224   3.046   6.853   1.611 -0.4890  0.5113 -0.4246
  958MOL0     C29225   2.909   6.880   1.575  0.0447 -0.1926 -0.1457
  958MOL0     O29226   2.817   6.894   1.677  0.4343  0.0140  0.0664
  958MOL0     C29227   2.692   6.934   1.652 -0.9053  0.1082 -0.4318
  958MOL0     C29228   2.653   7.061   1.631  0.4167  1.1164  0.5522
  958MOL0     C29229   2.517   7.092   1.596  0.6994  0.6132 -0.4059
  958MOL0     C29230   2.417   6.994   1.573 -0.3688 -0.2001  0.0576
  958MOL0     O29231   2.290   7.017   1.542 -0.1137 -0.1071 -0.4024
  958MOL0     C29232   2.227   7.145   1.575 -1.1239 -0.0431  0.4105
  958MOL0     C29233   2.079   7.143   1.555  0.7924 -0.6242 -0.8039
  958MOL0     C29234   2.020   7.285   1.569  1.0826  0.0961  0.1511
  958MOL0     C29235   1.877   7.261   1.622  0.5245  0.6400  0.0460
  958MOL0     C29236   1.816   7.397   1.675  0.9892 -0.0706  0.5962
  958MOL0     C29237   1.680   7.372   1.745  0.1377  0.0843 -1.0999
  958MOL0     C29238   1.579   7.290   1.664 -0.1494 -0.3589 -0.7220
  958MOL0     C29239   1.446   7.258   1.737 -0.6637 -0.3858 -0.2321
  958MOL0    Cl29240   1.350   7.399   1.746 -0.0137  0.2154  0.3016
  958MOL0     C29241   2.465   6.866   1.593 -0.0349  0.1927 -0.0016
  958MOL0     C29242   2.593   6.840   1.638  0.0493  0.3394  0.5244
  958MOL0     O29243   2.883   6.900   1.456 -0.6841 -0.6363  0.2713
  958MOL0     C29244   3.148   6.927   1.558 -0.5334  0.7142  0.1538
  958MOL0     C29245   3.280   6.907   1.596 -0.0667  0.6213  1.0258
  958MOL0     N29246   4.036   6.673   1.418  0.2045  0.3317 -0.0419
  958MOL0     N29247   4.111   6.642   1.312  0.4440 -0.4752  0.3600
  958MOL0     C29248   4.533   7.272   0.329  0.7843  0.1366  0.1550
  958MOL0     C29249   4.653   7.329   0.314 -0.2359  0.6739  0.1440
  958MOL0     C29250   5.102   7.319   0.288  0.9410 -0.1526 -0.5841
  958MOL0     C29251   5.117   7.458   0.314  0.6937  0.4334 -0.3116
  958MOL0     C29252   5.238   7.518   0.291 -0.4944 -0.2021 -0.3727
  958MOL0     C29253   5.353   7.441   0.271  0.1000  0.3731 -0.8793
  958MOL0     O29254   5.479   7.503   0.255  0.7667  0.8027 -0.4226
  958MOL0     C29255   5.595   7.428   0.284 -0.1893  0.1324  0.4585
  958MOL0     C29256   5.709   7.520   0.278  0.2418  0.4882  0.0089
  958MOL0     C29257   5.690   7.653   0.357  0.0274 -0.0941 -0.2151
  958MOL0     C29258   5.806   7.754   0.335  0.1771 -0.1464 -0.8521
  958MOL0     C29259   5.803   7.805   0.198 -0.1464 -1.0521  0.4594
  958MOL0     C29260   5.775   7.853   0.090  0.0664  1.1685 -0.1378
  958MOL0     C29261   5.339   7.301   0.260  0.1468 -0.0532 -0.5457
  958MOL0     C29262   5.214   7.239   0.266  0.6975 -0.0752  0.1332
  958MOL0     H29263   4.832   7.154   0.542 -0.0881  2.0529  1.6130
  958MOL0     H29264   4.610   7.065   0.587  0.0440  0.9514  0.8700
  958MOL0     H29265   4.358   6.986   0.327  0.0835  1.4438 -0.7538
  958MOL0     H29266   4.444   6.963   0.480 -1.1165  1.7671  3.0895
  958MOL0     H29267   4.144   7.022   0.472 -0.2608 -0.7835 -2.0109
  958MOL0     H29268   4.207   6.855   0.448 -0.9845  0.3003 -0.6331
  958MOL0     H29269   4.294   6.840   0.659 -1.4725 -0.0117 -1.4675
  958MOL0     H29270   4.313   7.011   0.682  2.9553 -1.6314 -3.9534
  958MOL0     H29271   4.073   7.027   0.761  2.0031  0.9107  1.9318
  958MOL0     H29272   4.035   6.877   0.676 -3.2562  0.3183  1.8979
  958MOL0     H29273   4.182   6.756   0.842 -1.9799 -0.0746 -3.0728
  958MOL0     H29274   4.207   6.912   0.931  0.7271 -0.7616  1.4760
  958MOL0     H29275   4.050   6.860   1.047 -3.1752 -0.7844  1.1762
  958MOL0     H29276   3.938   6.886   0.911  2.2868  3.5513 -0.4085
  958MOL0     H29277   3.875   6.666   0.951 -0.5324 -0.6018 -1.9098
  958MOL0     H29278   4.007   6.630   0.857 -0.4829  1.5257 -0.2509
  958MOL0     H29279   4.174   6.591   1.051  0.1261 -0.6920 -1.5337
  958MOL0     H29280   4.039   6.487   1.053  0.2916  0.5255  0.5670
  958MOL0     H29281   3.808   6.664   1.186  0.1324  0.5946  0.0681
  958MOL0     H29282   3.836   6.849   1.500  0.7865  0.4860 -2.1935
  958MOL0     H29283   3.717   6.793   1.387 -1.2526  0.3311  2.6503
  958MOL0     H29284   3.833   6.621   1.615  2.0830  4.2200 -1.2688
  958MOL0     H29285   3.712   6.571   1.499  1.4517 -0.1672  0.1915
  958MOL0     H29286   3.680   6.802   1.710 -0.7864  0.2725  0.8518
  958MOL0     H29287   3.664   6.632   1.755 -1.3351  1.9833  1.9232
  958MOL0     H29288   3.482   6.583   1.623 -0.5108 -0.1769  1.1287
  958MOL0     H29289   3.495   6.730   1.525 -1.0554  0.4421  1.1508
  958MOL0     H29290   3.237   6.682   1.832 -2.3340  1.6863  1.0333
  958MOL0     H29291   2.894   6.653   1.728  1.9842  2.2382 -2.8465
  958MOL0     H29292   3.009   6.603   1.846 -1.0078  0.6521  1.2523
  958MOL0     H29293   2.939   6.762   1.870  1.6250  0.9535 -0.2081
  958MOL0     H29294   2.718   7.148   1.632  0.3179  1.1913  0.5134
  958MOL0     H29295   2.495   7.196   1.575 -0.0555  1.1300  2.4303
  958MOL0     H29296   2.257   7.174   1.676 -0.0587 -0.7974  0.3346
  958MOL0     H29297   2.270   7.214   1.501  1.1272 -1.5169  0.2591
  958MOL0     H29298   2.050   7.096   1.461  1.8706 -4.4578  0.5839
  958MOL0     H29299   2.040   7.074   1.631 -1.3111  3.0371  1.7809
  958MOL0     H29300   2.017   7.345   1.478 -1.2979 -2.1672 -1.3663
  958MOL0     H29301   2.073   7.341   1.647 -0.6829  1.4318  0.4540
  958MOL0     H29302   1.828   7.234   1.528  2.6071  2.8543 -1.8518
  958MOL0     H29303   1.880   7.197   1.710  2.2943  0.8355  0.1758
  958MOL0     H29304   1.799   7.469   1.595 -1.3318  0.2261  1.2777
  958MOL0     H29305   1.888   7.450   1.739  3.7633 -0.1075 -2.2989
  958MOL0     H29306   1.703   7.330   1.843  0.6697  0.2313 -1.1614
  958MOL0     H29307   1.655   7.478   1.754  1.7132  0.3574  0.4677
  958MOL0     H29308   1.614   7.188   1.644 -2.3069 -1.7932  2.0113
  958MOL0     H29309   1.570   7.336   1.566  2.2084  1.4924 -0.1507
  958MOL0     H29310   1.472   7.218   1.835  3.5076 -3.1470 -2.1443
  958MOL0     H29311   1.414   7.173   1.676  1.9086 -3.1091  1.9193
  958MOL0     H29312   2.400   6.781   1.576  1.3755 -0.8746 -0.2259
  958MOL0     H29313   2.616   6.735   1.652 -1.9674 -0.3339 -0.8279
  958MOL0     H29314   3.128   7.002   1.482 -0.7968  0.7174  0.2261
  958MOL0     H29315   3.350   6.968   1.539 -2.0749  1.7286 -0.3668
  958MOL0     H29316   4.451   7.301   0.264  0.2615  0.9253  1.1405
  958MOL0     H29317   4.678   7.411   0.247  2.0075 -0.1070 -0.0585
  958MOL0     H29318   5.029   7.517   0.337  0.6395  1.2558 -2.4260
  958MOL0     H29319   5.265   7.622   0.305  0.4709 -0.4324 -0.4574
  958MOL0     H29320   5.590   7.386   0.385 -0.9620  2.1255  1.3090
  958MOL0     H29321   5.621   7.345   0.218  1.9573  0.1800  1.1776
  958MOL0     H29322   5.699   7.548   0.173  1.8846  0.1420 -0.2610
  958MOL0     H29323   5.799   7.463   0.303 -1.6570 -3.3257 -1.1570
  958MOL0     H29324   5.695   7.634   0.464  0.0345 -1.8641 -0.5033
  958MOL0     H29325   5.590   7.693   0.342 -0.4304 -1.1211  0.0656
  958MOL0     H29326   5.905   7.711   0.353  0.6182 -0.0138 -2.7143
  958MOL0     H29327   5.782   7.835   0.405  1.0956 -0.2809 -0.3761
  958MOL0     H29328   5.745   7.904   0.001  0.0992 -0.2059 -0.9704
  958MOL0     H29329   5.423   7.233   0.268  0.1385 -0.0118 -0.0835
  958MOL0     H29330   5.217   7.131   0.279  0.3687  0.1889  3.3191
  959MOL0     O29331   8.266   5.820   7.429  0.0182  0.6011  0.0782
  959MOL0     C29332   8.305   5.933   7.442  0.3189 -0.0590  0.3647
  959MOL0     O29333   8.216   6.038   7.448 -0.9504 -0.3525  0.2690
  959MOL0     C29334   8.082   6.027   7.413 -0.3029  0.8530  0.4873
  959MOL0     C29335   8.034   5.980   7.288 -0.7238  0.3984 -0.7165
  959MOL0     C29336   7.901   5.974   7.253 -0.0634  0.0868 -0.4152
  959MOL0     C29337   7.802   6.012   7.350 -0.6003  0.7452  0.6915
  959MOL0     O29338   7.675   5.997   7.318  0.2225 -0.7250  0.2989
  959MOL0     C29339   7.582   5.956   7.425  1.0853  0.0794 -0.4743
  959MOL0     C29340   7.432   5.943   7.379 -0.0560  0.1591  0.3496
  959MOL0     C29341   7.384   6.085   7.342  0.7098 -0.5018  0.1508
  959MOL0     C29342   7.231   6.086   7.304 -1.1817 -0.5829  0.0260
  959MOL0     C29343   7.197   6.221   7.247 -0.7736 -0.4312  0.2553
  959MOL0     C29344   7.056   6.200   7.188  0.3184  0.6249 -0.4572
  959MOL0     C29345   6.941   6.195   7.293  0.1124 -0.2642 -0.2563
  959MOL0     C29346   6.801   6.172   7.228  1.0978 -0.1257 -0.3639
  959MOL0     N29347   6.768   6.029   7.178  0.2974 -0.5072  0.4862
  959MOL0     C29348   6.642   5.998   7.124  0.2136 -1.2136 -0.1191
  959MOL0     C29349   6.644   5.867   7.105  0.1958  0.5812  0.2364
  959MOL0     C29350   6.529   5.791   7.047  0.2158  0.6848 -0.2641
  959MOL0     C29351   6.401   5.808   7.134 -0.4090  0.3925 -0.4887
  959MOL0     C29352   6.296   5.708   7.098 -0.2003  0.2370  0.5992
  959MOL0     C29353   6.170   5.714   7.191  0.1354  0.0703 -0.1519
  959MOL0     O29354   6.081   5.617   7.149  0.8458 -0.1216  1.0723
  959MOL0     C29355   5.963   5.606   7.211  0.1193  0.1368  0.2765
  959MOL0     C29356   5.917   5.689   7.317 -0.0397 -0.2154  0.3518
  959MOL0     C29357   5.786   5.682   7.363  0.2338  0.4790 -0.1411
  959MOL0     C29358   5.755   5.768   7.475  1.3818 -0.4583 -0.2172
  959MOL0     C29359   5.695   5.599   7.294 -0.6459 -0.1912 -0.0319
  959MOL0     C29360   5.548   5.601   7.321 -0.4155  0.6171 -0.6350
  959MOL0     O29361   5.486   5.493   7.271  0.0089 -0.1876 -0.5124
  959MOL0     C29362   5.352   5.493   7.285 -0.1275 -0.3749 -0.8909
  959MOL0     C29363   5.311   5.447   7.410 -0.0445  0.9424  0.2229
  959MOL0     C29364   5.176   5.415   7.427  0.8101  0.2921 -0.4191
  959MOL0     C29365   5.086   5.453   7.329  0.3702 -0.5120 -0.4355
  959MOL0     O29366   4.951   5.426   7.337  0.3880  0.3263  0.0707
  959MOL0     C29367   4.895   5.333   7.431 -0.1351 -0.4860 -0.3418
  959MOL0     C29368   4.754   5.299   7.398  0.1702 -0.5408 -0.9316
  959MOL0     C29369   4.703   5.202   7.505 -0.3025  0.0313 -0.3408
  959MOL0     C29370   4.572   5.127   7.453  0.0757 -0.0315 -0.5338
  959MOL0     C29371   4.492   5.050   7.556 -0.2231 -0.4766  0.1149
  959MOL0     C29372   4.576   4.954   7.645 -1.0169  0.1911 -0.0795
  959MOL0     C29373   4.487   4.862   7.737 -0.7279  0.3026 -0.0552
  959MOL0     C29374   4.569   4.737   7.784  0.4923 -0.3372 -0.2303
  959MOL0    Cl29375   4.616   4.637   7.649  0.0843 -0.2898 -0.2972
  959MOL0     C29376   5.132   5.491   7.203  0.7564 -0.0880  0.0692
  959MOL0     C29377   5.272   5.503   7.176 -0.0585  0.2466 -0.3145
  959MOL0     O29378   5.497   5.699   7.383  0.2847  0.0459  0.7843
  959MOL0     C29379   5.743   5.510   7.194  1.0663 -0.0373 -0.3713
  959MOL0     C29380   5.878   5.507   7.162  0.2860 -0.0174 -0.3417
  959MOL0     N29381   6.772   5.822   7.129 -0.7956 -0.6680 -0.2503
  959MOL0     N29382   6.845   5.918   7.174  0.7594  0.3733  0.3626
  959MOL0     C29383   7.855   6.049   7.481 -0.0414 -0.0391 -0.1180
  959MOL0     C29384   7.991   6.057   7.507 -0.5207  0.0050  0.4670
  959MOL0     C29385   8.449   5.950   7.444 -0.7508 -0.0292 -0.1103
  959MOL0     C29386   8.505   6.069   7.486 -0.8726 -0.9643 -0.4038
  959MOL0     C29387   8.644   6.091   7.494 -0.6110 -0.3680  1.1279
  959MOL0     C29388   8.728   5.984   7.463 -0.8257 -0.3697  0.0179
  959MOL0     O29389   8.865   6.016   7.460  0.7336 -0.9108  0.0490
  959MOL0     C29390   8.957   5.907   7.484  0.3938 -0.5689 -0.5566
  959MOL0     C29391   9.095   5.952   7.518 -0.1091  0.8711 -0.0572
  959MOL0     C29392   9.190   5.834   7.558  0.0562 -0.3136 -0.8643
  959MOL0     C29393   9.340   5.879   7.576  0.2902 -0.2160  0.8667
  959MOL0     C29394   9.420   5.793   7.657 -0.0303  0.1159  0.3383
  959MOL0     C29395   9.496   5.727   7.724  0.3158  0.4027 -0.0516
  959MOL0     C29396   8.672   5.857   7.430 -0.6271  0.1821  0.4731
  959MOL0     C29397   8.536   5.845   7.422 -0.2054 -0.4297 -0.7446
  959MOL0     H29398   8.117   5.960   7.221  0.2452 -2.0338  1.0987
  959MOL0     H29399   7.881   5.931   7.155 -0.1424 -1.6392  0.3333
  959MOL0     H29400   7.612   5.856   7.459 -3.3028 -1.0295  0.7802
  959MOL0     H29401   7.584   6.028   7.507  0.0387 -0.0119 -0.3557
  959MOL0     H29402   7.412   5.885   7.288 -1.5645 -0.8486  1.2920
  959MOL0     H29403   7.380   5.898   7.463  2.6279 -1.5471  1.2128
  959MOL0     H29404   7.397   6.160   7.420 -0.2764  0.5979 -0.7086
  959MOL0     H29405   7.438   6.115   7.251  1.5508 -0.9686  0.4905
  959MOL0     H29406   7.214   6.004   7.233  0.6950 -0.7117 -0.3240
  959MOL0     H29407   7.182   6.073   7.400 -0.0521 -1.1939  0.5336
  959MOL0     H29408   7.200   6.304   7.318 -0.2514  0.7382 -1.0761
  959MOL0     H29409   7.261   6.255   7.165  0.1097 -0.7482  0.8057
  959MOL0     H29410   7.033   6.281   7.118  1.8765 -1.7823 -4.0901
  959MOL0     H29411   7.050   6.112   7.124  1.0432 -1.3631  2.0704
  959MOL0     H29412   6.958   6.107   7.355 -1.1462  0.4879  1.2267
  959MOL0     H29413   6.939   6.290   7.347  0.9476  0.2075 -1.0234
  959MOL0     H29414   6.793   6.243   7.145 -1.9548  0.7474  0.5595
  959MOL0     H29415   6.723   6.191   7.302  0.2750 -1.5425 -0.8293
  959MOL0     H29416   6.562   6.069   7.109 -0.4430 -1.7646  0.6829
  959MOL0     H29417   6.523   5.844   6.951 -1.4580  1.5201  0.2819
  959MOL0     H29418   6.544   5.687   7.015 -0.7063  0.0450  1.2884
  959MOL0     H29419   6.361   5.910   7.133 -1.3131  0.1126  1.4207
  959MOL0     H29420   6.431   5.791   7.238 -0.3708 -1.6955 -0.8008
  959MOL0     H29421   6.340   5.608   7.104  1.7037  0.9130 -1.0832
  959MOL0     H29422   6.265   5.729   6.996 -1.3573  0.7930  1.0500
  959MOL0     H29423   6.126   5.813   7.177  1.3218  0.5907 -0.3478
  959MOL0     H29424   6.196   5.711   7.297 -0.7982 -1.5278  0.0776
  959MOL0     H29425   5.987   5.764   7.353  0.0306  0.3235 -0.8453
  959MOL0     H29426   5.685   5.843   7.437  1.8229  0.1628  0.1559
  959MOL0     H29427   5.703   5.703   7.546  0.6763  1.3342  0.9775
  959MOL0     H29428   5.838   5.830   7.511 -1.8295  2.9827  2.0313
  959MOL0     H29429   5.389   5.418   7.479 -0.9258 -1.3712  0.3373
  959MOL0     H29430   5.145   5.368   7.519  2.2133 -0.5911 -0.3725
  959MOL0     H29431   4.959   5.245   7.423  0.9428  0.3582 -1.3565
  959MOL0     H29432   4.898   5.376   7.531 -0.1239  0.8687 -0.9064
  959MOL0     H29433   4.691   5.388   7.408 -1.1223 -1.3886 -1.2321
  959MOL0     H29434   4.744   5.236   7.308  1.1016 -3.2671  0.7475
  959MOL0     H29435   4.668   5.260   7.591 -2.2174  0.5608 -1.4173
  959MOL0     H29436   4.773   5.121   7.527 -0.0443  0.0938 -0.9084
  959MOL0     H29437   4.501   5.200   7.412 -0.0208  2.1371  3.0981
  959MOL0     H29438   4.590   5.058   7.369  1.0272 -1.9961  1.1870
  959MOL0     H29439   4.416   4.994   7.500 -3.2759  1.1139  2.3709
  959MOL0     H29440   4.438   5.119   7.622  0.9862  0.1286  0.5042
  959MOL0     H29441   4.640   4.897   7.578 -2.9400  0.2619 -2.0793
  959MOL0     H29442   4.645   5.013   7.707 -0.7020  0.2953 -0.5275
  959MOL0     H29443   4.392   4.838   7.688 -2.5774  0.5793  3.1369
  959MOL0     H29444   4.460   4.922   7.824 -1.9745  0.8445 -0.7935
  959MOL0     H29445   4.499   4.680   7.847 -0.1644 -0.2482 -0.8642
  959MOL0     H29446   4.653   4.771   7.844 -2.4160  3.8213  2.0042
  959MOL0     H29447   5.051   5.505   7.131  0.2290  1.8466  0.9794
  959MOL0     H29448   5.329   5.532   7.088  4.4561 -1.6925  1.6490
  959MOL0     H29449   5.684   5.435   7.142 -1.6017  1.9866 -0.4799
  959MOL0     H29450   5.918   5.440   7.087 -1.2543 -2.7284  1.1244
  959MOL0     H29451   7.791   6.083   7.562  1.8148 -0.2905  1.5031
  959MOL0     H29452   8.032   6.098   7.599  2.2467 -0.4305 -0.4812
  959MOL0     H29453   8.434   6.149   7.507  0.3453 -0.2275  1.1534
  959MOL0     H29454   8.684   6.191   7.509  0.9448 -0.7960  0.1124
  959MOL0     H29455   8.925   5.853   7.574 -1.1843  0.8647 -0.2045
  959MOL0     H29456   8.971   5.851   7.391  2.9106 -0.8889 -0.0651
  959MOL0     H29457   9.084   6.012   7.609  0.1704  0.3485  0.3294
  959MOL0     H29458   9.124   6.015   7.434 -3.6317  0.7123 -1.5548
  959MOL0     H29459   9.182   5.753   7.485 -1.4138 -2.5032  1.5581
  959MOL0     H29460   9.152   5.804   7.656  0.3180 -0.9274 -0.9471
  959MOL0     H29461   9.350   5.980   7.619 -3.1989  1.9190 -2.6248
  959MOL0     H29462   9.380   5.882   7.475  0.0480 -1.6590  0.7152
  959MOL0     H29463   9.563   5.675   7.789  0.1508  2.0882  1.5292
  959MOL0     H29464   8.736   5.773   7.405 -1.4472 -1.3392  3.0966
  959MOL0     H29465   8.493   5.750   7.391 -1.8367  1.0872 -3.5294
  960MOL0     O29466   7.056   2.732   2.341  0.1123  0.2906 -0.3387
  960MOL0     C29467   7.129   2.798   2.419  0.6831 -0.1417  0.8916
  960MOL0     O29468   7.088   2.877   2.515  0.8325 -0.0820  0.6630
  960MOL0     C29469   6.960   2.919   2.509  0.1432  0.4369 -0.1893
  960MOL0     C29470   6.872   2.891   2.614  0.0604  0.1045 -0.4181
  960MOL0     C29471   6.742   2.945   2.619  0.1119  0.0965  0.7377
  960MOL0     C29472   6.688   3.003   2.505 -0.2567 -0.1368 -0.7392
  960MOL0     O29473   6.553   3.038   2.522 -0.1987 -0.0857 -0.0436
  960MOL0     C29474   6.471   3.053   2.411 -0.9517  0.1980  0.3290
  960MOL0     C29475   6.329   3.079   2.465  0.6184 -0.1891  1.0466
  960MOL0     C29476   6.224   3.020   2.376  0.7928  0.8544  0.4548
  960MOL0     C29477   6.079   3.056   2.422  0.3717 -0.2514 -0.3008
  960MOL0     C29478   6.037   2.963   2.537  0.7693  0.3885 -0.5950
  960MOL0     C29479   5.883   2.990   2.567  0.5308  0.5725  0.2008
  960MOL0     C29480   5.861   2.909   2.689  0.5435  0.4428 -0.2011
  960MOL0     C29481   5.718   2.933   2.741 -0.7774 -0.4200 -0.7032
  960MOL0     N29482   5.614   2.871   2.660 -0.3693 -0.0395  0.6852
  960MOL0     C29483   5.539   2.937   2.571 -0.0451 -0.1261  0.7957
  960MOL0     C29484   5.434   2.867   2.540  0.8606 -0.2411 -0.6441
  960MOL0     C29485   5.322   2.921   2.468 -0.1024 -0.1450 -0.5485
  960MOL0     C29486   5.239   3.012   2.567  0.0568  0.3526  0.3691
  960MOL0     C29487   5.181   2.946   2.698 -0.1590 -0.9846  1.1700
  960MOL0     C29488   5.100   2.812   2.667 -0.0825  0.7724 -0.5727
  960MOL0     O29489   5.002   2.835   2.561  0.7532 -0.1155 -0.0556
  960MOL0     C29490   4.871   2.842   2.601  0.2149 -0.2623 -0.0914
  960MOL0     C29491   4.827   2.867   2.727 -0.0703  0.0475 -0.3413
  960MOL0     C29492   4.689   2.868   2.759  0.0894 -0.6600  0.1638
  960MOL0     C29493   4.642   2.892   2.906 -0.4966  0.4574 -0.0600
  960MOL0     C29494   4.593   2.828   2.661  0.6674 -0.2743 -0.4603
  960MOL0     C29495   4.447   2.820   2.695  0.3634 -0.9980  0.0929
  960MOL0     O29496   4.393   2.705   2.649 -0.0895 -0.0045  0.1448
  960MOL0     C29497   4.258   2.683   2.658 -0.0811  0.0878 -0.2024
  960MOL0     C29498   4.151   2.776   2.662  0.3774 -0.2517  0.0974
  960MOL0     C29499   4.021   2.738   2.667  0.0604 -0.3450 -0.3732
  960MOL0     C29500   3.986   2.603   2.652 -0.1825 -0.6790  0.2662
  960MOL0     O29501   3.860   2.553   2.635  0.1260  0.1284 -0.7250
  960MOL0     C29502   3.751   2.647   2.640  0.0364 -0.0949 -0.1518
  960MOL0     C29503   3.615   2.579   2.633  0.2738 -0.3043  1.3135
  960MOL0     C29504   3.496   2.680   2.611 -0.2282  0.0368 -0.4751
  960MOL0     C29505   3.372   2.590   2.627 -0.2832 -0.4782 -0.2387
  960MOL0     C29506   3.241   2.664   2.654 -0.0623  0.5087  0.9623
  960MOL0     C29507   3.121   2.575   2.699 -0.6542  0.0190  0.4008
  960MOL0     C29508   3.085   2.478   2.583  0.0033 -0.0805 -1.0632
  960MOL0     C29509   2.992   2.373   2.638  0.0851  0.8110 -0.0767
  960MOL0    Cl29510   2.938   2.275   2.495  0.2818 -0.3037 -0.3308
  960MOL0     C29511   4.082   2.503   2.648 -0.5909  0.2023 -0.4161
  960MOL0     C29512   4.219   2.544   2.663 -0.4407 -0.3931  0.3488
  960MOL0     O29513   4.393   2.908   2.765  0.1805 -0.5318  0.4339
  960MOL0     C29514   4.642   2.809   2.529 -0.6366 -0.0006  1.4729
  960MOL0     C29515   4.778   2.817   2.495  1.2674  0.0412 -0.6933
  960MOL0     N29516   5.454   2.740   2.603  0.8726 -0.0282  0.0135
  960MOL0     N29517   5.566   2.746   2.665 -0.1152 -0.1062  0.6984
  960MOL0     C29518   6.775   3.027   2.395 -0.8565 -0.3096  0.9063
  960MOL0     C29519   6.912   3.007   2.409  0.6466  0.7336  0.4664
  960MOL0     C29520   7.277   2.769   2.409 -0.0655  0.1781 -0.7031
  960MOL0     C29521   7.356   2.766   2.526 -0.4067 -0.5709  0.0955
  960MOL0     C29522   7.490   2.743   2.518  1.2919  0.6668 -0.5588
  960MOL0     C29523   7.553   2.709   2.398  0.2015 -0.4210 -0.2127
  960MOL0     O29524   7.688   2.699   2.371  0.6800 -0.0673 -0.5033
  960MOL0     C29525   7.779   2.699   2.475  0.1768  0.5225 -0.6126
  960MOL0     C29526   7.791   2.562   2.540  0.4000  0.3084 -0.0668
  960MOL0     C29527   7.913   2.568   2.642  0.3867 -0.2754 -0.2257
  960MOL0     C29528   7.943   2.440   2.719 -0.2439 -0.6610  0.5656
  960MOL0     C29529   7.941   2.324   2.621  0.1234  0.0607  0.0783
  960MOL0     C29530   7.938   2.240   2.537 -0.3141  0.3424  1.1174
  960MOL0     C29531   7.473   2.696   2.289 -0.3114 -0.8261 -0.7076
  960MOL0     C29532   7.341   2.727   2.288 -0.0018 -0.6535 -0.2382
  960MOL0     H29533   6.906   2.829   2.696 -1.4338 -2.8518 -1.8728
  960MOL0     H29534   6.675   2.912   2.697  0.3452  1.0005  1.3379
  960MOL0     H29535   6.504   3.137   2.349 -0.7919 -1.1755 -1.5127
  960MOL0     H29536   6.474   2.967   2.343 -1.9095  0.3249  0.1050
  960MOL0     H29537   6.303   3.032   2.560  0.4404 -1.7581  0.2640
  960MOL0     H29538   6.307   3.186   2.463 -2.3100 -0.6069 -3.0343
  960MOL0     H29539   6.232   3.052   2.272 -2.0536 -0.1995 -0.1918
  960MOL0     H29540   6.244   2.913   2.376 -0.5481  0.5797 -0.4100
  960MOL0     H29541   6.069   3.162   2.444 -0.3522  0.0232 -1.8547
  960MOL0     H29542   6.017   3.038   2.334  2.0849 -2.1037 -1.2264
  960MOL0     H29543   6.059   2.857   2.521  3.5629  0.5158  1.7184
  960MOL0     H29544   6.086   2.995   2.629  0.8581 -3.7392  1.0229
  960MOL0     H29545   5.864   3.096   2.585  2.9921  1.2567 -0.8571
  960MOL0     H29546   5.817   2.961   2.485  1.9778 -1.9600 -0.1684
  960MOL0     H29547   5.859   2.803   2.660 -1.1032  1.1593 -3.0235
  960MOL0     H29548   5.938   2.914   2.767  0.0489 -0.2910  0.3531
  960MOL0     H29549   5.692   3.037   2.761 -3.7494 -0.7540 -2.2076
  960MOL0     H29550   5.711   2.891   2.841 -1.9495 -0.4122 -0.7685
  960MOL0     H29551   5.552   3.039   2.539 -3.3010 -0.1983 -1.1630
  960MOL0     H29552   5.361   2.973   2.380 -1.3997  0.9129 -0.5409
  960MOL0     H29553   5.261   2.835   2.437  0.3347 -0.7730  0.2778
  960MOL0     H29554   5.150   3.039   2.510  0.4322 -2.5653 -1.8451
  960MOL0     H29555   5.300   3.098   2.597  1.2027 -0.7016  1.1397
  960MOL0     H29556   5.121   3.025   2.745  1.5289  0.1250  1.5729
  960MOL0     H29557   5.270   2.934   2.761  0.8577  0.0228 -0.0087
  960MOL0     H29558   5.054   2.770   2.757 -0.4518 -0.2997 -1.2417
  960MOL0     H29559   5.168   2.732   2.638  0.0538  0.5960  0.1980
  960MOL0     H29560   4.892   2.890   2.811  4.1098 -2.7332 -2.4451
  960MOL0     H29561   4.730   2.892   2.971 -0.2174  0.2135 -0.4329
  960MOL0     H29562   4.589   2.988   2.911 -0.1889  0.5871  1.3134
  960MOL0     H29563   4.570   2.817   2.941  0.9796 -0.1808  1.7542
  960MOL0     H29564   4.167   2.883   2.661 -0.2148 -0.0867  2.3337
  960MOL0     H29565   3.950   2.820   2.664  1.4568  1.0248  1.4570
  960MOL0     H29566   3.755   2.702   2.735  0.3536  0.3666 -0.4254
  960MOL0     H29567   3.756   2.725   2.563 -3.1350 -0.0683 -0.4783
  960MOL0     H29568   3.603   2.513   2.547  2.0910 -0.4039  1.0975
  960MOL0     H29569   3.607   2.515   2.722  0.9914  1.0419  2.3830
  960MOL0     H29570   3.506   2.732   2.515 -0.7727 -2.1414 -1.7730
  960MOL0     H29571   3.505   2.750   2.694  1.6788 -1.0574  0.3270
  960MOL0     H29572   3.363   2.534   2.533  0.8595 -0.8890 -0.1285
  960MOL0     H29573   3.384   2.515   2.705  0.3521  0.6435  0.7791
  960MOL0     H29574   3.207   2.730   2.573  1.3799 -0.5322 -0.5529
  960MOL0     H29575   3.255   2.736   2.736  1.4646  0.1720  1.0146
  960MOL0     H29576   3.146   2.522   2.792  1.3315 -0.6778 -0.4818
  960MOL0     H29577   3.041   2.647   2.717  0.1019  0.5207  1.9280
  960MOL0     H29578   3.181   2.439   2.547  1.2902  0.2879  1.6891
  960MOL0     H29579   3.036   2.533   2.503  3.5601  2.6322 -1.6512
  960MOL0     H29580   2.905   2.430   2.671 -1.2478  0.4211 -2.6193
  960MOL0     H29581   3.042   2.311   2.712 -0.1047  0.8548  0.0888
  960MOL0     H29582   4.048   2.400   2.653 -0.4112  0.1582 -0.0863
  960MOL0     H29583   4.303   2.476   2.672  0.9584  0.9851 -1.3680
  960MOL0     H29584   4.572   2.771   2.456  1.0282 -0.8099  0.2483
  960MOL0     H29585   4.799   2.822   2.389 -1.2377  0.9254 -1.2300
  960MOL0     H29586   6.745   3.073   2.302 -1.9702 -1.9512  0.4000
  960MOL0     H29587   6.983   3.042   2.335  1.9333 -1.3859  0.6135
  960MOL0     H29588   7.310   2.795   2.620  2.1053  2.3792  0.5785
  960MOL0     H29589   7.546   2.754   2.610  1.7423 -1.6948 -0.4860
  960MOL0     H29590   7.882   2.708   2.438  1.0054 -1.2764  1.0544
  960MOL0     H29591   7.751   2.778   2.546 -0.4237  1.5520 -1.9678
  960MOL0     H29592   7.798   2.488   2.459  0.2339  2.4372 -2.1541
  960MOL0     H29593   7.692   2.553   2.585  0.9483 -1.3744  0.9009
  960MOL0     H29594   7.902   2.642   2.723 -1.0663 -0.7947  0.0853
  960MOL0     H29595   8.008   2.585   2.590 -0.2894 -2.8740 -2.5635
  960MOL0     H29596   7.874   2.428   2.803 -0.5651  1.6444  0.7001
  960MOL0     H29597   8.040   2.452   2.767 -0.8249  0.4977  1.4826
  960MOL0     H29598   7.940   2.162   2.463 -0.3415  0.4477  1.0052
  960MOL0     H29599   7.536   2.670   2.205  1.3343  2.1107 -0.4980
  960MOL0     H29600   7.289   2.725   2.192 -0.6603 -1.0168  0.1196
  961MOL0     O29601   8.003   2.975   4.264  0.1089  0.5562 -0.4217
  961MOL0     C29602   8.079   2.904   4.327  0.1225 -0.0535  0.8163
  961MOL0     O29603   8.062   2.771   4.345  0.5142  0.0412 -0.1804
  961MOL0     C29604   7.939   2.703   4.337  0.5621 -0.8425 -0.8560
  961MOL0     C29605   7.918   2.599   4.253  0.0997  0.1052  0.0105
  961MOL0     C29606   7.803   2.515   4.258 -0.7062 -0.6013 -0.6218
  961MOL0     C29607   7.699   2.540   4.355 -0.9543 -0.2802  0.5020
  961MOL0     O29608   7.588   2.462   4.369  0.4532 -0.0377 -0.0256
  961MOL0     C29609   7.574   2.354   4.276  0.2188  0.7782  0.4662
  961MOL0     C29610   7.440   2.286   4.316 -0.3501  0.4344  0.0817
  961MOL0     C29611   7.316   2.375   4.305  0.1699  0.3282  0.7466
  961MOL0     C29612   7.184   2.314   4.347 -0.7245  0.3788  0.2816
  961MOL0     C29613   7.067   2.413   4.363 -0.0791  0.3816  0.0156
  961MOL0     C29614   6.953   2.357   4.447  0.3715  0.0194 -0.6641
  961MOL0     C29615   6.815   2.432   4.436 -0.0536  0.3333  0.8149
  961MOL0     C29616   6.751   2.447   4.295 -0.7091  0.0138 -0.7111
  961MOL0     N29617   6.631   2.535   4.300 -1.3011  0.0683  0.8501
  961MOL0     C29618   6.636   2.671   4.298 -0.3729 -0.4188  0.4485
  961MOL0     C29619   6.499   2.701   4.321  0.3308 -0.0559 -0.0074
  961MOL0     C29620   6.435   2.835   4.318 -0.4982  0.1608  0.3836
  961MOL0     C29621   6.522   2.936   4.410  1.0548 -0.1380 -0.2295
  961MOL0     C29622   6.506   2.892   4.565 -0.0632  0.0235  0.1432
  961MOL0     C29623   6.507   3.018   4.656  0.9934  0.8632 -0.4078
  961MOL0     O29624   6.410   3.117   4.606 -0.2512  0.6987 -0.0332
  961MOL0     C29625   6.280   3.087   4.617 -0.0897 -0.6399 -0.1541
  961MOL0     C29626   6.198   3.120   4.507 -0.4104 -0.0974 -0.5889
  961MOL0     C29627   6.061   3.079   4.501  0.5456 -0.2613  0.1593
  961MOL0     C29628   5.976   3.120   4.382 -0.0720 -0.2874 -0.6459
  961MOL0     C29629   6.000   3.028   4.618  0.5442  0.5482  0.7565
  961MOL0     C29630   5.856   3.013   4.632 -0.4893  0.8156  0.2022
  961MOL0     O29631   5.772   3.105   4.564  0.4316  0.1373 -0.6664
  961MOL0     C29632   5.635   3.067   4.560 -0.1551 -0.2411 -0.4627
  961MOL0     C29633   5.539   3.158   4.594  0.4735 -0.3080 -0.4195
  961MOL0     C29634   5.399   3.136   4.566 -1.0922 -0.1921  0.0621
  961MOL0     C29635   5.357   3.009   4.535 -0.9958  0.5828 -0.9660
  961MOL0     O29636   5.231   2.966   4.522 -0.0266  0.2998  0.4349
  961MOL0     C29637   5.121   3.034   4.583 -0.2766  0.1343 -0.7978
  961MOL0     C29638   5.002   2.950   4.542 -0.4238 -0.4244 -0.1859
  961MOL0     C29639   4.871   3.025   4.575 -1.1526  0.3246 -0.0396
  961MOL0     C29640   4.748   2.947   4.592 -0.4198  0.0088 -0.5677
  961MOL0     C29641   4.621   3.041   4.617  0.4259  0.5111  0.0576
  961MOL0     C29642   4.507   2.968   4.680  0.6567 -0.5483  0.0910
  961MOL0     C29643   4.375   3.042   4.667  0.7919 -0.1174 -0.2139
  961MOL0     C29644   4.269   2.956   4.740  0.4191  0.4270 -0.2094
  961MOL0    Cl29645   4.123   3.057   4.733  0.3332 -0.6315  0.3235
  961MOL0     C29646   5.449   2.910   4.521 -0.7356  0.3293 -0.2234
  961MOL0     C29647   5.588   2.936   4.538  0.0232  0.2183 -0.4381
  961MOL0     O29648   5.817   2.941   4.729 -0.1287 -0.4453  0.0977
  961MOL0     C29649   6.083   2.992   4.724 -0.2634 -0.0709  0.6213
  961MOL0     C29650   6.217   3.022   4.726  0.0740 -0.3901  0.2635
  961MOL0     N29651   6.431   2.584   4.341  0.9888  0.4018  0.0701
  961MOL0     N29652   6.508   2.486   4.319  0.3387  0.7882  0.2721
  961MOL0     C29653   7.726   2.652   4.443 -0.2142 -0.4516  0.5094
  961MOL0     C29654   7.841   2.732   4.438 -0.2619  0.2277 -0.0085
  961MOL0     C29655   8.200   2.966   4.372 -0.4420 -0.1217 -0.9011
  961MOL0     C29656   8.262   3.078   4.313 -0.3955 -0.2924 -0.0472
  961MOL0     C29657   8.380   3.130   4.363  0.6281 -0.4870  0.9549
  961MOL0     C29658   8.441   3.072   4.477  0.7151  0.0309  0.3455
  961MOL0     O29659   8.566   3.112   4.522 -0.3604  1.0486 -0.9150
  961MOL0     C29660   8.608   3.251   4.500  0.4216  0.9339 -0.5777
  961MOL0     C29661   8.755   3.277   4.526 -0.3097  0.6171  0.8718
  961MOL0     C29662   8.851   3.189   4.441  0.0568 -0.1055  0.7585
  961MOL0     C29663   9.000   3.197   4.481 -0.1425  0.0128  0.4128
  961MOL0     C29664   9.075   3.105   4.403  0.8083  0.0474 -0.9955
  961MOL0     C29665   9.133   3.024   4.340  0.0664  0.6869 -0.8116
  961MOL0     C29666   8.378   2.966   4.539 -0.3841 -0.1864  0.3313
  961MOL0     C29667   8.261   2.912   4.492 -0.2984  0.0753  0.4332
  961MOL0     H29668   7.990   2.565   4.181  1.3438  1.7810  0.3949
  961MOL0     H29669   7.790   2.429   4.192  0.2088  0.2302 -1.9448
  961MOL0     H29670   7.577   2.391   4.173  0.7636 -0.7517 -0.0991
  961MOL0     H29671   7.647   2.276   4.295 -1.7890 -0.8501  2.0282
  961MOL0     H29672   7.425   2.205   4.245  0.1561 -0.6427  1.1685
  961MOL0     H29673   7.448   2.254   4.421  0.3170  0.3706  0.0141
  961MOL0     H29674   7.331   2.457   4.376 -0.7677 -0.2193  1.5979
  961MOL0     H29675   7.311   2.418   4.204  2.0176 -1.2273 -0.0549
  961MOL0     H29676   7.149   2.237   4.278  0.4412 -0.9794  1.1258
  961MOL0     H29677   7.199   2.261   4.442  3.9996 -3.4502 -2.1100
  961MOL0     H29678   7.108   2.503   4.408  1.0140  0.4559 -1.0777
  961MOL0     H29679   7.032   2.443   4.263  0.1273  2.5784  0.5648
  961MOL0     H29680   6.926   2.257   4.412  1.2770  0.6453 -3.4032
  961MOL0     H29681   6.976   2.347   4.554 -1.5244 -2.1705 -0.3817
  961MOL0     H29682   6.745   2.369   4.493  1.0867 -1.1704  0.6291
  961MOL0     H29683   6.832   2.532   4.477  0.9635 -0.4468  2.4177
  961MOL0     H29684   6.717   2.348   4.262  0.3401 -0.1753 -1.2703
  961MOL0     H29685   6.831   2.473   4.225  1.0971  0.3458  1.3706
  961MOL0     H29686   6.714   2.743   4.274 -1.3102 -0.2522 -2.4490
  961MOL0     H29687   6.429   2.872   4.216 -2.0331  0.0687  0.4099
  961MOL0     H29688   6.329   2.823   4.344 -0.1873 -0.6379  1.3705
  961MOL0     H29689   6.484   3.033   4.377  0.8064 -1.0190 -2.7040
  961MOL0     H29690   6.628   2.931   4.386  1.3441 -3.2528  1.1468
  961MOL0     H29691   6.598   2.840   4.594  0.7538  0.3547 -1.7348
  961MOL0     H29692   6.421   2.826   4.585 -0.0156  0.2788  1.2412
  961MOL0     H29693   6.610   3.057   4.657  1.9811 -1.5440  0.2329
  961MOL0     H29694   6.478   2.995   4.759 -2.2299  0.9244 -1.2066
  961MOL0     H29695   6.238   3.152   4.411  0.9992 -0.9460 -0.3051
  961MOL0     H29696   6.036   3.130   4.291 -0.0309  0.4245 -0.5466
  961MOL0     H29697   5.892   3.055   4.357 -1.1331 -0.6693  3.2071
  961MOL0     H29698   5.926   3.216   4.400  0.0493 -0.3215 -0.1138
  961MOL0     H29699   5.571   3.258   4.622  2.4520 -0.3213 -2.3859
  961MOL0     H29700   5.325   3.215   4.561 -2.1504 -1.2462 -2.4526
  961MOL0     H29701   5.130   3.029   4.692 -0.2393 -2.3749 -0.8527
  961MOL0     H29702   5.104   3.133   4.541 -0.0110  0.5518  0.0755
  961MOL0     H29703   5.006   2.944   4.433  1.1108 -0.6630 -0.1480
  961MOL0     H29704   4.999   2.854   4.595 -1.7343  0.8458  2.2002
  961MOL0     H29705   4.857   3.094   4.490  1.3264  0.0170 -0.7784
  961MOL0     H29706   4.899   3.078   4.666 -2.0649 -2.0963  1.7208
  961MOL0     H29707   4.738   2.884   4.503  1.2504 -2.1131  0.6280
  961MOL0     H29708   4.758   2.884   4.681  1.5421  3.0352  1.5279
  961MOL0     H29709   4.581   3.089   4.527  1.1108  2.1062  0.5821
  961MOL0     H29710   4.656   3.122   4.681  1.8900  1.7684 -2.1714
  961MOL0     H29711   4.501   2.876   4.621 -0.3385  0.1672 -0.9743
  961MOL0     H29712   4.538   2.946   4.783  0.8116 -0.1395  0.1307
  961MOL0     H29713   4.339   3.048   4.564 -0.4211  0.1956  0.2073
  961MOL0     H29714   4.376   3.140   4.715 -1.5652  0.1157 -0.5205
  961MOL0     H29715   4.286   2.929   4.844 -0.9665 -2.6894 -0.6793
  961MOL0     H29716   4.255   2.864   4.682 -0.6800 -0.3242  1.1964
  961MOL0     H29717   5.410   2.810   4.500 -0.9810 -0.1788  2.3327
  961MOL0     H29718   5.653   2.850   4.530 -0.1212  0.1732 -1.1570
  961MOL0     H29719   6.040   2.935   4.805  1.3464 -0.9817  0.8793
  961MOL0     H29720   6.263   2.977   4.813 -3.1339 -0.2567  2.1812
  961MOL0     H29721   7.649   2.654   4.520 -0.5302 -2.1744  0.2741
  961MOL0     H29722   7.860   2.815   4.505  0.5948 -1.4078  1.8596
  961MOL0     H29723   8.222   3.127   4.224  1.7457  2.6988  0.4511
  961MOL0     H29724   8.415   3.213   4.302 -0.8297  0.1457  0.9324
  961MOL0     H29725   8.595   3.278   4.395  1.7724  2.6715 -0.3554
  961MOL0     H29726   8.548   3.319   4.561  0.9175 -0.5609  1.7124
  961MOL0     H29727   8.773   3.255   4.632 -2.0351 -1.0922  0.8526
  961MOL0     H29728   8.772   3.384   4.513  1.6535  0.3095  0.6137
  961MOL0     H29729   8.856   3.224   4.338  2.8646  0.2094  0.9155
  961MOL0     H29730   8.814   3.086   4.435  0.8292 -0.4358  1.3796
  961MOL0     H29731   9.011   3.174   4.588  0.5945 -0.3935  0.2633
  961MOL0     H29732   9.046   3.295   4.466  2.8271 -1.4111 -0.5903
  961MOL0     H29733   9.192   2.940   4.311 -2.3044 -0.7454 -1.7761
  961MOL0     H29734   8.409   2.914   4.629 -0.3377  0.4542  0.6845
  961MOL0     H29735   8.226   2.822   4.542  3.0228 -0.3684  2.2293
  962MOL0     O29736   4.682   4.739   7.128  0.1238 -0.3473  1.1672
  962MOL0     C29737   4.618   4.841   7.131  0.0546 -0.3593 -0.4646
  962MOL0     O29738   4.665   4.958   7.082 -0.4339 -0.7340  0.0725
  962MOL0     C29739   4.799   4.968   7.037  0.3302  0.7014 -0.8300
  962MOL0     C29740   4.870   5.084   7.081 -1.0914 -0.6065  0.3014
  962MOL0     C29741   5.008   5.092   7.063 -0.0255  0.5152 -0.2486
  962MOL0     C29742   5.077   4.986   7.003  0.6627  0.3906 -0.3699
  962MOL0     O29743   5.217   4.973   6.994  0.0173  0.3579 -0.2578
  962MOL0     C29744   5.291   5.088   7.028  0.0074 -0.0235 -0.4950
  962MOL0     C29745   5.431   5.092   6.962 -1.1644 -0.4184 -0.6369
  962MOL0     C29746   5.493   5.229   6.992  0.8251 -0.2005 -0.0905
  962MOL0     C29747   5.486   5.313   6.865 -0.1100  0.5436 -0.4616
  962MOL0     C29748   5.536   5.455   6.890  0.6539  0.5280  0.4840
  962MOL0     C29749   5.543   5.535   6.760 -0.5018 -1.1533  0.5478
  962MOL0     C29750   5.550   5.689   6.793 -1.1728  0.2378 -0.4230
  962MOL0     C29751   5.526   5.781   6.675 -0.0718  0.6758 -0.9330
  962MOL0     N29752   5.383   5.752   6.641  0.5004 -0.2560 -0.5188
  962MOL0     C29753   5.281   5.788   6.719 -0.4936 -0.0128 -0.8058
  962MOL0     C29754   5.177   5.716   6.670 -0.1537 -0.5718 -0.2777
  962MOL0     C29755   5.037   5.725   6.727 -0.1102  0.3350 -0.4742
  962MOL0     C29756   5.004   5.585   6.780  0.4823 -1.1798  0.4084
  962MOL0     C29757   4.871   5.575   6.854 -0.7597 -0.3158  0.4867
  962MOL0     C29758   4.782   5.451   6.819 -0.3333  0.5549 -0.4093
  962MOL0     O29759   4.679   5.451   6.917  0.2378  0.3238 -0.2802
  962MOL0     C29760   4.601   5.340   6.908 -0.0923 -0.2709  0.4058
  962MOL0     C29761   4.471   5.359   6.947  0.4281  0.8099 -0.3150
  962MOL0     C29762   4.380   5.248   6.931 -0.4884  0.5968  0.0017
  962MOL0     C29763   4.241   5.273   6.994 -0.1919 -0.6239 -0.8815
  962MOL0     C29764   4.419   5.138   6.866  0.0796  0.7483  0.5781
  962MOL0     C29765   4.320   5.029   6.835  0.4026 -0.5278 -0.0658
  962MOL0     O29766   4.230   4.988   6.932  0.5111 -0.4754  0.2503
  962MOL0     C29767   4.153   4.874   6.898 -0.7827 -0.5256 -0.2512
  962MOL0     C29768   4.200   4.749   6.892 -0.5111  0.3773  0.0640
  962MOL0     C29769   4.105   4.646   6.881  0.0391 -0.0290 -0.8473
  962MOL0     C29770   3.963   4.669   6.871 -0.2746  0.5289 -0.4999
  962MOL0     O29771   3.890   4.550   6.871  0.2118  1.2253  0.1531
  962MOL0     C29772   3.748   4.564   6.886 -0.0217  0.3783 -0.4842
  962MOL0     C29773   3.689   4.607   6.749 -0.1765 -0.0697 -0.1852
  962MOL0     C29774   3.546   4.581   6.716 -0.2596  0.3349  0.2593
  962MOL0     C29775   3.458   4.630   6.837 -0.2353 -0.0523  0.5042
  962MOL0     C29776   3.305   4.604   6.797 -0.1479 -0.3430  0.1623
  962MOL0     C29777   3.267   4.457   6.791  0.0346 -0.5227  0.8398
  962MOL0     C29778   3.125   4.440   6.719  0.0242 -0.3035 -0.0120
  962MOL0     C29779   3.049   4.309   6.743  0.3199  0.0226  0.8284
  962MOL0    Cl29780   2.966   4.303   6.907  0.3046  0.2999 -0.0716
  962MOL0     C29781   3.920   4.794   6.878  0.0078 -0.6716 -0.2270
  962MOL0     C29782   4.020   4.897   6.893  0.0593  0.1990  0.4321
  962MOL0     O29783   4.343   4.967   6.735  0.3123  0.1835  0.2938
  962MOL0     C29784   4.544   5.122   6.821 -1.0663 -0.0995  0.0258
  962MOL0     C29785   4.639   5.221   6.839 -0.0708 -0.1235  1.5105
  962MOL0     N29786   5.214   5.652   6.554 -0.7505 -0.8617 -0.1344
  962MOL0     N29787   5.340   5.670   6.545 -0.9225  0.1555  0.4009
  962MOL0     C29788   5.006   4.878   6.956  0.4249  0.2272  0.5524
  962MOL0     C29789   4.872   4.872   6.972  0.1007  0.4778 -0.6935
  962MOL0     C29790   4.483   4.838   7.186 -0.0597  1.0336 -0.4319
  962MOL0     C29791   4.406   4.953   7.207  0.5793 -0.1482  1.0226
  962MOL0     C29792   4.273   4.947   7.244  0.0532 -0.4463  0.0570
  962MOL0     C29793   4.210   4.824   7.268  0.0973 -0.2047 -0.0784
  962MOL0     O29794   4.079   4.814   7.312 -0.2483 -0.1105  0.0253
  962MOL0     C29795   4.006   4.693   7.292  0.6461 -0.7901 -0.1864
  962MOL0     C29796   3.863   4.717   7.241 -0.3934 -0.4545  0.8215
  962MOL0     C29797   3.768   4.793   7.329 -0.9763 -0.0656  0.3236
  962MOL0     C29798   3.732   4.709   7.452 -0.2761  0.4165  0.6333
  962MOL0     C29799   3.625   4.750   7.541 -1.1774 -0.2611 -0.4194
  962MOL0     C29800   3.537   4.799   7.612 -0.1090  0.6687  0.4188
  962MOL0     C29801   4.289   4.706   7.264 -0.2596 -0.2223 -0.0400
  962MOL0     C29802   4.425   4.710   7.223 -0.3986  0.6141 -0.2398
  962MOL0     H29803   4.829   5.166   7.138  0.0979  0.3013 -0.1011
  962MOL0     H29804   5.064   5.177   7.100  2.4158  0.6082 -3.7038
  962MOL0     H29805   5.238   5.180   7.001  0.1504  0.3396  0.4341
  962MOL0     H29806   5.307   5.096   7.136 -0.7229 -1.8665 -0.2148
  962MOL0     H29807   5.496   5.019   7.011 -1.6329 -1.1869 -1.1579
  962MOL0     H29808   5.426   5.060   6.857 -0.6061 -0.7604 -0.5612
  962MOL0     H29809   5.452   5.287   7.075  1.0413 -0.5153  0.2418
  962MOL0     H29810   5.601   5.220   7.010  0.3394 -0.6989  3.4351
  962MOL0     H29811   5.554   5.268   6.792 -0.2914  0.6968 -0.7261
  962MOL0     H29812   5.381   5.308   6.832 -0.9191 -0.3763  1.9974
  962MOL0     H29813   5.477   5.505   6.968 -0.1322 -0.2340  0.3907
  962MOL0     H29814   5.629   5.431   6.941  1.3126 -1.1833 -1.3790
  962MOL0     H29815   5.635   5.509   6.706  0.5270  2.1924  0.4857
  962MOL0     H29816   5.455   5.515   6.699 -1.1580  3.2214 -0.2477
  962MOL0     H29817   5.481   5.706   6.876  0.5549 -0.6519  1.2741
  962MOL0     H29818   5.645   5.706   6.844 -0.1500  0.1709 -2.2217
  962MOL0     H29819   5.598   5.754   6.598  0.8978 -4.1503  1.2963
  962MOL0     H29820   5.540   5.882   6.713  0.9411 -0.2442  1.3296
  962MOL0     H29821   5.292   5.869   6.789  0.7742  0.0464 -1.0543
  962MOL0     H29822   5.028   5.797   6.809 -3.9020 -1.4566  0.8977
  962MOL0     H29823   4.971   5.751   6.644 -1.4501  0.8537  0.7153
  962MOL0     H29824   5.087   5.556   6.844 -0.6351  1.8907  3.5162
  962MOL0     H29825   5.004   5.517   6.693  0.6146 -0.6746  0.0085
  962MOL0     H29826   4.807   5.660   6.827  0.5250  1.1222  1.7675
  962MOL0     H29827   4.897   5.574   6.961 -0.6696 -0.4836  0.4639
  962MOL0     H29828   4.849   5.365   6.822  0.2799  0.9304 -2.2773
  962MOL0     H29829   4.734   5.465   6.722 -3.8959 -0.2847  1.0588
  962MOL0     H29830   4.439   5.453   6.991 -1.4511 -0.6717  1.7328
  962MOL0     H29831   4.239   5.375   7.033  1.2354 -0.9376  0.1145
  962MOL0     H29832   4.162   5.260   6.919  1.0818 -3.4003 -1.8805
  962MOL0     H29833   4.225   5.203   7.077  0.1798 -0.9866 -1.1125
  962MOL0     H29834   4.307   4.727   6.893 -0.0128  2.3898 -1.6728
  962MOL0     H29835   4.143   4.546   6.864 -0.5042 -0.5983  1.0525
  962MOL0     H29836   3.698   4.472   6.917  0.6527  0.9319  2.5673
  962MOL0     H29837   3.730   4.640   6.963  1.4592  1.1600 -0.8651
  962MOL0     H29838   3.689   4.717   6.745 -0.8438 -0.0395  0.5015
  962MOL0     H29839   3.738   4.546   6.673 -0.3399 -1.0026  0.4511
  962MOL0     H29840   3.535   4.473   6.699  1.6397  0.3856 -1.5412
  962MOL0     H29841   3.513   4.635   6.627 -1.9055 -2.0784 -0.7217
  962MOL0     H29842   3.481   4.577   6.929  1.0345 -0.7945 -0.1980
  962MOL0     H29843   3.479   4.737   6.849  2.4427 -0.0151 -2.7644
  962MOL0     H29844   3.275   4.653   6.704 -0.2414 -2.4175 -0.9573
  962MOL0     H29845   3.245   4.641   6.881 -0.5449 -1.5718  0.4352
  962MOL0     H29846   3.339   4.399   6.732 -0.5952  1.9029 -2.5882
  962MOL0     H29847   3.254   4.420   6.894 -1.2926  1.3014  1.3826
  962MOL0     H29848   3.138   4.454   6.612  2.0652  0.9761  0.3542
  962MOL0     H29849   3.064   4.528   6.745 -1.7154 -1.4474 -0.0893
  962MOL0     H29850   3.121   4.227   6.734  2.6094  1.8285  1.5579
  962MOL0     H29851   2.972   4.295   6.667  0.4361 -1.9116  1.0125
  962MOL0     H29852   3.815   4.821   6.881  0.2554  0.2194  1.2939
  962MOL0     H29853   3.988   5.000   6.903 -0.9209  0.0462 -0.8788
  962MOL0     H29854   4.575   5.031   6.771 -1.8730  0.0794 -0.8086
  962MOL0     H29855   4.743   5.201   6.815 -0.1731 -1.7742  2.2767
  962MOL0     H29856   5.061   4.802   6.901 -1.2778  0.1074 -1.0764
  962MOL0     H29857   4.827   4.780   6.934  2.5166 -1.3280  0.4854
  962MOL0     H29858   4.445   5.052   7.184  2.0604 -0.7826  0.6929
  962MOL0     H29859   4.216   5.038   7.254  1.2238  0.4982 -1.4585
  962MOL0     H29860   4.052   4.629   7.215  1.1603  0.0913 -0.6232
  962MOL0     H29861   3.999   4.639   7.387 -1.9292  1.7332  1.2020
  962MOL0     H29862   3.809   4.628   7.207 -0.4737  0.1107 -0.6366
  962MOL0     H29863   3.876   4.780   7.152 -1.2818 -2.2305 -0.6450
  962MOL0     H29864   3.674   4.805   7.274  1.3545  1.6003 -3.6691
  962MOL0     H29865   3.816   4.886   7.362 -0.7881  0.2398 -0.7863
  962MOL0     H29866   3.820   4.705   7.517  0.7235  1.8386 -0.5696
  962MOL0     H29867   3.698   4.611   7.417 -0.8288  1.1785 -1.0541
  962MOL0     H29868   3.473   4.849   7.682 -4.4148 -3.5015 -0.0465
  962MOL0     H29869   4.244   4.614   7.299  1.9002 -1.1762  0.3898
  962MOL0     H29870   4.488   4.622   7.227  1.0920  1.6881  1.7004
  963MOL0     O29871   5.971   2.913  10.861  0.7726  0.6001  0.3101
  963MOL0     C29872   5.934   3.015  10.915  0.6924 -0.8343  0.5552
  963MOL0     O29873   5.806   3.056  10.918 -0.2759  0.3877  0.4586
  963MOL0     C29874   5.711   2.992  10.841  0.1065  0.5972  0.4395
  963MOL0     C29875   5.639   2.882  10.897 -0.0892 -0.2611  0.6407
  963MOL0     C29876   5.539   2.836  10.821  0.7471 -0.4366  0.1045
  963MOL0     C29877   5.506   2.896  10.695  0.5889  0.1326 -0.3824
  963MOL0     O29878   5.413   2.843  10.614 -0.5373  0.1735 -0.1401
  963MOL0     C29879   5.288   2.791  10.665  0.6243  0.8430 -0.0843
  963MOL0     C29880   5.198   2.906  10.697 -0.5041  0.6537 -0.5618
  963MOL0     C29881   5.144   2.962  10.565 -0.1709 -0.3876 -0.0326
  963MOL0     C29882   5.029   3.058  10.595  0.0281  0.1195  0.0557
  963MOL0     C29883   4.957   3.112  10.476  0.4457 -0.1199  0.7105
  963MOL0     C29884   4.825   3.172  10.531 -0.0905 -0.4021 -0.7229
  963MOL0     C29885   4.759   3.264  10.418  0.6714  0.1572 -0.5352
  963MOL0     C29886   4.745   3.198  10.279 -0.0740  0.2886  0.2444
  963MOL0     N29887   4.641   3.272  10.199  0.0993 -0.3064  0.0513
  963MOL0     C29888   4.628   3.407  10.182 -0.4254 -0.5340 -0.1226
  963MOL0     C29889   4.498   3.419  10.145 -0.1952 -0.7009  0.4581
  963MOL0     C29890   4.421   3.550  10.115  0.0808 -0.7165  0.8265
  963MOL0     C29891   4.419   3.561   9.961  0.2264  0.4600 -0.5228
  963MOL0     C29892   4.363   3.694   9.911  0.5870 -0.0361  0.1197
  963MOL0     C29893   4.455   3.815   9.892  0.0143 -0.1074 -0.0970
  963MOL0     O29894   4.425   3.901   9.789 -0.4835  0.6369 -0.3035
  963MOL0     C29895   4.316   3.984   9.801 -0.2006  0.0466  0.3654
  963MOL0     C29896   4.292   4.057   9.686  0.6821 -0.0194 -0.4877
  963MOL0     C29897   4.186   4.148   9.673  0.0446  0.2065 -0.1699
  963MOL0     C29898   4.162   4.222   9.537  0.7693  0.0896 -0.5631
  963MOL0     C29899   4.096   4.163   9.781  1.1740  0.7486 -0.1005
  963MOL0     C29900   3.971   4.240   9.784  0.3107 -0.4243  0.1283
  963MOL0     O29901   3.938   4.312   9.895  0.0627  0.0984 -0.6163
  963MOL0     C29902   3.850   4.412   9.887  0.1429 -0.3136  0.5364
  963MOL0     C29903   3.715   4.394   9.847  0.0082 -0.1155 -0.0372
  963MOL0     C29904   3.626   4.501   9.853 -0.3226 -0.7150 -0.5255
  963MOL0     C29905   3.671   4.630   9.889  0.4531 -0.8811 -0.2690
  963MOL0     O29906   3.593   4.744   9.889 -0.7767  0.6560  0.2558
  963MOL0     C29907   3.455   4.722   9.865 -0.0949 -0.6398  1.0387
  963MOL0     C29908   3.359   4.844   9.875 -0.1012  0.4259 -0.3631
  963MOL0     C29909   3.231   4.804   9.793  0.3282  0.4554 -0.3323
  963MOL0     C29910   3.131   4.917   9.809 -0.1757 -0.1436 -0.1399
  963MOL0     C29911   2.991   4.860   9.804 -0.0323  0.6227 -0.6523
  963MOL0     C29912   2.882   4.963   9.787 -0.1164  0.5437  0.2258
  963MOL0     C29913   2.752   4.889   9.748 -0.8210  0.2194  0.6827
  963MOL0     C29914   2.628   4.985   9.775 -0.6637  0.0030 -0.9440
  963MOL0    Cl29915   2.627   5.103   9.649 -0.1903  0.0723  0.5523
  963MOL0     C29916   3.802   4.643   9.936  0.6684  0.2307  0.3597
  963MOL0     C29917   3.890   4.546   9.923 -1.0157 -0.1639 -0.1171
  963MOL0     O29918   3.897   4.210   9.693 -0.0743  0.5499  0.3555
  963MOL0     C29919   4.121   4.088   9.901  0.1952  0.0515  0.2582
  963MOL0     C29920   4.232   3.998   9.913  0.7425 -0.6193 -0.0960
  963MOL0     N29921   4.439   3.301  10.131 -0.4403  0.2013 -0.3113
  963MOL0     N29922   4.524   3.211  10.160  0.5651 -0.7835 -0.1026
  963MOL0     C29923   5.581   3.004  10.642  0.3751  0.9462 -0.0102
  963MOL0     C29924   5.687   3.049  10.717  0.7621  0.0678 -0.1958
  963MOL0     C29925   6.033   3.096  10.988 -0.1835  0.2689 -0.8193
  963MOL0     C29926   6.002   3.185  11.093 -0.3934 -0.0540  0.3590
  963MOL0     C29927   6.107   3.243  11.169 -0.0660 -0.0492  0.0020
  963MOL0     C29928   6.243   3.204  11.153 -0.9191  0.5077 -1.2261
  963MOL0     O29929   6.342   3.246  11.233 -0.3928 -0.6781  0.3345
  963MOL0     C29930   6.316   3.226  11.369  0.5644  0.2599  0.0845
  963MOL0     C29931   6.432   3.224  11.470  0.7497 -0.3815  0.2436
  963MOL0     C29932   6.528   3.111  11.441  0.5509  0.5942  0.0427
  963MOL0     C29933   6.647   3.115  11.545 -0.4379 -0.2838  0.3824
  963MOL0     C29934   6.759   3.036  11.486 -0.3497 -0.2581  0.2654
  963MOL0     C29935   6.847   2.965  11.433 -0.3369 -0.4732 -0.3563
  963MOL0     C29936   6.272   3.114  11.055  0.6121  0.6437  0.6308
  963MOL0     C29937   6.171   3.062  10.975 -0.3029  1.0648 -0.1723
  963MOL0     H29938   5.659   2.834  10.992  3.8736  2.5225  1.4329
  963MOL0     H29939   5.480   2.758  10.870  1.8881  0.8428  3.8682
  963MOL0     H29940   5.246   2.733  10.583  0.8166  0.7979 -0.1510
  963MOL0     H29941   5.307   2.718  10.744  1.3442 -0.3980 -1.3549
  963MOL0     H29942   5.119   2.877  10.767 -1.4166 -1.2414 -2.2503
  963MOL0     H29943   5.248   2.989  10.746 -2.3842  2.4161 -1.4632
  963MOL0     H29944   5.224   3.019  10.517  2.8915 -2.1081  2.5853
  963MOL0     H29945   5.107   2.888  10.494 -0.1383  0.1556 -0.6270
  963MOL0     H29946   4.958   3.000  10.655 -0.3979  0.9226  0.3357
  963MOL0     H29947   5.063   3.141  10.658 -0.5669 -0.9421  1.8549
  963MOL0     H29948   5.020   3.185  10.424  0.3918 -1.2335 -0.9784
  963MOL0     H29949   4.936   3.030  10.407  1.3277 -0.5151  0.8903
  963MOL0     H29950   4.756   3.092  10.560  0.4959 -0.6770 -0.0337
  963MOL0     H29951   4.852   3.228  10.622  0.7472 -2.9199  0.6729
  963MOL0     H29952   4.661   3.301  10.449  0.3543  0.4537 -1.8147
  963MOL0     H29953   4.829   3.349  10.411  0.9087 -0.0480 -0.6809
  963MOL0     H29954   4.713   3.097  10.304 -3.5803  1.5237  1.3226
  963MOL0     H29955   4.837   3.193  10.219 -2.1606  0.8197 -3.3044
  963MOL0     H29956   4.695   3.492  10.195 -2.6414  1.5048 -1.3169
  963MOL0     H29957   4.321   3.547  10.157 -1.7282  4.9443 -2.0157
  963MOL0     H29958   4.465   3.633  10.171 -0.3488 -0.1608  0.3511
  963MOL0     H29959   4.351   3.491   9.912  1.6374 -1.2382 -0.1849
  963MOL0     H29960   4.522   3.552   9.924 -0.6961  0.7279 -3.4035
  963MOL0     H29961   4.284   3.727   9.979  0.1587 -0.0666 -0.3546
  963MOL0     H29962   4.316   3.675   9.814 -3.0206  1.0028  1.5006
  963MOL0     H29963   4.554   3.782   9.862 -0.7443 -2.1494 -0.5346
  963MOL0     H29964   4.465   3.862   9.990  0.0127 -0.8359  0.2593
  963MOL0     H29965   4.350   4.043   9.596  1.5471  0.7680 -0.0717
  963MOL0     H29966   4.180   4.328   9.557  5.5042 -0.2069 -2.1380
  963MOL0     H29967   4.231   4.192   9.459 -0.6034 -2.0800 -1.0100
  963MOL0     H29968   4.064   4.202   9.494  0.4318 -1.0871  0.6781
  963MOL0     H29969   3.689   4.296   9.809  1.0154 -0.5207  0.2900
  963MOL0     H29970   3.529   4.482   9.807 -0.1911  0.2450 -1.2205
  963MOL0     H29971   3.453   4.704   9.757  1.5635  1.6465  0.5416
  963MOL0     H29972   3.396   4.644   9.915 -2.9347  0.9422  0.3923
  963MOL0     H29973   3.326   4.879   9.973  0.9230  1.0675 -0.2277
  963MOL0     H29974   3.409   4.933   9.836 -1.4899  2.0627  1.4413
  963MOL0     H29975   3.196   4.712   9.841  2.3087 -1.9084 -3.0831
  963MOL0     H29976   3.255   4.776   9.690  1.7272 -1.4492  0.4566
  963MOL0     H29977   3.147   4.974   9.901 -2.7786  2.2152 -1.0191
  963MOL0     H29978   3.145   4.992   9.732 -2.4407  2.2934  1.6344
  963MOL0     H29979   2.976   4.789   9.886  1.6468 -0.3593 -1.1327
  963MOL0     H29980   2.992   4.802   9.711 -0.6564 -1.1093  0.3815
  963MOL0     H29981   2.870   5.025   9.876  1.5776  1.1398  0.0679
  963MOL0     H29982   2.907   5.030   9.704 -1.7396 -0.1925 -0.9361
  963MOL0     H29983   2.746   4.802   9.815 -1.1385 -1.7003 -1.6983
  963MOL0     H29984   2.748   4.845   9.648  4.2008 -0.3668  0.5057
  963MOL0     H29985   2.648   5.036   9.869  0.4516 -2.0127 -0.0117
  963MOL0     H29986   2.533   4.933   9.786 -0.2573 -1.7248 -4.2770
  963MOL0     H29987   3.839   4.740   9.968 -2.4056  2.4546 -2.1470
  963MOL0     H29988   3.991   4.578   9.946 -0.4302 -0.0415 -2.5923
  963MOL0     H29989   4.041   4.092   9.975  2.3429 -1.3032  2.8575
  963MOL0     H29990   4.249   3.947  10.008 -3.6079  0.9329  1.7872
  963MOL0     H29991   5.564   3.039  10.541  0.0826  2.5572  0.5738
  963MOL0     H29992   5.755   3.124  10.678 -2.8089  2.7804 -1.7661
  963MOL0     H29993   5.895   3.190  11.109 -1.1312 -3.5684 -2.1987
  963MOL0     H29994   6.075   3.312  11.246 -0.5666  2.3861 -2.2506
  963MOL0     H29995   6.249   3.308  11.399 -1.5458 -0.3573 -2.5053
  963MOL0     H29996   6.265   3.130  11.377 -4.5416  2.6929  1.4005
  963MOL0     H29997   6.379   3.203  11.563 -0.5569 -2.5023 -0.9007
  963MOL0     H29998   6.486   3.319  11.471 -2.0270  1.3051  0.3318
  963MOL0     H29999   6.574   3.144  11.347 -4.2697  0.6886 -2.6022
  963MOL0     H30000   6.473   3.019  11.416  0.3697 -0.1081  2.7450
  963MOL0     H30001   6.613   3.067  11.638  2.3660 -0.4953  1.3894
  963MOL0     H30002   6.680   3.216  11.569  1.0433 -1.2831  3.0326
  963MOL0     H30003   6.921   2.900  11.392 -3.3733 -3.6402 -1.2237
  963MOL0     H30004   6.375   3.084  11.034  0.8563 -1.2778  3.8128
  963MOL0     H30005   6.207   2.991  10.901  0.4336  0.3149  0.8819
  964MOL0     O30006  10.528   2.422   1.107  0.1732 -0.4617 -0.2794
  964MOL0     C30007  10.514   2.465   1.226  0.0191 -0.1999  0.3700
  964MOL0     O30008  10.391   2.465   1.292  0.1710 -0.0965 -0.1833
  964MOL0     C30009  10.267   2.444   1.242 -0.6761  0.1856 -0.3830
  964MOL0     C30010  10.237   2.478   1.106  0.0944 -0.2662  0.2985
  964MOL0     C30011  10.106   2.473   1.052 -0.2822 -0.7250 -0.1985
  964MOL0     C30012  10.005   2.428   1.142  0.2281 -0.5962 -0.5221
  964MOL0     O30013   9.875   2.415   1.107  0.3321 -1.1251 -0.1661
  964MOL0     C30014   9.839   2.366   0.972 -0.7135  0.2759 -0.6991
  964MOL0     C30015   9.756   2.461   0.899 -0.5101  0.0545 -0.1064
  964MOL0     C30016   9.634   2.492   0.984 -1.0392  0.3627  0.3399
  964MOL0     C30017   9.545   2.593   0.910 -0.0577  0.1994 -0.5319
  964MOL0     C30018   9.446   2.649   1.006  0.0311 -0.3528  0.0880
  964MOL0     C30019   9.328   2.558   1.029  0.7583  0.2588 -0.0148
  964MOL0     C30020   9.213   2.641   1.093  0.3451  0.0272 -0.0897
  964MOL0     C30021   9.085   2.555   1.096 -0.5635  0.0390  0.2806
  964MOL0     N30022   8.985   2.604   1.192 -0.0039 -0.0180  0.2086
  964MOL0     C30023   8.917   2.715   1.187  0.0532 -1.0970  0.0444
  964MOL0     C30024   8.844   2.722   1.302 -0.3827  0.2409 -0.6396
  964MOL0     C30025   8.749   2.821   1.363 -0.0741 -0.2623  0.7940
  964MOL0     C30026   8.605   2.777   1.329  0.5663  0.3747  0.1416
  964MOL0     C30027   8.512   2.879   1.389  0.0288  0.5880  0.4971
  964MOL0     C30028   8.372   2.813   1.412  0.4502 -0.3199  0.1166
  964MOL0     O30029   8.277   2.842   1.305 -0.3838  0.9370 -0.5795
  964MOL0     C30030   8.144   2.822   1.322 -0.0951  0.5493 -0.5366
  964MOL0     C30031   8.067   2.888   1.233  0.2412 -0.0446  0.3702
  964MOL0     C30032   7.922   2.872   1.225 -0.2596  0.1980 -0.0748
  964MOL0     C30033   7.844   2.956   1.127 -0.1878 -0.0127  0.4116
  964MOL0     C30034   7.856   2.803   1.323 -0.3949 -0.3465  0.2713
  964MOL0     C30035   7.706   2.790   1.331 -0.6091  0.0238 -0.2828
  964MOL0     O30036   7.639   2.763   1.220 -0.0183  0.1538  0.0525
  964MOL0     C30037   7.501   2.750   1.224 -0.3859 -0.6156 -0.1121
  964MOL0     C30038   7.434   2.629   1.228  0.1326 -0.3830 -0.2610
  964MOL0     C30039   7.294   2.632   1.231  0.5557 -0.3329  0.4628
  964MOL0     C30040   7.218   2.752   1.241  0.2405  0.0226  0.1753
  964MOL0     O30041   7.083   2.753   1.264 -0.4649 -0.1107  0.6347
  964MOL0     C30042   7.017   2.624   1.277 -0.3839 -0.2073  0.0010
  964MOL0     C30043   6.859   2.662   1.296  0.0987 -0.8470 -0.2518
  964MOL0     C30044   6.781   2.541   1.320  0.5426 -0.8757  0.1271
  964MOL0     C30045   6.635   2.554   1.382 -0.0854  0.0760 -0.1621
  964MOL0     C30046   6.528   2.615   1.288 -0.5025  0.3580  0.7813
  964MOL0     C30047   6.466   2.531   1.176  1.0972 -0.5204 -0.6189
  964MOL0     C30048   6.384   2.404   1.236  0.0474 -0.1656 -0.0293
  964MOL0     C30049   6.234   2.425   1.207  0.1050  0.2134 -0.0638
  964MOL0    Cl30050   6.116   2.294   1.260  0.3438  0.1080  0.3084
  964MOL0     C30051   7.283   2.872   1.227  0.5219  0.2000  0.4956
  964MOL0     C30052   7.424   2.865   1.228  0.3442 -0.2807 -0.7686
  964MOL0     O30053   7.662   2.793   1.444  0.1653  0.1152  0.0162
  964MOL0     C30054   7.941   2.741   1.424  0.6348  0.3226 -0.4812
  964MOL0     C30055   8.081   2.745   1.418 -0.5083  0.0087 -0.1134
  964MOL0     N30056   8.862   2.606   1.374  0.2671 -0.2165 -0.2563
  964MOL0     N30057   8.947   2.537   1.299 -0.1752 -0.0233 -0.8266
  964MOL0     C30058  10.037   2.392   1.274  0.5860  0.5540  0.2125
  964MOL0     C30059  10.167   2.399   1.321 -0.0088 -0.5566 -0.4419
  964MOL0     C30060  10.627   2.542   1.277 -0.1671  0.9342 -0.1839
  964MOL0     C30061  10.757   2.509   1.238  0.2576 -0.2632  0.6089
  964MOL0     C30062  10.860   2.573   1.301 -0.6240 -0.7491  0.6880
  964MOL0     C30063  10.837   2.672   1.398  0.1796  0.3393  0.1731
  964MOL0     O30064  10.937   2.737   1.468  0.5362  0.2116  0.3864
  964MOL0     C30065  11.075   2.727   1.428  1.1585 -0.1740 -0.5959
  964MOL0     C30066  11.118   2.824   1.307  1.0468 -0.0496 -0.5133
  964MOL0     C30067  11.263   2.818   1.283  0.3110  0.5737  0.3124
  964MOL0     C30068  11.358   2.871   1.392  0.5149 -0.4907 -0.4220
  964MOL0     C30069  11.490   2.876   1.339  0.5624  0.3463 -0.2414
  964MOL0     C30070  11.601   2.872   1.303  0.7578 -1.0728 -0.0237
  964MOL0     C30071  10.704   2.716   1.420 -0.9722 -0.2139 -0.2822
  964MOL0     C30072  10.601   2.647   1.363 -0.6323 -0.4223 -0.5410
  964MOL0     H30073  10.320   2.495   1.038  0.6673 -1.9925  0.5327
  964MOL0     H30074  10.093   2.486   0.945  2.4750  2.1505 -0.3246
  964MOL0     H30075   9.931   2.348   0.916  0.7151 -0.2472  1.6759
  964MOL0     H30076   9.785   2.271   0.978 -0.4876  0.1232 -1.0518
  964MOL0     H30077   9.807   2.556   0.882 -1.9195  0.7245 -0.7668
  964MOL0     H30078   9.723   2.419   0.804 -1.4729  0.3361  0.0882
  964MOL0     H30079   9.585   2.399   1.015  2.4807 -2.0767 -0.7380
  964MOL0     H30080   9.674   2.541   1.073  3.4889 -0.7844 -0.8007
  964MOL0     H30081   9.611   2.677   0.883 -0.3692  0.1850 -1.3703
  964MOL0     H30082   9.509   2.545   0.819  0.8280 -0.2332 -0.6640
  964MOL0     H30083   9.496   2.684   1.098  1.5161  2.9279 -1.7692
  964MOL0     H30084   9.416   2.737   0.948 -0.7972  1.0326  2.4730
  964MOL0     H30085   9.296   2.517   0.932 -1.2844  0.2849  0.5894
  964MOL0     H30086   9.359   2.481   1.100  2.3736  2.6165  1.9795
  964MOL0     H30087   9.225   2.665   1.199 -1.9587 -0.6977  0.4118
  964MOL0     H30088   9.185   2.731   1.038 -3.0550 -2.6187 -3.2843
  964MOL0     H30089   9.112   2.452   1.123 -0.0385  0.2001  0.3942
  964MOL0     H30090   9.034   2.541   1.001  0.3222  2.6887 -0.6657
  964MOL0     H30091   8.916   2.798   1.117 -2.3018  0.6361  1.9895
  964MOL0     H30092   8.765   2.826   1.471 -0.0081  0.9491  0.7409
  964MOL0     H30093   8.764   2.918   1.314  0.9249 -1.3940 -1.2775
  964MOL0     H30094   8.578   2.679   1.370  1.5910  0.8422  2.0017
  964MOL0     H30095   8.600   2.774   1.219  1.5011  0.8258  0.0770
  964MOL0     H30096   8.498   2.967   1.326 -1.1699 -1.0581 -1.6745
  964MOL0     H30097   8.556   2.903   1.487  0.9948 -0.9860  0.4836
  964MOL0     H30098   8.332   2.851   1.506  1.9883  1.3446  0.1313
  964MOL0     H30099   8.374   2.704   1.428 -0.0353 -0.0307  2.4563
  964MOL0     H30100   8.115   2.958   1.165 -0.3081 -1.3187 -1.4141
  964MOL0     H30101   7.922   3.010   1.074  2.1391 -2.1458  1.4292
  964MOL0     H30102   7.792   2.899   1.050  0.6457  1.1257 -1.0273
  964MOL0     H30103   7.776   3.026   1.176  1.4272  1.5341  0.5188
  964MOL0     H30104   7.491   2.537   1.222 -2.3816 -2.2864  2.2510
  964MOL0     H30105   7.243   2.536   1.229 -0.6014  0.2685 -0.6219
  964MOL0     H30106   7.035   2.553   1.196  1.1334 -1.7195  1.5597
  964MOL0     H30107   7.048   2.572   1.368  1.7138 -0.8612 -1.0322
  964MOL0     H30108   6.843   2.731   1.379  0.4614 -0.1385 -0.7605
  964MOL0     H30109   6.823   2.712   1.206  2.7033  1.1649 -0.2847
  964MOL0     H30110   6.839   2.477   1.387 -0.4508  0.0821  2.0058
  964MOL0     H30111   6.764   2.497   1.221  2.0015 -0.9543 -0.1004
  964MOL0     H30112   6.602   2.460   1.426  0.0123  1.2575  2.6024
  964MOL0     H30113   6.639   2.617   1.471 -0.2589 -0.3714  0.1639
  964MOL0     H30114   6.569   2.707   1.245 -1.5797  1.5601  2.2091
  964MOL0     H30115   6.455   2.652   1.361 -2.3736  3.5245 -2.3617
  964MOL0     H30116   6.400   2.610   1.138 -0.0415 -0.7270  0.8132
  964MOL0     H30117   6.542   2.504   1.103  1.2512  1.7235 -1.3418
  964MOL0     H30118   6.402   2.400   1.344  3.2284  0.8762 -0.4100
  964MOL0     H30119   6.429   2.320   1.183  2.1448  0.9408 -0.1170
  964MOL0     H30120   6.235   2.415   1.098 -0.5725  1.4194 -0.2004
  964MOL0     H30121   6.205   2.526   1.236 -3.3093 -0.6831  0.0478
  964MOL0     H30122   7.214   2.955   1.219 -3.1159 -2.7005 -1.0907
  964MOL0     H30123   7.475   2.960   1.239  2.0725 -1.0199 -1.8089
  964MOL0     H30124   7.908   2.686   1.511  1.4761  2.6667  1.4388
  964MOL0     H30125   8.126   2.686   1.498 -0.0911  2.0580  1.2614
  964MOL0     H30126   9.970   2.351   1.349 -1.4462 -2.0559 -2.7828
  964MOL0     H30127  10.188   2.370   1.423  0.0803 -2.4778 -0.9721
  964MOL0     H30128  10.761   2.435   1.159  0.8366 -0.4327  0.7910
  964MOL0     H30129  10.962   2.545   1.277 -0.8153 -0.5097 -0.4940
  964MOL0     H30130  11.132   2.757   1.516  1.6875  3.2861 -1.9738
  964MOL0     H30131  11.097   2.624   1.399  1.9180 -0.0582 -0.4373
  964MOL0     H30132  11.095   2.929   1.330 -1.1815 -1.1575  3.2275
  964MOL0     H30133  11.053   2.800   1.222  1.3227 -0.2252 -0.6767
  964MOL0     H30134  11.291   2.859   1.185 -2.4018  0.1104 -0.7381
  964MOL0     H30135  11.294   2.715   1.262  1.9663  1.4694 -2.1440
  964MOL0     H30136  11.363   2.806   1.479  3.6125  0.0231 -0.1196
  964MOL0     H30137  11.322   2.970   1.422 -1.7830 -1.2927 -0.3418
  964MOL0     H30138  11.701   2.863   1.265  0.6584  1.8514 -1.3152
  964MOL0     H30139  10.689   2.789   1.498  1.1366 -0.3139  0.2810
  964MOL0     H30140  10.505   2.659   1.413 -1.2674  1.0757 -2.0397
  965MOL0     O30141   2.598  10.771   5.465  0.0481 -0.4594 -0.4613
  965MOL0     C30142   2.581  10.689   5.376 -0.1084 -0.7544 -0.3404
  965MOL0     O30143   2.470  10.693   5.284 -0.3808  0.3146  0.0884
  965MOL0     C30144   2.360  10.766   5.326 -0.5133 -0.8415  0.9342
  965MOL0     C30145   2.308  10.760   5.458  1.2860 -0.5486  0.1307
  965MOL0     C30146   2.195  10.819   5.493  0.0818 -0.0119 -0.0571
  965MOL0     C30147   2.125  10.893   5.399  0.5784 -0.7060 -0.5139
  965MOL0     O30148   2.007  10.958   5.444 -0.7067  0.0028  0.4001
  965MOL0     C30149   1.931  11.032   5.345  0.2572  0.5349 -0.3508
  965MOL0     C30150   1.800  11.075   5.409  0.8399  0.0810  0.0398
  965MOL0     C30151   1.696  11.153   5.312 -0.2622  0.5000 -0.4720
  965MOL0     C30152   1.571  11.168   5.393  1.0260 -0.5690  0.4992
  965MOL0     C30153   1.479  11.276   5.329  0.0073 -0.5805  0.0448
  965MOL0     C30154   1.349  11.268   5.403  0.1431 -0.5765 -0.1892
  965MOL0     C30155   1.229  11.347   5.333 -0.0980 -0.1678  0.4051
  965MOL0     C30156   1.202  11.487   5.385  0.3686 -0.3235  0.2206
  965MOL0     N30157   1.127  11.490   5.512 -0.8723  0.1276 -0.8256
  965MOL0     C30158   1.029  11.581   5.547 -0.6612  0.6261 -0.2178
  965MOL0     C30159   0.983  11.544   5.671  0.0887 -0.8325 -0.0076
  965MOL0     C30160   0.879  11.614   5.759  0.1317 -0.4486  1.3398
  965MOL0     C30161   0.738  11.558   5.712  0.6659  0.5207  0.6734
  965MOL0     C30162   0.699  11.416   5.747 -0.0692 -0.3621 -0.5042
  965MOL0     C30163   0.544  11.401   5.750 -0.0962 -0.0085 -0.3843
  965MOL0     O30164   0.489  11.395   5.615 -0.3531  0.2041  0.5355
  965MOL0     C30165   0.356  11.360   5.612 -0.0046 -0.7538 -0.0861
  965MOL0     C30166   0.312  11.298   5.487  0.6368  0.0515 -0.5841
  965MOL0     C30167   0.182  11.239   5.476  0.1062  0.4276  0.3399
  965MOL0     C30168   0.159  11.172   5.342  0.4888  0.2740 -0.1101
  965MOL0     C30169   0.094  11.258   5.578 -0.8340 -0.1349 -0.0977
  965MOL0     C30170  -0.046  11.200   5.583 -0.3013  0.1221 -0.3156
  965MOL0     O30171  -0.122  11.206   5.699  0.0615  0.0892 -0.4572
  965MOL0     C30172  -0.252  11.149   5.693 -0.1951  0.5149  0.2561
  965MOL0     C30173  -0.287  11.029   5.619 -0.7296  0.1588  0.2289
  965MOL0     C30174  -0.420  10.985   5.621 -0.4785 -0.5595  0.1852
  965MOL0     C30175  -0.524  11.056   5.679  0.0540 -0.4884 -0.3319
  965MOL0     O30176  -0.659  11.031   5.664 -0.5261 -0.3670 -0.7689
  965MOL0     C30177  -0.703  10.901   5.677  0.0003 -0.4209 -0.1072
  965MOL0     C30178  -0.858  10.903   5.703 -0.7126  0.1883 -0.1700
  965MOL0     C30179  -0.887  10.947   5.843  0.2128 -0.5246  0.0891
  965MOL0     C30180  -1.029  10.918   5.883  0.5330 -0.1690  0.4921
  965MOL0     C30181  -1.047  10.963   6.033  0.5472  0.3910  0.0004
  965MOL0     C30182  -1.195  10.949   6.077 -1.0678  0.0535 -0.6158
  965MOL0     C30183  -1.231  10.807   6.119 -0.8934  0.3294 -0.2049
  965MOL0     C30184  -1.379  10.801   6.164 -1.0811  0.7294 -0.3237
  965MOL0    Cl30185  -1.419  10.642   6.230 -0.2248  0.2269  0.1239
  965MOL0     C30186  -0.485  11.175   5.747  0.6249  0.6075 -0.1108
  965MOL0     C30187  -0.358  11.219   5.756  0.1485  0.5199 -0.2113
  965MOL0     O30188  -0.091  11.158   5.471 -0.2121  0.2001  0.2482
  965MOL0     C30189   0.133  11.335   5.692 -1.2069 -0.4991  0.6644
  965MOL0     C30190   0.262  11.385   5.706 -1.3671 -0.1678  0.7508
  965MOL0     N30191   1.061  11.437   5.709 -0.1835  0.4620  0.5953
  965MOL0     N30192   1.146  11.406   5.616  0.1570  0.1433  0.2118
  965MOL0     C30193   2.177  10.917   5.274 -0.0532  0.5182 -0.2324
  965MOL0     C30194   2.291  10.846   5.231 -0.8873  0.0012 -0.5134
  965MOL0     C30195   2.677  10.577   5.374 -1.1633  1.0464  0.1978
  965MOL0     C30196   2.782  10.559   5.468  0.4330 -0.0236 -0.5266
  965MOL0     C30197   2.857  10.445   5.465 -0.0996  0.5232  0.0012
  965MOL0     C30198   2.829  10.336   5.376 -0.3121 -0.3687 -0.5401
  965MOL0     O30199   2.890  10.213   5.383 -0.1597  0.4814  0.3881
  965MOL0     C30200   3.029  10.219   5.338  0.1792  0.8180 -0.1464
  965MOL0     C30201   3.111  10.178   5.448 -0.5614  0.0313 -0.4179
  965MOL0     C30202   3.260  10.218   5.420 -0.1922 -0.4190 -0.3674
  965MOL0     C30203   3.359  10.166   5.533  0.0210  0.2204  0.5478
  965MOL0     C30204   3.489  10.228   5.551  0.8182 -0.3752 -0.1953
  965MOL0     C30205   3.598  10.276   5.577  0.3056 -0.4649 -0.9447
  965MOL0     C30206   2.734  10.359   5.275  0.2795 -0.2729 -0.1790
  965MOL0     C30207   2.659  10.473   5.272 -0.0641 -0.4385 -0.4100
  965MOL0     H30208   2.367  10.714   5.536 -0.0561 -1.9302  0.3849
  965MOL0     H30209   2.167  10.822   5.598  2.4497  0.0929  0.6286
  965MOL0     H30210   1.991  11.112   5.302  0.7490  1.0182  1.1582
  965MOL0     H30211   1.905  10.953   5.274 -2.3085 -0.2017  1.2641
  965MOL0     H30212   1.754  10.982   5.444 -0.3649  0.5514 -0.2375
  965MOL0     H30213   1.828  11.132   5.498  2.3172 -2.1321  1.0940
  965MOL0     H30214   1.749  11.245   5.286  2.9135 -1.4788 -1.5808
  965MOL0     H30215   1.671  11.094   5.223  2.4199 -2.1747  0.3598
  965MOL0     H30216   1.525  11.071   5.412  0.5351 -0.2656  0.9007
  965MOL0     H30217   1.598  11.199   5.494 -0.0516 -1.1347  0.9797
  965MOL0     H30218   1.519  11.377   5.339 -1.9411  0.2494 -0.1087
  965MOL0     H30219   1.475  11.255   5.222 -0.4106  0.8671 -0.2443
  965MOL0     H30220   1.325  11.161   5.406 -1.4222 -0.2560 -0.5198
  965MOL0     H30221   1.356  11.295   5.509  1.1686 -0.6475 -0.2318
  965MOL0     H30222   1.257  11.362   5.228 -3.2729  0.8032 -0.3921
  965MOL0     H30223   1.140  11.284   5.326 -2.0058  2.5368 -4.7026
  965MOL0     H30224   1.136  11.545   5.320 -0.6791 -0.6775  0.9370
  965MOL0     H30225   1.295  11.538   5.410 -0.7983  1.0449  2.0911
  965MOL0     H30226   0.998  11.662   5.481 -0.3893  0.2512 -0.8106
  965MOL0     H30227   0.892  11.583   5.863 -1.7039  1.2301  2.1308
  965MOL0     H30228   0.881  11.723   5.760  1.0418 -0.4573  1.7993
  965MOL0     H30229   0.727  11.556   5.603  2.2444 -3.5303  0.4063
  965MOL0     H30230   0.654  11.606   5.763 -0.7369 -2.8536  1.8763
  965MOL0     H30231   0.746  11.411   5.846  3.6605  3.8757 -1.7443
  965MOL0     H30232   0.732  11.344   5.672 -0.9542 -1.1452 -0.1600
  965MOL0     H30233   0.508  11.486   5.808  2.9811 -0.2948  2.1715
  965MOL0     H30234   0.511  11.317   5.811 -2.0845  3.3585  3.6946
  965MOL0     H30235   0.389  11.288   5.411  0.7247 -3.3553 -0.1996
  965MOL0     H30236   0.253  11.156   5.287  2.5207  2.2607  2.5129
  965MOL0     H30237   0.114  11.074   5.360  1.9504 -0.3468  0.3111
  965MOL0     H30238   0.085  11.230   5.286  1.7735  1.2768 -0.8269
  965MOL0     H30239  -0.220  10.951   5.586 -1.2424 -1.1117  2.0717
  965MOL0     H30240  -0.437  10.893   5.566  0.0007 -0.6633  0.2043
  965MOL0     H30241  -0.692  10.844   5.584 -1.7554 -3.1959  1.2613
  965MOL0     H30242  -0.650  10.848   5.757 -0.4641 -1.5151 -0.5013
  965MOL0     H30243  -0.907  10.969   5.631  0.0332  2.2698  1.1464
  965MOL0     H30244  -0.904  10.804   5.692  1.7456 -1.0378 -0.2279
  965MOL0     H30245  -0.867  11.054   5.854 -0.6460 -0.1987 -1.2985
  965MOL0     H30246  -0.811  10.889   5.897 -1.6832 -1.2859  2.0763
  965MOL0     H30247  -1.109  10.963   5.823 -2.8516 -0.9000  4.0394
  965MOL0     H30248  -1.042  10.810   5.876 -0.3297  0.0223 -1.6023
  965MOL0     H30249  -1.025  11.070   6.042  1.0267  0.4528 -1.6739
  965MOL0     H30250  -0.975  10.905   6.090 -1.1447 -1.6802  0.1506
  965MOL0     H30251  -1.199  11.018   6.163  0.4608 -0.4418 -0.1152
  965MOL0     H30252  -1.249  10.990   5.991 -0.6684 -1.1575 -1.4681
  965MOL0     H30253  -1.162  10.774   6.198  0.1502  0.5814 -0.9949
  965MOL0     H30254  -1.213  10.738   6.036 -0.5928  0.0295  0.1037
  965MOL0     H30255  -1.444  10.820   6.078  0.5140 -0.4389 -1.8614
  965MOL0     H30256  -1.414  10.866   6.245 -0.5897 -0.7669  1.1407
  965MOL0     H30257  -0.562  11.225   5.805  0.5540 -4.0615  4.5732
  965MOL0     H30258  -0.341  11.317   5.800  0.2269 -0.3673  1.8808
  965MOL0     H30259   0.064  11.353   5.773 -0.6165 -1.1243  1.3214
  965MOL0     H30260   0.279  11.435   5.801 -1.7925  0.7135  0.3745
  965MOL0     H30261   2.127  10.974   5.196 -0.0936 -0.1990 -0.7323
  965MOL0     H30262   2.339  10.870   5.136  0.2443  0.3708  0.1285
  965MOL0     H30263   2.793  10.635   5.545  0.4802  1.0982 -1.6098
  965MOL0     H30264   2.935  10.441   5.541 -0.2641  0.8156  0.1903
  965MOL0     H30265   3.033  10.142   5.261 -0.7237 -2.0197  2.4201
  965MOL0     H30266   3.060  10.321   5.311 -0.5192  1.7209  2.1745
  965MOL0     H30267   3.103  10.070   5.458  1.3730  0.0835  3.5324
  965MOL0     H30268   3.074  10.220   5.542 -0.5696  0.5948 -0.6694
  965MOL0     H30269   3.271  10.326   5.402 -0.3296 -0.1664  0.9564
  965MOL0     H30270   3.285  10.176   5.322  1.7979  3.1404 -1.5971
  965MOL0     H30271   3.366  10.058   5.521  2.4952  0.5278 -1.9957
  965MOL0     H30272   3.300  10.186   5.622 -1.3128  1.5798 -0.5893
  965MOL0     H30273   3.692  10.326   5.590 -0.1368 -0.1449  1.6825
  965MOL0     H30274   2.712  10.283   5.201  1.4873 -0.1148 -0.7271
  965MOL0     H30275   2.576  10.484   5.203 -0.6516  0.3354  0.3969
  966MOL0     O30276   4.845   9.066   2.736  0.4412  0.0386  0.5357
  966MOL0     C30277   4.883   9.124   2.633 -0.8635 -0.3042  0.5514
  966MOL0     O30278   4.803   9.135   2.515 -0.0553 -0.4529  0.1425
  966MOL0     C30279   4.671   9.100   2.528  0.3275 -0.0116  0.2435
  966MOL0     C30280   4.564   9.199   2.533  0.3239  0.6328  0.3809
  966MOL0     C30281   4.428   9.158   2.533 -0.6955 -0.8905  0.2973
  966MOL0     C30282   4.398   9.013   2.549 -0.5138  0.4614  0.2878
  966MOL0     O30283   4.277   8.949   2.548  0.3378 -0.0886  0.0839
  966MOL0     C30284   4.160   9.038   2.549 -0.4726  0.7162 -0.5927
  966MOL0     C30285   4.032   8.958   2.533  0.7640  0.3397  0.6264
  966MOL0     C30286   3.907   9.058   2.550 -0.5065  0.3710 -0.1661
  966MOL0     C30287   3.771   8.982   2.549  0.4846  0.5062  0.3771
  966MOL0     C30288   3.657   9.092   2.559 -0.1837 -0.5051  0.4393
  966MOL0     C30289   3.527   9.024   2.589 -1.1478  0.4308 -0.5694
  966MOL0     C30290   3.422   9.131   2.587  0.4603  0.1019 -0.3312
  966MOL0     C30291   3.284   9.072   2.599  0.1687  0.3752 -0.1042
  966MOL0     N30292   3.185   9.177   2.561 -0.5832  0.7673 -0.2181
  966MOL0     C30293   3.132   9.188   2.435  0.5008 -0.0501  0.1731
  966MOL0     C30294   3.028   9.272   2.456 -0.2058 -0.3709  0.3368
  966MOL0     C30295   2.925   9.308   2.349  0.2573 -0.2135  0.1665
  966MOL0     C30296   2.784   9.264   2.384  0.4128  0.0987  0.4790
  966MOL0     C30297   2.692   9.330   2.276 -1.2326 -0.6526 -0.2765
  966MOL0     C30298   2.552   9.278   2.299 -0.0244 -0.3041 -0.5494
  966MOL0     O30299   2.466   9.346   2.206 -0.7785 -0.5186  0.3651
  966MOL0     C30300   2.331   9.329   2.221 -0.3101  1.2151  0.2041
  966MOL0     C30301   2.261   9.262   2.324 -0.4904  0.2833  0.1901
  966MOL0     C30302   2.123   9.268   2.343 -0.7063  0.3723 -0.5802
  966MOL0     C30303   2.068   9.204   2.469 -0.3357  0.2152 -0.1147
  966MOL0     C30304   2.043   9.340   2.250  0.5546  0.1374 -0.3216
  966MOL0     C30305   1.898   9.359   2.264 -0.0750 -0.1542 -0.0293
  966MOL0     O30306   1.844   9.467   2.197 -0.3041  0.4498  0.4345
  966MOL0     C30307   1.718   9.511   2.231  0.8590  0.2199  0.5555
  966MOL0     C30308   1.651   9.578   2.123  0.0931  0.8174  0.5049
  966MOL0     C30309   1.519   9.629   2.134  0.5973  0.1788 -0.3083
  966MOL0     C30310   1.449   9.614   2.258  0.1178  0.7668  0.1809
  966MOL0     O30311   1.314   9.647   2.266 -0.4684  0.2324 -0.2196
  966MOL0     C30312   1.242   9.650   2.393  0.0814  0.3558 -0.7081
  966MOL0     C30313   1.097   9.632   2.392  0.0234  0.2226  0.1271
  966MOL0     C30314   1.033   9.757   2.340  0.6627 -0.2026  0.0664
  966MOL0     C30315   0.879   9.757   2.333 -0.4317  0.1171 -1.0346
  966MOL0     C30316   0.820   9.894   2.282 -1.0238 -0.3435  0.2978
  966MOL0     C30317   0.666   9.909   2.316 -0.5422 -0.2225 -0.0891
  966MOL0     C30318   0.618  10.058   2.295 -0.2915 -0.8447 -0.6591
  966MOL0     C30319   0.652  10.095   2.157 -0.3840 -0.2913  0.1188
  966MOL0    Cl30320   0.570  10.001   2.034  0.2989  0.0631 -0.4402
  966MOL0     C30321   1.520   9.555   2.361  0.3956  0.5007 -0.4011
  966MOL0     C30322   1.648   9.504   2.350 -0.2156  0.2996 -0.6361
  966MOL0     O30323   1.829   9.273   2.322  0.5209 -0.3327 -0.4656
  966MOL0     C30324   2.112   9.407   2.145 -0.1692 -0.7056  0.0932
  966MOL0     C30325   2.254   9.393   2.131  0.2629 -0.4686  0.7954
  966MOL0     N30326   3.007   9.304   2.586 -0.4179 -0.3029  0.4223
  966MOL0     N30327   3.101   9.237   2.654  0.4640 -0.1692 -0.2564
  966MOL0     C30328   4.509   8.924   2.552  0.4845  0.1441 -0.2395
  966MOL0     C30329   4.638   8.966   2.543  0.5221 -0.1276  0.1332
  966MOL0     C30330   5.028   9.167   2.615 -0.0164  0.2643 -0.4581
  966MOL0     C30331   5.084   9.188   2.491  0.1907  0.1767 -0.2754
  966MOL0     C30332   5.222   9.232   2.473 -0.2339 -0.0468 -0.5702
  966MOL0     C30333   5.305   9.252   2.587 -0.4367  0.5291 -0.2374
  966MOL0     O30334   5.437   9.290   2.564 -0.0075  0.7268  0.2693
  966MOL0     C30335   5.515   9.288   2.676 -1.1075  0.7576 -0.0245
  966MOL0     C30336   5.652   9.345   2.653  0.6625 -0.3113  0.0629
  966MOL0     C30337   5.740   9.345   2.777 -0.8435  0.2193 -0.5538
  966MOL0     C30338   5.849   9.446   2.749 -0.3650  0.5246  0.2296
  966MOL0     C30339   5.964   9.446   2.846  0.4955 -0.9997 -0.2115
  966MOL0     C30340   6.054   9.444   2.926 -0.1295  0.6781 -0.1105
  966MOL0     C30341   5.240   9.240   2.712 -0.0071 -0.2934 -0.3413
  966MOL0     C30342   5.105   9.199   2.726  0.7666  0.1981  0.0870
  966MOL0     H30343   4.590   9.302   2.552 -0.0616  0.5557  1.3640
  966MOL0     H30344   4.351   9.235   2.533  1.2074  1.1870  2.1818
  966MOL0     H30345   4.158   9.095   2.642  1.3469  2.8827 -1.7824
  966MOL0     H30346   4.170   9.099   2.458  4.6151 -1.1213 -1.5914
  966MOL0     H30347   4.044   8.905   2.438 -1.1112  1.3391 -0.2144
  966MOL0     H30348   4.017   8.885   2.613 -1.3093  0.4005  0.3587
  966MOL0     H30349   3.918   9.109   2.646 -1.8949  3.3611 -1.4467
  966MOL0     H30350   3.904   9.136   2.473 -0.0743  0.3148 -0.2453
  966MOL0     H30351   3.755   8.918   2.461  0.0444  0.7502  0.2761
  966MOL0     H30352   3.776   8.908   2.629  2.2925 -1.7763 -1.6692
  966MOL0     H30353   3.668   9.165   2.639 -1.8972 -2.7894  2.9582
  966MOL0     H30354   3.652   9.150   2.467  2.5845  1.9518  1.6668
  966MOL0     H30355   3.503   8.946   2.516  0.4530 -0.6313 -0.0170
  966MOL0     H30356   3.516   8.982   2.690 -1.1999 -1.3082 -1.2626
  966MOL0     H30357   3.438   9.190   2.678 -0.0137 -1.1502  0.6062
  966MOL0     H30358   3.427   9.199   2.502 -1.1452  0.9598  0.2109
  966MOL0     H30359   3.279   9.059   2.708  2.9749  0.8226  0.1454
  966MOL0     H30360   3.269   8.979   2.543  0.6771 -0.2011  0.6817
  966MOL0     H30361   3.156   9.148   2.337  3.0327  0.3946  0.5393
  966MOL0     H30362   2.932   9.417   2.347  1.0037  0.0173  5.0378
  966MOL0     H30363   2.939   9.282   2.243 -1.4433  1.8837 -0.6391
  966MOL0     H30364   2.754   9.295   2.484  0.2786  0.9704  0.1869
  966MOL0     H30365   2.780   9.155   2.374  1.3075  0.0184  0.9002
  966MOL0     H30366   2.722   9.297   2.176 -2.9038 -1.4310 -0.5691
  966MOL0     H30367   2.699   9.438   2.290  2.5637 -0.8093  0.0473
  966MOL0     H30368   2.525   9.295   2.403  0.9240 -0.2461 -0.2977
  966MOL0     H30369   2.559   9.169   2.287 -0.8050 -0.5767  1.1252
  966MOL0     H30370   2.327   9.206   2.389  1.8086 -0.4389 -2.5408
  966MOL0     H30371   1.985   9.134   2.457 -0.8916  1.0016 -0.9966
  966MOL0     H30372   2.149   9.148   2.516 -3.0439 -3.8774  0.1383
  966MOL0     H30373   2.023   9.280   2.534 -0.7328 -0.8260  0.8548
  966MOL0     H30374   1.701   9.587   2.027 -2.4421  0.3241 -0.9603
  966MOL0     H30375   1.465   9.665   2.047 -0.6889 -2.1844 -0.5719
  966MOL0     H30376   1.272   9.558   2.445 -1.2277  0.7556  0.8143
  966MOL0     H30377   1.285   9.731   2.452 -0.0380  0.3845 -0.6612
  966MOL0     H30378   1.075   9.548   2.325  0.4629  1.8574 -2.1983
  966MOL0     H30379   1.066   9.605   2.493  3.0456  0.7816  1.3166
  966MOL0     H30380   1.066   9.775   2.237 -0.0345 -1.4092 -0.3949
  966MOL0     H30381   1.064   9.846   2.395  1.7161 -0.0803 -0.7040
  966MOL0     H30382   0.855   9.679   2.260 -2.6257 -1.3478  1.1172
  966MOL0     H30383   0.830   9.723   2.424 -0.6509 -2.3411 -1.9860
  966MOL0     H30384   0.841   9.910   2.176 -1.9250  0.8453  0.2765
  966MOL0     H30385   0.866   9.980   2.331 -1.8620 -0.7437  1.8857
  966MOL0     H30386   0.612   9.838   2.252 -1.9574  1.0872 -0.3902
  966MOL0     H30387   0.653   9.875   2.419 -2.2646 -1.9452 -0.8232
  966MOL0     H30388   0.670  10.116   2.371  1.2382 -1.6689 -1.0406
  966MOL0     H30389   0.510  10.064   2.310 -0.1514 -1.3208  0.6875
  966MOL0     H30390   0.761  10.095   2.143 -0.5708  1.1948 -1.7887
  966MOL0     H30391   0.623  10.200   2.144 -0.5012 -0.4148 -0.6758
  966MOL0     H30392   1.477   9.542   2.460 -2.4754 -0.4741 -1.6640
  966MOL0     H30393   1.704   9.458   2.431 -0.0865 -0.1301 -0.9694
  966MOL0     H30394   2.064   9.479   2.081  3.3217  1.6609 -0.1537
  966MOL0     H30395   2.304   9.444   2.049  0.5408  2.0298  2.3990
  966MOL0     H30396   4.499   8.816   2.559  0.4568  0.0618 -1.3593
  966MOL0     H30397   4.718   8.893   2.547  0.4772 -0.1462  0.7826
  966MOL0     H30398   5.021   9.158   2.408  0.3747 -0.4642 -0.1928
  966MOL0     H30399   5.268   9.226   2.375 -1.4055  0.2732 -1.1631
  966MOL0     H30400   5.459   9.357   2.742 -1.9240  1.4299 -1.3760
  966MOL0     H30401   5.536   9.187   2.712 -2.9442 -0.3075 -1.7482
  966MOL0     H30402   5.633   9.448   2.621  1.0077 -0.1678  0.3062
  966MOL0     H30403   5.706   9.295   2.571  0.7975  2.1728 -1.4768
  966MOL0     H30404   5.787   9.246   2.783  0.0675  0.6567 -0.2133
  966MOL0     H30405   5.682   9.375   2.864 -2.3446 -0.9767 -1.1079
  966MOL0     H30406   5.809   9.545   2.727  1.2376  0.2429 -5.7248
  966MOL0     H30407   5.893   9.428   2.650 -2.0248  2.9588 -1.0771
  966MOL0     H30408   6.126   9.447   3.005  0.7012  1.1885 -0.8747
  966MOL0     H30409   5.287   9.258   2.809  0.4432 -3.8254  0.2273
  966MOL0     H30410   5.066   9.200   2.827 -0.5274  2.2454 -0.3703
  967MOL0     O30411   3.654   5.671   5.576  0.3210  0.0103 -0.2649
  967MOL0     C30412   3.752   5.732   5.613  0.5470  0.7621 -0.1564
  967MOL0     O30413   3.757   5.839   5.707 -0.2454  0.9726  0.3174
  967MOL0     C30414   3.646   5.874   5.777  0.0643 -0.0835 -0.1331
  967MOL0     C30415   3.531   5.796   5.808  0.3621  0.8453  0.8567
  967MOL0     C30416   3.407   5.851   5.850 -0.3365 -0.0393  0.0231
  967MOL0     C30417   3.401   5.992   5.865  0.0565  1.0181  0.5709
  967MOL0     O30418   3.291   6.054   5.920  0.1025 -0.4936 -0.3350
  967MOL0     C30419   3.195   5.964   5.973  0.0629  0.2961  0.9290
  967MOL0     C30420   3.082   6.052   6.029 -0.3661 -0.1878  1.2529
  967MOL0     C30421   2.975   5.958   6.101 -0.4385 -0.2120  0.6747
  967MOL0     C30422   2.914   6.022   6.220 -0.4316 -0.0902  0.1868
  967MOL0     C30423   2.766   5.986   6.246  0.5141  0.0041  0.1170
  967MOL0     C30424   2.727   5.993   6.392  0.3022  0.2072  0.1237
  967MOL0     C30425   2.589   5.942   6.410  0.6428 -0.1822 -0.3195
  967MOL0     C30426   2.473   6.019   6.341 -0.7561 -0.3295  0.4685
  967MOL0     N30427   2.465   6.168   6.356 -0.4703  0.4142  0.2117
  967MOL0     C30428   2.419   6.227   6.472  0.0440 -0.0764  0.9332
  967MOL0     C30429   2.400   6.358   6.433 -1.2363  0.2592  0.9132
  967MOL0     C30430   2.359   6.469   6.524  0.1547  1.3157  0.1970
  967MOL0     C30431   2.437   6.475   6.655 -0.6577 -0.0777  0.2165
  967MOL0     C30432   2.423   6.626   6.704 -0.2393  0.7422 -0.0639
  967MOL0     C30433   2.273   6.661   6.741 -0.4446 -0.1111 -0.1022
  967MOL0     O30434   2.236   6.572   6.845 -0.6632  0.1468  0.0250
  967MOL0     C30435   2.101   6.561   6.877  0.0556 -0.0293 -0.4350
  967MOL0     C30436   2.067   6.469   6.979  0.2972 -0.4075  0.0785
  967MOL0     C30437   1.925   6.446   7.018  0.2256  0.3123  0.8500
  967MOL0     C30438   1.920   6.346   7.131 -0.8641 -0.1659 -0.0446
  967MOL0     C30439   1.824   6.524   6.966  0.2891 -0.0724 -0.6946
  967MOL0     C30440   1.683   6.514   7.008  0.4007  0.9726  0.4032
  967MOL0     O30441   1.604   6.614   6.984 -0.0034  0.5523 -0.0329
  967MOL0     C30442   1.476   6.629   7.027 -0.6361  0.7050  0.9439
  967MOL0     C30443   1.431   6.763   7.022 -0.5155 -0.3570 -0.6889
  967MOL0     C30444   1.306   6.794   7.075 -0.0947  0.3498 -0.2998
  967MOL0     C30445   1.224   6.698   7.136 -0.8018 -0.0708  0.2719
  967MOL0     O30446   1.108   6.745   7.185 -0.1143 -0.1061 -0.4650
  967MOL0     C30447   1.014   6.647   7.230 -0.2798  0.0412  0.0533
  967MOL0     C30448   0.876   6.725   7.243 -0.1370  0.7917 -0.3399
  967MOL0     C30449   0.762   6.625   7.283  0.1581 -0.3281 -0.1098
  967MOL0     C30450   0.634   6.708   7.281  0.0826  0.7222 -0.4306
  967MOL0     C30451   0.518   6.612   7.261  0.8076  0.0496  0.3693
  967MOL0     C30452   0.501   6.473   7.333 -0.2725 -0.3191 -0.2388
  967MOL0     C30453   0.378   6.401   7.300  0.3174 -0.1225  0.6516
  967MOL0     C30454   0.346   6.377   7.148  0.2949 -0.1716 -0.5644
  967MOL0    Cl30455   0.193   6.282   7.138  0.2880 -0.1219  0.2233
  967MOL0     C30456   1.270   6.568   7.141 -0.4384 -0.3414  0.3682
  967MOL0     C30457   1.390   6.538   7.085  0.4575 -0.1807 -0.4670
  967MOL0     O30458   1.649   6.405   7.053 -0.5367  0.5490  0.4689
  967MOL0     C30459   1.861   6.614   6.862  0.1497 -0.7482  0.1321
  967MOL0     C30460   1.995   6.634   6.830 -0.7151  0.7042  0.3610
  967MOL0     N30461   2.431   6.371   6.298 -0.0964 -0.4088 -0.2659
  967MOL0     N30462   2.468   6.259   6.256  0.4838 -0.0380  1.2478
  967MOL0     C30463   3.517   6.071   5.851 -0.3112  0.1157 -0.2414
  967MOL0     C30464   3.638   6.013   5.809  0.1264 -0.0045  0.4852
  967MOL0     C30465   3.880   5.689   5.551 -0.2534  0.1151  0.7464
  967MOL0     C30466   3.990   5.775   5.560  0.1587 -0.7252 -0.4440
  967MOL0     C30467   4.118   5.749   5.514  0.8534 -0.1955  0.6860
  967MOL0     C30468   4.147   5.630   5.452  0.6627  0.9411  0.5030
  967MOL0     O30469   4.274   5.614   5.410 -0.0105  0.8779 -0.1659
  967MOL0     C30470   4.332   5.488   5.373 -0.0148 -0.0036 -0.3446
  967MOL0     C30471   4.465   5.519   5.316  0.2290 -0.6778 -0.2161
  967MOL0     C30472   4.493   5.424   5.199  0.1627 -0.7738 -0.7001
  967MOL0     C30473   4.627   5.462   5.126  0.9212  0.2422 -0.2330
  967MOL0     C30474   4.737   5.402   5.203 -0.5572  0.9555  0.7707
  967MOL0     C30475   4.811   5.334   5.267  0.2565 -0.5911 -0.6799
  967MOL0     C30476   4.044   5.536   5.443 -0.1968  0.2297 -0.1468
  967MOL0     C30477   3.911   5.566   5.485 -0.6640  0.7668  0.7487
  967MOL0     H30478   3.524   5.692   5.778  0.8315  1.1260 -0.2796
  967MOL0     H30479   3.324   5.783   5.862 -3.5675  2.5333 -4.6229
  967MOL0     H30480   3.147   5.899   5.899 -1.4926 -2.3577  4.0232
  967MOL0     H30481   3.235   5.900   6.052 -1.5765  0.7063  2.1472
  967MOL0     H30482   3.119   6.122   6.104  0.4585 -0.3915  1.0387
  967MOL0     H30483   3.034   6.106   5.947  1.5923 -0.3567 -0.0724
  967MOL0     H30484   2.903   5.925   6.026  0.8713  1.5525 -1.4784
  967MOL0     H30485   3.029   5.869   6.133  2.7142  1.1103 -0.5651
  967MOL0     H30486   2.976   5.993   6.306  0.2438  0.2921 -0.1647
  967MOL0     H30487   2.919   6.130   6.207 -2.7046  0.1104  0.6338
  967MOL0     H30488   2.706   6.052   6.183 -4.0939 -2.0100  1.9813
  967MOL0     H30489   2.745   5.884   6.215  4.1017 -0.7667 -0.2281
  967MOL0     H30490   2.793   5.932   6.454 -1.2960  1.6875  3.5722
  967MOL0     H30491   2.732   6.095   6.431 -2.8142  1.2158 -1.7744
  967MOL0     H30492   2.573   5.836   6.390 -0.3402  0.1562 -1.4560
  967MOL0     H30493   2.573   5.963   6.516  0.5902  0.4630 -0.4511
  967MOL0     H30494   2.375   5.978   6.366 -2.0105  1.1623 -1.6637
  967MOL0     H30495   2.482   6.006   6.233 -0.5283  1.8431  0.1870
  967MOL0     H30496   2.405   6.184   6.571  1.3530 -1.8322  0.3968
  967MOL0     H30497   2.373   6.560   6.466  1.8680  1.5312  0.8934
  967MOL0     H30498   2.256   6.449   6.553  1.1659 -1.9872  2.0983
  967MOL0     H30499   2.542   6.448   6.640 -0.9733 -0.0946 -2.3663
  967MOL0     H30500   2.394   6.406   6.728 -1.8804  0.9838  0.5315
  967MOL0     H30501   2.470   6.703   6.641  1.6177  0.5378  1.0109
  967MOL0     H30502   2.483   6.640   6.794 -1.8808  0.9547  1.0223
  967MOL0     H30503   2.212   6.631   6.655 -0.8136  1.1706 -0.2945
  967MOL0     H30504   2.259   6.767   6.762 -0.7570 -0.1773  0.0203
  967MOL0     H30505   2.149   6.409   7.019 -0.2390 -2.8608 -2.1951
  967MOL0     H30506   2.020   6.310   7.158 -0.4247  1.3892  0.5347
  967MOL0     H30507   1.878   6.393   7.221 -2.6656 -0.8744 -0.4680
  967MOL0     H30508   1.859   6.259   7.105  1.3663 -1.8712  0.1212
  967MOL0     H30509   1.486   6.843   6.973 -0.3681  0.0864  0.1859
  967MOL0     H30510   1.273   6.897   7.073  0.6666  0.6155  0.3066
  967MOL0     H30511   0.996   6.573   7.151 -2.3813  1.5975 -1.0436
  967MOL0     H30512   1.048   6.599   7.322 -1.6186 -0.8145  0.1243
  967MOL0     H30513   0.890   6.794   7.326  1.7023 -0.6828  0.6656
  967MOL0     H30514   0.856   6.778   7.150  1.5270 -2.8272 -2.9964
  967MOL0     H30515   0.781   6.585   7.383 -0.2698 -1.6953 -0.5549
  967MOL0     H30516   0.755   6.548   7.206 -1.4951  1.4232 -1.8408
  967MOL0     H30517   0.628   6.760   7.377  1.6280 -0.6397  0.4713
  967MOL0     H30518   0.631   6.777   7.196  1.1494 -2.5356 -3.3487
  967MOL0     H30519   0.509   6.592   7.154  0.1525 -1.5268  0.6875
  967MOL0     H30520   0.424   6.665   7.283  0.3702 -0.4296 -0.3072
  967MOL0     H30521   0.585   6.408   7.305 -1.3605 -1.2095 -1.5333
  967MOL0     H30522   0.508   6.486   7.441  1.9717  1.1902 -0.4995
  967MOL0     H30523   0.292   6.453   7.345 -0.4386 -1.4977  0.8454
  967MOL0     H30524   0.380   6.307   7.355 -2.4013 -0.2517  0.6704
  967MOL0     H30525   0.428   6.315   7.111 -0.0773 -1.9123  1.4066
  967MOL0     H30526   0.339   6.467   7.085  1.6024 -0.6055 -1.3675
  967MOL0     H30527   1.204   6.495   7.187 -2.1666  0.8224 -0.1583
  967MOL0     H30528   1.431   6.438   7.092  1.9799  0.3908 -0.6569
  967MOL0     H30529   1.796   6.691   6.821  0.6766 -0.4958 -0.2511
  967MOL0     H30530   2.016   6.716   6.762  0.0928  0.9044  0.8363
  967MOL0     H30531   3.528   6.179   5.862  1.6093 -0.0406 -0.2609
  967MOL0     H30532   3.725   6.076   5.790 -0.8567  1.6470  1.2264
  967MOL0     H30533   3.969   5.872   5.604  3.7953 -0.3649  0.8709
  967MOL0     H30534   4.202   5.818   5.522  1.4982 -0.6818 -1.2004
  967MOL0     H30535   4.348   5.422   5.458 -0.2650  0.8930  0.4213
  967MOL0     H30536   4.271   5.439   5.296 -2.1813 -1.0601  1.9171
  967MOL0     H30537   4.533   5.518   5.402 -1.0203  3.3449  0.9948
  967MOL0     H30538   4.466   5.623   5.283  3.4832  0.5455  3.0241
  967MOL0     H30539   4.408   5.432   5.130 -0.9401 -0.8507  0.6114
  967MOL0     H30540   4.495   5.322   5.238  0.7791 -0.4044  0.2691
  967MOL0     H30541   4.629   5.572   5.126 -1.3121  0.4352  3.3353
  967MOL0     H30542   4.638   5.419   5.026  0.4510 -0.1426 -0.1214
  967MOL0     H30543   4.882   5.291   5.335  1.3950  3.4447  0.9627
  967MOL0     H30544   4.059   5.436   5.402  0.9626  0.8868 -1.4165
  967MOL0     H30545   3.835   5.488   5.483  1.4991 -1.4729 -0.2104
  968MOL0     O30546   6.641   5.850   8.433  0.2569  0.3451  0.4107
  968MOL0     C30547   6.678   5.951   8.491 -0.1340 -0.4144  0.3453
  968MOL0     O30548   6.598   6.032   8.573 -0.1349 -0.2565  0.1684
  968MOL0     C30549   6.469   6.001   8.591 -0.4579  0.0165  0.5874
  968MOL0     C30550   6.431   6.019   8.719 -0.1165 -0.6517  0.5123
  968MOL0     C30551   6.299   6.006   8.751  0.7869 -0.6332  0.3299
  968MOL0     C30552   6.204   5.977   8.653  0.5019  0.0932  0.1001
  968MOL0     O30553   6.068   5.961   8.678 -0.1857 -0.4633 -0.4907
  968MOL0     C30554   5.991   6.076   8.715 -0.4813 -0.4267 -0.2729
  968MOL0     C30555   5.877   6.061   8.816  0.2304 -0.3449  0.0695
  968MOL0     C30556   5.772   5.962   8.770 -0.3049 -0.7424  1.1623
  968MOL0     C30557   5.665   5.946   8.874  0.4214 -0.1953  0.2838
  968MOL0     C30558   5.557   5.858   8.806 -0.3338 -0.0680  0.6342
  968MOL0     C30559   5.464   5.779   8.902  0.0513  0.7123  0.0386
  968MOL0     C30560   5.413   5.868   9.023  0.7551  0.1102  0.4772
  968MOL0     C30561   5.308   5.788   9.102 -0.8911  0.4508 -0.3159
  968MOL0     N30562   5.240   5.851   9.214 -0.5147 -0.5598 -0.2590
  968MOL0     C30563   5.162   5.786   9.305  0.8514 -0.1700  0.5375
  968MOL0     C30564   5.132   5.880   9.400 -0.2550  0.8857  0.5117
  968MOL0     C30565   5.048   5.858   9.530 -0.0585  0.9718  0.3051
  968MOL0     C30566   5.065   5.712   9.591  0.6498 -0.0946  0.1867
  968MOL0     C30567   5.025   5.699   9.738  0.4007 -0.1517 -0.3828
  968MOL0     C30568   4.881   5.717   9.770 -0.5069  0.0770  0.2825
  968MOL0     O30569   4.807   5.606   9.713 -0.2277  0.5164  0.2138
  968MOL0     C30570   4.676   5.606   9.737 -0.1511  0.1380  0.5308
  968MOL0     C30571   4.602   5.499   9.697  0.4372  0.5597  0.5066
  968MOL0     C30572   4.463   5.492   9.711  0.9975 -0.5361  0.5353
  968MOL0     C30573   4.400   5.375   9.650 -0.6115 -0.6108  0.2296
  968MOL0     C30574   4.391   5.602   9.772 -0.6304 -0.0985 -0.3954
  968MOL0     C30575   4.246   5.603   9.788 -0.3992  0.2526 -0.5991
  968MOL0     O30576   4.188   5.717   9.792 -0.4574 -0.9185 -0.1166
  968MOL0     C30577   4.052   5.725   9.802 -0.5874  0.7846 -0.5844
  968MOL0     C30578   3.952   5.644   9.730 -0.0622 -0.2565 -0.0756
  968MOL0     C30579   3.817   5.666   9.751 -0.6014  0.5230 -0.3427
  968MOL0     C30580   3.768   5.761   9.834  0.7644 -0.1493 -0.1027
  968MOL0     O30581   3.640   5.806   9.858  0.2987  0.3626  0.2949
  968MOL0     C30582   3.533   5.711   9.835 -0.2238 -0.4903  0.9490
  968MOL0     C30583   3.397   5.780   9.864  0.1343 -0.0741  0.1988
  968MOL0     C30584   3.283   5.694   9.806  0.0017  0.3090  0.2402
  968MOL0     C30585   3.150   5.752   9.851  0.8133  1.3750 -1.0823
  968MOL0     C30586   3.033   5.655   9.795  1.1378  0.9314  0.1239
  968MOL0     C30587   2.895   5.705   9.824 -0.4018 -0.3209 -0.6241
  968MOL0     C30588   2.877   5.746   9.968  0.1841  0.6259  0.7068
  968MOL0     C30589   2.724   5.743  10.006 -0.2600 -0.4130  0.3294
  968MOL0    Cl30590   2.660   5.576   9.988  0.0974  0.3051  0.2639
  968MOL0     C30591   3.862   5.843   9.888  0.3070  0.3214 -0.6142
  968MOL0     C30592   3.996   5.823   9.880  0.4505  0.0878 -1.1999
  968MOL0     O30593   4.189   5.499   9.825  0.0031  0.6134 -0.7567
  968MOL0     C30594   4.465   5.708   9.820  0.6729 -0.6452 -0.6606
  968MOL0     C30595   4.606   5.711   9.801  0.3935 -0.3707  0.1924
  968MOL0     N30596   5.194   5.999   9.367  0.2188  0.8886  0.0913
  968MOL0     N30597   5.254   5.982   9.257  0.1293 -0.7951 -0.9930
  968MOL0     C30598   6.241   5.949   8.517  0.1257  0.6983 -0.1525
  968MOL0     C30599   6.383   5.964   8.483  1.0084 -0.8538  0.2875
  968MOL0     C30600   6.819   5.972   8.493  0.1917  0.3464  0.5496
  968MOL0     C30601   6.908   5.875   8.431 -0.0295  0.4565 -0.2000
  968MOL0     C30602   7.045   5.901   8.429  0.5439  0.7180 -0.5554
  968MOL0     C30603   7.105   6.008   8.486  0.7088 -0.2714  0.3984
  968MOL0     O30604   7.239   6.020   8.483 -0.8825  0.6226 -0.7807
  968MOL0     C30605   7.305   6.088   8.588 -0.7554 -0.1381  0.5152
  968MOL0     C30606   7.454   6.064   8.582  0.0856 -0.8633  0.0120
  968MOL0     C30607   7.480   5.909   8.596 -1.1010 -0.2723  0.2567
  968MOL0     C30608   7.627   5.869   8.605  0.6815  0.0393  0.3535
  968MOL0     C30609   7.695   5.924   8.721 -0.8620  0.1392 -0.7329
  968MOL0     C30610   7.766   5.974   8.802 -0.8192  0.4438  0.0045
  968MOL0     C30611   7.018   6.107   8.547 -0.4443 -0.0125  0.4811
  968MOL0     C30612   6.881   6.090   8.547 -0.3192  0.1499 -0.5933
  968MOL0     H30613   6.498   6.058   8.794 -0.6661  0.3436  0.5049
  968MOL0     H30614   6.272   6.024   8.854  1.4460 -1.5661  0.6862
  968MOL0     H30615   6.053   6.156   8.757 -1.8538  0.1933  0.6506
  968MOL0     H30616   5.945   6.112   8.622  1.4034 -0.4472 -1.2670
  968MOL0     H30617   5.926   6.018   8.904 -0.1638 -1.2855 -0.1560
  968MOL0     H30618   5.830   6.158   8.832  0.5307 -0.1267 -0.3610
  968MOL0     H30619   5.745   5.991   8.668  2.7115  0.6390  0.6364
  968MOL0     H30620   5.820   5.864   8.779  0.7324 -0.5260 -1.2955
  968MOL0     H30621   5.691   5.905   8.972 -0.0752  5.1338  3.0232
  968MOL0     H30622   5.611   6.039   8.895 -0.0518 -0.7724  1.7809
  968MOL0     H30623   5.490   5.928   8.754  0.3347  0.6047  0.6627
  968MOL0     H30624   5.596   5.775   8.747 -1.1197 -1.1731  1.6056
  968MOL0     H30625   5.381   5.746   8.839 -0.5711  5.2751 -1.9645
  968MOL0     H30626   5.529   5.697   8.935  1.1346  2.0617  1.3737
  968MOL0     H30627   5.489   5.886   9.100  1.0375  1.0117  0.0076
  968MOL0     H30628   5.367   5.958   8.981 -0.0571  0.0631  1.2432
  968MOL0     H30629   5.363   5.702   9.142 -0.2988  1.1185  0.3345
  968MOL0     H30630   5.232   5.746   9.036  1.0011 -1.6394 -1.3256
  968MOL0     H30631   5.142   5.680   9.305  0.8403 -0.2708 -2.4651
  968MOL0     H30632   5.070   5.941   9.597  1.3109  0.0887  1.0149
  968MOL0     H30633   4.944   5.878   9.503 -0.3564 -0.5255  0.2517
  968MOL0     H30634   5.164   5.672   9.566 -0.2368 -0.8432 -2.3797
  968MOL0     H30635   4.996   5.652   9.532 -1.0385  2.0422 -0.1436
  968MOL0     H30636   5.076   5.777   9.795  0.1947 -0.1895 -0.1447
  968MOL0     H30637   5.043   5.595   9.769  0.6463 -0.0925 -0.3219
  968MOL0     H30638   4.847   5.808   9.719 -1.4831 -0.0855  0.6395
  968MOL0     H30639   4.861   5.717   9.877 -1.4201 -0.9799  0.1333
  968MOL0     H30640   4.665   5.424   9.650  1.7103  1.8423  0.0931
  968MOL0     H30641   4.372   5.298   9.723 -0.4873 -0.8170  0.0582
  968MOL0     H30642   4.319   5.419   9.591  0.4547 -0.8149 -1.4466
  968MOL0     H30643   4.465   5.333   9.572 -2.8883 -1.0430 -1.5408
  968MOL0     H30644   3.981   5.572   9.654 -1.3287  0.9992 -1.8404
  968MOL0     H30645   3.752   5.602   9.692  0.4077 -1.1995  0.3407
  968MOL0     H30646   3.524   5.661   9.738 -2.3130 -1.3127  1.5079
  968MOL0     H30647   3.554   5.621   9.893  1.2863 -0.7912  0.0069
  968MOL0     H30648   3.390   5.791   9.972 -0.6871  0.6984  0.0805
  968MOL0     H30649   3.401   5.876   9.811  0.7466  0.7991  1.7751
  968MOL0     H30650   3.304   5.588   9.828  2.9615  1.1941  2.4085
  968MOL0     H30651   3.291   5.694   9.697  0.2153 -1.5572  0.2187
  968MOL0     H30652   3.144   5.748   9.960 -0.9544  1.2697 -1.1658
  968MOL0     H30653   3.118   5.852   9.821 -2.4311  1.8197  3.0198
  968MOL0     H30654   3.038   5.556   9.842  1.4608  1.0348  0.3132
  968MOL0     H30655   3.034   5.650   9.685 -0.6222  0.6515  0.0864
  968MOL0     H30656   2.875   5.796   9.767 -2.0643  0.3645  0.9613
  968MOL0     H30657   2.815   5.637   9.795 -1.4632  0.9213 -0.6871
  968MOL0     H30658   2.919   5.846   9.977  2.4920 -0.0082 -1.7936
  968MOL0     H30659   2.930   5.677  10.036  1.7924  0.7821 -0.3381
  968MOL0     H30660   2.668   5.809   9.939 -0.3575  0.0082  0.8166
  968MOL0     H30661   2.707   5.771  10.110  0.4333 -3.8415  1.4633
  968MOL0     H30662   3.834   5.927   9.951  1.9725  1.2698 -1.0932
  968MOL0     H30663   4.060   5.895   9.930 -0.7785  2.8315 -3.3411
  968MOL0     H30664   4.419   5.798   9.860 -0.1825  0.1922 -3.2850
  968MOL0     H30665   4.654   5.804   9.829 -2.7496  0.3420  4.0514
  968MOL0     H30666   6.159   5.936   8.448  1.3001 -0.0073 -1.4820
  968MOL0     H30667   6.417   5.948   8.381 -1.2329 -2.0257 -0.3297
  968MOL0     H30668   6.867   5.785   8.387 -2.1016  0.8269  0.8356
  968MOL0     H30669   7.104   5.830   8.373 -0.1858  2.2081 -3.4238
  968MOL0     H30670   7.278   6.194   8.581 -1.2300 -0.2988 -0.2766
  968MOL0     H30671   7.259   6.062   8.684 -2.2374  1.7190  0.3745
  968MOL0     H30672   7.497   6.120   8.666 -0.5017 -0.2296 -0.0999
  968MOL0     H30673   7.490   6.096   8.484 -4.6229  0.6821 -1.4934
  968MOL0     H30674   7.438   5.865   8.505 -3.7371  0.4305  1.0269
  968MOL0     H30675   7.422   5.870   8.680 -0.8045  2.1729  1.6877
  968MOL0     H30676   7.671   5.908   8.513 -2.9306  0.5738 -1.3188
  968MOL0     H30677   7.628   5.760   8.615 -0.9199 -0.1273 -0.9221
  968MOL0     H30678   7.834   6.015   8.874  0.3209 -4.0792  1.8070
  968MOL0     H30679   7.066   6.189   8.598  2.0230 -0.8151 -0.4064
  968MOL0     H30680   6.814   6.161   8.595 -0.3586 -1.1369  1.3741
  969MOL0     O30681   4.491   6.085   8.955  0.6021  0.3822 -0.5401
  969MOL0     C30682   4.462   5.959   8.964 -0.6686  0.3930 -0.6117
  969MOL0     O30683   4.357   5.902   9.033 -0.5493  0.0358  0.4206
  969MOL0     C30684   4.273   5.984   9.100 -0.2145 -0.3792 -0.6374
  969MOL0     C30685   4.147   6.012   9.045 -1.0980  0.7730 -0.0803
  969MOL0     C30686   4.068   6.102   9.110  0.0289  0.3296 -0.1495
  969MOL0     C30687   4.105   6.160   9.228 -0.5123  0.1438  0.3914
  969MOL0     O30688   4.010   6.236   9.283  0.2047  0.1994  0.3587
  969MOL0     C30689   4.049   6.346   9.369 -0.0981 -0.2955  0.0771
  969MOL0     C30690   3.942   6.442   9.408 -0.1198  0.0236 -0.4202
  969MOL0     C30691   3.806   6.382   9.457  0.0746 -0.5091  0.3768
  969MOL0     C30692   3.719   6.498   9.506  0.2590  0.0017 -0.4794
  969MOL0     C30693   3.601   6.433   9.571  0.1970 -0.1863 -0.2516
  969MOL0     C30694   3.497   6.538   9.623  0.3623 -0.3795 -0.1516
  969MOL0     C30695   3.383   6.487   9.709 -0.6835  0.1809 -0.0782
  969MOL0     C30696   3.282   6.590   9.763  0.1415 -0.0870 -0.5694
  969MOL0     N30697   3.162   6.617   9.665 -0.0342 -0.0549 -0.8268
  969MOL0     C30698   3.175   6.638   9.532 -0.9862  0.7592  0.0363
  969MOL0     C30699   3.055   6.624   9.488  0.0645  0.0644 -0.0002
  969MOL0     C30700   2.999   6.636   9.354  0.7776  0.3814  0.3185
  969MOL0     C30701   3.080   6.553   9.247 -0.1613 -0.5646 -0.3550
  969MOL0     C30702   3.087   6.401   9.288 -0.2735 -0.1222  0.3122
  969MOL0     C30703   2.942   6.346   9.289  0.5364 -0.0984 -0.4218
  969MOL0     O30704   2.865   6.373   9.171  0.1991 -0.0731 -0.3200
  969MOL0     C30705   2.729   6.367   9.185  0.0898  0.7701  0.0953
  969MOL0     C30706   2.644   6.437   9.101 -0.0260 -0.1609  0.0713
  969MOL0     C30707   2.509   6.456   9.129  0.2228  1.1144 -0.3195
  969MOL0     C30708   2.432   6.557   9.040  0.2694 -0.6007 -0.3462
  969MOL0     C30709   2.447   6.388   9.239  0.5624 -0.6697  0.0959
  969MOL0     C30710   2.304   6.394   9.271  0.2558  0.1024  0.8993
  969MOL0     O30711   2.276   6.308   9.375  0.7178 -1.0248 -0.8675
  969MOL0     C30712   2.146   6.297   9.420  0.2357 -0.7642  1.0863
  969MOL0     C30713   2.063   6.198   9.375  0.1349  0.3967 -0.1076
  969MOL0     C30714   1.940   6.175   9.441  0.0387  0.5250  0.9293
  969MOL0     C30715   1.909   6.242   9.560 -0.8367  0.1591  0.3108
  969MOL0     O30716   1.786   6.235   9.620 -0.1504  0.2826  0.7200
  969MOL0     C30717   1.683   6.240   9.524  0.0592  1.1161  0.4042
  969MOL0     C30718   1.581   6.341   9.574 -0.1925  0.1822 -0.0289
  969MOL0     C30719   1.491   6.307   9.690  0.0065  0.2877  0.8731
  969MOL0     C30720   1.573   6.301   9.812 -0.1510 -0.2920 -0.1287
  969MOL0     C30721   1.483   6.319   9.934 -0.3813 -0.6607  0.1010
  969MOL0     C30722   1.401   6.189   9.963  0.6104 -0.2332  0.1510
  969MOL0     C30723   1.251   6.194   9.985  0.6871 -0.5242 -0.5076
  969MOL0     C30724   1.192   6.073  10.055  0.2646  0.3018  0.1142
  969MOL0    Cl30725   1.172   5.949   9.932 -0.0827  0.3901  0.0852
  969MOL0     C30726   1.984   6.348   9.593 -0.0909  0.2044 -0.5177
  969MOL0     C30727   2.100   6.381   9.526  0.0842 -0.1104  1.4227
  969MOL0     O30728   2.224   6.460   9.205  0.4582  0.0983  0.0285
  969MOL0     C30729   2.533   6.302   9.318  0.2235 -0.3096  0.2204
  969MOL0     C30730   2.673   6.290   9.288 -0.1555  0.2775 -0.4377
  969MOL0     N30731   2.966   6.590   9.590 -0.4643  0.4871 -0.3332
  969MOL0     N30732   3.036   6.583   9.698 -0.5717 -0.0873 -0.6626
  969MOL0     C30733   4.229   6.131   9.282 -0.4189 -0.5600 -0.2635
  969MOL0     C30734   4.311   6.039   9.218  0.2145  0.5760  0.4634
  969MOL0     C30735   4.547   5.861   8.889 -0.2967  0.5556 -0.4177
  969MOL0     C30736   4.598   5.895   8.757  0.2662  0.8185 -0.4697
  969MOL0     C30737   4.660   5.801   8.675 -1.0972  1.2811  0.3261
  969MOL0     C30738   4.678   5.671   8.718  0.8336 -0.7191 -0.4687
  969MOL0     O30739   4.736   5.586   8.623 -0.2863  0.0092 -1.4159
  969MOL0     C30740   4.817   5.480   8.668  0.3430  0.3691  0.2791
  969MOL0     C30741   4.899   5.440   8.549  0.2867 -0.2311 -0.6541
  969MOL0     C30742   4.997   5.548   8.489  0.4606  0.9056 -0.3960
  969MOL0     C30743   5.067   5.629   8.602 -0.0734 -0.0232  0.4769
  969MOL0     C30744   5.160   5.552   8.686 -0.2861 -0.0086 -0.5088
  969MOL0     C30745   5.225   5.481   8.762  0.1121  0.0731 -0.5977
  969MOL0     C30746   4.620   5.631   8.841  0.1540  0.4063  0.3740
  969MOL0     C30747   4.555   5.725   8.922 -1.0189  0.8320  0.1845
  969MOL0     H30748   4.118   5.966   8.951 -0.1529 -1.5287  0.6938
  969MOL0     H30749   3.972   6.132   9.071 -0.1549  1.2004  0.9278
  969MOL0     H30750   4.082   6.312   9.468 -1.3255 -0.1614  0.5448
  969MOL0     H30751   4.122   6.407   9.315 -1.2271  0.0192 -1.1404
  969MOL0     H30752   3.981   6.510   9.485 -3.3965 -0.1041  1.5474
  969MOL0     H30753   3.914   6.497   9.318  0.6961  0.8512 -0.1869
  969MOL0     H30754   3.750   6.340   9.373 -0.2471  0.1257  0.2670
  969MOL0     H30755   3.817   6.306   9.535 -0.0116 -0.0465  0.8495
  969MOL0     H30756   3.769   6.561   9.581 -0.1709 -0.6796  0.3952
  969MOL0     H30757   3.702   6.564   9.420  0.0216 -0.1807 -0.5707
  969MOL0     H30758   3.558   6.354   9.509 -0.4105 -1.5895  1.8339
  969MOL0     H30759   3.639   6.373   9.654 -0.2708 -2.8358 -1.8404
  969MOL0     H30760   3.551   6.613   9.681 -3.2310  1.6912  0.7767
  969MOL0     H30761   3.454   6.578   9.531  0.0345 -0.6869 -0.1327
  969MOL0     H30762   3.333   6.412   9.647 -0.6201  0.9047 -1.0300
  969MOL0     H30763   3.424   6.429   9.792 -2.0194 -1.2545 -0.3963
  969MOL0     H30764   3.316   6.692   9.780 -0.8920  0.6580 -2.6218
  969MOL0     H30765   3.236   6.555   9.856 -1.1947 -0.0877 -1.2032
  969MOL0     H30766   3.266   6.666   9.480  0.3219  0.8020  2.2183
  969MOL0     H30767   2.893   6.609   9.343  1.6748 -3.2791 -0.5317
  969MOL0     H30768   3.004   6.739   9.315  0.8467  0.7290  1.2217
  969MOL0     H30769   3.183   6.588   9.233  0.1603 -0.3143  2.1308
  969MOL0     H30770   3.027   6.552   9.152 -1.5215 -1.1211  0.3733
  969MOL0     H30771   3.123   6.387   9.390  0.4093 -2.4603 -0.1721
  969MOL0     H30772   3.153   6.346   9.219  1.2387  2.3211 -0.3223
  969MOL0     H30773   2.890   6.393   9.372 -2.2085  0.9538 -2.5812
  969MOL0     H30774   2.946   6.237   9.303  0.2409 -0.1178 -0.4925
  969MOL0     H30775   2.697   6.495   9.026 -3.0045 -0.1212 -2.1552
  969MOL0     H30776   2.343   6.507   9.003 -1.1237 -0.4050  2.4462
  969MOL0     H30777   2.403   6.637   9.110 -2.0102 -2.2368  0.6881
  969MOL0     H30778   2.497   6.588   8.957  2.1589  1.3437  1.6873
  969MOL0     H30779   2.102   6.141   9.291  2.0038  0.4354  0.6754
  969MOL0     H30780   1.876   6.092   9.414  3.4241 -1.8119 -0.6221
  969MOL0     H30781   1.710   6.257   9.419  0.1312 -2.6336 -0.2937
  969MOL0     H30782   1.633   6.143   9.518 -1.1337  1.7170  0.2524
  969MOL0     H30783   1.638   6.432   9.592  0.7848 -0.2890 -0.6676
  969MOL0     H30784   1.513   6.356   9.489  0.8609 -0.5951 -1.0375
  969MOL0     H30785   1.448   6.209   9.670 -2.0957  1.6825 -2.1720
  969MOL0     H30786   1.418   6.388   9.685  1.0858  1.3875  1.9902
  969MOL0     H30787   1.623   6.205   9.821  0.5031  0.1582  1.5041
  969MOL0     H30788   1.648   6.381   9.820  1.2677 -1.6600  0.8573
  969MOL0     H30789   1.398   6.389   9.927 -0.8753 -1.2530  0.0743
  969MOL0     H30790   1.546   6.360  10.013 -1.0188  1.9276 -0.6211
  969MOL0     H30791   1.416   6.116   9.883 -0.0857 -0.3085  0.0811
  969MOL0     H30792   1.442   6.146  10.055  0.7006 -0.6695 -0.0877
  969MOL0     H30793   1.199   6.225   9.894  2.4181 -1.0974 -1.7510
  969MOL0     H30794   1.242   6.278  10.054 -1.4463  0.3577 -1.7559
  969MOL0     H30795   1.100   6.101  10.108  1.5066  1.7205  1.6499
  969MOL0     H30796   1.261   6.039  10.132 -0.8636 -0.8330  0.6683
  969MOL0     H30797   1.944   6.416   9.668 -1.0648 -0.4974 -0.3677
  969MOL0     H30798   2.165   6.463   9.554  1.1689 -1.8012  4.2969
  969MOL0     H30799   2.500   6.245   9.403  0.7613 -1.6189 -0.4251
  969MOL0     H30800   2.720   6.208   9.343 -2.1477 -1.2400 -0.8757
  969MOL0     H30801   4.247   6.186   9.374 -1.8330 -0.5824  0.0558
  969MOL0     H30802   4.414   6.026   9.252  0.4470  3.1139  0.9441
  969MOL0     H30803   4.577   5.997   8.724 -3.4720  0.5754  0.7338
  969MOL0     H30804   4.695   5.813   8.573 -0.3969 -1.2146  0.1926
  969MOL0     H30805   4.880   5.514   8.751 -0.0987 -0.6820  1.0676
  969MOL0     H30806   4.754   5.394   8.693  0.9202 -0.1331  0.0418
  969MOL0     H30807   4.832   5.401   8.472 -1.5646  0.6189  0.4595
  969MOL0     H30808   4.962   5.356   8.581 -2.5556 -2.3287 -0.1481
  969MOL0     H30809   4.933   5.618   8.435  1.1986  1.2152 -0.8838
  969MOL0     H30810   5.067   5.500   8.420  0.2184  1.1711 -0.8264
  969MOL0     H30811   4.994   5.667   8.674 -1.4381  1.4689 -1.5887
  969MOL0     H30812   5.137   5.701   8.558  0.9232 -1.6087 -0.6661
  969MOL0     H30813   5.283   5.416   8.825 -0.2558  0.8293  0.5545
  969MOL0     H30814   4.628   5.530   8.878  0.7447 -0.4608 -1.9944
  969MOL0     H30815   4.521   5.687   9.018  2.6817 -1.0974  0.9246
  970MOL0     O30816  10.144   5.258   5.653  0.0867  0.3564 -0.3701
  970MOL0     C30817  10.260   5.243   5.674  0.6016  0.0703 -0.0718
  970MOL0     O30818  10.311   5.121   5.702  0.5059  0.4549 -0.2736
  970MOL0     C30819  10.230   5.004   5.722 -0.2996  0.6984  0.2306
  970MOL0     C30820  10.167   4.962   5.844  0.0435  0.0906 -0.3523
  970MOL0     C30821  10.093   4.843   5.840 -0.1635 -0.4883  0.1515
  970MOL0     C30822  10.076   4.764   5.726 -0.1801 -0.1273 -0.3811
  970MOL0     O30823   9.997   4.652   5.745 -0.0357 -0.5226 -0.4479
  970MOL0     C30824   9.973   4.584   5.624  0.4275 -0.2714 -0.1624
  970MOL0     C30825   9.847   4.506   5.649 -0.2403  0.8517 -0.0684
  970MOL0     C30826   9.721   4.584   5.637  0.0200 -0.9382 -0.9750
  970MOL0     C30827   9.597   4.501   5.662 -0.2924 -0.6044 -0.1805
  970MOL0     C30828   9.475   4.594   5.691  0.2428 -0.5086 -0.4301
  970MOL0     C30829   9.438   4.689   5.584 -0.5908  1.3088  0.8562
  970MOL0     C30830   9.322   4.778   5.638 -0.8736 -0.8005 -0.5912
  970MOL0     C30831   9.272   4.875   5.538  0.1175  0.3948  0.2454
  970MOL0     N30832   9.173   4.973   5.587 -0.8016 -0.5964  0.2224
  970MOL0     C30833   9.057   4.949   5.652 -0.5449 -0.7377 -0.1214
  970MOL0     C30834   9.020   5.067   5.705 -0.5239  0.2009 -0.0439
  970MOL0     C30835   8.906   5.101   5.792  0.6902 -0.0093  0.7896
  970MOL0     C30836   8.835   5.234   5.758 -1.1046  0.3907  0.1958
  970MOL0     C30837   8.743   5.268   5.871  0.2141 -0.1325 -0.5245
  970MOL0     C30838   8.669   5.404   5.861 -0.5639  0.2373 -0.6698
  970MOL0     O30839   8.643   5.430   6.002 -0.2197 -0.4574 -0.9126
  970MOL0     C30840   8.575   5.549   6.031  0.1087  0.6261  0.1352
  970MOL0     C30841   8.567   5.586   6.163 -0.0255  0.7307  0.8251
  970MOL0     C30842   8.488   5.692   6.205  0.1986  0.6591  0.1993
  970MOL0     C30843   8.504   5.715   6.351 -0.0108 -0.1283 -0.1786
  970MOL0     C30844   8.403   5.763   6.116  0.2185  0.7626 -0.8086
  970MOL0     C30845   8.301   5.880   6.166 -0.1295  0.5979 -0.1022
  970MOL0     O30846   8.237   5.945   6.066  0.8374 -0.7447  0.3108
  970MOL0     C30847   8.122   6.019   6.100 -0.1086  0.4161  0.1348
  970MOL0     C30848   8.134   6.150   6.093 -0.0149  0.2516 -0.5239
  970MOL0     C30849   8.031   6.241   6.136 -0.7726 -0.9699  0.6497
  970MOL0     C30850   7.914   6.187   6.192 -0.4411  0.2880 -0.4071
  970MOL0     O30851   7.817   6.253   6.253  0.1300  0.3803 -0.2301
  970MOL0     C30852   7.845   6.394   6.280  0.7583  0.4371  0.1793
  970MOL0     C30853   7.724   6.456   6.337  0.4296 -0.1538  1.0066
  970MOL0     C30854   7.625   6.471   6.221 -0.6606  0.6154  0.2299
  970MOL0     C30855   7.483   6.462   6.273  0.4469 -0.3905 -0.3081
  970MOL0     C30856   7.384   6.494   6.162  0.1082  0.7000 -0.2937
  970MOL0     C30857   7.240   6.506   6.220  0.2537 -0.5048 -0.2238
  970MOL0     C30858   7.142   6.571   6.128  0.7218  0.0330  0.8929
  970MOL0     C30859   7.078   6.478   6.015  0.1438 -1.0290 -0.6153
  970MOL0    Cl30860   6.934   6.398   6.101  0.4767 -0.4719  0.2087
  970MOL0     C30861   7.904   6.047   6.195  0.5484 -0.6970 -0.2169
  970MOL0     C30862   8.006   5.962   6.142  0.6671 -0.4738  0.1277
  970MOL0     O30863   8.282   5.901   6.289 -0.3374  0.2285 -0.6915
  970MOL0     C30864   8.410   5.724   5.978 -0.0445 -0.5551 -0.3933
  970MOL0     C30865   8.494   5.619   5.937  0.1439  0.3955 -0.3772
  970MOL0     N30866   9.119   5.159   5.669  0.1543 -0.4557  0.1399
  970MOL0     N30867   9.208   5.101   5.597 -0.1036 -0.5121  0.4622
  970MOL0     C30868  10.143   4.812   5.616  0.7668  0.4391  0.4219
  970MOL0     C30869  10.221   4.925   5.608 -0.1002 -0.3272  1.2089
  970MOL0     C30870  10.341   5.364   5.649 -0.5884 -0.1563  0.0646
  970MOL0     C30871  10.477   5.362   5.674  0.5247 -0.2981 -0.5176
  970MOL0     C30872  10.553   5.480   5.663 -0.1261 -0.4393 -0.4602
  970MOL0     C30873  10.498   5.592   5.606  0.5107 -0.1976  0.3841
  970MOL0     O30874  10.581   5.701   5.589  0.2519  0.1175 -0.4900
  970MOL0     C30875  10.519   5.832   5.555 -0.1328 -0.4497  0.2251
  970MOL0     C30876  10.466   5.906   5.678 -0.3436 -0.3688 -0.9513
  970MOL0     C30877  10.452   6.058   5.670 -0.5139  0.6778 -0.4978
  970MOL0     C30878  10.347   6.109   5.568 -0.2566  0.4114 -0.5943
  970MOL0     C30879  10.217   6.071   5.632  0.2795 -0.1797  0.1817
  970MOL0     C30880  10.112   6.048   5.686  0.8236  0.1463 -0.2477
  970MOL0     C30881  10.365   5.591   5.561  0.3750 -0.5086  0.4399
  970MOL0     C30882  10.287   5.482   5.590  0.8721 -0.1228  0.9870
  970MOL0     H30883  10.185   5.017   5.936 -1.0673  2.2788 -1.3448
  970MOL0     H30884  10.043   4.813   5.932 -0.8405 -1.4793 -0.5243
  970MOL0     H30885   9.952   4.642   5.533  1.6877 -2.0668 -1.6795
  970MOL0     H30886  10.058   4.516   5.609 -0.3564 -1.0555 -1.2051
  970MOL0     H30887   9.840   4.417   5.585 -2.1082 -1.4666  3.0517
  970MOL0     H30888   9.860   4.460   5.747 -1.3953 -2.7624 -1.4492
  970MOL0     H30889   9.728   4.649   5.724 -1.2216  0.0268 -1.5724
  970MOL0     H30890   9.711   4.631   5.539 -1.8013  2.1249  0.5177
  970MOL0     H30891   9.575   4.440   5.573 -3.3302  0.9678 -0.6390
  970MOL0     H30892   9.609   4.437   5.750  1.6735 -1.2228 -0.8464
  970MOL0     H30893   9.382   4.539   5.709 -1.0494  1.3548 -1.1798
  970MOL0     H30894   9.504   4.652   5.779  0.1542 -3.5283  1.7467
  970MOL0     H30895   9.522   4.751   5.554  1.1360 -1.4381 -0.4605
  970MOL0     H30896   9.406   4.624   5.501 -0.5609  0.6110  1.3822
  970MOL0     H30897   9.236   4.721   5.673 -0.3490 -1.3666 -0.2178
  970MOL0     H30898   9.359   4.825   5.730  1.2724  0.9039 -2.2068
  970MOL0     H30899   9.236   4.814   5.454 -0.0200  0.2707  0.3926
  970MOL0     H30900   9.358   4.931   5.500  0.2615  0.1845  0.2620
  970MOL0     H30901   9.003   4.856   5.669  0.2698 -1.5498 -1.6934
  970MOL0     H30902   8.831   5.024   5.776  0.5955  0.2910 -0.3170
  970MOL0     H30903   8.944   5.092   5.895  2.6472  1.9382  0.3312
  970MOL0     H30904   8.793   5.226   5.657 -2.0117  0.0675  0.5907
  970MOL0     H30905   8.903   5.320   5.761 -0.7798  0.1925 -0.8582
  970MOL0     H30906   8.791   5.266   5.970 -1.7393 -0.1151  0.4909
  970MOL0     H30907   8.668   5.189   5.882  1.5537 -1.3290  0.4653
  970MOL0     H30908   8.575   5.385   5.809 -0.0243 -1.7626 -1.0004
  970MOL0     H30909   8.732   5.478   5.810 -1.4964  0.4186 -1.6031
  970MOL0     H30910   8.618   5.533   6.244 -0.5864  1.7480  1.8756
  970MOL0     H30911   8.515   5.823   6.365 -0.0297  0.1707 -2.1398
  970MOL0     H30912   8.408   5.684   6.393 -0.2292  1.0187  0.2146
  970MOL0     H30913   8.591   5.663   6.393  0.7146 -0.4846 -2.0184
  970MOL0     H30914   8.223   6.195   6.050  0.4956 -0.2522 -0.0090
  970MOL0     H30915   8.049   6.347   6.122 -2.1074 -0.3469  3.0383
  970MOL0     H30916   7.926   6.415   6.351 -0.9576  0.1169  2.3424
  970MOL0     H30917   7.863   6.445   6.185  0.0618 -0.2689 -0.3401
  970MOL0     H30918   7.692   6.390   6.419  1.6446 -1.8423  0.1821
  970MOL0     H30919   7.756   6.555   6.370  1.4012  0.0496 -0.4924
  970MOL0     H30920   7.639   6.385   6.155  1.3542  0.8475  0.2771
  970MOL0     H30921   7.635   6.562   6.162  1.1417 -0.1341 -0.7273
  970MOL0     H30922   7.454   6.367   6.318 -0.3385  0.1299  0.3099
  970MOL0     H30923   7.478   6.536   6.354 -0.0065 -0.2374 -0.4748
  970MOL0     H30924   7.401   6.421   6.083  1.2359  0.4429  0.1696
  970MOL0     H30925   7.413   6.593   6.126  1.5140  0.8107  1.0551
  970MOL0     H30926   7.196   6.409   6.245  1.2356 -0.8470  0.2522
  970MOL0     H30927   7.242   6.568   6.311 -2.2819  0.3813 -0.7076
  970MOL0     H30928   7.198   6.646   6.072 -0.9930  0.1254 -0.7988
  970MOL0     H30929   7.063   6.621   6.184 -0.8379 -1.5117  0.1429
  970MOL0     H30930   7.142   6.397   5.980  0.0914 -0.3637 -2.3477
  970MOL0     H30931   7.035   6.536   5.933  0.3968 -2.1206 -1.5443
  970MOL0     H30932   7.813   5.994   6.220  0.2392 -0.0230  0.1122
  970MOL0     H30933   7.998   5.854   6.150  0.0075 -0.5349 -1.0968
  970MOL0     H30934   8.347   5.779   5.909  1.3646  0.7489 -0.7130
  970MOL0     H30935   8.493   5.592   5.832 -0.9942 -1.3102  0.0232
  970MOL0     H30936  10.115   4.757   5.527  0.1019 -1.4479  1.7253
  970MOL0     H30937  10.264   4.958   5.514 -2.1037 -1.0788 -0.0357
  970MOL0     H30938  10.518   5.268   5.709 -0.2937 -0.6939 -0.5868
  970MOL0     H30939  10.660   5.472   5.678 -0.1595  0.5329  0.4371
  970MOL0     H30940  10.599   5.894   5.513 -0.2874  2.0242  3.1858
  970MOL0     H30941  10.441   5.832   5.477 -0.4281 -1.0572  0.5106
  970MOL0     H30942  10.540   5.886   5.756 -2.4885 -0.3916  1.1740
  970MOL0     H30943  10.375   5.861   5.717  1.4208 -1.3214  2.4765
  970MOL0     H30944  10.549   6.094   5.636  0.1332  1.9982  2.4597
  970MOL0     H30945  10.440   6.098   5.771  1.2446  0.4561 -0.1747
  970MOL0     H30946  10.359   6.051   5.476  1.7380  2.1197 -1.4892
  970MOL0     H30947  10.345   6.216   5.548  0.0666  0.1442 -2.1569
  970MOL0     H30948  10.031   6.033   5.755  1.5699  3.1705  1.4964
  970MOL0     H30949  10.323   5.657   5.485  0.3510 -1.1466 -0.1086
  970MOL0     H30950  10.189   5.478   5.545  0.9150 -0.3431  0.9111
  971MOL0     O30951   3.959   3.686  10.213 -0.6137  1.2347  0.2643
  971MOL0     C30952   3.977   3.570  10.254 -0.7496  0.0876  0.0874
  971MOL0     O30953   3.897   3.465  10.238 -0.0691  0.0830  0.1902
  971MOL0     C30954   3.768   3.495  10.196  0.0431 -0.9745  0.0210
  971MOL0     C30955   3.715   3.426  10.094  0.7150 -0.1829  0.2790
  971MOL0     C30956   3.590   3.442  10.033  0.2073 -0.4187  0.0513
  971MOL0     C30957   3.509   3.546  10.078  0.6848  0.2945 -0.4021
  971MOL0     O30958   3.383   3.579  10.027 -0.1890  0.2281 -0.0430
  971MOL0     C30959   3.350   3.535   9.896  1.0603 -0.8597 -0.5193
  971MOL0     C30960   3.194   3.530   9.880  0.1344 -0.0861 -0.6585
  971MOL0     C30961   3.143   3.461   9.751  0.0618  0.5225  0.1780
  971MOL0     C30962   3.149   3.560   9.638 -0.3147  0.1821 -0.2977
  971MOL0     C30963   3.088   3.507   9.511  0.7746 -0.0380  0.7277
  971MOL0     C30964   2.934   3.485   9.519 -0.7197 -0.0916  0.2037
  971MOL0     C30965   2.877   3.438   9.380 -0.3958 -0.0946  0.2268
  971MOL0     C30966   2.724   3.468   9.374 -0.2375 -0.8744  0.3064
  971MOL0     N30967   2.633   3.419   9.480 -0.7332  0.4845  0.5521
  971MOL0     C30968   2.638   3.448   9.609 -0.2300 -0.2530 -0.2742
  971MOL0     C30969   2.545   3.373   9.681  0.1256 -0.5909 -0.4130
  971MOL0     C30970   2.499   3.399   9.816 -0.1530 -0.9502  0.5504
  971MOL0     C30971   2.598   3.377   9.928 -0.3008 -0.1439 -0.1834
  971MOL0     C30972   2.695   3.497   9.952 -0.2985 -0.1098 -0.1620
  971MOL0     C30973   2.782   3.454  10.069  0.0557 -0.2402 -0.1066
  971MOL0     O30974   2.849   3.566  10.129  0.5380  0.2997  0.5231
  971MOL0     C30975   2.948   3.530  10.215  0.3035 -0.0947  0.4159
  971MOL0     C30976   2.943   3.420  10.301 -0.0600  0.0447  0.0653
  971MOL0     C30977   3.054   3.388  10.380 -0.1185 -0.8348 -0.5539
  971MOL0     C30978   3.041   3.276  10.478 -0.4113  0.8179 -0.5803
  971MOL0     C30979   3.175   3.474  10.372 -0.3711 -0.8915 -0.9455
  971MOL0     C30980   3.295   3.462  10.462  1.4801 -0.4470  0.3987
  971MOL0     O30981   3.335   3.335  10.505  0.0768 -0.4211  0.7314
  971MOL0     C30982   3.453   3.336  10.581 -0.3965  0.2117  0.5967
  971MOL0     C30983   3.578   3.364  10.533  0.4037 -0.7451 -0.7043
  971MOL0     C30984   3.688   3.360  10.612  0.9022 -0.2170 -0.5952
  971MOL0     C30985   3.674   3.331  10.749  0.1778  1.3966  1.0087
  971MOL0     O30986   3.778   3.335  10.842 -0.0137  0.1323  0.2472
  971MOL0     C30987   3.918   3.343  10.804  0.2944  1.0459 -1.3182
  971MOL0     C30988   3.987   3.211  10.772 -0.8108  1.3579 -0.3735
  971MOL0     C30989   4.005   3.133  10.902  0.6045  0.8895 -0.4058
  971MOL0     C30990   4.090   3.010  10.876  0.0468  0.8359 -0.5468
  971MOL0     C30991   4.112   2.918  11.001  0.3102 -0.3933 -0.3367
  971MOL0     C30992   3.991   2.827  11.011  0.4986  0.0571  0.8239
  971MOL0     C30993   4.000   2.717  11.115 -0.3414  0.3513 -0.7576
  971MOL0     C30994   3.858   2.670  11.146  0.3987 -0.3352  0.1155
  971MOL0    Cl30995   3.868   2.560  11.291 -0.0718 -0.3492  0.2501
  971MOL0     C30996   3.548   3.304  10.799 -0.6274  0.6850 -0.7792
  971MOL0     C30997   3.433   3.321  10.714  0.5182  0.5533  0.5401
  971MOL0     O30998   3.337   3.567  10.509  0.1313  0.4574 -0.0328
  971MOL0     C30999   3.182   3.581  10.286  0.2929  0.4756  0.0000
  971MOL0     C31000   3.066   3.609  10.210 -0.1968  0.0485  0.6471
  971MOL0     N31001   2.479   3.301   9.580  0.2567 -0.0446  0.3695
  971MOL0     N31002   2.536   3.332   9.461  0.1260  0.7269 -0.1673
  971MOL0     C31003   3.549   3.608  10.199  0.0922 -0.0855  0.8265
  971MOL0     C31004   3.672   3.580  10.261  0.2617  0.4281  0.1294
  971MOL0     C31005   4.106   3.557  10.328  0.6470  0.0432 -0.1511
  971MOL0     C31006   4.178   3.669  10.363 -0.0076 -0.5083 -0.8328
  971MOL0     C31007   4.285   3.654  10.460 -0.0643 -0.1676  1.1724
  971MOL0     C31008   4.335   3.530  10.496  0.5322 -0.1888 -0.2443
  971MOL0     O31009   4.435   3.532  10.597  0.3561 -0.1269 -0.1240
  971MOL0     C31010   4.477   3.404  10.654  0.1987 -0.5993  0.4027
  971MOL0     C31011   4.392   3.369  10.778 -0.2332  0.1564 -0.9554
  971MOL0     C31012   4.442   3.243  10.851  0.7610  0.1492  1.0015
  971MOL0     C31013   4.563   3.269  10.936 -0.0108 -0.3167 -0.6870
  971MOL0     C31014   4.535   3.348  11.051  0.0490  0.6195 -0.5109
  971MOL0     C31015   4.502   3.415  11.143  0.4576  0.0892 -0.2926
  971MOL0     C31016   4.247   3.417  10.472 -1.5623 -0.3788 -0.0993
  971MOL0     C31017   4.142   3.434  10.383  0.0763  0.3142  0.0757
  971MOL0     H31018   3.780   3.348  10.056 -2.5273 -2.8195 -0.3932
  971MOL0     H31019   3.580   3.380   9.944  0.0112 -0.1063 -0.1461
  971MOL0     H31020   3.399   3.597   9.821  2.3940 -1.4945 -0.1969
  971MOL0     H31021   3.381   3.432   9.876 -1.3471 -1.8845  0.6196
  971MOL0     H31022   3.151   3.479   9.967  0.8724  1.5274  0.7077
  971MOL0     H31023   3.167   3.636   9.887 -0.3101 -0.2489  0.1924
  971MOL0     H31024   3.191   3.367   9.723 -2.3720 -0.6510 -0.3571
  971MOL0     H31025   3.038   3.434   9.765 -0.0927  1.1214  0.2020
  971MOL0     H31026   3.112   3.660   9.662 -0.5200 -0.1850  0.9888
  971MOL0     H31027   3.254   3.579   9.610 -0.4737 -0.7270 -1.5819
  971MOL0     H31028   3.102   3.576   9.427 -3.5504  0.7599  0.4333
  971MOL0     H31029   3.126   3.408   9.485  1.5110 -0.2706  2.5416
  971MOL0     H31030   2.909   3.414   9.597 -1.1184  1.3056  1.3948
  971MOL0     H31031   2.890   3.583   9.537  0.8543  1.2850 -2.5967
  971MOL0     H31032   2.921   3.495   9.298 -2.3786  2.8832  1.0648
  971MOL0     H31033   2.893   3.331   9.363 -2.5233 -0.9439  2.8330
  971MOL0     H31034   2.686   3.439   9.276 -2.8448  0.6792  0.7396
  971MOL0     H31035   2.711   3.576   9.381  1.1107 -0.6871  0.0483
  971MOL0     H31036   2.693   3.534   9.645 -0.1085  0.0831 -1.2180
  971MOL0     H31037   2.461   3.502   9.819 -1.0322 -1.1647 -1.6850
  971MOL0     H31038   2.407   3.347   9.846 -0.1639 -0.7938  0.7917
  971MOL0     H31039   2.658   3.288   9.907 -0.6439 -0.8208  1.5365
  971MOL0     H31040   2.544   3.365  10.023  0.9621  1.4101  0.7886
  971MOL0     H31041   2.641   3.590   9.977  1.7534  1.7043 -2.0780
  971MOL0     H31042   2.755   3.523   9.864 -2.0045  0.2811 -1.2550
  971MOL0     H31043   2.864   3.388  10.040  2.4881  1.3968  2.4064
  971MOL0     H31044   2.722   3.410  10.149 -2.3412 -0.1710 -1.7763
  971MOL0     H31045   2.858   3.354  10.314  0.4857 -0.4151  1.5705
  971MOL0     H31046   3.133   3.218  10.485  2.0863  4.3962 -1.1560
  971MOL0     H31047   3.018   3.309  10.580 -0.5583 -3.8589  1.1053
  971MOL0     H31048   2.954   3.211  10.467 -1.4068  1.8390  0.8663
  971MOL0     H31049   3.579   3.419  10.439 -0.2973  0.3535 -0.0806
  971MOL0     H31050   3.784   3.383  10.569  0.1310 -0.6939 -2.7363
  971MOL0     H31051   3.930   3.419  10.727 -1.6585  2.6064 -0.1830
  971MOL0     H31052   3.975   3.379  10.890 -0.9467 -1.8264  0.9165
  971MOL0     H31053   3.930   3.145  10.707  0.9790 -3.4232  2.3419
  971MOL0     H31054   4.086   3.234  10.731  0.0573 -1.7031 -0.2322
  971MOL0     H31055   3.914   3.110  10.959  0.1254  1.1325 -1.0589
  971MOL0     H31056   4.058   3.198  10.972 -1.0494  0.4256  1.3712
  971MOL0     H31057   4.033   2.955  10.800 -0.3721  0.8808 -0.2723
  971MOL0     H31058   4.190   3.033  10.838  1.6539  0.0133  2.7997
  971MOL0     H31059   4.123   2.987  11.085  0.7411 -0.3902 -0.3890
  971MOL0     H31060   4.203   2.856  11.000 -1.6827 -3.5413  0.2296
  971MOL0     H31061   3.901   2.889  11.024 -3.0132 -3.8962 -1.8810
  971MOL0     H31062   3.983   2.783  10.911 -0.2533  0.0609  0.8728
  971MOL0     H31063   4.041   2.758  11.207 -3.2107  0.9814  0.3283
  971MOL0     H31064   4.061   2.637  11.072 -0.8608 -1.4036  1.6015
  971MOL0     H31065   3.816   2.611  11.064 -1.8664 -1.1119  1.7576
  971MOL0     H31066   3.791   2.755  11.160 -1.9123 -2.2727  1.4543
  971MOL0     H31067   3.531   3.267  10.899 -1.6873 -0.8884 -1.4889
  971MOL0     H31068   3.333   3.296  10.748  0.8832 -0.9767  0.5629
  971MOL0     H31069   3.265   3.651  10.282  0.4023  0.4201  1.0935
  971MOL0     H31070   3.069   3.696  10.145  0.1605 -0.3218  0.1533
  971MOL0     H31071   3.490   3.687  10.245  1.0373  0.1108  1.7253
  971MOL0     H31072   3.695   3.646  10.344  0.0659 -0.2092  0.6934
  971MOL0     H31073   4.148   3.768  10.328 -0.9972  0.9381  3.4197
  971MOL0     H31074   4.332   3.744  10.496  0.9496  0.4111 -1.3767
  971MOL0     H31075   4.478   3.326  10.577  1.3404  0.1460 -0.3759
  971MOL0     H31076   4.578   3.415  10.693 -0.5850 -0.8571  2.6109
  971MOL0     H31077   4.290   3.347  10.743 -1.3270  1.6819  1.1009
  971MOL0     H31078   4.386   3.457  10.843 -0.6419 -0.1960 -0.5044
  971MOL0     H31079   4.473   3.168  10.779  1.1908 -0.7466  2.0958
  971MOL0     H31080   4.360   3.194  10.904 -0.0923  0.2895 -0.1418
  971MOL0     H31081   4.643   3.304  10.870  2.9139 -2.3331  1.5263
  971MOL0     H31082   4.601   3.172  10.971  0.8635  0.4447  0.5784
  971MOL0     H31083   4.487   3.471  11.233 -0.0570  2.4251 -1.7315
  971MOL0     H31084   4.254   3.319  10.517 -1.4225  0.4286  1.7308
  971MOL0     H31085   4.081   3.347  10.359 -2.4006  1.5010  1.6531
  972MOL0     O31086   8.256   6.325   9.383 -0.2843 -0.2657 -0.0887
  972MOL0     C31087   8.331   6.386   9.454 -0.6346  0.5961 -0.1929
  972MOL0     O31088   8.289   6.491   9.533 -0.4418 -0.2263  0.1275
  972MOL0     C31089   8.165   6.547   9.516  0.0405  0.6056  0.6815
  972MOL0     C31090   8.129   6.591   9.385 -0.1889  0.0066  0.0302
  972MOL0     C31091   8.008   6.659   9.370  0.8006  0.7131 -0.6119
  972MOL0     C31092   7.924   6.683   9.475  0.4340 -0.8693  0.2472
  972MOL0     O31093   7.811   6.762   9.450  0.0898 -0.5755  0.8266
  972MOL0     C31094   7.742   6.809   9.567 -0.7310  0.3537 -0.1395
  972MOL0     C31095   7.641   6.910   9.512 -0.1194 -0.0221  0.5657
  972MOL0     C31096   7.564   6.960   9.621 -0.3312 -0.0981  0.5763
  972MOL0     C31097   7.440   7.029   9.573  0.4333 -0.0564 -0.2398
  972MOL0     C31098   7.383   7.102   9.695  1.0456 -0.0152 -0.3715
  972MOL0     C31099   7.249   7.173   9.656  0.0352  0.7164 -0.9559
  972MOL0     C31100   7.200   7.264   9.771 -0.7386 -0.0978  0.1789
  972MOL0     C31101   7.066   7.318   9.718 -0.2360 -0.3611 -0.3206
  972MOL0     N31102   6.992   7.381   9.833 -0.2205 -0.5321 -0.4742
  972MOL0     C31103   6.862   7.419   9.825 -1.0805 -0.2616 -0.1735
  972MOL0     C31104   6.854   7.508   9.932  0.4453  0.7215 -0.4702
  972MOL0     C31105   6.729   7.582   9.966  0.1447  0.0503 -0.0379
  972MOL0     C31106   6.668   7.653   9.841 -0.6108  0.2651  0.0492
  972MOL0     C31107   6.567   7.762   9.887 -0.5579  0.6720 -0.8158
  972MOL0     C31108   6.581   7.886   9.803 -0.5200  0.7493 -0.7196
  972MOL0     O31109   6.561   7.858   9.664 -0.3052 -0.4478  0.1667
  972MOL0     C31110   6.439   7.896   9.610  0.2456 -0.0987  0.7443
  972MOL0     C31111   6.438   7.907   9.466 -0.0558 -0.1378 -0.2659
  972MOL0     C31112   6.322   7.953   9.394 -0.0867 -0.0213 -0.0368
  972MOL0     C31113   6.337   7.988   9.252 -1.3203 -0.4414 -0.5915
  972MOL0     C31114   6.200   7.955   9.464 -0.0414 -0.3745 -0.0551
  972MOL0     C31115   6.071   7.996   9.398  0.3830  0.4318 -0.6004
  972MOL0     O31116   6.069   8.022   9.268 -0.0599  0.2299  0.6014
  972MOL0     C31117   5.974   8.111   9.209  0.1717  0.3687 -0.5654
  972MOL0     C31118   5.936   8.225   9.269  0.4696 -0.3638 -0.7686
  972MOL0     C31119   5.844   8.316   9.213  0.2492  0.8098  0.8194
  972MOL0     C31120   5.777   8.281   9.091 -0.0841  0.5173  0.8675
  972MOL0     O31121   5.685   8.342   9.022  0.6652  0.1622  0.0019
  972MOL0     C31122   5.625   8.457   9.094 -0.5869  0.6781 -0.4511
  972MOL0     C31123   5.488   8.478   9.051  0.1192  0.3312 -0.1579
  972MOL0     C31124   5.414   8.576   9.145 -0.2182 -0.1016 -0.2346
  972MOL0     C31125   5.283   8.623   9.076 -0.2298  0.6209  1.0463
  972MOL0     C31126   5.242   8.762   9.141 -0.1036  0.4094  0.2730
  972MOL0     C31127   5.101   8.795   9.099 -1.4119 -0.3387 -1.0548
  972MOL0     C31128   5.048   8.931   9.149  0.0780  0.0488 -0.0030
  972MOL0     C31129   4.896   8.954   9.123  0.9224  1.0781 -0.0733
  972MOL0    Cl31130   4.796   8.844   9.232  0.0884  0.0787  0.1429
  972MOL0     C31131   5.822   8.163   9.021 -0.3536 -0.4937 -0.0438
  972MOL0     C31132   5.922   8.079   9.081  0.1728  0.2292  0.5214
  972MOL0     O31133   5.976   8.003   9.472  0.0563 -0.2382 -0.3171
  972MOL0     C31134   6.203   7.936   9.602  0.5449 -0.3166  0.2339
  972MOL0     C31135   6.317   7.909   9.681  0.6487  0.1946  0.0897
  972MOL0     N31136   6.967   7.498  10.008 -0.2122  0.0601 -0.0930
  972MOL0     N31137   7.052   7.424   9.951  0.4594  0.4324 -0.3557
  972MOL0     C31138   7.959   6.640   9.608 -0.2999  1.1259  0.0995
  972MOL0     C31139   8.082   6.566   9.619  0.2676  0.6374  0.0165
  972MOL0     C31140   8.474   6.352   9.443 -0.0976 -0.0541  0.7024
  972MOL0     C31141   8.518   6.238   9.383  0.1917  0.3561 -0.4770
  972MOL0     C31142   8.658   6.208   9.362  0.6646 -0.4079  0.2104
  972MOL0     C31143   8.745   6.302   9.409 -1.1529  0.3135 -0.3698
  972MOL0     O31144   8.881   6.286   9.420 -0.1461  0.1329 -0.0826
  972MOL0     C31145   8.948   6.341   9.312 -0.3572 -0.5078 -0.2141
  972MOL0     C31146   8.895   6.305   9.176 -0.0122  0.1930 -0.4000
  972MOL0     C31147   8.989   6.336   9.056  0.5729 -0.8071 -0.1052
  972MOL0     C31148   9.119   6.267   9.069 -0.1245 -0.9717  0.6587
  972MOL0     C31149   9.215   6.334   8.989 -0.1661  0.2047 -0.5268
  972MOL0     C31150   9.308   6.382   8.926 -0.4336 -1.1835  0.3413
  972MOL0     C31151   8.704   6.418   9.485  0.2758  0.2788 -0.8106
  972MOL0     C31152   8.570   6.435   9.497  0.4070 -0.5423  0.1515
  972MOL0     H31153   8.189   6.577   9.296 -1.0185  2.8786 -1.1148
  972MOL0     H31154   7.977   6.697   9.273 -1.3328 -1.5825 -0.9242
  972MOL0     H31155   7.699   6.726   9.624 -1.7519  1.2353  0.3818
  972MOL0     H31156   7.810   6.861   9.634 -1.0926 -1.3738  1.6675
  972MOL0     H31157   7.682   6.997   9.460  0.0980 -0.2823  0.2989
  972MOL0     H31158   7.576   6.860   9.440 -0.6030  2.1715 -0.6185
  972MOL0     H31159   7.540   6.877   9.689 -1.2901 -0.7687 -0.5435
  972MOL0     H31160   7.626   7.034   9.673 -0.4309 -1.2369  2.4176
  972MOL0     H31161   7.470   7.088   9.486 -2.1793  2.1112  0.1914
  972MOL0     H31162   7.366   6.953   9.544  0.4732  0.8322 -2.9007
  972MOL0     H31163   7.383   7.028   9.775  1.1611 -0.5735 -0.8799
  972MOL0     H31164   7.442   7.184   9.737 -0.9412  1.7557 -0.8618
  972MOL0     H31165   7.259   7.235   9.567 -0.7332  1.8528 -0.2868
  972MOL0     H31166   7.175   7.094   9.638 -0.1279  1.0300 -1.6762
  972MOL0     H31167   7.182   7.194   9.853  3.2086 -1.9930 -0.3341
  972MOL0     H31168   7.267   7.344   9.803 -1.2635 -0.9315  3.7656
  972MOL0     H31169   7.003   7.242   9.671  1.2348 -2.4657  0.9443
  972MOL0     H31170   7.085   7.386   9.635 -2.5701  0.2818 -0.4072
  972MOL0     H31171   6.787   7.407   9.748 -1.3362 -1.5592  0.2610
  972MOL0     H31172   6.650   7.516  10.001 -0.2793 -1.1104 -2.9277
  972MOL0     H31173   6.755   7.650  10.048  0.2353 -3.8678  3.4935
  972MOL0     H31174   6.618   7.581   9.776  0.5084 -0.8645  0.4095
  972MOL0     H31175   6.759   7.696   9.799  0.8731 -1.2387  1.5730
  972MOL0     H31176   6.593   7.783   9.991 -1.0121  0.2575 -0.6195
  972MOL0     H31177   6.467   7.720   9.882  0.0868 -0.9206 -0.9034
  972MOL0     H31178   6.685   7.918   9.814 -0.7348  2.1731 -2.3880
  972MOL0     H31179   6.509   7.962   9.834 -0.6486 -0.6769  3.0476
  972MOL0     H31180   6.533   7.896   9.416 -0.4133 -1.7010 -0.6887
  972MOL0     H31181   6.297   7.922   9.176 -0.7777 -0.5358 -0.7993
  972MOL0     H31182   6.298   8.089   9.237 -0.1619  0.3668  1.4074
  972MOL0     H31183   6.445   8.005   9.240 -1.5415  0.7003 -1.0907
  972MOL0     H31184   5.983   8.246   9.364  1.5555  0.4280 -1.4560
  972MOL0     H31185   5.816   8.402   9.273 -2.0306  2.7583 -2.7196
  972MOL0     H31186   5.613   8.437   9.201 -0.6199 -1.4853 -0.8142
  972MOL0     H31187   5.681   8.549   9.078 -0.2010  0.2053 -1.9537
  972MOL0     H31188   5.482   8.494   8.943  0.5213  1.5650 -0.0089
  972MOL0     H31189   5.444   8.381   9.075  0.1430  0.5749  0.9495
  972MOL0     H31190   5.484   8.660   9.144  2.5062 -2.0615 -4.4089
  972MOL0     H31191   5.397   8.535   9.245 -1.3808  0.4209 -0.2092
  972MOL0     H31192   5.300   8.640   8.970 -1.0263  1.8624  1.0892
  972MOL0     H31193   5.211   8.541   9.083  1.4851 -0.8871  1.8975
  972MOL0     H31194   5.320   8.831   9.110  0.5956 -0.2631  0.5061
  972MOL0     H31195   5.251   8.742   9.248  1.5758  0.0593  0.0936
  972MOL0     H31196   5.095   8.803   8.990 -2.2807  2.8825 -0.8844
  972MOL0     H31197   5.036   8.716   9.138 -0.8578 -0.7976 -1.0518
  972MOL0     H31198   5.077   9.015   9.086 -1.0741 -0.4890 -1.2940
  972MOL0     H31199   5.073   8.959   9.252 -0.1319  0.1190  0.0305
  972MOL0     H31200   4.864   8.930   9.021  1.3361  0.0346  0.0329
  972MOL0     H31201   4.867   9.059   9.136  0.7096  1.0035  0.0491
  972MOL0     H31202   5.777   8.131   8.927 -0.6323 -3.0655  0.8745
  972MOL0     H31203   5.955   7.995   9.022 -0.7799 -0.4444  0.9180
  972MOL0     H31204   6.112   7.941   9.662 -0.4822 -0.0699 -1.3037
  972MOL0     H31205   6.297   7.907   9.788  1.3510 -0.5214  0.2183
  972MOL0     H31206   7.893   6.663   9.691 -0.0561  3.1096 -0.2133
  972MOL0     H31207   8.112   6.522   9.713 -3.2655 -4.0484 -0.7264
  972MOL0     H31208   8.445   6.164   9.353  0.1560  0.1376  0.1290
  972MOL0     H31209   8.688   6.110   9.326  1.6598 -0.6029  1.4772
  972MOL0     H31210   8.945   6.449   9.327 -3.7344 -0.5527  0.2042
  972MOL0     H31211   9.048   6.300   9.332 -0.8873 -2.3727 -1.1779
  972MOL0     H31212   8.793   6.338   9.152 -0.8641 -3.8972 -3.7760
  972MOL0     H31213   8.882   6.196   9.178  0.5626  0.1320  1.2248
  972MOL0     H31214   9.014   6.442   9.047  1.5373 -0.9141  1.0466
  972MOL0     H31215   8.943   6.308   8.961  0.0915  2.5683 -0.9975
  972MOL0     H31216   9.122   6.162   9.037  0.9118 -1.0832  1.0637
  972MOL0     H31217   9.168   6.277   9.167  2.3261 -0.6065 -0.5229
  972MOL0     H31218   9.389   6.422   8.869  2.1289 -1.1707  3.7032
  972MOL0     H31219   8.773   6.485   9.535 -1.6944  1.7551  0.0975
  972MOL0     H31220   8.536   6.514   9.562  2.2126 -0.4531  1.0405
  973MOL0     O31221   2.911   2.485   2.982 -0.5967  0.1539 -1.2444
  973MOL0     C31222   2.903   2.394   3.065 -0.0010  0.3486  0.2169
  973MOL0     O31223   2.996   2.347   3.144  0.0406 -0.0224  0.0148
  973MOL0     C31224   3.112   2.421   3.139 -1.2073  0.4974 -0.0849
  973MOL0     C31225   3.126   2.529   3.225 -0.1959 -0.3304 -0.2877
  973MOL0     C31226   3.252   2.594   3.228 -0.2805 -0.1760 -0.3422
  973MOL0     C31227   3.360   2.561   3.148  0.2573  1.0241  0.1996
  973MOL0     O31228   3.476   2.633   3.156 -0.0481 -0.0684  0.1393
  973MOL0     C31229   3.595   2.561   3.117  0.9031  0.1196 -0.3796
  973MOL0     C31230   3.722   2.635   3.138 -0.2428  0.5296  0.4272
  973MOL0     C31231   3.851   2.603   3.048  0.6603  0.4537  0.8786
  973MOL0     C31232   3.907   2.456   3.055 -0.2916 -0.4424  0.3003
  973MOL0     C31233   4.063   2.458   3.036  0.8820 -0.9719 -0.4259
  973MOL0     C31234   4.135   2.489   3.159 -0.1839  0.0067 -0.8554
  973MOL0     C31235   4.283   2.460   3.138  0.0495 -0.1583 -0.4353
  973MOL0     C31236   4.356   2.553   3.039 -0.0484  0.0622 -0.4713
  973MOL0     N31237   4.359   2.690   3.097  0.2183 -0.2896 -0.0696
  973MOL0     C31238   4.306   2.796   3.022 -0.5629 -0.1970 -0.2875
  973MOL0     C31239   4.308   2.904   3.107  0.0964 -0.3937  0.7047
  973MOL0     C31240   4.255   3.037   3.077 -0.3243 -0.7209  0.3866
  973MOL0     C31241   4.101   3.043   3.095  0.7492  0.0672  0.3864
  973MOL0     C31242   4.036   3.037   2.961 -0.9526 -0.6763  0.6100
  973MOL0     C31243   3.891   3.019   2.969 -0.0286 -0.5802  0.1864
  973MOL0     O31244   3.848   2.991   2.836 -0.1916  0.0953 -0.3948
  973MOL0     C31245   3.722   3.009   2.816 -1.0605  0.1308 -0.5544
  973MOL0     C31246   3.684   3.035   2.692 -0.6924  0.6054  0.1396
  973MOL0     C31247   3.543   3.044   2.661  0.7640  0.4257 -0.0633
  973MOL0     C31248   3.510   3.086   2.523 -0.0269 -0.4532 -0.6418
  973MOL0     C31249   3.445   3.012   2.759 -0.5391 -0.5542  0.8078
  973MOL0     C31250   3.294   2.993   2.727 -0.5276 -0.2892  0.1587
  973MOL0     O31251   3.213   2.966   2.832 -0.2214  0.3676 -0.3093
  973MOL0     C31252   3.082   2.991   2.815 -0.3666 -0.2133  0.9254
  973MOL0     C31253   2.995   2.897   2.855  0.4499  0.8308 -0.2970
  973MOL0     C31254   2.856   2.920   2.864  0.3478 -0.5908  0.2154
  973MOL0     C31255   2.805   3.037   2.799  0.3729 -0.0951  0.0574
  973MOL0     O31256   2.668   3.063   2.786  0.3560 -1.0401  0.4253
  973MOL0     C31257   2.587   2.949   2.744 -0.3482  0.2692 -1.3910
  973MOL0     C31258   2.471   3.012   2.677 -0.3434 -0.0424  0.2150
  973MOL0     C31259   2.510   3.103   2.560 -0.6923 -0.1098 -0.4235
  973MOL0     C31260   2.392   3.177   2.505 -0.3695 -0.1164 -0.4285
  973MOL0     C31261   2.429   3.261   2.374  0.9672  0.0055  0.5839
  973MOL0     C31262   2.374   3.195   2.254 -0.1327  0.1720  0.0006
  973MOL0     C31263   2.413   3.252   2.121  0.4102 -0.2732  0.5395
  973MOL0     C31264   2.563   3.222   2.064 -0.2502  0.0071  0.5022
  973MOL0    Cl31265   2.598   3.044   2.078  0.0968  0.1481 -0.7489
  973MOL0     C31266   2.894   3.129   2.747 -0.3441  0.0695 -0.0675
  973MOL0     C31267   3.030   3.111   2.767 -0.1458  0.1346  0.4503
  973MOL0     O31268   3.260   2.990   2.609  0.2211  0.7246 -0.0153
  973MOL0     C31269   3.492   2.984   2.886 -0.3790 -0.3033  1.0253
  973MOL0     C31270   3.625   2.981   2.911  0.2513 -0.5513  0.4782
  973MOL0     N31271   4.365   2.868   3.228  0.0327  0.2930 -0.0500
  973MOL0     N31272   4.393   2.741   3.217  0.6583  0.5553 -0.8239
  973MOL0     C31273   3.343   2.441   3.066 -0.1877 -0.2165 -0.1550
  973MOL0     C31274   3.224   2.364   3.074  0.5269 -1.1073 -0.3306
  973MOL0     C31275   2.767   2.333   3.078  0.3839 -0.1989  0.0169
  973MOL0     C31276   2.722   2.292   3.201  0.8381  0.1459 -0.2714
  973MOL0     C31277   2.604   2.212   3.219 -0.3879 -0.0911  0.0199
  973MOL0     C31278   2.508   2.236   3.110  0.2347  0.1946 -0.1832
  973MOL0     O31279   2.374   2.197   3.117 -0.4960  0.0837  0.0352
  973MOL0     C31280   2.341   2.112   3.224  0.2974 -0.4034 -0.2311
  973MOL0     C31281   2.191   2.084   3.196  0.3020  0.5769 -0.4046
  973MOL0     C31282   2.160   1.986   3.077  0.7297 -0.6173 -0.7624
  973MOL0     C31283   2.011   1.949   3.061  0.7646 -0.6368 -0.7028
  973MOL0     C31284   1.987   1.881   2.934  1.6259 -0.1521 -0.1566
  973MOL0     C31285   1.967   1.820   2.833  0.5350  0.7496 -0.6560
  973MOL0     C31286   2.546   2.286   2.985  0.0759 -0.5549 -0.3543
  973MOL0     C31287   2.678   2.321   2.971 -0.5491 -0.3101  0.9010
  973MOL0     H31288   3.049   2.583   3.279  1.0479  0.7692  0.4409
  973MOL0     H31289   3.248   2.687   3.283 -0.8055  1.7897 -3.4230
  973MOL0     H31290   3.598   2.475   3.186  1.4192  1.3903  1.2600
  973MOL0     H31291   3.591   2.528   3.013 -1.2461  3.5305 -1.5507
  973MOL0     H31292   3.688   2.738   3.129 -0.4481  0.5840  1.6467
  973MOL0     H31293   3.750   2.617   3.242 -2.9701 -2.0475  0.8618
  973MOL0     H31294   3.818   2.627   2.946  2.6744 -2.0154 -0.4718
  973MOL0     H31295   3.928   2.675   3.077 -0.7103  3.9620 -3.0754
  973MOL0     H31296   3.888   2.400   3.148  1.7327 -3.8426 -1.1583
  973MOL0     H31297   3.868   2.395   2.974  0.3776 -1.6958  0.8833
  973MOL0     H31298   4.094   2.359   3.003  0.8809 -0.4868 -1.9364
  973MOL0     H31299   4.083   2.530   2.956 -0.5681 -0.3352 -0.2535
  973MOL0     H31300   4.107   2.585   3.203 -3.8940 -2.0986  1.9380
  973MOL0     H31301   4.105   2.419   3.237  1.8344  0.8246  0.7513
  973MOL0     H31302   4.318   2.469   3.241  0.4083  3.3550 -0.7432
  973MOL0     H31303   4.299   2.359   3.098  3.2960  0.1680 -0.2812
  973MOL0     H31304   4.301   2.548   2.945 -1.6364  2.5273  0.2210
  973MOL0     H31305   4.459   2.521   3.019  0.9620  3.3464 -1.2254
  973MOL0     H31306   4.255   2.790   2.926  0.2410  0.0875 -0.7405
  973MOL0     H31307   4.301   3.099   3.154 -1.2598  1.4370 -0.7334
  973MOL0     H31308   4.284   3.075   2.979  0.9458 -0.3591  0.8841
  973MOL0     H31309   4.052   3.132   3.136 -1.4516 -0.0747 -1.6831
  973MOL0     H31310   4.073   2.968   3.169  0.1873  0.9778  1.1303
  973MOL0     H31311   4.068   2.957   2.894  0.8674  1.4711 -1.2427
  973MOL0     H31312   4.060   3.132   2.913  2.1825 -1.1081  1.1482
  973MOL0     H31313   3.852   3.116   3.002 -1.4720 -0.5542 -1.4743
  973MOL0     H31314   3.879   2.953   3.056  1.6588 -0.1600  0.7993
  973MOL0     H31315   3.760   3.038   2.615 -1.5001 -1.3665 -0.8020
  973MOL0     H31316   3.416   3.141   2.507 -0.5119 -0.6195  1.3350
  973MOL0     H31317   3.596   3.136   2.479  0.2620 -1.1789 -0.9115
  973MOL0     H31318   3.498   2.995   2.464  1.0776 -0.9788 -0.0897
  973MOL0     H31319   3.034   2.808   2.902  0.8278  1.1456 -0.0101
  973MOL0     H31320   2.788   2.861   2.924 -1.1203  0.3268 -0.4836
  973MOL0     H31321   2.648   2.893   2.672  2.0640 -0.9321  1.3835
  973MOL0     H31322   2.560   2.892   2.833 -3.2768  0.3245 -2.1538
  973MOL0     H31323   2.393   2.941   2.645 -1.6643  1.2334  0.5163
  973MOL0     H31324   2.422   3.077   2.751  0.3234  2.2990 -1.3101
  973MOL0     H31325   2.556   3.034   2.489 -1.2620  0.5628 -1.4785
  973MOL0     H31326   2.590   3.170   2.594 -2.1643  1.3778  0.2693
  973MOL0     H31327   2.311   3.112   2.474  0.8684 -1.5723 -0.7102
  973MOL0     H31328   2.357   3.244   2.585  3.4224 -0.9776  2.2399
  973MOL0     H31329   2.538   3.264   2.364  0.9382 -2.5270 -1.4165
  973MOL0     H31330   2.392   3.364   2.372  1.4429  0.2857 -4.0252
  973MOL0     H31331   2.408   3.092   2.246 -1.0473 -0.1647  0.2665
  973MOL0     H31332   2.265   3.204   2.264 -0.1099  1.2960 -0.6656
  973MOL0     H31333   2.389   3.359   2.127 -0.8846 -0.3053 -2.4126
  973MOL0     H31334   2.342   3.220   2.044  0.1802  2.7633 -0.6728
  973MOL0     H31335   2.634   3.274   2.129 -2.2382 -0.6563  3.4297
  973MOL0     H31336   2.586   3.259   1.964  1.0603 -0.8726  0.4643
  973MOL0     H31337   2.849   3.206   2.685  0.6572 -0.4731 -1.5427
  973MOL0     H31338   3.109   3.181   2.744  2.5483 -2.3684  1.4849
  973MOL0     H31339   3.426   2.946   2.963 -0.1390 -0.8065  0.9866
  973MOL0     H31340   3.648   2.946   3.011 -0.2169  1.2713  1.2586
  973MOL0     H31341   3.406   2.397   2.989 -2.0184 -1.9696 -0.7541
  973MOL0     H31342   3.226   2.269   3.022  1.5106 -2.1661  1.5303
  973MOL0     H31343   2.800   2.312   3.273  0.6817  0.3783 -0.1657
  973MOL0     H31344   2.583   2.158   3.311  1.9665 -0.6073  0.3182
  973MOL0     H31345   2.408   2.026   3.218  0.5194 -0.1417 -2.3212
  973MOL0     H31346   2.356   2.162   3.320  1.1719 -1.6255  0.2965
  973MOL0     H31347   2.130   2.172   3.175  3.0584  2.5254 -0.6496
  973MOL0     H31348   2.166   2.027   3.286 -1.4038 -0.6795 -1.5956
  973MOL0     H31349   2.224   1.900   3.098  1.5065 -0.4325 -2.2212
  973MOL0     H31350   2.186   2.035   2.982  0.7273  1.2094  0.1298
  973MOL0     H31351   1.946   2.034   3.084  0.6633 -1.2895  1.7123
  973MOL0     H31352   1.989   1.881   3.144  4.2024  0.2590  1.1184
  973MOL0     H31353   1.965   1.761   2.743  2.0274 -0.1437 -0.1340
  973MOL0     H31354   2.485   2.303   2.897 -0.8235  2.3296  0.7029
  973MOL0     H31355   2.704   2.347   2.869 -2.2081 -0.3267  0.4448
  974MOL0     O31356   6.164   2.739   8.707  0.1879  1.1042  0.5113
  974MOL0     C31357   6.209   2.852   8.724 -0.1021  0.2624  0.4624
  974MOL0     O31358   6.142   2.961   8.772 -0.2543 -0.4884  0.0788
  974MOL0     C31359   6.006   2.944   8.781  0.4197 -0.0127 -0.2709
  974MOL0     C31360   5.924   3.046   8.722 -1.1101  0.4483 -0.2120
  974MOL0     C31361   5.789   3.038   8.707 -0.1924  0.0492 -0.2849
  974MOL0     C31362   5.718   2.941   8.778  0.0373  0.8818  0.2606
  974MOL0     O31363   5.583   2.940   8.779 -0.1671  0.0832 -0.2983
  974MOL0     C31364   5.510   2.819   8.763 -0.1668 -0.2172  0.3000
  974MOL0     C31365   5.376   2.827   8.842  0.8829  0.1512 -0.1450
  974MOL0     C31366   5.264   2.910   8.774 -0.0968  0.4613 -0.1121
  974MOL0     C31367   5.144   2.955   8.862  0.8630 -0.5288 -0.0938
  974MOL0     C31368   5.051   3.027   8.765 -0.9004  0.0209  0.0781
  974MOL0     C31369   4.906   3.033   8.815  0.3038  0.0743 -0.0180
  974MOL0     C31370   4.871   3.128   8.935 -0.7021  0.2789 -0.4377
  974MOL0     C31371   4.746   3.088   9.011 -0.9066  0.1985  0.3019
  974MOL0     N31372   4.625   3.109   8.933  0.2385 -0.2987 -0.4722
  974MOL0     C31373   4.533   3.021   8.898 -0.5854 -0.1737  0.8402
  974MOL0     C31374   4.434   3.095   8.831 -0.3782 -0.0786 -0.3627
  974MOL0     C31375   4.311   3.035   8.785 -0.3490  0.8428  0.5406
  974MOL0     C31376   4.204   3.148   8.783 -0.7207 -0.2342 -0.4486
  974MOL0     C31377   4.069   3.080   8.741 -0.2587 -0.1852 -0.4879
  974MOL0     C31378   3.968   3.199   8.715 -0.5883 -0.5359 -0.9515
  974MOL0     O31379   3.842   3.136   8.689  0.1014  0.1440 -0.5244
  974MOL0     C31380   3.757   3.112   8.797  0.0014  1.5398  0.6747
  974MOL0     C31381   3.790   3.106   8.928  0.1765  0.1112  0.3219
  974MOL0     C31382   3.689   3.091   9.027 -0.1537  0.9010  0.0243
  974MOL0     C31383   3.743   3.107   9.168 -0.5629  0.0814 -0.6628
  974MOL0     C31384   3.553   3.066   8.993  0.2972  0.6627 -0.0664
  974MOL0     C31385   3.447   3.049   9.097  0.0536  0.2714  0.1142
  974MOL0     O31386   3.318   3.038   9.054  0.5620 -0.6881 -0.2633
  974MOL0     C31387   3.207   3.027   9.146 -0.1502  0.7091 -0.0777
  974MOL0     C31388   3.080   2.995   9.085 -0.4926  0.0208  0.2883
  974MOL0     C31389   2.969   2.996   9.165  0.1077  0.6537  0.5137
  974MOL0     C31390   2.972   3.006   9.302  0.5309  0.0440  0.2848
  974MOL0     O31391   2.849   2.998   9.357  0.1091 -0.2966 -0.3605
  974MOL0     C31392   2.828   3.042   9.492 -0.8253  0.4057  0.4002
  974MOL0     C31393   2.688   2.993   9.536 -0.2014 -0.4734 -0.2383
  974MOL0     C31394   2.673   3.034   9.683  0.7024  0.2563 -0.0523
  974MOL0     C31395   2.747   2.939   9.777 -0.1156  0.0689  0.6102
  974MOL0     C31396   2.702   2.965   9.915 -1.0063  0.2237 -0.1246
  974MOL0     C31397   2.773   2.890  10.024 -0.3466  0.5541 -0.5066
  974MOL0     C31398   2.761   2.944  10.168 -0.2494  0.1116  0.4220
  974MOL0     C31399   2.617   2.945  10.225 -0.7834 -0.0823  0.8327
  974MOL0    Cl31400   2.618   3.052  10.364  0.1733 -0.1620 -0.0829
  974MOL0     C31401   3.095   3.026   9.372  0.4756  0.6818 -0.4928
  974MOL0     C31402   3.208   3.034   9.289  0.3602  0.2634  0.0413
  974MOL0     O31403   3.489   3.032   9.215  0.2171 -0.7695  0.7910
  974MOL0     C31404   3.527   3.063   8.858  0.2928  0.0386 -0.5933
  974MOL0     C31405   3.623   3.088   8.759  0.5241 -0.3903 -0.1278
  974MOL0     N31406   4.476   3.224   8.831  0.0722 -0.5901  0.1053
  974MOL0     N31407   4.589   3.231   8.895  0.2368 -0.8828  0.6714
  974MOL0     C31408   5.789   2.856   8.859 -0.1318  0.7157  0.7954
  974MOL0     C31409   5.938   2.854   8.862  0.2741 -0.4515 -0.4133
  974MOL0     C31410   6.362   2.868   8.725  0.1369  0.3932 -1.2320
  974MOL0     C31411   6.445   2.754   8.692 -0.5726 -0.6975  0.0281
  974MOL0     C31412   6.580   2.774   8.684 -0.4763 -0.0143 -0.1300
  974MOL0     C31413   6.650   2.892   8.715  0.5287  0.0425  0.0917
  974MOL0     O31414   6.782   2.916   8.708  0.0957  0.4456 -0.4734
  974MOL0     C31415   6.861   2.813   8.655 -0.3008  0.1291  0.1237
  974MOL0     C31416   7.009   2.860   8.657 -0.1021  0.1393  0.5346
  974MOL0     C31417   7.031   2.994   8.583 -0.2353  0.7103 -0.7196
  974MOL0     C31418   7.164   3.062   8.612  0.5211 -0.0349  0.1297
  974MOL0     C31419   7.268   2.967   8.587  0.1286  0.2566  0.0620
  974MOL0     C31420   7.357   2.888   8.586 -0.6089  0.0918  0.6445
  974MOL0     C31421   6.570   3.009   8.736 -0.2790 -0.4635  0.0356
  974MOL0     C31422   6.428   2.992   8.743  0.3065 -1.1184  0.0148
  974MOL0     H31423   5.970   3.128   8.669  0.9803 -1.3569 -1.3767
  974MOL0     H31424   5.729   3.116   8.661  0.0955  1.4957  1.6791
  974MOL0     H31425   5.482   2.799   8.659  1.2018  0.4401 -0.2147
  974MOL0     H31426   5.571   2.739   8.805  0.7679  1.3368  2.0396
  974MOL0     H31427   5.345   2.724   8.864 -0.9211 -0.0601 -3.1431
  974MOL0     H31428   5.399   2.864   8.942  1.0891  0.5151 -0.3265
  974MOL0     H31429   5.320   2.993   8.730  0.7320 -1.1291 -2.2002
  974MOL0     H31430   5.233   2.849   8.689 -0.0028 -2.9441  2.1324
  974MOL0     H31431   5.075   2.876   8.893 -0.0977  0.7661  1.1990
  974MOL0     H31432   5.166   3.024   8.944 -0.8644  0.8021 -0.6870
  974MOL0     H31433   5.084   3.129   8.744  1.4053 -0.5639  0.5457
  974MOL0     H31434   5.040   2.966   8.674 -0.1883  2.6655 -1.9157
  974MOL0     H31435   4.846   3.070   8.731  0.5366 -2.0963 -1.2097
  974MOL0     H31436   4.865   2.933   8.828 -1.4973 -0.0186 -4.6297
  974MOL0     H31437   4.962   3.124   8.996  0.4138 -0.5185 -2.0623
  974MOL0     H31438   4.843   3.230   8.908  0.0137  0.7208  0.4167
  974MOL0     H31439   4.733   3.149   9.101 -0.9019  1.6709 -0.6720
  974MOL0     H31440   4.751   2.984   9.045 -2.5787  0.5500  1.7519
  974MOL0     H31441   4.527   2.913   8.905  0.6345 -0.3931 -0.8039
  974MOL0     H31442   4.317   2.987   8.687 -1.1176  3.1443 -0.7210
  974MOL0     H31443   4.292   2.963   8.865 -2.8071  1.3198  0.4541
  974MOL0     H31444   4.228   3.224   8.708 -0.4337  0.7280  0.5915
  974MOL0     H31445   4.198   3.189   8.884  0.4510 -1.0614 -0.0152
  974MOL0     H31446   4.024   3.004   8.805  1.6432 -1.2811 -0.3885
  974MOL0     H31447   4.087   3.027   8.647 -0.9071 -1.5941  0.1586
  974MOL0     H31448   3.989   3.250   8.621  2.2070 -0.8494 -0.5749
  974MOL0     H31449   3.968   3.270   8.799 -2.1015 -0.1365 -1.2417
  974MOL0     H31450   3.895   3.124   8.949  0.6772  1.6453 -2.8058
  974MOL0     H31451   3.733   3.011   9.220  0.0059 -1.1417 -2.7148
  974MOL0     H31452   3.850   3.133   9.168 -0.8918  1.5812 -2.1565
  974MOL0     H31453   3.695   3.181   9.233  3.3229  0.5163  2.1095
  974MOL0     H31454   3.075   2.976   8.979 -1.6797 -1.2023  0.5314
  974MOL0     H31455   2.880   2.970   9.109  1.0375  0.6346 -1.0168
  974MOL0     H31456   2.911   2.993   9.544 -1.2649  0.5982  1.3085
  974MOL0     H31457   2.831   3.151   9.492 -0.9696  0.4207 -0.8910
  974MOL0     H31458   2.614   3.041   9.471  0.6408  1.0908 -0.1007
  974MOL0     H31459   2.685   2.884   9.525  0.9605 -0.8758  2.6512
  974MOL0     H31460   2.568   3.019   9.711  0.8017  0.8463  0.6664
  974MOL0     H31461   2.689   3.140   9.705 -1.1379  0.6277 -0.3319
  974MOL0     H31462   2.724   2.837   9.746 -0.0550 -0.2278  1.5298
  974MOL0     H31463   2.856   2.942   9.766  0.0388 -1.6850  1.4181
  974MOL0     H31464   2.599   2.929   9.912 -0.8134 -0.4188  0.6202
  974MOL0     H31465   2.706   3.071   9.945  0.6641  0.0422  0.4138
  974MOL0     H31466   2.738   2.786  10.029  0.8815  0.1774  3.1897
  974MOL0     H31467   2.880   2.884  10.001 -0.2852 -0.6538  0.0129
  974MOL0     H31468   2.803   3.045  10.166  1.6615 -0.5073  3.7356
  974MOL0     H31469   2.822   2.880  10.231  0.2599  0.7556  0.5976
  974MOL0     H31470   2.566   2.850  10.242  1.4615 -1.4078  0.5538
  974MOL0     H31471   2.558   2.989  10.144 -0.3990 -1.1197 -0.0444
  974MOL0     H31472   3.113   3.018   9.479  0.6106 -1.9273 -0.6348
  974MOL0     H31473   3.295   3.064   9.346 -1.4765  3.4570  1.4908
  974MOL0     H31474   3.428   3.039   8.821 -0.2451 -1.2267  1.4925
  974MOL0     H31475   3.594   3.097   8.655 -1.6994 -2.0780  0.2479
  974MOL0     H31476   5.742   2.794   8.935  2.4866 -1.4890  0.7907
  974MOL0     H31477   5.984   2.779   8.926 -1.8913  0.1306  1.9743
  974MOL0     H31478   6.403   2.659   8.662  0.3170 -1.2571  0.5392
  974MOL0     H31479   6.637   2.683   8.669 -0.1149  0.2084 -0.1215
  974MOL0     H31480   6.842   2.712   8.692 -2.2291  0.1578 -0.6926
  974MOL0     H31481   6.837   2.808   8.548 -0.7580  1.2521  0.1568
  974MOL0     H31482   7.074   2.784   8.612 -0.1547  1.3033 -1.6157
  974MOL0     H31483   7.041   2.865   8.762  0.0647  3.4670  0.4127
  974MOL0     H31484   6.958   3.058   8.635 -0.2224 -1.9728  2.9927
  974MOL0     H31485   7.009   2.984   8.477 -0.0445  1.5864 -0.8509
  974MOL0     H31486   7.172   3.073   8.721  0.1007  0.6939  0.0926
  974MOL0     H31487   7.173   3.157   8.558 -1.6087 -0.5519 -1.2157
  974MOL0     H31488   7.427   2.807   8.581 -3.0842 -2.2406  1.5002
  974MOL0     H31489   6.592   3.115   8.744 -3.7183  0.6387 -2.6971
  974MOL0     H31490   6.373   3.081   8.770  1.4095 -0.3772 -0.1274
  975MOL0     O31491   6.275   2.391   7.684 -0.2521 -0.4292  0.4287
  975MOL0     C31492   6.345   2.429   7.588  0.5580 -0.2261  0.3128
  975MOL0     O31493   6.311   2.417   7.453  1.0093  0.1833 -0.0722
  975MOL0     C31494   6.189   2.354   7.428 -0.1893  0.7199 -0.1905
  975MOL0     C31495   6.175   2.210   7.444  0.5831  0.4269  0.2349
  975MOL0     C31496   6.062   2.146   7.414 -0.2832  1.1819 -0.8019
  975MOL0     C31497   5.956   2.214   7.363 -0.1135  0.2607  0.2895
  975MOL0     O31498   5.841   2.140   7.338 -0.0096 -0.2385 -0.0070
  975MOL0     C31499   5.716   2.201   7.309 -0.0175  0.2071  0.7295
  975MOL0     C31500   5.615   2.083   7.309 -0.3534 -0.9132  0.4456
  975MOL0     C31501   5.481   2.129   7.255 -1.2362  0.5406  0.0601
  975MOL0     C31502   5.385   2.205   7.357 -0.3346  0.8445  0.2240
  975MOL0     C31503   5.237   2.205   7.311 -0.0625 -0.4540  0.6875
  975MOL0     C31504   5.143   2.247   7.427  0.8387  0.7115  0.4477
  975MOL0     C31505   4.997   2.275   7.390 -0.9090  0.3811 -0.2606
  975MOL0     C31506   4.915   2.161   7.341 -0.1183  0.3637 -0.3713
  975MOL0     N31507   4.771   2.203   7.326 -0.0120 -0.0480  0.4483
  975MOL0     C31508   4.681   2.228   7.420 -0.5120  0.4137 -0.1324
  975MOL0     C31509   4.562   2.262   7.364 -0.2914 -0.4621  0.7375
  975MOL0     C31510   4.437   2.296   7.441 -0.1782 -0.2127  0.0934
  975MOL0     C31511   4.333   2.183   7.417 -0.2419  0.3484 -0.0160
  975MOL0     C31512   4.206   2.193   7.497 -0.3754 -0.6130  0.3789
  975MOL0     C31513   4.202   2.307   7.593 -0.1290 -0.4821 -0.7209
  975MOL0     O31514   4.103   2.286   7.700 -0.4876 -0.4092  0.7445
  975MOL0     C31515   3.971   2.287   7.676 -0.2513  0.0446  0.4472
  975MOL0     C31516   3.920   2.315   7.553 -0.0016  0.2311 -0.2505
  975MOL0     C31517   3.780   2.326   7.527  0.4302  0.0006  0.0812
  975MOL0     C31518   3.748   2.375   7.396  0.3574 -0.3628  0.0632
  975MOL0     C31519   3.694   2.277   7.625 -0.2051 -0.2367  0.0560
  975MOL0     C31520   3.543   2.253   7.608  0.5925 -0.5276  0.0772
  975MOL0     O31521   3.475   2.212   7.717  0.3204  0.4699 -0.8537
  975MOL0     C31522   3.336   2.232   7.729 -0.9980 -0.7267 -0.4061
  975MOL0     C31523   3.264   2.350   7.678  0.3165 -0.9268 -0.3891
  975MOL0     C31524   3.122   2.371   7.708 -0.0865 -0.6343  0.1267
  975MOL0     C31525   3.061   2.269   7.778 -0.7801 -0.0647  1.0305
  975MOL0     O31526   2.923   2.268   7.806 -0.1566  0.0044  0.4708
  975MOL0     C31527   2.839   2.378   7.778  0.3067  0.7851  0.3344
  975MOL0     C31528   2.701   2.330   7.830 -0.3974 -0.0838  0.8464
  975MOL0     C31529   2.603   2.445   7.837 -0.1816 -0.5280 -0.8586
  975MOL0     C31530   2.484   2.404   7.931 -0.4615  0.1263  0.5409
  975MOL0     C31531   2.383   2.519   7.960  0.0121 -0.7554 -0.4263
  975MOL0     C31532   2.258   2.459   8.011  0.5016  0.1147 -0.0571
  975MOL0     C31533   2.180   2.573   8.074 -0.0906 -0.3836  0.3273
  975MOL0     C31534   2.038   2.540   8.103  0.4827  0.5519 -0.6231
  975MOL0    Cl31535   1.957   2.664   8.195  0.0676 -0.2943  0.3405
  975MOL0     C31536   3.133   2.174   7.854  0.5088  0.6139 -0.1359
  975MOL0     C31537   3.265   2.149   7.821  0.5995 -0.1953 -0.3571
  975MOL0     O31538   3.492   2.275   7.498 -0.4755  0.6192 -0.1930
  975MOL0     C31539   3.744   2.254   7.752 -0.5151  0.8929  0.3671
  975MOL0     C31540   3.884   2.258   7.778  0.2971 -0.3950 -0.1105
  975MOL0     N31541   4.589   2.256   7.223 -0.4437  0.4949  0.2511
  975MOL0     N31542   4.708   2.212   7.211 -0.5155  0.2287  0.2058
  975MOL0     C31543   5.966   2.348   7.338  0.0192 -0.5044 -0.8282
  975MOL0     C31544   6.083   2.427   7.372 -0.4859  0.2759 -0.7513
  975MOL0     C31545   6.479   2.491   7.622  0.0376 -0.3774 -0.1172
  975MOL0     C31546   6.571   2.500   7.517 -0.1499  0.0201  0.2285
  975MOL0     C31547   6.700   2.562   7.531  0.5680  0.3166 -0.4213
  975MOL0     C31548   6.742   2.588   7.663 -0.1551  0.0302 -0.0478
  975MOL0     O31549   6.872   2.633   7.673 -0.1614 -0.4945 -0.3777
  975MOL0     C31550   6.902   2.709   7.796  0.2357 -0.7286 -0.5902
  975MOL0     C31551   7.044   2.756   7.788  0.6691  0.1929 -0.5797
  975MOL0     C31552   7.076   2.813   7.647 -0.2745 -0.0128 -0.1596
  975MOL0     C31553   7.208   2.899   7.660 -0.8103 -1.1819 -0.6390
  975MOL0     C31554   7.316   2.824   7.733  0.4852 -0.3474 -0.7323
  975MOL0     C31555   7.399   2.760   7.799 -0.6091 -0.2781 -0.2976
  975MOL0     C31556   6.651   2.574   7.773  0.9447  0.5807 -0.7894
  975MOL0     C31557   6.512   2.537   7.752 -0.5551  1.3781  0.3845
  975MOL0     H31558   6.248   2.140   7.485 -0.9725 -2.0338 -0.9066
  975MOL0     H31559   6.048   2.040   7.434 -3.2118  1.2348 -2.0239
  975MOL0     H31560   5.682   2.286   7.369  0.4261  0.3011  0.8511
  975MOL0     H31561   5.729   2.233   7.205 -5.1568 -1.5856 -0.7937
  975MOL0     H31562   5.670   2.006   7.253  1.3731 -0.1175  0.9721
  975MOL0     H31563   5.605   2.049   7.412  1.0921 -1.6021  0.3795
  975MOL0     H31564   5.489   2.199   7.171 -0.9870 -0.3322 -0.6527
  975MOL0     H31565   5.431   2.041   7.215  0.2674 -0.8765  1.1257
  975MOL0     H31566   5.388   2.144   7.448 -1.7572  0.5058  0.0582
  975MOL0     H31567   5.420   2.305   7.381 -2.1988  1.2475  1.4895
  975MOL0     H31568   5.216   2.265   7.222  0.3958 -0.3995  0.6144
  975MOL0     H31569   5.219   2.103   7.278  0.9186 -0.6141  0.6079
  975MOL0     H31570   5.140   2.166   7.501  3.3641 -1.1220 -1.2749
  975MOL0     H31571   5.188   2.337   7.471  1.3275  2.5961 -3.5336
  975MOL0     H31572   4.952   2.311   7.483  1.7318  0.8757  0.9029
  975MOL0     H31573   4.992   2.353   7.314  0.6506  0.5937 -0.1606
  975MOL0     H31574   4.915   2.083   7.417 -0.3551 -1.3161 -2.0106
  975MOL0     H31575   4.943   2.118   7.244 -0.9163  1.9160 -1.3311
  975MOL0     H31576   4.702   2.224   7.526  0.2381 -1.9996 -0.2965
  975MOL0     H31577   4.470   2.302   7.545  0.4948 -1.6707 -0.0123
  975MOL0     H31578   4.395   2.388   7.399 -3.0228 -2.1375 -1.6542
  975MOL0     H31579   4.385   2.088   7.426  1.5626  1.3437  0.5228
  975MOL0     H31580   4.305   2.179   7.311 -0.6823 -0.1578  0.1158
  975MOL0     H31581   4.180   2.094   7.536 -1.7607  0.2132  1.6721
  975MOL0     H31582   4.122   2.193   7.427  0.7214  0.3782 -1.0061
  975MOL0     H31583   4.174   2.396   7.535 -1.8165 -0.1101  0.5686
  975MOL0     H31584   4.292   2.338   7.646 -0.8665  0.8976 -0.2339
  975MOL0     H31585   3.989   2.339   7.473 -2.0102 -1.2991 -2.6115
  975MOL0     H31586   3.684   2.464   7.400 -0.3771 -0.7791 -1.7866
  975MOL0     H31587   3.832   2.418   7.340 -0.8547  0.1887 -1.4118
  975MOL0     H31588   3.710   2.288   7.343 -2.5826  0.1235  1.1765
  975MOL0     H31589   3.317   2.424   7.620 -0.8319 -0.6681 -1.1308
  975MOL0     H31590   3.071   2.452   7.657  1.3432  1.4036  1.7399
  975MOL0     H31591   2.875   2.468   7.828  1.8215  0.6598 -0.4585
  975MOL0     H31592   2.837   2.415   7.675 -0.2809  1.8137  0.7093
  975MOL0     H31593   2.667   2.245   7.770  0.8334 -0.5444  0.7899
  975MOL0     H31594   2.715   2.284   7.929  1.7573 -0.1056  0.5664
  975MOL0     H31595   2.563   2.481   7.743 -1.5718  0.2158 -0.0119
  975MOL0     H31596   2.653   2.530   7.884 -1.8385 -0.9034  1.8042
  975MOL0     H31597   2.438   2.314   7.890  0.2959 -0.0829  0.1319
  975MOL0     H31598   2.525   2.362   8.023  0.4153 -1.4114 -0.5182
  975MOL0     H31599   2.367   2.574   7.867  0.8455  0.9964  0.4175
  975MOL0     H31600   2.439   2.582   8.031 -1.2387  0.2549 -0.2858
  975MOL0     H31601   2.194   2.416   7.933  0.2828  0.8336 -0.2790
  975MOL0     H31602   2.285   2.387   8.089  1.4608 -1.2371 -1.5746
  975MOL0     H31603   2.177   2.652   7.998 -2.6869 -1.6567 -1.0030
  975MOL0     H31604   2.222   2.605   8.170  1.0224 -0.9429  0.0461
  975MOL0     H31605   2.021   2.446   8.155  0.4064  2.5959  3.4863
  975MOL0     H31606   1.985   2.538   8.008 -0.2658  0.2651 -0.2110
  975MOL0     H31607   3.081   2.109   7.924  1.3840 -2.5709 -2.2202
  975MOL0     H31608   3.309   2.059   7.863  0.1987 -2.2116 -3.8162
  975MOL0     H31609   3.679   2.230   7.836 -1.2887  1.4720 -0.0559
  975MOL0     H31610   3.918   2.251   7.881  0.1613  0.4897 -0.0005
  975MOL0     H31611   5.881   2.399   7.294  1.7836  0.5861 -3.1864
  975MOL0     H31612   6.087   2.533   7.351 -2.4444  0.8294  1.3206
  975MOL0     H31613   6.547   2.460   7.419  0.0786 -2.2564  1.0469
  975MOL0     H31614   6.754   2.561   7.437  0.0148  0.9361 -0.7514
  975MOL0     H31615   6.826   2.788   7.791  1.1379  0.3740  1.7128
  975MOL0     H31616   6.885   2.652   7.887  0.3994 -0.9064 -0.6711
  975MOL0     H31617   7.110   2.674   7.816  0.3524 -0.4929 -1.7847
  975MOL0     H31618   7.065   2.831   7.865 -1.9795 -0.6425  1.1231
  975MOL0     H31619   7.000   2.880   7.606 -0.4140  0.1694  0.4035
  975MOL0     H31620   7.080   2.730   7.576  0.3033 -0.5354  0.4691
  975MOL0     H31621   7.193   2.991   7.717 -0.7424  0.5460 -3.2344
  975MOL0     H31622   7.254   2.921   7.564  0.8861 -1.6134  0.0407
  975MOL0     H31623   7.480   2.714   7.852  0.2124  2.0291  0.6159
  975MOL0     H31624   6.677   2.577   7.878 -0.6619  0.2997 -0.3602
  975MOL0     H31625   6.437   2.534   7.830 -2.5219  2.6549 -1.3305
  976MOL0     O31626   7.853   4.684   9.278  0.4437  0.3591 -0.3132
  976MOL0     C31627   7.891   4.638   9.170 -0.2697  0.2359  0.3579
  976MOL0     O31628   7.812   4.579   9.076  0.6379 -0.4611  0.3000
  976MOL0     C31629   7.695   4.527   9.117 -0.5943  0.3854  0.4461
  976MOL0     C31630   7.571   4.578   9.070 -0.3909  0.3284  0.4346
  976MOL0     C31631   7.450   4.522   9.116  0.1902  0.6069 -0.8800
  976MOL0     C31632   7.439   4.420   9.209 -0.3065  0.7832  0.6693
  976MOL0     O31633   7.317   4.365   9.243  0.0976 -0.4464 -0.1250
  976MOL0     C31634   7.307   4.221   9.248 -0.0682  0.2891  0.5197
  976MOL0     C31635   7.160   4.179   9.244  0.9430  0.6664  0.3980
  976MOL0     C31636   7.073   4.220   9.361 -0.3891  0.0587 -0.3107
  976MOL0     C31637   6.934   4.160   9.375 -0.0385  0.2148  0.4949
  976MOL0     C31638   6.868   4.170   9.512  0.6573 -0.1946 -0.0353
  976MOL0     C31639   6.725   4.117   9.519  0.6117  0.2867 -0.2909
  976MOL0     C31640   6.622   4.196   9.435  0.4370  0.6302  0.0297
  976MOL0     C31641   6.521   4.105   9.367 -0.3457  0.8167 -0.9481
  976MOL0     N31642   6.384   4.159   9.382 -0.6508  0.2223 -0.0509
  976MOL0     C31643   6.367   4.290   9.343 -0.1155  0.7621  0.0803
  976MOL0     C31644   6.249   4.319   9.396  0.7740  0.0822 -0.2864
  976MOL0     C31645   6.189   4.457   9.407 -0.1129 -0.2829  0.2812
  976MOL0     C31646   6.115   4.512   9.283 -0.1576  0.5399 -1.3124
  976MOL0     C31647   5.983   4.440   9.267  0.5602 -0.2903  0.3715
  976MOL0     C31648   5.871   4.497   9.361 -0.2357 -0.6158 -1.0854
  976MOL0     O31649   5.843   4.631   9.318  0.2567 -0.4223  0.0584
  976MOL0     C31650   5.730   4.664   9.249 -0.2258 -0.3649  0.1408
  976MOL0     C31651   5.715   4.799   9.215  0.2616 -0.6129  0.2320
  976MOL0     C31652   5.619   4.842   9.123 -0.1881  0.2739  0.5280
  976MOL0     C31653   5.615   4.985   9.077  0.3391 -0.0261 -0.3210
  976MOL0     C31654   5.518   4.750   9.088 -0.7031  0.1024 -0.8751
  976MOL0     C31655   5.393   4.782   9.004 -0.9708 -0.0503 -0.6349
  976MOL0     O31656   5.353   4.903   9.013  1.5717  0.2927  0.1844
  976MOL0     C31657   5.258   4.953   8.926  1.2010  1.0012  0.0655
  976MOL0     C31658   5.125   4.903   8.932 -0.2984  0.0582 -0.1917
  976MOL0     C31659   5.028   4.943   8.844 -0.3041  0.0324  0.2021
  976MOL0     C31660   5.054   5.047   8.752 -0.3152  0.4978  0.9539
  976MOL0     O31661   4.967   5.091   8.656  0.4199  0.2308  0.3588
  976MOL0     C31662   4.829   5.040   8.654 -0.2025 -0.0857  0.1028
  976MOL0     C31663   4.757   5.097   8.534  0.5713 -0.6633 -0.5280
  976MOL0     C31664   4.610   5.049   8.530  0.1409 -0.2785 -1.1403
  976MOL0     C31665   4.533   5.133   8.435 -0.0949  0.1073 -0.5334
  976MOL0     C31666   4.384   5.118   8.421  0.5680 -1.0827  0.0627
  976MOL0     C31667   4.339   5.148   8.275 -0.8520 -0.7082  0.1120
  976MOL0     C31668   4.190   5.121   8.252 -0.2444  0.0217 -0.3303
  976MOL0     C31669   4.143   5.136   8.114 -0.5192  0.3938 -0.2560
  976MOL0    Cl31670   4.142   5.315   8.078 -0.2148 -0.0982 -0.2849
  976MOL0     C31671   5.180   5.097   8.755  0.2122 -0.3364  0.3765
  976MOL0     C31672   5.283   5.051   8.836  0.5323  0.2808  0.0250
  976MOL0     O31673   5.341   4.697   8.929  0.1355 -0.2100  0.2220
  976MOL0     C31674   5.520   4.614   9.135  0.0510 -0.4118  0.4086
  976MOL0     C31675   5.634   4.571   9.206  0.9728  0.0153  0.1526
  976MOL0     N31676   6.184   4.205   9.441  1.3687  0.0019  0.4039
  976MOL0     N31677   6.268   4.107   9.438  0.1571  0.2444 -0.5682
  976MOL0     C31678   7.564   4.365   9.249 -0.0719  0.5319  0.4652
  976MOL0     C31679   7.688   4.420   9.206 -0.0094 -0.6590 -0.5307
  976MOL0     C31680   8.037   4.655   9.141  0.6103  0.2926 -0.4758
  976MOL0     C31681   8.100   4.566   9.054  0.1196 -0.0799 -0.9956
  976MOL0     C31682   8.239   4.573   9.044 -0.9860 -1.0090  0.2358
  976MOL0     C31683   8.314   4.658   9.127 -0.2952 -0.0391  0.0967
  976MOL0     O31684   8.444   4.676   9.133 -0.0762  0.1400 -0.2652
  976MOL0     C31685   8.526   4.574   9.058  0.4145  0.0331  0.0076
  976MOL0     C31686   8.671   4.588   9.072 -0.2703 -0.3607 -0.7105
  976MOL0     C31687   8.746   4.467   9.013  0.4285  0.2535 -0.2422
  976MOL0     C31688   8.896   4.485   9.024 -0.4850 -0.0028  0.2656
  976MOL0     C31689   8.948   4.501   9.163  0.2626  0.8373 -0.0591
  976MOL0     C31690   8.994   4.503   9.274  0.5882  0.8244 -0.5002
  976MOL0     C31691   8.248   4.723   9.231 -0.6368 -1.0729 -0.5100
  976MOL0     C31692   8.109   4.734   9.229  0.8433 -0.6748 -0.2574
  976MOL0     H31693   7.562   4.661   9.001  0.5452  0.4433  0.4437
  976MOL0     H31694   7.355   4.566   9.089 -1.3917 -0.5087  2.3597
  976MOL0     H31695   7.354   4.179   9.159  1.1789  1.8234  0.4082
  976MOL0     H31696   7.358   4.186   9.338  1.7042  0.6514 -0.2912
  976MOL0     H31697   7.111   4.210   9.152 -5.4779 -3.0162  1.9267
  976MOL0     H31698   7.161   4.070   9.231  0.5998  0.6621  0.3950
  976MOL0     H31699   7.138   4.189   9.444 -1.3429 -3.3634 -0.6754
  976MOL0     H31700   7.068   4.329   9.356  0.4629  0.1172  0.0117
  976MOL0     H31701   6.861   4.197   9.303 -0.6847  0.6561  1.3520
  976MOL0     H31702   6.943   4.054   9.352 -2.2843  0.3420 -1.3071
  976MOL0     H31703   6.913   4.096   9.579 -2.7336 -0.4641  2.1916
  976MOL0     H31704   6.883   4.265   9.565  2.7663 -1.3068  1.4892
  976MOL0     H31705   6.726   4.012   9.490  1.7616  0.6399 -1.6522
  976MOL0     H31706   6.697   4.118   9.625  1.1812 -2.2107 -0.0561
  976MOL0     H31707   6.566   4.253   9.509  0.1915 -2.1144  2.1201
  976MOL0     H31708   6.666   4.265   9.362 -0.4202  1.3294  0.1613
  976MOL0     H31709   6.525   4.005   9.412 -0.3725  0.7473 -1.1008
  976MOL0     H31710   6.550   4.099   9.262 -1.8351 -1.6035 -1.3218
  976MOL0     H31711   6.435   4.364   9.300 -0.1673  0.7031 -0.1045
  976MOL0     H31712   6.122   4.450   9.493  0.4913 -4.1276  0.6331
  976MOL0     H31713   6.273   4.524   9.428  1.2277 -1.7115 -0.3152
  976MOL0     H31714   6.181   4.482   9.201  1.4865  0.2002  0.0617
  976MOL0     H31715   6.098   4.620   9.282 -0.5776  0.5938  1.7657
  976MOL0     H31716   5.994   4.335   9.298  2.7925 -0.4526 -0.7267
  976MOL0     H31717   5.944   4.436   9.165  2.7678  1.1708 -0.6280
  976MOL0     H31718   5.912   4.503   9.462  0.4456 -1.4746 -1.2999
  976MOL0     H31719   5.781   4.436   9.371 -1.6092  1.4806  0.0298
  976MOL0     H31720   5.791   4.865   9.255  2.3499 -2.9560  0.3810
  976MOL0     H31721   5.584   4.976   8.973 -5.2955 -0.0751  1.0355
  976MOL0     H31722   5.535   5.047   9.118  1.4822  2.0000 -0.9989
  976MOL0     H31723   5.710   5.038   9.085 -0.0070  0.3966  1.6317
  976MOL0     H31724   5.101   4.825   9.003  2.3724  0.1720  0.9660
  976MOL0     H31725   4.938   4.884   8.860 -1.4233  1.8000  0.6705
  976MOL0     H31726   4.822   4.932   8.644  3.8501 -0.6241  1.1555
  976MOL0     H31727   4.776   5.067   8.746 -1.6251 -0.6394 -0.5400
  976MOL0     H31728   4.770   5.205   8.540 -0.0339 -0.6728  1.8785
  976MOL0     H31729   4.807   5.056   8.446  3.1148  2.7708 -0.9114
  976MOL0     H31730   4.564   5.048   8.629  4.1733  0.4820  0.9861
  976MOL0     H31731   4.607   4.947   8.492 -2.2440  0.2562 -2.5536
  976MOL0     H31732   4.558   5.235   8.463  0.4006 -0.0315 -0.4634
  976MOL0     H31733   4.573   5.118   8.334  0.0241  0.4968 -0.5451
  976MOL0     H31734   4.335   5.193   8.484 -0.5234 -2.8197  1.3916
  976MOL0     H31735   4.350   5.017   8.447 -1.3031 -1.0806 -2.0028
  976MOL0     H31736   4.348   5.254   8.247 -0.1329 -0.7400  0.2090
  976MOL0     H31737   4.405   5.094   8.207 -0.7551  1.4075 -1.5938
  976MOL0     H31738   4.135   5.186   8.320 -0.0513  2.5121 -2.4223
  976MOL0     H31739   4.183   5.013   8.270  2.9454  0.0265  1.7506
  976MOL0     H31740   4.039   5.103   8.116 -0.7406  0.2834 -4.3170
  976MOL0     H31741   4.203   5.084   8.038  0.3867  2.0413 -0.7174
  976MOL0     H31742   5.199   5.176   8.684  1.4576 -0.5646  0.4448
  976MOL0     H31743   5.383   5.093   8.832  0.5723  0.8558  3.5448
  976MOL0     H31744   5.433   4.550   9.129  0.3954 -0.8529  0.0849
  976MOL0     H31745   5.627   4.466   9.233  1.5394 -0.5977 -1.8923
  976MOL0     H31746   7.588   4.270   9.296  0.7874  0.6938  0.3613
  976MOL0     H31747   7.780   4.385   9.253 -0.7774  1.4583  2.9049
  976MOL0     H31748   8.047   4.490   8.997 -1.0476  0.0676 -0.1442
  976MOL0     H31749   8.290   4.520   8.965 -1.2465  0.5469 -1.0341
  976MOL0     H31750   8.519   4.475   9.105  1.7214  0.6777  1.6462
  976MOL0     H31751   8.498   4.564   8.953 -1.1337 -2.0926  0.5633
  976MOL0     H31752   8.704   4.597   9.176 -0.2145 -0.4661 -0.7188
  976MOL0     H31753   8.684   4.687   9.027 -0.4916  2.2364  4.2695
  976MOL0     H31754   8.710   4.442   8.913  0.7530 -2.3798  0.2378
  976MOL0     H31755   8.716   4.378   9.068  3.5896 -0.6389  0.2670
  976MOL0     H31756   8.926   4.567   8.958 -0.7072  0.8069  1.1387
  976MOL0     H31757   8.945   4.400   8.975 -0.4505  0.9213 -1.3711
  976MOL0     H31758   9.016   4.530   9.375 -0.0399  2.1994 -0.7115
  976MOL0     H31759   8.308   4.781   9.300 -1.5389  0.4796 -0.9824
  976MOL0     H31760   8.059   4.793   9.305  0.9388 -2.5699  1.3703
  977MOL0     O31761  10.404   2.547   9.445 -0.3824 -0.3850  0.0906
  977MOL0     C31762  10.473   2.613   9.367  0.1959  0.0092  0.2922
  977MOL0     O31763  10.438   2.738   9.322 -0.1052  1.1046 -0.5487
  977MOL0     C31764  10.323   2.786   9.376  0.4920  0.1157  0.9977
  977MOL0     C31765  10.213   2.803   9.289 -0.6281  0.1888 -0.1328
  977MOL0     C31766  10.095   2.864   9.342  0.1045  0.2429 -0.1673
  977MOL0     C31767  10.090   2.905   9.481  0.1825 -0.2981 -0.0239
  977MOL0     O31768   9.983   2.982   9.535 -0.3619  0.4938  0.2805
  977MOL0     C31769   9.854   2.953   9.485  0.0863  0.3064 -0.5315
  977MOL0     C31770   9.759   3.054   9.543  0.3741 -0.3291 -0.1109
  977MOL0     C31771   9.615   2.998   9.550 -0.6767  0.0896 -0.1008
  977MOL0     C31772   9.536   3.062   9.437  0.0239 -0.5130 -0.3173
  977MOL0     C31773   9.422   2.969   9.401 -0.0217  0.0077  0.1571
  977MOL0     C31774   9.331   2.921   9.522  0.4996 -0.2399 -0.2178
  977MOL0     C31775   9.188   2.856   9.501  0.6714 -0.3559 -0.2397
  977MOL0     C31776   9.085   2.965   9.547 -0.7533  0.2542  0.1587
  977MOL0     N31777   8.953   2.896   9.558  0.0685 -0.3096  0.4128
  977MOL0     C31778   8.874   2.866   9.450 -0.0726 -0.7413  0.8897
  977MOL0     C31779   8.759   2.823   9.504  0.0513 -0.0112  0.0113
  977MOL0     C31780   8.640   2.791   9.418  0.3252  0.0041  0.4748
  977MOL0     C31781   8.500   2.818   9.485  0.4606 -0.3716  0.1863
  977MOL0     C31782   8.481   2.970   9.495 -1.0036 -0.2285 -0.3549
  977MOL0     C31783   8.337   3.009   9.506 -0.2391 -0.1811 -0.4827
  977MOL0     O31784   8.287   2.976   9.378 -0.2603  0.3387 -0.2552
  977MOL0     C31785   8.150   2.983   9.359  0.6491 -1.0396 -0.4112
  977MOL0     C31786   8.054   3.008   9.461  0.6546 -1.0289  0.1882
  977MOL0     C31787   7.917   2.999   9.444 -0.7564  0.4037 -0.1424
  977MOL0     C31788   7.827   3.014   9.559 -0.3997  0.3413  0.3792
  977MOL0     C31789   7.873   2.963   9.311  0.5296  0.3026 -0.4109
  977MOL0     C31790   7.730   2.928   9.276  0.0767  0.2256  0.3894
  977MOL0     O31791   7.646   2.915   9.379 -0.1138 -0.8380 -0.3113
  977MOL0     C31792   7.520   2.865   9.359  0.2055 -0.3258  0.0360
  977MOL0     C31793   7.480   2.779   9.263  0.6738  0.8355  0.5475
  977MOL0     C31794   7.354   2.730   9.250  0.5045  0.5144 -0.6648
  977MOL0     C31795   7.250   2.773   9.338 -0.2628  0.5041  0.6609
  977MOL0     O31796   7.129   2.715   9.332 -0.1232 -1.1417  0.0186
  977MOL0     C31797   7.017   2.800   9.358  0.2095 -0.4718 -0.3967
  977MOL0     C31798   6.910   2.782   9.243 -0.2010  0.6578  0.0510
  977MOL0     C31799   6.782   2.859   9.254  0.5022 -0.9033  0.4936
  977MOL0     C31800   6.678   2.837   9.137 -0.1122  0.5351  1.0745
  977MOL0     C31801   6.531   2.842   9.187  0.5402  0.3086  0.3059
  977MOL0     C31802   6.425   2.834   9.076 -0.8281  0.5788  0.7714
  977MOL0     C31803   6.284   2.826   9.136  0.2009 -0.0470 -0.4089
  977MOL0     C31804   6.205   2.700   9.094  0.1437  0.4120  0.9327
  977MOL0    Cl31805   6.057   2.694   9.193 -0.5016  0.2594 -0.3076
  977MOL0     C31806   7.287   2.869   9.437  0.9513 -0.6415  0.6383
  977MOL0     C31807   7.420   2.917   9.441  0.1888  0.6929 -1.2094
  977MOL0     O31808   7.691   2.940   9.156  0.3583  0.3563  0.9109
  977MOL0     C31809   7.963   2.934   9.207 -0.3349 -0.0238 -0.4371
  977MOL0     C31810   8.096   2.941   9.239 -0.0274  0.9744  0.1604
  977MOL0     N31811   8.776   2.830   9.642  0.6307  0.6308  0.0398
  977MOL0     N31812   8.891   2.872   9.675  0.6674  0.7758  0.1918
  977MOL0     C31813  10.199   2.884   9.571 -0.7278 -0.7596  0.4925
  977MOL0     C31814  10.318   2.832   9.514 -0.0468  0.6619 -0.0304
  977MOL0     C31815  10.607   2.571   9.331  0.2458  0.5193 -0.4418
  977MOL0     C31816  10.668   2.628   9.219  0.1161  0.1441 -0.3493
  977MOL0     C31817  10.796   2.592   9.177 -0.0541 -0.5550 -0.3290
  977MOL0     C31818  10.859   2.490   9.245 -0.5944 -0.1446  0.2611
  977MOL0     O31819  10.987   2.443   9.212  0.3463 -0.2535  0.3018
  977MOL0     C31820  11.048   2.474   9.081  0.0517  0.4634  0.3391
  977MOL0     C31821  11.194   2.430   9.102 -0.0339 -0.5149  0.0776
  977MOL0     C31822  11.219   2.277   9.125 -0.0731 -0.6329 -0.6362
  977MOL0     C31823  11.378   2.248   9.120 -0.2926  0.4280 -0.2483
  977MOL0     C31824  11.467   2.320   9.213  0.8421  0.0933  0.2412
  977MOL0     C31825  11.531   2.393   9.282 -0.4836  1.0745  0.2033
  977MOL0     C31826  10.807   2.431   9.359 -0.8340  0.0879  0.0817
  977MOL0     C31827  10.676   2.467   9.394 -0.2368  0.3896 -0.1081
  977MOL0     H31828  10.221   2.775   9.185 -0.1576  1.2404 -0.3937
  977MOL0     H31829  10.020   2.871   9.265  0.4484  0.4457 -0.4838
  977MOL0     H31830   9.854   2.958   9.375  0.1377  0.5676 -0.5203
  977MOL0     H31831   9.837   2.848   9.509  2.7698  0.1739  1.1759
  977MOL0     H31832   9.794   3.082   9.643  0.8819 -0.7287 -0.1757
  977MOL0     H31833   9.769   3.145   9.483  1.6186 -1.8874 -2.3933
  977MOL0     H31834   9.615   2.890   9.530 -2.7807  0.4510 -2.6223
  977MOL0     H31835   9.557   3.022   9.640 -3.8057  1.4619 -2.2771
  977MOL0     H31836   9.480   3.154   9.460 -5.3622 -3.3229 -0.5608
  977MOL0     H31837   9.597   3.080   9.348 -1.4053 -2.6680 -1.8167
  977MOL0     H31838   9.356   3.023   9.333 -2.6415 -1.5007  1.3669
  977MOL0     H31839   9.452   2.874   9.356  0.2802 -0.8630  2.0956
  977MOL0     H31840   9.388   2.838   9.566 -2.6467 -0.8675  3.1016
  977MOL0     H31841   9.317   3.009   9.585  0.7733  0.9125 -1.7187
  977MOL0     H31842   9.179   2.828   9.395  0.0839 -0.5524 -0.1395
  977MOL0     H31843   9.185   2.762   9.555  1.3942  0.1635  0.7270
  977MOL0     H31844   9.076   3.048   9.477 -0.1481 -0.8968 -1.3281
  977MOL0     H31845   9.105   3.004   9.648 -0.7595 -2.7192  1.4384
  977MOL0     H31846   8.908   2.878   9.348  2.2995 -0.0311  1.7079
  977MOL0     H31847   8.654   2.847   9.325  1.7731 -2.6080 -1.0080
  977MOL0     H31848   8.642   2.684   9.392 -1.8236  0.1048 -0.3042
  977MOL0     H31849   8.487   2.775   9.585 -3.1970 -1.9937 -0.8227
  977MOL0     H31850   8.420   2.767   9.430 -1.1010 -0.1926  2.1732
  977MOL0     H31851   8.527   3.026   9.414  0.2077 -0.4474  0.1513
  977MOL0     H31852   8.537   3.001   9.584  0.8473 -2.3299 -0.6791
  977MOL0     H31853   8.322   3.115   9.530  1.6639 -0.2361  1.1643
  977MOL0     H31854   8.290   2.950   9.585  1.2198 -0.8245 -0.0562
  977MOL0     H31855   8.083   3.039   9.561 -1.6083 -0.5472  0.7668
  977MOL0     H31856   7.877   3.055   9.647  1.3285 -1.2855  0.2368
  977MOL0     H31857   7.735   3.073   9.551 -1.1786 -0.3207  3.3549
  977MOL0     H31858   7.791   2.917   9.594 -1.7230  1.0109  0.9197
  977MOL0     H31859   7.550   2.739   9.189  0.3541  1.4264 -0.0891
  977MOL0     H31860   7.336   2.650   9.179 -1.8198  1.2031 -0.9355
  977MOL0     H31861   6.954   2.764   9.440 -1.3027  3.7146  0.5476
  977MOL0     H31862   7.038   2.907   9.365 -0.3472 -0.2014 -2.2752
  977MOL0     H31863   6.941   2.794   9.139  0.0581  0.4968  0.1087
  977MOL0     H31864   6.883   2.676   9.243  0.8536  0.3688  0.5634
  977MOL0     H31865   6.798   2.967   9.260 -1.4586 -0.5601  0.3030
  977MOL0     H31866   6.723   2.838   9.344 -1.5408  1.2781 -0.2187
  977MOL0     H31867   6.686   2.914   9.060 -0.2072 -0.6901 -0.1919
  977MOL0     H31868   6.688   2.739   9.090 -0.4740 -0.1271  2.3386
  977MOL0     H31869   6.515   2.935   9.243 -0.8928 -0.6067  1.5221
  977MOL0     H31870   6.509   2.766   9.263 -2.1474  0.5449 -0.1428
  977MOL0     H31871   6.420   2.927   9.020 -0.6573  1.1675  1.7056
  977MOL0     H31872   6.445   2.751   9.008 -3.8813  0.6442 -0.3553
  977MOL0     H31873   6.239   2.916   9.094 -0.6336 -1.2623 -2.2607
  977MOL0     H31874   6.288   2.838   9.244  2.3410 -0.7185 -0.3601
  977MOL0     H31875   6.267   2.613   9.121  0.7941  0.4808 -0.2420
  977MOL0     H31876   6.180   2.710   8.988 -0.4808 -1.1646  0.9034
  977MOL0     H31877   7.219   2.916   9.507 -0.6686 -1.2915 -0.4322
  977MOL0     H31878   7.436   3.003   9.506 -1.3964  0.4648 -0.4464
  977MOL0     H31879   7.941   2.909   9.104 -1.1514 -2.5891  0.2736
  977MOL0     H31880   8.168   2.912   9.163  0.4267  2.3623  0.0158
  977MOL0     H31881  10.190   2.919   9.674 -2.0852  1.1318 -0.2119
  977MOL0     H31882  10.405   2.819   9.578  0.6635  1.5134 -0.7919
  977MOL0     H31883  10.615   2.704   9.162 -3.2191 -1.8982 -0.1861
  977MOL0     H31884  10.850   2.653   9.105 -0.7615 -0.4223 -0.7525
  977MOL0     H31885  11.013   2.416   8.995 -2.3940 -0.6510  1.9567
  977MOL0     H31886  11.039   2.580   9.060 -0.4255  0.5870  1.1127
  977MOL0     H31887  11.235   2.479   9.191  0.2930 -1.2086  0.3150
  977MOL0     H31888  11.261   2.459   9.020  0.2939 -1.6613 -0.0738
  977MOL0     H31889  11.171   2.224   9.042 -1.3209  1.3591 -1.2510
  977MOL0     H31890  11.182   2.239   9.220  0.6775 -1.5887 -0.6972
  977MOL0     H31891  11.411   2.286   9.023 -0.8137 -1.3996 -1.1973
  977MOL0     H31892  11.400   2.141   9.131 -0.8324  0.1270 -1.8509
  977MOL0     H31893  11.577   2.451   9.360 -0.8994 -0.1847  1.4351
  977MOL0     H31894  10.846   2.349   9.419 -1.0000 -0.2272 -0.2399
  977MOL0     H31895  10.623   2.407   9.467 -2.1251 -0.1595 -1.8285
  978MOL0     O31896   4.473   2.681   8.940 -0.8953 -0.8880  0.0706
  978MOL0     C31897   4.506   2.691   9.057  0.0698  0.4911  0.0736
  978MOL0     O31898   4.420   2.675   9.161 -0.5232 -0.0026  0.9680
  978MOL0     C31899   4.289   2.690   9.130 -0.0206  0.9800  0.0532
  978MOL0     C31900   4.194   2.583   9.149 -0.3373  0.5077  0.3380
  978MOL0     C31901   4.057   2.606   9.126  0.0619 -0.3561  0.3345
  978MOL0     C31902   4.000   2.735   9.097 -0.6613  0.0192  0.0814
  978MOL0     O31903   3.865   2.756   9.079 -0.2103  0.2786 -0.3537
  978MOL0     C31904   3.771   2.649   9.078 -0.6941  0.0939  0.1750
  978MOL0     C31905   3.643   2.683   9.000 -0.5052 -0.1378  0.1646
  978MOL0     C31906   3.539   2.584   9.047 -0.2251  0.1312  0.3774
  978MOL0     C31907   3.493   2.616   9.195  0.4078 -0.2522 -1.2831
  978MOL0     C31908   3.352   2.549   9.219  0.5762  0.2929 -0.0920
  978MOL0     C31909   3.244   2.641   9.165 -0.9005 -0.2167 -0.3144
  978MOL0     C31910   3.105   2.594   9.205  0.5986  0.7479 -0.1999
  978MOL0     C31911   3.069   2.580   9.356 -0.1977  0.0708 -0.9164
  978MOL0     N31912   2.930   2.553   9.389 -0.1289 -0.0510 -0.1371
  978MOL0     C31913   2.828   2.634   9.401 -0.1268 -0.6606 -0.6675
  978MOL0     C31914   2.713   2.561   9.399 -0.5673 -0.2362 -0.0186
  978MOL0     C31915   2.578   2.612   9.388  0.1665 -0.3492  0.7469
  978MOL0     C31916   2.510   2.578   9.506  0.1711 -0.0622 -0.8884
  978MOL0     C31917   2.359   2.608   9.516  0.0746 -0.6226  0.4955
  978MOL0     C31918   2.332   2.756   9.558  0.1932  0.5346  0.6941
  978MOL0     O31919   2.345   2.751   9.702 -0.0311 -0.1716  0.7024
  978MOL0     C31920   2.301   2.854   9.777  0.4492  0.0755  0.0574
  978MOL0     C31921   2.280   2.835   9.914 -0.2003  0.2023 -0.3920
  978MOL0     C31922   2.220   2.937   9.998 -0.0091 -0.0018  0.0321
  978MOL0     C31923   2.227   2.919  10.150  0.0485 -0.7515  1.0716
  978MOL0     C31924   2.185   3.060   9.935 -0.0316  0.2503  0.2238
  978MOL0     C31925   2.135   3.172  10.017  0.0719  0.0817  0.9025
  978MOL0     O31926   2.032   3.141  10.096  0.0301 -0.7093 -0.4211
  978MOL0     C31927   1.957   3.226  10.171 -0.1998 -0.6770 -0.0285
  978MOL0     C31928   1.964   3.368  10.174  0.2963  0.5121  0.0497
  978MOL0     C31929   1.861   3.442  10.237 -1.2529  0.5556  0.2012
  978MOL0     C31930   1.750   3.383  10.297  0.2126 -1.1393  0.4180
  978MOL0     O31931   1.660   3.475  10.355  0.4235  0.0234 -0.7339
  978MOL0     C31932   1.561   3.409  10.431 -0.7815 -0.0415  0.7564
  978MOL0     C31933   1.500   3.522  10.503 -0.4844 -0.2454 -0.0353
  978MOL0     C31934   1.405   3.478  10.609  0.3584 -0.3380  0.4335
  978MOL0     C31935   1.460   3.427  10.747 -0.1069 -0.2717  1.4199
  978MOL0     C31936   1.340   3.417  10.845 -0.4662  0.3600  0.5371
  978MOL0     C31937   1.296   3.550  10.889  0.0089 -0.2575  0.3917
  978MOL0     C31938   1.198   3.537  10.998  0.3217 -0.0506  0.5811
  978MOL0     C31939   1.112   3.658  11.019 -0.3763  0.4568 -0.9778
  978MOL0    Cl31940   1.105   3.697  11.196 -0.1666  0.6755  0.2556
  978MOL0     C31941   1.750   3.242  10.300  0.6717  0.3473  0.4981
  978MOL0     C31942   1.850   3.165  10.241  1.0624  0.2048 -0.5542
  978MOL0     O31943   2.188   3.282  10.005  0.1814  0.2593 -0.5226
  978MOL0     C31944   2.193   3.076   9.799 -0.3670  0.8285  0.2288
  978MOL0     C31945   2.255   2.977   9.718 -0.0830 -0.1297  0.0797
  978MOL0     N31946   2.745   2.428   9.394 -0.6458 -0.3506 -0.0805
  978MOL0     N31947   2.869   2.427   9.370 -0.2756  0.1429  0.4921
  978MOL0     C31948   4.089   2.841   9.084  0.1224  0.1620 -0.1029
  978MOL0     C31949   4.230   2.822   9.098  0.2521  0.6186 -0.9014
  978MOL0     C31950   4.647   2.680   9.082  0.7012  0.3302  0.4773
  978MOL0     C31951   4.690   2.683   9.216 -0.4562 -0.3451  0.5174
  978MOL0     C31952   4.827   2.682   9.246  0.6627 -0.4403 -0.1850
  978MOL0     C31953   4.917   2.671   9.139 -0.0692  0.0358  0.6549
  978MOL0     O31954   5.048   2.666   9.175 -0.3999 -0.6279  0.2353
  978MOL0     C31955   5.146   2.615   9.081  0.0712 -0.7975  0.0942
  978MOL0     C31956   5.271   2.575   9.158 -0.0332 -0.7081  0.2565
  978MOL0     C31957   5.331   2.697   9.224 -0.4280 -0.1204 -0.2775
  978MOL0     C31958   5.452   2.671   9.317  0.4261 -0.7420  0.5037
  978MOL0     C31959   5.571   2.639   9.233  0.1663  0.2681 -0.5321
  978MOL0     C31960   5.655   2.604   9.159 -1.1215  0.1025  0.2716
  978MOL0     C31961   4.868   2.667   9.005  0.0407  0.4119 -0.1229
  978MOL0     C31962   4.729   2.679   8.976  0.6360 -0.6531  0.7516
  978MOL0     H31963   4.234   2.488   9.184  2.1710  1.8962  1.5019
  978MOL0     H31964   3.992   2.522   9.149 -0.6039  0.6881  2.4521
  978MOL0     H31965   3.811   2.568   9.017 -0.3542  0.0977  0.3913
  978MOL0     H31966   3.758   2.607   9.178  2.2239  0.0387  0.6262
  978MOL0     H31967   3.615   2.783   9.034  0.3073 -0.4813  1.9670
  978MOL0     H31968   3.664   2.686   8.892 -0.3496  1.8694  0.2072
  978MOL0     H31969   3.448   2.599   8.990 -0.2715  0.3020  0.4934
  978MOL0     H31970   3.580   2.483   9.040 -1.1264 -0.1846 -0.5125
  978MOL0     H31971   3.571   2.578   9.262 -1.3227 -2.7170 -0.4992
  978MOL0     H31972   3.487   2.725   9.198 -1.5543 -0.3087 -1.4340
  978MOL0     H31973   3.360   2.454   9.167 -0.4867  1.9426 -3.5298
  978MOL0     H31974   3.340   2.539   9.328  2.4794  2.7257  0.4297
  978MOL0     H31975   3.267   2.734   9.219  3.1894 -0.3390 -1.4719
  978MOL0     H31976   3.255   2.660   9.058  0.4300 -1.5026 -0.4403
  978MOL0     H31977   3.038   2.669   9.162  0.9061  0.4891 -1.1573
  978MOL0     H31978   3.088   2.501   9.149  1.2460 -0.3858  1.4109
  978MOL0     H31979   3.105   2.664   9.416  1.1299 -0.3582 -1.0784
  978MOL0     H31980   3.117   2.489   9.394 -0.6438 -0.6542 -2.0445
  978MOL0     H31981   2.832   2.743   9.399  0.9614 -0.6986 -0.9341
  978MOL0     H31982   2.574   2.719   9.367 -0.0532 -0.8553 -2.1842
  978MOL0     H31983   2.535   2.565   9.300  2.6341 -0.6239 -0.3979
  978MOL0     H31984   2.561   2.626   9.591 -1.8191  0.1197  0.2572
  978MOL0     H31985   2.520   2.471   9.523 -2.9407 -0.2295  0.5059
  978MOL0     H31986   2.310   2.547   9.593 -2.4573 -0.9726 -1.2597
  978MOL0     H31987   2.290   2.588   9.434  0.7977  0.2360 -0.3453
  978MOL0     H31988   2.228   2.775   9.528 -0.4658 -1.5003  1.5435
  978MOL0     H31989   2.400   2.826   9.507  1.5309 -1.0797  0.1735
  978MOL0     H31990   2.325   2.752   9.968  1.4147  1.0007 -0.4245
  978MOL0     H31991   2.273   2.825  10.182  1.9363 -0.3555 -0.3145
  978MOL0     H31992   2.280   3.004  10.191  1.9889 -2.1327  1.5482
  978MOL0     H31993   2.127   2.910  10.193  0.2135 -4.8141  1.0163
  978MOL0     H31994   2.042   3.424  10.124  1.4032 -0.4798  0.5848
  978MOL0     H31995   1.875   3.549  10.233  0.6322  0.3191 -0.9933
  978MOL0     H31996   1.476   3.369  10.375 -0.2078  1.2531 -1.1372
  978MOL0     H31997   1.608   3.343  10.504  0.4881 -0.6428 -0.5370
  978MOL0     H31998   1.581   3.585  10.541 -0.8468 -0.3026  0.8762
  978MOL0     H31999   1.446   3.586  10.433  0.4157  1.3385  0.6688
  978MOL0     H32000   1.348   3.398  10.561  0.6138  0.2200 -0.8528
  978MOL0     H32001   1.334   3.560  10.624 -0.2679 -0.8631  0.3859
  978MOL0     H32002   1.502   3.326  10.737 -1.1546 -0.6876  0.9811
  978MOL0     H32003   1.534   3.492  10.794  0.0041  0.4096  0.3196
  978MOL0     H32004   1.369   3.355  10.930  0.8206 -3.0364 -2.1290
  978MOL0     H32005   1.256   3.360  10.805  0.1836 -1.2907  1.4206
  978MOL0     H32006   1.379   3.616  10.916  0.7470  0.3846 -2.9858
  978MOL0     H32007   1.236   3.591  10.807 -1.1830 -2.7946 -0.1190
  978MOL0     H32008   1.245   3.508  11.093 -1.2596 -1.6683  0.9325
  978MOL0     H32009   1.131   3.452  10.976 -1.0357  1.1857 -0.2269
  978MOL0     H32010   1.021   3.627  10.967  1.5932 -1.1347 -3.7818
  978MOL0     H32011   1.162   3.738  10.964  2.0011  0.2724  0.7566
  978MOL0     H32012   1.666   3.192  10.347 -0.4664  2.2951  0.6495
  978MOL0     H32013   1.836   3.058  10.255 -3.3221  0.6844  0.1179
  978MOL0     H32014   2.149   3.165   9.754 -0.5490 -0.0933 -1.4857
  978MOL0     H32015   2.259   3.005   9.613 -0.4176 -3.6052 -0.9964
  978MOL0     H32016   4.053   2.941   9.066 -2.8157 -0.6965  0.4821
  978MOL0     H32017   4.297   2.907   9.088  1.8295 -0.4234  0.3432
  978MOL0     H32018   4.628   2.694   9.304 -0.6157 -0.2334  0.3911
  978MOL0     H32019   4.869   2.700   9.345  0.5240  2.0535 -0.5163
  978MOL0     H32020   5.110   2.522   9.037  4.1234 -2.5277  0.0220
  978MOL0     H32021   5.171   2.696   9.012 -2.8218  3.6594  3.6443
  978MOL0     H32022   5.347   2.538   9.089  0.6115  1.3111 -0.1839
  978MOL0     H32023   5.253   2.502   9.237 -0.7557 -3.3416 -2.1801
  978MOL0     H32024   5.254   2.740   9.289 -1.6745  0.7466 -2.2383
  978MOL0     H32025   5.361   2.764   9.143 -2.4840  0.3623 -0.7057
  978MOL0     H32026   5.425   2.594   9.390  3.0239 -2.8265 -0.6090
  978MOL0     H32027   5.480   2.758   9.378 -1.4296 -0.9427  1.7313
  978MOL0     H32028   5.732   2.581   9.088  0.1750  1.8503  1.0332
  978MOL0     H32029   4.940   2.648   8.925  1.9889  1.5238  1.2768
  978MOL0     H32030   4.700   2.676   8.871 -1.4990 -1.8349  1.3303
  979MOL0     O32031   1.766   8.149   0.719  0.4147 -0.4138 -0.0241
  979MOL0     C32032   1.824   8.061   0.660  0.5090 -0.1172  0.6273
  979MOL0     O32033   1.786   7.940   0.646 -0.4381 -0.9358  0.3383
  979MOL0     C32034   1.665   7.899   0.693  0.0786 -0.2181 -0.5622
  979MOL0     C32035   1.551   7.947   0.633  0.1982  0.2447 -0.1088
  979MOL0     C32036   1.427   7.908   0.690  0.2311 -0.0140  0.4086
  979MOL0     C32037   1.421   7.817   0.797  0.2091  0.3809  0.2376
  979MOL0     O32038   1.287   7.791   0.832  0.1179  0.0706 -0.2393
  979MOL0     C32039   1.273   7.698   0.950 -0.5634 -0.1196  0.3020
  979MOL0     C32040   1.138   7.628   0.940 -0.2539 -0.2222 -0.2324
  979MOL0     C32041   1.009   7.707   0.971 -0.2075 -0.6930 -0.0071
  979MOL0     C32042   0.896   7.616   0.918  0.1798 -1.1683  0.5785
  979MOL0     C32043   0.764   7.696   0.911  0.2080 -0.1107 -0.0619
  979MOL0     C32044   0.749   7.791   0.785 -0.2579 -0.4632 -0.4887
  979MOL0     C32045   0.603   7.834   0.756 -0.1354  0.5198  0.0192
  979MOL0     C32046   0.576   7.968   0.677 -0.8962 -0.3561 -0.2394
  979MOL0     N32047   0.439   7.971   0.634  0.5848  0.3172  0.9182
  979MOL0     C32048   0.327   7.975   0.720 -0.5060 -0.0547 -0.3579
  979MOL0     C32049   0.223   7.994   0.635  0.5005  0.7531  0.2085
  979MOL0     C32050   0.077   7.970   0.672  0.0264  0.5784 -0.3219
  979MOL0     C32051   0.031   7.829   0.642 -0.1927 -0.0306  0.0684
  979MOL0     C32052  -0.114   7.806   0.691  0.1847  0.7882  0.5796
  979MOL0     C32053  -0.214   7.912   0.634  0.0570  0.4739  0.1313
  979MOL0     O32054  -0.352   7.864   0.665 -0.1091 -0.1963 -0.1071
  979MOL0     C32055  -0.461   7.957   0.642 -0.3265 -0.8607  0.0070
  979MOL0     C32056  -0.447   8.089   0.596 -0.4635 -0.2783  0.2443
  979MOL0     C32057  -0.551   8.189   0.584 -0.5267 -0.3210  0.4549
  979MOL0     C32058  -0.512   8.335   0.538  0.0908  0.4294  0.8006
  979MOL0     C32059  -0.676   8.138   0.610  1.1455  0.4664 -0.1698
  979MOL0     C32060  -0.793   8.224   0.605  0.0920  0.7509  0.8843
  979MOL0     O32061  -0.780   8.361   0.574  0.1814  0.4557 -0.6866
  979MOL0     C32062  -0.881   8.442   0.542 -0.3248  0.1256  0.5116
  979MOL0     C32063  -0.867   8.529   0.430 -0.4649  0.6475  0.6204
  979MOL0     C32064  -0.966   8.617   0.384 -0.5962 -0.0434 -0.8454
  979MOL0     C32065  -1.095   8.610   0.444 -0.1590  0.1443  0.3210
  979MOL0     O32066  -1.197   8.682   0.388  0.1650 -0.7621  0.4295
  979MOL0     C32067  -1.323   8.615   0.379  0.1378 -0.3735  0.8555
  979MOL0     C32068  -1.412   8.671   0.270  0.9307 -0.4194 -0.0184
  979MOL0     C32069  -1.547   8.600   0.271 -0.1882  0.2892  0.1189
  979MOL0     C32070  -1.636   8.641   0.157 -0.7516  0.4253 -0.1717
  979MOL0     C32071  -1.777   8.584   0.170 -0.3792  0.1084  0.3216
  979MOL0     C32072  -1.855   8.602   0.046  1.3230  0.4898  0.2547
  979MOL0     C32073  -2.002   8.574   0.052 -0.5939  0.3340  0.7250
  979MOL0     C32074  -2.081   8.658   0.155 -0.4625 -0.1177  0.5780
  979MOL0    Cl32075  -2.252   8.714   0.112 -0.2604  0.7055  0.1566
  979MOL0     C32076  -1.104   8.539   0.559  0.2274 -0.0056  0.0077
  979MOL0     C32077  -1.000   8.453   0.609 -0.2600 -0.2970 -0.7699
  979MOL0     O32078  -0.904   8.166   0.607 -0.2203  0.1667 -0.0048
  979MOL0     C32079  -0.698   7.999   0.637 -0.5208 -1.0025  0.3487
  979MOL0     C32080  -0.589   7.908   0.659  0.5852 -0.1355 -0.1139
  979MOL0     N32081   0.275   8.009   0.506 -0.1117 -0.2840  0.8094
  979MOL0     N32082   0.403   8.005   0.507  0.2799  0.1436  0.2551
  979MOL0     C32083   1.539   7.766   0.850  0.1379  0.0094 -0.3773
  979MOL0     C32084   1.661   7.812   0.807 -0.7942  0.3730  0.0780
  979MOL0     C32085   1.939   8.113   0.579 -0.7153 -0.8453  0.8757
  979MOL0     C32086   1.981   8.248   0.586  0.2933 -0.0665  0.8064
  979MOL0     C32087   2.081   8.282   0.496  0.2772 -0.9405 -0.7375
  979MOL0     C32088   2.141   8.199   0.407  0.4507  1.1791  0.5796
  979MOL0     O32089   2.232   8.253   0.317 -0.1278 -0.5673 -0.5100
  979MOL0     C32090   2.267   8.198   0.190  0.5314 -0.2919  0.5272
  979MOL0     C32091   2.135   8.182   0.106  0.1150 -0.0513  0.4662
  979MOL0     C32092   2.158   8.221  -0.039 -0.7378 -0.6057 -0.0520
  979MOL0     C32093   2.043   8.182  -0.128  0.1015 -0.5600 -0.0599
  979MOL0     C32094   2.069   8.210  -0.269 -0.8342 -0.6706  0.1264
  979MOL0     C32095   2.092   8.229  -0.387 -0.1452  0.3241  0.1270
  979MOL0     C32096   2.097   8.067   0.405 -0.6605  0.1200 -0.8794
  979MOL0     C32097   2.008   8.021   0.497  0.1831 -0.4378  0.1826
  979MOL0     H32098   1.562   8.004   0.542  1.7005  0.9084  0.4487
  979MOL0     H32099   1.336   7.954   0.653  1.6852  0.1569 -3.4699
  979MOL0     H32100   1.352   7.623   0.959  1.3102  1.6580 -0.5872
  979MOL0     H32101   1.273   7.744   1.050 -2.8432 -0.8590  0.7020
  979MOL0     H32102   1.123   7.583   0.841 -1.9343 -2.2533  0.8568
  979MOL0     H32103   1.144   7.544   1.009 -0.0907  1.4187  1.8317
  979MOL0     H32104   1.009   7.722   1.080 -1.1823 -1.0734  0.0538
  979MOL0     H32105   1.009   7.805   0.923  1.0652  0.7888  2.7544
  979MOL0     H32106   0.921   7.598   0.813  0.6074 -2.2156  0.8453
  979MOL0     H32107   0.886   7.522   0.973  0.0268  0.4808  3.5752
  979MOL0     H32108   0.682   7.623   0.901  0.6754 -0.2879 -5.1430
  979MOL0     H32109   0.748   7.755   1.002 -1.6524  1.6415 -1.4401
  979MOL0     H32110   0.817   7.876   0.794 -0.1105 -0.3889 -1.9337
  979MOL0     H32111   0.798   7.746   0.698  2.6931  0.9953  0.2649
  979MOL0     H32112   0.561   7.754   0.694 -1.2675  1.0227  0.1067
  979MOL0     H32113   0.547   7.830   0.850 -0.2823 -0.9451 -0.0998
  979MOL0     H32114   0.637   7.983   0.587 -1.7315  0.0098 -0.7604
  979MOL0     H32115   0.603   8.056   0.735  0.9099 -1.3278  0.4817
  979MOL0     H32116   0.336   7.959   0.827 -1.5491 -0.0641 -0.2653
  979MOL0     H32117   0.061   7.982   0.779  1.0655 -1.4530  0.1097
  979MOL0     H32118   0.022   8.055   0.629  0.1342  1.3317  0.9638
  979MOL0     H32119   0.101   7.750   0.672 -1.1460 -1.5022 -1.4062
  979MOL0     H32120   0.028   7.819   0.533  1.1669 -2.3951  0.1751
  979MOL0     H32121  -0.105   7.814   0.799  2.6902  0.4697  0.4582
  979MOL0     H32122  -0.152   7.708   0.662 -1.5115  0.6308  3.0541
  979MOL0     H32123  -0.196   7.936   0.529 -0.8760  1.3770  0.1627
  979MOL0     H32124  -0.194   8.004   0.689 -0.8659 -0.1898  1.6701
  979MOL0     H32125  -0.349   8.133   0.579 -0.5994  0.5690  1.5070
  979MOL0     H32126  -0.540   8.342   0.433  0.0493 -1.4009  0.6491
  979MOL0     H32127  -0.564   8.410   0.598  3.1786  1.8989  1.8526
  979MOL0     H32128  -0.405   8.348   0.554  0.1854 -0.3828  0.8684
  979MOL0     H32129  -0.772   8.533   0.376 -0.6776 -0.5947  0.1328
  979MOL0     H32130  -0.955   8.680   0.296  3.5051 -0.3026 -0.7308
  979MOL0     H32131  -1.297   8.511   0.357  2.3238 -0.3828  3.0052
  979MOL0     H32132  -1.375   8.601   0.474 -0.8500 -3.5278 -0.0239
  979MOL0     H32133  -1.427   8.779   0.279  0.5993 -0.4902  0.3144
  979MOL0     H32134  -1.356   8.647   0.180  4.2908 -1.1538  2.0802
  979MOL0     H32135  -1.590   8.623   0.368  0.2126  1.4783  0.0260
  979MOL0     H32136  -1.528   8.492   0.266 -0.9807 -0.0271  2.5777
  979MOL0     H32137  -1.645   8.750   0.147 -3.4509  0.0748 -2.8555
  979MOL0     H32138  -1.597   8.606   0.062 -2.1513  0.1444 -0.6687
  979MOL0     H32139  -1.818   8.644   0.252 -1.3977 -3.2564  2.4947
  979MOL0     H32140  -1.762   8.479   0.195  0.9136  0.0119 -0.7449
  979MOL0     H32141  -1.847   8.705   0.010  1.3612  0.3091 -0.2669
  979MOL0     H32142  -1.812   8.531  -0.025 -0.6033 -0.4548 -0.0176
  979MOL0     H32143  -2.018   8.467   0.069 -1.0283  0.1765 -0.5865
  979MOL0     H32144  -2.042   8.601  -0.046 -0.4684  2.7974  1.3002
  979MOL0     H32145  -2.025   8.749   0.179 -3.2484  1.7010  0.6194
  979MOL0     H32146  -2.081   8.606   0.251  0.0604  0.5518  0.9555
  979MOL0     H32147  -1.193   8.551   0.620 -0.0420  1.0403 -0.5749
  979MOL0     H32148  -1.023   8.384   0.689  2.1898  0.7577  0.9526
  979MOL0     H32149  -0.797   7.957   0.649  0.4054 -2.8316  2.0999
  979MOL0     H32150  -0.608   7.807   0.695 -1.3073  0.9092  2.0330
  979MOL0     H32151   1.565   7.701   0.933  1.0625 -2.1239 -2.2261
  979MOL0     H32152   1.749   7.800   0.869 -0.7450  2.7589  0.5821
  979MOL0     H32153   1.934   8.318   0.654 -1.8848 -2.2918  1.7791
  979MOL0     H32154   2.111   8.385   0.478 -1.9005 -0.3051 -0.9507
  979MOL0     H32155   2.330   8.266   0.131  0.9416  0.7139  2.0667
  979MOL0     H32156   2.317   8.103   0.207  0.5429  0.2296  4.2218
  979MOL0     H32157   2.052   8.244   0.143 -0.2131 -1.0754  1.4997
  979MOL0     H32158   2.099   8.079   0.108  1.6719 -0.6089  2.2795
  979MOL0     H32159   2.252   8.185  -0.082  0.1128 -1.3058  2.2822
  979MOL0     H32160   2.158   8.331  -0.046 -1.2501 -0.5352  1.0094
  979MOL0     H32161   1.963   8.249  -0.097 -0.8187 -0.0372 -3.2028
  979MOL0     H32162   2.012   8.078  -0.116 -2.2533  0.3745  3.1980
  979MOL0     H32163   2.095   8.247  -0.493 -1.7372 -1.8295 -0.3598
  979MOL0     H32164   2.144   8.002   0.331 -2.6916 -0.3792 -1.8001
  979MOL0     H32165   1.977   7.917   0.505  0.1936 -0.3658  1.3870
  980MOL0     O32166  10.389   6.393   1.046 -0.2632 -1.1280 -0.2364
  980MOL0     C32167  10.337   6.331   0.957 -0.0387  0.1284  0.8054
  980MOL0     O32168  10.202   6.315   0.931  1.0008 -0.2221 -0.4428
  980MOL0     C32169  10.112   6.378   1.016  0.1894 -0.4817 -0.3238
  980MOL0     C32170  10.111   6.515   1.029 -0.3256  0.4082  0.6086
  980MOL0     C32171  10.022   6.573   1.113 -0.3632 -0.3498  0.5360
  980MOL0     C32172   9.937   6.497   1.201  0.5660  0.4473  0.5340
  980MOL0     O32173   9.843   6.542   1.294 -0.4599 -0.0816  0.3782
  980MOL0     C32174   9.845   6.680   1.327  0.3437 -0.0827 -0.3084
  980MOL0     C32175   9.733   6.707   1.430  0.5027  0.2269  0.2892
  980MOL0     C32176   9.598   6.738   1.359 -0.8706  0.9655  0.2242
  980MOL0     C32177   9.555   6.654   1.244  0.0503  0.2746 -0.3101
  980MOL0     C32178   9.429   6.720   1.190 -0.9293  0.2848 -0.0051
  980MOL0     C32179   9.361   6.649   1.071 -0.0254 -0.2253  0.2198
  980MOL0     C32180   9.314   6.503   1.109 -0.2575  0.4737  0.1415
  980MOL0     C32181   9.241   6.431   0.995 -0.3113 -0.5269  0.7486
  980MOL0     N32182   9.207   6.285   1.010  0.4508 -0.2157 -0.0003
  980MOL0     C32183   9.291   6.176   1.021  0.6282 -0.6321  0.5895
  980MOL0     C32184   9.212   6.071   1.011  1.1087 -0.3870  0.0672
  980MOL0     C32185   9.252   5.928   1.008  0.5567 -0.2206  0.5209
  980MOL0     C32186   9.161   5.853   1.104 -0.6740 -0.2365 -0.5052
  980MOL0     C32187   9.152   5.700   1.082  0.7360  0.0484 -0.7424
  980MOL0     C32188   9.090   5.658   0.950 -0.5238  0.4002 -1.0291
  980MOL0     O32189   8.961   5.728   0.911 -0.0099 -0.5143 -0.1799
  980MOL0     C32190   8.863   5.642   0.857 -0.2453 -0.8951  0.0041
  980MOL0     C32191   8.896   5.591   0.731  0.3593 -0.3017  0.2734
  980MOL0     C32192   8.821   5.492   0.669 -0.3683  0.4744  0.5699
  980MOL0     C32193   8.874   5.434   0.530  0.1950 -0.0145  0.1596
  980MOL0     C32194   8.697   5.455   0.718 -0.1206  0.5306 -0.6085
  980MOL0     C32195   8.592   5.356   0.658  0.5729 -0.0623 -0.4595
  980MOL0     O32196   8.479   5.342   0.734  0.0698 -0.1903 -0.7103
  980MOL0     C32197   8.390   5.246   0.715 -0.2225  1.1197 -0.7791
  980MOL0     C32198   8.438   5.116   0.699 -0.0946 -0.1990 -0.0129
  980MOL0     C32199   8.346   5.010   0.705 -0.8570 -0.4751 -0.3311
  980MOL0     C32200   8.205   5.042   0.709 -1.3010  0.5556  0.5831
  980MOL0     O32201   8.127   4.930   0.704 -0.8221 -0.8335 -0.2450
  980MOL0     C32202   7.987   4.955   0.703  0.2706  0.1348  0.0906
  980MOL0     C32203   7.902   4.829   0.696  1.1322  0.0822  0.9466
  980MOL0     C32204   7.764   4.871   0.656 -1.2062 -0.6517 -0.1368
  980MOL0     C32205   7.668   4.760   0.640 -0.0892  0.1529 -0.2725
  980MOL0     C32206   7.681   4.672   0.522  0.1207 -0.0199  0.3809
  980MOL0     C32207   7.707   4.747   0.391 -0.3801  0.2162 -0.3601
  980MOL0     C32208   7.719   4.647   0.280  0.3141  0.0418  1.2855
  980MOL0     C32209   7.802   4.699   0.170 -0.1658 -0.4450 -0.5273
  980MOL0    Cl32210   7.973   4.643   0.214  0.0525 -0.2139 -0.0822
  980MOL0     C32211   8.164   5.174   0.718  0.1838 -0.4012 -0.1053
  980MOL0     C32212   8.256   5.276   0.723 -0.3777  0.0531 -0.3739
  980MOL0     O32213   8.619   5.297   0.555  0.6116 -0.1470 -0.1982
  980MOL0     C32214   8.663   5.516   0.844  1.1125  0.4190 -0.7553
  980MOL0     C32215   8.741   5.601   0.917 -0.4710 -0.0712  0.4668
  980MOL0     N32216   9.079   6.107   0.989 -0.6296  0.0931  0.7142
  980MOL0     N32217   9.081   6.240   0.994  0.0270 -0.5620 -0.1824
  980MOL0     C32218   9.943   6.357   1.196  0.4168  0.1609  0.1421
  980MOL0     C32219  10.025   6.297   1.095 -0.2653 -0.0009 -0.0750
  980MOL0     C32220  10.430   6.239   0.884 -0.6322 -0.0344 -0.1121
  980MOL0     C32221  10.394   6.161   0.777  0.3431  0.5394  0.3731
  980MOL0     C32222  10.482   6.070   0.725 -0.0842  0.1025  0.0916
  980MOL0     C32223  10.616   6.056   0.779  0.9206  0.1709 -0.3852
  980MOL0     O32224  10.694   5.956   0.732  0.3342  0.7915  0.4969
  980MOL0     C32225  10.678   5.831   0.799  0.2470 -0.6930 -0.1249
  980MOL0     C32226  10.808   5.788   0.873  0.9907 -0.0625  0.2199
  980MOL0     C32227  10.875   5.901   0.947  0.4483 -0.6232 -0.5651
  980MOL0     C32228  10.996   5.856   1.036  0.2042 -1.2176 -0.9496
  980MOL0     C32229  11.080   5.749   0.989 -0.2118 -0.2000 -0.2478
  980MOL0     C32230  11.142   5.663   0.928  1.4261 -0.2639 -0.4162
  980MOL0     C32231  10.655   6.138   0.877  0.0093  0.5524 -0.0037
  980MOL0     C32232  10.560   6.224   0.934  0.0252  1.1945  0.6282
  980MOL0     H32233  10.175   6.578   0.968 -0.8345  1.5127  1.1939
  980MOL0     H32234  10.016   6.681   1.117 -1.7197 -0.3796 -0.2621
  980MOL0     H32235   9.946   6.700   1.362 -0.5184  0.9800  1.7495
  980MOL0     H32236   9.816   6.735   1.237 -1.7552  0.4027  0.5982
  980MOL0     H32237   9.723   6.625   1.502 -0.2543 -0.0509 -0.1192
  980MOL0     H32238   9.768   6.796   1.483 -0.3588  0.3304  0.6936
  980MOL0     H32239   9.512   6.743   1.427  1.0735  3.1312  2.7246
  980MOL0     H32240   9.608   6.841   1.325 -0.0161  0.3769 -1.4223
  980MOL0     H32241   9.632   6.643   1.166  0.5020  0.7825  0.0545
  980MOL0     H32242   9.539   6.551   1.278 -1.0260  0.5085 -0.0747
  980MOL0     H32243   9.362   6.726   1.276 -1.1066 -2.3262  0.1101
  980MOL0     H32244   9.458   6.819   1.154  1.8950 -0.2794  0.4632
  980MOL0     H32245   9.271   6.705   1.044 -0.1686  0.7075  2.4183
  980MOL0     H32246   9.427   6.648   0.984  1.4021  0.3632  1.2654
  980MOL0     H32247   9.401   6.442   1.136 -2.2428 -1.9474  1.4585
  980MOL0     H32248   9.246   6.503   1.194 -1.0913 -2.2059 -0.4309
  980MOL0     H32249   9.318   6.427   0.917 -2.1499 -2.1357 -1.0744
  980MOL0     H32250   9.155   6.490   0.961 -0.2657 -1.2220 -0.6241
  980MOL0     H32251   9.399   6.166   1.018  0.5671 -1.1900 -1.2405
  980MOL0     H32252   9.242   5.881   0.910 -1.0313  0.4678  0.3238
  980MOL0     H32253   9.358   5.923   1.036 -0.1906 -1.4037  3.5939
  980MOL0     H32254   9.057   5.887   1.101 -1.5219 -2.5495  0.2345
  980MOL0     H32255   9.207   5.862   1.203 -0.7210  1.0163 -0.5848
  980MOL0     H32256   9.092   5.657   1.164  1.8989  0.0205  0.1145
  980MOL0     H32257   9.251   5.657   1.096  0.4623 -0.5393 -0.5522
  980MOL0     H32258   9.060   5.553   0.949 -0.5885  0.3679  0.8151
  980MOL0     H32259   9.169   5.668   0.874  0.2117 -0.5901 -0.4180
  980MOL0     H32260   8.987   5.627   0.685  0.0365 -2.1432 -1.9710
  980MOL0     H32261   8.854   5.328   0.511 -1.5871  0.3774 -0.3930
  980MOL0     H32262   8.814   5.483   0.453  0.0212 -0.6955 -0.1491
  980MOL0     H32263   8.982   5.449   0.518  0.2240 -1.1870 -1.2444
  980MOL0     H32264   8.544   5.097   0.713 -0.4903 -2.2051  0.6172
  980MOL0     H32265   8.385   4.909   0.702 -0.1631 -0.2384  0.5193
  980MOL0     H32266   7.957   5.016   0.788 -2.2292 -1.7187  0.6880
  980MOL0     H32267   7.970   5.006   0.608  4.6464  0.0376 -0.9491
  980MOL0     H32268   7.934   4.766   0.612  0.7514  2.0619 -0.7514
  980MOL0     H32269   7.911   4.771   0.789 -2.4587 -2.0837  0.1242
  980MOL0     H32270   7.775   4.931   0.566 -0.0656  0.0969  0.4814
  980MOL0     H32271   7.731   4.936   0.738 -0.9729 -0.4655 -0.1917
  980MOL0     H32272   7.682   4.689   0.722 -0.7670  0.6275  0.2624
  980MOL0     H32273   7.570   4.807   0.654  1.0719  1.5077  5.8278
  980MOL0     H32274   7.592   4.608   0.517 -1.4567  2.1233 -1.2177
  980MOL0     H32275   7.758   4.595   0.532 -1.1559 -1.2117  1.4219
  980MOL0     H32276   7.638   4.830   0.373 -0.5181  0.0801 -0.4637
  980MOL0     H32277   7.802   4.799   0.401 -1.2522  2.2621 -1.9474
  980MOL0     H32278   7.615   4.625   0.253 -0.5506  3.8387  0.8534
  980MOL0     H32279   7.753   4.548   0.309  0.8161 -1.3282 -3.2583
  980MOL0     H32280   7.793   4.805   0.144 -1.5706  0.2919  2.4707
  980MOL0     H32281   7.771   4.643   0.082 -0.8591  0.7309 -1.0602
  980MOL0     H32282   8.065   5.214   0.697  1.0599  1.5351 -0.8407
  980MOL0     H32283   8.219   5.377   0.712 -0.3227  0.0050 -1.0888
  980MOL0     H32284   8.575   5.490   0.902  1.0343  1.2519 -0.4867
  980MOL0     H32285   8.715   5.630   1.018 -1.6799  1.0939 -0.1521
  980MOL0     H32286   9.873   6.299   1.256  1.0805 -1.3449 -0.5021
  980MOL0     H32287  10.039   6.190   1.090  1.4908  0.2379 -3.4699
  980MOL0     H32288  10.294   6.167   0.736  0.3733 -3.0577 -0.5642
  980MOL0     H32289  10.457   6.016   0.634  0.8087  2.2444 -1.5379
  980MOL0     H32290  10.601   5.835   0.877  0.6697  0.7365  0.2386
  980MOL0     H32291  10.646   5.756   0.725 -0.1662  1.8147 -2.6956
  980MOL0     H32292  10.872   5.737   0.800  4.1452  0.4041  2.4246
  980MOL0     H32293  10.780   5.721   0.955 -4.1575  1.9711  0.4942
  980MOL0     H32294  10.806   5.953   1.014  1.0930 -2.9226  2.0337
  980MOL0     H32295  10.903   5.975   0.871  0.1286  2.4055  2.0492
  980MOL0     H32296  10.954   5.816   1.128  0.5391  1.1526  0.3000
  980MOL0     H32297  11.059   5.941   1.062  0.7232 -0.4717 -4.1434
  980MOL0     H32298  11.199   5.583   0.885  0.2701 -0.8117 -0.9684
  980MOL0     H32299  10.757   6.130   0.911 -0.4834 -1.0455  1.2462
  980MOL0     H32300  10.603   6.293   1.007 -0.0617  1.2010  0.6741
  981MOL0     O32301   9.411   7.174   5.183 -0.4804 -0.1957 -0.1848
  981MOL0     C32302   9.496   7.182   5.100 -1.1417 -1.0022  0.9308
  981MOL0     O32303   9.483   7.214   4.969  0.1897  0.5125  0.0614
  981MOL0     C32304   9.360   7.239   4.910  0.3202 -0.1374  0.8623
  981MOL0     C32305   9.262   7.145   4.905  0.1755  0.9398  0.9202
  981MOL0     C32306   9.143   7.164   4.835  0.6187 -0.2758  0.0332
  981MOL0     C32307   9.121   7.281   4.760  0.0892  0.1245  0.2357
  981MOL0     O32308   8.992   7.302   4.720 -0.5661 -0.0894  0.7368
  981MOL0     C32309   8.964   7.421   4.643  0.3458 -0.1684 -0.4235
  981MOL0     C32310   8.809   7.436   4.625  0.4958  0.2001  0.0519
  981MOL0     C32311   8.746   7.342   4.525  0.1690 -0.4747 -0.5431
  981MOL0     C32312   8.592   7.360   4.514 -0.0118 -1.1255 -0.8178
  981MOL0     C32313   8.516   7.257   4.430  0.8536  0.4353  0.5169
  981MOL0     C32314   8.358   7.267   4.437  0.0109 -0.0742 -0.0566
  981MOL0     C32315   8.304   7.408   4.403  0.3634  0.3975 -0.0207
  981MOL0     C32316   8.158   7.395   4.389  0.4120 -0.2274  0.6220
  981MOL0     N32317   8.081   7.348   4.509 -1.0781 -0.0884  0.3042
  981MOL0     C32318   7.952   7.326   4.493  0.0775 -0.6979 -0.5517
  981MOL0     C32319   7.905   7.363   4.617 -0.4426 -0.4062  0.2238
  981MOL0     C32320   7.757   7.359   4.660  0.2143  0.1511 -0.1673
  981MOL0     C32321   7.747   7.304   4.804 -0.2766 -0.3497 -0.5854
  981MOL0     C32322   7.607   7.297   4.861 -0.0372 -0.7252  0.2770
  981MOL0     C32323   7.534   7.430   4.848  0.0278 -0.7177  0.1763
  981MOL0     O32324   7.418   7.445   4.935  0.1889 -0.0190 -0.2608
  981MOL0     C32325   7.304   7.476   4.864  0.2807  0.0624 -0.7399
  981MOL0     C32326   7.262   7.420   4.734 -0.5418  0.6402  0.1496
  981MOL0     C32327   7.146   7.463   4.670 -0.3308  0.1743  0.4169
  981MOL0     C32328   7.124   7.420   4.524 -0.2565  0.3499 -1.0872
  981MOL0     C32329   7.062   7.562   4.731 -0.2087 -0.7615 -0.0418
  981MOL0     C32330   6.924   7.607   4.691  0.1952  0.5794 -0.5584
  981MOL0     O32331   6.893   7.738   4.699  0.4997  0.1752 -0.0542
  981MOL0     C32332   6.764   7.780   4.665 -0.0435  0.5288 -0.5382
  981MOL0     C32333   6.640   7.711   4.686 -0.5598 -0.4567 -0.2035
  981MOL0     C32334   6.522   7.776   4.672 -0.5125  0.8903  0.7272
  981MOL0     C32335   6.516   7.910   4.619 -0.5547 -0.2680 -0.4144
  981MOL0     O32336   6.383   7.946   4.591  0.0761 -0.5297 -0.0653
  981MOL0     C32337   6.355   8.086   4.633 -0.2562  0.5532  0.1506
  981MOL0     C32338   6.307   8.164   4.506 -0.0596  0.1684 -0.2591
  981MOL0     C32339   6.168   8.122   4.454 -0.6096 -0.7542 -0.2595
  981MOL0     C32340   6.112   8.237   4.375 -0.3997  0.4913  0.3609
  981MOL0     C32341   5.982   8.196   4.298 -0.1515  0.2035  0.0220
  981MOL0     C32342   5.866   8.153   4.396 -0.4021 -0.3334 -0.0273
  981MOL0     C32343   5.729   8.134   4.311  0.0618 -0.1138  0.5806
  981MOL0     C32344   5.619   8.237   4.333  0.0411 -0.3685  0.0789
  981MOL0    Cl32345   5.673   8.390   4.254  0.3897  0.0674  0.0398
  981MOL0     C32346   6.636   7.982   4.608  0.1207  0.6722  0.0436
  981MOL0     C32347   6.757   7.916   4.626 -0.7480 -0.1710  0.0490
  981MOL0     O32348   6.853   7.519   4.646 -0.1793  0.6400  0.3435
  981MOL0     C32349   7.097   7.608   4.856 -0.4836  0.5532  0.6842
  981MOL0     C32350   7.218   7.569   4.920 -0.2752 -0.4021  0.6408
  981MOL0     N32351   8.012   7.394   4.700  0.2792  0.1814  0.2851
  981MOL0     N32352   8.118   7.392   4.634 -0.8206  0.6680  0.3530
  981MOL0     C32353   9.226   7.380   4.755  0.0969 -0.2418 -0.4016
  981MOL0     C32354   9.340   7.361   4.836  0.3039 -0.1945  0.5932
  981MOL0     C32355   9.634   7.162   5.153 -0.1378  0.3203 -0.0202
  981MOL0     C32356   9.747   7.185   5.069 -0.4719 -0.4188  1.0349
  981MOL0     C32357   9.873   7.146   5.114  0.1353  0.6299  0.4477
  981MOL0     C32358   9.899   7.093   5.239 -0.1852 -0.5966  0.4726
  981MOL0     O32359  10.019   7.039   5.277 -0.1547 -0.4837 -0.2072
  981MOL0     C32360  10.129   7.079   5.191 -0.6336  0.2897 -0.2796
  981MOL0     C32361  10.265   7.016   5.259 -0.5076 -0.5222  0.0552
  981MOL0     C32362  10.263   6.862   5.265  0.2612 -0.2172  0.7933
  981MOL0     C32363  10.403   6.807   5.311  0.6750 -0.6147  0.7766
  981MOL0     C32364  10.433   6.838   5.452  0.4603  0.5095  0.3116
  981MOL0     C32365  10.457   6.869   5.569 -0.4555  0.3912  0.9827
  981MOL0     C32366   9.786   7.062   5.316  1.2350 -0.0483  0.7046
  981MOL0     C32367   9.662   7.104   5.278  0.6358 -0.1270  0.2410
  981MOL0     H32368   9.287   7.054   4.958 -2.8445 -0.6711 -0.1773
  981MOL0     H32369   9.065   7.090   4.852 -0.3898  0.6735 -0.3408
  981MOL0     H32370   8.998   7.513   4.690 -1.2246  0.2646 -0.0763
  981MOL0     H32371   9.011   7.418   4.544  1.1015  1.3149 -0.1417
  981MOL0     H32372   8.755   7.429   4.720 -3.5100  1.4840 -1.8922
  981MOL0     H32373   8.788   7.539   4.595 -1.4573 -0.1225  0.1706
  981MOL0     H32374   8.791   7.370   4.429 -1.5066  1.5229 -0.8070
  981MOL0     H32375   8.771   7.237   4.542  0.0005 -0.4664 -0.2491
  981MOL0     H32376   8.560   7.343   4.618 -0.9820 -2.1174 -1.2604
  981MOL0     H32377   8.570   7.463   4.486  1.5394 -0.4600  0.2389
  981MOL0     H32378   8.543   7.287   4.329  2.1332 -2.8665 -0.2398
  981MOL0     H32379   8.558   7.159   4.454  1.8732  0.9952  1.1253
  981MOL0     H32380   8.312   7.182   4.385  0.0221  0.3131 -0.7037
  981MOL0     H32381   8.330   7.253   4.542  1.8494  0.9731  0.6211
  981MOL0     H32382   8.330   7.475   4.485  1.2473 -0.0035  0.0345
  981MOL0     H32383   8.350   7.430   4.306  1.8711 -2.9110 -0.2009
  981MOL0     H32384   8.137   7.320   4.312 -3.6260  0.1294  1.1686
  981MOL0     H32385   8.117   7.490   4.353  3.2468  0.1077 -2.1429
  981MOL0     H32386   7.896   7.300   4.404 -0.2069 -0.5753 -0.4102
  981MOL0     H32387   7.716   7.458   4.639 -0.8495 -0.3581 -0.5787
  981MOL0     H32388   7.688   7.305   4.594 -1.1142  3.0777 -1.3956
  981MOL0     H32389   7.813   7.369   4.862  0.9597 -2.1797  0.1695
  981MOL0     H32390   7.785   7.202   4.794  0.8767  0.0916 -0.8209
  981MOL0     H32391   7.606   7.262   4.965 -0.6399 -3.5848 -0.5809
  981MOL0     H32392   7.557   7.214   4.810  0.2577 -0.9685  0.3765
  981MOL0     H32393   7.513   7.446   4.741 -1.1898 -0.9539  0.3693
  981MOL0     H32394   7.600   7.515   4.866  0.3460 -0.6689 -1.1040
  981MOL0     H32395   7.335   7.352   4.690 -0.1542  0.9383  0.3198
  981MOL0     H32396   7.200   7.350   4.488  2.2586  1.5249  1.5319
  981MOL0     H32397   7.025   7.372   4.527  0.4059 -1.0182  0.5987
  981MOL0     H32398   7.137   7.505   4.456 -0.8120  2.2282  1.0261
  981MOL0     H32399   6.636   7.611   4.728 -1.9382 -0.7469 -0.9477
  981MOL0     H32400   6.432   7.724   4.704  1.4069 -2.1033  1.6613
  981MOL0     H32401   6.272   8.076   4.703 -0.0337 -0.8461  0.2583
  981MOL0     H32402   6.431   8.150   4.678  1.3008 -2.8668  2.8976
  981MOL0     H32403   6.293   8.272   4.521  3.5462  0.6581  0.4157
  981MOL0     H32404   6.376   8.149   4.423 -0.9911  2.9303 -1.6716
  981MOL0     H32405   6.101   8.102   4.538  0.4159 -0.6924  0.5993
  981MOL0     H32406   6.176   8.039   4.384 -1.7107 -1.8772  0.9077
  981MOL0     H32407   6.078   8.316   4.443  3.0770  3.0318 -0.5341
  981MOL0     H32408   6.185   8.277   4.303 -0.3171  0.1644  0.2600
  981MOL0     H32409   5.997   8.112   4.229  1.7516 -0.6065  1.3180
  981MOL0     H32410   5.955   8.281   4.235  0.1444  1.0304  0.9876
  981MOL0     H32411   5.898   8.061   4.446  1.5629  1.5143  2.3746
  981MOL0     H32412   5.853   8.236   4.466 -1.3674  0.4617 -1.1184
  981MOL0     H32413   5.699   8.032   4.334  0.3231 -1.3494 -3.5955
  981MOL0     H32414   5.748   8.118   4.204 -0.7580 -0.2352  0.4435
  981MOL0     H32415   5.612   8.247   4.441  0.3778 -2.5653  0.3487
  981MOL0     H32416   5.521   8.216   4.288 -1.3255  0.6938  2.4012
  981MOL0     H32417   6.632   8.084   4.572 -2.4283  0.3308 -0.8221
  981MOL0     H32418   6.846   7.977   4.616 -0.8825 -0.1308 -1.0056
  981MOL0     H32419   7.036   7.680   4.910 -0.4290  0.9831  0.1870
  981MOL0     H32420   7.252   7.601   5.018  0.6183 -0.8479  0.4841
  981MOL0     H32421   9.217   7.476   4.706  0.3280 -0.3010 -0.5586
  981MOL0     H32422   9.416   7.438   4.835 -0.2406  0.4431 -2.6131
  981MOL0     H32423   9.728   7.218   4.968  0.3881 -0.7362  0.7574
  981MOL0     H32424   9.948   7.149   5.036  1.8626 -4.5350  1.4611
  981MOL0     H32425  10.124   7.043   5.088  2.2160  0.6931 -0.6354
  981MOL0     H32426  10.138   7.188   5.195  1.8163  0.1161  0.8838
  981MOL0     H32427  10.276   7.059   5.359 -0.1517 -1.4381  0.4141
  981MOL0     H32428  10.350   7.055   5.203  0.0939 -0.7399  0.7984
  981MOL0     H32429  10.231   6.836   5.164 -0.9995  0.9519  0.8558
  981MOL0     H32430  10.189   6.823   5.336  0.6549 -0.1405  1.2505
  981MOL0     H32431  10.480   6.860   5.255  0.5900 -0.2167  1.0309
  981MOL0     H32432  10.408   6.699   5.294  0.3027 -0.6865  1.1143
  981MOL0     H32433  10.477   6.895   5.671  0.6919  0.7719  0.6867
  981MOL0     H32434   9.806   6.995   5.399  2.3872 -3.2019 -1.9059
  981MOL0     H32435   9.584   7.072   5.346  2.7676 -0.3372  2.7490
  982MOL0     O32436  10.498   4.524   8.405 -0.0357 -0.0498 -0.2145
  982MOL0     C32437  10.539   4.444   8.492 -0.1577 -0.0960 -0.4357
  982MOL0     O32438  10.495   4.442   8.618  0.2329  1.2352  0.2743
  982MOL0     C32439  10.403   4.530   8.658  0.4448 -0.6769  1.0733
  982MOL0     C32440  10.270   4.492   8.680 -0.0268  1.1017  0.0539
  982MOL0     C32441  10.164   4.582   8.714  0.2890 -0.1006 -0.6278
  982MOL0     C32442  10.203   4.716   8.733 -0.0312 -0.2112 -0.5163
  982MOL0     O32443  10.112   4.818   8.769  0.1596 -0.2614 -0.4707
  982MOL0     C32444   9.973   4.785   8.787 -0.8544  0.6629 -0.7401
  982MOL0     C32445   9.901   4.910   8.851 -0.0526  0.8758 -0.2709
  982MOL0     C32446   9.752   4.864   8.873 -0.7552  0.3737 -0.3678
  982MOL0     C32447   9.661   4.969   8.938  0.0928 -0.4353 -0.3163
  982MOL0     C32448   9.687   4.989   9.093 -0.0698  1.3307 -0.3751
  982MOL0     C32449   9.594   5.102   9.137 -0.0700  0.1863  0.1209
  982MOL0     C32450   9.564   5.107   9.292 -0.2350 -1.1362  0.0201
  982MOL0     C32451   9.427   5.173   9.319  0.4984  0.6839 -0.1237
  982MOL0     N32452   9.406   5.198   9.459  0.2337 -0.3897 -0.2867
  982MOL0     C32453   9.326   5.123   9.542  0.0314  0.3732  0.1880
  982MOL0     C32454   9.337   5.184   9.665 -0.4841  0.2762 -0.1525
  982MOL0     C32455   9.280   5.149   9.793  0.0769  0.8430 -0.1787
  982MOL0     C32456   9.141   5.080   9.769  0.8057  0.1199 -0.4644
  982MOL0     C32457   9.059   5.043   9.890  0.4124  0.5044  0.1907
  982MOL0     C32458   8.932   4.966   9.834  0.0765 -0.5452 -0.3934
  982MOL0     O32459   8.821   4.966   9.928 -0.5768 -0.9433 -0.3971
  982MOL0     C32460   8.703   4.898   9.897 -0.3492  0.7515  0.0545
  982MOL0     C32461   8.584   4.953   9.924  0.4254 -0.1065 -0.0134
  982MOL0     C32462   8.463   4.901   9.880  1.3311 -0.3960  1.6280
  982MOL0     C32463   8.347   4.986   9.911 -0.4636 -0.1671  0.4607
  982MOL0     C32464   8.460   4.773   9.812 -0.4633  0.0660 -0.0725
  982MOL0     C32465   8.334   4.697   9.777 -0.3425 -0.4337 -0.2181
  982MOL0     O32466   8.228   4.705   9.860 -0.2074  0.2591 -0.3778
  982MOL0     C32467   8.103   4.665   9.818  0.0607 -0.2339 -0.2109
  982MOL0     C32468   8.008   4.641   9.914 -0.4141  0.5770  0.0093
  982MOL0     C32469   7.876   4.614   9.880 -0.6664  0.5158  0.4732
  982MOL0     C32470   7.836   4.608   9.744  0.4215 -0.7682  0.0797
  982MOL0     O32471   7.704   4.563   9.715  0.4366 -0.0253  0.2502
  982MOL0     C32472   7.683   4.474   9.607  0.5250  0.2687  1.0784
  982MOL0     C32473   7.553   4.396   9.638 -0.1849  0.4884  0.0367
  982MOL0     C32474   7.427   4.487   9.663  0.2043  0.2664  0.2335
  982MOL0     C32475   7.302   4.407   9.697 -0.2363  0.6810 -0.0219
  982MOL0     C32476   7.181   4.506   9.727 -0.6707 -0.1447 -0.3368
  982MOL0     C32477   7.057   4.419   9.774  0.0945  0.1395  0.5759
  982MOL0     C32478   7.081   4.276   9.815 -0.0198 -0.0209 -0.4704
  982MOL0     C32479   6.950   4.236   9.882  1.0170 -0.6572  0.2834
  982MOL0    Cl32480   6.970   4.065   9.932  0.5257 -0.0566  0.1259
  982MOL0     C32481   7.928   4.627   9.643  0.0544  0.3199  0.3287
  982MOL0     C32482   8.062   4.658   9.693 -0.0939  0.5057  1.0034
  982MOL0     O32483   8.350   4.618   9.687  0.2973  0.0101 -0.1807
  982MOL0     C32484   8.584   4.725   9.783 -0.5851  0.8808  0.2936
  982MOL0     C32485   8.708   4.781   9.824  0.0196 -0.7459 -0.1109
  982MOL0     N32486   9.413   5.300   9.650  0.6267 -0.4806  0.8410
  982MOL0     N32487   9.458   5.301   9.529  0.3416  1.0128 -0.2731
  982MOL0     C32488  10.336   4.749   8.721 -0.5800  0.3201  1.4946
  982MOL0     C32489  10.438   4.661   8.685 -0.3540 -0.5205 -0.3372
  982MOL0     C32490  10.622   4.332   8.449  0.3257  0.6261  0.7630
  982MOL0     C32491  10.665   4.323   8.318  0.5673  0.5851 -0.4228
  982MOL0     C32492  10.743   4.219   8.271 -1.4492 -0.6309 -0.2976
  982MOL0     C32493  10.786   4.118   8.364 -0.6086  0.0004  0.7768
  982MOL0     O32494  10.872   4.022   8.324 -0.4344 -0.1596 -0.6075
  982MOL0     C32495  10.958   3.965   8.425  0.4800 -0.7449 -0.5778
  982MOL0     C32496  11.040   4.063   8.496 -0.4472 -0.2097  0.4937
  982MOL0     C32497  11.124   4.145   8.391  0.2323 -0.4429 -0.3658
  982MOL0     C32498  11.224   4.062   8.316 -1.4701  0.0781 -0.3364
  982MOL0     C32499  11.322   4.138   8.239 -0.2896  0.4306 -0.1866
  982MOL0     C32500  11.402   4.210   8.177 -0.5097 -0.7372 -0.0360
  982MOL0     C32501  10.731   4.116   8.492 -0.3866 -0.2025  0.1465
  982MOL0     C32502  10.660   4.230   8.537 -0.8336  0.3978 -0.3830
  982MOL0     H32503  10.250   4.389   8.651  2.4496  0.3832  0.6212
  982MOL0     H32504  10.060   4.552   8.716 -0.0658  0.7607 -2.8627
  982MOL0     H32505   9.927   4.749   8.694 -0.1661 -4.0670  0.4880
  982MOL0     H32506   9.961   4.704   8.860  2.0167 -0.4611 -1.3826
  982MOL0     H32507   9.951   4.936   8.945  3.0543 -2.2786 -0.8163
  982MOL0     H32508   9.900   4.991   8.777  1.4516  0.2396 -1.0365
  982MOL0     H32509   9.707   4.837   8.777 -0.8885  0.1114 -0.2322
  982MOL0     H32510   9.744   4.780   8.942  1.0426 -0.1180 -0.7137
  982MOL0     H32511   9.669   5.066   8.890  0.5611 -0.2739  0.0726
  982MOL0     H32512   9.559   4.936   8.918 -0.4290 -0.5733  2.2071
  982MOL0     H32513   9.656   4.903   9.154  0.2266 -0.3840 -2.5077
  982MOL0     H32514   9.791   5.016   9.113 -0.0549  0.9854  0.0405
  982MOL0     H32515   9.629   5.197   9.096 -0.3954 -0.2428 -1.2145
  982MOL0     H32516   9.498   5.087   9.087  0.9099  2.0840 -2.5454
  982MOL0     H32517   9.575   5.010   9.341  2.5649 -1.0361 -0.2814
  982MOL0     H32518   9.630   5.181   9.338 -1.5061  0.4766 -0.6112
  982MOL0     H32519   9.349   5.114   9.270  0.6027  1.0085 -0.6852
  982MOL0     H32520   9.410   5.263   9.260 -2.2404  1.2020  1.2953
  982MOL0     H32521   9.269   5.033   9.522 -0.7370  0.6875  0.8991
  982MOL0     H32522   9.343   5.070   9.835 -2.8079 -3.3574 -2.9934
  982MOL0     H32523   9.265   5.240   9.852  1.8675  1.9139 -1.2810
  982MOL0     H32524   9.170   4.984   9.725 -1.8722 -1.1966  0.4106
  982MOL0     H32525   9.074   5.140   9.706  2.0131 -1.1279 -3.0873
  982MOL0     H32526   9.024   5.134   9.940  0.5261  0.6308  0.0446
  982MOL0     H32527   9.114   4.982   9.962  1.1643 -0.8004 -1.4385
  982MOL0     H32528   8.967   4.864   9.814 -1.2506 -1.2655  0.7719
  982MOL0     H32529   8.906   5.007   9.736 -0.0488  0.0360 -0.1216
  982MOL0     H32530   8.584   5.045   9.982  0.8711  0.4928 -0.9239
  982MOL0     H32531   8.290   4.935   9.989 -2.3716  0.2308 -0.6226
  982MOL0     H32532   8.366   5.090   9.938  0.1896  1.1393 -4.1503
  982MOL0     H32533   8.287   4.992   9.820 -0.9260  2.2113  0.8553
  982MOL0     H32534   8.031   4.657  10.019 -2.4346  0.5948  0.4923
  982MOL0     H32535   7.808   4.591   9.961 -0.7916 -0.3914  0.1230
  982MOL0     H32536   7.674   4.535   9.516 -0.5090 -0.3940  0.7167
  982MOL0     H32537   7.764   4.402   9.591 -0.0509 -1.2419  4.2090
  982MOL0     H32538   7.534   4.327   9.554  2.4583 -0.4698  0.1031
  982MOL0     H32539   7.559   4.324   9.721 -1.6390 -0.6426 -0.7926
  982MOL0     H32540   7.410   4.550   9.575 -0.2450  0.3792  0.4017
  982MOL0     H32541   7.439   4.544   9.756 -0.3088 -2.0058  1.7777
  982MOL0     H32542   7.277   4.337   9.617  1.7734 -0.7031  0.4760
  982MOL0     H32543   7.328   4.352   9.788  3.3412  0.6562 -0.9394
  982MOL0     H32544   7.157   4.550   9.630 -2.0338 -0.3962 -0.1278
  982MOL0     H32545   7.204   4.581   9.803 -0.8731  0.8879 -1.2690
  982MOL0     H32546   7.006   4.482   9.848  0.4862  0.6775  0.3995
  982MOL0     H32547   6.982   4.425   9.695  0.8119 -0.3630 -0.1638
  982MOL0     H32548   7.151   4.265   9.898 -1.0637  0.3218  0.4859
  982MOL0     H32549   7.116   4.210   9.736  1.3245 -1.6588  1.3978
  982MOL0     H32550   6.866   4.245   9.813  0.2224 -2.2595  0.9883
  982MOL0     H32551   6.943   4.295   9.974 -1.8304  0.9119 -0.8347
  982MOL0     H32552   7.907   4.618   9.537 -1.9279 -1.6361  0.8166
  982MOL0     H32553   8.135   4.676   9.615  0.6489 -1.4389  1.1943
  982MOL0     H32554   8.583   4.633   9.726  0.1938  1.6633 -1.0325
  982MOL0     H32555   8.801   4.732   9.796 -0.3536 -2.2332  1.1477
  982MOL0     H32556  10.370   4.852   8.726  0.8024  0.3674 -3.5111
  982MOL0     H32557  10.541   4.679   8.654 -0.0996 -1.2323  0.0550
  982MOL0     H32558  10.627   4.398   8.249 -0.4523 -0.6290 -1.2239
  982MOL0     H32559  10.779   4.222   8.169  0.0014  1.7061  0.2248
  982MOL0     H32560  10.894   3.918   8.501  1.8878  2.8387  3.1581
  982MOL0     H32561  11.019   3.880   8.392  0.0768 -2.0377  1.7620
  982MOL0     H32562  11.099   4.017   8.576  2.5105  2.5724  0.1348
  982MOL0     H32563  10.975   4.142   8.536 -0.5849  1.0426 -2.0211
  982MOL0     H32564  11.169   4.227   8.447 -1.2400  0.8678 -1.0222
  982MOL0     H32565  11.053   4.186   8.319  1.6194  1.6797 -0.6048
  982MOL0     H32566  11.171   3.999   8.243 -2.4124  0.7630 -0.2689
  982MOL0     H32567  11.275   4.002   8.391 -0.1598 -0.2214 -1.4302
  982MOL0     H32568  11.486   4.253   8.126  1.3015 -2.0653  1.6782
  982MOL0     H32569  10.747   4.044   8.571  0.6639  0.9723  1.0529
  982MOL0     H32570  10.637   4.230   8.644 -0.5978  3.6466 -0.2261
  983MOL0     O32571   4.187   8.030   4.131  0.5601  0.2558 -0.1892
  983MOL0     C32572   4.231   7.990   4.024 -0.1210  0.0867 -1.3190
  983MOL0     O32573   4.164   7.957   3.907 -0.0806 -0.0152 -0.2528
  983MOL0     C32574   4.027   7.921   3.917  0.8376 -0.5307  0.0041
  983MOL0     C32575   3.949   7.909   3.806 -0.5060 -0.2102 -0.7964
  983MOL0     C32576   3.810   7.881   3.816  0.3403 -0.2361  0.6179
  983MOL0     C32577   3.746   7.857   3.943 -0.1280  0.2118  0.7557
  983MOL0     O32578   3.614   7.825   3.939 -0.4703 -0.5995 -0.4170
  983MOL0     C32579   3.580   7.717   4.034 -0.0924 -0.4949  1.4649
  983MOL0     C32580   3.469   7.648   3.961 -0.6399 -0.3319 -0.1341
  983MOL0     C32581   3.341   7.727   3.918 -0.4361 -0.3090 -0.6245
  983MOL0     C32582   3.266   7.795   4.030 -0.0650  0.5170 -0.6919
  983MOL0     C32583   3.130   7.829   3.979  1.0838 -0.2624 -0.8878
  983MOL0     C32584   3.068   7.928   4.078 -0.5429 -0.6588 -0.1906
  983MOL0     C32585   2.950   8.000   4.015  0.3132 -0.2532  0.9868
  983MOL0     C32586   2.823   7.909   4.023 -0.4867  0.1711 -0.6890
  983MOL0     N32587   2.718   7.958   3.940 -0.2553 -0.3666 -0.6087
  983MOL0     C32588   2.694   7.903   3.824 -0.2913 -0.9345 -0.0812
  983MOL0     C32589   2.589   7.980   3.773 -0.4084 -0.3654  0.6907
  983MOL0     C32590   2.524   7.980   3.630 -0.1182 -0.4481  0.6456
  983MOL0     C32591   2.417   8.085   3.605  0.4279  0.0985  0.7079
  983MOL0     C32592   2.368   8.083   3.463 -0.0678  0.2083  0.5407
  983MOL0     C32593   2.239   8.165   3.453 -0.6459  0.6593 -0.4096
  983MOL0     O32594   2.179   8.147   3.325 -0.1179  0.9074 -0.3573
  983MOL0     C32595   2.049   8.178   3.304 -0.2289 -0.3236 -0.5794
  983MOL0     C32596   1.961   8.229   3.405  0.0762  0.2838  0.4911
  983MOL0     C32597   1.844   8.293   3.375 -0.0614  0.7014  0.3904
  983MOL0     C32598   1.777   8.367   3.482  0.3123  0.4377 -0.1078
  983MOL0     C32599   1.799   8.286   3.240  0.6256 -0.2046  0.2842
  983MOL0     C32600   1.657   8.308   3.196  0.2244  0.4280 -0.9668
  983MOL0     O32601   1.564   8.324   3.297 -0.0416  0.3175  1.3584
  983MOL0     C32602   1.462   8.402   3.264  0.8046 -0.3634  1.3610
  983MOL0     C32603   1.478   8.540   3.278 -0.2850 -0.0051  0.6009
  983MOL0     C32604   1.376   8.620   3.247 -0.7999  0.4896  0.2876
  983MOL0     C32605   1.253   8.574   3.192 -0.2625 -0.5545 -0.0443
  983MOL0     O32606   1.164   8.672   3.161 -0.1566  0.0501  0.5255
  983MOL0     C32607   1.027   8.654   3.199 -0.0562  0.9001 -0.4394
  983MOL0     C32608   0.962   8.788   3.181 -0.3540  0.1520 -0.0805
  983MOL0     C32609   0.853   8.810   3.280  0.7300 -0.0776  0.0682
  983MOL0     C32610   0.759   8.926   3.250  0.0323  0.0242  0.0082
  983MOL0     C32611   0.643   8.940   3.351 -0.0303  0.5627 -0.8125
  983MOL0     C32612   0.558   9.067   3.324  0.3092 -0.2902 -0.4017
  983MOL0     C32613   0.643   9.198   3.335 -0.2350  0.0643  0.2464
  983MOL0     C32614   0.558   9.324   3.372 -0.7499  0.3374 -0.6194
  983MOL0    Cl32615   0.486   9.308   3.538 -0.4111 -0.1139  0.3061
  983MOL0     C32616   1.241   8.441   3.169 -0.4531  0.4809  0.3034
  983MOL0     C32617   1.343   8.357   3.199 -0.3027 -0.2024  0.4247
  983MOL0     O32618   1.631   8.284   3.075  0.5761 -0.0242 -0.9668
  983MOL0     C32619   1.879   8.213   3.146 -0.5821 -0.4070  0.1090
  983MOL0     C32620   2.008   8.176   3.177 -0.6343 -0.0856 -0.0343
  983MOL0     N32621   2.565   8.088   3.861 -0.3291 -0.4858 -0.4486
  983MOL0     N32622   2.639   8.065   3.966 -0.0678  0.6878 -0.1635
  983MOL0     C32623   3.824   7.865   4.060  0.0104 -0.1729 -0.3608
  983MOL0     C32624   3.956   7.903   4.043 -0.5045  0.3446  0.5404
  983MOL0     C32625   4.373   8.010   4.027 -0.0020  0.7913  0.6378
  983MOL0     C32626   4.450   7.991   4.146  0.1214 -0.6371  0.4426
  983MOL0     C32627   4.590   8.011   4.137 -0.4811 -0.5299 -0.6754
  983MOL0     C32628   4.654   8.054   4.021  0.0101  0.1420 -0.1095
  983MOL0     O32629   4.790   8.085   4.022 -0.6634 -0.5706  0.6557
  983MOL0     C32630   4.883   7.988   4.076  0.2975  0.1183 -0.0558
  983MOL0     C32631   5.024   8.022   4.041  0.1040 -0.2121 -0.2583
  983MOL0     C32632   5.061   8.166   4.082  0.5418 -0.1975 -0.1446
  983MOL0     C32633   5.214   8.176   4.084 -0.6061  0.0582  0.5673
  983MOL0     C32634   5.257   8.310   4.116  0.6215  0.1004 -0.2506
  983MOL0     C32635   5.283   8.416   4.181  0.2991 -0.2759  0.5636
  983MOL0     C32636   4.573   8.074   3.910  0.2576  0.0128 -0.0587
  983MOL0     C32637   4.439   8.056   3.912  0.5192 -0.4569 -0.3863
  983MOL0     H32638   4.005   7.925   3.714  3.9822 -1.6244  1.3816
  983MOL0     H32639   3.743   7.883   3.731 -2.3447  0.3285  2.5833
  983MOL0     H32640   3.661   7.644   4.041 -0.0794 -0.5897  0.5176
  983MOL0     H32641   3.544   7.756   4.130  0.8400 -0.7360  1.9189
  983MOL0     H32642   3.521   7.593   3.882 -0.1638 -1.6011  1.0146
  983MOL0     H32643   3.419   7.564   4.010 -2.4236 -0.6927 -2.4292
  983MOL0     H32644   3.363   7.806   3.847  0.7317 -2.3138 -2.6223
  983MOL0     H32645   3.276   7.665   3.855  1.2328 -1.9456 -0.8423
  983MOL0     H32646   3.258   7.737   4.122 -1.1910  2.3471  0.4493
  983MOL0     H32647   3.329   7.883   4.049  1.5855 -0.4565 -1.5429
  983MOL0     H32648   3.136   7.881   3.883 -2.2304  2.3420  0.1009
  983MOL0     H32649   3.059   7.747   3.964 -0.9618  1.3074 -0.1509
  983MOL0     H32650   3.047   7.878   4.173  2.4064  2.0907  2.1211
  983MOL0     H32651   3.145   8.003   4.099  0.1346 -1.1186 -0.9719
  983MOL0     H32652   2.930   8.095   4.066 -0.6778 -1.7835  3.6539
  983MOL0     H32653   2.963   8.036   3.913 -0.4540  1.3695  1.4218
  983MOL0     H32654   2.777   7.899   4.122 -3.8214 -3.8209 -2.3456
  983MOL0     H32655   2.859   7.809   3.997  0.6321  0.6329 -0.9425
  983MOL0     H32656   2.754   7.834   3.766  0.0534 -0.8408  0.1594
  983MOL0     H32657   2.593   7.982   3.546 -0.0775 -1.4998  0.6365
  983MOL0     H32658   2.480   7.881   3.616  2.7032 -1.3597 -4.0950
  983MOL0     H32659   2.449   8.182   3.644  2.4387  0.4251 -1.5122
  983MOL0     H32660   2.338   8.052   3.673  0.6966  1.9236  1.9690
  983MOL0     H32661   2.344   7.980   3.435  0.5473 -0.1281  1.2311
  983MOL0     H32662   2.456   8.107   3.403  0.2584 -2.0444  0.0529
  983MOL0     H32663   2.263   8.268   3.482 -2.1312  0.7609  0.6203
  983MOL0     H32664   2.178   8.131   3.538 -1.4339 -0.3660 -1.3655
  983MOL0     H32665   1.993   8.230   3.509 -2.0596  0.1588  1.1896
  983MOL0     H32666   1.843   8.376   3.569  3.1160  0.6425 -2.0950
  983MOL0     H32667   1.758   8.467   3.443 -0.3856 -0.3909 -1.9917
  983MOL0     H32668   1.693   8.308   3.517  1.0090 -0.1469  0.6226
  983MOL0     H32669   1.568   8.570   3.330 -0.4300  0.6251  0.4979
  983MOL0     H32670   1.389   8.728   3.254  0.6512  0.4873 -1.4233
  983MOL0     H32671   0.977   8.582   3.134  1.9506  1.2784 -2.5531
  983MOL0     H32672   1.024   8.621   3.303  0.7927 -0.9444 -0.9358
  983MOL0     H32673   1.037   8.868   3.179 -0.7899  0.5586 -1.6244
  983MOL0     H32674   0.918   8.787   3.080 -1.6480 -0.2422  0.4668
  983MOL0     H32675   0.905   8.832   3.373 -1.7892  1.9730  1.1293
  983MOL0     H32676   0.786   8.723   3.286  0.9356 -0.2269  0.1861
  983MOL0     H32677   0.823   9.015   3.255  0.6459 -0.4200  0.1952
  983MOL0     H32678   0.720   8.928   3.147 -2.4939 -0.4636  0.8848
  983MOL0     H32679   0.689   8.947   3.450 -0.8095 -0.0170 -0.3888
  983MOL0     H32680   0.577   8.853   3.346 -1.4436  1.3502  2.0899
  983MOL0     H32681   0.514   9.065   3.224 -0.8040 -1.5232  0.1015
  983MOL0     H32682   0.475   9.070   3.394 -0.5973  3.9208 -1.3755
  983MOL0     H32683   0.687   9.205   3.235 -1.1527 -2.7741 -0.4413
  983MOL0     H32684   0.721   9.180   3.411  1.6406  0.7090 -1.4376
  983MOL0     H32685   0.473   9.346   3.306 -0.9549  3.9937  0.6561
  983MOL0     H32686   0.624   9.410   3.379 -2.0860  1.2584  2.3542
  983MOL0     H32687   1.155   8.413   3.109  0.1819  2.7028 -1.8010
  983MOL0     H32688   1.339   8.255   3.163 -1.3521  0.3194 -0.9999
  983MOL0     H32689   1.850   8.183   3.046  0.7845  0.6880 -0.6400
  983MOL0     H32690   2.068   8.142   3.093  0.1173  0.4320  0.2924
  983MOL0     H32691   3.782   7.855   4.160 -0.0889 -0.6316 -0.4477
  983MOL0     H32692   4.003   7.914   4.140 -0.0569 -0.8624  0.4799
  983MOL0     H32693   4.401   7.940   4.229 -0.0014 -0.4104  0.5105
  983MOL0     H32694   4.658   7.978   4.215  0.7383  0.1930 -1.3936
  983MOL0     H32695   4.866   7.988   4.184 -3.0856 -2.7371 -0.4051
  983MOL0     H32696   4.866   7.887   4.040  0.3255  1.0906 -3.0984
  983MOL0     H32697   5.045   8.001   3.936 -1.0861  1.6808 -0.9187
  983MOL0     H32698   5.088   7.950   4.093 -0.5729 -1.5247 -1.2040
  983MOL0     H32699   5.031   8.198   4.182 -0.2931 -1.1221 -0.0847
  983MOL0     H32700   5.023   8.241   4.012 -3.2468 -3.1095 -1.5422
  983MOL0     H32701   5.260   8.141   3.990 -0.3159 -0.9521  1.0688
  983MOL0     H32702   5.253   8.115   4.166  0.0893  2.2661  1.9609
  983MOL0     H32703   5.316   8.498   4.242 -1.1040 -1.0282  2.4282
  983MOL0     H32704   4.614   8.117   3.820  2.0601  1.3956  1.3494
  983MOL0     H32705   4.367   8.081   3.835 -0.3199  1.8770  1.0618
  984MOL0     O32706   2.685   3.436   4.518 -0.1412 -0.4965 -0.0025
  984MOL0     C32707   2.749   3.353   4.455  0.3412 -0.3306 -0.1412
  984MOL0     O32708   2.713   3.296   4.343 -0.3186  0.1417 -0.1351
  984MOL0     C32709   2.614   3.355   4.268  0.4543 -0.8824  0.2690
  984MOL0     C32710   2.484   3.384   4.315  0.5976 -0.3856 -0.7344
  984MOL0     C32711   2.382   3.441   4.235  0.5880  1.0229 -0.1213
  984MOL0     C32712   2.405   3.457   4.101  0.5706 -0.1491  0.4546
  984MOL0     O32713   2.309   3.480   4.014 -0.0152  0.0227  0.1144
  984MOL0     C32714   2.193   3.551   4.055  1.0456 -0.7968  0.6176
  984MOL0     C32715   2.105   3.569   3.924 -0.1513 -0.2998 -0.0082
  984MOL0     C32716   1.993   3.666   3.950  0.8565 -0.0982 -0.0205
  984MOL0     C32717   1.887   3.670   3.825 -0.4847  1.3506  0.2118
  984MOL0     C32718   1.954   3.747   3.711  0.5550  0.5019 -0.1987
  984MOL0     C32719   1.864   3.755   3.591  0.2916 -0.5235 -0.7176
  984MOL0     C32720   1.848   3.622   3.522  0.4688 -0.4221 -0.2857
  984MOL0     C32721   1.776   3.644   3.389  0.3202  0.3798 -0.2326
  984MOL0     N32722   1.631   3.687   3.400 -0.8783  0.2876 -1.0323
  984MOL0     C32723   1.585   3.817   3.410 -0.6958  0.1062  0.3823
  984MOL0     C32724   1.455   3.814   3.378  0.0462 -0.5427 -0.5306
  984MOL0     C32725   1.364   3.939   3.373 -0.1728 -0.4915  0.2012
  984MOL0     C32726   1.351   4.025   3.501 -0.4004  0.6691  0.4168
  984MOL0     C32727   1.288   4.161   3.486 -0.1021  0.1702  0.3522
  984MOL0     C32728   1.136   4.158   3.466  0.1699 -0.2881 -0.1714
  984MOL0     O32729   1.065   4.131   3.585  0.0132  0.2119  0.2227
  984MOL0     C32730   0.929   4.166   3.580  1.0017 -0.3183  0.5513
  984MOL0     C32731   0.843   4.197   3.468 -0.0478  0.1754 -0.6692
  984MOL0     C32732   0.705   4.212   3.479 -0.6971  0.1488  0.1050
  984MOL0     C32733   0.631   4.225   3.346  0.2144  0.2838 -0.0345
  984MOL0     C32734   0.650   4.218   3.603  0.0747  0.5645  0.0191
  984MOL0     C32735   0.507   4.250   3.636  0.5426 -0.9086  0.7062
  984MOL0     O32736   0.462   4.246   3.767 -0.0342  0.1170  0.7945
  984MOL0     C32737   0.338   4.298   3.792 -0.0907  0.9539  0.3689
  984MOL0     C32738   0.311   4.437   3.768 -1.0392 -0.4997  0.3823
  984MOL0     C32739   0.194   4.492   3.823 -0.1345  0.0346 -0.2293
  984MOL0     C32740   0.114   4.417   3.906  0.1183  0.1270 -0.2037
  984MOL0     O32741   0.010   4.464   3.981 -0.1646 -0.2912  0.1412
  984MOL0     C32742  -0.004   4.611   4.011 -0.2459 -0.3789 -0.4394
  984MOL0     C32743  -0.144   4.650   4.059 -0.4359 -0.0552 -0.9655
  984MOL0     C32744  -0.263   4.624   3.973  0.1566  1.0400  0.0762
  984MOL0     C32745  -0.395   4.656   4.038 -0.4434 -0.2659 -0.2968
  984MOL0     C32746  -0.522   4.621   3.955 -0.0186  0.4748  0.3861
  984MOL0     C32747  -0.657   4.638   4.030 -0.3129 -0.3327  0.5357
  984MOL0     C32748  -0.786   4.630   3.949  0.1689  0.2094 -0.0317
  984MOL0     C32749  -0.798   4.770   3.879  0.1546 -0.5985 -0.2921
  984MOL0    Cl32750  -0.854   4.893   4.002  0.0160 -0.0177  0.4534
  984MOL0     C32751   0.143   4.272   3.918 -0.0743  0.1597 -0.3311
  984MOL0     C32752   0.257   4.216   3.869 -0.5934 -0.4800 -0.4099
  984MOL0     O32753   0.432   4.281   3.543  0.0614  0.4475  0.5285
  984MOL0     C32754   0.731   4.187   3.717 -0.8198  0.3029  0.7003
  984MOL0     C32755   0.868   4.167   3.704 -0.2967 -0.0604  0.3874
  984MOL0     N32756   1.418   3.680   3.354 -0.2458 -0.1202  0.5466
  984MOL0     N32757   1.526   3.610   3.363 -0.0229  0.1133 -0.7193
  984MOL0     C32758   2.524   3.410   4.050 -1.1440 -0.1191  0.0432
  984MOL0     C32759   2.630   3.368   4.131  0.5284  0.8353 -1.0097
  984MOL0     C32760   2.873   3.320   4.505 -0.5056  0.9493  0.2894
  984MOL0     C32761   2.950   3.214   4.448 -0.8001 -0.1232  0.5447
  984MOL0     C32762   3.069   3.166   4.500  0.1017  0.8716 -0.4545
  984MOL0     C32763   3.113   3.215   4.627 -0.0019  0.3628  0.1129
  984MOL0     O32764   3.217   3.146   4.681 -0.3139 -0.2937  0.2449
  984MOL0     C32765   3.336   3.222   4.672  0.0524  0.4131 -0.3819
  984MOL0     C32766   3.439   3.127   4.722 -0.2510 -0.5422 -0.5766
  984MOL0     C32767   3.585   3.191   4.731 -0.5518 -0.1872 -0.2056
  984MOL0     C32768   3.695   3.080   4.758  0.0263 -0.0003 -0.2314
  984MOL0     C32769   3.653   3.009   4.878  0.2938  0.2541 -0.3287
  984MOL0     C32770   3.626   2.950   4.983  0.0960 -0.4680 -0.4966
  984MOL0     C32771   3.030   3.302   4.696 -0.3491  0.4755  0.3701
  984MOL0     C32772   2.921   3.358   4.630 -0.1944 -0.7883  0.4860
  984MOL0     H32773   2.469   3.366   4.421 -2.1206 -1.2378 -1.1902
  984MOL0     H32774   2.281   3.460   4.268  0.0849  2.5513 -2.3352
  984MOL0     H32775   2.143   3.492   4.132  3.1947 -1.5409  1.5283
  984MOL0     H32776   2.219   3.648   4.101  1.3822  0.0426 -1.2516
  984MOL0     H32777   2.169   3.612   3.846  3.7686  0.4500  3.2710
  984MOL0     H32778   2.071   3.470   3.894 -2.3230  0.5595 -0.6527
  984MOL0     H32779   1.946   3.628   4.041  2.0242 -0.9088  0.2543
  984MOL0     H32780   2.028   3.764   3.983 -1.0508 -0.5486  3.9363
  984MOL0     H32781   1.877   3.566   3.793  0.8996  1.0227  0.7500
  984MOL0     H32782   1.791   3.701   3.867 -2.8321 -1.9207 -2.2710
  984MOL0     H32783   1.980   3.851   3.735  0.6701  0.8252 -1.6506
  984MOL0     H32784   2.047   3.697   3.684  0.7302  0.4166  0.5482
  984MOL0     H32785   1.766   3.794   3.620  0.3916 -1.8298  1.6649
  984MOL0     H32786   1.910   3.824   3.520  1.9852 -1.5418 -0.6502
  984MOL0     H32787   1.950   3.581   3.522  1.2077  1.1995  2.3386
  984MOL0     H32788   1.781   3.555   3.577  1.2822 -1.9479 -1.0864
  984MOL0     H32789   1.774   3.549   3.333 -2.3303  0.2009  0.0404
  984MOL0     H32790   1.836   3.706   3.322  2.1159 -0.5180  0.4570
  984MOL0     H32791   1.644   3.908   3.421  0.4280 -0.6577  0.9563
  984MOL0     H32792   1.408   3.999   3.292  1.6987 -1.8498  0.1362
  984MOL0     H32793   1.266   3.902   3.341  0.0171 -0.6986 -0.1525
  984MOL0     H32794   1.449   4.042   3.546 -1.5951 -2.5632  5.0768
  984MOL0     H32795   1.292   3.966   3.572  2.4469 -0.4266  2.0186
  984MOL0     H32796   1.348   4.222   3.418 -1.1265  1.4955  0.5775
  984MOL0     H32797   1.300   4.207   3.585 -1.4740 -0.1371  0.6933
  984MOL0     H32798   1.110   4.088   3.386  0.0114  2.0190 -2.2138
  984MOL0     H32799   1.104   4.253   3.423  1.3123 -0.6419 -1.8631
  984MOL0     H32800   0.888   4.207   3.370  4.1903 -0.1930  1.0390
  984MOL0     H32801   0.687   4.233   3.252 -0.0154  3.4069  0.0043
  984MOL0     H32802   0.562   4.141   3.333  0.6211  0.2691 -2.7402
  984MOL0     H32803   0.590   4.326   3.340  1.0326  0.5544 -3.6084
  984MOL0     H32804   0.385   4.497   3.717 -1.0992 -0.2440  0.5926
  984MOL0     H32805   0.173   4.597   3.810  2.4526  0.5243 -1.0383
  984MOL0     H32806   0.069   4.633   4.090  2.6563 -1.8302 -2.5313
  984MOL0     H32807   0.015   4.669   3.920  1.1661 -1.7865 -1.1074
  984MOL0     H32808  -0.162   4.597   4.153 -0.0803 -0.8155 -1.3174
  984MOL0     H32809  -0.156   4.756   4.082  0.8288 -0.0355 -0.3013
  984MOL0     H32810  -0.270   4.517   3.950  0.8080  0.7623  1.1398
  984MOL0     H32811  -0.238   4.678   3.881  0.7646 -1.0844 -1.0819
  984MOL0     H32812  -0.394   4.617   4.140  5.1802  2.5000  1.1181
  984MOL0     H32813  -0.399   4.764   4.052  3.4376 -0.2172  1.9682
  984MOL0     H32814  -0.519   4.520   3.911  3.1733  1.6205 -2.4201
  984MOL0     H32815  -0.515   4.688   3.869  1.9643 -1.8857 -1.4445
  984MOL0     H32816  -0.668   4.570   4.115 -0.6550 -0.1775  0.6167
  984MOL0     H32817  -0.650   4.738   4.075  2.8456  1.7494 -3.8525
  984MOL0     H32818  -0.872   4.625   4.017  0.0177  2.6233  0.0569
  984MOL0     H32819  -0.797   4.553   3.872  1.4250 -1.2377  1.1765
  984MOL0     H32820  -0.873   4.763   3.800 -0.0381  0.1598 -0.1809
  984MOL0     H32821  -0.701   4.794   3.835  0.2663 -4.8610 -2.9839
  984MOL0     H32822   0.069   4.214   3.973 -0.8492  1.9119  0.5399
  984MOL0     H32823   0.283   4.113   3.890 -0.0907  0.2294  2.9206
  984MOL0     H32824   0.694   4.194   3.819  0.7718  1.5258  1.2339
  984MOL0     H32825   0.924   4.142   3.793 -3.0170 -1.0387  1.9383
  984MOL0     H32826   2.552   3.416   3.945  2.4945  0.6940  0.9225
  984MOL0     H32827   2.725   3.333   4.089  0.1459 -1.9048  0.1728
  984MOL0     H32828   2.934   3.173   4.349  1.3979 -0.1319  0.1425
  984MOL0     H32829   3.121   3.081   4.457  0.9838  1.0237  0.2832
  984MOL0     H32830   3.348   3.269   4.574 -0.7102  3.2820  0.8159
  984MOL0     H32831   3.327   3.301   4.747  1.3596  0.6168 -0.4147
  984MOL0     H32832   3.443   3.046   4.648 -0.9711  0.9007 -2.2729
  984MOL0     H32833   3.413   3.093   4.823  2.1045  3.1202  1.5176
  984MOL0     H32834   3.574   3.267   4.808 -2.7787 -3.5828  3.1449
  984MOL0     H32835   3.600   3.250   4.640 -1.3741  0.4634  0.0752
  984MOL0     H32836   3.796   3.121   4.768  0.8940 -1.5980 -1.8578
  984MOL0     H32837   3.697   3.017   4.669 -0.5638 -0.1008 -0.1809
  984MOL0     H32838   3.607   2.897   5.074 -1.3972  0.0698 -0.4820
  984MOL0     H32839   3.054   3.328   4.798  1.0349  1.6047 -0.2176
  984MOL0     H32840   2.866   3.433   4.685  2.0963  1.0055  0.4643
  985MOL0     O32841   0.599   2.059   6.693 -0.0703 -0.3201 -0.3545
  985MOL0     C32842   0.646   2.137   6.609  0.3259  0.4884 -1.0050
  985MOL0     O32843   0.571   2.197   6.517 -0.5557 -0.2163 -0.3714
  985MOL0     C32844   0.434   2.167   6.495 -0.0148 -0.3188  0.2373
  985MOL0     C32845   0.398   2.160   6.360  0.2065 -0.6535 -0.1795
  985MOL0     C32846   0.268   2.130   6.327  1.0621 -0.2769 -0.2451
  985MOL0     C32847   0.176   2.109   6.428  0.0890 -0.2768 -0.5229
  985MOL0     O32848   0.051   2.084   6.382 -0.5152  0.4428  0.5177
  985MOL0     C32849  -0.034   2.016   6.476 -0.0758  1.2974 -0.9419
  985MOL0     C32850  -0.152   1.972   6.397 -0.8955  0.1963  1.0202
  985MOL0     C32851  -0.254   1.906   6.489  0.2175 -0.0033 -0.2509
  985MOL0     C32852  -0.389   1.886   6.434 -0.0083  0.0691  0.6191
  985MOL0     C32853  -0.373   1.774   6.328 -0.4439  0.2080 -0.4730
  985MOL0     C32854  -0.504   1.718   6.275 -0.2055  0.0223 -0.1937
  985MOL0     C32855  -0.492   1.596   6.183 -0.3611  0.1249  0.1736
  985MOL0     C32856  -0.606   1.573   6.082 -0.1721  0.8572  0.1831
  985MOL0     N32857  -0.740   1.566   6.141 -0.5664 -0.4658 -0.5049
  985MOL0     C32858  -0.804   1.459   6.191 -0.1232  0.1989 -0.7030
  985MOL0     C32859  -0.929   1.496   6.216 -0.1119 -0.3084  0.2512
  985MOL0     C32860  -1.047   1.406   6.247  0.6684  0.2157  0.5597
  985MOL0     C32861  -1.114   1.373   6.118 -0.0563  0.3883 -0.2360
  985MOL0     C32862  -1.203   1.250   6.127  0.1171  0.2303 -0.5572
  985MOL0     C32863  -1.220   1.177   5.989 -0.8117 -0.2872  0.0227
  985MOL0     O32864  -1.272   1.041   6.000 -0.2651 -0.3475 -0.5025
  985MOL0     C32865  -1.391   1.027   5.938 -0.5809  0.1412 -0.6615
  985MOL0     C32866  -1.496   1.117   5.955  0.2430  0.5852  1.1441
  985MOL0     C32867  -1.619   1.111   5.889 -0.0069  0.1153 -0.1320
  985MOL0     C32868  -1.709   1.224   5.906  0.7339 -0.9842  0.4145
  985MOL0     C32869  -1.639   1.002   5.804  0.1082 -0.6336  0.2305
  985MOL0     C32870  -1.759   0.978   5.715  0.5060  0.4093 -0.2640
  985MOL0     O32871  -1.861   1.071   5.722  0.3297  0.2454 -0.2223
  985MOL0     C32872  -1.966   1.075   5.635 -0.1207 -0.0853 -0.5209
  985MOL0     C32873  -2.055   0.971   5.645  0.4346 -1.0962  0.2820
  985MOL0     C32874  -2.172   0.969   5.565  0.7619  0.6791  0.2716
  985MOL0     C32875  -2.197   1.080   5.479 -0.0111 -0.0836 -1.1817
  985MOL0     O32876  -2.290   1.080   5.386  0.5629  0.4786  0.1669
  985MOL0     C32877  -2.421   1.021   5.399  0.3794 -0.3013 -0.0457
  985MOL0     C32878  -2.515   1.118   5.323  0.0145  0.1600 -0.4282
  985MOL0     C32879  -2.665   1.095   5.345  0.1529 -0.3977 -0.1364
  985MOL0     C32880  -2.752   1.180   5.251  0.7602 -0.3489 -0.7585
  985MOL0     C32881  -2.902   1.151   5.275  0.4190  0.8400  0.1569
  985MOL0     C32882  -2.945   1.202   5.409  0.0610 -0.1448 -0.3746
  985MOL0     C32883  -3.096   1.206   5.433 -0.2113 -0.0537 -0.2500
  985MOL0     C32884  -3.153   1.071   5.441  0.2371  0.3626 -0.1784
  985MOL0    Cl32885  -3.310   1.103   5.517 -0.1409  0.0377 -0.3441
  985MOL0     C32886  -2.110   1.187   5.475 -0.6359  0.1258  0.0283
  985MOL0     C32887  -1.996   1.188   5.555  0.0203  0.3822  0.6432
  985MOL0     O32888  -1.771   0.871   5.656 -0.3638  0.6140 -0.1060
  985MOL0     C32889  -1.536   0.906   5.792 -0.5825  0.2071 -0.3600
  985MOL0     C32890  -1.409   0.918   5.853  0.7584  0.1592 -0.2022
  985MOL0     N32891  -0.943   1.632   6.190  0.7246  0.1297 -0.8391
  985MOL0     N32892  -0.826   1.674   6.161  0.2087  0.4615  0.2392
  985MOL0     C32893   0.211   2.094   6.565  0.0692  1.0724 -0.1163
  985MOL0     C32894   0.341   2.121   6.590 -0.7156 -0.1038  0.3954
  985MOL0     C32895   0.798   2.168   6.621  0.3424  0.2278 -0.0890
  985MOL0     C32896   0.880   2.216   6.517 -0.0925  0.7858 -0.2434
  985MOL0     C32897   1.016   2.253   6.553 -0.2015  0.3683  0.1100
  985MOL0     C32898   1.064   2.237   6.678 -0.4503  0.4089 -0.5967
  985MOL0     O32899   1.200   2.275   6.693 -0.3294  0.3531  0.5571
  985MOL0     C32900   1.247   2.315   6.824 -0.8813 -0.3373 -0.0152
  985MOL0     C32901   1.383   2.377   6.816 -0.1469  0.4769  0.6498
  985MOL0     C32902   1.437   2.395   6.958  0.2050  0.2739  0.6172
  985MOL0     C32903   1.576   2.458   6.955 -0.1029  0.6748  0.4830
  985MOL0     C32904   1.675   2.367   6.898 -0.3562  0.1207  0.0304
  985MOL0     C32905   1.765   2.283   6.880 -0.1222  0.2283  0.8847
  985MOL0     C32906   0.996   2.159   6.767 -0.1213 -0.4481 -0.2176
  985MOL0     C32907   0.863   2.132   6.740  1.1307 -0.7104  0.2424
  985MOL0     H32908   0.459   2.178   6.272 -0.3217 -0.7110 -0.5594
  985MOL0     H32909   0.243   2.140   6.222  3.0328 -0.2873 -0.7540
  985MOL0     H32910   0.019   1.930   6.519 -0.2565  0.5490 -2.1803
  985MOL0     H32911  -0.074   2.088   6.548  1.5069  1.4048 -0.1103
  985MOL0     H32912  -0.196   2.055   6.342  0.9067 -0.3936 -1.5081
  985MOL0     H32913  -0.121   1.907   6.314 -0.8318  3.9132 -2.1401
  985MOL0     H32914  -0.211   1.811   6.523  2.8846  0.4734 -1.9980
  985MOL0     H32915  -0.265   1.975   6.573  2.2661  1.0855 -0.8155
  985MOL0     H32916  -0.452   1.865   6.522  0.0902 -1.1688  0.4046
  985MOL0     H32917  -0.417   1.981   6.388  0.4303 -0.4615 -0.7947
  985MOL0     H32918  -0.324   1.827   6.246  0.3164  0.5916  0.2184
  985MOL0     H32919  -0.312   1.694   6.372  0.2771  2.1041  2.2996
  985MOL0     H32920  -0.563   1.685   6.362  1.0272 -2.0297 -0.0582
  985MOL0     H32921  -0.559   1.801   6.229 -0.8575 -0.6285 -0.6209
  985MOL0     H32922  -0.396   1.599   6.129  0.3936 -1.6404  1.3400
  985MOL0     H32923  -0.490   1.501   6.236 -2.5971  0.7905  1.5870
  985MOL0     H32924  -0.601   1.476   6.031  3.1418  0.6763  0.6308
  985MOL0     H32925  -0.596   1.655   6.011  3.5144 -1.3391 -2.1631
  985MOL0     H32926  -0.765   1.361   6.216 -0.1734 -0.0931 -1.6999
  985MOL0     H32927  -1.014   1.318   6.303  1.2085  2.1593  3.5142
  985MOL0     H32928  -1.120   1.463   6.306 -0.6200 -1.6894  0.8938
  985MOL0     H32929  -1.037   1.360   6.041  1.2349  5.0833 -0.0701
  985MOL0     H32930  -1.187   1.450   6.092 -0.5541  0.1629  0.4573
  985MOL0     H32931  -1.294   1.265   6.185  2.5113  1.5632  3.2158
  985MOL0     H32932  -1.140   1.172   6.171  2.8691  2.4303 -0.3537
  985MOL0     H32933  -1.121   1.177   5.943 -0.7652  1.7870  0.0314
  985MOL0     H32934  -1.275   1.242   5.920 -0.0768  0.1852 -0.1292
  985MOL0     H32935  -1.477   1.198   6.024  0.6470  0.8419  0.7375
  985MOL0     H32936  -1.813   1.195   5.924 -0.7179  2.2171 -1.8418
  985MOL0     H32937  -1.678   1.281   5.994 -1.7412  0.1342  0.6411
  985MOL0     H32938  -1.706   1.282   5.812  1.7366 -2.7692 -0.7115
  985MOL0     H32939  -2.038   0.887   5.712 -0.2867 -0.7209  0.9633
  985MOL0     H32940  -2.248   0.892   5.564  0.2161  1.1391  2.2557
  985MOL0     H32941  -2.428   0.921   5.353 -0.5019 -0.8815  1.2902
  985MOL0     H32942  -2.449   1.017   5.505  1.2804  1.0561  0.2664
  985MOL0     H32943  -2.504   1.222   5.355  0.1442  0.0476 -0.1012
  985MOL0     H32944  -2.493   1.117   5.216 -0.5525  0.5042 -0.5518
  985MOL0     H32945  -2.690   1.140   5.441  1.4268 -2.7915  1.4090
  985MOL0     H32946  -2.689   0.988   5.346 -2.3634  0.1053  0.2995
  985MOL0     H32947  -2.731   1.287   5.264 -2.4316  0.3839 -0.8970
  985MOL0     H32948  -2.732   1.157   5.146 -1.4293  2.1158 -1.8277
  985MOL0     H32949  -2.913   1.044   5.258 -0.5042  1.0961 -0.9501
  985MOL0     H32950  -2.959   1.189   5.190 -0.2343 -3.0698 -1.3173
  985MOL0     H32951  -2.902   1.129   5.478  0.9392 -0.1456 -0.9049
  985MOL0     H32952  -2.906   1.304   5.413 -1.5755  0.4936  3.6612
  985MOL0     H32953  -3.144   1.268   5.357 -0.6199  1.7551  1.4056
  985MOL0     H32954  -3.110   1.242   5.535 -0.8090 -3.1876  0.8842
  985MOL0     H32955  -3.083   1.008   5.497 -1.6695 -2.9714 -1.2262
  985MOL0     H32956  -3.161   1.020   5.345  2.8645 -0.8994  0.2041
  985MOL0     H32957  -2.137   1.272   5.414 -2.0599 -0.0484  0.3701
  985MOL0     H32958  -1.933   1.273   5.576  0.2656  0.7656 -1.4341
  985MOL0     H32959  -1.547   0.822   5.724 -1.6378 -0.2538  0.3507
  985MOL0     H32960  -1.343   0.832   5.844  0.8557  0.3623 -1.7138
  985MOL0     H32961   0.147   2.058   6.645  2.1644 -1.6543  0.5186
  985MOL0     H32962   0.372   2.104   6.693  0.1711  0.4619  0.2370
  985MOL0     H32963   0.837   2.231   6.419  3.6399  2.5545 -1.8241
  985MOL0     H32964   1.090   2.297   6.486  0.2298 -1.0894 -0.4273
  985MOL0     H32965   1.180   2.389   6.870  1.5107  1.3092  0.9894
  985MOL0     H32966   1.255   2.226   6.887  4.0477 -1.7533 -2.2130
  985MOL0     H32967   1.374   2.476   6.771 -0.2601 -0.7743 -2.3525
  985MOL0     H32968   1.442   2.308   6.754 -3.2594 -3.4664  1.6388
  985MOL0     H32969   1.436   2.301   7.014 -0.6795 -0.0881  0.0112
  985MOL0     H32970   1.376   2.462   7.019 -0.6292 -1.2101  1.4537
  985MOL0     H32971   1.606   2.491   7.055  3.3492 -1.1529  0.2066
  985MOL0     H32972   1.581   2.543   6.886 -0.0235 -0.0220 -0.3911
  985MOL0     H32973   1.859   2.232   6.873 -0.0430  0.6129 -2.1162
  985MOL0     H32974   1.034   2.125   6.862 -0.6894  1.7648  0.8722
  985MOL0     H32975   0.815   2.087   6.825  0.2664 -1.0489 -0.4122
  986MOL0     O32976   4.341   6.270   4.873 -0.4046  0.0614 -0.5662
  986MOL0     C32977   4.391   6.282   4.987  0.3639 -0.2494  0.1664
  986MOL0     O32978   4.328   6.274   5.112  0.2944  0.2677 -0.7172
  986MOL0     C32979   4.191   6.292   5.119  0.1922  0.2359  0.4882
  986MOL0     C32980   4.118   6.370   5.027 -1.0580  0.4245 -0.4268
  986MOL0     C32981   3.981   6.393   5.054  0.8495  0.3159 -0.2984
  986MOL0     C32982   3.912   6.336   5.161 -0.2731 -0.0176  0.2570
  986MOL0     O32983   3.780   6.351   5.196  0.6316  0.4496  0.3251
  986MOL0     C32984   3.701   6.425   5.112 -0.6459 -0.3989 -0.1619
  986MOL0     C32985   3.551   6.422   5.147 -0.4822 -0.3887  0.3966
  986MOL0     C32986   3.512   6.520   5.262  0.0029 -0.0863  0.9998
  986MOL0     C32987   3.375   6.478   5.327 -0.0499 -0.6025  0.8170
  986MOL0     C32988   3.258   6.523   5.237 -0.2297  0.0426 -0.0019
  986MOL0     C32989   3.119   6.499   5.307  0.1036  0.0719 -0.0801
  986MOL0     C32990   3.093   6.590   5.431  0.2706  0.5607 -0.8207
  986MOL0     C32991   3.089   6.740   5.398 -0.4379  0.4433 -0.3542
  986MOL0     N32992   2.956   6.798   5.417 -0.1617  0.1571  0.5449
  986MOL0     C32993   2.883   6.810   5.538 -0.4820 -0.0832  0.2259
  986MOL0     C32994   2.767   6.870   5.508 -0.3517  0.4304  1.5198
  986MOL0     C32995   2.650   6.902   5.593 -0.3907  0.6401 -0.0405
  986MOL0     C32996   2.691   6.922   5.736 -0.3447 -0.5411 -0.9731
  986MOL0     C32997   2.663   6.807   5.827 -0.2850  0.0330 -0.1766
  986MOL0     C32998   2.711   6.828   5.978  0.7224  0.4481  0.0073
  986MOL0     O32999   2.614   6.895   6.060 -0.0353 -1.0949 -0.3020
  986MOL0     C33000   2.501   6.832   6.100 -0.4398 -0.2650  0.8180
  986MOL0     C33001   2.400   6.909   6.156 -0.1600  1.0676  0.3703
  986MOL0     C33002   2.280   6.846   6.211 -0.1964 -0.6449 -1.1780
  986MOL0     C33003   2.173   6.944   6.253 -0.3039  0.0812 -1.1863
  986MOL0     C33004   2.266   6.711   6.202  0.4366 -0.2048  0.5425
  986MOL0     C33005   2.147   6.639   6.249 -0.3441  0.8718  0.5190
  986MOL0     O33006   2.090   6.690   6.366 -0.2903 -0.1502  0.4833
  986MOL0     C33007   1.976   6.625   6.414  0.6494 -0.7935  0.6397
  986MOL0     C33008   1.877   6.711   6.460  0.5923  0.2759  0.6067
  986MOL0     C33009   1.764   6.653   6.530  0.4428 -0.7086 -0.1986
  986MOL0     C33010   1.752   6.511   6.558  0.8358  0.2601  1.0152
  986MOL0     O33011   1.641   6.456   6.626 -0.3167 -0.1775 -0.4763
  986MOL0     C33012   1.527   6.543   6.656  0.4130 -0.0468  0.1136
  986MOL0     C33013   1.414   6.447   6.692 -0.3029 -0.5626  0.2719
  986MOL0     C33014   1.284   6.535   6.706 -0.6217  0.2778  0.6078
  986MOL0     C33015   1.168   6.446   6.732 -0.1287  0.1748  0.1192
  986MOL0     C33016   1.043   6.537   6.753 -0.1715 -0.5220 -0.5271
  986MOL0     C33017   0.928   6.449   6.801  0.0751  0.0910  0.7465
  986MOL0     C33018   0.820   6.524   6.882 -0.0225 -0.3996 -1.1231
  986MOL0     C33019   0.701   6.566   6.791  0.1606  0.0769 -0.4998
  986MOL0    Cl33020   0.630   6.706   6.875 -0.3517 -0.2716 -0.2952
  986MOL0     C33021   1.853   6.430   6.507 -0.3500  0.4263  0.5331
  986MOL0     C33022   1.966   6.489   6.437 -0.1682 -0.0131 -0.8575
  986MOL0     O33023   2.103   6.549   6.177 -1.1382 -0.0597 -0.7902
  986MOL0     C33024   2.361   6.635   6.138  1.0438 -0.1331  0.4198
  986MOL0     C33025   2.476   6.693   6.078 -0.1283 -0.7473 -0.2587
  986MOL0     N33026   2.760   6.887   5.371  0.4347  0.3140  0.1784
  986MOL0     N33027   2.866   6.844   5.318 -0.3509  0.0888  0.4791
  986MOL0     C33028   3.985   6.246   5.244 -0.0702 -0.2999  0.3142
  986MOL0     C33029   4.126   6.233   5.226  0.4141  0.3777  0.8866
  986MOL0     C33030   4.541   6.280   4.989 -0.0107  0.1420 -0.4395
  986MOL0     C33031   4.609   6.317   4.870 -0.4337 -0.2288 -0.4551
  986MOL0     C33032   4.745   6.307   4.854  0.3845  0.4507  0.8989
  986MOL0     C33033   4.832   6.283   4.963 -0.8253  0.1366  0.0588
  986MOL0     O33034   4.976   6.285   4.948 -0.0338  0.3589  0.1457
  986MOL0     C33035   5.044   6.289   5.069 -0.3071 -0.0836  0.4214
  986MOL0     C33036   5.199   6.295   5.045 -0.5344 -0.0464 -0.2117
  986MOL0     C33037   5.263   6.415   5.112  0.1949 -0.4795  1.1303
  986MOL0     C33038   5.284   6.545   5.027  0.1342  0.5299  0.2557
  986MOL0     C33039   5.325   6.655   5.111 -0.1835  0.3808  0.2541
  986MOL0     C33040   5.360   6.737   5.189 -0.8424 -0.7281 -0.3786
  986MOL0     C33041   4.767   6.270   5.092  0.0248  0.2899  0.2913
  986MOL0     C33042   4.625   6.260   5.100 -0.2245 -0.0984  0.2662
  986MOL0     H33043   4.154   6.422   4.938  1.3461 -1.9347 -0.9488
  986MOL0     H33044   3.939   6.467   4.986  3.4501  2.5705  0.3582
  986MOL0     H33045   3.725   6.529   5.134 -3.2303 -0.2254  2.4036
  986MOL0     H33046   3.730   6.412   5.008  1.9487  2.7797  0.0118
  986MOL0     H33047   3.501   6.453   5.056 -1.2288  1.1899  1.3174
  986MOL0     H33048   3.534   6.316   5.171 -2.0697 -0.8658 -2.3724
  986MOL0     H33049   3.584   6.516   5.344 -1.5854 -0.8176  2.4007
  986MOL0     H33050   3.497   6.622   5.225 -0.8716 -0.8725 -0.9703
  986MOL0     H33051   3.374   6.371   5.349 -2.1550 -0.7782  0.1072
  986MOL0     H33052   3.372   6.534   5.421 -2.0102  0.0137  0.4292
  986MOL0     H33053   3.269   6.624   5.198 -3.2502 -1.2926 -5.2136
  986MOL0     H33054   3.254   6.461   5.147 -0.4006 -0.7112  0.5113
  986MOL0     H33055   3.038   6.508   5.233 -0.1772  1.4196  0.3619
  986MOL0     H33056   3.127   6.395   5.339  0.5261 -0.4765 -1.8239
  986MOL0     H33057   2.996   6.565   5.475  0.6712 -0.7390 -0.6416
  986MOL0     H33058   3.174   6.566   5.501 -1.3428 -0.7213  0.6867
  986MOL0     H33059   3.115   6.771   5.296 -1.7412  0.4289 -0.7016
  986MOL0     H33060   3.152   6.797   5.467 -1.9197  0.4578  1.0363
  986MOL0     H33061   2.910   6.768   5.634 -0.6622 -0.7824 -0.0246
  986MOL0     H33062   2.588   6.982   5.552 -1.5682 -1.1554 -1.9735
  986MOL0     H33063   2.577   6.821   5.584  0.0003  0.3268 -0.4250
  986MOL0     H33064   2.647   7.008   5.788 -0.4177 -1.0733 -0.1283
  986MOL0     H33065   2.797   6.950   5.741 -0.3479 -0.7435  1.6660
  986MOL0     H33066   2.707   6.717   5.783 -0.6961  0.4763 -1.5623
  986MOL0     H33067   2.556   6.783   5.824 -0.0946 -0.7350 -1.1426
  986MOL0     H33068   2.801   6.890   5.974  0.4676  0.7752 -0.8158
  986MOL0     H33069   2.747   6.733   6.018 -0.6868 -0.3739 -0.6161
  986MOL0     H33070   2.425   7.014   6.175  0.6744  0.8712  0.4261
  986MOL0     H33071   2.071   6.926   6.219 -0.5226 -0.1777 -0.4164
  986MOL0     H33072   2.169   6.952   6.362 -0.3183  3.6205 -1.3250
  986MOL0     H33073   2.201   7.045   6.221 -1.4429  1.3473  1.5393
  986MOL0     H33074   1.887   6.817   6.440 -1.0836  0.3231 -0.1117
  986MOL0     H33075   1.687   6.721   6.563  1.1421  0.6245 -1.1899
  986MOL0     H33076   1.546   6.615   6.736 -1.5048 -0.1451  0.6970
  986MOL0     H33077   1.491   6.590   6.564  1.7333  1.0783  0.1381
  986MOL0     H33078   1.412   6.367   6.618 -0.8205 -0.6392  0.3653
  986MOL0     H33079   1.441   6.411   6.792 -0.9440  1.9409  1.4356
  986MOL0     H33080   1.259   6.598   6.620 -0.8539  0.0918  0.5369
  986MOL0     H33081   1.307   6.606   6.786  2.6170  1.4893 -1.1803
  986MOL0     H33082   1.155   6.373   6.651  0.2856 -1.0898  1.1516
  986MOL0     H33083   1.189   6.403   6.830  4.5719  1.4172 -0.1305
  986MOL0     H33084   1.024   6.593   6.661  0.9003  0.5511 -0.1229
  986MOL0     H33085   1.063   6.605   6.836  2.4938 -1.4742 -0.3083
  986MOL0     H33086   0.887   6.403   6.710 -1.7480  1.0010  1.0567
  986MOL0     H33087   0.972   6.369   6.860  0.5047  0.7512  1.3320
  986MOL0     H33088   0.860   6.615   6.928  0.7838 -0.4537 -1.6926
  986MOL0     H33089   0.783   6.457   6.960 -1.6209  2.5509  0.8554
  986MOL0     H33090   0.630   6.483   6.789  1.3613 -1.0376  0.9569
  986MOL0     H33091   0.739   6.596   6.693  0.5610  0.1743 -0.3134
  986MOL0     H33092   1.850   6.322   6.516  2.1614  0.4787  2.9256
  986MOL0     H33093   2.049   6.421   6.417 -0.3710 -0.6403  0.3252
  986MOL0     H33094   2.340   6.531   6.116 -0.6508 -0.5084  3.2344
  986MOL0     H33095   2.546   6.631   6.023 -1.0499 -1.9232 -0.1372
  986MOL0     H33096   3.929   6.204   5.326 -0.5504  0.7149  0.5250
  986MOL0     H33097   4.185   6.161   5.282  1.7202 -0.7374 -1.7353
  986MOL0     H33098   4.548   6.345   4.785 -1.1730  1.1741  0.5005
  986MOL0     H33099   4.780   6.329   4.753 -3.8720 -1.7043 -1.3698
  986MOL0     H33100   5.006   6.387   5.097 -0.6979 -0.2276  0.3943
  986MOL0     H33101   5.021   6.208   5.140  2.9418 -0.9103  0.7009
  986MOL0     H33102   5.221   6.303   4.939  3.5591  1.6820  0.6071
  986MOL0     H33103   5.243   6.203   5.086 -1.9162  0.0657  1.7049
  986MOL0     H33104   5.361   6.384   5.152  0.5697 -2.7799 -1.2847
  986MOL0     H33105   5.204   6.435   5.202 -1.9682  0.4044 -0.4080
  986MOL0     H33106   5.194   6.561   4.966 -1.2210 -4.3140  0.5387
  986MOL0     H33107   5.359   6.532   4.948  1.2916 -1.2569  1.5858
  986MOL0     H33108   5.400   6.808   5.259 -1.9044  0.2933 -0.7717
  986MOL0     H33109   4.818   6.257   5.187  0.8921  2.9747  0.2733
  986MOL0     H33110   4.566   6.247   5.190  0.4223  1.0946  0.8764
  987MOL0     O33111   6.434   0.404   1.246 -0.1837 -0.1293  0.3844
  987MOL0     C33112   6.442   0.300   1.183  0.7318 -0.1450 -0.2241
  987MOL0     O33113   6.339   0.205   1.167 -0.4064  0.5919  0.0740
  987MOL0     C33114   6.219   0.234   1.227  0.1939 -0.8837 -0.7032
  987MOL0     C33115   6.121   0.304   1.158 -0.2961  0.0182  0.5339
  987MOL0     C33116   5.998   0.333   1.222 -0.8811 -0.4329 -0.5845
  987MOL0     C33117   5.972   0.280   1.345  0.2080  0.0250 -0.4676
  987MOL0     O33118   5.852   0.313   1.422 -0.1726 -0.5185  0.3354
  987MOL0     C33119   5.732   0.345   1.351 -0.4859  0.3358 -1.2596
  987MOL0     C33120   5.628   0.279   1.434  0.1788 -0.1652 -0.9955
  987MOL0     C33121   5.491   0.300   1.380 -0.5086 -1.5987  0.7583
  987MOL0     C33122   5.376   0.250   1.470  0.2418 -0.3678 -0.6775
  987MOL0     C33123   5.238   0.285   1.410  0.9701 -0.0725  1.1375
  987MOL0     C33124   5.119   0.262   1.506  0.5583  0.4809  0.5729
  987MOL0     C33125   4.999   0.335   1.455  0.7651  0.0926 -0.4066
  987MOL0     C33126   4.906   0.257   1.366 -0.1183  0.5606  0.6989
  987MOL0     N33127   4.798   0.337   1.311  0.4163 -0.6486  0.4475
  987MOL0     C33128   4.729   0.444   1.369  0.3865 -0.3177  0.1095
  987MOL0     C33129   4.660   0.500   1.271  0.6285  0.6592  0.5059
  987MOL0     C33130   4.574   0.624   1.276 -1.2170  0.4860  0.4550
  987MOL0     C33131   4.444   0.593   1.333 -1.3900  0.2880 -0.1264
  987MOL0     C33132   4.339   0.699   1.312 -0.4803 -0.5893 -0.3174
  987MOL0     C33133   4.202   0.662   1.380 -0.4341 -0.8469 -0.0569
  987MOL0     O33134   4.089   0.743   1.351  0.4142 -0.7785 -0.0045
  987MOL0     C33135   3.972   0.729   1.420 -0.3167 -0.3422 -0.2078
  987MOL0     C33136   3.918   0.607   1.457  0.1470  0.6454  0.3132
  987MOL0     C33137   3.796   0.596   1.533  0.2487 -0.0980  0.5787
  987MOL0     C33138   3.738   0.459   1.545  0.2038  1.3738  0.1821
  987MOL0     C33139   3.722   0.711   1.569 -0.4570  0.5850  0.2362
  987MOL0     C33140   3.601   0.720   1.653 -0.3645 -0.1747 -0.2700
  987MOL0     O33141   3.550   0.609   1.699 -0.1793  0.0237 -0.3159
  987MOL0     C33142   3.415   0.588   1.690  0.2791 -0.2113 -0.2280
  987MOL0     C33143   3.323   0.659   1.608 -0.2605 -0.3535 -0.8150
  987MOL0     C33144   3.187   0.619   1.606 -0.0509  0.3357 -0.0452
  987MOL0     C33145   3.142   0.520   1.696 -0.9145 -0.7354 -1.1544
  987MOL0     O33146   3.008   0.488   1.711  0.3607 -0.2328 -0.4358
  987MOL0     C33147   2.931   0.589   1.783 -0.3251  0.3659 -0.3266
  987MOL0     C33148   2.785   0.587   1.755 -0.0689 -0.1172  0.5668
  987MOL0     C33149   2.755   0.584   1.597  0.2599 -0.3141 -0.7146
  987MOL0     C33150   2.609   0.599   1.575  0.0453 -1.1706 -0.0658
  987MOL0     C33151   2.583   0.598   1.426  0.9727  0.3065 -0.1687
  987MOL0     C33152   2.433   0.634   1.383  0.2029 -0.9082  0.1375
  987MOL0     C33153   2.335   0.518   1.408 -0.6687  0.9225  0.1110
  987MOL0     C33154   2.205   0.553   1.356  0.2198 -0.4823  0.9696
  987MOL0    Cl33155   2.091   0.419   1.377 -0.0125 -0.0796 -0.1686
  987MOL0     C33156   3.235   0.449   1.778  0.1707 -1.1527 -0.1039
  987MOL0     C33157   3.366   0.482   1.762 -0.4041 -0.2146 -0.6820
  987MOL0     O33158   3.555   0.831   1.683 -0.3590  0.3695  0.3869
  987MOL0     C33159   3.778   0.835   1.530 -0.6944  0.1379 -0.5640
  987MOL0     C33160   3.898   0.840   1.467 -0.0308  0.5087 -0.1533
  987MOL0     N33161   4.692   0.435   1.155 -0.7383  0.0776 -0.3162
  987MOL0     N33162   4.770   0.337   1.178 -0.4582  0.2016  0.2533
  987MOL0     C33163   6.066   0.202   1.410 -0.6778 -0.5555 -0.3455
  987MOL0     C33164   6.191   0.175   1.355  0.0223  0.1626  1.0286
  987MOL0     C33165   6.576   0.274   1.133  0.1034  0.2696  0.5147
  987MOL0     C33166   6.687   0.358   1.170  0.3927 -1.5790  0.0297
  987MOL0     C33167   6.815   0.326   1.133 -0.5779  0.2116  1.3731
  987MOL0     C33168   6.838   0.216   1.049 -1.0424 -0.6153 -0.3629
  987MOL0     O33169   6.969   0.187   1.016 -0.0175 -0.7123 -0.0841
  987MOL0     C33170   7.011   0.069   0.946 -0.5756 -0.0439 -0.1643
  987MOL0     C33171   7.166   0.063   0.931 -0.8593  0.9377  0.4906
  987MOL0     C33172   7.215  -0.018   1.058 -0.1821 -0.0776 -0.6132
  987MOL0     C33173   7.361  -0.055   1.035  0.0136 -0.0483  0.6371
  987MOL0     C33174   7.405  -0.164   1.115 -1.1873  0.6052 -0.8246
  987MOL0     C33175   7.439  -0.229   1.217  0.3224 -0.0904 -0.1173
  987MOL0     C33176   6.728   0.134   1.004  0.2533 -0.6023  0.4038
  987MOL0     C33177   6.602   0.163   1.056  0.0606  0.3541 -0.2564
  987MOL0     H33178   6.147   0.338   1.059 -0.3122 -2.1970 -0.2774
  987MOL0     H33179   5.921   0.397   1.180 -1.3694 -0.1131  0.7410
  987MOL0     H33180   5.727   0.454   1.356  2.8265  0.7138 -2.9179
  987MOL0     H33181   5.731   0.321   1.244 -0.6839 -3.2991 -0.5787
  987MOL0     H33182   5.652   0.173   1.435 -0.6149 -0.3405 -0.3423
  987MOL0     H33183   5.628   0.317   1.537 -0.0016 -2.1461 -0.2317
  987MOL0     H33184   5.470   0.403   1.349  1.6484 -1.0119  1.0236
  987MOL0     H33185   5.490   0.246   1.285 -0.7592 -0.5501  0.1464
  987MOL0     H33186   5.390   0.142   1.485 -2.0965 -0.6076  0.2706
  987MOL0     H33187   5.382   0.298   1.568 -0.3728  3.0236 -2.1792
  987MOL0     H33188   5.244   0.390   1.379 -0.5408  0.2592  1.8550
  987MOL0     H33189   5.222   0.226   1.319 -2.3409  2.6629 -0.3045
  987MOL0     H33190   5.104   0.156   1.527  0.9040  0.3587  0.2122
  987MOL0     H33191   5.153   0.304   1.601  1.6134 -0.9224  0.8453
  987MOL0     H33192   4.939   0.380   1.535  1.4111  1.0244 -0.4285
  987MOL0     H33193   5.033   0.425   1.403  2.1788 -0.2081 -0.0470
  987MOL0     H33194   4.858   0.183   1.431  0.3413 -0.9369 -0.6127
  987MOL0     H33195   4.964   0.199   1.294 -0.6320  1.9843 -0.9117
  987MOL0     H33196   4.722   0.476   1.472 -1.1628 -0.5711  0.1098
  987MOL0     H33197   4.623   0.695   1.344 -0.8181  0.7168 -0.0600
  987MOL0     H33198   4.560   0.669   1.177  0.1427 -0.8694 -0.4011
  987MOL0     H33199   4.459   0.551   1.433  0.7005 -1.0929 -0.9360
  987MOL0     H33200   4.418   0.508   1.269 -0.0481  0.7759 -1.3761
  987MOL0     H33201   4.328   0.733   1.208 -2.9318  1.6009  0.5498
  987MOL0     H33202   4.377   0.785   1.368  1.0412 -1.6819  0.3837
  987MOL0     H33203   4.211   0.668   1.488  1.9674  0.4464 -0.2651
  987MOL0     H33204   4.193   0.554   1.366  2.1131 -1.3580  1.6052
  987MOL0     H33205   3.959   0.517   1.412 -0.3430  2.2019 -3.6401
  987MOL0     H33206   3.637   0.464   1.504  0.3112 -3.8454 -1.4201
  987MOL0     H33207   3.788   0.381   1.488  0.2324  0.8672  0.8872
  987MOL0     H33208   3.734   0.428   1.650 -1.7771  0.7407 -0.0396
  987MOL0     H33209   3.354   0.748   1.554 -0.3520 -0.6616 -1.3886
  987MOL0     H33210   3.120   0.669   1.537 -0.3387 -2.2540 -1.7940
  987MOL0     H33211   2.955   0.576   1.889 -0.4658  0.3813 -0.2924
  987MOL0     H33212   2.970   0.690   1.766 -0.6358  0.7934  1.3226
  987MOL0     H33213   2.739   0.502   1.805  0.1166  0.0215  0.9760
  987MOL0     H33214   2.747   0.679   1.803  0.3548 -0.5325  1.7286
  987MOL0     H33215   2.785   0.491   1.548 -0.7409  0.1423 -2.2703
  987MOL0     H33216   2.799   0.674   1.552  0.7385 -0.1087  0.1401
  987MOL0     H33217   2.558   0.514   1.620 -0.7620 -0.1166  1.0949
  987MOL0     H33218   2.575   0.696   1.613  2.2459 -0.2281 -0.3818
  987MOL0     H33219   2.620   0.503   1.387  1.5730 -0.4872  2.1820
  987MOL0     H33220   2.645   0.674   1.377  1.1121 -0.6271 -1.4922
  987MOL0     H33221   2.403   0.714   1.451 -0.7974  0.0427 -1.3751
  987MOL0     H33222   2.440   0.673   1.281 -1.1802 -1.3078 -0.1289
  987MOL0     H33223   2.350   0.497   1.514 -0.5095 -0.2141 -0.1180
  987MOL0     H33224   2.372   0.438   1.342  2.5066  0.8093  1.8232
  987MOL0     H33225   2.198   0.578   1.250 -2.2987 -0.7197  1.0210
  987MOL0     H33226   2.170   0.636   1.417  1.0332 -0.5975  1.6131
  987MOL0     H33227   3.189   0.376   1.844 -1.1784  1.7027  2.3487
  987MOL0     H33228   3.426   0.422   1.830  1.3619 -1.4591 -3.1708
  987MOL0     H33229   3.743   0.931   1.568  0.7974  0.4048  0.2214
  987MOL0     H33230   3.940   0.937   1.440  0.2227  0.6803  0.8473
  987MOL0     H33231   6.030   0.169   1.506  0.2985 -0.9954 -0.1127
  987MOL0     H33232   6.267   0.117   1.405  0.6101 -0.4914 -0.5756
  987MOL0     H33233   6.678   0.435   1.245  0.8734 -3.8385  2.5289
  987MOL0     H33234   6.902   0.385   1.161  1.4682 -1.6086 -0.7306
  987MOL0     H33235   6.967  -0.017   0.997  1.5374 -1.4765 -0.5995
  987MOL0     H33236   6.967   0.065   0.846 -1.2218 -0.0018  0.1135
  987MOL0     H33237   7.212   0.160   0.911  0.2731  1.3091  4.3042
  987MOL0     H33238   7.195   0.007   0.841 -1.4470  1.5088 -0.0653
  987MOL0     H33239   7.149  -0.104   1.069  0.8618 -1.3997 -3.6630
  987MOL0     H33240   7.204   0.048   1.144 -1.0810  0.5204 -1.1671
  987MOL0     H33241   7.417   0.037   1.055 -0.4281  0.3351  0.1359
  987MOL0     H33242   7.387  -0.089   0.935  4.3888  1.2023  1.1407
  987MOL0     H33243   7.468  -0.269   1.312  0.7394 -0.5876 -0.4478
  987MOL0     H33244   6.745   0.047   0.941  4.7163  1.1807 -1.2274
  987MOL0     H33245   6.529   0.099   1.008 -3.2711  0.1597  4.4654
  988MOL0     O33246   9.910   5.616   4.075 -0.6471  0.0714 -0.2289
  988MOL0     C33247   9.958   5.596   4.183  0.4313 -0.9606  0.3033
  988MOL0     O33248   9.894   5.550   4.289 -0.1628 -0.0827 -0.3394
  988MOL0     C33249   9.763   5.518   4.276 -0.6087  0.0602 -0.8659
  988MOL0     C33250   9.663   5.593   4.220 -0.2371 -0.2731  0.2161
  988MOL0     C33251   9.527   5.557   4.215 -0.0868  0.3874 -0.1961
  988MOL0     C33252   9.490   5.436   4.284 -0.0529  0.9287 -0.2971
  988MOL0     O33253   9.358   5.395   4.275  0.4272 -0.0679 -0.5079
  988MOL0     C33254   9.340   5.301   4.172 -0.8356 -0.1687 -0.4154
  988MOL0     C33255   9.209   5.345   4.103 -0.6659  0.5562 -1.6273
  988MOL0     C33256   9.090   5.324   4.202  0.5373  0.0473  0.1882
  988MOL0     C33257   8.956   5.359   4.119  0.2973 -0.6818  0.1442
  988MOL0     C33258   8.823   5.313   4.185  0.1236 -0.0695 -0.0580
  988MOL0     C33259   8.690   5.384   4.127 -0.4536  1.2614 -0.2294
  988MOL0     C33260   8.652   5.509   4.201 -0.4230  0.4543 -0.2794
  988MOL0     C33261   8.520   5.569   4.156 -0.7843  0.2051  0.0286
  988MOL0     N33262   8.400   5.490   4.183 -0.4217 -0.8663  0.0123
  988MOL0     C33263   8.314   5.485   4.293  0.2849  0.8047  0.1296
  988MOL0     C33264   8.212   5.417   4.246  0.8350  0.4597  0.4163
  988MOL0     C33265   8.088   5.381   4.320  0.1733  0.0748  0.2202
  988MOL0     C33266   7.966   5.469   4.281  0.8997 -0.0594 -0.9929
  988MOL0     C33267   7.862   5.463   4.399  0.1441 -0.1480  0.5386
  988MOL0     C33268   7.711   5.482   4.355 -0.3194  0.1644  0.3971
  988MOL0     O33269   7.665   5.353   4.305 -0.4661 -0.1628  0.2649
  988MOL0     C33270   7.529   5.331   4.297  0.6630  0.0023  0.6799
  988MOL0     C33271   7.427   5.434   4.290  0.3099  0.2310 -0.5990
  988MOL0     C33272   7.297   5.395   4.287  0.5863  0.1741  0.2238
  988MOL0     C33273   7.192   5.505   4.288  0.0208 -0.3647 -0.2599
  988MOL0     C33274   7.262   5.261   4.262  0.3651  0.8486  0.3320
  988MOL0     C33275   7.127   5.203   4.253 -0.3133 -0.3505  0.3161
  988MOL0     O33276   7.109   5.064   4.231 -0.8955  0.1328 -0.9076
  988MOL0     C33277   6.994   4.993   4.197 -0.0550  0.1041  0.6729
  988MOL0     C33278   6.861   5.043   4.179  0.0237 -0.9373 -0.1598
  988MOL0     C33279   6.746   4.962   4.146  0.3104  0.3489 -0.0815
  988MOL0     C33280   6.772   4.831   4.096  0.1687 -0.6061 -0.4367
  988MOL0     O33281   6.679   4.741   4.052  0.3553 -0.5094  0.2773
  988MOL0     C33282   6.537   4.778   4.034  0.4572  0.4684 -0.7320
  988MOL0     C33283   6.444   4.657   4.028  0.2614  0.4074 -0.0885
  988MOL0     C33284   6.300   4.692   3.983  0.7531 -0.1547 -0.1881
  988MOL0     C33285   6.232   4.550   3.959 -1.0825 -1.1266  0.4341
  988MOL0     C33286   6.085   4.557   3.935  0.0465 -0.1820  0.2585
  988MOL0     C33287   6.035   4.429   3.874  0.0250 -0.4470 -0.2350
  988MOL0     C33288   6.039   4.307   3.960  0.3012 -0.0032 -0.3168
  988MOL0     C33289   5.967   4.191   3.887 -0.6056  0.0492  0.2785
  988MOL0    Cl33290   5.788   4.204   3.900 -0.1794 -0.1831  0.1166
  988MOL0     C33291   6.901   4.788   4.111 -0.3912 -0.6984  0.3396
  988MOL0     C33292   7.008   4.860   4.155 -0.4481 -0.2856  0.6211
  988MOL0     O33293   7.034   5.280   4.257 -0.7033 -0.3466 -0.6452
  988MOL0     C33294   7.360   5.162   4.252  0.3656 -0.2400 -0.3533
  988MOL0     C33295   7.492   5.195   4.273  0.1189 -0.0411 -0.3373
  988MOL0     N33296   8.225   5.391   4.114  0.5056  0.9312  0.1225
  988MOL0     N33297   8.343   5.429   4.077  0.7334 -0.2875  0.4452
  988MOL0     C33298   9.593   5.369   4.359 -0.6621 -0.2500 -0.1911
  988MOL0     C33299   9.724   5.405   4.341  0.4180  0.7723 -0.7126
  988MOL0     C33300  10.104   5.613   4.198 -0.1986 -0.1634  0.3127
  988MOL0     C33301  10.173   5.704   4.112  0.8401  0.0347 -0.2704
  988MOL0     C33302  10.309   5.716   4.120 -0.8825 -0.0263 -0.5006
  988MOL0     C33303  10.384   5.637   4.212 -0.5065 -0.6697 -0.0472
  988MOL0     O33304  10.518   5.638   4.234  0.6963  0.0418  0.2855
  988MOL0     C33305  10.596   5.742   4.174  0.1734  0.2346 -0.1371
  988MOL0     C33306  10.662   5.726   4.033 -0.2878  1.1806 -0.1121
  988MOL0     C33307  10.753   5.602   4.024  0.1749  0.5324 -0.3855
  988MOL0     C33308  10.884   5.624   4.107  0.4071  0.4590  0.4991
  988MOL0     C33309  10.979   5.733   4.059  0.9266 -0.1454 -0.3863
  988MOL0     C33310  11.056   5.817   4.017  0.5490 -0.9054 -0.5442
  988MOL0     C33311  10.319   5.544   4.284 -0.9026 -0.1980 -0.1548
  988MOL0     C33312  10.177   5.534   4.290 -0.5696  0.1598 -0.4499
  988MOL0     H33313   9.685   5.688   4.172 -1.2098 -0.8986 -1.5394
  988MOL0     H33314   9.451   5.617   4.166  1.2757  2.4988  0.1500
  988MOL0     H33315   9.421   5.307   4.100  0.1964  1.0908  0.8088
  988MOL0     H33316   9.326   5.198   4.208  0.0639 -1.4395 -3.3765
  988MOL0     H33317   9.212   5.449   4.070  0.0429  0.7962 -0.8518
  988MOL0     H33318   9.184   5.286   4.014  1.9839 -3.7161  0.1531
  988MOL0     H33319   9.089   5.219   4.232 -0.3635  0.3423  1.2583
  988MOL0     H33320   9.100   5.377   4.297  0.1221  1.2564 -0.4191
  988MOL0     H33321   8.969   5.468   4.121  2.3453 -0.8913  1.1219
  988MOL0     H33322   8.954   5.336   4.013  0.1235  0.3268 -0.0829
  988MOL0     H33323   8.812   5.204   4.177 -2.5802  0.1330 -0.0118
  988MOL0     H33324   8.828   5.326   4.294  0.1915 -1.1535  0.0826
  988MOL0     H33325   8.723   5.403   4.025  1.8675 -1.7072 -0.1514
  988MOL0     H33326   8.608   5.312   4.130  0.8082 -0.6152 -4.0999
  988MOL0     H33327   8.643   5.481   4.306 -0.1641  0.9386 -0.1273
  988MOL0     H33328   8.738   5.576   4.190 -1.3860  1.4640 -2.1155
  988MOL0     H33329   8.532   5.594   4.050  0.6629  0.1828  0.1573
  988MOL0     H33330   8.507   5.667   4.204 -0.7472  0.5990 -0.7486
  988MOL0     H33331   8.328   5.526   4.393  0.7658  1.0089 -0.0132
  988MOL0     H33332   8.069   5.275   4.300  2.1172  0.1702 -2.6904
  988MOL0     H33333   8.110   5.403   4.425  0.2984 -1.9330  0.6551
  988MOL0     H33334   7.933   5.426   4.186 -0.4074 -1.4067  0.0347
  988MOL0     H33335   7.992   5.575   4.271 -0.2512  0.3043 -0.2803
  988MOL0     H33336   7.888   5.536   4.477 -0.8232 -0.4573  1.1704
  988MOL0     H33337   7.877   5.370   4.455 -0.9826 -1.5276 -1.3651
  988MOL0     H33338   7.707   5.553   4.272 -0.4934 -2.1126 -1.6537
  988MOL0     H33339   7.660   5.509   4.448 -0.4881  2.4701 -0.3101
  988MOL0     H33340   7.453   5.540   4.289 -1.6421  0.8275 -3.7722
  988MOL0     H33341   7.233   5.597   4.330  2.0062 -1.5036  0.4004
  988MOL0     H33342   7.141   5.520   4.192 -2.2126 -2.6509  0.4424
  988MOL0     H33343   7.110   5.483   4.357  0.6311 -0.2250  0.5129
  988MOL0     H33344   6.849   5.148   4.203  3.1494 -0.8522  1.6005
  988MOL0     H33345   6.650   5.011   4.156  0.4510  0.2365  2.5034
  988MOL0     H33346   6.504   4.845   4.114  0.0698 -0.5845  0.0084
  988MOL0     H33347   6.530   4.832   3.939 -0.7534  0.0950 -0.8789
  988MOL0     H33348   6.481   4.586   3.953  0.1333  1.3975 -1.1246
  988MOL0     H33349   6.447   4.598   4.120  1.9813  0.3533 -0.1483
  988MOL0     H33350   6.303   4.750   3.890 -1.4239  0.0926 -0.1624
  988MOL0     H33351   6.241   4.758   4.048 -0.4119 -1.0373 -0.3145
  988MOL0     H33352   6.281   4.508   3.871 -0.5936  1.7368 -0.8106
  988MOL0     H33353   6.252   4.481   4.041  1.3007  0.9193  1.6942
  988MOL0     H33354   6.063   4.636   3.862  0.7360 -1.1719 -1.0610
  988MOL0     H33355   6.031   4.579   4.027 -0.0790  0.8502 -0.0492
  988MOL0     H33356   5.929   4.450   3.856  0.0432  0.2752  0.4453
  988MOL0     H33357   6.089   4.410   3.781  1.7024 -0.1511  0.6428
  988MOL0     H33358   5.977   4.318   4.049  1.6697  1.6166  0.4870
  988MOL0     H33359   6.140   4.273   3.988  0.1200 -0.1816  0.1204
  988MOL0     H33360   6.000   4.093   3.922 -0.6571 -0.2668 -0.5377
  988MOL0     H33361   6.001   4.192   3.783 -1.1762  1.1045  0.0905
  988MOL0     H33362   6.923   4.687   4.077  1.6322  0.5649 -2.5646
  988MOL0     H33363   7.106   4.821   4.180 -0.8822 -0.4700  2.1348
  988MOL0     H33364   7.346   5.059   4.220  2.5840 -0.7706  0.1685
  988MOL0     H33365   7.575   5.127   4.259 -0.7040 -0.8134 -1.7057
  988MOL0     H33366   9.569   5.275   4.407  0.1071 -0.2971  0.1149
  988MOL0     H33367   9.799   5.336   4.379  0.9274  1.5744 -0.2204
  988MOL0     H33368  10.114   5.756   4.037 -1.0917 -1.3204  0.2243
  988MOL0     H33369  10.357   5.787   4.054 -1.1174  0.2902 -0.3338
  988MOL0     H33370  10.531   5.830   4.171  0.6663  0.6004 -0.1764
  988MOL0     H33371  10.674   5.768   4.246 -0.9826  1.8041  0.6121
  988MOL0     H33372  10.713   5.821   4.012 -0.6151  1.0521 -1.6429
  988MOL0     H33373  10.582   5.714   3.959 -0.6384 -2.0649  0.6598
  988MOL0     H33374  10.776   5.583   3.918 -0.3646  2.0473 -0.7997
  988MOL0     H33375  10.696   5.514   4.055 -0.6454 -0.1367 -3.4280
  988MOL0     H33376  10.939   5.531   4.102  1.7794  1.2345  0.7786
  988MOL0     H33377  10.855   5.635   4.212  0.6452 -0.9802  0.7228
  988MOL0     H33378  11.127   5.890   3.985 -1.6516  2.9651  2.4434
  988MOL0     H33379  10.362   5.482   4.362 -1.5124 -0.4113  0.0167
  988MOL0     H33380  10.129   5.467   4.361  0.3476  0.9016  0.9068
  989MOL0     O33381   9.416   3.883   7.724 -0.0012 -0.4616 -0.2519
  989MOL0     C33382   9.397   3.783   7.661  0.1418 -0.6100 -0.0873
  989MOL0     O33383   9.281   3.740   7.610 -0.5504 -0.5078  0.6854
  989MOL0     C33384   9.168   3.822   7.628 -0.1449 -0.3085 -0.5302
  989MOL0     C33385   9.112   3.888   7.516 -0.5664 -0.3959  0.2105
  989MOL0     C33386   8.994   3.955   7.525 -0.3795 -0.1920  0.7428
  989MOL0     C33387   8.916   3.958   7.635 -0.2933 -0.4596  0.5474
  989MOL0     O33388   8.786   3.997   7.633 -0.1089  0.3835 -0.0780
  989MOL0     C33389   8.700   3.885   7.639  0.6397  0.1512 -0.0135
  989MOL0     C33390   8.562   3.938   7.595  0.0292 -0.1447 -0.3918
  989MOL0     C33391   8.504   4.036   7.703 -0.5725 -0.7120 -0.1075
  989MOL0     C33392   8.428   4.160   7.643  0.6620  0.5215  0.8880
  989MOL0     C33393   8.311   4.112   7.559  0.2617  0.4617 -0.3736
  989MOL0     C33394   8.200   4.040   7.635  0.9048  0.2924  0.9099
  989MOL0     C33395   8.058   4.059   7.573 -0.2723 -0.0917  0.2605
  989MOL0     C33396   8.042   4.009   7.425 -0.7696  0.2768  0.6535
  989MOL0     N33397   8.092   3.879   7.387  0.3486  0.6574 -0.4673
  989MOL0     C33398   8.037   3.760   7.427  0.0170 -0.0506 -0.3406
  989MOL0     C33399   8.114   3.663   7.378  0.9484  0.6759  0.1912
  989MOL0     C33400   8.082   3.514   7.389 -0.7142  0.0415 -0.6464
  989MOL0     C33401   7.996   3.451   7.276  0.5613  0.2489  0.3256
  989MOL0     C33402   7.865   3.526   7.255  0.4791 -0.6897 -0.2015
  989MOL0     C33403   7.781   3.471   7.138  0.1614 -0.2289  0.3952
  989MOL0     O33404   7.740   3.333   7.170  0.0490  0.4773 -0.4480
  989MOL0     C33405   7.612   3.299   7.192 -0.6125  0.5546 -0.7563
  989MOL0     C33406   7.502   3.378   7.183 -0.0346  0.4453  1.0264
  989MOL0     C33407   7.371   3.328   7.209  0.1652  0.0942  0.5166
  989MOL0     C33408   7.264   3.420   7.165  0.0252 -1.0918 -0.0094
  989MOL0     C33409   7.355   3.205   7.267 -0.2614  0.6254  0.5612
  989MOL0     C33410   7.223   3.151   7.312 -0.7424  0.2486  0.2929
  989MOL0     O33411   7.129   3.241   7.345  0.5940 -0.0225 -0.8562
  989MOL0     C33412   7.004   3.187   7.365 -0.2301 -0.3709  0.4704
  989MOL0     C33413   6.966   3.126   7.482  0.3317  0.2618 -0.1628
  989MOL0     C33414   6.831   3.085   7.492  0.0851 -0.1096 -1.3041
  989MOL0     C33415   6.739   3.100   7.393 -1.0267 -0.7820  0.2669
  989MOL0     O33416   6.612   3.069   7.396 -0.4695 -0.4431  0.2603
  989MOL0     C33417   6.572   2.969   7.494  0.3492  1.3295  1.0598
  989MOL0     C33418   6.422   2.951   7.474  0.2621  0.5368 -0.0789
  989MOL0     C33419   6.351   2.883   7.597 -0.5642 -0.2102 -0.0040
  989MOL0     C33420   6.227   2.965   7.640  0.0253 -0.1431 -0.1794
  989MOL0     C33421   6.126   2.909   7.731  0.0102  1.0401 -0.2494
  989MOL0     C33422   6.041   2.793   7.664 -0.3417 -0.4052  0.6746
  989MOL0     C33423   5.908   2.752   7.732 -0.3171 -0.4147 -0.4718
  989MOL0     C33424   5.853   2.636   7.649  0.6164  0.1173 -0.3187
  989MOL0    Cl33425   5.782   2.683   7.488  0.3718 -0.0485 -0.0766
  989MOL0     C33426   6.784   3.163   7.272 -0.7312  0.3445  0.5132
  989MOL0     C33427   6.919   3.205   7.256 -0.0828  0.4599  0.7273
  989MOL0     O33428   7.210   3.028   7.301  0.5433 -0.4582 -0.2016
  989MOL0     C33429   7.472   3.128   7.281 -0.1200  0.4057  0.3330
  989MOL0     C33430   7.599   3.168   7.234 -0.1086  0.4101 -0.3138
  989MOL0     N33431   8.209   3.728   7.307  0.3464 -0.1680 -0.5835
  989MOL0     N33432   8.207   3.853   7.317 -0.0340  0.0232 -0.2266
  989MOL0     C33433   8.967   3.890   7.747  0.1926 -0.1175  0.6598
  989MOL0     C33434   9.090   3.826   7.746  0.5721  0.0983 -0.8025
  989MOL0     C33435   9.513   3.699   7.643 -0.1520  0.4703 -0.5894
  989MOL0     C33436   9.641   3.760   7.642  0.6699 -0.3391  0.8383
  989MOL0     C33437   9.751   3.680   7.626  0.4235  0.2384 -0.1033
  989MOL0     C33438   9.745   3.543   7.625 -0.2258 -0.4532 -0.0872
  989MOL0     O33439   9.853   3.458   7.611  0.2199 -0.5567 -0.1506
  989MOL0     C33440   9.994   3.491   7.647  0.1188  0.3765 -0.9913
  989MOL0     C33441  10.099   3.480   7.538  0.2879 -0.0658  0.2295
  989MOL0     C33442  10.111   3.338   7.468  0.2086  0.2411 -0.0578
  989MOL0     C33443  10.247   3.278   7.490 -0.2666  0.0364  1.0230
  989MOL0     C33444  10.359   3.347   7.411  0.5925 -0.3447  0.4053
  989MOL0     C33445  10.460   3.394   7.354  0.2477 -0.1920  0.0410
  989MOL0     C33446   9.622   3.480   7.622 -0.5230  0.3060  0.1502
  989MOL0     C33447   9.507   3.558   7.630 -0.4342 -0.5213  0.0298
  989MOL0     H33448   9.172   3.886   7.426  0.2289 -2.8998  0.7020
  989MOL0     H33449   8.956   4.003   7.435 -1.9499  0.4129  1.6824
  989MOL0     H33450   8.739   3.806   7.575 -0.9723 -0.8887  0.2327
  989MOL0     H33451   8.686   3.856   7.743 -1.3964  1.9093  0.2818
  989MOL0     H33452   8.565   3.994   7.501  3.1905 -1.8785 -1.4974
  989MOL0     H33453   8.494   3.853   7.591 -2.0523  1.3216  1.4363
  989MOL0     H33454   8.438   3.986   7.774  0.2439 -0.1615  1.0693
  989MOL0     H33455   8.587   4.072   7.765  0.1964 -4.4677  1.3407
  989MOL0     H33456   8.387   4.221   7.724 -1.0840  0.6005 -0.0169
  989MOL0     H33457   8.499   4.220   7.584 -0.0102  0.7507  0.2970
  989MOL0     H33458   8.269   4.201   7.511  0.2804  0.0954 -1.0803
  989MOL0     H33459   8.339   4.057   7.469  0.3935 -0.1444  0.0323
  989MOL0     H33460   8.220   3.932   7.638 -0.9661 -0.0652  2.4967
  989MOL0     H33461   8.200   4.060   7.742 -1.6766  1.1257  0.8085
  989MOL0     H33462   7.990   4.007   7.642 -1.0553  0.4466 -0.0918
  989MOL0     H33463   8.027   4.164   7.576  2.2309  0.6895  0.6789
  989MOL0     H33464   8.099   4.076   7.360  0.8281 -2.8160 -1.4102
  989MOL0     H33465   7.937   4.017   7.396 -0.7393  0.3495  0.5617
  989MOL0     H33466   7.954   3.763   7.497  0.6915 -0.5139  0.4956
  989MOL0     H33467   8.180   3.465   7.395 -1.7428 -2.1714 -0.9055
  989MOL0     H33468   8.029   3.503   7.484  0.6701 -1.9644 -0.0374
  989MOL0     H33469   7.982   3.344   7.293 -0.1679  0.2663 -0.0932
  989MOL0     H33470   8.057   3.461   7.186  0.2628 -0.3768  0.0485
  989MOL0     H33471   7.889   3.627   7.221 -1.5170  0.2953  1.1496
  989MOL0     H33472   7.806   3.527   7.347  3.0188 -2.2109  1.5794
  989MOL0     H33473   7.855   3.470   7.058  0.4006 -1.4680  0.6209
  989MOL0     H33474   7.690   3.528   7.116  0.0957  0.0476  1.3125
  989MOL0     H33475   7.497   3.483   7.156  1.2567  0.7470  1.8535
  989MOL0     H33476   7.238   3.481   7.252 -1.5859 -0.5523 -0.8170
  989MOL0     H33477   7.293   3.496   7.092 -2.2357  1.8412  1.8875
  989MOL0     H33478   7.167   3.383   7.129 -0.7211  0.7621 -0.0468
  989MOL0     H33479   7.034   3.122   7.566  1.2601 -1.4662 -0.9337
  989MOL0     H33480   6.812   3.037   7.587 -0.0240 -0.8814 -1.7027
  989MOL0     H33481   6.629   2.876   7.483  1.1306  2.0425 -1.6676
  989MOL0     H33482   6.593   3.023   7.588  1.9152  4.4453 -0.9040
  989MOL0     H33483   6.376   3.048   7.453  0.4018  0.6511  0.1306
  989MOL0     H33484   6.399   2.888   7.388 -1.3031  1.2739 -0.2445
  989MOL0     H33485   6.418   2.867   7.681 -0.5001  0.1170  0.0084
  989MOL0     H33486   6.323   2.782   7.565  2.4389 -1.1850  0.1924
  989MOL0     H33487   6.259   3.053   7.697 -3.0394  0.9484  0.0154
  989MOL0     H33488   6.166   2.994   7.554 -0.0226  0.4666  0.0487
  989MOL0     H33489   6.064   2.991   7.768  2.9687  2.1819  2.6832
  989MOL0     H33490   6.176   2.867   7.819 -0.3755  0.4395 -0.3071
  989MOL0     H33491   6.023   2.816   7.559 -2.2956  0.1037  1.0870
  989MOL0     H33492   6.106   2.704   7.658  0.0956 -0.1294  1.1741
  989MOL0     H33493   5.835   2.834   7.734 -2.7314 -2.4275  0.1456
  989MOL0     H33494   5.916   2.721   7.837 -0.9171  2.6089  0.5711
  989MOL0     H33495   5.770   2.592   7.705 -0.4842 -0.5379 -2.3628
  989MOL0     H33496   5.933   2.566   7.623  0.7286  0.0478  0.1975
  989MOL0     H33497   6.720   3.186   7.187  1.0178  0.4249 -0.8403
  989MOL0     H33498   6.941   3.243   7.157 -2.3987 -2.0304 -0.8876
  989MOL0     H33499   7.469   3.028   7.321 -0.0432  0.5064  0.5906
  989MOL0     H33500   7.683   3.101   7.251 -1.1777 -0.7982  0.4207
  989MOL0     H33501   8.919   3.895   7.844  0.0562 -1.2519  0.6634
  989MOL0     H33502   9.127   3.786   7.840 -2.8734 -2.5600 -0.3745
  989MOL0     H33503   9.663   3.866   7.649  0.0239 -0.1189 -0.2768
  989MOL0     H33504   9.845   3.733   7.625  0.2150  0.6212  0.0490
  989MOL0     H33505  10.014   3.595   7.675  0.6175  0.0302 -0.0382
  989MOL0     H33506  10.028   3.429   7.730 -1.2906 -1.5938 -1.7948
  989MOL0     H33507  10.198   3.504   7.578  1.9028 -4.1345 -0.7595
  989MOL0     H33508  10.083   3.566   7.473 -2.6442 -0.0007  0.9122
  989MOL0     H33509  10.081   3.343   7.363 -2.8232  0.7519  0.7147
  989MOL0     H33510  10.031   3.272   7.503  1.8038 -1.3579  0.7496
  989MOL0     H33511  10.244   3.170   7.470 -0.9032  0.4233 -1.2424
  989MOL0     H33512  10.263   3.283   7.599  0.2170 -2.4661  1.1304
  989MOL0     H33513  10.546   3.423   7.297 -0.9506  0.5376 -1.4714
  989MOL0     H33514   9.621   3.372   7.626  2.0743  0.2339  0.6481
  989MOL0     H33515   9.419   3.494   7.628  0.1453 -1.3341 -1.4889
  990MOL0     O33516   2.642   2.700  10.894 -0.3826  0.2160 -0.7617
  990MOL0     C33517   2.729   2.738  10.972 -0.6562  0.5043 -0.2989
  990MOL0     O33518   2.713   2.788  11.099 -0.0490 -0.8869  0.6014
  990MOL0     C33519   2.595   2.837  11.147  0.2630  0.4850 -0.7967
  990MOL0     C33520   2.587   2.970  11.201  0.8089 -0.4716 -0.1274
  990MOL0     C33521   2.468   3.027  11.237 -0.3217  0.0434 -0.2968
  990MOL0     C33522   2.348   2.956  11.228  0.1654  0.7059  0.0891
  990MOL0     O33523   2.237   3.008  11.290 -0.2350  0.1048 -0.0335
  990MOL0     C33524   2.126   2.929  11.323 -0.2790 -0.2372 -0.0838
  990MOL0     C33525   2.032   3.018  11.392  0.1937 -0.5251  0.2047
  990MOL0     C33526   1.889   2.954  11.390 -0.1215  0.2519 -0.6298
  990MOL0     C33527   1.791   3.045  11.457  0.2381 -0.3536  0.1601
  990MOL0     C33528   1.660   2.959  11.487  0.1905 -0.0997  0.0711
  990MOL0     C33529   1.549   3.042  11.546  0.4637  1.5912  0.0907
  990MOL0     C33530   1.439   2.953  11.581  0.7824  0.9640 -0.3266
  990MOL0     C33531   1.331   3.037  11.642  0.0532 -0.3860  0.0306
  990MOL0     N33532   1.220   2.956  11.684  0.3606 -0.0345  0.3488
  990MOL0     C33533   1.183   2.940  11.818 -0.1831  0.6317  0.0347
  990MOL0     C33534   1.080   2.850  11.810  0.1305 -0.2615 -0.4135
  990MOL0     C33535   1.012   2.792  11.930 -0.0754  0.1151  0.9274
  990MOL0     C33536   0.871   2.840  11.949  1.4080  0.1662 -0.1655
  990MOL0     C33537   0.825   2.803  12.097  0.5948  0.1646 -0.0599
  990MOL0     C33538   0.681   2.862  12.116  0.3447  0.2174 -0.2609
  990MOL0     O33539   0.585   2.794  12.038 -0.2023  0.0503 -0.1281
  990MOL0     C33540   0.457   2.837  12.043 -0.3055  0.9547  0.5768
  990MOL0     C33541   0.383   2.842  12.156  0.2657 -0.3809 -0.1512
  990MOL0     C33542   0.240   2.868  12.169 -0.0667 -0.0401  0.1563
  990MOL0     C33543   0.170   2.862  12.301 -1.0350  0.4881 -0.0645
  990MOL0     C33544   0.170   2.878  12.046  0.5994  0.3400  0.1568
  990MOL0     C33545   0.023   2.911  12.038  0.2101  0.2462 -0.2849
  990MOL0     O33546  -0.025   2.997  12.129  0.1305 -0.0211  0.6259
  990MOL0     C33547  -0.159   3.033  12.109  0.3425 -0.6286 -1.0099
  990MOL0     C33548  -0.277   2.962  12.150 -0.2467  0.4465 -0.0480
  990MOL0     C33549  -0.410   3.009  12.133 -0.5837 -0.6266  0.8623
  990MOL0     C33550  -0.423   3.134  12.073 -0.5666  0.1861  0.6838
  990MOL0     O33551  -0.550   3.188  12.043 -0.2075 -0.0544  0.1157
  990MOL0     C33552  -0.632   3.099  11.969  1.1587 -0.6926 -0.5335
  990MOL0     C33553  -0.766   3.161  11.932  0.0236  0.7302  0.2904
  990MOL0     C33554  -0.858   3.176  12.053 -0.7123 -0.0985  0.0880
  990MOL0     C33555  -0.995   3.220  12.006  0.0251 -0.4842 -0.4390
  990MOL0     C33556  -1.095   3.214  12.124 -0.2967 -0.2793  0.5424
  990MOL0     C33557  -1.223   3.289  12.092  0.3525 -0.2669  0.7622
  990MOL0     C33558  -1.319   3.272  12.206  0.0032 -0.1512 -0.2936
  990MOL0     C33559  -1.452   3.353  12.179 -0.4527  0.3514 -1.0633
  990MOL0    Cl33560  -1.534   3.298  12.038  0.0498  0.0735 -0.2897
  990MOL0     C33561  -0.312   3.215  12.036 -0.0524 -0.4496 -0.1554
  990MOL0     C33562  -0.184   3.156  12.055 -1.2183  0.0872 -0.6907
  990MOL0     O33563  -0.042   2.850  11.954  0.6734  0.0052 -0.1276
  990MOL0     C33564   0.243   2.870  11.922 -0.5338  0.2418 -0.8546
  990MOL0     C33565   0.380   2.840  11.928 -0.0979  0.7829 -0.3397
  990MOL0     N33566   1.046   2.829  11.680  0.4128 -0.0146 -0.1728
  990MOL0     N33567   1.134   2.883  11.608  0.0516  0.4826  0.0243
  990MOL0     C33568   2.348   2.829  11.165 -0.6225  0.4800  0.0146
  990MOL0     C33569   2.471   2.769  11.133  0.0122  1.2782 -0.0078
  990MOL0     C33570   2.874   2.706  10.930  0.0829 -0.0005  0.3449
  990MOL0     C33571   2.904   2.651  10.806  0.2061 -0.3880  0.1596
  990MOL0     C33572   3.045   2.636  10.765  0.9173 -0.5794 -0.3777
  990MOL0     C33573   3.151   2.673  10.853  0.3924  1.7938  0.0582
  990MOL0     O33574   3.286   2.676  10.824  0.7277  0.1878 -0.0473
  990MOL0     C33575   3.324   2.601  10.704 -0.5735  0.4789 -0.7572
  990MOL0     C33576   3.470   2.572  10.710  0.2481  0.1033  0.1786
  990MOL0     C33577   3.552   2.701  10.686  0.5295  0.0647 -0.4607
  990MOL0     C33578   3.646   2.718  10.807  0.3114 -0.8712 -0.5674
  990MOL0     C33579   3.659   2.864  10.817 -0.3413  1.6096 -0.6171
  990MOL0     C33580   3.694   2.977  10.817 -0.5827  0.4019  0.4470
  990MOL0     C33581   3.117   2.719  10.978 -0.3222 -0.3633  0.5744
  990MOL0     C33582   2.985   2.728  11.021 -0.7627  0.6883  0.1540
  990MOL0     H33583   2.670   3.040  11.187 -1.0389  1.9478  0.3628
  990MOL0     H33584   2.464   3.118  11.296 -1.3019 -0.4918  0.4899
  990MOL0     H33585   2.078   2.885  11.234 -2.4270  1.3146  0.2263
  990MOL0     H33586   2.147   2.847  11.392  0.5602  2.0951  2.5648
  990MOL0     H33587   2.065   3.023  11.496  2.5860  1.7444 -0.5691
  990MOL0     H33588   2.035   3.119  11.351  1.5322 -0.4956  0.3357
  990MOL0     H33589   1.862   2.943  11.284 -0.7662  2.4254 -0.7493
  990MOL0     H33590   1.885   2.859  11.444  2.8455 -0.0891 -0.8896
  990MOL0     H33591   1.831   3.085  11.550  2.1291 -1.1794 -0.2429
  990MOL0     H33592   1.757   3.124  11.389  2.8620 -0.0587 -0.9435
  990MOL0     H33593   1.623   2.908  11.398  1.7209 -1.2014  0.0227
  990MOL0     H33594   1.690   2.878  11.554 -1.2462 -0.6054  0.1281
  990MOL0     H33595   1.575   3.091  11.640 -1.7006  1.2422  0.9394
  990MOL0     H33596   1.516   3.109  11.465 -0.7107  0.4463 -0.4101
  990MOL0     H33597   1.410   2.921  11.480  0.1421 -1.0155  0.4436
  990MOL0     H33598   1.473   2.870  11.643 -1.4639 -1.3093 -1.9105
  990MOL0     H33599   1.288   3.107  11.570 -0.4823  1.3785  1.9789
  990MOL0     H33600   1.371   3.101  11.720 -1.4461 -0.3664  0.8281
  990MOL0     H33601   1.230   2.981  11.907 -0.4383  1.4352 -0.1849
  990MOL0     H33602   1.011   2.683  11.916  0.0304 -0.1007  2.4337
  990MOL0     H33603   1.070   2.811  12.020  0.4788 -1.3078  0.8956
  990MOL0     H33604   0.807   2.782  11.881 -0.1723  0.8208  0.7134
  990MOL0     H33605   0.862   2.948  11.940 -3.0182 -0.1359 -2.0652
  990MOL0     H33606   0.889   2.851  12.171 -0.3371  0.4541  0.5874
  990MOL0     H33607   0.814   2.695  12.110  1.7337  0.1724  1.1108
  990MOL0     H33608   0.676   2.968  12.089  0.3058 -0.1066 -1.6185
  990MOL0     H33609   0.656   2.860  12.222  2.1372  0.3342  0.2017
  990MOL0     H33610   0.443   2.824  12.244  0.9174 -3.9447 -1.1518
  990MOL0     H33611   0.066   2.833  12.288 -1.5319  2.6877 -1.4897
  990MOL0     H33612   0.218   2.789  12.367 -3.7849  0.6720  2.3602
  990MOL0     H33613   0.173   2.963  12.344 -0.8461 -0.3459  1.9731
  990MOL0     H33614  -0.270   2.862  12.191  2.6572  1.6328  2.8246
  990MOL0     H33615  -0.497   2.950  12.157 -2.3715  0.4556 -2.3556
  990MOL0     H33616  -0.576   3.080  11.878  0.1293  2.6795 -2.0318
  990MOL0     H33617  -0.652   3.001  12.014 -0.5571 -0.2927 -0.3548
  990MOL0     H33618  -0.745   3.263  11.899 -1.3151  0.7574 -0.5621
  990MOL0     H33619  -0.806   3.104  11.847  3.1485 -1.1779 -0.0345
  990MOL0     H33620  -0.822   3.245  12.130  0.2715  1.2261 -1.5108
  990MOL0     H33621  -0.856   3.074  12.092 -0.6859 -0.8386 -1.7388
  990MOL0     H33622  -0.981   3.322  11.969  1.6150 -0.1045  1.0942
  990MOL0     H33623  -1.027   3.154  11.924  1.4773  0.3111 -1.7016
  990MOL0     H33624  -1.054   3.262  12.214  0.3522 -2.9966  1.7900
  990MOL0     H33625  -1.108   3.110  12.155 -0.7017 -0.2858  0.3624
  990MOL0     H33626  -1.203   3.396  12.081 -1.6772  0.3655  2.5222
  990MOL0     H33627  -1.269   3.256  11.999 -0.2516  2.5249 -0.0165
  990MOL0     H33628  -1.268   3.295  12.300  0.4459 -0.2695 -0.5066
  990MOL0     H33629  -1.347   3.167  12.216  2.3680 -0.7288  1.0232
  990MOL0     H33630  -1.415   3.456  12.171 -1.1667  0.7466  0.3915
  990MOL0     H33631  -1.518   3.352  12.266 -1.8300  1.2909 -2.0587
  990MOL0     H33632  -0.326   3.314  11.994  1.5304 -0.5556 -1.0249
  990MOL0     H33633  -0.101   3.215  12.020 -1.5694  0.8838 -0.2230
  990MOL0     H33634   0.205   2.887  11.822 -0.1193  1.2688 -0.8503
  990MOL0     H33635   0.437   2.827  11.836 -1.5534 -0.0045 -1.1684
  990MOL0     H33636   2.256   2.772  11.153 -0.7604  0.6230  0.3898
  990MOL0     H33637   2.475   2.672  11.084 -5.3889 -0.5716  2.4387
  990MOL0     H33638   2.819   2.626  10.743  0.2435  0.7346 -0.3429
  990MOL0     H33639   3.064   2.599  10.665  1.6487  0.8507 -0.8010
  990MOL0     H33640   3.275   2.504  10.693  1.1179 -0.2778 -2.1825
  990MOL0     H33641   3.291   2.657  10.615 -2.0216  0.7025 -0.1123
  990MOL0     H33642   3.503   2.505  10.629  0.4123  0.3303  0.0571
  990MOL0     H33643   3.495   2.521  10.803 -0.4951  0.0988  0.3763
  990MOL0     H33644   3.484   2.787  10.685 -1.5400 -1.4843 -1.7833
  990MOL0     H33645   3.614   2.691  10.597 -0.4271 -3.0679 -0.8918
  990MOL0     H33646   3.746   2.676  10.792  0.3675 -1.6709  1.6304
  990MOL0     H33647   3.593   2.690  10.899  1.4112 -0.3263  0.2578
  990MOL0     H33648   3.724   3.079  10.806 -0.0523  0.3931  1.6722
  990MOL0     H33649   3.202   2.727  11.045 -0.3383  0.6612  0.4796
  990MOL0     H33650   2.960   2.772  11.117 -1.3652 -0.8348  0.7183
  991MOL0     O33651   8.766   4.413   3.774 -0.9724  0.4489 -0.6592
  991MOL0     C33652   8.782   4.437   3.656 -0.2545 -0.0148  0.2144
  991MOL0     O33653   8.680   4.457   3.562 -0.2979 -0.0449 -0.8378
  991MOL0     C33654   8.554   4.466   3.613  0.7695  0.3250 -0.5818
  991MOL0     C33655   8.505   4.591   3.664 -0.4991 -0.3520  0.4139
  991MOL0     C33656   8.370   4.602   3.708  0.1797 -0.2943 -0.2473
  991MOL0     C33657   8.278   4.493   3.702 -0.1764 -0.1739 -0.2541
  991MOL0     O33658   8.151   4.505   3.746  0.6005 -0.5745 -0.3963
  991MOL0     C33659   8.077   4.602   3.669 -0.8482 -0.0326 -0.6175
  991MOL0     C33660   7.928   4.592   3.678  0.8462  0.0052  0.8382
  991MOL0     C33661   7.891   4.453   3.625  0.1616  0.5941  0.0964
  991MOL0     C33662   7.748   4.452   3.581  0.0272 -0.0784  0.5215
  991MOL0     C33663   7.711   4.316   3.514 -0.4024  0.7068 -0.0882
  991MOL0     C33664   7.704   4.188   3.594 -0.3118 -0.5560  0.1442
  991MOL0     C33665   7.626   4.200   3.727  0.5626  0.3553 -0.4957
  991MOL0     C33666   7.479   4.220   3.697  0.2244  0.1061  0.2733
  991MOL0     N33667   7.419   4.095   3.633 -0.3300 -1.1680 -0.3800
  991MOL0     C33668   7.395   3.978   3.699 -0.3437  0.7513 -0.2196
  991MOL0     C33669   7.346   3.899   3.602  1.0351  0.9055  0.0413
  991MOL0     C33670   7.296   3.755   3.624 -0.4771  0.3252  0.6780
  991MOL0     C33671   7.156   3.738   3.551 -0.0401  0.5615 -0.3912
  991MOL0     C33672   7.049   3.838   3.604 -0.6601 -0.2597  0.1663
  991MOL0     C33673   6.914   3.806   3.540 -0.3750  0.1451  0.3725
  991MOL0     O33674   6.820   3.904   3.581 -0.6510  0.0492  0.2606
  991MOL0     C33675   6.684   3.870   3.579 -0.1478  0.6498  0.6341
  991MOL0     C33676   6.600   3.980   3.606  0.2813  0.0928 -0.4527
  991MOL0     C33677   6.458   3.975   3.588  0.5605 -0.1298 -0.9851
  991MOL0     C33678   6.381   4.106   3.620  0.0044  0.3784 -0.1964
  991MOL0     C33679   6.397   3.858   3.524 -0.2681  0.2766  0.3055
  991MOL0     C33680   6.256   3.848   3.487  0.2261  0.3193  0.3437
  991MOL0     O33681   6.199   3.962   3.459  0.6439 -0.1816  0.8647
  991MOL0     C33682   6.062   3.965   3.432 -1.1622  0.0555 -0.6694
  991MOL0     C33683   5.970   3.992   3.527  0.0235  0.6611 -0.6169
  991MOL0     C33684   5.837   3.963   3.507  1.0300 -0.6464  0.5122
  991MOL0     C33685   5.794   3.913   3.379  0.2007  0.1803  1.0778
  991MOL0     O33686   5.668   3.872   3.355 -0.2144 -0.3070 -0.4275
  991MOL0     C33687   5.597   3.831   3.475 -0.3226 -0.1990 -0.5625
  991MOL0     C33688   5.480   3.743   3.438  0.1709  0.6017  0.3449
  991MOL0     C33689   5.409   3.688   3.564 -0.4192 -0.2481  0.9983
  991MOL0     C33690   5.298   3.597   3.517 -0.1784 -0.2324 -0.3371
  991MOL0     C33691   5.197   3.565   3.623 -0.0093  0.1042  0.2865
  991MOL0     C33692   5.252   3.478   3.737 -0.1424 -0.4133 -0.7847
  991MOL0     C33693   5.143   3.439   3.843 -0.6262  0.2069 -0.1538
  991MOL0     C33694   5.125   3.551   3.944 -0.0522 -0.2095  0.1896
  991MOL0    Cl33695   5.031   3.701   3.898  0.4767  0.0990 -0.0129
  991MOL0     C33696   5.885   3.894   3.283 -0.4877 -0.6585  0.1499
  991MOL0     C33697   6.025   3.920   3.306 -0.1124 -0.3302 -0.7832
  991MOL0     O33698   6.207   3.736   3.468 -0.1744 -0.5330  0.0009
  991MOL0     C33699   6.483   3.746   3.505  0.7198  0.2691 -0.7874
  991MOL0     C33700   6.623   3.747   3.524  0.0484 -0.9659 -0.1149
  991MOL0     N33701   7.333   3.965   3.480 -0.0419 -0.1933 -0.0967
  991MOL0     N33702   7.391   4.082   3.503 -0.0029  0.7538  0.3418
  991MOL0     C33703   8.335   4.373   3.656 -0.1894  0.4135  1.5427
  991MOL0     C33704   8.465   4.359   3.603 -0.1484 -0.0464 -0.2917
  991MOL0     C33705   8.920   4.467   3.614  0.2881  0.5992 -0.9429
  991MOL0     C33706   9.030   4.463   3.699 -0.5812 -0.0056  0.1811
  991MOL0     C33707   9.156   4.497   3.650  0.1605  0.1916 -0.1873
  991MOL0     C33708   9.184   4.539   3.518  0.5584 -0.1960 -0.8463
  991MOL0     O33709   9.313   4.559   3.486 -0.0003  0.3983 -0.5237
  991MOL0     C33710   9.336   4.631   3.362 -0.4660 -0.3919 -0.8927
  991MOL0     C33711   9.489   4.644   3.348  0.1917  0.0336  0.1190
  991MOL0     C33712   9.575   4.523   3.323  0.6930  0.1652  0.8739
  991MOL0     C33713   9.726   4.540   3.290  0.0212  0.5375 -0.3953
  991MOL0     C33714   9.788   4.411   3.243  0.1328 -0.3728  0.5257
  991MOL0     C33715   9.833   4.309   3.190 -0.2463  0.0631  0.1064
  991MOL0     C33716   9.069   4.553   3.434 -0.5820 -0.4318 -0.6766
  991MOL0     C33717   8.945   4.514   3.481  0.2021  0.0795 -0.5236
  991MOL0     H33718   8.570   4.678   3.667 -0.2448 -0.5017 -0.4593
  991MOL0     H33719   8.342   4.698   3.751 -0.4629 -1.0097  0.9736
  991MOL0     H33720   8.113   4.701   3.698 -0.9924 -0.2628  0.3731
  991MOL0     H33721   8.094   4.596   3.561 -1.2692 -2.1366 -0.6070
  991MOL0     H33722   7.892   4.601   3.781 -1.2144  2.1041  0.0155
  991MOL0     H33723   7.868   4.665   3.624  0.8273 -0.9410 -0.4699
  991MOL0     H33724   7.963   4.425   3.547  1.0426 -1.2167  1.4899
  991MOL0     H33725   7.902   4.384   3.709  0.5746 -3.3905 -2.9383
  991MOL0     H33726   7.686   4.475   3.669  1.7473 -1.4037  2.1766
  991MOL0     H33727   7.729   4.532   3.510  0.0302 -1.6292 -1.2924
  991MOL0     H33728   7.614   4.338   3.468  0.9229  2.3758 -2.3335
  991MOL0     H33729   7.782   4.298   3.432 -0.1613 -2.7318  0.7521
  991MOL0     H33730   7.682   4.107   3.525 -0.0112  0.0431 -0.6659
  991MOL0     H33731   7.808   4.163   3.618 -0.5959 -1.1159  0.8661
  991MOL0     H33732   7.635   4.114   3.795  0.6320  1.4645  0.9370
  991MOL0     H33733   7.655   4.292   3.777  1.1174 -1.1429  2.1461
  991MOL0     H33734   7.452   4.303   3.631 -1.5294  0.6665  1.6075
  991MOL0     H33735   7.422   4.245   3.787  1.4068  0.3309  0.9752
  991MOL0     H33736   7.417   3.957   3.804 -1.2834  0.8642  0.0103
  991MOL0     H33737   7.369   3.683   3.584 -0.0006  0.8184  0.6460
  991MOL0     H33738   7.292   3.737   3.731 -0.3787  0.6457  0.7362
  991MOL0     H33739   7.121   3.636   3.570  0.7524  0.3040 -0.2851
  991MOL0     H33740   7.170   3.746   3.443 -1.1045  0.7411 -0.5374
  991MOL0     H33741   7.067   3.931   3.550 -1.2547  0.1967  0.7316
  991MOL0     H33742   7.042   3.845   3.713 -1.1879  2.9729  0.0357
  991MOL0     H33743   6.889   3.703   3.567 -0.3294 -0.5627 -2.0667
  991MOL0     H33744   6.928   3.806   3.432 -0.2392 -1.8575  0.3505
  991MOL0     H33745   6.634   4.074   3.649 -0.3116  0.6344 -1.1404
  991MOL0     H33746   6.276   4.079   3.637  0.2209 -1.1843 -1.2164
  991MOL0     H33747   6.433   4.152   3.704 -0.7573 -0.1763  0.5925
  991MOL0     H33748   6.392   4.174   3.535  3.0218  1.1419  0.6898
  991MOL0     H33749   6.006   4.018   3.626 -0.5478 -2.0817  0.4015
  991MOL0     H33750   5.757   3.978   3.579  0.1902 -2.2560 -0.0343
  991MOL0     H33751   5.669   3.768   3.527 -1.5603 -2.7514 -1.7196
  991MOL0     H33752   5.570   3.920   3.532  1.5741  1.2123 -1.7652
  991MOL0     H33753   5.418   3.804   3.373  0.4759  0.9847  0.4065
  991MOL0     H33754   5.515   3.663   3.373  1.7869  0.7513  0.9757
  991MOL0     H33755   5.370   3.773   3.621  2.6129  0.7955  1.6917
  991MOL0     H33756   5.481   3.634   3.627  0.0538 -1.5606 -0.6092
  991MOL0     H33757   5.246   3.642   3.432  0.5785 -0.9702 -1.2141
  991MOL0     H33758   5.345   3.507   3.476  2.1477  0.4217  0.7169
  991MOL0     H33759   5.119   3.502   3.578  0.3935 -0.2920  0.1314
  991MOL0     H33760   5.153   3.661   3.650  0.9163  0.7762 -0.5030
  991MOL0     H33761   5.297   3.387   3.697 -2.7760 -3.2307  2.0776
  991MOL0     H33762   5.329   3.533   3.792  0.7890 -2.1510 -0.2929
  991MOL0     H33763   5.175   3.344   3.887 -1.4306 -0.2010 -0.4367
  991MOL0     H33764   5.045   3.417   3.800  0.1216  0.7316 -2.2450
  991MOL0     H33765   5.216   3.590   3.993 -0.6238  0.7734  0.4975
  991MOL0     H33766   5.070   3.515   4.031 -1.7928  2.5005  0.3208
  991MOL0     H33767   5.856   3.846   3.190 -2.1317 -1.4769  1.0333
  991MOL0     H33768   6.115   3.899   3.249 -0.3223 -3.0350 -0.2545
  991MOL0     H33769   6.441   3.659   3.457 -1.9791  1.5021 -0.8628
  991MOL0     H33770   6.688   3.671   3.481  2.3252 -0.2079  1.7683
  991MOL0     H33771   8.264   4.292   3.645 -1.8755  1.8695  1.2666
  991MOL0     H33772   8.485   4.264   3.555 -2.3319 -0.5204 -0.3812
  991MOL0     H33773   9.007   4.421   3.796 -1.4929 -1.8836 -0.7748
  991MOL0     H33774   9.242   4.473   3.712  0.1638  0.3029 -0.1486
  991MOL0     H33775   9.290   4.579   3.278 -1.9550  0.4002 -0.5972
  991MOL0     H33776   9.300   4.734   3.359 -0.1080 -0.1902  0.6640
  991MOL0     H33777   9.532   4.703   3.430  6.4697 -0.1250 -2.5078
  991MOL0     H33778   9.499   4.707   3.259 -3.2842  0.1666 -0.3360
  991MOL0     H33779   9.539   4.458   3.243  0.6833  2.9224 -1.5480
  991MOL0     H33780   9.588   4.470   3.418 -2.4060 -3.8842 -0.6664
  991MOL0     H33781   9.774   4.564   3.386 -2.1477 -0.9696  1.1505
  991MOL0     H33782   9.754   4.618   3.218  0.8400  0.0672 -0.6026
  991MOL0     H33783   9.864   4.226   3.131  0.8034 -0.6779  1.6528
  991MOL0     H33784   9.063   4.604   3.338 -1.7806 -1.5034 -1.2055
  991MOL0     H33785   8.859   4.531   3.417  2.4463  1.8265 -3.3305
  992MOL0     O33786   5.870   5.889   3.215 -0.3579  0.3358 -0.5205
  992MOL0     C33787   5.904   5.847   3.329  0.1532  0.4841 -0.2337
  992MOL0     O33788   5.813   5.824   3.431  0.4932 -0.0309 -0.3294
  992MOL0     C33789   5.680   5.860   3.411  0.4922  0.1575  0.3125
  992MOL0     C33790   5.638   5.986   3.419  0.0761 -1.2916 -0.0590
  992MOL0     C33791   5.505   6.025   3.422  0.4931  0.4368 -0.3486
  992MOL0     C33792   5.407   5.934   3.417 -0.0841  0.6353 -0.5338
  992MOL0     O33793   5.274   5.970   3.435  0.7411  0.0580 -0.1924
  992MOL0     C33794   5.168   5.903   3.359  0.0351  0.5089  0.5134
  992MOL0     C33795   5.045   5.990   3.368  0.3277  0.4079 -0.7132
  992MOL0     C33796   5.062   6.104   3.268  0.2823  0.2960  0.3514
  992MOL0     C33797   4.957   6.207   3.277 -0.0809 -0.3782 -0.1570
  992MOL0     C33798   4.987   6.324   3.186  0.1540 -0.2511  0.3511
  992MOL0     C33799   4.882   6.440   3.172 -0.3540  1.0369  0.1696
  992MOL0     C33800   4.734   6.387   3.166 -0.2315  0.3336 -0.1505
  992MOL0     C33801   4.638   6.495   3.105 -0.2811 -0.3728  0.1709
  992MOL0     N33802   4.494   6.475   3.111  0.2036  0.2485 -1.4347
  992MOL0     C33803   4.404   6.531   3.026 -0.0536 -1.0107 -1.4528
  992MOL0     C33804   4.286   6.473   3.046  0.6077 -0.0822 -1.0539
  992MOL0     C33805   4.152   6.484   2.967 -0.0841  1.5111  0.5415
  992MOL0     C33806   4.050   6.588   3.006  0.3882 -0.3408 -0.1285
  992MOL0     C33807   4.038   6.603   3.160  0.5620 -0.0860 -0.1765
  992MOL0     C33808   3.967   6.737   3.193 -0.6623  0.2563 -0.1233
  992MOL0     O33809   3.840   6.757   3.134  0.4318 -0.6096  0.5038
  992MOL0     C33810   3.736   6.669   3.142 -0.4619 -0.3242 -0.5623
  992MOL0     C33811   3.727   6.589   3.248  0.9075  0.0061  0.1818
  992MOL0     C33812   3.616   6.504   3.275 -0.0252 -0.7791 -0.2088
  992MOL0     C33813   3.625   6.409   3.401  0.2970 -0.5620  0.1723
  992MOL0     C33814   3.504   6.512   3.183  0.7931  0.2737 -0.4662
  992MOL0     C33815   3.369   6.449   3.213 -0.3584 -0.1510 -0.0874
  992MOL0     O33816   3.356   6.368   3.321  0.2734  0.2572  0.2335
  992MOL0     C33817   3.229   6.329   3.353 -1.1288  0.3779 -0.5003
  992MOL0     C33818   3.188   6.193   3.333 -0.1217  1.0906  0.3291
  992MOL0     C33819   3.065   6.162   3.394  0.5640 -0.2163  0.0356
  992MOL0     C33820   2.976   6.258   3.459  0.0403  0.3864  1.0249
  992MOL0     O33821   2.856   6.211   3.498  0.3159 -0.4928  0.0202
  992MOL0     C33822   2.754   6.310   3.479 -0.1634  0.5227  0.4542
  992MOL0     C33823   2.619   6.254   3.520 -0.8840  0.8194  0.3864
  992MOL0     C33824   2.619   6.177   3.657  0.4794  0.1415  0.6183
  992MOL0     C33825   2.476   6.129   3.696 -0.0294 -0.3051 -0.4585
  992MOL0     C33826   2.461   6.085   3.843  0.0912  0.7536 -0.0195
  992MOL0     C33827   2.312   6.065   3.866 -0.7413 -0.6369 -0.1252
  992MOL0     C33828   2.277   6.051   4.019 -0.6580  0.3102  0.8475
  992MOL0     C33829   2.132   5.997   4.036 -0.3904 -0.1846 -0.1400
  992MOL0    Cl33830   2.064   6.031   4.197  0.0478  0.2059  0.0946
  992MOL0     C33831   3.023   6.390   3.470 -0.6351  0.0940  0.6314
  992MOL0     C33832   3.147   6.415   3.425  0.1924  0.2727 -0.6805
  992MOL0     O33833   3.275   6.484   3.145  0.4336  0.5371  0.5054
  992MOL0     C33834   3.517   6.589   3.070 -0.1042 -0.3551 -0.3698
  992MOL0     C33835   3.630   6.663   3.045 -0.4353 -0.2471 -0.3050
  992MOL0     N33836   4.301   6.392   3.153 -0.2011 -0.1154 -0.6935
  992MOL0     N33837   4.424   6.390   3.197  0.4325 -0.4619  0.0290
  992MOL0     C33838   5.443   5.802   3.405  0.6796  0.5488  0.1090
  992MOL0     C33839   5.580   5.763   3.398 -0.2185 -0.4729 -0.6857
  992MOL0     C33840   6.049   5.822   3.363  0.9528 -0.6389  1.2802
  992MOL0     C33841   6.136   5.805   3.261  0.3186 -0.1709  0.3349
  992MOL0     C33842   6.277   5.796   3.284  0.0565 -0.8893  0.5316
  992MOL0     C33843   6.332   5.799   3.415 -0.4095 -0.5308 -0.6051
  992MOL0     O33844   6.467   5.813   3.442 -0.0731  0.5555 -0.4406
  992MOL0     C33845   6.512   5.824   3.576  0.3684 -0.4662 -0.2996
  992MOL0     C33846   6.656   5.866   3.570  0.4869 -0.0646 -0.0423
  992MOL0     C33847   6.679   6.014   3.517  0.4677 -0.0640 -0.0833
  992MOL0     C33848   6.820   6.052   3.472  1.0724  0.0028 -0.1858
  992MOL0     C33849   6.905   6.041   3.589 -0.2588  1.1037 -0.0181
  992MOL0     C33850   6.973   6.044   3.686  0.1137 -0.0978  0.2726
  992MOL0     C33851   6.238   5.791   3.529 -0.2575 -0.8965  0.1935
  992MOL0     C33852   6.099   5.811   3.495 -0.3700  0.0273 -0.1120
  992MOL0     H33853   5.717   6.058   3.433 -0.4418 -0.9924  1.5177
  992MOL0     H33854   5.472   6.128   3.437 -0.9827 -0.4238  3.5115
  992MOL0     H33855   5.191   5.879   3.255 -1.9826  1.6838 -0.2677
  992MOL0     H33856   5.141   5.808   3.406  0.7842  0.6774  1.3189
  992MOL0     H33857   4.951   5.938   3.351 -0.8806  2.4397 -0.5898
  992MOL0     H33858   5.048   6.022   3.472  1.4500 -0.4937 -0.4418
  992MOL0     H33859   5.161   6.146   3.287  0.4383 -0.4884  1.3969
  992MOL0     H33860   5.063   6.067   3.165  0.1033  0.5507  0.2587
  992MOL0     H33861   4.856   6.166   3.261 -1.0157  2.0313 -0.8725
  992MOL0     H33862   4.953   6.243   3.380 -1.0717 -0.0169 -0.3077
  992MOL0     H33863   5.085   6.361   3.218  1.5178 -0.8795 -2.7244
  992MOL0     H33864   5.011   6.281   3.089  0.6454  1.8401 -0.4918
  992MOL0     H33865   4.890   6.503   3.261  0.0962  0.5407  0.4810
  992MOL0     H33866   4.902   6.503   3.085 -1.2850  1.1700  0.0366
  992MOL0     H33867   4.742   6.297   3.105  3.7259  0.0639  0.5015
  992MOL0     H33868   4.711   6.354   3.268 -0.6397  0.7231 -0.1103
  992MOL0     H33869   4.663   6.517   3.001  2.1595  2.9662  1.2651
  992MOL0     H33870   4.657   6.593   3.150 -0.2715 -1.0517  1.7100
  992MOL0     H33871   4.430   6.593   2.940 -1.9262 -1.2165 -2.2105
  992MOL0     H33872   4.178   6.501   2.862 -3.0535  2.2830 -0.1810
  992MOL0     H33873   4.103   6.386   2.973  3.2306 -0.3649 -0.7166
  992MOL0     H33874   3.952   6.560   2.967 -0.7868 -0.2334  2.5678
  992MOL0     H33875   4.085   6.682   2.963  0.2786 -0.7680 -1.1798
  992MOL0     H33876   4.138   6.619   3.201  0.9113 -0.9777 -0.6571
  992MOL0     H33877   3.994   6.515   3.208  1.4367  1.2597  3.3846
  992MOL0     H33878   4.041   6.813   3.165  0.4639  0.0957  2.1590
  992MOL0     H33879   3.969   6.742   3.302  1.1330  0.0083 -0.1105
  992MOL0     H33880   3.791   6.598   3.336 -0.2822 -0.7012  1.1505
  992MOL0     H33881   3.535   6.417   3.464 -1.5340 -0.1701 -2.3290
  992MOL0     H33882   3.623   6.303   3.374 -0.7551 -0.5262  0.0376
  992MOL0     H33883   3.710   6.428   3.467  0.9355  3.1793 -1.4960
  992MOL0     H33884   3.258   6.126   3.285  0.2869  2.2822 -0.7845
  992MOL0     H33885   3.033   6.062   3.370  1.0300 -0.0303 -1.4801
  992MOL0     H33886   2.759   6.398   3.544 -0.4152  0.8784 -0.0110
  992MOL0     H33887   2.752   6.352   3.378 -1.0462 -3.2061 -1.2454
  992MOL0     H33888   2.553   6.341   3.532 -0.0474  1.2180  2.7060
  992MOL0     H33889   2.576   6.184   3.447 -1.3852  0.4185  1.0373
  992MOL0     H33890   2.664   6.242   3.734 -0.0723  0.3012  0.8065
  992MOL0     H33891   2.686   6.091   3.648 -0.7001 -0.8017  0.6211
  992MOL0     H33892   2.409   6.211   3.666  0.5031  0.0809 -0.6210
  992MOL0     H33893   2.452   6.047   3.628 -2.3509 -0.5112  0.5171
  992MOL0     H33894   2.500   6.165   3.907 -0.2826 -0.6029  2.0105
  992MOL0     H33895   2.519   5.993   3.856 -0.6997 -0.3128 -3.1822
  992MOL0     H33896   2.257   6.151   3.826  2.3661  2.0770  0.9071
  992MOL0     H33897   2.280   5.971   3.821 -4.4258  0.4611 -0.0858
  992MOL0     H33898   2.280   6.154   4.055  0.0771  1.3695 -1.9280
  992MOL0     H33899   2.356   5.994   4.069  1.9341  2.3492 -0.6143
  992MOL0     H33900   2.129   5.890   4.011 -0.9531  0.0402 -1.1063
  992MOL0     H33901   2.069   6.050   3.963 -1.7547 -0.2452  0.9507
  992MOL0     H33902   2.962   6.470   3.509 -0.9920  0.5211 -0.7307
  992MOL0     H33903   3.184   6.514   3.448 -1.6366  0.6509  0.9118
  992MOL0     H33904   3.441   6.593   2.993  0.8202 -1.9788 -1.4384
  992MOL0     H33905   3.633   6.728   2.958  1.3171 -2.5913 -2.1422
  992MOL0     H33906   5.363   5.729   3.408  1.8235 -0.8799 -1.7966
  992MOL0     H33907   5.606   5.659   3.414 -3.8492 -1.2307  1.8051
  992MOL0     H33908   6.111   5.786   3.157  2.9138 -4.5134  0.2477
  992MOL0     H33909   6.337   5.784   3.195  0.4860  2.6431  0.2304
  992MOL0     H33910   6.452   5.895   3.634  0.0719 -0.1589 -0.9789
  992MOL0     H33911   6.502   5.724   3.620 -0.4684 -0.2274  0.0779
  992MOL0     H33912   6.702   5.799   3.496  2.4411 -1.6520  2.4399
  992MOL0     H33913   6.699   5.840   3.667 -1.6271 -1.8560  0.4731
  992MOL0     H33914   6.656   6.084   3.599 -0.2368 -0.8835  0.4371
  992MOL0     H33915   6.611   6.034   3.434  0.7965  0.6256 -0.1900
  992MOL0     H33916   6.819   6.155   3.434 -1.9778  1.6487  3.6011
  992MOL0     H33917   6.852   5.990   3.388  0.8104  0.8085 -0.8834
  992MOL0     H33918   7.034   6.045   3.773 -2.0482  1.9436  1.8866
  992MOL0     H33919   6.267   5.799   3.634  0.0959 -1.6346  0.1591
  992MOL0     H33920   6.021   5.817   3.571 -1.7433  3.4098 -1.5432
  993MOL0     O33921   2.427   8.320   1.584 -0.2654 -0.7094 -0.3330
  993MOL0     C33922   2.433   8.417   1.512  0.4045 -0.1186  0.6850
  993MOL0     O33923   2.345   8.518   1.505  0.1690  0.4628 -0.1572
  993MOL0     C33924   2.218   8.529   1.570 -0.5518 -0.0193 -0.9390
  993MOL0     C33925   2.164   8.663   1.562 -0.1104 -0.5236 -0.0544
  993MOL0     C33926   2.047   8.692   1.620  0.3104 -0.7249  0.5700
  993MOL0     C33927   1.969   8.603   1.681  0.6084  0.1647 -0.4618
  993MOL0     O33928   1.846   8.628   1.735 -0.1087 -0.3797 -0.0124
  993MOL0     C33929   1.765   8.744   1.697  0.1296 -0.1143  0.4577
  993MOL0     C33930   1.636   8.765   1.779  0.6759  0.3693 -0.3875
  993MOL0     C33931   1.538   8.865   1.714  0.8565  0.2423  0.3228
  993MOL0     C33932   1.391   8.826   1.748 -0.3678  0.4228  0.4201
  993MOL0     C33933   1.288   8.905   1.668 -0.2966  0.2750 -0.1273
  993MOL0     C33934   1.150   8.845   1.707  0.1048 -0.3295  0.1011
  993MOL0     C33935   1.026   8.914   1.651 -0.7285  0.2735  0.5647
  993MOL0     C33936   0.951   9.014   1.745  0.0436 -0.3265  0.2583
  993MOL0     N33937   0.855   9.098   1.677  0.1139  0.0242 -0.0031
  993MOL0     C33938   0.833   9.112   1.537  0.1435 -0.0377 -0.3466
  993MOL0     C33939   0.710   9.171   1.526  0.0914  0.2309  0.4697
  993MOL0     C33940   0.636   9.202   1.399  0.0379 -0.0641  0.6014
  993MOL0     C33941   0.516   9.120   1.377  0.2974 -0.0088  1.2505
  993MOL0     C33942   0.395   9.176   1.449 -0.2111  0.6771 -0.7347
  993MOL0     C33943   0.267   9.118   1.396 -0.6819 -0.2172 -0.3958
  993MOL0     O33944   0.287   8.973   1.402  0.0586  0.4167  0.4108
  993MOL0     C33945   0.191   8.884   1.348 -0.1488  0.5226 -0.3774
  993MOL0     C33946   0.219   8.748   1.345 -0.0889  0.1678  0.6613
  993MOL0     C33947   0.130   8.655   1.277  0.4687 -0.5294 -1.2601
  993MOL0     C33948   0.156   8.510   1.292  1.0760 -0.1121  0.9926
  993MOL0     C33949   0.011   8.704   1.225 -0.0492 -0.8789  0.3034
  993MOL0     C33950  -0.084   8.626   1.150  0.0153  0.4642  0.7014
  993MOL0     O33951  -0.210   8.650   1.181  0.9124 -0.4976 -0.6793
  993MOL0     C33952  -0.312   8.570   1.135 -0.6845 -1.0978 -1.1807
  993MOL0     C33953  -0.306   8.426   1.130  0.2725 -0.0985 -0.0020
  993MOL0     C33954  -0.420   8.365   1.079 -0.6990 -0.3817  1.0364
  993MOL0     C33955  -0.535   8.434   1.039 -0.5001 -0.0044  0.5579
  993MOL0     O33956  -0.653   8.384   0.994  0.3222 -0.2846  0.2165
  993MOL0     C33957  -0.697   8.258   1.021 -0.3560 -0.5812  0.5254
  993MOL0     C33958  -0.843   8.244   0.985  0.2409  0.4499 -0.0521
  993MOL0     C33959  -0.940   8.331   1.061 -0.2675  0.2799  0.4842
  993MOL0     C33960  -1.090   8.300   1.029 -0.5352  0.1711 -0.1011
  993MOL0     C33961  -1.185   8.403   1.087  0.0700 -1.1237  0.6404
  993MOL0     C33962  -1.208   8.406   1.242 -0.9369 -0.5341 -0.0551
  993MOL0     C33963  -1.206   8.557   1.288 -0.4479  0.0191  0.1985
  993MOL0     C33964  -1.233   8.557   1.445 -0.0892  0.2188  0.5674
  993MOL0    Cl33965  -1.243   8.719   1.515 -0.0395  0.1223 -0.0892
  993MOL0     C33966  -0.537   8.569   1.054 -0.2190 -1.0585 -0.2573
  993MOL0     C33967  -0.425   8.639   1.103 -0.1048 -0.1754  0.1934
  993MOL0     O33968  -0.042   8.547   1.071 -0.6929 -0.2532  0.0208
  993MOL0     C33969  -0.018   8.842   1.234 -0.0599 -0.4637  0.2092
  993MOL0     C33970   0.065   8.937   1.298  0.5058 -0.3441  0.4535
  993MOL0     N33971   0.665   9.202   1.652 -0.5936  0.2619  0.1928
  993MOL0     N33972   0.748   9.152   1.737 -0.5618 -0.2500  0.3784
  993MOL0     C33973   2.016   8.473   1.690  0.6945  0.0474 -0.0555
  993MOL0     C33974   2.144   8.440   1.647  0.2808  1.0256  0.0926
  993MOL0     C33975   2.558   8.436   1.427  0.3969 -0.0788 -0.7383
  993MOL0     C33976   2.673   8.368   1.446  0.1891 -0.0813  0.0507
  993MOL0     C33977   2.787   8.387   1.369 -0.1187 -0.1068  0.0424
  993MOL0     C33978   2.790   8.484   1.271 -1.2378  1.0495  0.0513
  993MOL0     O33979   2.899   8.507   1.196 -0.4737 -0.3739 -0.0088
  993MOL0     C33980   3.025   8.509   1.257  0.0760  0.8311 -0.1964
  993MOL0     C33981   3.121   8.581   1.164 -0.1429  0.8890  0.4267
  993MOL0     C33982   3.122   8.508   1.023  0.3843  0.0078 -0.3290
  993MOL0     C33983   3.200   8.377   1.022  0.0478  0.0876  0.1748
  993MOL0     C33984   3.339   8.408   1.053  0.1143  0.7084  0.6850
  993MOL0     C33985   3.447   8.450   1.093 -0.0479 -0.2232  0.0689
  993MOL0     C33986   2.675   8.549   1.248 -0.4849 -0.3757  0.6687
  993MOL0     C33987   2.561   8.540   1.329 -0.3970  0.1524 -0.2898
  993MOL0     H33988   2.229   8.737   1.516 -0.3774  1.4283  2.5085
  993MOL0     H33989   2.012   8.792   1.597  1.9825 -0.3132 -0.3843
  993MOL0     H33990   1.824   8.833   1.720 -0.3255  0.0733  0.9382
  993MOL0     H33991   1.742   8.747   1.590  1.5251  0.6540  0.1499
  993MOL0     H33992   1.595   8.663   1.779 -0.6945  0.8558 -2.8026
  993MOL0     H33993   1.663   8.796   1.881 -0.0289 -0.0999 -0.0479
  993MOL0     H33994   1.570   8.964   1.748 -2.4546  0.8015  2.2343
  993MOL0     H33995   1.546   8.859   1.605 -0.6161 -1.4597  0.2605
  993MOL0     H33996   1.378   8.717   1.741  3.1142 -0.2164  1.7575
  993MOL0     H33997   1.379   8.841   1.856 -1.6176  2.8573  0.0123
  993MOL0     H33998   1.286   9.012   1.687  1.0017  0.4457 -0.8491
  993MOL0     H33999   1.305   8.886   1.562  0.9916  1.1241 -0.0916
  993MOL0     H34000   1.154   8.748   1.657 -2.4241 -0.6773  0.4150
  993MOL0     H34001   1.146   8.820   1.813 -2.4464 -0.5646  0.0256
  993MOL0     H34002   1.049   8.948   1.550  0.9517  1.6909  1.3682
  993MOL0     H34003   0.947   8.841   1.630 -0.0090 -0.1600 -0.6945
  993MOL0     H34004   1.022   9.078   1.798 -0.0837  0.4795 -0.5119
  993MOL0     H34005   0.895   8.963   1.824  0.6432  0.3557  1.1495
  993MOL0     H34006   0.892   9.081   1.451 -2.2798 -2.9988 -1.1384
  993MOL0     H34007   0.616   9.309   1.394  0.0070 -0.1317 -1.7680
  993MOL0     H34008   0.710   9.190   1.318 -0.3582  0.1664  0.2025
  993MOL0     H34009   0.536   9.014   1.395 -1.5426 -0.6471 -0.1485
  993MOL0     H34010   0.485   9.121   1.272  1.5954 -2.4228  0.7747
  993MOL0     H34011   0.376   9.282   1.428 -0.0965  0.5400 -1.5615
  993MOL0     H34012   0.412   9.150   1.554 -2.0934 -0.0782 -0.5633
  993MOL0     H34013   0.250   9.157   1.295  3.4653 -0.7334 -1.4697
  993MOL0     H34014   0.188   9.155   1.462  0.5747  0.4948  0.7522
  993MOL0     H34015   0.309   8.729   1.403 -0.1609 -0.9806  0.4180
  993MOL0     H34016   0.079   8.465   1.356  1.6045  2.2593  3.4716
  993MOL0     H34017   0.153   8.457   1.196 -1.2448  2.4380 -0.4787
  993MOL0     H34018   0.256   8.495   1.334  1.8254 -0.3415 -0.7706
  993MOL0     H34019  -0.220   8.367   1.159 -0.2212 -0.1059  1.5324
  993MOL0     H34020  -0.418   8.259   1.055  2.1058  0.0670 -1.2394
  993MOL0     H34021  -0.651   8.176   0.965 -0.7348  0.9324 -2.1416
  993MOL0     H34022  -0.678   8.230   1.125  0.2394 -0.4009  0.4655
  993MOL0     H34023  -0.860   8.270   0.880 -1.9223 -0.2690  0.0924
  993MOL0     H34024  -0.867   8.139   0.998 -0.7480  0.2527 -2.8290
  993MOL0     H34025  -0.905   8.434   1.051  3.3883 -0.7509  1.0667
  993MOL0     H34026  -0.924   8.306   1.167 -1.0813 -2.6539 -0.0180
  993MOL0     H34027  -1.107   8.285   0.922 -2.4335 -3.3336  0.5317
  993MOL0     H34028  -1.114   8.203   1.074  1.9420 -1.0370 -1.2088
  993MOL0     H34029  -1.285   8.375   1.055  0.2106 -2.8282  1.5097
  993MOL0     H34030  -1.156   8.503   1.054 -3.9144  0.1702  0.5906
  993MOL0     H34031  -1.300   8.355   1.274 -0.2720 -1.9371 -0.3005
  993MOL0     H34032  -1.123   8.364   1.296  1.5357  1.7508 -1.9289
  993MOL0     H34033  -1.280   8.614   1.232  1.1329  0.6127 -1.4262
  993MOL0     H34034  -1.109   8.603   1.265 -0.1222 -0.2769  0.9439
  993MOL0     H34035  -1.157   8.493   1.491  2.9999  0.6778 -3.3016
  993MOL0     H34036  -1.330   8.508   1.447 -1.1282  1.9901 -1.6536
  993MOL0     H34037  -0.630   8.622   1.036 -0.6850 -0.9861  1.9765
  993MOL0     H34038  -0.433   8.747   1.107  1.2774  0.0223 -1.1591
  993MOL0     H34039  -0.112   8.873   1.190  0.6244  0.3001 -0.7361
  993MOL0     H34040   0.033   9.040   1.310 -1.6218 -0.7973 -0.8297
  993MOL0     H34041   1.948   8.400   1.732 -3.5166  2.8947 -1.3547
  993MOL0     H34042   2.180   8.338   1.658 -2.5146 -0.0477  0.1152
  993MOL0     H34043   2.683   8.288   1.519 -1.5101  0.0539  0.4713
  993MOL0     H34044   2.869   8.318   1.384  0.4278  0.6334  0.5376
  993MOL0     H34045   3.021   8.585   1.336 -2.8092  3.3614 -2.4933
  993MOL0     H34046   3.057   8.409   1.288 -0.9778 -0.2935 -2.4808
  993MOL0     H34047   3.222   8.607   1.195  0.7262  0.8402 -2.0831
  993MOL0     H34048   3.074   8.678   1.143 -1.9197 -0.0826 -0.3563
  993MOL0     H34049   3.169   8.585   0.961  0.3998  1.9095  1.8802
  993MOL0     H34050   3.019   8.490   0.990  1.1579 -0.6644 -2.5394
  993MOL0     H34051   3.202   8.334   0.921  0.1656  0.1175  0.1649
  993MOL0     H34052   3.166   8.308   1.100  0.9911 -0.3314  0.2318
  993MOL0     H34053   3.531   8.502   1.135  0.9461  0.2768 -2.3573
  993MOL0     H34054   2.657   8.613   1.162  1.4027 -1.0646 -0.2869
  993MOL0     H34055   2.468   8.588   1.301 -0.1506  0.2981 -0.8802
  994MOL0     O34056   0.683   5.647   2.274 -0.5147 -0.1329 -0.4146
  994MOL0     C34057   0.719   5.537   2.308  0.6014  0.1110  0.1257
  994MOL0     O34058   0.634   5.431   2.346  0.4143  0.0211 -0.3012
  994MOL0     C34059   0.499   5.442   2.330  0.4294  0.9595  0.3946
  994MOL0     C34060   0.437   5.323   2.355  0.4919  0.1157 -0.0200
  994MOL0     C34061   0.296   5.315   2.364 -0.5239 -0.4155 -0.3876
  994MOL0     C34062   0.216   5.408   2.301  0.2701  0.5038  0.1256
  994MOL0     O34063   0.086   5.388   2.265  0.3415  0.2966 -0.1221
  994MOL0     C34064   0.032   5.252   2.297  0.4507 -0.5732  0.8282
  994MOL0     C34065  -0.111   5.241   2.239  0.1951 -1.4034  0.3504
  994MOL0     C34066  -0.111   5.214   2.088 -0.0843 -0.1718  0.4088
  994MOL0     C34067  -0.247   5.231   2.022  0.8931  0.8831  0.2681
  994MOL0     C34068  -0.249   5.133   1.899  0.2794 -0.0750 -0.8189
  994MOL0     C34069  -0.369   5.143   1.810 -0.3622 -0.3164  0.2755
  994MOL0     C34070  -0.351   5.243   1.700  0.6808 -0.0679 -0.9753
  994MOL0     C34071  -0.443   5.216   1.575 -0.1574 -0.6872  0.3986
  994MOL0     N34072  -0.588   5.193   1.615 -0.1097  0.7112  0.4230
  994MOL0     C34073  -0.645   5.070   1.635 -0.0844  0.4508  0.3331
  994MOL0     C34074  -0.766   5.106   1.695  0.1347 -0.2307  0.3745
  994MOL0     C34075  -0.892   5.015   1.696 -0.2753  0.4359 -0.5091
  994MOL0     C34076  -0.890   4.916   1.819 -0.4506 -0.7219 -0.4355
  994MOL0     C34077  -1.000   4.816   1.816  0.5363  0.5596 -0.2541
  994MOL0     C34078  -1.142   4.869   1.839  0.8816 -0.8848 -0.1528
  994MOL0     O34079  -1.155   4.911   1.978  0.1097  1.3478  0.1147
  994MOL0     C34080  -1.195   4.808   2.058  0.3624  0.9068 -0.2935
  994MOL0     C34081  -1.325   4.774   2.063  0.6032  0.4038 -0.1944
  994MOL0     C34082  -1.367   4.654   2.128  0.6051 -0.7715 -0.2104
  994MOL0     C34083  -1.516   4.629   2.125  0.2815  0.6055 -0.0954
  994MOL0     C34084  -1.274   4.568   2.188  0.3984  0.0404 -0.3331
  994MOL0     C34085  -1.312   4.443   2.250  0.1259  0.0200  0.1997
  994MOL0     O34086  -1.429   4.372   2.218 -0.2869 -0.0263  0.4366
  994MOL0     C34087  -1.482   4.265   2.286 -0.2748 -0.0696 -0.4900
  994MOL0     C34088  -1.562   4.183   2.202 -0.1914  0.4836 -1.0113
  994MOL0     C34089  -1.613   4.062   2.250 -0.6171  0.2223 -0.7584
  994MOL0     C34090  -1.578   4.020   2.380 -0.1053 -0.8801 -0.5464
  994MOL0     O34091  -1.616   3.898   2.421 -0.1425 -0.1198 -0.6254
  994MOL0     C34092  -1.511   3.814   2.462  0.4000 -0.0970  0.7040
  994MOL0     C34093  -1.434   3.764   2.340 -0.5788  0.4951 -0.0311
  994MOL0     C34094  -1.336   3.658   2.370  0.5198  0.5610  0.2997
  994MOL0     C34095  -1.223   3.702   2.458 -0.5678 -0.2450 -0.4296
  994MOL0     C34096  -1.118   3.590   2.458  0.0725  0.0160 -0.0078
  994MOL0     C34097  -0.977   3.622   2.402  0.2207 -0.9579  0.5166
  994MOL0     C34098  -0.884   3.511   2.398  0.3380  0.5047 -0.4685
  994MOL0     C34099  -0.768   3.522   2.298 -0.6231 -0.5713 -0.1246
  994MOL0    Cl34100  -0.714   3.688   2.274 -0.0819 -0.0148  0.1461
  994MOL0     C34101  -1.517   4.105   2.472 -0.1476 -0.1967  0.0709
  994MOL0     C34102  -1.472   4.230   2.425 -0.5192  0.3968 -0.4107
  994MOL0     O34103  -1.219   4.403   2.330  0.8603  0.0176  0.2045
  994MOL0     C34104  -1.138   4.603   2.173 -0.3247  0.3610 -0.4485
  994MOL0     C34105  -1.102   4.722   2.115  0.1534 -0.4520 -0.0194
  994MOL0     N34106  -0.776   5.239   1.703  0.0176 -0.7984 -0.3586
  994MOL0     N34107  -0.670   5.293   1.659  0.1590 -0.2204 -0.0269
  994MOL0     C34108   0.278   5.534   2.268  0.2208 -0.0954  0.5536
  994MOL0     C34109   0.416   5.553   2.295 -0.0769 -0.3348  0.4311
  994MOL0     C34110   0.866   5.509   2.303 -0.7157  0.0689 -0.2129
  994MOL0     C34111   0.957   5.605   2.247 -0.4833  0.2260 -0.3110
  994MOL0     C34112   1.093   5.569   2.243 -0.1221 -0.4635  0.6541
  994MOL0     C34113   1.147   5.444   2.294  0.2915 -0.0980  0.3670
  994MOL0     O34114   1.273   5.392   2.307 -0.0249 -0.0674 -0.2270
  994MOL0     C34115   1.375   5.464   2.235 -0.2528 -0.8198  0.9014
  994MOL0     C34116   1.514   5.401   2.253 -0.3881  0.3990  0.1211
  994MOL0     C34117   1.625   5.455   2.160 -0.6188 -0.2201 -0.3554
  994MOL0     C34118   1.655   5.598   2.201 -1.0143 -0.0217 -0.4580
  994MOL0     C34119   1.753   5.648   2.105  0.8279  0.7176  0.3422
  994MOL0     C34120   1.838   5.676   2.021 -0.7622  0.4844 -0.4902
  994MOL0     C34121   1.051   5.357   2.344 -0.6480 -0.2154 -0.1773
  994MOL0     C34122   0.913   5.383   2.344  0.0231 -0.2041 -0.0034
  994MOL0     H34123   0.493   5.231   2.370 -3.2116 -2.4251 -0.1342
  994MOL0     H34124   0.254   5.219   2.393 -1.6210 -0.5491 -2.2380
  994MOL0     H34125   0.097   5.178   2.249  0.8556  0.5684 -0.4538
  994MOL0     H34126   0.029   5.249   2.406 -0.7162 -0.2834  0.8159
  994MOL0     H34127  -0.176   5.175   2.297 -2.7541  1.0993  0.1087
  994MOL0     H34128  -0.158   5.336   2.266  0.6821 -0.7660 -0.9555
  994MOL0     H34129  -0.034   5.275   2.040  1.1746 -0.8588  1.4955
  994MOL0     H34130  -0.080   5.110   2.073  2.1371  0.5861 -0.6712
  994MOL0     H34131  -0.334   5.206   2.083 -1.2687  1.2700 -2.4641
  994MOL0     H34132  -0.253   5.333   1.984  1.1965  0.1234 -1.9717
  994MOL0     H34133  -0.154   5.146   1.845  1.7129 -1.6665  1.1613
  994MOL0     H34134  -0.253   5.031   1.939 -1.1606  0.8580  1.6083
  994MOL0     H34135  -0.374   5.044   1.764  0.1930  0.4837 -1.6382
  994MOL0     H34136  -0.456   5.167   1.872 -0.8355 -0.2011 -0.4209
  994MOL0     H34137  -0.371   5.343   1.739 -0.5248 -1.4517  2.3576
  994MOL0     H34138  -0.250   5.243   1.659  0.4023  0.1644 -1.6800
  994MOL0     H34139  -0.398   5.131   1.524 -0.0120  0.0056 -0.6484
  994MOL0     H34140  -0.440   5.303   1.509  0.2052 -1.5524 -0.7549
  994MOL0     H34141  -0.613   4.971   1.605  0.2417  0.8758 -0.7426
  994MOL0     H34142  -0.973   5.088   1.712 -1.1670 -1.0398  2.6270
  994MOL0     H34143  -0.905   4.971   1.597 -0.5205 -1.2539  0.2504
  994MOL0     H34144  -0.892   4.971   1.913 -0.6082  0.3312 -1.0328
  994MOL0     H34145  -0.791   4.869   1.814  1.0676  2.0097  1.4483
  994MOL0     H34146  -0.974   4.744   1.895  1.7773 -1.2696 -2.2390
  994MOL0     H34147  -0.997   4.766   1.719  1.2480  2.2204 -1.1272
  994MOL0     H34148  -1.212   4.793   1.804  1.3814 -0.9439 -1.0800
  994MOL0     H34149  -1.149   4.961   1.780  1.8114 -1.6273 -1.4886
  994MOL0     H34150  -1.400   4.838   2.017 -0.2802 -0.3924  0.0925
  994MOL0     H34151  -1.549   4.584   2.219 -0.7259 -1.4239 -1.3362
  994MOL0     H34152  -1.569   4.717   2.087 -0.8672 -0.3891 -0.8693
  994MOL0     H34153  -1.541   4.551   2.053 -0.4751 -0.3514  1.1663
  994MOL0     H34154  -1.593   4.220   2.105 -5.7729 -0.7684 -0.0361
  994MOL0     H34155  -1.663   3.998   2.178 -3.5253  1.2158  0.2124
  994MOL0     H34156  -1.438   3.860   2.530 -0.8301  0.0768  1.9585
  994MOL0     H34157  -1.548   3.733   2.525  0.0348 -0.7530 -0.3331
  994MOL0     H34158  -1.504   3.719   2.269  0.0601 -0.5095 -0.0435
  994MOL0     H34159  -1.382   3.844   2.287  2.8207 -1.7016 -0.3255
  994MOL0     H34160  -1.303   3.617   2.274  2.4809  0.4688  0.9583
  994MOL0     H34161  -1.391   3.575   2.415  2.1935 -0.2611  0.9132
  994MOL0     H34162  -1.179   3.794   2.417 -0.5631  0.5649  1.2866
  994MOL0     H34163  -1.257   3.735   2.557  0.7033  0.9821 -0.3640
  994MOL0     H34164  -1.153   3.511   2.392  2.3574  0.4458 -1.8762
  994MOL0     H34165  -1.114   3.552   2.560 -3.8827 -1.0428 -0.0808
  994MOL0     H34166  -0.989   3.655   2.299 -0.3702 -1.1532  0.5194
  994MOL0     H34167  -0.935   3.706   2.459  1.5833  0.5891 -2.5261
  994MOL0     H34168  -0.946   3.424   2.374  0.0959  0.2477  0.9944
  994MOL0     H34169  -0.845   3.494   2.498 -1.9987  3.0439  1.0366
  994MOL0     H34170  -0.786   3.478   2.199  0.0347 -0.0526 -0.4858
  994MOL0     H34171  -0.682   3.471   2.342 -0.6080 -0.1673  0.3230
  994MOL0     H34172  -1.489   4.079   2.573  1.1616 -0.1055 -0.2450
  994MOL0     H34173  -1.410   4.297   2.483 -1.3740 -0.3062  1.4018
  994MOL0     H34174  -1.066   4.537   2.220 -1.7278  0.5159  2.1125
  994MOL0     H34175  -0.996   4.745   2.118  0.5953 -1.9710 -1.7326
  994MOL0     H34176   0.213   5.612   2.230  0.9459 -0.3294 -1.2639
  994MOL0     H34177   0.464   5.649   2.282  0.5072 -0.2735  2.5693
  994MOL0     H34178   0.922   5.699   2.205 -1.4965  0.2142  0.4581
  994MOL0     H34179   1.161   5.643   2.202  0.8835 -1.5132  0.3676
  994MOL0     H34180   1.341   5.452   2.132  0.1367 -2.1891  0.9213
  994MOL0     H34181   1.379   5.572   2.254 -0.5280 -0.6973  0.2839
  994MOL0     H34182   1.508   5.293   2.234 -3.0475  0.5684 -0.4281
  994MOL0     H34183   1.547   5.417   2.356  2.6964 -0.8708 -0.5435
  994MOL0     H34184   1.592   5.459   2.056 -1.6822  1.0676 -0.0055
  994MOL0     H34185   1.716   5.394   2.169 -2.2509 -2.5243  1.9070
  994MOL0     H34186   1.684   5.612   2.305 -0.2951  1.6590 -0.8518
  994MOL0     H34187   1.570   5.665   2.188  0.3263  3.2003  4.4988
  994MOL0     H34188   1.907   5.694   1.942  2.0893 -2.9247  0.9317
  994MOL0     H34189   1.065   5.255   2.378 -1.0860  0.2105  1.3314
  994MOL0     H34190   0.848   5.312   2.393 -0.4153 -1.1847 -1.8933
  995MOL0     O34191   8.461   2.641   4.594  0.4605  0.4152 -0.0016
  995MOL0     C34192   8.494   2.561   4.508  0.1932 -0.2612  0.4662
  995MOL0     O34193   8.425   2.445   4.477 -0.3427  0.1545  0.1345
  995MOL0     C34194   8.301   2.422   4.542 -0.5139  0.3793  0.1551
  995MOL0     C34195   8.302   2.357   4.659  0.5582  0.0027  0.1660
  995MOL0     C34196   8.175   2.335   4.729  0.4534 -0.8918 -0.2437
  995MOL0     C34197   8.056   2.368   4.664  0.5140  0.2018  0.0106
  995MOL0     O34198   7.938   2.328   4.721 -0.1956  0.7570  0.1699
  995MOL0     C34199   7.807   2.386   4.672 -0.7223 -0.3608 -0.3603
  995MOL0     C34200   7.702   2.341   4.776  0.8200 -0.4712  0.1209
  995MOL0     C34201   7.554   2.338   4.729 -0.7410 -0.2479  0.6843
  995MOL0     C34202   7.454   2.346   4.843  0.0973  0.2353  0.3311
  995MOL0     C34203   7.314   2.358   4.793 -0.5298 -0.1406  0.5796
  995MOL0     C34204   7.217   2.314   4.912 -0.2961 -0.9582 -0.5234
  995MOL0     C34205   7.069   2.337   4.889  0.4201 -0.3445  0.0912
  995MOL0     C34206   7.035   2.476   4.841  0.7253 -0.4474 -0.2514
  995MOL0     N34207   6.895   2.506   4.859  0.1911 -0.3724  0.2804
  995MOL0     C34208   6.780   2.443   4.814 -0.1936  0.3668  0.4946
  995MOL0     C34209   6.676   2.520   4.861 -0.2553 -0.3526 -0.0240
  995MOL0     C34210   6.528   2.500   4.861  0.3483 -0.3228 -0.7537
  995MOL0     C34211   6.459   2.499   4.721 -0.1659  0.3147 -0.1064
  995MOL0     C34212   6.316   2.512   4.737 -0.1268 -0.3938  0.6678
  995MOL0     C34213   6.262   2.651   4.769 -0.1142 -1.0552 -0.0165
  995MOL0     O34214   6.117   2.643   4.781  0.9003  0.3976  0.2354
  995MOL0     C34215   6.036   2.645   4.667 -0.0492 -0.2356 -0.0395
  995MOL0     C34216   6.073   2.669   4.532 -0.2043 -0.3097  0.2866
  995MOL0     C34217   5.983   2.676   4.421  0.1249  0.4753 -1.0205
  995MOL0     C34218   6.034   2.721   4.291  0.7176  0.0981  0.5952
  995MOL0     C34219   5.849   2.636   4.446 -0.1421  0.7889 -0.2450
  995MOL0     C34220   5.734   2.635   4.346 -0.5263  0.0449 -0.0630
  995MOL0     O34221   5.751   2.703   4.234 -0.1017  0.5087 -1.0004
  995MOL0     C34222   5.637   2.734   4.172  0.3240 -1.7564 -0.1683
  995MOL0     C34223   5.595   2.649   4.069  0.0245 -0.3807  0.0060
  995MOL0     C34224   5.477   2.688   3.995 -0.1769  0.2332 -0.0576
  995MOL0     C34225   5.412   2.813   4.023 -0.1888  0.0841 -0.5491
  995MOL0     O34226   5.290   2.851   3.959  0.8509  0.1552 -0.1293
  995MOL0     C34227   5.265   2.785   3.832 -0.4954 -0.2148 -0.5888
  995MOL0     C34228   5.131   2.844   3.765  0.1433  0.4511  0.1116
  995MOL0     C34229   5.012   2.780   3.833 -0.1697  0.0347 -0.2254
  995MOL0     C34230   4.877   2.834   3.783  0.8368  0.4118 -0.0027
  995MOL0     C34231   4.759   2.788   3.877 -0.4847  0.0709  0.0890
  995MOL0     C34232   4.716   2.641   3.832 -0.2647 -0.8785 -0.2759
  995MOL0     C34233   4.582   2.599   3.895  0.6250 -0.2033 -0.1483
  995MOL0     C34234   4.578   2.457   3.949  0.9528  0.9163 -0.0642
  995MOL0    Cl34235   4.651   2.450   4.118  0.0149 -0.0503 -0.1478
  995MOL0     C34236   5.468   2.894   4.113 -0.1338 -0.4169 -0.5057
  995MOL0     C34237   5.584   2.860   4.183 -0.6890 -0.3109  0.5878
  995MOL0     O34238   5.630   2.571   4.377  0.2983 -0.4032  0.4773
  995MOL0     C34239   5.815   2.613   4.575 -0.6172 -0.5065 -0.3971
  995MOL0     C34240   5.904   2.614   4.681  1.0846 -0.3828  1.1425
  995MOL0     N34241   6.727   2.625   4.939  0.4460  0.0854 -0.0985
  995MOL0     N34242   6.857   2.614   4.926  0.0782  0.1630  0.3318
  995MOL0     C34243   8.060   2.436   4.538 -0.5411  0.0439  0.1887
  995MOL0     C34244   8.183   2.456   4.475 -0.0570 -0.3225 -0.2549
  995MOL0     C34245   8.628   2.580   4.457  0.2833  0.1964  0.4745
  995MOL0     C34246   8.678   2.476   4.374  0.1330 -0.6439  0.0576
  995MOL0     C34247   8.810   2.478   4.329 -0.0814 -0.1185  0.4302
  995MOL0     C34248   8.896   2.578   4.362 -0.0905 -0.9991  0.5809
  995MOL0     O34249   9.029   2.547   4.330 -0.3763  0.0228 -0.5291
  995MOL0     C34250   9.115   2.661   4.323  0.4416 -0.2284  0.6902
  995MOL0     C34251   9.258   2.623   4.291  0.5173  0.8960 -0.7469
  995MOL0     C34252   9.319   2.504   4.374  0.1665  0.1132  0.0416
  995MOL0     C34253   9.313   2.518   4.528 -0.3138  0.2390  0.3811
  995MOL0     C34254   9.391   2.634   4.577 -0.1709 -0.7570 -0.0352
  995MOL0     C34255   9.461   2.723   4.620 -0.4508  0.1337  0.3556
  995MOL0     C34256   8.848   2.692   4.439  0.9427 -0.3781 -0.0252
  995MOL0     C34257   8.717   2.685   4.484  1.5699 -0.4418 -0.1030
  995MOL0     H34258   8.392   2.308   4.695  1.9779  1.0250 -1.7801
  995MOL0     H34259   8.176   2.284   4.824  0.7785 -1.5745 -0.6085
  995MOL0     H34260   7.794   2.493   4.649 -1.9945 -0.4365 -0.0734
  995MOL0     H34261   7.783   2.326   4.584 -1.7967  0.3782 -0.5968
  995MOL0     H34262   7.730   2.242   4.815  2.0622  0.2611  1.1624
  995MOL0     H34263   7.703   2.417   4.854 -2.9496  2.3461 -2.2258
  995MOL0     H34264   7.537   2.417   4.656  0.7291  0.1033  0.6949
  995MOL0     H34265   7.550   2.247   4.669  0.9457  0.0092  0.1328
  995MOL0     H34266   7.457   2.253   4.902 -4.0205  1.2801  2.5315
  995MOL0     H34267   7.478   2.429   4.910 -0.0681 -0.7313  1.6370
  995MOL0     H34268   7.298   2.460   4.758  1.3098  0.5056  1.5141
  995MOL0     H34269   7.300   2.299   4.701 -1.2916 -2.5598  2.1491
  995MOL0     H34270   7.234   2.208   4.929  0.8871 -1.3104 -3.2921
  995MOL0     H34271   7.250   2.366   5.003  0.0689 -2.0997  0.0199
  995MOL0     H34272   7.035   2.266   4.813 -0.1871  0.9220 -0.8532
  995MOL0     H34273   7.017   2.330   4.985  0.8570  2.8549  0.6942
  995MOL0     H34274   7.059   2.492   4.735 -2.8737  3.4739 -0.7109
  995MOL0     H34275   7.103   2.541   4.897  1.0243 -1.0294  0.0726
  995MOL0     H34276   6.785   2.354   4.753  1.3771  2.3859 -2.5763
  995MOL0     H34277   6.506   2.414   4.925  1.3963 -0.3694 -0.4303
  995MOL0     H34278   6.495   2.592   4.910  1.8937  0.5828 -1.3500
  995MOL0     H34279   6.489   2.402   4.679  0.9530  1.1483 -1.3203
  995MOL0     H34280   6.490   2.571   4.645 -0.9825 -0.7612 -1.5060
  995MOL0     H34281   6.295   2.443   4.819 -2.9113  0.0232  0.3745
  995MOL0     H34282   6.275   2.491   4.638 -0.1049 -1.0268  0.7905
  995MOL0     H34283   6.291   2.714   4.684 -0.0946 -1.0440 -0.0021
  995MOL0     H34284   6.308   2.696   4.857 -1.2663 -1.8018  1.0032
  995MOL0     H34285   6.176   2.697   4.512 -0.7850  1.4774 -0.3621
  995MOL0     H34286   6.143   2.718   4.285  0.7352  1.3914  0.0120
  995MOL0     H34287   5.991   2.648   4.221  0.0645 -0.4066  1.4966
  995MOL0     H34288   5.997   2.822   4.273 -0.2729 -0.3626 -0.0947
  995MOL0     H34289   5.651   2.560   4.043 -0.3525 -0.4653 -0.5147
  995MOL0     H34290   5.440   2.613   3.925 -1.1968  1.0358 -0.4084
  995MOL0     H34291   5.349   2.812   3.767 -0.1101  0.2630  0.1042
  995MOL0     H34292   5.265   2.676   3.837  1.8440 -0.4116 -2.7349
  995MOL0     H34293   5.129   2.953   3.776 -1.9863  1.0433 -4.0214
  995MOL0     H34294   5.132   2.836   3.656  0.3772  3.1702 -0.1425
  995MOL0     H34295   5.026   2.816   3.936  0.6618  0.4819 -0.4860
  995MOL0     H34296   5.015   2.671   3.831  0.9345  0.0578 -2.3030
  995MOL0     H34297   4.872   2.943   3.784 -2.1084  0.3628 -0.2289
  995MOL0     H34298   4.864   2.789   3.684  1.2866 -0.6651  0.4109
  995MOL0     H34299   4.681   2.865   3.871  0.6886  1.2050 -1.9400
  995MOL0     H34300   4.795   2.775   3.979 -1.9882 -1.2010  0.4899
  995MOL0     H34301   4.712   2.635   3.723  2.8693 -0.0042 -0.5555
  995MOL0     H34302   4.798   2.575   3.861  1.3021  1.5350  1.1809
  995MOL0     H34303   4.496   2.616   3.830  0.8449  0.6317 -0.2337
  995MOL0     H34304   4.562   2.669   3.977  1.0403  2.1443 -1.9201
  995MOL0     H34305   4.635   2.387   3.888  1.9885  2.2171 -0.6496
  995MOL0     H34306   4.472   2.432   3.953  0.4582  2.5969 -1.3188
  995MOL0     H34307   5.430   2.989   4.148  2.6888  0.7581 -0.3347
  995MOL0     H34308   5.619   2.922   4.266  1.2111  0.9680 -1.0588
  995MOL0     H34309   5.714   2.594   4.609 -0.3963 -0.9173  0.0442
  995MOL0     H34310   5.875   2.601   4.785 -2.8655  4.5288  1.0256
  995MOL0     H34311   7.970   2.466   4.486 -1.8524 -1.2637  1.6050
  995MOL0     H34312   8.188   2.508   4.380 -0.3605 -0.8423 -0.5626
  995MOL0     H34313   8.624   2.386   4.347  2.3415 -2.2283  0.6009
  995MOL0     H34314   8.845   2.401   4.261 -1.0625 -1.5968  1.5457
  995MOL0     H34315   9.066   2.736   4.260 -0.8291  1.3007  3.3612
  995MOL0     H34316   9.120   2.720   4.415 -0.4743  2.3323 -0.7892
  995MOL0     H34317   9.329   2.706   4.299  1.0435  0.3366  0.7152
  995MOL0     H34318   9.251   2.588   4.188 -0.6595 -0.7532 -0.1549
  995MOL0     H34319   9.420   2.482   4.338 -0.1944 -3.5094  0.8529
  995MOL0     H34320   9.264   2.417   4.338  1.4378 -0.2017 -1.2117
  995MOL0     H34321   9.357   2.421   4.553  0.5296 -0.4553 -3.1623
  995MOL0     H34322   9.211   2.526   4.567 -0.3027 -1.7125  0.9417
  995MOL0     H34323   9.505   2.815   4.652 -2.2163  1.7295 -1.5055
  995MOL0     H34324   8.901   2.778   4.476 -1.7151  0.2086  2.7968
  995MOL0     H34325   8.678   2.767   4.544  0.5946 -0.5065 -0.6214
  996MOL0     O34326  11.009  10.544   4.879 -0.0787  0.1255 -0.9441
  996MOL0     C34327  11.052  10.428   4.857 -0.3741 -0.8064  0.8388
  996MOL0     O34328  10.978  10.320   4.804 -0.3378 -0.3474  0.4773
  996MOL0     C34329  10.848  10.322   4.834  0.8439 -0.0301  0.9524
  996MOL0     C34330  10.802  10.338   4.961 -0.5679 -0.0296 -0.1565
  996MOL0     C34331  10.667  10.331   4.994 -1.1125  0.0966  0.2120
  996MOL0     C34332  10.574  10.295   4.904  0.7207  0.5317 -0.3234
  996MOL0     O34333  10.441  10.282   4.954 -0.1938  0.3908 -0.0195
  996MOL0     C34334  10.331  10.257   4.860  0.2416 -0.0032 -0.4543
  996MOL0     C34335  10.200  10.306   4.929  0.2662 -0.2768 -0.3990
  996MOL0     C34336  10.074  10.247   4.858  0.4825 -0.4894 -0.2570
  996MOL0     C34337   9.959  10.258   4.966  0.3383 -0.3908  0.7307
  996MOL0     C34338   9.814  10.238   4.923 -0.0220  0.1261  0.3410
  996MOL0     C34339   9.714  10.256   5.036  0.4157 -0.5097 -0.9335
  996MOL0     C34340   9.570  10.260   4.970  0.0361  0.0328  0.2078
  996MOL0     C34341   9.513  10.125   4.936  0.3115  0.4143  0.7388
  996MOL0     N34342   9.369  10.146   4.918 -0.1221  0.0501  0.2596
  996MOL0     C34343   9.276  10.180   5.018 -0.5406  0.1442  0.3137
  996MOL0     C34344   9.166  10.230   4.954 -0.5119 -0.7372 -1.0872
  996MOL0     C34345   9.051  10.271   5.031 -0.1492  0.0618 -0.1245
  996MOL0     C34346   8.952  10.155   5.072 -0.3622 -0.1398 -0.3437
  996MOL0     C34347   8.933  10.035   4.977 -1.6432  0.1222  0.3194
  996MOL0     C34348   8.826   9.933   5.015 -1.0614  0.1649 -0.4884
  996MOL0     O34349   8.704   9.989   4.970 -0.3528  0.3976 -0.3025
  996MOL0     C34350   8.588   9.944   5.020  0.2973  0.7216  0.6522
  996MOL0     C34351   8.581   9.848   5.125  0.7679 -0.0459  0.5272
  996MOL0     C34352   8.457   9.788   5.152  0.8945 -0.4126 -0.4476
  996MOL0     C34353   8.472   9.672   5.256 -0.0791 -0.1963 -0.0506
  996MOL0     C34354   8.332   9.832   5.092  0.0202  0.9442  0.0684
  996MOL0     C34355   8.203   9.778   5.128 -0.2129 -0.6283  0.1730
  996MOL0     O34356   8.091   9.839   5.088  0.1459  0.2200  0.2674
  996MOL0     C34357   7.967   9.794   5.117 -0.0569  0.2562  0.5444
  996MOL0     C34358   7.872   9.790   5.016  0.1585  0.3619  0.1410
  996MOL0     C34359   7.753   9.721   5.041  0.0134 -0.4095  1.1630
  996MOL0     C34360   7.723   9.668   5.163 -0.0392  0.5471 -0.6841
  996MOL0     O34361   7.598   9.601   5.174  0.7423 -0.3148 -0.1981
  996MOL0     C34362   7.524   9.641   5.295  0.9102  0.4022  0.6299
  996MOL0     C34363   7.371   9.632   5.285 -1.0708  0.3112  0.6054
  996MOL0     C34364   7.289   9.709   5.393  0.0336 -0.2648  0.5281
  996MOL0     C34365   7.136   9.679   5.388  0.5318  0.6360  0.1715
  996MOL0     C34366   7.056   9.773   5.473 -0.1612  0.5174 -0.0106
  996MOL0     C34367   6.901   9.763   5.464 -0.0735 -0.3165  0.1521
  996MOL0     C34368   6.851   9.621   5.505 -0.3326  0.6764  0.5305
  996MOL0     C34369   6.701   9.616   5.476  0.7097 -0.0632 -0.3165
  996MOL0    Cl34370   6.652   9.646   5.308 -0.2196  0.4807 -0.4002
  996MOL0     C34371   7.814   9.692   5.276 -0.4068 -0.1831  0.4348
  996MOL0     C34372   7.934   9.751   5.244 -0.6846 -0.1762  0.1249
  996MOL0     O34373   8.205   9.672   5.193 -0.9394 -0.2419 -0.3372
  996MOL0     C34374   8.344   9.929   4.998  0.8289 -0.8594  0.2200
  996MOL0     C34375   8.466   9.991   4.965 -0.0751 -0.8685  0.0294
  996MOL0     N34376   9.204  10.245   4.821 -0.5586 -0.0787 -0.3336
  996MOL0     N34377   9.312  10.180   4.794 -0.1406  0.1896  0.0469
  996MOL0     C34378  10.620  10.276   4.772  0.3165 -0.3982  0.0999
  996MOL0     C34379  10.753  10.293   4.738 -0.5252  0.0209  0.6302
  996MOL0     C34380  11.202  10.417   4.890  0.3326  0.0094 -0.0016
  996MOL0     C34381  11.280  10.521   4.928  0.1603  0.7625 -0.3229
  996MOL0     C34382  11.412  10.498   4.954  0.1906  0.1328 -1.1962
  996MOL0     C34383  11.481  10.383   4.939 -1.1853  0.2310 -0.3454
  996MOL0     O34384  11.612  10.386   4.976  0.7779  0.1100 -0.4658
  996MOL0     C34385  11.692  10.275   4.950 -0.2163  0.3386 -1.6955
  996MOL0     C34386  11.737  10.247   4.800  0.2885  0.0141 -0.1437
  996MOL0     C34387  11.830  10.122   4.788  0.6143  0.6976  0.6785
  996MOL0     C34388  11.839  10.063   4.649 -0.4416  0.2235 -1.0399
  996MOL0     C34389  11.940   9.951   4.652 -0.2226 -0.8224 -0.2744
  996MOL0     C34390  12.030   9.872   4.651  0.5038  0.0340 -0.4994
  996MOL0     C34391  11.399  10.277   4.902 -0.3805 -0.4631 -0.0489
  996MOL0     C34392  11.260  10.290   4.879 -0.5126 -0.1696  0.3576
  996MOL0     H34393  10.856  10.364   5.051  1.2835  2.7411 -1.9084
  996MOL0     H34394  10.635  10.342   5.097  0.2754  2.6168  0.4485
  996MOL0     H34395  10.352  10.317   4.771  1.5809  0.4414  0.1349
  996MOL0     H34396  10.319  10.152   4.834  0.3642  0.2626 -1.6401
  996MOL0     H34397  10.202  10.270   5.032  0.1620  0.7075 -0.0385
  996MOL0     H34398  10.187  10.415   4.928  0.1664 -0.2889 -0.3866
  996MOL0     H34399  10.057  10.307   4.768 -0.3479  1.3452  1.0671
  996MOL0     H34400  10.080  10.141   4.833 -0.1338 -0.8971  1.2219
  996MOL0     H34401   9.980  10.175   5.033  0.5681 -1.8006 -1.0103
  996MOL0     H34402   9.971  10.356   5.013 -0.7393  0.2193 -0.2188
  996MOL0     H34403   9.784  10.309   4.845 -0.2009 -1.0965 -0.7446
  996MOL0     H34404   9.804  10.140   4.875 -1.0127  0.3803 -0.0018
  996MOL0     H34405   9.715  10.180   5.115 -3.2634 -0.6184 -0.8382
  996MOL0     H34406   9.736  10.353   5.083  0.9890 -1.2928  0.4988
  996MOL0     H34407   9.517  10.312   5.050  2.6069  0.2536  1.8603
  996MOL0     H34408   9.571  10.327   4.883  2.5747  0.5743  0.5831
  996MOL0     H34409   9.516  10.052   5.018  1.1267 -2.6581 -1.8031
  996MOL0     H34410   9.561  10.094   4.842 -2.1951 -1.4918 -0.0406
  996MOL0     H34411   9.302  10.169   5.123 -1.4932 -0.1414  0.5199
  996MOL0     H34412   9.088  10.318   5.122 -0.2993  0.6638 -0.3686
  996MOL0     H34413   9.003  10.351   4.974 -0.2360  0.3829  0.3980
  996MOL0     H34414   8.854  10.203   5.082 -0.1189  0.1992  0.5031
  996MOL0     H34415   8.979  10.116   5.171 -0.0238  1.8837  0.4127
  996MOL0     H34416   9.023   9.974   4.964 -0.9893  0.4351  2.8604
  996MOL0     H34417   8.920  10.086   4.881  3.7778  0.9447 -0.3031
  996MOL0     H34418   8.821   9.928   5.124 -1.0866 -1.8841 -0.5595
  996MOL0     H34419   8.847   9.833   4.977 -0.3934 -0.1774  0.7138
  996MOL0     H34420   8.663   9.805   5.181 -0.8218 -2.6510  1.0510
  996MOL0     H34421   8.452   9.576   5.208  0.0703  0.0771 -0.6656
  996MOL0     H34422   8.573   9.667   5.297  1.2964  3.8365 -2.3802
  996MOL0     H34423   8.409   9.687   5.345  0.4608  0.9570  0.1577
  996MOL0     H34424   7.891   9.836   4.919 -0.6101 -1.7687 -1.0909
  996MOL0     H34425   7.685   9.702   4.958 -0.0575 -2.5632  1.6682
  996MOL0     H34426   7.557   9.573   5.373  4.3015  1.0852 -0.0520
  996MOL0     H34427   7.536   9.746   5.324  1.7175  1.1657 -2.1740
  996MOL0     H34428   7.334   9.657   5.185 -0.8397 -1.5436  0.0092
  996MOL0     H34429   7.341   9.528   5.300 -2.7031  0.7213  0.3804
  996MOL0     H34430   7.300   9.816   5.374  1.0641 -0.6824 -1.4202
  996MOL0     H34431   7.324   9.673   5.491  0.2441 -2.6761 -0.3846
  996MOL0     H34432   7.098   9.675   5.285  0.2454 -0.2733  0.3041
  996MOL0     H34433   7.128   9.578   5.431  0.2819  1.1499  1.3703
  996MOL0     H34434   7.084   9.875   5.447 -2.8373  1.1788 -0.6069
  996MOL0     H34435   7.073   9.758   5.580 -0.3418  2.7459  0.3879
  996MOL0     H34436   6.847   9.830   5.533 -0.7570 -2.3593  1.6976
  996MOL0     H34437   6.873   9.792   5.362  1.1232  0.8858  0.1458
  996MOL0     H34438   6.872   9.600   5.611  4.3165 -2.0290 -0.6303
  996MOL0     H34439   6.898   9.544   5.444 -1.3411 -0.3334  0.9881
  996MOL0     H34440   6.642   9.680   5.543  3.1312 -0.9418  2.8896
  996MOL0     H34441   6.671   9.516   5.509  1.2268  0.0747  0.6014
  996MOL0     H34442   7.784   9.667   5.377 -0.4405  0.2511  0.5321
  996MOL0     H34443   8.015   9.755   5.316 -1.0536  2.8068  0.5004
  996MOL0     H34444   8.253   9.962   4.947  0.1254 -3.2358 -0.1876
  996MOL0     H34445   8.465  10.072   4.893  1.9700 -1.5661 -0.8618
  996MOL0     H34446  10.544  10.261   4.696 -0.5658  1.1959  0.6190
  996MOL0     H34447  10.789  10.285   4.636 -0.9450  1.9343  0.3081
  996MOL0     H34448  11.238  10.621   4.931  1.6673  1.4321 -0.7688
  996MOL0     H34449  11.474  10.584   4.977  1.2126 -1.0196  0.5594
  996MOL0     H34450  11.785  10.282   5.008 -0.7312  1.3299 -0.9713
  996MOL0     H34451  11.631  10.195   4.993  1.2209  0.7629  1.3684
  996MOL0     H34452  11.779  10.339   4.759  0.2820  0.0567 -0.0573
  996MOL0     H34453  11.641  10.233   4.748  0.6112  2.4903 -1.5557
  996MOL0     H34454  11.792  10.043   4.853  1.5636  0.3232  0.7800
  996MOL0     H34455  11.933  10.135   4.822  1.0595 -0.3550 -0.2093
  996MOL0     H34456  11.868  10.134   4.571  2.3981 -1.1503 -1.3737
  996MOL0     H34457  11.738  10.027   4.627 -0.6629  0.3742 -0.2964
  996MOL0     H34458  12.125   9.824   4.658  0.3258 -0.1911  0.6267
  996MOL0     H34459  11.429  10.173   4.890 -0.8812 -0.5026 -1.1933
  996MOL0     H34460  11.215  10.196   4.849  1.6213 -0.7590 -1.2667
  997MOL0     O34461   4.873  10.032   8.636 -0.3761 -0.4738  0.0272
  997MOL0     C34462   4.782   9.951   8.628  0.0207 -0.3375 -0.2888
  997MOL0     O34463   4.684   9.954   8.533 -0.5740 -0.5830 -0.0702
  997MOL0     C34464   4.672  10.051   8.432 -0.6570  0.6769  0.8960
  997MOL0     C34465   4.541  10.080   8.392 -0.2500 -0.5089 -0.8716
  997MOL0     C34466   4.511  10.179   8.303  0.0643  0.2390  0.9286
  997MOL0     C34467   4.611  10.249   8.244  0.2265  0.2100 -0.9786
  997MOL0     O34468   4.562  10.361   8.182  0.1170 -0.9471  0.2646
  997MOL0     C34469   4.636  10.432   8.085  0.0963 -0.1498  0.2540
  997MOL0     C34470   4.563  10.554   8.025  0.1890  0.4776  0.0685
  997MOL0     C34471   4.423  10.517   7.977  0.4264 -0.6598  0.4816
  997MOL0     C34472   4.358  10.657   7.955  0.7662 -0.2007  0.5453
  997MOL0     C34473   4.210  10.664   7.910 -0.2773 -0.0132  0.2571
  997MOL0     C34474   4.160  10.810   7.907  0.2305  0.2276  0.3526
  997MOL0     C34475   4.059  10.804   7.797  0.1046 -0.4291 -0.2000
  997MOL0     C34476   3.923  10.772   7.851  0.1965  0.3476 -0.6371
  997MOL0     N34477   3.817  10.819   7.761 -0.3547 -0.1834 -0.5780
  997MOL0     C34478   3.741  10.941   7.777  0.1851 -0.1572 -0.4984
  997MOL0     C34479   3.647  10.923   7.682 -0.1268  0.0501  0.2636
  997MOL0     C34480   3.538  11.020   7.657  0.3761 -0.1939 -0.4327
  997MOL0     C34481   3.399  10.968   7.639 -0.9107  0.3429 -0.0674
  997MOL0     C34482   3.371  10.926   7.491  0.2571 -0.6057 -0.5646
  997MOL0     C34483   3.229  10.949   7.455  0.2142  0.0559  0.1663
  997MOL0     O34484   3.136  10.877   7.546 -0.5297 -0.0261 -0.0277
  997MOL0     C34485   3.013  10.936   7.578 -0.5021 -0.3815  0.7929
  997MOL0     C34486   2.918  10.847   7.625  0.2052 -0.4227  1.1937
  997MOL0     C34487   2.784  10.884   7.648  0.2654 -0.6227  0.4049
  997MOL0     C34488   2.684  10.785   7.696 -0.5405 -0.4905  0.0599
  997MOL0     C34489   2.742  11.014   7.615 -0.0794 -0.2254 -0.5498
  997MOL0     C34490   2.603  11.059   7.617  0.2905 -0.1050  0.5335
  997MOL0     O34491   2.541  11.018   7.502 -0.0962 -0.1132  0.4723
  997MOL0     C34492   2.402  11.009   7.521 -0.5936 -0.6991 -0.3841
  997MOL0     C34493   2.307  11.084   7.453  0.1369  0.6795  0.1765
  997MOL0     C34494   2.169  11.059   7.468 -0.5445  0.1367 -0.7044
  997MOL0     C34495   2.132  10.953   7.551 -0.0958 -0.4342  0.6672
  997MOL0     O34496   1.997  10.934   7.555  0.2414  0.7354 -0.6430
  997MOL0     C34497   1.948  10.857   7.667  0.3810  0.0649  0.7440
  997MOL0     C34498   1.807  10.917   7.706 -0.5539 -0.1643 -0.9710
  997MOL0     C34499   1.694  10.860   7.627  0.2445  0.2966  0.5923
  997MOL0     C34500   1.556  10.898   7.683  0.2448 -0.3242 -0.1055
  997MOL0     C34501   1.451  10.823   7.611  1.7012  0.8325  0.1459
  997MOL0     C34502   1.319  10.903   7.627  0.9690 -0.4491 -0.0365
  997MOL0     C34503   1.198  10.821   7.586 -0.2049  0.4211 -0.1611
  997MOL0     C34504   1.067  10.880   7.633  0.3512 -0.1399 -0.0577
  997MOL0    Cl34505   1.033  11.041   7.556  0.3493 -0.0497  0.0181
  997MOL0     C34506   2.224  10.870   7.607  0.4213  0.3602  0.0035
  997MOL0     C34507   2.355  10.907   7.601 -0.0362 -0.0017 -0.6171
  997MOL0     O34508   2.555  11.119   7.712  0.1827 -0.4182  0.1235
  997MOL0     C34509   2.843  11.103   7.594  0.7721  0.0855 -0.9603
  997MOL0     C34510   2.968  11.068   7.576 -0.3964  0.0332  0.0060
  997MOL0     N34511   3.662  10.804   7.612  0.1654 -0.7599  0.3313
  997MOL0     N34512   3.769  10.742   7.658  0.7299 -0.7422  0.9749
  997MOL0     C34513   4.746  10.218   8.275 -0.2365  0.5621 -0.2242
  997MOL0     C34514   4.780  10.121   8.379  0.3015  0.3940  0.0874
  997MOL0     C34515   4.765   9.835   8.725  0.4510 -0.1974  0.0361
  997MOL0     C34516   4.881   9.785   8.783 -0.0349  0.1644  0.3715
  997MOL0     C34517   4.879   9.694   8.879 -0.1039  0.2534 -0.7244
  997MOL0     C34518   4.764   9.629   8.917  0.7947  0.2503 -0.0091
  997MOL0     O34519   4.775   9.548   9.032  0.3159 -0.4416  0.1484
  997MOL0     C34520   4.745   9.412   9.005  1.0896  0.6369  0.8180
  997MOL0     C34521   4.860   9.334   8.939 -0.1458  0.2696  0.8006
  997MOL0     C34522   4.868   9.355   8.788  0.1486 -0.8299 -0.0802
  997MOL0     C34523   4.967   9.257   8.718  1.0446  0.7345 -0.4146
  997MOL0     C34524   5.096   9.268   8.780 -0.6889  0.2410 -0.5031
  997MOL0     C34525   5.210   9.275   8.824 -0.8252  0.6775  0.2841
  997MOL0     C34526   4.645   9.669   8.861  0.5049 -0.2141 -0.7192
  997MOL0     C34527   4.644   9.771   8.763 -0.1105 -0.0199 -0.8020
  997MOL0     H34528   4.461  10.026   8.441 -2.5546  2.0758 -1.5073
  997MOL0     H34529   4.411  10.207   8.272  0.9543  2.1487 -0.4056
  997MOL0     H34530   4.735  10.468   8.118 -0.4697  1.9267 -0.1374
  997MOL0     H34531   4.638  10.355   8.008  2.7141 -0.3650  0.4326
  997MOL0     H34532   4.563  10.626   8.108  0.9802  0.6546 -0.0774
  997MOL0     H34533   4.632  10.585   7.946 -0.1555 -0.8864 -0.7793
  997MOL0     H34534   4.422  10.455   7.887 -2.1958 -1.8737  1.2565
  997MOL0     H34535   4.371  10.464   8.057  0.9176  0.2646  1.4475
  997MOL0     H34536   4.350  10.717   8.046 -0.7633 -0.5767  0.6788
  997MOL0     H34537   4.414  10.715   7.881 -3.1726  0.5819 -2.1452
  997MOL0     H34538   4.192  10.608   7.818  1.3733  0.1006 -0.1718
  997MOL0     H34539   4.149  10.606   7.980 -1.8449 -0.4885 -1.4469
  997MOL0     H34540   4.117  10.835   8.004 -2.5555 -1.0294 -0.4561
  997MOL0     H34541   4.239  10.882   7.883  0.4326  0.0232  0.4016
  997MOL0     H34542   4.049  10.902   7.750 -2.7244 -0.4836  0.1087
  997MOL0     H34543   4.069  10.728   7.719 -1.5202 -0.8272 -0.0619
  997MOL0     H34544   3.893  10.820   7.944 -1.3602 -1.3922 -0.1809
  997MOL0     H34545   3.912  10.665   7.869 -1.0203 -0.0821 -3.4427
  997MOL0     H34546   3.764  11.010   7.858 -1.8453  1.5682 -1.2982
  997MOL0     H34547   3.528  11.070   7.754 -3.8690 -0.1826 -0.6697
  997MOL0     H34548   3.569  11.087   7.575 -0.5995  0.5155 -0.2483
  997MOL0     H34549   3.326  11.044   7.671  0.4751  1.0249  1.6211
  997MOL0     H34550   3.381  10.884   7.706  0.2234 -0.7522 -1.1104
  997MOL0     H34551   3.405  10.823   7.474 -1.3924 -1.5408  1.3343
  997MOL0     H34552   3.430  10.997   7.433  1.7834  0.2584  1.8927
  997MOL0     H34553   3.208  10.902   7.358 -2.5275  2.2803 -0.4653
  997MOL0     H34554   3.198  11.052   7.437 -0.7001 -0.1970  0.1970
  997MOL0     H34555   2.946  10.747   7.656 -1.6476 -1.4713 -0.3287
  997MOL0     H34556   2.733  10.709   7.758  0.8199 -0.5275 -1.0078
  997MOL0     H34557   2.606  10.829   7.758 -2.3351 -0.3531 -2.1683
  997MOL0     H34558   2.642  10.724   7.616  1.0744  0.4754 -1.5997
  997MOL0     H34559   2.354  11.162   7.393 -0.9807 -0.1179 -1.8426
  997MOL0     H34560   2.096  11.120   7.415 -1.2605  0.0095  0.0972
  997MOL0     H34561   1.937  10.753   7.634 -0.6865  0.3819  0.0426
  997MOL0     H34562   2.016  10.862   7.753  2.6219 -2.0812 -0.7585
  997MOL0     H34563   1.795  10.885   7.810 -0.0549  1.6817 -0.3148
  997MOL0     H34564   1.806  11.026   7.699 -0.3512  0.0786  1.5764
  997MOL0     H34565   1.713  10.753   7.626 -1.2190 -0.0374  2.5333
  997MOL0     H34566   1.702  10.886   7.521  2.1712 -0.9725  0.3846
  997MOL0     H34567   1.549  10.874   7.790  0.5992 -0.5005 -0.1201
  997MOL0     H34568   1.540  11.006   7.678 -1.9236 -0.6512 -1.3502
  997MOL0     H34569   1.436  10.718   7.637 -3.3379  0.8435 -1.6182
  997MOL0     H34570   1.482  10.822   7.506 -3.3003 -1.2903 -1.6184
  997MOL0     H34571   1.306  10.930   7.733  0.8096  0.5662 -0.3072
  997MOL0     H34572   1.331  10.997   7.573 -3.3582 -1.2739 -2.8338
  997MOL0     H34573   1.203  10.719   7.626 -4.3351  0.4279  0.7975
  997MOL0     H34574   1.196  10.804   7.478  0.4975 -0.8938  0.0067
  997MOL0     H34575   1.056  10.892   7.742 -1.0280  0.8322 -0.2790
  997MOL0     H34576   0.982  10.813   7.616 -2.3932  2.9838  0.1260
  997MOL0     H34577   2.198  10.777   7.655  0.9324 -0.2872 -0.9526
  997MOL0     H34578   2.424  10.832   7.640 -1.8371 -0.8363  1.1741
  997MOL0     H34579   2.836  11.209   7.616  1.1536 -0.5871  2.9713
  997MOL0     H34580   3.048  11.139   7.559  0.3186 -0.8155 -0.2255
  997MOL0     H34581   4.831  10.274   8.236  0.9384 -2.0527 -1.6367
  997MOL0     H34582   4.885  10.104   8.402 -0.2316 -2.4328  0.8741
  997MOL0     H34583   4.977   9.831   8.760 -0.2423  0.5780  0.3158
  997MOL0     H34584   4.973   9.675   8.928 -0.1821  0.8805 -0.3209
  997MOL0     H34585   4.733   9.366   9.103  0.3868 -3.2139 -0.8906
  997MOL0     H34586   4.649   9.406   8.952  0.3618 -0.4876  2.1976
  997MOL0     H34587   4.853   9.226   8.959 -0.1771  0.2023  0.4488
  997MOL0     H34588   4.956   9.363   8.984 -0.0190 -0.1640  0.8187
  997MOL0     H34589   4.897   9.455   8.755 -2.9061  0.1593 -0.1562
  997MOL0     H34590   4.765   9.343   8.752 -0.0530  1.3672 -0.3687
  997MOL0     H34591   4.971   9.292   8.615 -1.1187  2.6394  0.0683
  997MOL0     H34592   4.935   9.153   8.722  2.1427  0.3859 -0.3440
  997MOL0     H34593   5.311   9.291   8.855 -0.8100  0.7982  0.1711
  997MOL0     H34594   4.559   9.614   8.896  1.3540 -0.9138  0.3266
  997MOL0     H34595   4.550   9.803   8.720 -1.0722 -0.8226  0.6193
  998MOL0     O34596   8.387   4.667   2.589  0.4870  0.2843  0.7956
  998MOL0     C34597   8.422   4.586   2.675  0.1713  1.0497  0.8142
  998MOL0     O34598   8.343   4.526   2.770  0.5095 -0.5174 -0.3269
  998MOL0     C34599   8.210   4.555   2.776  0.1030  0.0221 -0.0788
  998MOL0     C34600   8.126   4.566   2.662 -0.1650 -0.5378 -0.1959
  998MOL0     C34601   7.994   4.577   2.682  0.8852  0.1398 -0.4635
  998MOL0     C34602   7.934   4.570   2.818  0.0046  0.1206  0.4289
  998MOL0     O34603   7.803   4.581   2.842  0.4164 -0.3013 -0.2294
  998MOL0     C34604   7.722   4.694   2.780 -1.0334  0.0463  0.2183
  998MOL0     C34605   7.580   4.647   2.769  0.1163  0.3114  0.0963
  998MOL0     C34606   7.489   4.759   2.695 -1.0224 -0.3331 -0.8132
  998MOL0     C34607   7.348   4.701   2.704 -0.2007 -0.1805  0.2541
  998MOL0     C34608   7.249   4.789   2.632  0.3960  0.1262 -0.2611
  998MOL0     C34609   7.106   4.765   2.669 -0.1734  0.0322  0.6730
  998MOL0     C34610   7.042   4.667   2.578 -0.0279  0.3963  0.1317
  998MOL0     C34611   6.895   4.636   2.625  0.2030  0.2644 -1.3904
  998MOL0     N34612   6.814   4.580   2.516 -0.0824  0.5520 -0.3898
  998MOL0     C34613   6.709   4.638   2.455 -0.5269  0.6714 -0.1332
  998MOL0     C34614   6.652   4.534   2.388 -0.6022  0.5724  0.6126
  998MOL0     C34615   6.527   4.517   2.317 -0.7123 -0.8296 -0.0662
  998MOL0     C34616   6.428   4.630   2.341  0.4431  0.5530 -0.2423
  998MOL0     C34617   6.298   4.618   2.272  0.8029 -0.3132  0.0941
  998MOL0     C34618   6.187   4.726   2.309  0.4804  0.9420  0.3460
  998MOL0     O34619   6.046   4.677   2.280  0.0341  0.0762 -0.0194
  998MOL0     C34620   5.946   4.777   2.286 -0.8659 -0.1931  0.3886
  998MOL0     C34621   5.953   4.917   2.273 -0.2423  0.7986 -0.0244
  998MOL0     C34622   5.845   5.004   2.269  0.0022 -0.4211  1.3424
  998MOL0     C34623   5.880   5.146   2.226 -0.4868 -0.1245 -0.8377
  998MOL0     C34624   5.712   4.948   2.290 -0.5314 -0.2908  0.3790
  998MOL0     C34625   5.590   5.032   2.311 -0.4917  0.8438 -0.0646
  998MOL0     O34626   5.492   4.955   2.369 -0.2259 -0.0990 -0.1953
  998MOL0     C34627   5.367   4.998   2.418 -0.4956  0.7600  0.1892
  998MOL0     C34628   5.287   4.904   2.474  0.2635  0.5708 -0.6528
  998MOL0     C34629   5.158   4.932   2.511 -0.1550  0.2918 -1.0918
  998MOL0     C34630   5.109   5.063   2.509  0.6132 -0.5462 -0.9911
  998MOL0     O34631   4.986   5.101   2.554  0.4882 -0.1010  0.2162
  998MOL0     C34632   4.925   5.019   2.657 -0.7098  1.1263  0.1308
  998MOL0     C34633   4.787   5.078   2.698  0.3164 -0.0721 -0.5963
  998MOL0     C34634   4.720   4.990   2.790  0.3192  0.0414 -0.1599
  998MOL0     C34635   4.591   5.052   2.837 -0.4673  0.3873 -0.0263
  998MOL0     C34636   4.517   4.970   2.941  0.4646 -0.3609 -0.0015
  998MOL0     C34637   4.370   5.005   2.952 -0.5128  0.3606  0.3783
  998MOL0     C34638   4.355   5.157   2.991  0.6595  0.6160 -0.5984
  998MOL0     C34639   4.216   5.185   3.042  0.1872 -0.3169 -0.3118
  998MOL0    Cl34640   4.204   5.349   3.090  0.0929 -0.1498  0.0224
  998MOL0     C34641   5.181   5.156   2.432 -0.1893  0.1022  0.0704
  998MOL0     C34642   5.313   5.127   2.402  0.0727 -0.0701 -0.4190
  998MOL0     O34643   5.575   5.143   2.276  0.1718 -0.3220 -0.7359
  998MOL0     C34644   5.709   4.812   2.327  0.6490  0.4640 -0.0759
  998MOL0     C34645   5.820   4.723   2.315  0.0091 -1.0092 -1.7193
  998MOL0     N34646   6.728   4.422   2.403 -0.0591  0.5484 -0.6613
  998MOL0     N34647   6.824   4.448   2.487 -0.0575  0.3500 -1.0520
  998MOL0     C34648   8.017   4.554   2.928 -0.5339 -0.2613 -0.5817
  998MOL0     C34649   8.160   4.557   2.912  0.8067 -0.1429  0.4085
  998MOL0     C34650   8.558   4.531   2.662 -0.0807  0.3531 -0.3617
  998MOL0     C34651   8.623   4.527   2.539 -0.3049  0.1799  0.0882
  998MOL0     C34652   8.747   4.463   2.522  0.2725 -0.9917 -1.5335
  998MOL0     C34653   8.813   4.399   2.634 -0.2641  0.3699 -0.1299
  998MOL0     O34654   8.939   4.341   2.630  0.0574  0.6917  0.0302
  998MOL0     C34655   9.017   4.372   2.501  1.1352  0.1835 -0.1067
  998MOL0     C34656   9.162   4.345   2.517 -0.9867  0.4927  0.5956
  998MOL0     C34657   9.231   4.354   2.383  1.0456 -0.6684 -0.3466
  998MOL0     C34658   9.373   4.299   2.378 -1.3942 -0.4447  0.2095
  998MOL0     C34659   9.458   4.342   2.270 -0.3031 -0.3740 -0.3298
  998MOL0     C34660   9.532   4.381   2.187 -1.1907  0.6719  0.2097
  998MOL0     C34661   8.748   4.404   2.758  0.6614 -0.6936 -0.1374
  998MOL0     C34662   8.626   4.481   2.772  0.0145 -0.6750 -1.1675
  998MOL0     H34663   8.166   4.553   2.561 -0.2666  2.9722 -0.7973
  998MOL0     H34664   7.926   4.582   2.598 -1.7863 -0.5685  1.5078
  998MOL0     H34665   7.726   4.789   2.834  0.4943 -0.2170  0.6352
  998MOL0     H34666   7.778   4.714   2.688  3.8161 -3.0552  2.0857
  998MOL0     H34667   7.584   4.553   2.713  0.0795 -0.1647  0.8778
  998MOL0     H34668   7.553   4.624   2.872  1.0385  1.2073  0.5532
  998MOL0     H34669   7.491   4.856   2.745 -2.5667  1.0222 -3.1852
  998MOL0     H34670   7.515   4.779   2.590 -1.4280 -0.9143 -1.0294
  998MOL0     H34671   7.341   4.601   2.658  1.2818 -0.3572  0.3656
  998MOL0     H34672   7.320   4.699   2.809  0.2347  1.7292  0.4303
  998MOL0     H34673   7.275   4.891   2.662 -0.7773  0.8161 -1.4435
  998MOL0     H34674   7.263   4.792   2.523  1.3971  2.5536 -0.1245
  998MOL0     H34675   7.098   4.734   2.774 -0.3672  0.0057  0.6513
  998MOL0     H34676   7.054   4.858   2.642 -1.7964 -1.4287 -1.5885
  998MOL0     H34677   7.042   4.708   2.477  4.3127 -0.8178 -0.5609
  998MOL0     H34678   7.090   4.569   2.570 -0.2829  0.0068  2.4788
  998MOL0     H34679   6.847   4.727   2.661  0.3074 -0.6804  1.3827
  998MOL0     H34680   6.890   4.563   2.707 -0.2780  0.3992 -1.2925
  998MOL0     H34681   6.670   4.739   2.464  0.0698  1.0956 -1.9585
  998MOL0     H34682   6.563   4.520   2.213  4.9393 -2.1462  1.5263
  998MOL0     H34683   6.484   4.420   2.342 -1.6425  0.0241  1.9034
  998MOL0     H34684   6.469   4.724   2.303 -1.9734  1.0547 -1.8325
  998MOL0     H34685   6.409   4.626   2.448  2.0755  1.3784  0.1069
  998MOL0     H34686   6.273   4.512   2.285  1.3391 -0.4868 -0.2946
  998MOL0     H34687   6.305   4.641   2.165 -1.2076  2.4267  0.4297
  998MOL0     H34688   6.204   4.819   2.254  0.6349  1.2625  0.9274
  998MOL0     H34689   6.196   4.746   2.416 -0.1798  1.9144  0.2348
  998MOL0     H34690   6.055   4.955   2.273 -0.3111  0.9842  0.1903
  998MOL0     H34691   5.843   5.167   2.125  1.3835 -0.2116 -1.5752
  998MOL0     H34692   5.839   5.219   2.296 -1.4733 -1.8911  0.5157
  998MOL0     H34693   5.989   5.153   2.219 -0.2597 -2.4338 -0.4066
  998MOL0     H34694   5.323   4.803   2.486  1.0347  0.6610 -1.9605
  998MOL0     H34695   5.099   4.852   2.554  0.5910 -0.1481 -0.8743
  998MOL0     H34696   4.905   4.917   2.621  2.5345 -0.0095  1.1915
  998MOL0     H34697   4.985   5.003   2.747 -2.1870  0.5010  1.0590
  998MOL0     H34698   4.802   5.173   2.751 -1.5358  0.2596 -0.5660
  998MOL0     H34699   4.727   5.089   2.607 -2.2749 -2.4960  0.6423
  998MOL0     H34700   4.783   4.977   2.879  0.3199 -1.6014 -0.3611
  998MOL0     H34701   4.699   4.894   2.742  3.1412 -0.9593  0.4359
  998MOL0     H34702   4.611   5.149   2.884 -3.5932  0.8793  0.4984
  998MOL0     H34703   4.529   5.072   2.749  1.7410  1.1565 -1.5018
  998MOL0     H34704   4.574   4.965   3.034  3.3068 -0.0586 -1.6003
  998MOL0     H34705   4.525   4.868   2.902 -3.4659 -0.2154 -1.6735
  998MOL0     H34706   4.324   4.986   2.854  2.9884 -4.8031 -0.6380
  998MOL0     H34707   4.316   4.947   3.027  0.0168  0.6501  0.9877
  998MOL0     H34708   4.369   5.225   2.906 -0.3599  2.2811  0.5074
  998MOL0     H34709   4.431   5.179   3.066  1.2054 -2.3480 -0.1541
  998MOL0     H34710   4.187   5.111   3.117  4.1978  1.2421  3.1303
  998MOL0     H34711   4.145   5.182   2.958 -1.1013  0.2489  0.7312
  998MOL0     H34712   5.151   5.255   2.400  4.7099  2.8010  2.5426
  998MOL0     H34713   5.372   5.206   2.357  3.8429 -1.7640  1.1536
  998MOL0     H34714   5.613   4.772   2.357 -0.6430  0.9940 -3.1131
  998MOL0     H34715   5.805   4.618   2.337  0.2320 -1.4138 -3.3319
  998MOL0     H34716   7.971   4.553   3.026  0.5694 -0.1702 -0.0445
  998MOL0     H34717   8.225   4.552   2.998 -0.2075 -2.7935  1.1346
  998MOL0     H34718   8.572   4.573   2.455 -3.0027 -0.5420  1.2317
  998MOL0     H34719   8.781   4.443   2.421  2.2299  0.0181 -1.1364
  998MOL0     H34720   8.977   4.302   2.427 -0.0867 -2.4627  2.8282
  998MOL0     H34721   8.999   4.477   2.477  0.5716  0.7010  2.3138
  998MOL0     H34722   9.168   4.241   2.552 -2.8140  0.4933  0.9911
  998MOL0     H34723   9.204   4.409   2.595  0.5792 -1.3013  1.3118
  998MOL0     H34724   9.240   4.461   2.361  0.6765 -0.5182  0.2418
  998MOL0     H34725   9.168   4.307   2.307  0.0044 -1.1360  0.7910
  998MOL0     H34726   9.387   4.191   2.365  1.9994 -0.3581  1.9187
  998MOL0     H34727   9.422   4.318   2.474 -1.1981  1.7473 -0.2816
  998MOL0     H34728   9.605   4.416   2.117  0.4619  1.4896  2.2305
  998MOL0     H34729   8.800   4.358   2.841  1.5384  1.4229  0.5580
  998MOL0     H34730   8.581   4.501   2.869 -0.8126  1.4114 -1.9312
  999MOL0     O34731   2.956   3.950   5.951  0.4574 -0.4924  0.5096
  999MOL0     C34732   3.049   3.903   5.878  0.3328  0.3216 -0.8925
  999MOL0     O34733   3.041   3.881   5.744 -0.1259 -0.4330  0.2944
  999MOL0     C34734   2.927   3.878   5.672  0.2397  0.2173 -0.4052
  999MOL0     C34735   2.811   3.817   5.725  0.3307 -0.1786 -0.2625
  999MOL0     C34736   2.689   3.817   5.655 -0.2244 -0.6841  0.0952
  999MOL0     C34737   2.686   3.874   5.528 -0.5584 -0.7045 -1.4357
  999MOL0     O34738   2.580   3.879   5.448  0.1539 -0.2588 -0.3194
  999MOL0     C34739   2.463   3.905   5.520  0.8172 -0.4693  0.1593
  999MOL0     C34740   2.377   3.995   5.430 -0.3626  0.3030 -0.2955
  999MOL0     C34741   2.301   3.910   5.319 -0.6678  0.1673 -0.0776
  999MOL0     C34742   2.176   3.970   5.257 -0.1103 -0.7104  0.0398
  999MOL0     C34743   2.066   3.992   5.360 -0.1398  0.0913  0.3797
  999MOL0     C34744   1.933   4.031   5.294  0.1938  0.6449  0.2564
  999MOL0     C34745   1.808   4.016   5.390 -0.5641 -0.2781  0.4872
  999MOL0     C34746   1.686   4.098   5.333  0.5111 -0.2282  0.2321
  999MOL0     N34747   1.578   4.093   5.435  0.0016  0.3977 -0.0949
  999MOL0     C34748   1.569   4.165   5.550  0.1780 -0.6768 -0.3801
  999MOL0     C34749   1.439   4.162   5.577 -0.6703 -0.3228  0.0921
  999MOL0     C34750   1.372   4.245   5.691  0.0119 -0.5159 -0.2112
  999MOL0     C34751   1.469   4.275   5.805 -0.9458 -0.0894  0.1629
  999MOL0     C34752   1.395   4.315   5.927 -0.0697  0.0259 -0.7561
  999MOL0     C34753   1.358   4.460   5.939 -0.1235 -0.1509  0.0796
  999MOL0     O34754   1.256   4.498   5.838  0.1842  0.3067 -0.2522
  999MOL0     C34755   1.127   4.462   5.851 -0.8174  0.7072  0.1320
  999MOL0     C34756   1.066   4.403   5.969  0.0239 -0.5814  0.7096
  999MOL0     C34757   0.923   4.393   5.976  0.1209  0.9516 -0.0626
  999MOL0     C34758   0.862   4.353   6.118 -0.1812  0.2735  0.4053
  999MOL0     C34759   0.838   4.419   5.866  0.0273 -0.1804  0.4344
  999MOL0     C34760   0.690   4.393   5.872  0.2752  0.1829 -0.9378
  999MOL0     O34761   0.618   4.492   5.820  0.2120 -0.5585 -0.1686
  999MOL0     C34762   0.487   4.504   5.825 -0.3698  0.5571 -0.1592
  999MOL0     C34763   0.416   4.467   5.941  0.2961 -0.2527  0.2678
  999MOL0     C34764   0.277   4.484   5.953 -0.1284  0.4891 -0.2846
  999MOL0     C34765   0.207   4.540   5.845 -0.0850 -0.3762 -0.4403
  999MOL0     O34766   0.067   4.549   5.858  0.4254 -0.6500  0.3200
  999MOL0     C34767  -0.008   4.651   5.791  0.1487 -0.0131 -0.3770
  999MOL0     C34768  -0.147   4.602   5.759  0.4111 -0.3739 -0.5639
  999MOL0     C34769  -0.228   4.723   5.724  0.0103 -0.8665  0.1329
  999MOL0     C34770  -0.283   4.793   5.843 -0.2672 -0.1462 -0.8973
  999MOL0     C34771  -0.379   4.913   5.811 -0.5373  0.4313  0.2873
  999MOL0     C34772  -0.519   4.876   5.769  0.3464 -0.3805  0.9806
  999MOL0     C34773  -0.613   4.830   5.888 -0.4232  0.0458  0.3455
  999MOL0     C34774  -0.749   4.827   5.830 -0.1372  0.1913  0.5138
  999MOL0    Cl34775  -0.783   4.688   5.724 -0.1407  0.6179 -0.4155
  999MOL0     C34776   0.286   4.597   5.738 -0.4384  0.4132 -0.7904
  999MOL0     C34777   0.422   4.564   5.726  0.5427 -0.8466  0.6765
  999MOL0     O34778   0.652   4.281   5.906  0.7441 -0.3146  0.2746
  999MOL0     C34779   0.900   4.496   5.765  1.0330 -0.0947 -0.0767
  999MOL0     C34780   1.039   4.500   5.754  0.0845 -0.3965  0.2915
  999MOL0     N34781   1.374   4.095   5.479  0.4557  0.0989  0.3164
  999MOL0     N34782   1.453   4.041   5.398 -0.5656  0.2011  0.2389
  999MOL0     C34783   2.803   3.931   5.475  0.2133 -0.6194 -0.3586
  999MOL0     C34784   2.919   3.933   5.543  0.2966  0.1003 -0.0344
  999MOL0     C34785   3.177   3.877   5.952  0.2249 -0.4883 -0.2177
  999MOL0     C34786   3.187   3.872   6.089  0.6210 -0.7449 -0.5573
  999MOL0     C34787   3.309   3.835   6.151  1.2028  0.2971 -0.8163
  999MOL0     C34788   3.418   3.801   6.074 -0.1389 -0.9163 -0.4889
  999MOL0     O34789   3.531   3.766   6.148 -0.7275 -0.1487 -0.5160
  999MOL0     C34790   3.636   3.688   6.089 -0.8572  0.1262  0.1083
  999MOL0     C34791   3.781   3.729   6.123  0.3511 -0.0104  0.2451
  999MOL0     C34792   3.829   3.844   6.038  0.5195  0.4372  0.1837
  999MOL0     C34793   3.967   3.890   6.085  0.6456  0.2315  0.2081
  999MOL0     C34794   4.061   3.793   6.034  0.0256  0.2002  0.2937
  999MOL0     C34795   4.136   3.704   5.998 -0.3759 -0.2905 -0.3768
  999MOL0     C34796   3.414   3.826   5.937 -0.2206  0.2460 -0.5775
  999MOL0     C34797   3.292   3.853   5.885 -0.1656 -0.4245  0.5017
  999MOL0     H34798   2.810   3.783   5.829 -2.1303  2.9388  0.9061
  999MOL0     H34799   2.596   3.787   5.703  1.1352 -0.3375  3.1820
  999MOL0     H34800   2.401   3.817   5.538  0.2269 -0.1364 -0.2414
  999MOL0     H34801   2.485   3.963   5.611  1.9200 -3.2900  1.8367
  999MOL0     H34802   2.308   4.046   5.498 -0.9999  0.2782 -0.9219
  999MOL0     H34803   2.444   4.069   5.384  0.9213  0.9350  2.3790
  999MOL0     H34804   2.378   3.884   5.246 -0.6478 -0.6035  0.2160
  999MOL0     H34805   2.251   3.823   5.361 -0.8779 -0.1870 -1.0504
  999MOL0     H34806   2.196   4.065   5.208  0.8257 -0.6085  0.5928
  999MOL0     H34807   2.133   3.911   5.176  0.0948 -0.1424 -0.4894
  999MOL0     H34808   2.050   3.891   5.399  0.3661 -0.8151 -1.6652
  999MOL0     H34809   2.092   4.063   5.439  0.2849  0.6356 -0.2385
  999MOL0     H34810   1.943   4.126   5.243  0.4009 -0.1621 -1.2470
  999MOL0     H34811   1.912   3.968   5.207 -0.8626  1.9188 -0.4373
  999MOL0     H34812   1.786   3.910   5.407 -2.2642  0.1037  0.8271
  999MOL0     H34813   1.837   4.051   5.489  1.0013 -1.5361  0.5207
  999MOL0     H34814   1.653   4.060   5.236 -1.5757  3.8828 -0.8939
  999MOL0     H34815   1.716   4.203   5.331  0.6193 -0.2630  0.0364
  999MOL0     H34816   1.643   4.227   5.599 -0.1109 -0.7265  0.1276
  999MOL0     H34817   1.339   4.342   5.652 -2.1235 -0.7898  0.7842
  999MOL0     H34818   1.282   4.192   5.723  0.0074 -0.3931 -0.0246
  999MOL0     H34819   1.536   4.358   5.778  2.8831 -3.5228 -2.0593
  999MOL0     H34820   1.537   4.191   5.821 -0.8485 -0.9191 -3.6162
  999MOL0     H34821   1.454   4.289   6.016 -0.8638  2.0119  0.4281
  999MOL0     H34822   1.312   4.244   5.932  1.9168 -2.3862  2.6175
  999MOL0     H34823   1.452   4.515   5.937  0.1907 -0.6933 -0.2610
  999MOL0     H34824   1.311   4.480   6.036  0.6194 -1.3264  0.7005
  999MOL0     H34825   1.125   4.382   6.058  2.1949  0.3940 -0.4179
  999MOL0     H34826   0.813   4.255   6.113  0.7180 -0.2488  1.4023
  999MOL0     H34827   0.943   4.342   6.190  0.2366  5.5605  1.1033
  999MOL0     H34828   0.784   4.419   6.157  0.0553  0.1712  1.0522
  999MOL0     H34829   0.466   4.435   6.032 -1.7889 -0.8748  1.2521
  999MOL0     H34830   0.220   4.452   6.039 -0.3211 -3.2291 -1.6278
  999MOL0     H34831  -0.008   4.736   5.860 -1.3132 -0.1218 -0.2104
  999MOL0     H34832   0.045   4.670   5.697 -0.9506  0.0157 -1.0114
  999MOL0     H34833  -0.140   4.534   5.674  1.3005  0.8984 -1.5438
  999MOL0     H34834  -0.190   4.551   5.847 -0.9551  2.2446  0.4106
  999MOL0     H34835  -0.311   4.687   5.662  0.1720 -0.0058 -0.5968
  999MOL0     H34836  -0.165   4.795   5.671  2.0018 -3.2417 -0.9383
  999MOL0     H34837  -0.338   4.723   5.907  2.6069 -2.2986 -0.5925
  999MOL0     H34838  -0.203   4.846   5.894  2.4152 -1.1235 -3.7499
  999MOL0     H34839  -0.330   4.966   5.728 -0.9837  1.5001  0.6874
  999MOL0     H34840  -0.381   4.985   5.894 -1.8420 -0.4845  1.0834
  999MOL0     H34841  -0.553   4.969   5.722 -3.4588  0.8619  5.3472
  999MOL0     H34842  -0.516   4.802   5.689 -2.4643  2.1525 -1.7497
  999MOL0     H34843  -0.610   4.898   5.973 -1.2474 -0.0957  0.4911
  999MOL0     H34844  -0.593   4.726   5.915  0.7483  0.0469 -0.4081
  999MOL0     H34845  -0.766   4.917   5.770 -2.0076 -0.1340  0.5038
  999MOL0     H34846  -0.817   4.826   5.915  1.0173 -0.8809  1.4635
  999MOL0     H34847   0.246   4.655   5.656 -0.5708 -0.5189 -1.4113
  999MOL0     H34848   0.482   4.603   5.644  0.8745  1.3960  1.8960
  999MOL0     H34849   0.845   4.526   5.676  1.5242 -0.8332 -0.6477
  999MOL0     H34850   1.072   4.542   5.659 -1.6164 -1.0742 -0.6301
  999MOL0     H34851   2.814   3.957   5.370  2.3641  2.0276  0.4025
  999MOL0     H34852   3.009   3.961   5.489 -1.4277  1.2310 -2.5056
  999MOL0     H34853   3.097   3.876   6.150  0.8309 -2.3647 -0.0991
  999MOL0     H34854   3.322   3.834   6.259  1.5409  2.2671 -0.7983
  999MOL0     H34855   3.631   3.584   6.122  1.8609 -0.2527 -0.4045
  999MOL0     H34856   3.634   3.687   5.980 -0.2881 -3.3659  0.0382
  999MOL0     H34857   3.843   3.640   6.115  0.3921 -0.1685  1.9199
  999MOL0     H34858   3.781   3.763   6.228 -0.7192  1.8357 -0.2971
  999MOL0     H34859   3.769   3.927   6.076  0.5671  0.3956  0.3452
  999MOL0     H34860   3.806   3.826   5.932 -2.3136 -0.0212  0.8145
  999MOL0     H34861   3.964   3.897   6.194  0.7064  0.2493  0.2086
  999MOL0     H34862   4.004   3.987   6.048  1.8491 -0.7507 -1.3106
  999MOL0     H34863   4.210   3.634   5.966  0.7239  0.4892  0.3870
  999MOL0     H34864   3.503   3.823   5.875  1.7276  0.7811  2.0201
  999MOL0     H34865   3.286   3.842   5.777  0.5774 -0.0325  0.4140
 1000MOL0     O34866   7.260   2.220   1.481 -0.0193 -0.1357  0.5111
 1000MOL0     C34867   7.299   2.215   1.362  0.0129  0.0441 -0.4411
 1000MOL0     O34868   7.224   2.164   1.262 -0.6561  1.0542 -0.1571
 1000MOL0     C34869   7.099   2.121   1.274  0.8030 -0.0530 -0.7019
 1000MOL0     C34870   7.051   2.001   1.233 -0.5684  0.0550 -0.1103
 1000MOL0     C34871   6.919   1.959   1.241 -0.2229  0.3845 -0.2082
 1000MOL0     C34872   6.816   2.041   1.298 -0.1136  0.0672  0.1685
 1000MOL0     O34873   6.689   1.996   1.295  0.0477 -0.6256 -0.3587
 1000MOL0     C34874   6.606   2.044   1.408  1.1867 -0.4944  0.1902
 1000MOL0     C34875   6.497   1.944   1.430 -0.3174 -0.7700  0.4612
 1000MOL0     C34876   6.397   1.955   1.305 -0.1643 -1.3219  0.0831
 1000MOL0     C34877   6.259   1.906   1.341  0.0043 -0.8009  0.5749
 1000MOL0     C34878   6.166   1.902   1.219  0.3471 -1.0305 -0.1668
 1000MOL0     C34879   6.041   1.821   1.250  0.0359 -0.5265  0.4100
 1000MOL0     C34880   5.928   1.915   1.280  0.1744 -0.5021 -0.1804
 1000MOL0     C34881   5.862   1.973   1.148  0.0495  0.3380  0.1046
 1000MOL0     N34882   5.719   2.014   1.173 -0.0375 -0.3469 -0.1716
 1000MOL0     C34883   5.612   1.927   1.205 -0.4823 -0.5131 -0.6390
 1000MOL0     C34884   5.502   2.005   1.175  0.2709 -0.3901  0.1137
 1000MOL0     C34885   5.363   1.972   1.158  0.3326  0.1374  0.1897
 1000MOL0     C34886   5.346   1.947   1.014 -0.4302  0.2127  0.5643
 1000MOL0     C34887   5.200   1.940   0.974  0.2458 -0.7453  0.4348
 1000MOL0     C34888   5.191   1.890   0.831 -0.0126 -0.4839  0.2519
 1000MOL0     O34889   5.084   1.962   0.763  0.0596 -0.0719  0.4319
 1000MOL0     C34890   4.947   1.949   0.784  0.2487  0.0130  0.2856
 1000MOL0     C34891   4.891   1.864   0.882 -0.4527 -0.8388 -0.4772
 1000MOL0     C34892   4.748   1.854   0.892 -0.5906 -0.0168 -0.0120
 1000MOL0     C34893   4.698   1.779   1.016 -0.2102  0.3570 -0.4535
 1000MOL0     C34894   4.670   1.930   0.802 -0.2934 -0.4583 -0.0211
 1000MOL0     C34895   4.517   1.907   0.803  0.0305  0.5531  0.0606
 1000MOL0     O34896   4.423   2.005   0.795 -0.0629 -0.6062 -0.9310
 1000MOL0     C34897   4.292   1.980   0.768  0.1228 -0.3102  0.9507
 1000MOL0     C34898   4.201   2.075   0.821  0.3006  0.5535 -0.1800
 1000MOL0     C34899   4.066   2.047   0.802 -0.3930  0.1202  0.3144
 1000MOL0     C34900   4.016   1.942   0.724  0.2726  0.6897  0.0562
 1000MOL0     O34901   3.887   1.910   0.716 -0.0945  0.5970  0.1253
 1000MOL0     C34902   3.799   2.016   0.664 -0.7250 -0.1682  0.1062
 1000MOL0     C34903   3.672   2.017   0.751 -0.8030 -0.1609  0.1362
 1000MOL0     C34904   3.588   2.136   0.710  1.0249  0.6285  0.8728
 1000MOL0     C34905   3.443   2.130   0.761 -0.6391  0.2391  0.5736
 1000MOL0     C34906   3.363   2.256   0.705  0.0492  0.0242  0.6295
 1000MOL0     C34907   3.420   2.383   0.773  0.3557 -0.3653  0.5877
 1000MOL0     C34908   3.335   2.500   0.719  0.7749 -1.0127 -0.6160
 1000MOL0     C34909   3.382   2.620   0.794 -0.4558 -0.7883  0.8794
 1000MOL0    Cl34910   3.299   2.773   0.745 -0.4521  0.0711  0.2782
 1000MOL0     C34911   4.107   1.858   0.658  0.6229  0.1527  0.0859
 1000MOL0     C34912   4.242   1.879   0.683  0.0060  0.6175  0.5330
 1000MOL0     O34913   4.483   1.786   0.800  0.1838 -0.1057 -0.0181
 1000MOL0     C34914   4.733   2.022   0.716  0.6385  1.0545 -0.0727
 1000MOL0     C34915   4.867   2.030   0.703 -0.1309 -0.9662  0.0963
 1000MOL0     N34916   5.544   2.122   1.129 -0.6986 -0.2060  0.4296
 1000MOL0     N34917   5.673   2.131   1.126  0.0094  0.3536 -0.0793
 1000MOL0     C34918   6.866   2.164   1.344  0.8300  0.0953 -0.2232
 1000MOL0     C34919   6.997   2.200   1.343 -0.0706 -0.5877 -0.5513
 1000MOL0     C34920   7.433   2.261   1.320 -0.7672 -0.0988  0.3830
 1000MOL0     C34921   7.534   2.274   1.424 -0.3672  0.5459 -0.0642
 1000MOL0     C34922   7.663   2.316   1.382  0.1830  0.2798 -0.0804
 1000MOL0     C34923   7.695   2.330   1.244 -0.3601  0.3537 -0.1937
 1000MOL0     O34924   7.818   2.374   1.197  0.1191 -0.5814 -0.1755
 1000MOL0     C34925   7.916   2.416   1.289  0.4879  0.5926 -0.3569
 1000MOL0     C34926   7.992   2.304   1.340 -0.3858 -0.1215  0.2489
 1000MOL0     C34927   8.101   2.241   1.246 -1.0525 -0.3745  0.5053
 1000MOL0     C34928   8.052   2.183   1.111 -0.0771 -0.3761 -0.2879
 1000MOL0     C34929   8.176   2.142   1.042 -0.0471 -0.0201 -0.1536
 1000MOL0     C34930   8.283   2.103   0.988  0.1762 -0.0696  0.0044
 1000MOL0     C34931   7.594   2.311   1.142  0.2228 -0.5270 -0.3018
 1000MOL0     C34932   7.470   2.284   1.192 -0.4146  0.3091 -0.1741
 1000MOL0     H34933   7.125   1.938   1.185  1.1043  1.3282  0.6906
 1000MOL0     H34934   6.886   1.868   1.193 -2.5639  0.0939  1.7685
 1000MOL0     H34935   6.665   2.042   1.500  0.7545  0.2145  0.4948
 1000MOL0     H34936   6.561   2.143   1.398 -0.1422 -1.0921  0.0398
 1000MOL0     H34937   6.544   1.846   1.442  0.1534 -0.5199  0.6589
 1000MOL0     H34938   6.441   1.971   1.520  1.6344 -1.5339  1.9629
 1000MOL0     H34939   6.399   2.060   1.277  0.8508 -0.7853  2.0095
 1000MOL0     H34940   6.433   1.888   1.226  1.4615 -0.7007  0.2546
 1000MOL0     H34941   6.279   1.805   1.377  0.9340 -1.6246 -2.0378
 1000MOL0     H34942   6.218   1.967   1.423 -1.6147  0.4952 -1.0956
 1000MOL0     H34943   6.143   2.002   1.181  0.6255 -1.3055 -1.0849
 1000MOL0     H34944   6.216   1.853   1.135 -1.0875 -0.2340 -1.5520
 1000MOL0     H34945   6.019   1.754   1.166 -1.8958  1.7152 -1.0151
 1000MOL0     H34946   6.058   1.773   1.347  0.0522 -0.8041  0.2714
 1000MOL0     H34947   5.854   1.855   1.333 -0.0296 -0.2466 -0.1761
 1000MOL0     H34948   5.951   1.989   1.356 -3.7556 -0.4505  1.1671
 1000MOL0     H34949   5.864   1.896   1.071  0.7646  1.2593 -0.8336
 1000MOL0     H34950   5.912   2.063   1.110  0.2620  1.3205  2.5182
 1000MOL0     H34951   5.619   1.820   1.223 -0.0833 -0.1909  1.2392
 1000MOL0     H34952   5.338   1.880   1.213  0.4995  0.7203  1.2769
 1000MOL0     H34953   5.294   2.052   1.188 -0.0633  1.5028 -3.7482
 1000MOL0     H34954   5.397   1.856   0.980 -0.3708  1.0161 -1.7330
 1000MOL0     H34955   5.389   2.026   0.950 -2.6119 -0.3693 -1.7861
 1000MOL0     H34956   5.151   2.037   0.962  0.1343 -0.4991  2.5468
 1000MOL0     H34957   5.142   1.876   1.041 -1.1728  0.0631  0.0282
 1000MOL0     H34958   5.180   1.781   0.834  2.0938 -0.7388  0.2105
 1000MOL0     H34959   5.286   1.911   0.781 -1.2249 -0.6562 -2.2572
 1000MOL0     H34960   4.952   1.809   0.954 -0.1945 -0.6176 -0.5236
 1000MOL0     H34961   4.765   1.793   1.102 -0.0942 -2.1534 -0.0452
 1000MOL0     H34962   4.594   1.803   1.042 -0.6987 -1.4003 -0.6060
 1000MOL0     H34963   4.698   1.673   0.990  1.6647  0.0628  0.5604
 1000MOL0     H34964   4.237   2.161   0.877 -3.1151  2.8858 -1.2488
 1000MOL0     H34965   3.997   2.105   0.862 -2.0676 -2.1965  0.7990
 1000MOL0     H34966   3.846   2.114   0.658  1.2870 -1.1012 -0.1704
 1000MOL0     H34967   3.774   1.983   0.563 -0.1608  0.7343 -0.3415
 1000MOL0     H34968   3.616   1.924   0.738 -1.8422  0.2606  1.3655
 1000MOL0     H34969   3.710   2.029   0.853  3.6646  2.1021 -1.5363
 1000MOL0     H34970   3.595   2.153   0.602 -0.6803 -0.1506  0.6176
 1000MOL0     H34971   3.634   2.228   0.748  2.9250  0.9342 -1.8773
 1000MOL0     H34972   3.400   2.038   0.719  2.3943 -0.1965 -1.9913
 1000MOL0     H34973   3.455   2.122   0.869 -1.3489  1.6230  0.7669
 1000MOL0     H34974   3.257   2.243   0.729  0.2505 -0.8452  1.1208
 1000MOL0     H34975   3.362   2.266   0.596 -1.0387  0.8573  0.7000
 1000MOL0     H34976   3.417   2.378   0.882 -0.8572 -0.8426  0.5481
 1000MOL0     H34977   3.521   2.387   0.732  0.9554  0.4271  2.1068
 1000MOL0     H34978   3.231   2.470   0.733  0.4719 -0.3189 -1.2939
 1000MOL0     H34979   3.356   2.508   0.612  0.6947 -1.3986 -0.6601
 1000MOL0     H34980   3.492   2.627   0.792 -0.5175  0.1604 -0.0279
 1000MOL0     H34981   3.354   2.601   0.898 -1.7135  2.8313  1.3491
 1000MOL0     H34982   4.072   1.784   0.586  2.5061 -2.1473  1.3697
 1000MOL0     H34983   4.315   1.808   0.645  2.1289  1.4958  2.7262
 1000MOL0     H34984   4.661   2.080   0.659 -0.9756 -1.5445 -0.8531
 1000MOL0     H34985   4.902   2.111   0.640 -4.0007  0.2504 -0.7394
 1000MOL0     H34986   6.795   2.234   1.388  1.9815  0.8347  0.5213
 1000MOL0     H34987   7.019   2.294   1.393  1.5284 -0.8772 -0.6606
 1000MOL0     H34988   7.519   2.249   1.529  0.8028  0.9590  0.2151
 1000MOL0     H34989   7.736   2.335   1.460 -0.7021 -1.2207  1.2029
 1000MOL0     H34990   7.985   2.485   1.240 -1.3829  1.1126 -2.3933
 1000MOL0     H34991   7.872   2.470   1.373  0.5991  1.2630 -0.7248
 1000MOL0     H34992   7.922   2.228   1.375  1.0994 -0.8441  1.8142
 1000MOL0     H34993   8.049   2.333   1.429 -0.4943 -0.8719  0.5712
 1000MOL0     H34994   8.167   2.169   1.296  1.3232 -0.4562 -2.5062
 1000MOL0     H34995   8.172   2.319   1.217 -0.4252 -0.4746  1.7195
 1000MOL0     H34996   7.995   2.256   1.053  2.0301  2.2224  0.7484
 1000MOL0     H34997   7.985   2.098   1.132  0.8370 -1.5654 -1.9177
 1000MOL0     H34998   8.361   2.050   0.936 -0.4996 -1.9447  0.8166
 1000MOL0     H34999   7.619   2.333   1.039  1.2847 -1.2454 -0.2054
 1000MOL0     H35000   7.399   2.257   1.114  1.2513 -2.6345 -0.8251
 1001MOL0     O35001   2.154  11.010   1.491  0.9661 -0.1412 -0.8293
 1001MOL0     C35002   2.219  11.056   1.578 -0.8164 -0.1067  0.9493
 1001MOL0     O35003   2.190  11.063   1.709  0.3315 -0.2182 -0.7477
 1001MOL0     C35004   2.070  11.019   1.755 -0.3706 -0.3982 -0.0416
 1001MOL0     C35005   2.082  10.916   1.853  0.3818  0.0512 -0.3949
 1001MOL0     C35006   1.967  10.865   1.915 -0.1387  0.2956  0.0858
 1001MOL0     C35007   1.846  10.923   1.880  0.0860  0.9081 -0.0116
 1001MOL0     O35008   1.727  10.872   1.927 -0.4583  0.0514 -0.1177
 1001MOL0     C35009   1.685  10.742   1.873 -0.8487  0.5317  0.2050
 1001MOL0     C35010   1.539  10.743   1.833  0.4122 -0.2619 -0.0896
 1001MOL0     C35011   1.443  10.766   1.950  1.4327 -0.4490  0.3638
 1001MOL0     C35012   1.296  10.812   1.908 -0.1850  0.1044 -0.3268
 1001MOL0     C35013   1.206  10.799   2.027 -0.4926 -0.1418  0.1309
 1001MOL0     C35014   1.242  10.887   2.142 -0.2068  0.4298 -0.6901
 1001MOL0     C35015   1.162  10.846   2.271  0.4691  0.4853 -0.2062
 1001MOL0     C35016   1.049  10.930   2.325 -0.2131  0.1702 -0.9739
 1001MOL0     N35017   0.953  10.951   2.219 -0.1178  0.1120 -0.2666
 1001MOL0     C35018   0.860  10.855   2.179 -0.2846 -0.1795  0.6170
 1001MOL0     C35019   0.787  10.927   2.083 -0.5545 -0.1882  0.1198
 1001MOL0     C35020   0.662  10.872   2.018 -0.6484 -0.2147  0.0989
 1001MOL0     C35021   0.561  10.829   2.121 -0.1804 -0.3010 -0.9425
 1001MOL0     C35022   0.419  10.813   2.058 -0.5548 -0.5768 -0.2497
 1001MOL0     C35023   0.316  10.801   2.164 -0.5040  0.5073 -1.1035
 1001MOL0     O35024   0.184  10.793   2.100 -0.1567 -0.4101 -0.8668
 1001MOL0     C35025   0.076  10.788   2.179 -0.6281  0.1688  0.0758
 1001MOL0     C35026   0.073  10.782   2.322 -0.0598  0.6020 -0.0083
 1001MOL0     C35027  -0.043  10.775   2.400  1.1576  0.0672 -0.4153
 1001MOL0     C35028  -0.019  10.772   2.548 -1.1707  0.0409  0.5446
 1001MOL0     C35029  -0.167  10.765   2.328 -0.4820 -0.5157  0.2081
 1001MOL0     C35030  -0.300  10.733   2.380 -0.0099  0.3334 -0.1368
 1001MOL0     O35031  -0.410  10.759   2.310  0.3821  0.4046 -0.0483
 1001MOL0     C35032  -0.540  10.735   2.350  0.2720 -0.1910  0.4363
 1001MOL0     C35033  -0.583  10.625   2.427 -0.7573 -0.6469 -0.1123
 1001MOL0     C35034  -0.713  10.612   2.477 -0.4968  0.0889 -0.3757
 1001MOL0     C35035  -0.809  10.714   2.448  0.1386  0.3714  0.8723
 1001MOL0     O35036  -0.941  10.703   2.491  0.0928  0.4779 -0.0640
 1001MOL0     C35037  -0.977  10.617   2.597 -0.3307  0.3091  0.5223
 1001MOL0     C35038  -1.108  10.656   2.661 -0.4410  0.1721  0.3249
 1001MOL0     C35039  -1.239  10.599   2.591 -0.5142  0.0827 -0.5476
 1001MOL0     C35040  -1.368  10.659   2.654  0.3686 -1.0967 -0.4079
 1001MOL0     C35041  -1.485  10.646   2.556 -0.1548 -0.6376  0.3759
 1001MOL0     C35042  -1.615  10.692   2.638  0.7414  0.0099  0.5505
 1001MOL0     C35043  -1.610  10.838   2.682  0.5397  0.3081 -0.5743
 1001MOL0     C35044  -1.743  10.871   2.748  0.5886  0.2853  0.7370
 1001MOL0    Cl35045  -1.883  10.877   2.644  0.3816  0.0802  0.2779
 1001MOL0     C35046  -0.772  10.811   2.349 -0.1167  0.3624  0.0522
 1001MOL0     C35047  -0.642  10.820   2.299 -0.7575 -0.4366  0.1892
 1001MOL0     O35048  -0.306  10.665   2.483  0.6593  0.1416 -0.4417
 1001MOL0     C35049  -0.168  10.793   2.189 -0.4946  0.1347 -0.8606
 1001MOL0     C35050  -0.044  10.807   2.117  0.2714 -0.1308  0.5867
 1001MOL0     N35051   0.841  11.054   2.064 -0.5937  0.5664  0.0496
 1001MOL0     N35052   0.936  11.065   2.145  0.6658 -0.9094 -0.4685
 1001MOL0     C35053   1.836  11.024   1.785  0.2147  0.0976  0.4354
 1001MOL0     C35054   1.947  11.069   1.722  0.9531 -0.6285 -1.2069
 1001MOL0     C35055   2.362  11.085   1.536 -0.2458 -1.1839  0.7723
 1001MOL0     C35056   2.455  11.139   1.633  1.4858 -0.0046 -0.8030
 1001MOL0     C35057   2.587  11.178   1.588  0.6283 -0.0623  0.5579
 1001MOL0     C35058   2.624  11.161   1.451  0.5682 -0.4400 -1.3476
 1001MOL0     O35059   2.753  11.203   1.427  0.1610  0.6837  0.7388
 1001MOL0     C35060   2.810  11.182   1.297 -0.5147  0.0479 -0.0124
 1001MOL0     C35061   2.942  11.252   1.282 -0.4470  0.4142  0.5160
 1001MOL0     C35062   3.040  11.199   1.175 -0.1141 -1.5370 -0.0814
 1001MOL0     C35063   3.169  11.290   1.186  0.5004 -1.0514 -0.0781
 1001MOL0     C35064   3.280  11.241   1.099 -0.1126  0.5168  0.1938
 1001MOL0     C35065   3.353  11.210   1.006 -0.1249  0.2227  0.9733
 1001MOL0     C35066   2.533  11.114   1.358  0.0529 -0.0293 -0.8205
 1001MOL0     C35067   2.406  11.073   1.403 -0.0676 -0.0692 -0.3627
 1001MOL0     H35068   2.179  10.878   1.881  0.2502 -0.8360 -1.1051
 1001MOL0     H35069   1.980  10.785   1.988 -2.4136 -1.8811 -1.7398
 1001MOL0     H35070   1.741  10.712   1.784 -1.9622 -0.8251 -0.0716
 1001MOL0     H35071   1.718  10.663   1.941  1.4990  0.1859 -1.2433
 1001MOL0     H35072   1.527  10.823   1.759 -0.9317  0.8523  1.2697
 1001MOL0     H35073   1.514  10.654   1.775 -0.5377  1.3838 -2.3450
 1001MOL0     H35074   1.445  10.665   1.993  2.3831 -1.3026 -1.5688
 1001MOL0     H35075   1.483  10.847   2.011  0.1196  0.6756 -0.2048
 1001MOL0     H35076   1.297  10.915   1.871 -0.9995  0.8810  1.6474
 1001MOL0     H35077   1.258  10.751   1.826  0.5222 -1.5753  0.5607
 1001MOL0     H35078   1.104  10.813   1.992  0.3581  2.1000 -1.7406
 1001MOL0     H35079   1.218  10.694   2.056 -0.7161 -0.6459 -1.5503
 1001MOL0     H35080   1.347  10.879   2.172 -0.0905  0.8636 -0.9800
 1001MOL0     H35081   1.216  10.991   2.121 -0.6009  0.7499  1.2080
 1001MOL0     H35082   1.116  10.747   2.263  1.2078 -0.3654  4.0148
 1001MOL0     H35083   1.236  10.842   2.351  0.4888  1.3593 -0.1656
 1001MOL0     H35084   1.091  11.021   2.371  0.8234 -0.4861 -0.5651
 1001MOL0     H35085   0.986  10.873   2.394  0.4289  1.9325  1.2287
 1001MOL0     H35086   0.850  10.751   2.210 -1.0536 -0.9439 -1.8999
 1001MOL0     H35087   0.613  10.950   1.959 -0.7302  1.2788  2.0349
 1001MOL0     H35088   0.699  10.786   1.962  2.1527  1.4070 -0.7326
 1001MOL0     H35089   0.552  10.915   2.187  0.4569 -1.6356  0.9818
 1001MOL0     H35090   0.597  10.741   2.176  3.9259  1.4017 -0.6159
 1001MOL0     H35091   0.426  10.727   1.992 -0.2036  0.1577 -1.2001
 1001MOL0     H35092   0.395  10.900   1.996 -1.7067 -0.3898  0.4385
 1001MOL0     H35093   0.325  10.885   2.233 -2.1446 -2.7267  3.5186
 1001MOL0     H35094   0.318  10.707   2.221 -1.4146  0.1744 -1.5984
 1001MOL0     H35095   0.171  10.771   2.367  0.4252 -2.3083 -1.4983
 1001MOL0     H35096   0.058  10.844   2.577 -1.4131 -0.6384  3.0917
 1001MOL0     H35097  -0.106  10.781   2.613 -0.5326  1.2296  1.2593
 1001MOL0     H35098   0.020  10.674   2.579  1.4088  1.4181  2.0022
 1001MOL0     H35099  -0.508  10.555   2.462 -1.6242 -0.7164  1.7587
 1001MOL0     H35100  -0.737  10.527   2.539 -1.7426  1.4126  1.0497
 1001MOL0     H35101  -0.982  10.512   2.568 -0.8023  0.1297  1.2242
 1001MOL0     H35102  -0.903  10.627   2.677 -2.5740  3.8577  2.4591
 1001MOL0     H35103  -1.104  10.621   2.764 -0.6527 -0.0526  0.2564
 1001MOL0     H35104  -1.114  10.765   2.667 -0.0794  0.1130  2.4966
 1001MOL0     H35105  -1.250  10.490   2.593  1.1245 -0.1095 -0.5530
 1001MOL0     H35106  -1.235  10.631   2.486 -2.6043  0.5660 -0.5398
 1001MOL0     H35107  -1.386  10.622   2.755 -0.1693 -1.0107 -0.4682
 1001MOL0     H35108  -1.345  10.766   2.648 -1.0942 -0.7920 -5.0038
 1001MOL0     H35109  -1.491  10.543   2.522 -2.9772 -1.0727  1.8618
 1001MOL0     H35110  -1.469  10.720   2.477  2.0870 -1.6754 -0.2270
 1001MOL0     H35111  -1.697  10.670   2.568  0.9450 -2.2769  0.9831
 1001MOL0     H35112  -1.621  10.622   2.721 -1.0584 -4.2760 -2.7667
 1001MOL0     H35113  -1.592  10.909   2.601  1.2128 -1.7106 -2.2603
 1001MOL0     H35114  -1.530  10.854   2.755 -0.4317 -0.1857  0.6332
 1001MOL0     H35115  -1.724  10.967   2.798  1.8544 -0.6085  2.0446
 1001MOL0     H35116  -1.756  10.791   2.821  1.0505 -1.8470 -1.4036
 1001MOL0     H35117  -0.842  10.886   2.312 -2.7046 -1.2744  1.3373
 1001MOL0     H35118  -0.620  10.887   2.217 -1.3406 -1.7840 -1.1092
 1001MOL0     H35119  -0.264  10.805   2.140 -0.8017  0.7052 -0.1302
 1001MOL0     H35120  -0.055  10.834   2.013 -0.2587 -3.2385 -0.2708
 1001MOL0     H35121   1.741  11.065   1.751 -1.1486 -0.4084  3.3227
 1001MOL0     H35122   1.949  11.153   1.653 -1.1508 -0.3421 -0.9768
 1001MOL0     H35123   2.429  11.166   1.735  2.7168  1.3213 -0.8098
 1001MOL0     H35124   2.654  11.220   1.662  1.8539 -2.5070  0.9134
 1001MOL0     H35125   2.832  11.077   1.275  3.4777  0.9814 -1.3550
 1001MOL0     H35126   2.743  11.217   1.217  1.5126 -1.6741 -2.6060
 1001MOL0     H35127   2.988  11.260   1.381  1.2402  1.7638 -0.3286
 1001MOL0     H35128   2.918  11.356   1.256 -0.1664 -0.4524 -3.9415
 1001MOL0     H35129   2.990  11.194   1.078  0.7394  1.0757 -0.7508
 1001MOL0     H35130   3.074  11.098   1.198  2.3519 -0.2398  2.6627
 1001MOL0     H35131   3.191  11.294   1.293 -1.7680 -3.1304  0.5745
 1001MOL0     H35132   3.142  11.389   1.149 -0.1972 -2.2855 -3.1445
 1001MOL0     H35133   3.422  11.177   0.931  0.7745 -0.8288  2.2244
 1001MOL0     H35134   2.559  11.099   1.253  0.9434  1.7412 -0.8762
 1001MOL0     H35135   2.331  11.040   1.332 -1.8571  3.0164 -0.0367
 1002MOL0     O35136   3.559   8.858   2.092 -0.5603  0.2712  0.8866
 1002MOL0     C35137   3.616   8.798   2.182 -0.5422 -0.6631 -0.6935
 1002MOL0     O35138   3.553   8.756   2.298  0.7746  0.4255  0.3611
 1002MOL0     C35139   3.422   8.768   2.319 -0.6600  0.5612 -0.1940
 1002MOL0     C35140   3.338   8.876   2.284  0.6776 -0.1890 -0.2939
 1002MOL0     C35141   3.199   8.863   2.295  0.8742 -0.2960 -0.5686
 1002MOL0     C35142   3.143   8.757   2.357  0.1509  0.3114 -0.4883
 1002MOL0     O35143   3.007   8.738   2.384  0.7896 -0.0225  0.2234
 1002MOL0     C35144   2.953   8.827   2.485  0.0012 -1.3071  0.0630
 1002MOL0     C35145   2.818   8.768   2.542 -0.3232  0.4062 -0.1137
 1002MOL0     C35146   2.718   8.790   2.424  0.1140  0.4726  0.1267
 1002MOL0     C35147   2.592   8.696   2.449 -0.1611  0.4086  0.2074
 1002MOL0     C35148   2.474   8.716   2.357  0.2641 -0.5609 -0.0955
 1002MOL0     C35149   2.371   8.603   2.368 -0.4342 -0.0010  0.0313
 1002MOL0     C35150   2.289   8.616   2.494  0.3467 -0.0694 -1.1338
 1002MOL0     C35151   2.170   8.723   2.463 -0.7762 -0.9911  0.1766
 1002MOL0     N35152   2.062   8.676   2.381  0.1598  0.0482  0.2443
 1002MOL0     C35153   1.973   8.744   2.304 -0.2054 -0.3571  0.2918
 1002MOL0     C35154   1.865   8.668   2.279 -0.1598 -0.0045 -0.4532
 1002MOL0     C35155   1.745   8.687   2.199  0.3590  0.3158  0.2879
 1002MOL0     C35156   1.655   8.791   2.261  0.5375 -0.2985  0.2940
 1002MOL0     C35157   1.518   8.740   2.270  0.4222 -0.0982 -0.3366
 1002MOL0     C35158   1.445   8.759   2.133 -0.4294 -0.4146 -0.2191
 1002MOL0     O35159   1.332   8.678   2.125  0.5565  0.2847 -0.4449
 1002MOL0     C35160   1.217   8.727   2.184  0.7835 -0.0374 -0.1484
 1002MOL0     C35161   1.150   8.847   2.144  0.3097 -0.0610 -0.2833
 1002MOL0     C35162   1.034   8.897   2.193  1.1587 -1.1037 -0.6336
 1002MOL0     C35163   0.975   9.029   2.138 -0.3877  0.3068 -0.0396
 1002MOL0     C35164   0.974   8.822   2.303  0.1545  0.2502  0.1705
 1002MOL0     C35165   0.844   8.845   2.383 -0.1490  0.7861  0.0416
 1002MOL0     O35166   0.812   8.755   2.483  0.3249  0.6381 -0.3611
 1002MOL0     C35167   0.722   8.779   2.592 -1.1167  0.4080 -0.4584
 1002MOL0     C35168   0.696   8.909   2.651  0.4979 -0.0332  0.3242
 1002MOL0     C35169   0.618   8.918   2.764  0.3378  0.1518 -0.2514
 1002MOL0     C35170   0.551   8.805   2.817 -0.2728  0.1894 -0.0127
 1002MOL0     O35171   0.461   8.837   2.917 -0.0529  0.6579  0.8702
 1002MOL0     C35172   0.331   8.779   2.921 -0.3306 -0.2430  0.6062
 1002MOL0     C35173   0.235   8.868   2.999 -0.1575 -0.3635 -0.6490
 1002MOL0     C35174   0.215   9.020   2.953 -0.4528  0.8948 -0.5518
 1002MOL0     C35175   0.124   9.089   3.060  0.2449 -0.1680  0.5182
 1002MOL0     C35176   0.101   9.244   3.027  0.2271  1.0587  0.3882
 1002MOL0     C35177   0.228   9.330   3.015  0.0767  0.2193 -0.2634
 1002MOL0     C35178   0.199   9.469   2.980 -0.7651 -0.7724  0.0274
 1002MOL0     C35179   0.175   9.565   3.103  0.6049  0.4723  0.8906
 1002MOL0    Cl35180   0.321   9.571   3.215 -0.2834  0.0090  0.2302
 1002MOL0     C35181   0.570   8.677   2.756  0.4102  0.5876  0.0473
 1002MOL0     C35182   0.662   8.665   2.650 -0.3652 -1.1580  0.5142
 1002MOL0     O35183   0.774   8.940   2.354 -0.2440  0.3469 -0.8196
 1002MOL0     C35184   1.042   8.706   2.356  0.2487  0.5573  0.2948
 1002MOL0     C35185   1.157   8.656   2.292  0.5765 -0.8735  0.0866
 1002MOL0     N35186   1.899   8.545   2.343  0.7675 -0.6618 -0.3651
 1002MOL0     N35187   2.011   8.552   2.404  0.7137  0.6044  0.8513
 1002MOL0     C35188   3.224   8.655   2.396 -0.3001  0.1306 -0.7666
 1002MOL0     C35189   3.363   8.655   2.379  0.2164 -0.0353  0.3579
 1002MOL0     C35190   3.761   8.775   2.181  0.1774 -1.2459  0.4068
 1002MOL0     C35191   3.821   8.689   2.272 -0.2881  0.1169  0.6065
 1002MOL0     C35192   3.954   8.666   2.265  0.4082  0.2695 -0.4009
 1002MOL0     C35193   4.035   8.718   2.171 -0.3337  0.5726  0.0013
 1002MOL0     O35194   4.171   8.706   2.178 -0.6084 -0.5011 -0.6344
 1002MOL0     C35195   4.262   8.766   2.080  0.8801  0.0321  0.2398
 1002MOL0     C35196   4.400   8.698   2.081  0.3808  0.4926 -0.3826
 1002MOL0     C35197   4.451   8.698   2.229  0.5587 -0.5316  0.3574
 1002MOL0     C35198   4.599   8.686   2.232 -0.5760  0.6391  0.0074
 1002MOL0     C35199   4.643   8.559   2.168 -0.7527  1.5146 -0.1984
 1002MOL0     C35200   4.684   8.449   2.121 -0.1625  0.3349 -0.5773
 1002MOL0     C35201   3.974   8.809   2.083  1.0084 -0.0424  0.1860
 1002MOL0     C35202   3.843   8.840   2.086  0.8502  0.1260  0.0008
 1002MOL0     H35203   3.373   8.966   2.235  0.5157  0.8085  1.3336
 1002MOL0     H35204   3.141   8.945   2.256  3.1673  1.3612 -0.6939
 1002MOL0     H35205   3.017   8.829   2.573  0.4849  1.7046 -0.2414
 1002MOL0     H35206   2.940   8.928   2.444  3.7551 -0.1195  1.4378
 1002MOL0     H35207   2.818   8.663   2.571 -3.1986 -0.6200 -3.2161
 1002MOL0     H35208   2.789   8.838   2.621  1.3431  2.7960 -1.5058
 1002MOL0     H35209   2.686   8.894   2.419  0.4826  0.5415 -0.9545
 1002MOL0     H35210   2.763   8.760   2.330  0.7465 -1.5980  1.0267
 1002MOL0     H35211   2.628   8.594   2.428  1.1035  0.9060 -0.1276
 1002MOL0     H35212   2.563   8.707   2.554 -1.5112  1.3354 -0.2339
 1002MOL0     H35213   2.443   8.819   2.378  1.4105 -0.2834  0.3208
 1002MOL0     H35214   2.507   8.716   2.253 -0.5340 -3.3917 -0.4403
 1002MOL0     H35215   2.316   8.584   2.275  2.5493 -0.6561 -1.7368
 1002MOL0     H35216   2.429   8.512   2.387 -0.7229  0.1570  1.8546
 1002MOL0     H35217   2.247   8.522   2.530  1.7823  0.4079  2.0889
 1002MOL0     H35218   2.345   8.665   2.574  0.2722 -0.0341 -1.1023
 1002MOL0     H35219   2.217   8.811   2.418 -1.9211 -0.5401 -0.1844
 1002MOL0     H35220   2.135   8.766   2.557  0.9423  2.3867 -0.5750
 1002MOL0     H35221   1.984   8.847   2.271  2.2184 -0.2699  1.1530
 1002MOL0     H35222   1.768   8.705   2.093 -1.6868  1.4257 -0.0138
 1002MOL0     H35223   1.701   8.587   2.191  1.8956 -0.2903 -1.4133
 1002MOL0     H35224   1.660   8.880   2.198  0.0443  0.0609  0.7521
 1002MOL0     H35225   1.689   8.825   2.359  2.7591  0.7409 -0.7698
 1002MOL0     H35226   1.467   8.804   2.343 -3.0742 -1.5159 -1.3265
 1002MOL0     H35227   1.510   8.640   2.314  1.3561  1.0078  2.6125
 1002MOL0     H35228   1.512   8.740   2.048  0.4820  2.6436 -0.3037
 1002MOL0     H35229   1.424   8.866   2.132  0.0301 -0.3175  0.1842
 1002MOL0     H35230   1.182   8.877   2.044  2.9452 -1.5463  0.0090
 1002MOL0     H35231   1.024   9.065   2.047  1.8963  1.5959  1.5960
 1002MOL0     H35232   0.870   9.012   2.114 -0.0622 -1.5456 -0.2458
 1002MOL0     H35233   0.984   9.105   2.216 -0.5613 -0.1999  0.4802
 1002MOL0     H35234   0.731   9.007   2.620 -0.4622  0.3610  0.4560
 1002MOL0     H35235   0.590   9.010   2.814 -0.9693 -0.2458 -0.2089
 1002MOL0     H35236   0.286   8.758   2.824  2.5704 -1.9689 -0.4846
 1002MOL0     H35237   0.340   8.687   2.978 -0.3371 -0.8935 -0.4185
 1002MOL0     H35238   0.134   8.825   3.004 -0.2787  0.0951  2.3248
 1002MOL0     H35239   0.265   8.857   3.103 -1.5723 -0.3280 -0.2157
 1002MOL0     H35240   0.169   9.031   2.854 -1.1142  1.8794 -0.1621
 1002MOL0     H35241   0.305   9.077   2.930 -0.4852  0.1714 -2.7052
 1002MOL0     H35242   0.032   9.033   3.072  0.6667 -0.7750  0.9872
 1002MOL0     H35243   0.182   9.080   3.153  0.9917  0.4573  0.1247
 1002MOL0     H35244   0.029   9.282   3.100 -2.8085 -0.0730 -1.8578
 1002MOL0     H35245   0.056   9.243   2.928 -0.1289 -2.3573  0.4867
 1002MOL0     H35246   0.279   9.328   3.112 -0.3909  0.1692 -0.0173
 1002MOL0     H35247   0.290   9.291   2.933  0.8557 -1.2980  0.9865
 1002MOL0     H35248   0.115   9.478   2.910 -0.4021 -0.3430 -0.3651
 1002MOL0     H35249   0.294   9.503   2.937  1.0430 -0.9857  3.4987
 1002MOL0     H35250   0.099   9.519   3.166 -0.9892  1.7985 -0.0024
 1002MOL0     H35251   0.146   9.662   3.063  2.3085  0.2323 -1.1461
 1002MOL0     H35252   0.511   8.596   2.798  1.7047 -0.5185 -0.2017
 1002MOL0     H35253   0.690   8.570   2.606 -1.7458 -1.5380  0.4116
 1002MOL0     H35254   1.007   8.646   2.439 -0.4291 -0.4871 -0.7079
 1002MOL0     H35255   1.199   8.567   2.339 -0.6179 -1.0392  0.9014
 1002MOL0     H35256   3.179   8.571   2.449 -0.2914  0.3870 -0.3430
 1002MOL0     H35257   3.423   8.573   2.417  1.1106  0.6854  0.5287
 1002MOL0     H35258   3.766   8.640   2.352  0.0761  0.8486  1.3256
 1002MOL0     H35259   3.999   8.605   2.343  0.1609  0.9353  0.2804
 1002MOL0     H35260   4.227   8.754   1.977 -2.1088  0.9775  1.0512
 1002MOL0     H35261   4.275   8.874   2.091  1.3925 -0.0881  0.8773
 1002MOL0     H35262   4.471   8.752   2.019  3.5521 -0.0005  2.5384
 1002MOL0     H35263   4.384   8.594   2.048 -2.0819  1.2414 -1.8265
 1002MOL0     H35264   4.402   8.617   2.284  2.0618 -1.3063  0.5959
 1002MOL0     H35265   4.418   8.794   2.268  0.3161 -0.5045  0.0900
 1002MOL0     H35266   4.645   8.692   2.332 -1.2054 -2.1730  0.5382
 1002MOL0     H35267   4.646   8.773   2.185 -0.5167  1.1118  0.9170
 1002MOL0     H35268   4.708   8.356   2.071 -2.1690 -0.0999 -0.8016
 1002MOL0     H35269   4.027   8.864   2.006  0.8583  1.0634  0.8634
 1002MOL0     H35270   3.805   8.906   2.009 -3.1122 -0.5579  1.1724
 1003MOL0     O35271   5.723   9.763   0.027 -0.0798  0.1799 -0.2292
 1003MOL0     C35272   5.721   9.664  -0.040 -0.7617  1.2522 -0.2431
 1003MOL0     O35273   5.617   9.619  -0.127 -0.2592  0.0570  0.2606
 1003MOL0     C35274   5.504   9.700  -0.124 -0.5751 -0.5893  0.1235
 1003MOL0     C35275   5.492   9.785  -0.231 -0.0608  0.3593 -0.4856
 1003MOL0     C35276   5.385   9.873  -0.244  0.4610 -0.1772 -0.2784
 1003MOL0     C35277   5.289   9.879  -0.135  0.2190 -0.6562  0.4176
 1003MOL0     O35278   5.179   9.959  -0.154 -0.4245 -0.0666 -0.3042
 1003MOL0     C35279   5.094   9.985  -0.038 -0.4215 -0.4145  0.0584
 1003MOL0     C35280   4.998  10.090  -0.090  0.7173  0.5124 -0.2575
 1003MOL0     C35281   4.857  10.096  -0.023  0.5070 -0.0214 -0.4149
 1003MOL0     C35282   4.768   9.971  -0.053 -0.6358  0.0199 -0.3449
 1003MOL0     C35283   4.621  10.015  -0.055 -0.6432 -0.1087 -0.1468
 1003MOL0     C35284   4.541   9.881  -0.053 -0.0947 -0.2069  0.1990
 1003MOL0     C35285   4.415   9.897   0.030 -0.5830  0.1680  0.1356
 1003MOL0     C35286   4.343   9.760   0.040  0.2113 -0.1490 -0.5762
 1003MOL0     N35287   4.202   9.778   0.099  0.0306  0.5487 -0.6509
 1003MOL0     C35288   4.165   9.839   0.215 -0.0601 -0.2895 -0.1639
 1003MOL0     C35289   4.034   9.836   0.217  1.1412  0.3770 -0.5758
 1003MOL0     C35290   3.936   9.901   0.310 -0.0599  0.3433  0.8065
 1003MOL0     C35291   3.888   9.805   0.416 -0.1576  0.5792  0.7048
 1003MOL0     C35292   3.761   9.738   0.372  0.6018  0.2776  0.1715
 1003MOL0     C35293   3.643   9.826   0.405  0.1317 -0.8482 -0.1360
 1003MOL0     O35294   3.512   9.777   0.368  0.3613  0.3737 -0.3717
 1003MOL0     C35295   3.398   9.829   0.435 -0.1396  0.4244 -1.4255
 1003MOL0     C35296   3.397   9.944   0.519 -0.2780  0.1543  0.4241
 1003MOL0     C35297   3.283   9.990   0.589  0.2392 -0.1481 -0.6949
 1003MOL0     C35298   3.304  10.125   0.661 -0.6432 -0.4466  0.4667
 1003MOL0     C35299   3.157   9.923   0.570 -0.6387 -0.4885 -1.4790
 1003MOL0     C35300   3.032   9.960   0.640  0.3509  0.2210  0.9075
 1003MOL0     O35301   2.926   9.876   0.605 -0.2979  0.0603  0.4905
 1003MOL0     C35302   2.802   9.889   0.669  0.1962 -1.1459 -0.1443
 1003MOL0     C35303   2.742  10.016   0.696  0.0361 -0.5412 -0.1370
 1003MOL0     C35304   2.615  10.016   0.762  0.4417 -0.5525  0.1741
 1003MOL0     C35305   2.543   9.898   0.799 -0.2521 -0.1011  0.2131
 1003MOL0     O35306   2.427   9.918   0.865  0.7194 -0.0358  0.4260
 1003MOL0     C35307   2.366   9.808   0.935  0.0050 -0.5021 -0.0831
 1003MOL0     C35308   2.292   9.717   0.843  0.1186 -0.6868  0.0633
 1003MOL0     C35309   2.286   9.575   0.899 -0.7165  0.5990  0.8381
 1003MOL0     C35310   2.269   9.473   0.791  0.0316 -1.1046 -0.1616
 1003MOL0     C35311   2.403   9.440   0.724  0.5265  0.4982  0.2557
 1003MOL0     C35312   2.374   9.340   0.610  0.3801  0.6906  0.2276
 1003MOL0     C35313   2.509   9.315   0.548 -0.7352 -0.8376  0.2309
 1003MOL0     C35314   2.498   9.253   0.409  0.0938  1.4438 -1.4741
 1003MOL0    Cl35315   2.432   9.086   0.432  0.3276 -0.1788 -0.1885
 1003MOL0     C35316   2.607   9.769   0.774 -0.3696  0.5756 -0.1848
 1003MOL0     C35317   2.730   9.771   0.702  0.3329 -0.5420  0.5792
 1003MOL0     O35318   3.026  10.045   0.723  1.0555  0.0196  0.2442
 1003MOL0     C35319   3.156   9.806   0.490 -0.5713 -0.3986  0.0875
 1003MOL0     C35320   3.271   9.763   0.422 -0.2787 -0.3000 -0.1001
 1003MOL0     N35321   3.989   9.753   0.111  0.1563  0.1185  0.4969
 1003MOL0     N35322   4.093   9.709   0.060  0.4599  1.0568  0.1663
 1003MOL0     C35323   5.311   9.801  -0.018 -0.4006 -0.0157  0.0570
 1003MOL0     C35324   5.419   9.707  -0.014  0.2989  0.0835 -0.2930
 1003MOL0     C35325   5.854   9.590  -0.034  0.2260  0.0004 -0.3056
 1003MOL0     C35326   5.945   9.613   0.069  0.4150  0.0405  0.3639
 1003MOL0     C35327   6.071   9.544   0.070 -1.0389  0.0147 -0.1286
 1003MOL0     C35328   6.099   9.443  -0.025  0.9202 -0.2902  0.0753
 1003MOL0     O35329   6.226   9.399  -0.031 -0.0300  0.3173  0.5229
 1003MOL0     C35330   6.273   9.314  -0.137 -0.7201  0.6854  0.3140
 1003MOL0     C35331   6.224   9.176  -0.108  0.0461  0.1203  0.4247
 1003MOL0     C35332   6.310   9.065  -0.171  0.6814  0.8627 -0.6992
 1003MOL0     C35333   6.333   9.088  -0.323 -0.4960 -0.0628 -0.4840
 1003MOL0     C35334   6.213   9.090  -0.407 -1.2872 -0.1020 -0.2897
 1003MOL0     C35335   6.101   9.081  -0.452  0.4185  0.2868  0.0677
 1003MOL0     C35336   5.997   9.413  -0.114  1.2288 -0.3917  0.3971
 1003MOL0     C35337   5.874   9.484  -0.121 -0.0111  0.1324  0.3786
 1003MOL0     H35338   5.559   9.775  -0.316 -1.0997  1.2140 -1.4364
 1003MOL0     H35339   5.366   9.931  -0.334  1.0300 -0.0489 -0.3157
 1003MOL0     H35340   5.025   9.902  -0.018 -3.2157  1.5840 -0.5414
 1003MOL0     H35341   5.141  10.020   0.054  0.2544 -3.2360  0.8681
 1003MOL0     H35342   5.046  10.183  -0.060  1.7906 -0.5992  1.6482
 1003MOL0     H35343   4.982  10.090  -0.198 -0.3499 -1.4041 -0.1488
 1003MOL0     H35344   4.863  10.116   0.085 -1.6123  1.2612 -0.4875
 1003MOL0     H35345   4.812  10.188  -0.062  3.2774  0.7625 -2.0267
 1003MOL0     H35346   4.796   9.916  -0.143  2.2103  0.0333  0.4363
 1003MOL0     H35347   4.782   9.893   0.023  0.3845 -3.0229 -3.4240
 1003MOL0     H35348   4.584  10.071   0.031 -3.1455 -0.2024 -1.0653
 1003MOL0     H35349   4.590  10.065  -0.147 -2.1223  3.3332  2.0090
 1003MOL0     H35350   4.512   9.848  -0.153  0.9273 -0.1094 -0.1374
 1003MOL0     H35351   4.607   9.803  -0.013 -0.4164  0.6060  2.4178
 1003MOL0     H35352   4.429   9.930   0.134  0.3422 -1.3442  0.5213
 1003MOL0     H35353   4.343   9.960  -0.024 -1.6219 -2.3455 -1.5825
 1003MOL0     H35354   4.404   9.700   0.108  0.8659  2.1734  0.9961
 1003MOL0     H35355   4.334   9.699  -0.050 -1.0649 -2.2146  0.8645
 1003MOL0     H35356   4.229   9.899   0.279 -0.5809  1.5217 -1.2659
 1003MOL0     H35357   3.990   9.981   0.361  2.1421 -0.0817 -0.7352
 1003MOL0     H35358   3.858   9.947   0.249 -0.9454 -1.2740  0.6527
 1003MOL0     H35359   3.873   9.854   0.513 -1.8981 -2.2948  2.0409
 1003MOL0     H35360   3.954   9.721   0.436 -2.2349 -1.4883 -0.5969
 1003MOL0     H35361   3.732   9.648   0.427 -0.7971 -1.0257 -2.5009
 1003MOL0     H35362   3.748   9.702   0.269 -3.1990 -1.9100  1.2311
 1003MOL0     H35363   3.645   9.923   0.354  0.2746 -1.1511 -0.7154
 1003MOL0     H35364   3.650   9.835   0.514  0.0046  0.0997 -0.1982
 1003MOL0     H35365   3.489   9.999   0.535  1.6396 -2.8189  0.3154
 1003MOL0     H35366   3.410  10.146   0.649 -0.8393  0.5967  0.4956
 1003MOL0     H35367   3.249  10.207   0.613  1.1431  0.5109 -0.0480
 1003MOL0     H35368   3.281  10.111   0.767 -0.2114 -1.2193  0.4662
 1003MOL0     H35369   2.790  10.109   0.670 -4.4953  2.2276  0.2259
 1003MOL0     H35370   2.569  10.114   0.765 -0.3367 -0.7277 -2.6589
 1003MOL0     H35371   2.442   9.754   0.993 -0.9106 -0.7986  0.8800
 1003MOL0     H35372   2.283   9.843   0.997 -1.1347  0.7624 -2.2013
 1003MOL0     H35373   2.188   9.747   0.832  0.2813  0.1188  0.6699
 1003MOL0     H35374   2.332   9.720   0.741 -0.5901 -1.1417 -0.2380
 1003MOL0     H35375   2.196   9.569   0.960 -1.0094  0.9908  0.4518
 1003MOL0     H35376   2.378   9.555   0.955  0.4496  0.6992 -0.9680
 1003MOL0     H35377   2.220   9.388   0.839 -2.3450  0.1114 -0.3285
 1003MOL0     H35378   2.199   9.503   0.714 -0.3111 -3.9642 -1.0757
 1003MOL0     H35379   2.463   9.385   0.796 -1.6275  0.2584  1.9916
 1003MOL0     H35380   2.452   9.522   0.671  0.6288 -0.8549 -1.8318
 1003MOL0     H35381   2.333   9.247   0.652  1.7333  0.1505  0.4150
 1003MOL0     H35382   2.318   9.381   0.527 -1.2783  0.3519  1.1419
 1003MOL0     H35383   2.573   9.251   0.610  1.7177 -0.5405 -1.8131
 1003MOL0     H35384   2.558   9.412   0.539 -2.4296 -0.0648 -1.1856
 1003MOL0     H35385   2.600   9.248   0.370  1.3034  4.1135  0.9717
 1003MOL0     H35386   2.424   9.300   0.345 -2.5357 -0.1715  0.1825
 1003MOL0     H35387   2.552   9.677   0.793  1.2073 -0.6654 -1.3704
 1003MOL0     H35388   2.773   9.681   0.659 -1.5382 -0.3541 -1.9271
 1003MOL0     H35389   3.060   9.762   0.465 -0.5355 -0.1536 -0.4947
 1003MOL0     H35390   3.271   9.675   0.358  3.5410  0.4469 -1.3960
 1003MOL0     H35391   5.254   9.795   0.074  0.5520  2.3545  0.8966
 1003MOL0     H35392   5.432   9.641   0.071 -0.1703  1.7065  1.0823
 1003MOL0     H35393   5.922   9.691   0.141 -2.0684  2.1829 -2.5270
 1003MOL0     H35394   6.148   9.577   0.139  0.6822  0.8358 -2.2901
 1003MOL0     H35395   6.220   9.343  -0.228 -2.4305 -1.6791  0.4528
 1003MOL0     H35396   6.380   9.331  -0.152 -1.2794  2.8312 -1.8860
 1003MOL0     H35397   6.120   9.174  -0.142  0.5663  0.0558 -1.2291
 1003MOL0     H35398   6.233   9.154  -0.001 -0.0053 -0.3986  0.3251
 1003MOL0     H35399   6.259   8.975  -0.137 -1.0692  2.7239  1.9785
 1003MOL0     H35400   6.409   9.062  -0.125  0.7213  1.8401 -0.6916
 1003MOL0     H35401   6.387   9.002  -0.364 -1.3739 -1.3797  1.0055
 1003MOL0     H35402   6.403   9.168  -0.350 -0.8253 -0.1693 -1.6898
 1003MOL0     H35403   6.002   9.063  -0.490  1.3265 -3.1717 -1.0263
 1003MOL0     H35404   6.004   9.338  -0.192  1.2029  0.0107  0.0030
 1003MOL0     H35405   5.805   9.457  -0.200  2.0354  0.2422 -1.5296
 1004MOL0     O35406   3.672   8.968   4.450 -0.0436 -0.2981  0.5085
 1004MOL0     C35407   3.758   8.978   4.536  0.6422  0.3069  0.2835
 1004MOL0     O35408   3.733   9.016   4.670  0.3484  0.3347  0.2014
 1004MOL0     C35409   3.604   9.039   4.710 -0.4256 -0.5433  0.0932
 1004MOL0     C35410   3.533   8.930   4.755  0.1370  0.1886  0.3522
 1004MOL0     C35411   3.404   8.947   4.807 -0.2667 -0.1179  0.5543
 1004MOL0     C35412   3.343   9.077   4.795 -0.3143  0.7768 -0.0021
 1004MOL0     O35413   3.210   9.084   4.825 -0.8085  0.2141 -0.2312
 1004MOL0     C35414   3.134   9.189   4.754 -0.5604  0.1974 -0.1450
 1004MOL0     C35415   2.986   9.163   4.774 -0.0658  0.6448 -0.4446
 1004MOL0     C35416   2.917   9.277   4.713 -0.3600 -0.3983  0.5354
 1004MOL0     C35417   2.769   9.244   4.679 -0.4900  0.7557  0.0270
 1004MOL0     C35418   2.673   9.361   4.659 -0.3463  0.5435  0.7458
 1004MOL0     C35419   2.527   9.309   4.645 -0.4588 -0.5401  0.0733
 1004MOL0     C35420   2.445   9.432   4.606 -0.0680 -0.0196 -0.0021
 1004MOL0     C35421   2.312   9.376   4.581  0.5766 -0.7527 -0.2124
 1004MOL0     N35422   2.207   9.476   4.555  0.2242  0.2927 -0.6194
 1004MOL0     C35423   2.226   9.609   4.531  0.2795 -0.3501  0.1458
 1004MOL0     C35424   2.108   9.666   4.563 -0.4887 -0.0139 -0.8640
 1004MOL0     C35425   2.086   9.810   4.581  0.3883  0.0493  0.8031
 1004MOL0     C35426   2.090   9.888   4.443  0.5203  0.7370 -0.6945
 1004MOL0     C35427   1.940   9.878   4.395  0.1964  0.5741 -0.0546
 1004MOL0     C35428   1.847   9.993   4.450  0.8386  0.5286 -0.2438
 1004MOL0     O35429   1.750  10.032   4.348  0.0539 -0.2763  0.0341
 1004MOL0     C35430   1.631   9.972   4.326  0.2264  0.1267 -0.1601
 1004MOL0     C35431   1.593   9.853   4.387 -0.4124 -0.7421  0.4679
 1004MOL0     C35432   1.480   9.788   4.351  1.0764  0.0761 -0.0251
 1004MOL0     C35433   1.475   9.641   4.415  0.4790  0.0110  0.5398
 1004MOL0     C35434   1.377   9.852   4.274 -0.1865 -0.2025  0.2700
 1004MOL0     C35435   1.251   9.779   4.228  0.2539 -0.5083  0.0862
 1004MOL0     O35436   1.150   9.864   4.185  0.3887 -0.2479  0.2007
 1004MOL0     C35437   1.030   9.802   4.139  0.5928 -0.2134 -0.8024
 1004MOL0     C35438   1.008   9.777   4.003  0.8443  0.4158  0.3239
 1004MOL0     C35439   0.886   9.709   3.961 -1.1184 -0.2253  0.1781
 1004MOL0     C35440   0.798   9.672   4.061  0.9588  0.6356 -1.0876
 1004MOL0     O35441   0.693   9.589   4.011 -0.6119  0.0873 -0.4979
 1004MOL0     C35442   0.580   9.579   4.104 -0.5977 -0.4870 -0.1496
 1004MOL0     C35443   0.476   9.473   4.049  0.3899 -0.3496  0.5876
 1004MOL0     C35444   0.400   9.525   3.920 -0.4841 -0.1018  0.2478
 1004MOL0     C35445   0.259   9.464   3.919 -0.0181 -0.3470  0.0170
 1004MOL0     C35446   0.159   9.527   3.822 -0.6191 -0.1949  0.5817
 1004MOL0     C35447   0.186   9.470   3.681  0.1794 -0.0520 -0.1774
 1004MOL0     C35448   0.064   9.509   3.591 -0.2429  0.0399  0.4306
 1004MOL0     C35449   0.075   9.453   3.438 -0.6821 -0.1789 -0.4092
 1004MOL0    Cl35450   0.125   9.279   3.424  0.4756  0.0495  0.2540
 1004MOL0     C35451   0.810   9.709   4.204 -0.8336 -0.5712 -0.1380
 1004MOL0     C35452   0.931   9.782   4.237  0.4166 -0.0149 -0.0606
 1004MOL0     O35453   1.244   9.654   4.225 -0.6102 -0.4139  0.0876
 1004MOL0     C35454   1.402   9.983   4.222 -0.0668  0.6572 -1.0571
 1004MOL0     C35455   1.536  10.041   4.243  0.0513 -0.4096  0.6957
 1004MOL0     N35456   2.015   9.567   4.594  0.3005  0.0567  0.7315
 1004MOL0     N35457   2.071   9.449   4.585  0.5741 -0.0782 -0.6506
 1004MOL0     C35458   3.421   9.186   4.754 -0.1771 -0.0606 -0.8707
 1004MOL0     C35459   3.551   9.167   4.718 -0.0498 -0.0392  0.5986
 1004MOL0     C35460   3.903   8.956   4.492 -0.3584 -0.0269 -0.0750
 1004MOL0     C35461   4.017   8.985   4.574 -0.1331  0.4231 -0.3621
 1004MOL0     C35462   4.152   8.957   4.533  0.3572  0.5886 -0.4146
 1004MOL0     C35463   4.172   8.912   4.401 -0.9172 -0.6003  0.0182
 1004MOL0     O35464   4.291   8.912   4.344  0.5215 -0.0394 -0.3208
 1004MOL0     C35465   4.416   8.922   4.424 -0.2133  0.1631 -0.0901
 1004MOL0     C35466   4.537   8.848   4.361  0.2947 -0.2541 -0.2458
 1004MOL0     C35467   4.568   8.927   4.232 -0.7100 -0.1309  1.3426
 1004MOL0     C35468   4.623   9.068   4.258 -0.7209  0.2885 -0.5125
 1004MOL0     C35469   4.729   9.074   4.359  0.4023  0.5725 -0.4989
 1004MOL0     C35470   4.815   9.065   4.440 -0.4329 -0.4260 -0.3407
 1004MOL0     C35471   4.065   8.889   4.313 -0.0471 -0.8861  0.1555
 1004MOL0     C35472   3.934   8.915   4.360 -0.0155  0.1345  0.2899
 1004MOL0     H35473   3.563   8.828   4.732 -0.9628  0.0758 -0.6850
 1004MOL0     H35474   3.347   8.860   4.840 -0.0755 -1.3802 -2.1901
 1004MOL0     H35475   3.159   9.287   4.795 -3.7721  0.5416  1.3275
 1004MOL0     H35476   3.149   9.187   4.646 -1.6426  0.0815 -0.3081
 1004MOL0     H35477   2.959   9.064   4.737  3.3745  0.2644 -2.3918
 1004MOL0     H35478   2.954   9.165   4.879  0.0467 -0.3226 -0.3895
 1004MOL0     H35479   2.930   9.363   4.779  1.3251  0.5076 -0.8782
 1004MOL0     H35480   2.956   9.301   4.613  0.6714 -0.6498  0.8618
 1004MOL0     H35481   2.760   9.182   4.589 -1.9983  2.8119 -1.3450
 1004MOL0     H35482   2.731   9.179   4.759 -0.1134 -0.4735 -0.7593
 1004MOL0     H35483   2.695   9.441   4.731 -0.9423  1.5594 -0.1851
 1004MOL0     H35484   2.697   9.408   4.564  1.4199  0.4821  1.1262
 1004MOL0     H35485   2.522   9.229   4.570 -1.7638 -1.0742  0.6971
 1004MOL0     H35486   2.488   9.267   4.738  0.6588 -2.7676 -0.4037
 1004MOL0     H35487   2.448   9.507   4.686 -1.9545  1.9720 -1.6703
 1004MOL0     H35488   2.483   9.475   4.512 -0.2666  0.3916  0.1031
 1004MOL0     H35489   2.279   9.311   4.662  0.7591 -1.4680 -0.7017
 1004MOL0     H35490   2.304   9.316   4.489 -0.3070  0.5940 -1.0549
 1004MOL0     H35491   2.324   9.652   4.512 -0.3144  1.3266  0.7030
 1004MOL0     H35492   1.997   9.839   4.638 -0.0745  2.0282 -0.8263
 1004MOL0     H35493   2.166   9.854   4.643 -0.7029  1.6807  1.1217
 1004MOL0     H35494   2.153   9.828   4.377 -2.4694 -3.6921  0.0425
 1004MOL0     H35495   2.123   9.992   4.447  0.3117  0.7982 -0.4758
 1004MOL0     H35496   1.896   9.782   4.424  1.1832  0.4049  0.9552
 1004MOL0     H35497   1.944   9.897   4.288 -1.7619  2.1176  0.0919
 1004MOL0     H35498   1.900  10.076   4.497 -0.7276  0.6948  1.3048
 1004MOL0     H35499   1.796   9.955   4.539 -1.3170  1.8651 -0.8400
 1004MOL0     H35500   1.658   9.810   4.462  1.0996 -0.0407 -0.3726
 1004MOL0     H35501   1.511   9.566   4.345  0.3707 -1.0393  1.5723
 1004MOL0     H35502   1.537   9.637   4.505 -0.5776  1.9039  1.4103
 1004MOL0     H35503   1.372   9.618   4.445 -0.4630  1.1167 -1.5836
 1004MOL0     H35504   1.086   9.808   3.934 -1.4937  1.4369 -2.0517
 1004MOL0     H35505   0.866   9.676   3.859 -1.5255 -2.0530  0.8311
 1004MOL0     H35506   0.601   9.524   4.196  2.5660  0.5898 -0.1067
 1004MOL0     H35507   0.539   9.674   4.137  1.9545  0.8323 -0.5052
 1004MOL0     H35508   0.517   9.376   4.019  0.1450 -0.4796  0.6704
 1004MOL0     H35509   0.405   9.464   4.132  0.0384  1.9620  0.6017
 1004MOL0     H35510   0.448   9.487   3.829 -0.6705  1.1636 -0.4069
 1004MOL0     H35511   0.401   9.635   3.927  3.5437  0.0282  0.0990
 1004MOL0     H35512   0.260   9.356   3.907 -0.2708 -1.0360  4.5263
 1004MOL0     H35513   0.201   9.474   4.011  0.7241 -4.7505  1.1862
 1004MOL0     H35514   0.179   9.634   3.811 -1.2933 -0.3565 -3.7748
 1004MOL0     H35515   0.056   9.521   3.859 -1.0685  2.8757  0.1558
 1004MOL0     H35516   0.280   9.501   3.635  0.4836  1.7560  1.5338
 1004MOL0     H35517   0.190   9.361   3.679  3.3283 -0.0419 -2.7243
 1004MOL0     H35518   0.041   9.615   3.596 -2.4117 -0.4355  2.4510
 1004MOL0     H35519  -0.019   9.453   3.636  2.0338 -4.4914 -0.3777
 1004MOL0     H35520   0.146   9.510   3.376 -0.8489  1.4172  0.7958
 1004MOL0     H35521  -0.023   9.462   3.390 -1.2733  0.6243  0.8731
 1004MOL0     H35522   0.746   9.680   4.286 -0.8786  2.5884  1.0920
 1004MOL0     H35523   0.949   9.812   4.340  1.3525  3.6192 -1.1300
 1004MOL0     H35524   1.330  10.035   4.161  0.0124  0.9673 -0.8865
 1004MOL0     H35525   1.564  10.143   4.218 -2.4899  0.5725  1.5707
 1004MOL0     H35526   3.385   9.286   4.733 -0.3632 -0.6285 -3.7545
 1004MOL0     H35527   3.603   9.251   4.673  0.9376 -0.0331  1.6895
 1004MOL0     H35528   3.978   9.007   4.673 -1.3650 -4.0598  0.3368
 1004MOL0     H35529   4.228   8.983   4.606  0.5508  1.4185 -0.9002
 1004MOL0     H35530   4.430   9.028   4.450 -0.4675 -0.5107  3.2152
 1004MOL0     H35531   4.404   8.882   4.525  2.1340  3.9075  1.9100
 1004MOL0     H35532   4.506   8.749   4.326  1.3021 -0.3045 -1.0205
 1004MOL0     H35533   4.624   8.850   4.427  0.8381  1.8280 -0.9569
 1004MOL0     H35534   4.476   8.938   4.173 -1.2928  1.2390  2.4504
 1004MOL0     H35535   4.641   8.866   4.178 -0.9943 -1.2945  2.2337
 1004MOL0     H35536   4.538   9.129   4.289  0.0960  0.8656  0.6795
 1004MOL0     H35537   4.672   9.103   4.166  0.1505 -0.2357 -0.2524
 1004MOL0     H35538   4.896   9.065   4.511 -0.6454 -0.5696 -0.0986
 1004MOL0     H35539   4.086   8.866   4.209  0.8027 -0.5378  0.2367
 1004MOL0     H35540   3.851   8.900   4.292 -0.8492 -0.7176  1.4349
 1005MOL0     O35541   6.133   2.609   6.993  0.0054  0.8246 -0.1108
 1005MOL0     C35542   6.193   2.713   6.992 -0.3989 -1.3523  0.9018
 1005MOL0     O35543   6.147   2.832   6.948  1.2152 -0.1811  0.2607
 1005MOL0     C35544   6.013   2.843   6.909 -0.1145 -0.0075  0.7684
 1005MOL0     C35545   5.912   2.820   7.000 -0.1135 -0.2653  0.0480
 1005MOL0     C35546   5.787   2.817   6.955  0.3435 -0.6208  0.5919
 1005MOL0     C35547   5.753   2.841   6.821  0.2540  0.1566 -0.8215
 1005MOL0     O35548   5.623   2.822   6.785 -0.3281 -0.3170 -0.2033
 1005MOL0     C35549   5.586   2.735   6.680  0.0850 -0.4626  0.4583
 1005MOL0     C35550   5.491   2.818   6.589  0.4147 -0.0111 -0.0845
 1005MOL0     C35551   5.343   2.836   6.636 -0.4846 -0.3264  0.4230
 1005MOL0     C35552   5.265   2.945   6.547 -0.5186  0.1114 -0.6214
 1005MOL0     C35553   5.113   2.951   6.557 -0.3000  0.1168  0.4077
 1005MOL0     C35554   5.064   3.053   6.452 -0.4095  0.7065 -0.3384
 1005MOL0     C35555   4.913   3.042   6.437  0.4129 -0.1464 -0.4892
 1005MOL0     C35556   4.836   3.072   6.570 -0.7172 -0.0930 -0.7649
 1005MOL0     N35557   4.689   3.082   6.547  0.8349 -0.1338 -0.0100
 1005MOL0     C35558   4.602   3.003   6.475 -0.3665  1.2670 -0.9201
 1005MOL0     C35559   4.483   3.075   6.477 -0.8066  0.3985  0.8485
 1005MOL0     C35560   4.359   3.033   6.397  0.0614 -0.1089  0.0306
 1005MOL0     C35561   4.352   3.063   6.244  0.7189  0.7020 -0.1481
 1005MOL0     C35562   4.305   3.213   6.224  0.2788 -0.0407 -0.7093
 1005MOL0     C35563   4.410   3.321   6.249 -0.3864 -0.8492  0.2133
 1005MOL0     O35564   4.356   3.452   6.229 -0.2781 -1.0100 -0.7951
 1005MOL0     C35565   4.245   3.479   6.306  0.5543 -0.2299  0.6499
 1005MOL0     C35566   4.256   3.533   6.432 -0.4341  0.6787  0.5464
 1005MOL0     C35567   4.146   3.575   6.507 -0.0342 -0.2805 -0.0245
 1005MOL0     C35568   4.181   3.642   6.630 -0.3594 -0.6707 -1.0947
 1005MOL0     C35569   4.015   3.555   6.455  0.3537  0.0822  0.6514
 1005MOL0     C35570   3.890   3.564   6.537  0.2297 -0.3142  0.3614
 1005MOL0     O35571   3.891   3.629   6.653 -0.0225  0.6727  0.4680
 1005MOL0     C35572   3.781   3.616   6.736  0.3741  0.1338  0.2581
 1005MOL0     C35573   3.785   3.586   6.874 -1.4957 -0.2456 -0.6318
 1005MOL0     C35574   3.681   3.580   6.963 -0.2621 -0.5169 -0.1797
 1005MOL0     C35575   3.549   3.611   6.919  0.2372  0.4707  0.2061
 1005MOL0     O35576   3.432   3.618   7.001  0.1114  0.6130  0.5581
 1005MOL0     C35577   3.429   3.522   7.111  0.5877  1.1093  0.3520
 1005MOL0     C35578   3.286   3.519   7.166 -0.3199 -0.0446  0.1280
 1005MOL0     C35579   3.201   3.444   7.060 -0.0658  0.9816  0.0232
 1005MOL0     C35580   3.051   3.457   7.108 -1.3708 -0.3594  0.2021
 1005MOL0     C35581   2.971   3.582   7.053  0.3304 -0.3578 -0.9236
 1005MOL0     C35582   2.839   3.599   7.143  0.6512  0.3918 -0.2907
 1005MOL0     C35583   2.743   3.684   7.066 -0.0094 -0.0491 -0.4145
 1005MOL0     C35584   2.731   3.816   7.138  0.6189  0.0771 -0.5751
 1005MOL0    Cl35585   2.847   3.940   7.084  0.3931  0.0787  0.4741
 1005MOL0     C35586   3.536   3.651   6.784  0.2849  0.4067  0.7300
 1005MOL0     C35587   3.649   3.654   6.697  0.7235  0.1244 -0.1889
 1005MOL0     O35588   3.787   3.520   6.476 -0.4485 -0.4904 -0.5395
 1005MOL0     C35589   4.002   3.503   6.323  1.0271  0.4450  0.0645
 1005MOL0     C35590   4.116   3.467   6.252  0.0240 -0.0885 -0.4834
 1005MOL0     N35591   4.501   3.187   6.542 -0.2664 -0.9350  0.1145
 1005MOL0     N35592   4.617   3.197   6.585 -0.6826  0.5794 -0.7302
 1005MOL0     C35593   5.855   2.877   6.731 -0.4099  0.1620 -0.0794
 1005MOL0     C35594   5.990   2.872   6.772  0.5614  0.0766 -0.4807
 1005MOL0     C35595   6.325   2.707   7.058  0.0390 -0.6808 -0.4116
 1005MOL0     C35596   6.386   2.587   7.081 -0.0691  0.1240  0.2022
 1005MOL0     C35597   6.520   2.598   7.124 -0.5442  0.6184 -0.2686
 1005MOL0     C35598   6.593   2.710   7.154  0.5006 -0.2839 -0.3892
 1005MOL0     O35599   6.724   2.696   7.207  0.3498  0.3725  0.0473
 1005MOL0     C35600   6.800   2.813   7.235  0.1019 -0.7172  0.0781
 1005MOL0     C35601   6.932   2.783   7.295  0.4217  0.3457 -0.3744
 1005MOL0     C35602   7.025   2.714   7.206 -0.2330  0.4637 -0.2356
 1005MOL0     C35603   7.162   2.678   7.272  0.1616 -0.0618 -0.6288
 1005MOL0     C35604   7.232   2.571   7.200  0.1509  0.6461 -0.8149
 1005MOL0     C35605   7.302   2.482   7.161 -0.9368 -0.5611 -0.6878
 1005MOL0     C35606   6.530   2.830   7.115  0.2974 -0.5751  0.1905
 1005MOL0     C35607   6.398   2.826   7.077 -0.3044  0.1352  1.2916
 1005MOL0     H35608   5.935   2.790   7.102  1.6605 -2.0090 -0.7866
 1005MOL0     H35609   5.699   2.779   7.006  0.8075 -2.1409  0.3243
 1005MOL0     H35610   5.667   2.694   6.620 -2.0481 -2.9945 -0.9259
 1005MOL0     H35611   5.543   2.644   6.723  1.4773 -2.7942 -2.7047
 1005MOL0     H35612   5.531   2.918   6.574 -0.5206  0.6824  1.8364
 1005MOL0     H35613   5.484   2.769   6.491 -1.1001 -0.1084  0.0403
 1005MOL0     H35614   5.305   2.735   6.618  0.3481 -0.7407  0.9157
 1005MOL0     H35615   5.345   2.878   6.737 -1.3051  3.9188 -1.1233
 1005MOL0     H35616   5.305   3.045   6.563 -0.6456 -0.0536  0.9597
 1005MOL0     H35617   5.282   2.915   6.443  1.0574  0.6634 -0.5471
 1005MOL0     H35618   5.075   2.852   6.531 -1.0558  0.2490  0.9615
 1005MOL0     H35619   5.084   2.981   6.658  0.2636 -0.2142  0.6765
 1005MOL0     H35620   5.084   3.157   6.477  1.7550  0.7236 -1.8909
 1005MOL0     H35621   5.111   3.032   6.356 -1.5116 -0.9246 -0.5749
 1005MOL0     H35622   4.879   3.115   6.363  0.4873  0.7061  0.2917
 1005MOL0     H35623   4.890   2.941   6.402  4.0333 -0.0883 -3.6732
 1005MOL0     H35624   4.866   3.169   6.609 -2.2840 -0.6982  2.2995
 1005MOL0     H35625   4.864   3.001   6.648  1.4799 -1.3341 -2.5555
 1005MOL0     H35626   4.628   2.912   6.422  5.0765 -0.3740  3.5394
 1005MOL0     H35627   4.344   2.925   6.410 -2.0359 -0.1702 -2.1620
 1005MOL0     H35628   4.273   3.077   6.449  0.5016 -1.2173  1.7577
 1005MOL0     H35629   4.266   3.009   6.204  2.4548 -0.4601 -2.5932
 1005MOL0     H35630   4.441   3.030   6.190 -0.8164 -3.7015 -0.3491
 1005MOL0     H35631   4.222   3.225   6.293  1.7866 -0.1738  1.2227
 1005MOL0     H35632   4.268   3.233   6.123 -0.6296  2.4113  0.0443
 1005MOL0     H35633   4.495   3.307   6.182  0.8519 -0.9553  1.7329
 1005MOL0     H35634   4.451   3.318   6.351 -1.2537 -2.4725  0.5607
 1005MOL0     H35635   4.359   3.546   6.462 -0.7914 -0.4074  2.3917
 1005MOL0     H35636   4.132   3.594   6.715 -1.7005 -1.3018 -2.1755
 1005MOL0     H35637   4.287   3.643   6.653 -0.4377 -0.7162 -0.7268
 1005MOL0     H35638   4.151   3.747   6.626 -1.0060 -0.8692 -2.2936
 1005MOL0     H35639   3.879   3.552   6.914 -2.9961 -2.7591  1.0763
 1005MOL0     H35640   3.700   3.542   7.063  0.9282 -5.0827 -1.8836
 1005MOL0     H35641   3.440   3.421   7.071 -0.4363  0.6699  1.1315
 1005MOL0     H35642   3.497   3.545   7.194  2.1740 -1.3163 -0.1732
 1005MOL0     H35643   3.272   3.451   7.251 -3.0648 -0.7540 -0.8105
 1005MOL0     H35644   3.261   3.625   7.178  0.6209  0.0528  1.5599
 1005MOL0     H35645   3.222   3.337   7.065 -1.4251  0.7430  1.4335
 1005MOL0     H35646   3.206   3.483   6.958  2.2442 -2.3715 -1.3314
 1005MOL0     H35647   3.001   3.361   7.090 -0.2776 -1.3610  2.1514
 1005MOL0     H35648   3.049   3.453   7.217  0.4384  1.1586  0.3368
 1005MOL0     H35649   2.937   3.551   6.954  0.0595 -0.0756 -0.9190
 1005MOL0     H35650   3.024   3.677   7.062  0.1091 -0.4507  3.8839
 1005MOL0     H35651   2.788   3.505   7.166 -0.2423  1.0241  0.3909
 1005MOL0     H35652   2.871   3.638   7.240  0.4158 -0.3473  0.0882
 1005MOL0     H35653   2.645   3.635   7.065 -0.5533  0.9808  0.4792
 1005MOL0     H35654   2.768   3.700   6.961  1.5389  0.7533  0.0496
 1005MOL0     H35655   2.725   3.807   7.247 -1.1109 -1.9776 -0.7801
 1005MOL0     H35656   2.631   3.855   7.115  0.9299  1.5236  0.3922
 1005MOL0     H35657   3.442   3.687   6.743  1.2720  1.9736 -0.2902
 1005MOL0     H35658   3.643   3.703   6.601  0.1248  0.1138 -0.1554
 1005MOL0     H35659   3.903   3.504   6.278 -0.1993 -3.5055  2.1881
 1005MOL0     H35660   4.102   3.443   6.147  4.0560 -0.2171 -1.1791
 1005MOL0     H35661   5.826   2.901   6.629  3.7166 -1.4153 -1.8362
 1005MOL0     H35662   6.071   2.886   6.702  1.7599 -0.8094  0.6717
 1005MOL0     H35663   6.352   2.485   7.069 -0.5748  0.0651  1.9151
 1005MOL0     H35664   6.567   2.507   7.159  0.2833  1.9161  2.2007
 1005MOL0     H35665   6.814   2.884   7.153  1.3045  1.1369  1.7787
 1005MOL0     H35666   6.737   2.864   7.309  0.0243 -0.0220 -0.4610
 1005MOL0     H35667   6.920   2.734   7.392 -0.2245  0.3812 -0.4329
 1005MOL0     H35668   6.982   2.879   7.312  2.1758 -0.3820 -1.2393
 1005MOL0     H35669   7.050   2.785   7.127 -0.3603 -0.4252 -1.0919
 1005MOL0     H35670   6.983   2.625   7.157  0.4814  0.4412 -0.8270
 1005MOL0     H35671   7.132   2.636   7.369  0.9320  2.0142  0.5802
 1005MOL0     H35672   7.227   2.765   7.279 -0.6514  0.6017 -1.1920
 1005MOL0     H35673   7.383   2.418   7.130  1.9975  2.2096  0.6466
 1005MOL0     H35674   6.575   2.928   7.124  0.1251 -0.4724 -0.0773
 1005MOL0     H35675   6.357   2.920   7.039  0.3164  0.0276  0.3085
 1006MOL0     O35676   0.987   6.682   2.463  0.5074 -0.7639 -0.3092
 1006MOL0     C35677   1.056   6.756   2.383 -0.0438 -0.1704  0.5282
 1006MOL0     O35678   0.999   6.865   2.312 -0.7155 -0.4871  0.4815
 1006MOL0     C35679   0.867   6.898   2.341  0.0683 -0.7400 -0.7105
 1006MOL0     C35680   0.851   6.965   2.467  0.6162 -0.0668 -0.1396
 1006MOL0     C35681   0.716   7.003   2.511 -1.3378  0.1823 -0.7603
 1006MOL0     C35682   0.608   6.987   2.423 -0.0594  0.3626  0.1128
 1006MOL0     O35683   0.484   7.030   2.453  0.3075  0.0184  0.4061
 1006MOL0     C35684   0.452   7.084   2.586  0.3782 -0.1747  0.4475
 1006MOL0     C35685   0.304   7.105   2.582 -0.1270  0.1210 -0.2297
 1006MOL0     C35686   0.268   7.208   2.688  0.5956 -0.9612 -0.1088
 1006MOL0     C35687   0.123   7.223   2.704 -0.0971 -0.1052  0.3212
 1006MOL0     C35688   0.068   7.146   2.823 -0.2533  0.0549 -0.4701
 1006MOL0     C35689  -0.047   7.212   2.899  0.6307 -0.2013  0.6306
 1006MOL0     C35690  -0.170   7.233   2.804  0.0137 -0.9303 -0.1781
 1006MOL0     C35691  -0.312   7.246   2.870 -0.7030 -0.0174  0.3678
 1006MOL0     N35692  -0.416   7.262   2.771 -0.1105 -0.5425 -0.2064
 1006MOL0     C35693  -0.445   7.375   2.690 -0.5609 -0.6919  0.6196
 1006MOL0     C35694  -0.536   7.327   2.599 -0.0998 -0.1634 -0.3371
 1006MOL0     C35695  -0.586   7.409   2.490 -0.2660  0.9434  0.3627
 1006MOL0     C35696  -0.673   7.516   2.561 -0.3350 -0.0046  0.8650
 1006MOL0     C35697  -0.763   7.607   2.484 -0.1109 -0.1800 -0.1370
 1006MOL0     C35698  -0.887   7.546   2.434 -0.8467 -0.3987  1.1685
 1006MOL0     O35699  -0.980   7.652   2.370 -0.1984 -0.2499 -0.4174
 1006MOL0     C35700  -1.115   7.616   2.359 -0.2474 -0.0630  0.0330
 1006MOL0     C35701  -1.164   7.488   2.369 -0.7987 -0.0676 -0.3762
 1006MOL0     C35702  -1.301   7.448   2.351  0.1210  0.1367 -0.2266
 1006MOL0     C35703  -1.321   7.293   2.347 -0.0005 -0.1082  0.3195
 1006MOL0     C35704  -1.398   7.549   2.316 -0.0278 -0.1195  0.3479
 1006MOL0     C35705  -1.538   7.523   2.262  0.6526  1.1127  0.2607
 1006MOL0     O35706  -1.629   7.624   2.233  0.3030 -0.4832  0.1417
 1006MOL0     C35707  -1.754   7.585   2.193  0.0991  0.9690 -0.4970
 1006MOL0     C35708  -1.782   7.513   2.074 -0.0054 -1.0404 -1.0871
 1006MOL0     C35709  -1.910   7.489   2.032  0.6987 -0.8056  0.0391
 1006MOL0     C35710  -2.023   7.533   2.110  0.2257 -0.5180 -0.0019
 1006MOL0     O35711  -2.152   7.497   2.062  0.4207  0.3551  1.0149
 1006MOL0     C35712  -2.264   7.516   2.153  0.2742 -0.5482  0.9527
 1006MOL0     C35713  -2.250   7.416   2.262  0.0128 -0.4253  0.0761
 1006MOL0     C35714  -2.376   7.418   2.346 -0.4629 -0.7116  0.1403
 1006MOL0     C35715  -2.485   7.329   2.290 -0.5170  0.2898 -0.4828
 1006MOL0     C35716  -2.611   7.307   2.372  0.8351  0.9018  0.0026
 1006MOL0     C35717  -2.715   7.224   2.293  0.2657 -0.9415  0.2157
 1006MOL0     C35718  -2.850   7.211   2.373 -0.2737  0.4335  0.0007
 1006MOL0     C35719  -2.952   7.122   2.307  0.2641  0.4250 -0.6462
 1006MOL0    Cl35720  -2.913   6.949   2.344  0.1774 -0.0157  0.4486
 1006MOL0     C35721  -1.994   7.605   2.227 -0.4115 -0.7934  0.1808
 1006MOL0     C35722  -1.862   7.631   2.270 -0.3241  0.3797 -0.4521
 1006MOL0     O35723  -1.569   7.404   2.266  0.3334  0.2600  0.2977
 1006MOL0     C35724  -1.348   7.683   2.296  0.4969  1.3426  0.1476
 1006MOL0     C35725  -1.211   7.712   2.313  0.5335 -0.3438 -0.6960
 1006MOL0     N35726  -0.560   7.197   2.629 -0.3077  0.5727  0.0595
 1006MOL0     N35727  -0.493   7.160   2.734  0.1211  0.6831  0.1529
 1006MOL0     C35728   0.624   6.934   2.296  0.8470 -0.5904 -0.4767
 1006MOL0     C35729   0.753   6.891   2.258  0.3958  0.1978  0.7820
 1006MOL0     C35730   1.208   6.727   2.363  0.0910  0.1721  0.1243
 1006MOL0     C35731   1.252   6.604   2.396  0.2962  0.1373 -0.6791
 1006MOL0     C35732   1.382   6.568   2.366 -0.4914  0.0746 -0.0276
 1006MOL0     C35733   1.471   6.661   2.306 -0.5237  0.2805 -0.4452
 1006MOL0     O35734   1.600   6.623   2.279 -0.3541  0.4321  0.2479
 1006MOL0     C35735   1.688   6.690   2.185  0.6519  0.0334  0.4729
 1006MOL0     C35736   1.828   6.633   2.194 -0.6244  0.1477 -0.7657
 1006MOL0     C35737   1.834   6.499   2.100  0.8918 -0.7429  0.8267
 1006MOL0     C35738   1.976   6.447   2.093 -0.3258 -1.2478 -0.0574
 1006MOL0     C35739   2.033   6.419   2.225  0.2082 -0.4085  0.5105
 1006MOL0     C35740   2.108   6.403   2.323  0.6919  0.5366  0.3333
 1006MOL0     C35741   1.431   6.793   2.283  0.3215  0.4159 -0.3758
 1006MOL0     C35742   1.295   6.824   2.316  0.0244  0.5041 -0.8289
 1006MOL0     H35743   0.942   6.976   2.525  2.0265 -3.9336 -1.3060
 1006MOL0     H35744   0.709   7.051   2.607  1.7349  4.1874 -2.2518
 1006MOL0     H35745   0.489   7.020   2.667  1.7719  0.1738  0.1092
 1006MOL0     H35746   0.496   7.184   2.583  0.5932 -0.2996 -1.3642
 1006MOL0     H35747   0.260   7.121   2.483 -3.6479 -2.0210  0.8161
 1006MOL0     H35748   0.267   7.008   2.617  0.0749  0.3793  0.7044
 1006MOL0     H35749   0.308   7.181   2.787  1.3012  0.5880  0.0667
 1006MOL0     H35750   0.318   7.303   2.664 -1.8248 -0.1223 -2.1830
 1006MOL0     H35751   0.088   7.327   2.709 -2.3705 -0.7570 -0.7297
 1006MOL0     H35752   0.077   7.185   2.612  2.2466 -0.5970 -0.7192
 1006MOL0     H35753   0.033   7.045   2.797 -3.4655  0.3035  2.3378
 1006MOL0     H35754   0.143   7.151   2.903 -0.4753 -2.4591 -0.0028
 1006MOL0     H35755  -0.074   7.149   2.984 -1.4875  0.4391  0.4967
 1006MOL0     H35756  -0.008   7.310   2.928  0.4964 -0.2791  1.0782
 1006MOL0     H35757  -0.148   7.325   2.749 -2.7088  0.3157  0.6178
 1006MOL0     H35758  -0.181   7.153   2.730 -4.1213 -0.1883 -0.6008
 1006MOL0     H35759  -0.315   7.316   2.954  1.3599  0.8580 -0.2207
 1006MOL0     H35760  -0.319   7.151   2.923  2.7153 -0.9165 -0.5270
 1006MOL0     H35761  -0.414   7.479   2.700  0.0114 -0.7769 -0.1947
 1006MOL0     H35762  -0.507   7.441   2.422  2.1227 -1.0202  2.0086
 1006MOL0     H35763  -0.662   7.355   2.433  1.4632 -0.2773 -0.9193
 1006MOL0     H35764  -0.595   7.568   2.617 -1.0122  1.8871  0.1162
 1006MOL0     H35765  -0.733   7.463   2.636 -0.3780  1.1381  1.6651
 1006MOL0     H35766  -0.699   7.651   2.406  1.1693  0.3501  1.1675
 1006MOL0     H35767  -0.794   7.686   2.552  0.0161 -1.3451  1.3365
 1006MOL0     H35768  -0.936   7.482   2.508 -1.3540  1.2205  2.2894
 1006MOL0     H35769  -0.855   7.485   2.349  0.0506  1.2092  0.3129
 1006MOL0     H35770  -1.098   7.405   2.392 -0.3152 -0.2960 -2.3972
 1006MOL0     H35771  -1.355   7.270   2.245 -0.3203 -0.1020  0.4224
 1006MOL0     H35772  -1.228   7.244   2.375  1.1619  0.9004 -1.5807
 1006MOL0     H35773  -1.394   7.256   2.419 -0.1702 -1.3305 -0.4612
 1006MOL0     H35774  -1.694   7.489   2.017  1.6133  4.0015 -1.2429
 1006MOL0     H35775  -1.930   7.422   1.949 -1.0138  1.1290 -1.2332
 1006MOL0     H35776  -2.257   7.619   2.187  0.1252 -0.0896 -0.3682
 1006MOL0     H35777  -2.354   7.506   2.092  2.0785  0.2782 -2.0281
 1006MOL0     H35778  -2.232   7.319   2.213 -1.1517 -2.0761  2.6530
 1006MOL0     H35779  -2.170   7.434   2.334 -0.2706 -1.6904  0.7488
 1006MOL0     H35780  -2.419   7.519   2.351 -1.2838 -0.9779 -1.0563
 1006MOL0     H35781  -2.341   7.383   2.443 -0.9313 -0.3456  0.4474
 1006MOL0     H35782  -2.504   7.362   2.188  1.7090  0.1644 -0.9927
 1006MOL0     H35783  -2.432   7.233   2.288  1.2813  1.2490 -0.6686
 1006MOL0     H35784  -2.660   7.400   2.403  0.6885  1.5012 -1.9134
 1006MOL0     H35785  -2.582   7.249   2.460  0.6468 -1.2354 -1.2853
 1006MOL0     H35786  -2.741   7.262   2.194 -2.9515 -2.3100  0.4177
 1006MOL0     H35787  -2.674   7.126   2.268 -0.1187 -0.8966 -0.6088
 1006MOL0     H35788  -2.887   7.314   2.382  0.1514  0.6658 -0.7905
 1006MOL0     H35789  -2.839   7.167   2.472 -1.8683 -0.4250 -0.1801
 1006MOL0     H35790  -2.975   7.143   2.202 -1.1985 -0.6342 -0.5843
 1006MOL0     H35791  -3.044   7.138   2.364 -0.7461 -2.2396 -1.3411
 1006MOL0     H35792  -2.076   7.644   2.284  0.6884  1.6171  0.2190
 1006MOL0     H35793  -1.846   7.679   2.366 -1.7752  1.6497 -0.7988
 1006MOL0     H35794  -1.415   7.764   2.270 -2.6897 -1.7949 -2.3380
 1006MOL0     H35795  -1.181   7.812   2.285  2.2771 -1.1108 -1.7057
 1006MOL0     H35796   0.533   6.928   2.236  0.1520  1.1455  0.3148
 1006MOL0     H35797   0.766   6.866   2.153  4.4743  3.4846  0.2100
 1006MOL0     H35798   1.176   6.534   2.429  0.7523  1.0624  2.6406
 1006MOL0     H35799   1.424   6.472   2.393 -0.1822  0.1548 -0.2179
 1006MOL0     H35800   1.646   6.681   2.085  1.0714  0.4841  0.2515
 1006MOL0     H35801   1.695   6.799   2.193  1.5947  0.6041 -4.5848
 1006MOL0     H35802   1.839   6.612   2.301 -0.9458  0.0959 -0.7421
 1006MOL0     H35803   1.892   6.707   2.146 -1.7622  0.7375 -1.4153
 1006MOL0     H35804   1.785   6.523   2.006  0.0775 -2.3130  0.8279
 1006MOL0     H35805   1.772   6.412   2.122 -1.0427 -0.8096 -3.7779
 1006MOL0     H35806   2.044   6.524   2.054 -1.6861  1.3146  2.2346
 1006MOL0     H35807   1.984   6.352   2.041  1.5868 -1.2942  0.2580
 1006MOL0     H35808   2.177   6.386   2.404 -0.5326 -1.4539  1.0235
 1006MOL0     H35809   1.493   6.869   2.236  1.6186 -0.1038  0.4454
 1006MOL0     H35810   1.255   6.921   2.290  1.7584  1.5023  0.0612
 1007MOL0     O35811   8.580   4.814   4.737 -0.1506  0.3109  0.3591
 1007MOL0     C35812   8.626   4.700   4.719 -0.0520 -0.2863  0.0667
 1007MOL0     O35813   8.558   4.602   4.653 -0.3931  0.0731  0.0058
 1007MOL0     C35814   8.440   4.635   4.598 -0.8736  0.3708  0.4115
 1007MOL0     C35815   8.427   4.646   4.459 -0.5484 -1.3458  0.4053
 1007MOL0     C35816   8.304   4.678   4.392  0.9525 -0.1772 -0.0752
 1007MOL0     C35817   8.189   4.696   4.474 -0.3707  0.6585  0.4379
 1007MOL0     O35818   8.064   4.727   4.433 -0.4830  0.2253  1.3539
 1007MOL0     C35819   8.062   4.824   4.331 -0.0747 -0.1225  0.4610
 1007MOL0     C35820   7.935   4.914   4.330  0.2598 -0.2129  0.1140
 1007MOL0     C35821   7.920   4.981   4.464  0.1718  0.2242 -1.0061
 1007MOL0     C35822   7.795   5.061   4.468 -0.6630 -0.5846  0.0515
 1007MOL0     C35823   7.751   5.089   4.611  0.9266  0.1188  0.3691
 1007MOL0     C35824   7.722   4.961   4.697  0.5531  0.3426 -0.2763
 1007MOL0     C35825   7.633   4.854   4.623  0.4979  0.1933  0.1670
 1007MOL0     C35826   7.489   4.909   4.600 -0.0718  0.9323 -0.3841
 1007MOL0     N35827   7.394   4.819   4.532  0.0393 -0.6782  0.3478
 1007MOL0     C35828   7.331   4.724   4.599 -0.1162  0.1851 -0.0959
 1007MOL0     C35829   7.264   4.649   4.507 -0.0202 -0.5009  0.2504
 1007MOL0     C35830   7.202   4.508   4.554  0.7711  0.5303  0.6918
 1007MOL0     C35831   7.112   4.434   4.462 -0.1397 -0.1220 -0.2210
 1007MOL0     C35832   7.081   4.303   4.530 -0.4144 -0.2081 -0.0857
 1007MOL0     C35833   6.964   4.222   4.461 -0.3535  0.0444  1.2245
 1007MOL0     O35834   6.994   4.197   4.318  0.4426  0.1716  0.3981
 1007MOL0     C35835   6.870   4.161   4.252  0.1705  0.4979  0.8544
 1007MOL0     C35836   6.840   4.227   4.127 -0.2158 -0.1613 -0.2335
 1007MOL0     C35837   6.712   4.199   4.065 -0.2767 -0.2385 -0.4038
 1007MOL0     C35838   6.682   4.287   3.941  1.0960  0.5756  0.2800
 1007MOL0     C35839   6.623   4.099   4.109  0.1218 -0.4410 -0.4000
 1007MOL0     C35840   6.507   4.057   4.040  0.3513  0.0011  0.2592
 1007MOL0     O35841   6.466   3.928   4.072  0.0504  0.2472  0.0347
 1007MOL0     C35842   6.334   3.900   4.052 -0.1381  0.1286  0.4915
 1007MOL0     C35843   6.285   3.837   3.931 -0.2013  0.0146 -0.0533
 1007MOL0     C35844   6.151   3.814   3.906  0.3301 -0.2389 -0.3901
 1007MOL0     C35845   6.051   3.837   4.005 -0.6582  0.2546  0.7694
 1007MOL0     O35846   5.914   3.797   3.990 -0.5636 -0.0154 -0.1004
 1007MOL0     C35847   5.855   3.813   3.852 -1.7154 -0.8659 -0.0206
 1007MOL0     C35848   5.700   3.805   3.860  0.3825 -0.1284  0.1303
 1007MOL0     C35849   5.630   3.917   3.939  0.7735  0.4723 -0.4692
 1007MOL0     C35850   5.486   3.862   3.976  0.3504  0.1730 -0.7180
 1007MOL0     C35851   5.402   3.960   4.056 -0.2725  1.0606  0.3351
 1007MOL0     C35852   5.381   4.089   3.973 -0.2541 -0.0968  0.8806
 1007MOL0     C35853   5.312   4.064   3.844  0.0978  0.1597  0.6043
 1007MOL0     C35854   5.269   4.201   3.791  0.1576 -0.0099  0.8517
 1007MOL0    Cl35855   5.117   4.243   3.878  0.1924 -0.2119 -0.3040
 1007MOL0     C35856   6.101   3.889   4.121 -0.0688 -0.9736 -1.0416
 1007MOL0     C35857   6.241   3.917   4.150  0.0025 -1.1408  0.4632
 1007MOL0     O35858   6.445   4.129   3.965  0.3161  0.1555 -0.3391
 1007MOL0     C35859   6.667   4.034   4.226 -1.1262 -0.6930 -0.1108
 1007MOL0     C35860   6.785   4.060   4.299  0.1515 -0.2896  0.1245
 1007MOL0     N35861   7.288   4.714   4.378  0.1321  0.7038 -0.5909
 1007MOL0     N35862   7.365   4.815   4.398 -0.7135 -0.1712  1.1974
 1007MOL0     C35863   8.196   4.673   4.614 -0.3187 -0.1390  0.8123
 1007MOL0     C35864   8.317   4.638   4.672 -1.3528  0.5295  0.1569
 1007MOL0     C35865   8.768   4.671   4.745  0.2518  0.1477 -0.6600
 1007MOL0     C35866   8.848   4.775   4.800 -0.0171  0.0960  1.2068
 1007MOL0     C35867   8.988   4.772   4.798 -0.3413  1.4901  0.4207
 1007MOL0     C35868   9.053   4.662   4.746  0.6517 -0.0058 -0.1493
 1007MOL0     O35869   9.187   4.665   4.746 -0.5093  0.8996  0.2466
 1007MOL0     C35870   9.242   4.579   4.848 -0.1361  0.2152 -0.0231
 1007MOL0     C35871   9.388   4.588   4.888  0.0049 -1.5197 -0.2178
 1007MOL0     C35872   9.429   4.496   4.998  0.6707  0.0361  0.5152
 1007MOL0     C35873   9.434   4.336   4.972  0.1897 -1.3346 -0.4785
 1007MOL0     C35874   9.559   4.305   4.898 -0.2084  0.5539 -0.8306
 1007MOL0     C35875   9.664   4.278   4.840  0.7877 -0.6070 -0.2607
 1007MOL0     C35876   8.971   4.561   4.682  0.0225 -0.1207 -0.1461
 1007MOL0     C35877   8.832   4.570   4.684  0.6400 -0.2062  0.6851
 1007MOL0     H35878   8.518   4.628   4.403  0.5938  0.1369  1.6779
 1007MOL0     H35879   8.291   4.688   4.285 -0.8903 -0.6179  0.0812
 1007MOL0     H35880   8.152   4.884   4.345 -0.7226  0.4388  2.7450
 1007MOL0     H35881   8.069   4.775   4.234  2.1848 -0.9501  0.9649
 1007MOL0     H35882   7.949   4.995   4.258 -0.6334  0.3186  0.5237
 1007MOL0     H35883   7.842   4.860   4.311  0.0114 -0.3332  1.5348
 1007MOL0     H35884   7.909   4.898   4.534 -1.2948  2.1099  1.1542
 1007MOL0     H35885   8.008   5.038   4.498  1.9577 -2.4634 -0.8489
 1007MOL0     H35886   7.813   5.147   4.403  2.7510 -0.4508  1.0180
 1007MOL0     H35887   7.707   5.009   4.427 -0.7546 -0.0909 -0.3935
 1007MOL0     H35888   7.834   5.138   4.664  1.7171 -0.9048  0.1043
 1007MOL0     H35889   7.671   5.164   4.612  2.7126  2.1644  2.6210
 1007MOL0     H35890   7.816   4.911   4.721  1.7336  1.3715 -2.3804
 1007MOL0     H35891   7.667   4.995   4.785 -0.8154 -0.3658 -0.8270
 1007MOL0     H35892   7.687   4.818   4.535  0.1122  0.4272 -0.1618
 1007MOL0     H35893   7.623   4.761   4.681 -2.6241 -1.5451 -2.8663
 1007MOL0     H35894   7.494   5.003   4.544 -3.3597  1.6660  0.3168
 1007MOL0     H35895   7.444   4.944   4.693  0.3386 -1.7377  0.9237
 1007MOL0     H35896   7.329   4.708   4.706  0.3917 -0.7445 -0.2158
 1007MOL0     H35897   7.285   4.442   4.580 -0.5434 -1.7471 -0.6184
 1007MOL0     H35898   7.148   4.528   4.647  1.9054  0.4287  1.4040
 1007MOL0     H35899   7.173   4.409   4.375 -1.4261  0.3054 -1.2671
 1007MOL0     H35900   7.020   4.484   4.432 -0.2244  0.3216  0.7273
 1007MOL0     H35901   7.058   4.316   4.636  0.0516  2.4201 -0.2286
 1007MOL0     H35902   7.172   4.242   4.524 -0.6304 -0.5294 -0.1307
 1007MOL0     H35903   6.880   4.291   4.476  0.2045  0.8286  0.8265
 1007MOL0     H35904   6.954   4.129   4.518  0.9226  0.4648  2.1963
 1007MOL0     H35905   6.898   4.303   4.075  0.0904 -0.7012 -0.6941
 1007MOL0     H35906   6.653   4.222   3.858  0.5620 -0.2909  1.1247
 1007MOL0     H35907   6.596   4.353   3.955  0.1033 -0.0078 -2.4582
 1007MOL0     H35908   6.763   4.357   3.919  2.6977 -0.6056  2.0250
 1007MOL0     H35909   6.352   3.804   3.852 -1.8418 -0.9610 -1.1098
 1007MOL0     H35910   6.127   3.759   3.816  1.6535  0.5514 -1.2660
 1007MOL0     H35911   5.875   3.912   3.811  1.8350 -0.4356  2.3536
 1007MOL0     H35912   5.902   3.739   3.786 -3.2176 -0.1480 -1.9831
 1007MOL0     H35913   5.662   3.807   3.758 -0.7346  0.2620  0.5434
 1007MOL0     H35914   5.675   3.706   3.901  0.7090 -0.5561 -0.6972
 1007MOL0     H35915   5.608   4.005   3.878 -0.6283 -0.0920 -0.8160
 1007MOL0     H35916   5.693   3.946   4.024  2.0370  1.3347 -1.6477
 1007MOL0     H35917   5.428   3.838   3.886 -0.0823  0.2553 -0.4626
 1007MOL0     H35918   5.485   3.768   4.032 -0.2625  0.2839 -0.5420
 1007MOL0     H35919   5.438   3.978   4.158 -1.4555  0.4067  0.8835
 1007MOL0     H35920   5.307   3.907   4.066  0.0802  0.7360  2.5499
 1007MOL0     H35921   5.316   4.154   4.031 -2.1748 -0.9028 -0.2679
 1007MOL0     H35922   5.465   4.157   3.956 -1.0731  1.1299  1.6072
 1007MOL0     H35923   5.232   3.991   3.857  3.1624 -3.1212  2.7721
 1007MOL0     H35924   5.387   4.020   3.777  1.0868  0.8635  1.2102
 1007MOL0     H35925   5.247   4.190   3.684 -2.2929 -0.1410  1.3018
 1007MOL0     H35926   5.347   4.275   3.807  0.4713 -0.6553  2.5102
 1007MOL0     H35927   6.029   3.904   4.201  0.6184 -0.0351 -0.5926
 1007MOL0     H35928   6.268   3.950   4.250  1.2858 -2.5998  0.6382
 1007MOL0     H35929   6.603   3.953   4.261 -0.7395  0.5163  3.8338
 1007MOL0     H35930   6.815   4.004   4.387 -0.7336  1.5355  1.6481
 1007MOL0     H35931   8.106   4.669   4.675  0.6199 -2.3559  2.1455
 1007MOL0     H35932   8.320   4.621   4.779 -3.0523  0.4548  0.2268
 1007MOL0     H35933   8.818   4.865   4.855  1.0083  0.7973  0.6482
 1007MOL0     H35934   9.047   4.857   4.831  0.3129  0.9057  0.7696
 1007MOL0     H35935   9.189   4.615   4.937  0.0370  2.5696 -0.8176
 1007MOL0     H35936   9.215   4.473   4.841  0.6498 -0.1090  1.4431
 1007MOL0     H35937   9.418   4.685   4.928 -0.5844 -2.0918  1.7367
 1007MOL0     H35938   9.449   4.574   4.798 -0.1346  4.2354 -1.5966
 1007MOL0     H35939   9.355   4.523   5.074  0.4332  1.4188 -0.1767
 1007MOL0     H35940   9.534   4.517   5.024  0.6452  0.6009  0.1588
 1007MOL0     H35941   9.348   4.299   4.915 -1.8088  1.9217  0.1811
 1007MOL0     H35942   9.433   4.280   5.065  1.1414 -0.0873  0.3157
 1007MOL0     H35943   9.752   4.253   4.784  1.9227  1.3028  0.5710
 1007MOL0     H35944   9.033   4.487   4.632  0.2118  0.3232 -0.5785
 1007MOL0     H35945   8.770   4.508   4.619 -1.7375 -0.2329  2.8204
 1008MOL0     O35946   7.060   3.462   2.208  0.5772 -0.3209  0.0482
 1008MOL0     C35947   7.098   3.387   2.117  0.0792  0.3028 -0.1198
 1008MOL0     O35948   7.020   3.311   2.037  0.0947 -0.7099 -0.4700
 1008MOL0     C35949   6.881   3.321   2.053  1.2295 -0.2135  0.8549
 1008MOL0     C35950   6.820   3.204   2.069 -1.2331  0.5956 -0.0266
 1008MOL0     C35951   6.680   3.199   2.076 -0.0505 -0.7491 -0.6901
 1008MOL0     C35952   6.601   3.316   2.057 -0.4428 -0.5211  0.3055
 1008MOL0     O35953   6.468   3.292   2.042  0.8138 -0.1068 -0.9566
 1008MOL0     C35954   6.379   3.405   2.051  0.5130 -0.4432  0.4016
 1008MOL0     C35955   6.243   3.357   2.090  0.5050 -0.0539 -0.0494
 1008MOL0     C35956   6.163   3.290   1.979  0.3274  0.3289  0.1926
 1008MOL0     C35957   6.033   3.229   2.045 -0.7663 -0.0308  0.6171
 1008MOL0     C35958   5.942   3.332   2.115 -0.4836 -0.2874 -0.3981
 1008MOL0     C35959   5.803   3.278   2.136 -0.6856 -0.2508  0.1023
 1008MOL0     C35960   5.726   3.361   2.241  0.2255  0.3219 -0.0816
 1008MOL0     C35961   5.784   3.321   2.384 -0.4374 -0.4755 -0.7950
 1008MOL0     N35962   5.705   3.375   2.493  0.1238 -0.0046 -0.7948
 1008MOL0     C35963   5.682   3.504   2.531 -0.3299 -1.3033 -0.6108
 1008MOL0     C35964   5.596   3.490   2.639  0.3958 -0.4021  0.6173
 1008MOL0     C35965   5.528   3.599   2.717 -1.2350  0.8742  0.1212
 1008MOL0     C35966   5.428   3.670   2.627  0.1131 -0.2601 -0.9859
 1008MOL0     C35967   5.295   3.592   2.618  0.3480 -0.6052 -0.8803
 1008MOL0     C35968   5.201   3.606   2.743 -0.6914 -0.2585  0.1097
 1008MOL0     O35969   5.071   3.543   2.709 -0.9439 -0.5491 -0.5901
 1008MOL0     C35970   4.955   3.590   2.753 -0.3422 -0.4512 -0.4020
 1008MOL0     C35971   4.837   3.530   2.701 -0.1652  0.9152  0.3536
 1008MOL0     C35972   4.715   3.577   2.737  0.5722  0.0404  0.7336
 1008MOL0     C35973   4.601   3.527   2.651  0.2440  0.5464  0.5466
 1008MOL0     C35974   4.708   3.682   2.830  0.3346 -0.5710  0.3800
 1008MOL0     C35975   4.579   3.743   2.877 -0.2011 -0.1763 -0.9053
 1008MOL0     O35976   4.578   3.875   2.910  0.8085 -0.4583 -0.1340
 1008MOL0     C35977   4.461   3.940   2.959 -0.2574 -0.4347  0.0645
 1008MOL0     C35978   4.419   3.897   3.086  0.0346  0.5458  0.1247
 1008MOL0     C35979   4.309   3.959   3.144 -0.4342 -0.2430  0.5272
 1008MOL0     C35980   4.235   4.048   3.075 -0.0133  0.0103  0.0410
 1008MOL0     O35981   4.118   4.089   3.142  0.4426 -0.2631 -0.2336
 1008MOL0     C35982   4.022   4.173   3.084 -0.2606 -0.2468  0.9550
 1008MOL0     C35983   3.910   4.195   3.188 -0.4874 -0.5730  0.1037
 1008MOL0     C35984   3.780   4.248   3.125 -0.1734 -0.0247 -0.3028
 1008MOL0     C35985   3.662   4.285   3.229  0.1536 -0.7305  0.5857
 1008MOL0     C35986   3.538   4.340   3.151 -0.9466 -0.4831 -0.0061
 1008MOL0     C35987   3.407   4.360   3.228  0.2147 -0.1674 -0.2437
 1008MOL0     C35988   3.281   4.373   3.138  0.2470  0.2162 -0.4892
 1008MOL0     C35989   3.153   4.343   3.216  0.0429 -0.0679  0.4944
 1008MOL0    Cl35990   3.008   4.346   3.105  0.1265 -0.0412 -0.1897
 1008MOL0     C35991   4.281   4.091   2.951  0.5617 -0.1541  0.3477
 1008MOL0     C35992   4.396   4.041   2.889 -0.5941  0.0079 -0.0291
 1008MOL0     O35993   4.485   3.666   2.887 -0.5415 -0.5196 -0.5318
 1008MOL0     C35994   4.824   3.734   2.894 -0.5065  0.3486 -0.2889
 1008MOL0     C35995   4.945   3.688   2.849  0.1285  0.5697 -0.0152
 1008MOL0     N35996   5.582   3.356   2.663 -0.1027  0.0565 -1.1604
 1008MOL0     N35997   5.629   3.293   2.567 -0.1874 -0.0983 -0.4529
 1008MOL0     C35998   6.674   3.437   2.035  1.0406  0.0349  0.1783
 1008MOL0     C35999   6.816   3.441   2.039 -0.2683 -0.2295 -0.2899
 1008MOL0     C36000   7.236   3.401   2.089 -0.0888  0.3408 -0.6479
 1008MOL0     C36001   7.287   3.401   1.953  0.6242  0.0951 -0.7825
 1008MOL0     C36002   7.426   3.419   1.934 -0.0736  0.1278 -0.3405
 1008MOL0     C36003   7.516   3.443   2.040  0.8214  0.6692 -0.1504
 1008MOL0     O36004   7.651   3.456   2.023 -0.2109  0.3299  0.3275
 1008MOL0     C36005   7.703   3.402   1.900  0.7236  0.7300  0.0348
 1008MOL0     C36006   7.855   3.415   1.879 -0.4531 -0.4841 -0.2090
 1008MOL0     C36007   7.931   3.312   1.973 -0.2588 -0.1250  0.7572
 1008MOL0     C36008   8.062   3.374   2.039  0.0581 -1.8915  0.5646
 1008MOL0     C36009   8.030   3.469   2.147  0.2614 -0.3617  0.0784
 1008MOL0     C36010   7.997   3.552   2.228  0.5236  0.1248 -1.0346
 1008MOL0     C36011   7.460   3.440   2.167  0.6864 -0.0294 -0.1792
 1008MOL0     C36012   7.328   3.428   2.196  0.0559 -0.4551  0.7091
 1008MOL0     H36013   6.882   3.117   2.084 -2.7059  0.0838  4.7385
 1008MOL0     H36014   6.623   3.113   2.111  0.7919 -1.1280 -0.2364
 1008MOL0     H36015   6.399   3.479   2.129  1.4561 -0.3679  0.0937
 1008MOL0     H36016   6.387   3.471   1.964  0.6952  3.2234  2.9378
 1008MOL0     H36017   6.252   3.284   2.170  1.2999 -0.9722 -0.9520
 1008MOL0     H36018   6.185   3.443   2.127 -0.2272 -0.7245  0.3863
 1008MOL0     H36019   6.134   3.360   1.900 -0.4315  0.0040  0.1771
 1008MOL0     H36020   6.216   3.211   1.926 -0.9962 -1.6826  1.7152
 1008MOL0     H36021   5.974   3.167   1.978 -2.1841  3.1808 -1.3602
 1008MOL0     H36022   6.077   3.164   2.121  2.2750  0.4174 -0.5821
 1008MOL0     H36023   5.975   3.363   2.215  0.3227  0.1508 -0.7968
 1008MOL0     H36024   5.930   3.425   2.059 -1.5568  0.2033  0.5943
 1008MOL0     H36025   5.758   3.285   2.036  0.1328  0.2156 -0.2472
 1008MOL0     H36026   5.810   3.175   2.171 -2.2239 -0.4689 -0.1674
 1008MOL0     H36027   5.737   3.470   2.230 -1.9384  0.8489  2.1656
 1008MOL0     H36028   5.618   3.348   2.248 -0.0573  2.0962 -0.5853
 1008MOL0     H36029   5.890   3.346   2.400 -0.4969 -0.0228 -1.1019
 1008MOL0     H36030   5.786   3.212   2.395  0.5957 -0.3840  0.2610
 1008MOL0     H36031   5.713   3.597   2.483 -1.0724 -1.1009 -0.6979
 1008MOL0     H36032   5.480   3.558   2.806  1.8269 -3.3832  0.1314
 1008MOL0     H36033   5.602   3.671   2.753  1.2363 -2.2012  1.7457
 1008MOL0     H36034   5.474   3.696   2.531  0.6335  0.5932 -0.5173
 1008MOL0     H36035   5.401   3.764   2.676 -2.6723 -1.6041  0.2743
 1008MOL0     H36036   5.314   3.486   2.596  1.1768 -0.9455  1.2549
 1008MOL0     H36037   5.246   3.653   2.541  0.2831  0.1071 -0.2851
 1008MOL0     H36038   5.199   3.714   2.762 -2.0035  0.2410 -2.3952
 1008MOL0     H36039   5.238   3.555   2.831 -1.2220  0.2068  0.6108
 1008MOL0     H36040   4.841   3.447   2.631 -0.2143  0.5986  0.7153
 1008MOL0     H36041   4.639   3.489   2.555 -0.7559 -1.5199  0.9058
 1008MOL0     H36042   4.545   3.441   2.690  2.5113 -1.2585  0.0729
 1008MOL0     H36043   4.526   3.605   2.638 -1.5881 -0.6813  2.8679
 1008MOL0     H36044   4.484   3.822   3.130  1.1427 -1.3651 -4.2631
 1008MOL0     H36045   4.266   3.925   3.237 -1.5973 -1.3276 -0.3823
 1008MOL0     H36046   4.076   4.265   3.057  1.8201 -1.7229 -0.2253
 1008MOL0     H36047   3.972   4.143   2.991 -0.0833  1.2433  0.3494
 1008MOL0     H36048   3.889   4.109   3.252 -2.3332 -0.8477 -0.7945
 1008MOL0     H36049   3.948   4.275   3.252 -1.0297 -0.9964  0.9761
 1008MOL0     H36050   3.737   4.165   3.069  0.1077 -2.0568  2.3260
 1008MOL0     H36051   3.793   4.329   3.052 -2.3501  0.5727 -0.1255
 1008MOL0     H36052   3.632   4.194   3.282 -1.1078 -0.9707 -0.4856
 1008MOL0     H36053   3.699   4.358   3.302 -1.3782  1.0136 -0.3062
 1008MOL0     H36054   3.514   4.270   3.070 -2.2272  0.0368 -0.0942
 1008MOL0     H36055   3.571   4.433   3.105 -1.3737 -0.1392  0.3744
 1008MOL0     H36056   3.397   4.276   3.296 -0.5934 -0.3264 -0.5477
 1008MOL0     H36057   3.417   4.449   3.291 -2.4163  0.2527 -0.2963
 1008MOL0     H36058   3.285   4.296   3.060 -1.1165  1.0281 -1.3994
 1008MOL0     H36059   3.264   4.477   3.109 -3.0764  0.3202  1.3676
 1008MOL0     H36060   3.148   4.410   3.302  1.9050 -0.0970  0.6601
 1008MOL0     H36061   3.159   4.245   3.264 -1.3340  0.6021  2.1592
 1008MOL0     H36062   4.229   4.167   2.893  1.5437 -1.1130 -1.9260
 1008MOL0     H36063   4.442   4.073   2.796  1.5832 -1.0722  0.6000
 1008MOL0     H36064   4.801   3.801   2.976 -2.9123 -0.8451  0.1224
 1008MOL0     H36065   5.035   3.718   2.901  0.2906 -1.6334  1.0904
 1008MOL0     H36066   6.619   3.528   2.018  0.4527 -0.4278 -0.4387
 1008MOL0     H36067   6.862   3.540   2.039  1.3859 -0.9577  0.1547
 1008MOL0     H36068   7.216   3.383   1.873 -0.4226 -1.6791  0.4750
 1008MOL0     H36069   7.473   3.429   1.836 -1.0013  3.0878 -0.5915
 1008MOL0     H36070   7.670   3.297   1.894 -1.3379  1.3653 -0.3865
 1008MOL0     H36071   7.660   3.460   1.818  0.9395  0.2310 -0.4417
 1008MOL0     H36072   7.886   3.519   1.896  1.4301 -0.8490 -1.1361
 1008MOL0     H36073   7.888   3.407   1.775  0.2211  1.9013 -0.2573
 1008MOL0     H36074   7.950   3.230   1.904  1.4603  1.2811 -0.5312
 1008MOL0     H36075   7.873   3.268   2.055 -1.1651 -2.6825 -1.1449
 1008MOL0     H36076   8.124   3.405   1.955  1.0589 -2.1280  1.1949
 1008MOL0     H36077   8.116   3.290   2.083 -0.6385 -3.1164 -0.8091
 1008MOL0     H36078   7.976   3.618   2.309 -2.3913  1.2923 -2.6010
 1008MOL0     H36079   7.537   3.444   2.244  0.2428 -1.1089  0.3384
 1008MOL0     H36080   7.294   3.422   2.299  0.8270 -0.5157  0.9660
 1009MOL0     O36081   3.490   1.079   9.508  0.1268 -0.2900  0.4136
 1009MOL0     C36082   3.612   1.074   9.522  0.9122  0.6568 -0.1551
 1009MOL0     O36083   3.700   1.175   9.487 -0.2131 -0.2893  0.2041
 1009MOL0     C36084   3.659   1.303   9.509 -0.0354  0.3992  0.5793
 1009MOL0     C36085   3.567   1.333   9.608  0.2626 -0.4113  0.5693
 1009MOL0     C36086   3.523   1.462   9.630  0.5104  1.2325  0.3377
 1009MOL0     C36087   3.582   1.570   9.565  0.0825  0.0402 -0.4606
 1009MOL0     O36088   3.535   1.703   9.581  0.3253  0.2629 -0.0247
 1009MOL0     C36089   3.432   1.715   9.680  1.1555  0.2666  0.3476
 1009MOL0     C36090   3.374   1.855   9.694  0.0746 -0.2464  0.7245
 1009MOL0     C36091   3.271   1.880   9.799 -0.5941 -0.6725 -0.8736
 1009MOL0     C36092   3.326   1.829   9.940 -0.3413  0.1552  0.3463
 1009MOL0     C36093   3.235   1.880  10.046  0.0644 -0.9186  0.0805
 1009MOL0     C36094   3.257   1.830  10.196  0.3073 -0.9509  0.7156
 1009MOL0     C36095   3.196   1.689  10.217  0.2860  0.6320  0.3929
 1009MOL0     C36096   3.227   1.615  10.349  0.6187 -0.2947 -0.4609
 1009MOL0     N36097   3.137   1.641  10.464  0.1460  0.3201 -0.0745
 1009MOL0     C36098   3.001   1.656  10.463  0.4038  0.2511 -0.0883
 1009MOL0     C36099   2.973   1.698  10.586 -0.8533  0.6400  0.2723
 1009MOL0     C36100   2.834   1.709  10.640 -0.0242  0.4168  0.3578
 1009MOL0     C36101   2.813   1.687  10.797 -1.2525 -0.6258  0.3220
 1009MOL0     C36102   2.849   1.549  10.846  0.1849  0.3870 -0.7726
 1009MOL0     C36103   2.732   1.451  10.846  0.1146 -0.0039 -0.8746
 1009MOL0     O36104   2.654   1.431  10.968  0.0422  0.0103 -0.3466
 1009MOL0     C36105   2.526   1.492  10.960 -0.3454  0.7049 -0.4600
 1009MOL0     C36106   2.505   1.624  11.020  0.0492  0.5996  0.0505
 1009MOL0     C36107   2.375   1.678  11.022  0.2438  0.1186  0.2841
 1009MOL0     C36108   2.365   1.805  11.086 -0.7496 -0.7572 -0.4184
 1009MOL0     C36109   2.264   1.606  10.962  0.3026  0.4361  0.4473
 1009MOL0     C36110   2.122   1.662  10.944 -0.0321  0.6185 -0.3934
 1009MOL0     O36111   2.024   1.556  10.934 -0.2137 -0.0203  0.1216
 1009MOL0     C36112   1.897   1.597  10.957  0.0184  0.1794  0.3605
 1009MOL0     C36113   1.838   1.553  11.077 -1.0448 -0.7510  1.1884
 1009MOL0     C36114   1.704   1.591  11.109 -0.3350 -0.1536  0.4603
 1009MOL0     C36115   1.636   1.672  11.012 -0.6376 -0.6788  0.1590
 1009MOL0     O36116   1.508   1.692  11.051 -0.2553  0.2420 -0.0832
 1009MOL0     C36117   1.431   1.792  10.985  0.1897  0.0749  0.0450
 1009MOL0     C36118   1.287   1.789  11.044 -0.0428  0.1430 -0.7562
 1009MOL0     C36119   1.220   1.658  11.017 -0.2274 -0.0722  0.1059
 1009MOL0     C36120   1.071   1.653  11.058  0.9972  0.4587  0.3487
 1009MOL0     C36121   0.979   1.733  10.956 -0.5629 -0.1495 -0.4388
 1009MOL0     C36122   0.834   1.735  11.012  0.2782  0.2304  0.6332
 1009MOL0     C36123   0.755   1.811  10.904 -0.1303 -0.0199  0.2450
 1009MOL0     C36124   0.607   1.841  10.935  0.6002  0.2198 -0.3513
 1009MOL0    Cl36125   0.494   1.706  10.931  0.1523 -0.0131  0.3756
 1009MOL0     C36126   1.694   1.708  10.893 -0.4416  0.3852  1.3326
 1009MOL0     C36127   1.830   1.672  10.857 -0.0768  0.5313 -0.7265
 1009MOL0     O36128   2.106   1.779  10.967 -0.2081 -0.0689  0.0632
 1009MOL0     C36129   2.287   1.474  10.906 -0.2616  0.1830 -0.1751
 1009MOL0     C36130   2.413   1.422  10.908 -0.5576  0.0124  0.4409
 1009MOL0     N36131   3.088   1.694  10.663  0.4218 -0.2871  0.1304
 1009MOL0     N36132   3.191   1.665  10.586  0.1702  0.6189  0.7979
 1009MOL0     C36133   3.679   1.543   9.461 -0.3389 -0.1858 -0.6823
 1009MOL0     C36134   3.711   1.408   9.431 -0.2916  0.5519 -0.6324
 1009MOL0     C36135   3.664   0.940   9.558  0.4405  0.3048  0.4769
 1009MOL0     C36136   3.802   0.914   9.547  0.0445 -1.0190  0.2567
 1009MOL0     C36137   3.861   0.792   9.580  0.1076 -0.8632  0.2718
 1009MOL0     C36138   3.788   0.687   9.619 -0.1114 -0.7612 -0.1467
 1009MOL0     O36139   3.842   0.578   9.679  0.3211  0.5799 -0.3569
 1009MOL0     C36140   3.980   0.565   9.698 -0.2100  0.3990 -0.3603
 1009MOL0     C36141   4.014   0.424   9.745 -0.3224  0.4276  0.0418
 1009MOL0     C36142   3.941   0.359   9.869  0.2059  0.3062 -0.1934
 1009MOL0     C36143   4.013   0.230   9.918 -0.7431 -0.2644  0.3071
 1009MOL0     C36144   3.952   0.185  10.042 -0.1644 -0.7664 -0.9585
 1009MOL0     C36145   3.884   0.152  10.138 -0.5925 -0.2040  1.2428
 1009MOL0     C36146   3.646   0.698   9.617  0.1612 -0.1582  1.2393
 1009MOL0     C36147   3.585   0.827   9.591 -0.3121 -0.1343  0.8958
 1009MOL0     H36148   3.526   1.264   9.680  0.3578  2.1600  3.2927
 1009MOL0     H36149   3.440   1.464   9.700  1.2080 -0.1010  1.2507
 1009MOL0     H36150   3.350   1.650   9.649  0.9979  1.7397 -2.6574
 1009MOL0     H36151   3.478   1.674   9.771  2.3425 -1.9218 -1.1462
 1009MOL0     H36152   3.459   1.922   9.714  0.7172  0.0865 -2.5012
 1009MOL0     H36153   3.327   1.879   9.598  0.6629  1.6421  0.8638
 1009MOL0     H36154   3.257   1.988   9.809  0.0193 -0.6888  0.3771
 1009MOL0     H36155   3.175   1.829   9.785 -0.8520  0.0022 -1.6280
 1009MOL0     H36156   3.318   1.720   9.947 -0.9598  0.2508  1.5683
 1009MOL0     H36157   3.428   1.853   9.971  0.0392 -1.6114  0.5780
 1009MOL0     H36158   3.245   1.988  10.055  1.2052 -1.0437  0.4424
 1009MOL0     H36159   3.131   1.860  10.021  0.1893  0.4939 -1.8086
 1009MOL0     H36160   3.362   1.828  10.225 -0.0323  0.3229  2.1618
 1009MOL0     H36161   3.214   1.900  10.269  0.5355  2.0733 -1.8273
 1009MOL0     H36162   3.088   1.699  10.204  0.2292 -0.2535  0.1058
 1009MOL0     H36163   3.230   1.624  10.135  0.6419  3.0567 -1.5069
 1009MOL0     H36164   3.328   1.631  10.389 -0.3684  2.1508  1.2885
 1009MOL0     H36165   3.225   1.507  10.336 -0.8269 -0.2009 -1.2025
 1009MOL0     H36166   2.931   1.645  10.381  0.6519  0.2953 -0.3084
 1009MOL0     H36167   2.813   1.815  10.627  0.4546  0.4629 -0.0569
 1009MOL0     H36168   2.770   1.646  10.576 -0.0646 -0.5042  1.2728
 1009MOL0     H36169   2.715   1.710  10.841  0.0554  0.8769  2.6010
 1009MOL0     H36170   2.880   1.763  10.836 -0.5725 -0.4114 -1.1931
 1009MOL0     H36171   2.879   1.565  10.950 -3.6149  0.0707  0.5323
 1009MOL0     H36172   2.936   1.509  10.793  2.3684  1.9786  1.3348
 1009MOL0     H36173   2.787   1.358  10.836  1.9642  0.3810  3.6544
 1009MOL0     H36174   2.665   1.463  10.760 -2.0299 -3.5211  0.1187
 1009MOL0     H36175   2.589   1.679  11.062 -0.1888  1.1998 -0.2444
 1009MOL0     H36176   2.354   1.884  11.012  2.3899  1.1029  0.9173
 1009MOL0     H36177   2.285   1.824  11.158 -0.2386  3.8219 -0.8121
 1009MOL0     H36178   2.457   1.830  11.138 -0.4461 -0.1522 -1.2283
 1009MOL0     H36179   1.888   1.481  11.141 -0.9522 -0.4445  1.4608
 1009MOL0     H36180   1.644   1.557  11.192  0.2820 -1.1286  0.5228
 1009MOL0     H36181   1.482   1.888  10.996  1.4144 -0.7625  2.4286
 1009MOL0     H36182   1.422   1.771  10.878 -0.7464 -3.6012  0.7328
 1009MOL0     H36183   1.308   1.804  11.151 -0.9676 -3.2933  0.0288
 1009MOL0     H36184   1.231   1.872  10.999  1.3219  0.0097 -2.8302
 1009MOL0     H36185   1.262   1.576  11.077  2.3393  1.5234  0.6362
 1009MOL0     H36186   1.227   1.634  10.911  1.0923  3.9189 -0.8733
 1009MOL0     H36187   1.038   1.549  11.069 -1.4018  1.0131 -0.8990
 1009MOL0     H36188   1.061   1.699  11.157 -0.6728 -2.2612  1.5795
 1009MOL0     H36189   0.988   1.680  10.861  4.1899 -1.1689  0.3175
 1009MOL0     H36190   1.023   1.833  10.952 -0.8488 -0.0397 -0.9891
 1009MOL0     H36191   0.806   1.631  11.026 -1.7024  1.0485  3.9177
 1009MOL0     H36192   0.824   1.779  11.111  0.1822  0.1735  0.6483
 1009MOL0     H36193   0.766   1.740  10.821  3.1379 -0.0176  0.5411
 1009MOL0     H36194   0.805   1.905  10.880 -1.7807  1.2837  1.6940
 1009MOL0     H36195   0.570   1.919  10.869 -0.4665 -1.3075 -1.6346
 1009MOL0     H36196   0.597   1.883  11.035 -2.9922 -0.5303 -0.2718
 1009MOL0     H36197   1.632   1.760  10.821 -2.1006 -2.1320  0.8188
 1009MOL0     H36198   1.893   1.694  10.771 -0.7076  2.6535 -0.7207
 1009MOL0     H36199   2.212   1.408  10.863 -0.5917 -1.1571  2.2979
 1009MOL0     H36200   2.444   1.328  10.865 -0.6778  1.8587 -4.3456
 1009MOL0     H36201   3.725   1.628   9.411  0.0444 -1.2479 -2.1941
 1009MOL0     H36202   3.787   1.385   9.357  0.9299  0.9118  0.4624
 1009MOL0     H36203   3.866   0.999   9.522  0.1303 -1.5093 -1.2686
 1009MOL0     H36204   3.970   0.787   9.582  0.2037  0.8651  1.1539
 1009MOL0     H36205   4.042   0.580   9.609  2.9679  2.2051  1.9274
 1009MOL0     H36206   4.012   0.638   9.773 -1.9391 -0.8471  1.7103
 1009MOL0     H36207   4.121   0.422   9.764 -0.4979  0.1704  1.0245
 1009MOL0     H36208   3.993   0.355   9.662  0.2618 -1.5811  1.4933
 1009MOL0     H36209   3.837   0.340   9.841  0.8049 -3.2081 -0.5141
 1009MOL0     H36210   3.956   0.438   9.944 -0.6630  0.8116 -0.5357
 1009MOL0     H36211   4.122   0.245   9.920 -0.6894  0.1822 -2.2969
 1009MOL0     H36212   3.997   0.154   9.841 -1.7908 -1.2352  1.4539
 1009MOL0     H36213   3.836   0.114  10.226 -0.6467  0.5514  1.5539
 1009MOL0     H36214   3.583   0.617   9.653  2.5079 -1.6780  2.1796
 1009MOL0     H36215   3.477   0.834   9.595 -0.4354 -1.8399  1.2186
 1010MOL0     O36216   1.545   1.533   9.939  0.7036  0.0576  0.6415
 1010MOL0     C36217   1.595   1.527  10.045 -0.6325  0.0628 -0.1333
 1010MOL0     O36218   1.533   1.551  10.162  0.6938 -0.3869  0.4723
 1010MOL0     C36219   1.402   1.585  10.165 -0.0768  0.7942 -0.3066
 1010MOL0     C36220   1.360   1.716  10.166 -0.5286 -0.0584  0.3723
 1010MOL0     C36221   1.222   1.749  10.187  0.3191 -0.2368 -1.1986
 1010MOL0     C36222   1.128   1.644  10.205  0.0315 -0.5922  0.1847
 1010MOL0     O36223   0.998   1.667  10.215  0.0650 -1.0258 -0.7173
 1010MOL0     C36224   0.947   1.679  10.077 -0.1534 -0.1264 -0.3081
 1010MOL0     C36225   0.796   1.691  10.076  0.3311  0.2477 -0.5368
 1010MOL0     C36226   0.772   1.840  10.106 -0.1180 -0.6817 -0.3129
 1010MOL0     C36227   0.625   1.875  10.108 -0.4695  0.1074 -0.1039
 1010MOL0     C36228   0.546   1.835   9.980  0.6845 -0.8807  0.4332
 1010MOL0     C36229   0.436   1.938   9.942 -0.7218 -0.4244  0.0702
 1010MOL0     C36230   0.339   1.950  10.061  0.0487  0.4363 -0.2437
 1010MOL0     C36231   0.253   2.084  10.054  0.0883 -0.2976  0.3406
 1010MOL0     N36232   0.143   2.079   9.956  0.7995 -0.0841 -0.2589
 1010MOL0     C36233   0.056   2.186   9.924 -0.5334 -0.7313 -0.1327
 1010MOL0     C36234   0.002   2.157   9.803  0.4197  0.2181  0.0943
 1010MOL0     C36235  -0.094   2.225   9.714 -0.4249  1.1772  0.4126
 1010MOL0     C36236  -0.228   2.205   9.769 -0.4089  0.2235 -0.6692
 1010MOL0     C36237  -0.339   2.236   9.665  0.6567 -0.3031 -0.4594
 1010MOL0     C36238  -0.479   2.207   9.717  0.1711 -0.0186  0.4906
 1010MOL0     O36239  -0.575   2.211   9.612  0.2181  0.3494 -0.2644
 1010MOL0     C36240  -0.701   2.169   9.635 -1.3614  0.1494 -0.4633
 1010MOL0     C36241  -0.790   2.162   9.533  0.7096  0.2487  0.3048
 1010MOL0     C36242  -0.926   2.119   9.551 -0.2710  0.0840  0.7876
 1010MOL0     C36243  -1.010   2.111   9.421 -0.4423 -0.6792 -0.1580
 1010MOL0     C36244  -0.975   2.090   9.677 -0.4013  0.0444 -0.2505
 1010MOL0     C36245  -1.116   2.056   9.702 -0.1570 -0.6087 -0.8572
 1010MOL0     O36246  -1.222   2.076   9.616  0.0189  0.0912  0.1880
 1010MOL0     C36247  -1.355   2.094   9.662  1.1339  0.4739  0.5695
 1010MOL0     C36248  -1.402   2.105   9.793 -0.7573  0.2863 -0.4929
 1010MOL0     C36249  -1.538   2.121   9.823  0.9838  0.8961  0.1094
 1010MOL0     C36250  -1.634   2.146   9.726 -0.9583 -0.9020  0.6410
 1010MOL0     O36251  -1.763   2.186   9.739 -0.1710 -0.2198 -0.3547
 1010MOL0     C36252  -1.819   2.178   9.871 -0.4323  0.9358 -0.2552
 1010MOL0     C36253  -1.802   2.308   9.954  0.3321  0.0747 -0.3253
 1010MOL0     C36254  -1.919   2.334  10.048 -0.0703 -0.3264  0.3390
 1010MOL0     C36255  -2.057   2.319   9.980  0.2198 -0.5016  1.1488
 1010MOL0     C36256  -2.177   2.382  10.056 -0.3117  0.0779 -0.4540
 1010MOL0     C36257  -2.168   2.537  10.077  0.0004 -0.2547  1.2161
 1010MOL0     C36258  -2.302   2.588  10.131 -0.4701 -0.0822  0.4237
 1010MOL0     C36259  -2.334   2.533  10.268 -0.3772  0.6528 -0.4453
 1010MOL0    Cl36260  -2.478   2.625  10.314  0.2676 -0.5000  0.2617
 1010MOL0     C36261  -1.585   2.133   9.597  0.1092  0.7318 -0.0054
 1010MOL0     C36262  -1.454   2.101   9.563  0.1036 -0.4941 -0.0260
 1010MOL0     O36263  -1.129   2.014   9.818  0.0674  0.2562  0.2267
 1010MOL0     C36264  -0.880   2.082   9.781  0.8036  0.4887 -0.2149
 1010MOL0     C36265  -0.749   2.120   9.761  1.0110 -0.4215 -0.0010
 1010MOL0     N36266   0.064   2.043   9.755 -0.3850 -0.0104 -0.0943
 1010MOL0     N36267   0.141   1.995   9.850  0.1986  0.1791  0.3385
 1010MOL0     C36268   1.177   1.514  10.212  0.3578  0.2210  0.4944
 1010MOL0     C36269   1.305   1.483  10.190  0.0350  0.8264  0.3144
 1010MOL0     C36270   1.738   1.486  10.050  0.8143  1.1079  0.5853
 1010MOL0     C36271   1.800   1.449  10.169  0.0544  0.1726 -0.5340
 1010MOL0     C36272   1.936   1.407  10.176  0.4549 -0.0582 -0.5299
 1010MOL0     C36273   2.011   1.403  10.059  0.4267 -0.2531  0.0182
 1010MOL0     O36274   2.140   1.351  10.060  0.5455  0.1591 -0.3110
 1010MOL0     C36275   2.234   1.403   9.962 -0.0947  0.6377  0.1250
 1010MOL0     C36276   2.380   1.360   9.997  0.2339  0.0049 -0.6544
 1010MOL0     C36277   2.486   1.365   9.885  0.5065  0.1786  0.7499
 1010MOL0     C36278   2.629   1.342   9.942  0.6182  0.9116 -0.2285
 1010MOL0     C36279   2.642   1.197   9.989 -0.4844  0.6321 -0.7824
 1010MOL0     C36280   2.651   1.084  10.021  0.3009  0.6272  0.0451
 1010MOL0     C36281   1.949   1.424   9.930  0.2694 -0.0205  0.1447
 1010MOL0     C36282   1.817   1.474   9.929  0.2704  0.9180 -1.0126
 1010MOL0     H36283   1.423   1.798  10.134 -2.4196  0.4907 -2.3595
 1010MOL0     H36284   1.193   1.854  10.197  2.7625  0.4221 -0.1840
 1010MOL0     H36285   0.999   1.759  10.023 -0.8088  0.7549  0.3192
 1010MOL0     H36286   0.971   1.588  10.022  0.0839 -0.2639  0.0206
 1010MOL0     H36287   0.757   1.664   9.978  0.3030 -1.8431 -0.0031
 1010MOL0     H36288   0.756   1.623  10.153 -0.2774 -1.1026 -1.9959
 1010MOL0     H36289   0.810   1.876  10.202 -2.1874  3.7684 -0.8737
 1010MOL0     H36290   0.819   1.890  10.021 -0.6368 -1.8906 -1.3455
 1010MOL0     H36291   0.589   1.820  10.195 -1.4703 -0.9638 -1.1374
 1010MOL0     H36292   0.601   1.980  10.127  0.3377  0.1301  0.8711
 1010MOL0     H36293   0.617   1.823   9.898 -0.4059  1.6357 -0.9949
 1010MOL0     H36294   0.500   1.736   9.990  0.8752 -1.4176 -2.9382
 1010MOL0     H36295   0.484   2.036   9.940  2.3197 -1.7589  1.3344
 1010MOL0     H36296   0.382   1.917   9.849 -1.1120  2.0891 -0.3478
 1010MOL0     H36297   0.280   1.858  10.069  0.5679 -0.0864 -1.8839
 1010MOL0     H36298   0.399   1.972  10.150  1.5669  2.0205 -1.5718
 1010MOL0     H36299   0.324   2.165  10.037 -0.0571 -0.3706 -0.6931
 1010MOL0     H36300   0.211   2.105  10.153  0.2301  1.6121  0.0323
 1010MOL0     H36301   0.031   2.269   9.990  0.5995 -1.1862  0.9071
 1010MOL0     H36302  -0.062   2.330   9.709 -0.5274  1.1625 -3.5715
 1010MOL0     H36303  -0.076   2.184   9.615  1.8251  2.6337  0.1504
 1010MOL0     H36304  -0.238   2.258   9.864 -0.7989 -1.8381  0.5053
 1010MOL0     H36305  -0.235   2.097   9.784  1.4507  0.0439 -0.8276
 1010MOL0     H36306  -0.334   2.169   9.579  1.3637 -2.6127  1.2963
 1010MOL0     H36307  -0.332   2.340   9.630  0.2237 -0.1669 -0.1455
 1010MOL0     H36308  -0.501   2.276   9.799 -1.5804  0.4576 -0.3411
 1010MOL0     H36309  -0.482   2.105   9.756 -0.0563 -0.7836 -1.4223
 1010MOL0     H36310  -0.756   2.186   9.432  0.6560  1.3456  0.5345
 1010MOL0     H36311  -0.951   2.121   9.330 -0.8135  0.2057 -0.3153
 1010MOL0     H36312  -1.059   2.014   9.420  0.0857 -0.9492  0.0732
 1010MOL0     H36313  -1.091   2.185   9.420 -0.8643 -1.1424 -0.3596
 1010MOL0     H36314  -1.336   2.104   9.878  0.2027 -0.8355 -1.2140
 1010MOL0     H36315  -1.569   2.136   9.926 -3.9650  0.3006 -1.0873
 1010MOL0     H36316  -1.920   2.143   9.851 -0.4655  0.8344  0.0945
 1010MOL0     H36317  -1.775   2.097   9.930  5.1709  2.7248 -1.3594
 1010MOL0     H36318  -1.713   2.299  10.017 -0.2177  0.5084  0.5420
 1010MOL0     H36319  -1.791   2.385   9.876  0.3283 -0.0046 -0.4036
 1010MOL0     H36320  -1.916   2.440  10.076 -0.0297 -0.2240 -0.0436
 1010MOL0     H36321  -1.911   2.273  10.139  1.1925  2.8161  2.5349
 1010MOL0     H36322  -2.050   2.361   9.879  1.9858 -0.9911  1.0323
 1010MOL0     H36323  -2.081   2.214   9.964 -2.1450  0.2920 -1.3540
 1010MOL0     H36324  -2.169   2.333  10.153 -0.4080  1.8400  0.4892
 1010MOL0     H36325  -2.276   2.354  10.018  0.0430 -0.1615 -1.2216
 1010MOL0     H36326  -2.087   2.571  10.141  0.2969  2.1791 -0.3337
 1010MOL0     H36327  -2.149   2.581   9.979 -1.0371 -2.3203  0.0054
 1010MOL0     H36328  -2.392   2.584  10.069  0.1912  1.8163 -0.7161
 1010MOL0     H36329  -2.286   2.695  10.148  1.4327 -0.5914  2.2665
 1010MOL0     H36330  -2.252   2.542  10.339  0.7834 -0.9511 -1.5176
 1010MOL0     H36331  -2.354   2.427  10.251 -0.5304  1.0910 -3.5810
 1010MOL0     H36332  -1.667   2.127   9.526 -0.3839  1.8481  0.4500
 1010MOL0     H36333  -1.411   2.098   9.463  3.3545  2.4414  1.0671
 1010MOL0     H36334  -0.911   2.044   9.878  2.7223 -1.4994 -0.2888
 1010MOL0     H36335  -0.682   2.105   9.845  0.0988 -4.5101  0.1995
 1010MOL0     H36336   1.105   1.438  10.240 -1.5362  1.3548 -1.0302
 1010MOL0     H36337   1.339   1.384  10.220  0.1269  0.8526  0.2979
 1010MOL0     H36338   1.745   1.460  10.262  0.3322  1.8229 -0.5276
 1010MOL0     H36339   1.976   1.386  10.275  2.1517  0.2220 -1.1194
 1010MOL0     H36340   2.215   1.366   9.861  1.1766 -0.7673  0.3784
 1010MOL0     H36341   2.228   1.512   9.954  0.9176  0.5622 -3.0800
 1010MOL0     H36342   2.374   1.257  10.032 -1.3891 -0.2326 -1.5532
 1010MOL0     H36343   2.413   1.422  10.081 -2.1082 -1.3110  1.3906
 1010MOL0     H36344   2.475   1.466   9.843 -1.7973  0.0530  0.9156
 1010MOL0     H36345   2.458   1.282   9.820  0.0258 -1.0778  2.4908
 1010MOL0     H36346   2.645   1.413  10.024  1.0889  0.3023  0.2177
 1010MOL0     H36347   2.702   1.364   9.863 -0.3091  2.0975 -0.7818
 1010MOL0     H36348   2.665   0.987  10.064  0.8848 -0.3063 -2.0890
 1010MOL0     H36349   2.002   1.409   9.836 -2.2262  0.7233 -1.4887
 1010MOL0     H36350   1.759   1.496   9.839 -0.7824 -0.8752 -0.8245
 1011MOL0     O36351  10.202   8.488   9.287  0.4793  0.4524  0.3690
 1011MOL0     C36352  10.162   8.413   9.373  0.4832  0.2892  0.8908
 1011MOL0     O36353  10.041   8.433   9.442 -0.1230  0.2162 -0.2662
 1011MOL0     C36354   9.965   8.538   9.400 -0.3678  0.2693  0.1024
 1011MOL0     C36355   9.839   8.521   9.349 -0.3496 -0.4440  0.6293
 1011MOL0     C36356   9.755   8.632   9.313 -0.9265 -0.3659  0.1017
 1011MOL0     C36357   9.797   8.763   9.315  0.4196  0.3975  0.3770
 1011MOL0     O36358   9.721   8.879   9.289 -0.2141 -0.1576  0.4129
 1011MOL0     C36359   9.580   8.870   9.271  0.1642 -0.3120  0.4881
 1011MOL0     C36360   9.509   8.875   9.403 -0.7216  1.2277 -0.0753
 1011MOL0     C36361   9.360   8.848   9.386  0.6285 -0.2706  0.3798
 1011MOL0     C36362   9.289   8.868   9.523 -0.8260  0.0889  0.2110
 1011MOL0     C36363   9.140   8.898   9.509  0.0811  0.6154  0.9163
 1011MOL0     C36364   9.087   8.892   9.656  0.1352 -0.0077  0.6922
 1011MOL0     C36365   8.951   8.968   9.664 -0.5318  0.0290 -1.5866
 1011MOL0     C36366   8.834   8.906   9.589  0.8116  0.2641  1.2114
 1011MOL0     N36367   8.706   8.969   9.631 -0.0592 -0.9823  0.3032
 1011MOL0     C36368   8.650   9.088   9.581 -0.4040  0.6750 -0.0571
 1011MOL0     C36369   8.531   9.100   9.646  0.4429 -0.0989  0.0545
 1011MOL0     C36370   8.420   9.199   9.616  0.3687  0.3409 -0.8930
 1011MOL0     C36371   8.463   9.340   9.634  0.3762  0.4028 -0.1609
 1011MOL0     C36372   8.349   9.426   9.579  0.0863  0.1848  0.3973
 1011MOL0     C36373   8.257   9.467   9.699  0.4357  0.9289  1.1504
 1011MOL0     O36374   8.154   9.556   9.647 -0.2389  0.5271 -0.1890
 1011MOL0     C36375   8.028   9.513   9.599 -0.1404  0.6865  0.3104
 1011MOL0     C36376   7.943   9.615   9.548  0.5983  0.0009 -0.5234
 1011MOL0     C36377   7.815   9.580   9.501  0.1104 -0.2176 -0.6220
 1011MOL0     C36378   7.723   9.700   9.480 -0.5760 -0.3153 -0.4930
 1011MOL0     C36379   7.789   9.449   9.468  0.4049  0.3029 -0.1773
 1011MOL0     C36380   7.654   9.411   9.415  0.3770  0.1244 -0.4492
 1011MOL0     O36381   7.646   9.291   9.342 -0.4211 -0.2736 -0.3098
 1011MOL0     C36382   7.532   9.255   9.277  0.3143  0.5700  0.1448
 1011MOL0     C36383   7.466   9.361   9.194  0.0354  0.0453  0.7269
 1011MOL0     C36384   7.346   9.338   9.133 -0.5577 -0.1552  0.5616
 1011MOL0     C36385   7.289   9.212   9.148 -0.5764  0.7016  0.0930
 1011MOL0     O36386   7.167   9.184   9.093 -0.4589 -0.4333  1.0062
 1011MOL0     C36387   7.060   9.268   9.135  0.0425 -0.3430 -0.5956
 1011MOL0     C36388   6.930   9.198   9.106 -0.0135  0.3093  0.0458
 1011MOL0     C36389   6.817   9.303   9.088 -0.1709 -0.8439 -0.8626
 1011MOL0     C36390   6.685   9.242   9.048  0.1841 -0.3703 -0.6684
 1011MOL0     C36391   6.558   9.343   9.045  0.3633  0.7774  0.6774
 1011MOL0     C36392   6.484   9.300   8.922 -0.0043  0.6345  0.0542
 1011MOL0     C36393   6.356   9.373   8.883 -0.0959  0.1837 -0.1286
 1011MOL0     C36394   6.242   9.375   8.983 -0.0200  0.9908 -0.6738
 1011MOL0    Cl36395   6.185   9.211   9.014 -0.3835  0.4363  0.2631
 1011MOL0     C36396   7.355   9.105   9.222  0.3858 -0.2670  0.0041
 1011MOL0     C36397   7.472   9.130   9.293 -0.5181  0.3883  0.1853
 1011MOL0     O36398   7.556   9.483   9.441 -0.0116  0.0316 -0.1622
 1011MOL0     C36399   7.882   9.357   9.494  0.0697  0.2148  0.3004
 1011MOL0     C36400   7.990   9.378   9.571 -0.5671  1.0470 -0.2473
 1011MOL0     N36401   8.506   8.989   9.728  0.1182  0.2122  0.6274
 1011MOL0     N36402   8.615   8.920   9.721 -0.7969  0.6234  0.6948
 1011MOL0     C36403   9.929   8.788   9.360 -0.6264  1.2427  0.1227
 1011MOL0     C36404  10.012   8.675   9.400  0.7950 -0.6462  0.3350
 1011MOL0     C36405  10.251   8.310   9.415  0.1405 -0.5242  1.0148
 1011MOL0     C36406  10.387   8.294   9.383 -0.1447 -0.1867  0.2730
 1011MOL0     C36407  10.468   8.201   9.451 -0.0229  0.3370  0.0343
 1011MOL0     C36408  10.407   8.099   9.526  0.4389 -0.4519 -0.1815
 1011MOL0     O36409  10.469   7.993   9.588  0.3802 -0.1277 -0.4767
 1011MOL0     C36410  10.601   7.956   9.548  0.0910 -0.0096  0.3652
 1011MOL0     C36411  10.639   7.834   9.635  0.5549  0.7230 -0.0906
 1011MOL0     C36412  10.688   7.879   9.777  0.1820 -0.7931  0.6721
 1011MOL0     C36413  10.675   7.766   9.881 -0.1935 -0.1468  0.0153
 1011MOL0     C36414  10.800   7.688   9.896 -0.5644  0.9732 -0.0309
 1011MOL0     C36415  10.901   7.615   9.897 -0.6632  0.0096  0.2787
 1011MOL0     C36416  10.271   8.111   9.556  0.2060  0.2631 -0.2176
 1011MOL0     C36417  10.196   8.215   9.503 -0.6471  0.2003  0.8253
 1011MOL0     H36418   9.801   8.419   9.342 -2.7353  0.2880  1.9451
 1011MOL0     H36419   9.653   8.619   9.279 -1.2547 -0.3833  1.0556
 1011MOL0     H36420   9.542   8.959   9.221 -2.2930 -0.7501  1.4537
 1011MOL0     H36421   9.555   8.788   9.203  1.3795 -0.1160 -0.2319
 1011MOL0     H36422   9.554   8.794   9.462 -0.4437  0.3191 -1.5026
 1011MOL0     H36423   9.529   8.968   9.458  0.9917  1.0964 -0.4230
 1011MOL0     H36424   9.333   8.926   9.313  2.5882  2.1708  2.0816
 1011MOL0     H36425   9.340   8.751   9.341  0.0086  0.8319 -1.8924
 1011MOL0     H36426   9.308   8.777   9.581  1.5734 -0.0069 -0.5962
 1011MOL0     H36427   9.338   8.954   9.570 -0.4220  0.8174 -1.4810
 1011MOL0     H36428   9.127   9.003   9.480 -2.9309  0.1391  0.1114
 1011MOL0     H36429   9.086   8.824   9.450 -0.0671  2.4178 -1.3553
 1011MOL0     H36430   9.084   8.790   9.696  0.4178  0.0888  0.9672
 1011MOL0     H36431   9.156   8.954   9.715  1.5397  2.2269 -2.9230
 1011MOL0     H36432   8.917   8.970   9.768  0.6298 -3.1941 -1.0012
 1011MOL0     H36433   8.970   9.067   9.623  2.1562  0.8313  1.1492
 1011MOL0     H36434   8.837   8.798   9.605  1.2091  0.1306  0.2762
 1011MOL0     H36435   8.851   8.923   9.483 -0.8352  0.1683  0.9038
 1011MOL0     H36436   8.697   9.154   9.508 -3.3453 -0.3137 -3.0960
 1011MOL0     H36437   8.375   9.176   9.520 -0.8640 -1.3858  0.0488
 1011MOL0     H36438   8.338   9.181   9.686  0.7179  1.1490 -0.2450
 1011MOL0     H36439   8.549   9.356   9.568  1.9953 -3.8207  0.6096
 1011MOL0     H36440   8.498   9.359   9.736  1.7107  0.4243 -0.6100
 1011MOL0     H36441   8.307   9.386   9.487  2.0181  1.4263 -1.1161
 1011MOL0     H36442   8.382   9.524   9.543  0.1749  0.8145  2.0980
 1011MOL0     H36443   8.315   9.510   9.781  0.9231  2.0051  0.2787
 1011MOL0     H36444   8.212   9.374   9.735  2.2300  0.3453  2.0260
 1011MOL0     H36445   7.973   9.718   9.567  0.2107  0.1963 -0.9514
 1011MOL0     H36446   7.660   9.698   9.390  0.3168  3.4778 -1.4107
 1011MOL0     H36447   7.655   9.723   9.562 -0.3471  3.1711 -1.0989
 1011MOL0     H36448   7.778   9.795   9.479  1.2988 -1.3126  0.8940
 1011MOL0     H36449   7.516   9.457   9.189 -0.2731  0.1780 -0.1110
 1011MOL0     H36450   7.297   9.425   9.091  0.9230  0.1443 -0.6169
 1011MOL0     H36451   7.071   9.288   9.242 -1.5231  0.8488 -0.6290
 1011MOL0     H36452   7.060   9.366   9.088  1.9527  1.9603  3.6335
 1011MOL0     H36453   6.947   9.142   9.014  1.7677  0.4568  0.2429
 1011MOL0     H36454   6.898   9.126   9.182 -2.5083 -0.9898 -2.0760
 1011MOL0     H36455   6.848   9.378   9.015  1.1834  1.0998  1.5332
 1011MOL0     H36456   6.808   9.351   9.186  0.0961  1.7978 -2.0571
 1011MOL0     H36457   6.688   9.191   8.951 -0.9850  1.9770 -2.0306
 1011MOL0     H36458   6.668   9.155   9.113  2.6401 -0.2259  0.2426
 1011MOL0     H36459   6.577   9.448   9.023 -1.1489  0.6618 -1.4122
 1011MOL0     H36460   6.498   9.328   9.136  3.3654  1.7191  2.9932
 1011MOL0     H36461   6.540   9.290   8.829 -2.8660 -0.6723 -1.6604
 1011MOL0     H36462   6.458   9.197   8.948 -0.0851  0.2356 -1.4910
 1011MOL0     H36463   6.316   9.318   8.798  0.0093  1.4565 -1.0256
 1011MOL0     H36464   6.388   9.474   8.855  0.3219  0.9334  2.7000
 1011MOL0     H36465   6.163   9.442   8.948 -2.7941 -2.5023 -1.6255
 1011MOL0     H36466   6.278   9.405   9.082  0.3017  2.1199 -1.1189
 1011MOL0     H36467   7.301   9.011   9.234  2.6933 -1.8096 -0.9569
 1011MOL0     H36468   7.514   9.059   9.363 -1.7386 -1.2565 -0.6729
 1011MOL0     H36469   7.859   9.253   9.476 -2.0113  0.6077  0.4656
 1011MOL0     H36470   8.042   9.292   9.612 -0.7688  0.9083 -0.2819
 1011MOL0     H36471   9.965   8.889   9.346  0.2143  0.9912  0.4048
 1011MOL0     H36472  10.114   8.692   9.434  0.4871 -0.1122  1.0159
 1011MOL0     H36473  10.435   8.346   9.300 -0.2703 -0.3731  0.0836
 1011MOL0     H36474  10.576   8.208   9.440  0.2047 -1.7521  0.4896
 1011MOL0     H36475  10.592   7.919   9.445 -0.5654 -0.0195  0.4226
 1011MOL0     H36476  10.670   8.040   9.552  2.7094 -2.0584  1.7627
 1011MOL0     H36477  10.715   7.773   9.586  1.0844  2.2273 -1.2393
 1011MOL0     H36478  10.551   7.772   9.654 -0.1225  1.2295 -1.4491
 1011MOL0     H36479  10.633   7.971   9.801  2.6544  1.9210 -2.8725
 1011MOL0     H36480  10.793   7.909   9.777 -0.9604  4.1825  1.4865
 1011MOL0     H36481  10.591   7.698   9.863  0.4851 -0.8266 -0.7020
 1011MOL0     H36482  10.657   7.814   9.977 -0.5207  0.1512 -0.1927
 1011MOL0     H36483  10.994   7.562   9.893 -0.7993 -0.2046 -3.2507
 1011MOL0     H36484  10.221   8.033   9.612 -0.5047 -0.4196 -1.7547
 1011MOL0     H36485  10.089   8.215   9.523 -0.3257  0.7178  2.6927
 1012MOL0     O36486   3.719  10.238   0.599 -0.1892 -0.3348  0.5748
 1012MOL0     C36487   3.765  10.201   0.702 -0.1059 -0.2901  0.0082
 1012MOL0     O36488   3.707  10.223   0.828 -0.4827  0.6294  1.4205
 1012MOL0     C36489   3.594  10.303   0.846 -0.6494 -0.5237 -0.1550
 1012MOL0     C36490   3.525  10.385   0.761 -0.0177  0.0221  0.2714
 1012MOL0     C36491   3.407  10.450   0.798  0.5867  0.0548  0.2199
 1012MOL0     C36492   3.363  10.460   0.926  0.3604  0.3529  0.1185
 1012MOL0     O36493   3.265  10.546   0.953 -0.2279  0.5771  0.3917
 1012MOL0     C36494   3.171  10.495   1.048  0.8807 -0.0164 -0.6191
 1012MOL0     C36495   3.056  10.608   1.051 -0.6862  0.9421 -0.5326
 1012MOL0     C36496   2.940  10.557   1.137 -0.1493  0.2613  0.0207
 1012MOL0     C36497   2.853  10.674   1.179  0.3232 -0.1886  0.3815
 1012MOL0     C36498   2.779  10.634   1.300 -0.4744  0.2510  0.2498
 1012MOL0     C36499   2.670  10.736   1.313  0.1896 -0.3020  0.2244
 1012MOL0     C36500   2.578  10.712   1.439  0.8311  0.3893  0.7080
 1012MOL0     C36501   2.469  10.608   1.408  1.0123 -0.7979 -0.7741
 1012MOL0     N36502   2.356  10.613   1.506 -0.8896 -0.0633 -0.2238
 1012MOL0     C36503   2.239  10.689   1.500 -0.6285 -0.1272  0.1516
 1012MOL0     C36504   2.166  10.634   1.593 -0.2159 -0.4406 -0.3978
 1012MOL0     C36505   2.021  10.664   1.607  0.2836  0.1870 -0.1340
 1012MOL0     C36506   1.946  10.605   1.485  0.1628 -0.1527 -0.1209
 1012MOL0     C36507   1.789  10.580   1.499  0.1649  0.8598 -0.4898
 1012MOL0     C36508   1.729  10.558   1.362 -0.3017 -1.2014 -0.5063
 1012MOL0     O36509   1.594  10.527   1.382 -0.1161  0.4289  0.4687
 1012MOL0     C36510   1.510  10.633   1.415  0.3628  0.0091  0.5384
 1012MOL0     C36511   1.541  10.769   1.429 -0.7325 -0.3161  0.2198
 1012MOL0     C36512   1.453  10.867   1.466  0.2370 -0.0761 -0.5165
 1012MOL0     C36513   1.508  11.008   1.498  1.0052  0.0399  0.2980
 1012MOL0     C36514   1.320  10.837   1.478  0.0524 -0.1226 -0.1908
 1012MOL0     C36515   1.208  10.941   1.505  0.5242  1.3904 -0.5748
 1012MOL0     O36516   1.093  10.904   1.574 -0.3331  0.2241 -0.4659
 1012MOL0     C36517   0.981  10.987   1.563 -0.3583 -0.6954 -0.0954
 1012MOL0     C36518   0.925  11.017   1.439 -0.0026 -0.2746  0.0074
 1012MOL0     C36519   0.809  11.088   1.419 -0.1730 -0.5042  0.0380
 1012MOL0     C36520   0.744  11.136   1.529  0.4380 -0.2842  0.4452
 1012MOL0     O36521   0.641  11.218   1.501  0.2719  0.1582 -0.3129
 1012MOL0     C36522   0.611  11.320   1.595 -0.2789  0.6927  0.1009
 1012MOL0     C36523   0.480  11.298   1.659 -0.8872 -0.9022  0.3723
 1012MOL0     C36524   0.375  11.316   1.542  0.2376  0.9972 -0.2251
 1012MOL0     C36525   0.235  11.286   1.607 -0.9458 -0.5884 -0.0570
 1012MOL0     C36526   0.113  11.297   1.514  0.0160  0.0994  1.0631
 1012MOL0     C36527  -0.020  11.250   1.579  0.6805 -0.4043 -0.3241
 1012MOL0     C36528  -0.132  11.261   1.474 -0.0245  0.1070  0.0894
 1012MOL0     C36529  -0.121  11.148   1.365 -0.9402  0.4389  0.0435
 1012MOL0    Cl36530  -0.257  11.152   1.250  0.3610  0.0984  0.0052
 1012MOL0     C36531   0.797  11.109   1.653  0.1125  0.5052  0.0128
 1012MOL0     C36532   0.915  11.036   1.670  0.7659 -0.5664 -0.4269
 1012MOL0     O36533   1.234  11.058   1.482 -0.5568 -0.5290 -0.3092
 1012MOL0     C36534   1.282  10.701   1.473 -0.3437  0.5486  0.6187
 1012MOL0     C36535   1.376  10.600   1.453  0.4065  0.4333  0.0013
 1012MOL0     N36536   2.235  10.535   1.656  0.2761 -0.9111 -0.3709
 1012MOL0     N36537   2.345  10.528   1.606  0.1366  0.7309 -0.3198
 1012MOL0     C36538   3.438  10.388   1.017 -0.0649  0.7302 -0.3287
 1012MOL0     C36539   3.549  10.313   0.985 -0.6979  0.0768  0.6070
 1012MOL0     C36540   3.907  10.152   0.701  0.2502 -0.3833  0.2629
 1012MOL0     C36541   3.969  10.087   0.808 -0.2715  0.0541 -0.7457
 1012MOL0     C36542   4.106  10.045   0.809  0.6180 -0.2542  0.6849
 1012MOL0     C36543   4.182  10.066   0.694  0.1783  0.3580 -0.1469
 1012MOL0     O36544   4.315  10.033   0.664 -0.3464 -0.0469 -0.2367
 1012MOL0     C36545   4.378   9.956   0.766 -0.4876 -0.3796 -0.3162
 1012MOL0     C36546   4.515   9.916   0.720  0.6427 -0.2583 -0.2050
 1012MOL0     C36547   4.523   9.785   0.629 -0.3474  0.4571  0.0987
 1012MOL0     C36548   4.493   9.824   0.475  0.3782 -0.2593 -0.8608
 1012MOL0     C36549   4.606   9.883   0.409  0.7074 -0.1456 -0.8860
 1012MOL0     C36550   4.713   9.901   0.356  0.2666 -0.3263 -0.2013
 1012MOL0     C36551   4.117  10.114   0.577 -0.9463 -0.0025 -0.4874
 1012MOL0     C36552   3.987  10.163   0.587 -0.6744 -0.6403  0.8450
 1012MOL0     H36553   3.538  10.382   0.653 -3.3888  0.9440 -0.2725
 1012MOL0     H36554   3.350  10.499   0.720  0.7914 -1.8179 -1.1803
 1012MOL0     H36555   3.123  10.400   1.022 -0.3785  0.3803  0.1754
 1012MOL0     H36556   3.211  10.470   1.146  0.8466 -0.8506 -0.8028
 1012MOL0     H36557   3.092  10.697   1.104 -1.1196  1.3430 -0.9050
 1012MOL0     H36558   3.021  10.637   0.952  0.4533 -2.5474 -2.1232
 1012MOL0     H36559   2.884  10.477   1.086  2.6997 -3.5536  2.3033
 1012MOL0     H36560   2.986  10.514   1.227  1.8261  1.6946 -0.2545
 1012MOL0     H36561   2.906  10.766   1.205 -2.0514  1.0305  1.2550
 1012MOL0     H36562   2.787  10.699   1.095  2.8767  0.0005 -1.7075
 1012MOL0     H36563   2.751  10.528   1.300  1.5218 -0.3427 -1.3567
 1012MOL0     H36564   2.850  10.642   1.383  1.1892 -1.0634 -0.9651
 1012MOL0     H36565   2.697  10.841   1.328 -1.4277 -0.1938  3.0927
 1012MOL0     H36566   2.613  10.729   1.219  1.2411  2.1821 -0.6815
 1012MOL0     H36567   2.641  10.673   1.520  1.0490  1.4808  1.0880
 1012MOL0     H36568   2.538  10.808   1.472 -0.0004  0.6699 -1.0278
 1012MOL0     H36569   2.511  10.508   1.414  0.8534 -0.8406 -0.3926
 1012MOL0     H36570   2.433  10.636   1.308 -0.5027  1.0102  0.2114
 1012MOL0     H36571   2.227  10.772   1.431 -0.7163 -0.1136  0.1834
 1012MOL0     H36572   1.978  10.614   1.694 -0.6597 -0.1221 -0.7517
 1012MOL0     H36573   2.000  10.772   1.607  2.3931  0.6396 -0.7517
 1012MOL0     H36574   1.996  10.510   1.462  1.2492  0.6785 -1.3043
 1012MOL0     H36575   1.968  10.675   1.404 -1.1367  0.0146 -0.3592
 1012MOL0     H36576   1.734  10.655   1.557 -2.3294 -2.2064  1.4401
 1012MOL0     H36577   1.778  10.492   1.563  0.3473 -0.1202 -1.7649
 1012MOL0     H36578   1.782  10.478   1.311  1.1831  0.6895 -2.1074
 1012MOL0     H36579   1.749  10.643   1.296 -0.5500 -1.1284 -0.4924
 1012MOL0     H36580   1.645  10.792   1.410 -1.4626  1.9035 -1.5559
 1012MOL0     H36581   1.617  11.014   1.497  0.9495  1.6013 -0.9252
 1012MOL0     H36582   1.470  11.065   1.412  1.0441  0.0977  0.3191
 1012MOL0     H36583   1.464  11.050   1.588  0.1968  0.1867 -0.1534
 1012MOL0     H36584   0.979  10.983   1.351  2.4699 -2.0934  2.0947
 1012MOL0     H36585   0.777  11.108   1.317 -1.1180  2.0553  0.7428
 1012MOL0     H36586   0.695  11.336   1.664  0.0696 -1.2643  0.1795
 1012MOL0     H36587   0.607  11.414   1.539  0.1321  0.2462 -0.6940
 1012MOL0     H36588   0.464  11.201   1.708 -2.4929 -0.6236  0.4538
 1012MOL0     H36589   0.473  11.385   1.725 -1.5397 -0.2183 -0.5695
 1012MOL0     H36590   0.394  11.242   1.463 -1.2460 -1.1791  1.3456
 1012MOL0     H36591   0.372  11.418   1.502  3.1988  0.3084 -2.5403
 1012MOL0     H36592   0.237  11.183   1.644 -0.8784 -0.0048  1.6652
 1012MOL0     H36593   0.224  11.346   1.698  1.1761 -0.5742  0.2396
 1012MOL0     H36594   0.142  11.235   1.429 -0.8859 -1.4444  1.8508
 1012MOL0     H36595   0.095  11.396   1.469 -0.5133 -1.0791 -1.4954
 1012MOL0     H36596  -0.024  11.150   1.623 -0.6113 -0.4506 -0.5065
 1012MOL0     H36597  -0.054  11.308   1.665 -2.2994  0.1568 -1.7522
 1012MOL0     H36598  -0.135  11.358   1.425 -3.4714 -0.6825 -1.5926
 1012MOL0     H36599  -0.231  11.241   1.516 -1.0444  0.8235 -1.8737
 1012MOL0     H36600  -0.105  11.049   1.408  1.9546  0.3865 -0.9588
 1012MOL0     H36601  -0.041  11.168   1.293 -0.2921 -2.6678 -0.2251
 1012MOL0     H36602   0.761  11.151   1.747  0.6513 -1.7295  1.2993
 1012MOL0     H36603   0.941  11.009   1.772 -0.0652  0.6809  0.1452
 1012MOL0     H36604   1.181  10.670   1.499 -0.7711 -0.0860 -1.5197
 1012MOL0     H36605   1.344  10.498   1.438 -1.8790  1.2398 -1.1603
 1012MOL0     H36606   3.409  10.393   1.122  3.7335  0.0905  0.8797
 1012MOL0     H36607   3.620  10.271   1.056 -0.5872 -0.6959  0.0503
 1012MOL0     H36608   3.918  10.087   0.904  0.7237 -4.9930  0.0414
 1012MOL0     H36609   4.141  10.014   0.907 -0.0067  0.8558  1.2873
 1012MOL0     H36610   4.377  10.013   0.859 -2.7125  1.9965 -1.6523
 1012MOL0     H36611   4.316   9.868   0.787 -1.2320  0.1261 -0.3638
 1012MOL0     H36612   4.577   9.898   0.808 -0.0554  0.6556  0.4805
 1012MOL0     H36613   4.571   9.990   0.662  2.5501 -1.4690  0.0000
 1012MOL0     H36614   4.450   9.708   0.656 -0.1310  0.0874 -0.3567
 1012MOL0     H36615   4.620   9.735   0.634  0.9867  2.8752 -0.4536
 1012MOL0     H36616   4.415   9.898   0.460 -0.0106 -0.2748  0.8727
 1012MOL0     H36617   4.463   9.735   0.419  2.1537 -1.0744 -0.6047
 1012MOL0     H36618   4.806   9.901   0.305  1.1451 -1.6854  1.2990
 1012MOL0     H36619   4.169  10.117   0.482  1.5881 -0.9282  0.7635
 1012MOL0     H36620   3.954  10.217   0.499 -2.3047 -0.8747  1.2816
 1013MOL0     O36621   2.582   4.791   2.730 -0.2765 -0.0426  0.2767
 1013MOL0     C36622   2.628   4.872   2.818 -0.2866  0.2040  1.0463
 1013MOL0     O36623   2.560   4.916   2.921 -0.1655 -0.0498  0.6908
 1013MOL0     C36624   2.427   4.883   2.936 -0.1360 -0.2956  0.3964
 1013MOL0     C36625   2.389   4.812   3.047 -0.3534  0.4980  0.1665
 1013MOL0     C36626   2.257   4.784   3.072 -0.0256 -1.0146 -0.8686
 1013MOL0     C36627   2.155   4.835   2.986  0.6467 -0.7455  0.1486
 1013MOL0     O36628   2.017   4.819   3.022 -0.6876  0.7776 -0.0205
 1013MOL0     C36629   1.957   4.939   3.082  0.3171 -0.7077  0.5894
 1013MOL0     C36630   1.825   4.967   3.006 -1.0975 -0.1192  0.4192
 1013MOL0     C36631   1.765   5.097   3.066  0.2955  0.4098  0.2774
 1013MOL0     C36632   1.657   5.147   2.972  1.3619 -0.7091  0.5716
 1013MOL0     C36633   1.538   5.056   2.945  0.3222 -0.0677 -0.3460
 1013MOL0     C36634   1.460   5.010   3.076 -0.1579  0.5178 -0.0044
 1013MOL0     C36635   1.320   4.962   3.041 -0.5187  0.3418 -0.3734
 1013MOL0     C36636   1.251   4.898   3.173  0.6615  0.4188  0.1550
 1013MOL0     N36637   1.226   4.996   3.280 -0.5606 -0.2753  0.4937
 1013MOL0     C36638   1.136   5.099   3.270 -0.2090  0.0158  0.4542
 1013MOL0     C36639   1.113   5.125   3.395 -0.7375  0.8682 -0.8356
 1013MOL0     C36640   1.026   5.241   3.449 -0.1933  0.0962 -0.4382
 1013MOL0     C36641   1.116   5.319   3.541 -0.0089 -1.5105 -0.2296
 1013MOL0     C36642   1.040   5.439   3.592 -0.5601  0.7406 -0.0254
 1013MOL0     C36643   0.959   5.525   3.497 -0.2846 -0.0271  0.0219
 1013MOL0     O36644   1.056   5.606   3.422  0.0026  0.3705  0.3623
 1013MOL0     C36645   1.018   5.651   3.300 -0.8355  0.2575  0.6341
 1013MOL0     C36646   0.883   5.653   3.263  0.2437 -0.3972 -0.2027
 1013MOL0     C36647   0.829   5.700   3.133  0.0698 -0.8983  0.3138
 1013MOL0     C36648   0.680   5.693   3.117  0.0396  0.3722 -1.2787
 1013MOL0     C36649   0.929   5.742   3.037 -0.1155 -0.3029 -0.1234
 1013MOL0     C36650   0.897   5.778   2.895  0.1608  0.0901 -0.2156
 1013MOL0     O36651   1.003   5.775   2.804 -0.7845  0.0673 -0.5669
 1013MOL0     C36652   0.991   5.857   2.689  0.6868 -0.2418  0.0136
 1013MOL0     C36653   0.907   5.816   2.582 -0.4073  0.4298 -0.4632
 1013MOL0     C36654   0.901   5.888   2.462  0.0809  0.4141  0.0538
 1013MOL0     C36655   0.975   5.999   2.451  0.5444  0.3484 -0.6613
 1013MOL0     O36656   0.958   6.066   2.334  0.2359  0.3172 -0.4579
 1013MOL0     C36657   0.996   6.199   2.317 -0.6432  0.9311 -0.1597
 1013MOL0     C36658   0.935   6.253   2.190 -0.0445  0.4795  0.0324
 1013MOL0     C36659   0.793   6.304   2.231 -0.7850  0.7165  0.0274
 1013MOL0     C36660   0.735   6.406   2.128  0.2192  0.2780  0.7436
 1013MOL0     C36661   0.582   6.428   2.153  1.3412 -0.4848 -0.1403
 1013MOL0     C36662   0.514   6.511   2.046 -0.8202 -0.8299  1.0463
 1013MOL0     C36663   0.573   6.653   2.043 -0.2288  0.3417 -0.2488
 1013MOL0     C36664   0.486   6.726   1.936  0.3594  0.3574  0.7946
 1013MOL0    Cl36665   0.558   6.888   1.918  0.1781  0.1847  0.3708
 1013MOL0     C36666   1.069   6.034   2.550  0.4576  0.4449  0.0909
 1013MOL0     C36667   1.073   5.966   2.666 -0.1677  0.1597  0.0642
 1013MOL0     O36668   0.785   5.822   2.872 -0.1981  0.1757  0.2938
 1013MOL0     C36669   1.064   5.740   3.077 -0.6840 -0.7372  0.5901
 1013MOL0     C36670   1.102   5.701   3.205  0.6129  0.3842  0.3010
 1013MOL0     N36671   1.190   5.037   3.480  0.6645  0.0219  0.0885
 1013MOL0     N36672   1.263   4.970   3.408 -0.6224  0.1068  0.9623
 1013MOL0     C36673   2.194   4.915   2.876  0.2747 -0.9374  0.1829
 1013MOL0     C36674   2.330   4.939   2.852 -0.4607  0.9072  1.0580
 1013MOL0     C36675   2.763   4.926   2.801  0.1790  0.0647  1.4511
 1013MOL0     C36676   2.847   4.875   2.700 -0.1505  0.1917  0.6030
 1013MOL0     C36677   2.974   4.926   2.662 -0.0019 -0.3118 -0.4120
 1013MOL0     C36678   3.023   5.036   2.736  0.5352 -0.3941  0.4798
 1013MOL0     O36679   3.137   5.091   2.684 -0.0948 -0.9951 -0.3880
 1013MOL0     C36680   3.158   5.228   2.706  0.4342  0.8636 -0.0769
 1013MOL0     C36681   3.283   5.295   2.643  0.1121 -0.0859 -0.2449
 1013MOL0     C36682   3.407   5.229   2.676 -0.8507 -0.4883  0.6031
 1013MOL0     C36683   3.439   5.189   2.822  0.0696 -0.3688 -0.2581
 1013MOL0     C36684   3.475   5.309   2.891  0.5070 -0.1236 -0.4007
 1013MOL0     C36685   3.524   5.403   2.956  0.5658 -0.8566 -0.9009
 1013MOL0     C36686   2.945   5.084   2.841  0.0774  0.4255  0.0989
 1013MOL0     C36687   2.820   5.019   2.881 -0.1388  0.1130  0.1207
 1013MOL0     H36688   2.464   4.778   3.119 -0.0120  3.9848  1.6914
 1013MOL0     H36689   2.237   4.729   3.163  0.8201  0.0566 -0.0049
 1013MOL0     H36690   1.930   4.919   3.186 -2.5541  0.9702  0.2721
 1013MOL0     H36691   2.016   5.029   3.066  0.7146 -1.2477 -1.2214
 1013MOL0     H36692   1.851   4.976   2.901 -3.6797  0.7649 -0.2207
 1013MOL0     H36693   1.756   4.883   3.014 -3.1149  1.2230 -1.7213
 1013MOL0     H36694   1.724   5.075   3.164 -2.0219 -1.1577 -0.9516
 1013MOL0     H36695   1.844   5.173   3.072 -1.1720  1.8762  2.1116
 1013MOL0     H36696   1.618   5.238   3.018 -1.6416 -0.9256 -1.3464
 1013MOL0     H36697   1.695   5.166   2.871  0.1277 -1.7629 -0.1108
 1013MOL0     H36698   1.463   5.099   2.878  0.1163 -1.2792 -0.9307
 1013MOL0     H36699   1.581   4.965   2.900 -0.9014 -1.5353  1.3306
 1013MOL0     H36700   1.517   4.923   3.108  0.8234  0.3902 -1.9567
 1013MOL0     H36701   1.461   5.080   3.160  0.2554  1.3314 -0.6620
 1013MOL0     H36702   1.269   5.048   2.997  0.6483  0.4676 -1.5332
 1013MOL0     H36703   1.315   4.881   2.968 -0.0667 -2.8833  2.8432
 1013MOL0     H36704   1.318   4.816   3.202  1.7611  0.4090 -2.2081
 1013MOL0     H36705   1.157   4.855   3.138  0.4393  1.0606 -0.0608
 1013MOL0     H36706   1.099   5.149   3.181  1.5110  0.2659 -0.1724
 1013MOL0     H36707   1.004   5.302   3.360  1.3969  0.8413 -0.3485
 1013MOL0     H36708   0.938   5.211   3.507  0.1018  0.9121  0.4569
 1013MOL0     H36709   1.204   5.356   3.488 -0.0615 -2.2640 -0.8582
 1013MOL0     H36710   1.151   5.252   3.620 -0.8492 -1.2605  0.3698
 1013MOL0     H36711   1.114   5.499   3.645 -0.1096  1.3467 -1.2920
 1013MOL0     H36712   0.965   5.396   3.659  0.0573 -0.9593 -0.3874
 1013MOL0     H36713   0.892   5.594   3.550  0.8430 -0.3269  1.9285
 1013MOL0     H36714   0.905   5.467   3.422  0.8336 -0.5378 -0.3957
 1013MOL0     H36715   0.799   5.616   3.321 -1.0440  2.5227  0.0002
 1013MOL0     H36716   0.627   5.676   3.211  1.8641  2.8312  0.3136
 1013MOL0     H36717   0.653   5.791   3.075  2.4679  1.4948 -0.3912
 1013MOL0     H36718   0.665   5.612   3.045  0.7649 -1.1421  0.2148
 1013MOL0     H36719   0.843   5.729   2.595 -0.9578  0.5569 -2.0649
 1013MOL0     H36720   0.840   5.855   2.379 -2.6184  0.7218  1.7831
 1013MOL0     H36721   0.962   6.261   2.400 -1.2423  2.1132 -1.2444
 1013MOL0     H36722   1.104   6.195   2.296 -1.0730 -0.9244 -2.4216
 1013MOL0     H36723   0.988   6.342   2.156 -2.5501  1.5654 -1.3382
 1013MOL0     H36724   0.935   6.173   2.115  0.0450  0.1255  0.4080
 1013MOL0     H36725   0.792   6.356   2.327 -0.2973  1.6247 -0.4502
 1013MOL0     H36726   0.724   6.220   2.247 -0.4382  0.6628  1.2741
 1013MOL0     H36727   0.786   6.498   2.160 -0.8575  0.6235  1.5228
 1013MOL0     H36728   0.760   6.369   2.028 -0.5472 -2.7745  1.5748
 1013MOL0     H36729   0.567   6.477   2.250 -3.3138 -2.0840  0.1938
 1013MOL0     H36730   0.527   6.334   2.155 -2.6485  1.5673 -0.9179
 1013MOL0     H36731   0.513   6.473   1.944 -1.5940  1.2266  0.2426
 1013MOL0     H36732   0.407   6.529   2.062 -0.8825  0.7636 -0.8547
 1013MOL0     H36733   0.679   6.650   2.018  0.9487  1.2445  3.8726
 1013MOL0     H36734   0.571   6.699   2.142  1.7213  1.2474 -0.6038
 1013MOL0     H36735   0.380   6.743   1.958 -0.1520 -0.3039 -1.0020
 1013MOL0     H36736   0.503   6.670   1.844  0.7858  0.5549  0.7526
 1013MOL0     H36737   1.127   6.123   2.528  2.8550 -1.0623 -0.1053
 1013MOL0     H36738   1.153   5.985   2.737  0.2802 -2.2039  0.2764
 1013MOL0     H36739   1.145   5.790   3.024 -0.5546  3.2084  3.9942
 1013MOL0     H36740   1.204   5.697   3.244  0.2299 -5.6536  1.6412
 1013MOL0     H36741   2.121   4.971   2.819  1.7257 -0.1675 -1.0173
 1013MOL0     H36742   2.370   5.007   2.776 -0.4927  0.4516  0.6307
 1013MOL0     H36743   2.808   4.787   2.648 -0.7229  0.2411  0.9327
 1013MOL0     H36744   3.030   4.875   2.585 -1.1605 -1.0718 -0.7660
 1013MOL0     H36745   3.072   5.284   2.666  0.6878 -0.5469 -2.8114
 1013MOL0     H36746   3.147   5.252   2.812 -2.4527  0.0802 -0.1118
 1013MOL0     H36747   3.281   5.399   2.675 -0.0046  0.5851 -2.2725
 1013MOL0     H36748   3.266   5.300   2.535 -2.9611 -0.1351  0.1660
 1013MOL0     H36749   3.488   5.287   2.630  0.2353 -2.1784  0.3030
 1013MOL0     H36750   3.407   5.133   2.625 -2.4857  0.0366 -0.4604
 1013MOL0     H36751   3.527   5.124   2.829  1.1160  1.0498  0.1125
 1013MOL0     H36752   3.347   5.145   2.863  0.4781  0.6611  1.9063
 1013MOL0     H36753   3.569   5.475   3.022 -0.0515  0.3130 -1.7088
 1013MOL0     H36754   2.978   5.167   2.903 -3.9895  1.2432  1.5071
 1013MOL0     H36755   2.770   5.064   2.967  1.4707 -1.1379  1.7880
 1014MOL0     O36756   4.881   1.052  11.061 -0.7239  0.4526  0.1158
 1014MOL0     C36757   4.941   0.998  10.971 -0.1267 -0.6212 -0.2482
 1014MOL0     O36758   4.878   0.949  10.860 -0.7255  0.1701  0.5126
 1014MOL0     C36759   4.739   0.944  10.861 -0.5293  0.2614  0.4220
 1014MOL0     C36760   4.685   0.968  10.728 -0.0458 -0.2874 -0.6645
 1014MOL0     C36761   4.540   0.995  10.731 -0.0883 -0.8785 -0.3094
 1014MOL0     C36762   4.457   0.954  10.835 -0.1548 -0.1900  0.2680
 1014MOL0     O36763   4.321   0.977  10.811  0.4912  0.3362  0.3344
 1014MOL0     C36764   4.251   1.014  10.927  0.3197 -0.5981 -0.8633
 1014MOL0     C36765   4.114   1.069  10.918  0.2894  0.0052  0.0421
 1014MOL0     C36766   4.015   0.957  10.880  0.5134  0.5652  0.1773
 1014MOL0     C36767   3.877   1.014  10.879 -0.1574 -0.0768 -0.3234
 1014MOL0     C36768   3.771   0.908  10.862  0.0218 -0.4529  0.0208
 1014MOL0     C36769   3.634   0.992  10.888  0.0251  0.2092  0.1664
 1014MOL0     C36770   3.510   0.903  10.881 -0.8969  0.3632 -0.1946
 1014MOL0     C36771   3.397   0.978  10.801 -0.7117 -0.2045 -0.3029
 1014MOL0     N36772   3.278   0.891  10.824 -0.0313  0.5930  0.1927
 1014MOL0     C36773   3.267   0.755  10.795  0.0828  0.0599 -0.2685
 1014MOL0     C36774   3.145   0.715  10.841 -0.6726 -0.2502  0.1164
 1014MOL0     C36775   3.095   0.579  10.843 -0.4366 -0.1047 -0.0727
 1014MOL0     C36776   3.082   0.521  10.709 -0.4559 -0.3655  0.8874
 1014MOL0     C36777   3.039   0.372  10.699 -0.2278 -0.0643 -0.1540
 1014MOL0     C36778   2.898   0.355  10.766  0.0545 -0.4157  0.1791
 1014MOL0     O36779   2.855   0.222  10.738 -0.9910 -0.2919 -0.8330
 1014MOL0     C36780   2.792   0.160  10.841 -0.5205 -0.6198  0.0326
 1014MOL0     C36781   2.820   0.039  10.886 -0.6767  0.6799 -0.5399
 1014MOL0     C36782   2.747  -0.030  10.987 -0.1641  0.0408 -0.1601
 1014MOL0     C36783   2.795  -0.168  11.030  0.1311 -0.1434  0.0623
 1014MOL0     C36784   2.639   0.030  11.049 -0.3928  0.0539 -0.1900
 1014MOL0     C36785   2.553  -0.022  11.163 -0.0808  0.3238 -0.8463
 1014MOL0     O36786   2.480   0.065  11.239  0.0647 -0.0107 -0.1816
 1014MOL0     C36787   2.395   0.014  11.334 -0.4168 -0.0368 -0.2917
 1014MOL0     C36788   2.283  -0.054  11.314  0.9019 -0.3319 -0.3430
 1014MOL0     C36789   2.194  -0.089  11.418 -0.8454 -1.1725  0.2189
 1014MOL0     C36790   2.216  -0.042  11.549  0.0983  0.5018  0.2551
 1014MOL0     O36791   2.143  -0.076  11.656 -0.4400  0.9465  0.4668
 1014MOL0     C36792   2.048  -0.186  11.646  0.9388  0.1543  0.2974
 1014MOL0     C36793   1.961  -0.191  11.769  0.0936  0.7410  0.0799
 1014MOL0     C36794   1.845  -0.293  11.763 -0.5711  0.0626 -0.5784
 1014MOL0     C36795   1.798  -0.307  11.908 -0.5494  0.4300  0.2256
 1014MOL0     C36796   1.654  -0.360  11.909 -0.0742  0.2196 -0.1847
 1014MOL0     C36797   1.563  -0.336  12.037 -0.5702 -0.1264  0.0593
 1014MOL0     C36798   1.420  -0.391  12.029  0.2301  0.0159 -0.2473
 1014MOL0     C36799   1.331  -0.328  11.921 -0.2964 -0.3987 -0.4509
 1014MOL0    Cl36800   1.310  -0.144  11.926 -0.1307 -0.5235 -0.3625
 1014MOL0     C36801   2.328   0.038  11.568 -0.0782 -0.6416 -0.1370
 1014MOL0     C36802   2.420   0.054  11.464 -0.2002  0.4130 -0.2527
 1014MOL0     O36803   2.560  -0.148  11.181 -0.2929  0.0044  0.0784
 1014MOL0     C36804   2.595   0.153  10.992 -0.5787  0.0725 -0.2100
 1014MOL0     C36805   2.676   0.221  10.894  0.2507 -0.2673  0.2654
 1014MOL0     N36806   3.088   0.821  10.902 -0.3288  0.0237  0.7709
 1014MOL0     N36807   3.161   0.925  10.880  1.2214 -0.2231 -0.0554
 1014MOL0     C36808   4.512   0.903  10.953 -1.1470  0.8870 -0.0571
 1014MOL0     C36809   4.654   0.901  10.968 -0.2004 -0.0060 -0.2380
 1014MOL0     C36810   5.088   0.973  10.988  0.6819 -1.0408 -0.5500
 1014MOL0     C36811   5.144   1.007  11.111 -0.5914 -0.3283  0.2463
 1014MOL0     C36812   5.279   0.982  11.134 -0.7199  0.0222 -0.1014
 1014MOL0     C36813   5.357   0.923  11.034 -0.4214  0.2446 -1.0004
 1014MOL0     O36814   5.486   0.892  11.036 -0.2343 -0.4460  0.2283
 1014MOL0     C36815   5.562   0.934  11.153 -0.0690 -0.4795  0.1243
 1014MOL0     C36816   5.711   0.940  11.126 -0.5413  0.6465  0.1395
 1014MOL0     C36817   5.771   0.801  11.121  0.0497 -0.0180 -0.9394
 1014MOL0     C36818   5.916   0.803  11.080 -0.3339 -1.2313 -0.7255
 1014MOL0     C36819   6.009   0.886  11.161  0.8947 -0.8608 -0.8932
 1014MOL0     C36820   6.091   0.951  11.218 -0.7220 -0.9287  0.3678
 1014MOL0     C36821   5.293   0.883  10.921 -0.6422 -0.8041  0.2609
 1014MOL0     C36822   5.160   0.908  10.896 -0.2015 -0.2763 -0.2722
 1014MOL0     H36823   4.749   0.998  10.645 -0.7967  0.5716 -0.9513
 1014MOL0     H36824   4.493   1.045  10.646  0.5789  3.7594  1.7180
 1014MOL0     H36825   4.250   0.930  10.997  1.9456  1.4437  1.8096
 1014MOL0     H36826   4.308   1.083  10.990 -1.8288  0.8888 -0.4300
 1014MOL0     H36827   4.093   1.111  11.016 -1.3726 -1.3565  0.3338
 1014MOL0     H36828   4.104   1.146  10.841  1.8430 -0.2958 -0.5043
 1014MOL0     H36829   4.035   0.914  10.782  1.3986  2.4107 -0.4856
 1014MOL0     H36830   4.024   0.885  10.962  1.0895 -0.6740 -0.9317
 1014MOL0     H36831   3.859   1.058  10.978 -1.1821 -0.4516 -0.3330
 1014MOL0     H36832   3.859   1.090  10.802 -0.4316  0.4071  0.2094
 1014MOL0     H36833   3.768   0.865  10.761  0.1690  0.9948 -0.6286
 1014MOL0     H36834   3.776   0.829  10.938 -3.6461  0.9963  2.0118
 1014MOL0     H36835   3.631   1.046  10.983 -2.3903  2.3954 -1.0129
 1014MOL0     H36836   3.621   1.069  10.811 -3.3391  1.5223  1.8163
 1014MOL0     H36837   3.539   0.811  10.830  1.2726 -1.0367  3.2515
 1014MOL0     H36838   3.474   0.877  10.981  1.4696 -0.4489  0.4995
 1014MOL0     H36839   3.414   0.975  10.693  1.0617 -0.4897 -0.0463
 1014MOL0     H36840   3.374   1.078  10.841  1.0987  0.8256 -1.6766
 1014MOL0     H36841   3.344   0.694  10.750 -0.2113 -0.1464 -0.4929
 1014MOL0     H36842   3.169   0.522  10.900  1.9748  2.9892  0.1858
 1014MOL0     H36843   2.998   0.577  10.893  0.9509 -1.2569  2.7995
 1014MOL0     H36844   3.183   0.524  10.668 -0.8455  2.2555 -0.0821
 1014MOL0     H36845   3.007   0.575  10.651 -0.3496 -2.4797 -1.3874
 1014MOL0     H36846   3.108   0.307  10.753 -1.5785 -0.8527  0.6846
 1014MOL0     H36847   3.019   0.330  10.600 -3.5435 -1.3998  0.9385
 1014MOL0     H36848   2.825   0.418  10.714  0.4090  0.5438  0.8254
 1014MOL0     H36849   2.901   0.379  10.872  2.6848  1.8590 -0.2963
 1014MOL0     H36850   2.911  -0.012  10.855 -0.2586  1.6339 -0.9189
 1014MOL0     H36851   2.718  -0.236  10.994  0.0782 -0.6030  1.0092
 1014MOL0     H36852   2.883  -0.191  10.970 -0.9423  1.6067 -2.3534
 1014MOL0     H36853   2.816  -0.180  11.137  0.4750  0.4865  0.0676
 1014MOL0     H36854   2.260  -0.096  11.216 -0.2814 -1.9592  0.5701
 1014MOL0     H36855   2.122  -0.166  11.392 -1.9275 -0.5446  1.2996
 1014MOL0     H36856   1.980  -0.180  11.561  2.4790 -2.2318 -1.2484
 1014MOL0     H36857   2.099  -0.282  11.629  1.6122  0.9338 -2.6114
 1014MOL0     H36858   2.039  -0.208  11.844 -1.0718 -0.1856  1.1314
 1014MOL0     H36859   1.929  -0.088  11.784  0.7017  0.6150  2.6920
 1014MOL0     H36860   1.877  -0.387  11.716 -1.6223 -1.0256  0.7665
 1014MOL0     H36861   1.763  -0.259  11.699  0.2141  1.3649 -0.9085
 1014MOL0     H36862   1.870  -0.367  11.963  0.9459  1.1247 -0.9069
 1014MOL0     H36863   1.779  -0.210  11.957 -2.3934  0.7491 -1.0203
 1014MOL0     H36864   1.661  -0.466  11.881 -1.2104  0.5726 -1.9428
 1014MOL0     H36865   1.605  -0.307  11.827 -1.6724 -1.6886 -0.5481
 1014MOL0     H36866   1.606  -0.377  12.129  0.3475 -1.8871 -1.0858
 1014MOL0     H36867   1.553  -0.230  12.064 -2.0149 -0.3153  0.3269
 1014MOL0     H36868   1.377  -0.378  12.129 -0.7446 -2.2423 -0.3130
 1014MOL0     H36869   1.419  -0.498  12.011 -1.0735  0.1629 -1.1447
 1014MOL0     H36870   1.228  -0.363  11.925 -0.6698  0.7613  0.2790
 1014MOL0     H36871   1.368  -0.343  11.819 -1.6175  2.3360 -1.4231
 1014MOL0     H36872   2.352   0.075  11.667  0.9165  0.9976 -0.9519
 1014MOL0     H36873   2.513   0.102  11.495  0.1716 -1.5832  1.9895
 1014MOL0     H36874   2.515   0.218  11.028  0.5688  1.3733  0.0896
 1014MOL0     H36875   2.631   0.312  10.855 -1.0244  0.1510  2.5666
 1014MOL0     H36876   4.461   0.862  11.040  0.7129  1.9846  1.6289
 1014MOL0     H36877   4.702   0.877  11.062 -2.0350 -0.5883  0.5773
 1014MOL0     H36878   5.089   1.073  11.178 -0.4470  2.8772 -2.5062
 1014MOL0     H36879   5.305   1.021  11.232 -2.7367 -1.3697  1.0569
 1014MOL0     H36880   5.528   1.035  11.177  0.7176 -0.1502 -0.1146
 1014MOL0     H36881   5.538   0.864  11.234 -0.2112 -0.4372  0.1183
 1014MOL0     H36882   5.757   1.000  11.206 -0.6279 -0.0541  0.7306
 1014MOL0     H36883   5.726   0.985  11.028  0.9433 -1.9127 -0.9153
 1014MOL0     H36884   5.719   0.743  11.044 -5.3398  2.0533  0.6927
 1014MOL0     H36885   5.756   0.750  11.217  4.1326  1.4109  0.6610
 1014MOL0     H36886   5.916   0.834  10.975 -2.5015 -3.8657 -1.6210
 1014MOL0     H36887   5.956   0.701  11.086  0.3676 -0.8834  0.7852
 1014MOL0     H36888   6.152   1.027  11.262  1.5857 -2.1893 -0.5128
 1014MOL0     H36889   5.355   0.831  10.849 -0.0010 -2.2661  1.7894
 1014MOL0     H36890   5.109   0.876  10.806 -0.0786  1.4787 -1.0050
 1015MOL0     O36891   2.165  10.662   8.587  0.2638 -0.0421  0.1617
 1015MOL0     C36892   2.256  10.640   8.504 -0.1501  0.4795 -0.1013
 1015MOL0     O36893   2.244  10.563   8.395  0.2023  0.0491  0.2692
 1015MOL0     C36894   2.122  10.493   8.364 -0.3020 -0.0854 -0.6024
 1015MOL0     C36895   2.135  10.365   8.305  0.0531 -0.1480 -0.5386
 1015MOL0     C36896   2.022  10.293   8.269 -0.0153  0.2668 -0.5148
 1015MOL0     C36897   1.895  10.357   8.267  0.0826  0.9569  0.1618
 1015MOL0     O36898   1.780  10.285   8.229 -0.2581  0.0103 -0.8885
 1015MOL0     C36899   1.781  10.147   8.258  0.8218  0.3437 -0.5996
 1015MOL0     C36900   1.638  10.102   8.277  0.0689  0.0076  0.5404
 1015MOL0     C36901   1.537  10.136   8.157 -0.3348  0.2870 -1.1749
 1015MOL0     C36902   1.384  10.132   8.199 -0.3150  0.2271  0.7727
 1015MOL0     C36903   1.350   9.986   8.201  0.1122  0.1707  0.5370
 1015MOL0     C36904   1.372   9.931   8.338 -1.0011 -0.1091 -0.9414
 1015MOL0     C36905   1.334   9.786   8.330  0.3429  0.2549 -0.2965
 1015MOL0     C36906   1.315   9.712   8.467 -0.4549  0.9266 -0.0445
 1015MOL0     N36907   1.251   9.580   8.453 -0.9045  0.7925  0.6731
 1015MOL0     C36908   1.130   9.559   8.393  0.3425  0.0257  0.5018
 1015MOL0     C36909   1.106   9.429   8.409  0.1078 -0.7064 -0.1709
 1015MOL0     C36910   0.995   9.340   8.362 -0.5316  0.2086  1.1813
 1015MOL0     C36911   0.883   9.329   8.480 -0.0648 -0.1787 -0.3337
 1015MOL0     C36912   0.821   9.186   8.469 -0.0610  0.1521  0.1241
 1015MOL0     C36913   0.749   9.170   8.338  0.3124  1.0655  0.2106
 1015MOL0     O36914   0.626   9.250   8.331  0.0502  0.4540 -0.5203
 1015MOL0     C36915   0.537   9.233   8.228 -0.0692 -0.7984 -0.1658
 1015MOL0     C36916   0.432   9.330   8.224  0.2027 -0.1570 -0.5203
 1015MOL0     C36917   0.330   9.325   8.127 -0.0355 -0.8029 -0.0067
 1015MOL0     C36918   0.220   9.432   8.124 -0.6625 -0.8185  0.4262
 1015MOL0     C36919   0.345   9.217   8.029  0.4134 -0.0333 -0.0152
 1015MOL0     C36920   0.255   9.199   7.911 -0.7724  0.4771  0.7376
 1015MOL0     O36921   0.155   9.292   7.888  0.2025 -0.6322 -0.1894
 1015MOL0     C36922   0.057   9.245   7.802  0.6658 -0.2155  0.5824
 1015MOL0     C36923  -0.015   9.130   7.822 -0.2342  0.0597 -0.0845
 1015MOL0     C36924  -0.119   9.102   7.735 -1.1902 -0.1484  0.1582
 1015MOL0     C36925  -0.149   9.177   7.629  0.1233  0.1644 -0.3205
 1015MOL0     O36926  -0.256   9.144   7.555  0.3901 -0.3014  0.2898
 1015MOL0     C36927  -0.357   9.253   7.550 -0.7470  0.2832 -0.1127
 1015MOL0     C36928  -0.462   9.209   7.445 -0.0021 -0.0476  0.0809
 1015MOL0     C36929  -0.571   9.320   7.433 -0.0136 -0.2045  0.4135
 1015MOL0     C36930  -0.692   9.269   7.350 -0.1904 -0.0371 -0.6519
 1015MOL0     C36931  -0.804   9.365   7.366  1.0670  0.1994 -0.0898
 1015MOL0     C36932  -0.924   9.327   7.278 -0.2166  0.2640 -0.1463
 1015MOL0     C36933  -1.020   9.443   7.291  0.8987  0.3679  0.7036
 1015MOL0     C36934  -1.148   9.418   7.219  0.1960 -0.6305  0.2928
 1015MOL0    Cl36935  -1.129   9.447   7.046  0.1807 -0.3369  0.0640
 1015MOL0     C36936  -0.074   9.296   7.610  0.3470  0.2102  0.8379
 1015MOL0     C36937   0.029   9.326   7.692 -0.7281 -0.8450 -0.1785
 1015MOL0     O36938   0.278   9.106   7.837  0.5970  0.1521  1.0193
 1015MOL0     C36939   0.450   9.117   8.035  0.0297  0.1342  1.0990
 1015MOL0     C36940   0.536   9.124   8.140  0.3615 -0.2651 -0.2119
 1015MOL0     N36941   1.228   9.374   8.453  0.8383 -0.7182  0.6662
 1015MOL0     N36942   1.313   9.462   8.482  0.3465  0.2234  0.6500
 1015MOL0     C36943   1.887  10.490   8.310 -0.1724 -0.3969  0.2211
 1015MOL0     C36944   2.000  10.556   8.362  0.8691  0.4919 -0.0622
 1015MOL0     C36945   2.376  10.715   8.531 -0.1922 -0.7531  0.2881
 1015MOL0     C36946   2.477  10.714   8.425  0.7416  0.4058  0.0368
 1015MOL0     C36947   2.597  10.766   8.454  0.0514 -0.4438 -0.5612
 1015MOL0     C36948   2.633  10.824   8.577  0.5711  0.1176  0.0630
 1015MOL0     O36949   2.752  10.873   8.609  0.0922 -0.3247 -0.8390
 1015MOL0     C36950   2.868  10.847   8.528  0.0208 -0.0131  0.2011
 1015MOL0     C36951   2.961  10.966   8.531 -0.0129 -0.3683 -0.3779
 1015MOL0     C36952   3.057  10.956   8.414 -0.5579  0.3548 -0.4966
 1015MOL0     C36953   3.142  11.083   8.397 -1.2073 -0.5385  0.5153
 1015MOL0     C36954   3.287  11.044   8.379 -0.0225 -0.0029  0.0648
 1015MOL0     C36955   3.405  11.015   8.374 -0.5391  0.0233  0.0569
 1015MOL0     C36956   2.533  10.823   8.671 -0.2397  0.0892 -0.0379
 1015MOL0     C36957   2.406  10.762   8.651 -0.4854 -0.3072 -0.7915
 1015MOL0     H36958   2.230  10.314   8.299 -0.5651 -2.2083  3.5085
 1015MOL0     H36959   2.024  10.189   8.237  1.6018  0.6428 -1.7092
 1015MOL0     H36960   1.818  10.093   8.170  0.8373  1.9665 -1.6339
 1015MOL0     H36961   1.838  10.131   8.349 -0.1190 -0.1897 -0.0848
 1015MOL0     H36962   1.647   9.993   8.287 -3.2248 -0.4150  0.0792
 1015MOL0     H36963   1.599  10.143   8.371  0.7086  0.2671  0.6982
 1015MOL0     H36964   1.560  10.237   8.123  0.6356 -0.7788 -3.9577
 1015MOL0     H36965   1.567  10.062   8.082 -3.3660 -1.5068 -0.8026
 1015MOL0     H36966   1.350  10.184   8.289 -1.7012  3.8984 -1.6463
 1015MOL0     H36967   1.321  10.180   8.124  1.1471 -0.2513 -0.8173
 1015MOL0     H36968   1.243   9.971   8.185  0.5143 -1.7326 -0.6244
 1015MOL0     H36969   1.401   9.927   8.123  0.7440 -1.1617  1.9090
 1015MOL0     H36970   1.473   9.948   8.376  0.1989  0.1495 -3.9746
 1015MOL0     H36971   1.303   9.973   8.412 -0.1325  0.1203 -0.2367
 1015MOL0     H36972   1.244   9.776   8.269  1.2809  1.9902 -2.0905
 1015MOL0     H36973   1.413   9.741   8.268  0.1281  0.2646 -0.5810
 1015MOL0     H36974   1.256   9.771   8.537  0.8562 -2.6685  4.6538
 1015MOL0     H36975   1.419   9.698   8.499  0.1933  1.2376 -1.8819
 1015MOL0     H36976   1.061   9.637   8.359  0.3584  1.1901  2.9133
 1015MOL0     H36977   0.969   9.372   8.261  2.6668  0.4538  0.3149
 1015MOL0     H36978   1.046   9.244   8.356  0.3008  0.5976  1.8158
 1015MOL0     H36979   0.806   9.407   8.480 -0.9906 -1.0554  1.0872
 1015MOL0     H36980   0.943   9.345   8.570  1.8950 -0.3570 -1.5451
 1015MOL0     H36981   0.749   9.174   8.550 -1.0740 -0.2919 -0.8208
 1015MOL0     H36982   0.896   9.107   8.484 -2.7801 -2.8993 -1.0996
 1015MOL0     H36983   0.723   9.064   8.342 -1.8645  1.5737  0.5023
 1015MOL0     H36984   0.814   9.190   8.252 -1.0986 -0.3336 -1.2680
 1015MOL0     H36985   0.419   9.408   8.298 -1.3575 -1.7681  1.0315
 1015MOL0     H36986   0.212   9.499   8.211 -0.1062  1.0642 -0.9120
 1015MOL0     H36987   0.230   9.497   8.037 -3.1577  0.1585  0.7897
 1015MOL0     H36988   0.124   9.382   8.114  0.2603 -2.3835 -1.0126
 1015MOL0     H36989   0.001   9.063   7.906 -1.4603 -0.8670 -0.5539
 1015MOL0     H36990  -0.182   9.017   7.757  0.3456 -0.6019  3.4428
 1015MOL0     H36991  -0.404   9.274   7.647  1.5434  0.4540  1.0282
 1015MOL0     H36992  -0.315   9.343   7.506  0.2551  0.5911  1.3811
 1015MOL0     H36993  -0.402   9.202   7.354  1.6307  0.3972  1.0719
 1015MOL0     H36994  -0.512   9.117   7.477 -2.3260  1.4284  1.0323
 1015MOL0     H36995  -0.525   9.410   7.391 -1.1462  0.0082 -0.4050
 1015MOL0     H36996  -0.605   9.349   7.533 -1.5935  1.1604 -0.4631
 1015MOL0     H36997  -0.664   9.259   7.245 -2.5028  1.5172 -1.4895
 1015MOL0     H36998  -0.725   9.170   7.384  1.9620 -0.6485 -0.1446
 1015MOL0     H36999  -0.766   9.465   7.341 -1.7188  0.5759 -3.6071
 1015MOL0     H37000  -0.852   9.376   7.464 -1.0463  2.6286 -1.2578
 1015MOL0     H37001  -0.897   9.323   7.172 -2.7001  2.6864 -0.9845
 1015MOL0     H37002  -0.989   9.241   7.295 -0.2299  0.0731 -1.0713
 1015MOL0     H37003  -0.980   9.538   7.256  1.9414  0.5529  2.2850
 1015MOL0     H37004  -1.047   9.447   7.397 -2.3158 -1.2034  0.0699
 1015MOL0     H37005  -1.222   9.490   7.257 -1.6583 -0.2096 -3.6005
 1015MOL0     H37006  -1.182   9.315   7.233 -0.4942 -0.6730 -1.3900
 1015MOL0     H37007  -0.099   9.362   7.528 -0.6791 -2.4583 -1.1333
 1015MOL0     H37008   0.078   9.423   7.684 -0.4118 -0.9119  0.7619
 1015MOL0     H37009   0.468   9.041   7.960  2.4227  2.1328 -0.4910
 1015MOL0     H37010   0.619   9.054   8.142  2.5183  2.1417 -0.9398
 1015MOL0     H37011   1.793  10.544   8.300 -0.2708 -0.9145 -1.9010
 1015MOL0     H37012   2.000  10.661   8.389 -0.1962  1.6543 -3.9456
 1015MOL0     H37013   2.456  10.662   8.332 -2.8111 -0.8838  1.4152
 1015MOL0     H37014   2.678  10.757   8.383  0.3258  1.2451 -0.4907
 1015MOL0     H37015   2.924  10.768   8.579 -1.4696 -0.8455  0.5948
 1015MOL0     H37016   2.849  10.821   8.424  0.6070 -1.8333  0.5071
 1015MOL0     H37017   3.027  10.973   8.618  1.2964 -2.8704 -1.0554
 1015MOL0     H37018   2.904  11.058   8.520  1.9936  1.2477  1.8358
 1015MOL0     H37019   3.008  10.923   8.322  0.8966 -0.9870 -0.8450
 1015MOL0     H37020   3.129  10.882   8.450 -0.7615  0.2890 -0.2233
 1015MOL0     H37021   3.149  11.145   8.487 -1.3277  0.0367  0.1276
 1015MOL0     H37022   3.119  11.150   8.314  0.5953  2.1160  2.0021
 1015MOL0     H37023   3.509  10.992   8.364 -0.8226 -0.5184 -2.4480
 1015MOL0     H37024   2.546  10.876   8.765  3.0300  1.2875 -1.0176
 1015MOL0     H37025   2.332  10.767   8.730 -1.2265  2.5529 -1.5618
 1016MOL0     O37026   6.134  10.950   6.477 -0.1414  0.3561 -0.6535
 1016MOL0     C37027   6.132  11.055   6.532 -0.0304 -0.2106 -0.7205
 1016MOL0     O37028   6.022  11.117   6.580  0.4721  0.2040 -0.3385
 1016MOL0     C37029   5.900  11.062   6.590  0.3131 -0.2939  0.1311
 1016MOL0     C37030   5.795  11.151   6.566 -0.0114 -0.1867 -0.4688
 1016MOL0     C37031   5.657  11.111   6.575 -0.3637  0.0365  0.2901
 1016MOL0     C37032   5.626  10.973   6.591  0.1427  0.5233 -0.2772
 1016MOL0     O37033   5.499  10.915   6.600  0.4555 -0.2254  1.1127
 1016MOL0     C37034   5.395  11.012   6.589  0.1169 -0.0296  0.4254
 1016MOL0     C37035   5.261  10.935   6.611  0.0065 -0.1323  0.3911
 1016MOL0     C37036   5.138  11.029   6.562  0.1372 -0.0604  0.6748
 1016MOL0     C37037   5.022  10.938   6.563  0.0227 -0.1122 -0.8328
 1016MOL0     C37038   4.915  10.975   6.462 -0.1611  0.0017 -0.6185
 1016MOL0     C37039   4.828  11.085   6.516 -0.3784 -0.7231 -0.4983
 1016MOL0     C37040   4.711  11.129   6.422  1.1715  0.0526  1.1514
 1016MOL0     C37041   4.622  11.232   6.486 -0.7045  0.3716 -0.4821
 1016MOL0     N37042   4.502  11.249   6.406  0.4105 -0.3337 -0.3483
 1016MOL0     C37043   4.397  11.154   6.386 -0.2998 -0.0679 -0.3742
 1016MOL0     C37044   4.320  11.213   6.293  0.3726  0.3592 -0.1928
 1016MOL0     C37045   4.188  11.160   6.246  0.1253 -0.3049  0.6277
 1016MOL0     C37046   4.192  11.138   6.089 -0.0283 -0.1909 -0.9760
 1016MOL0     C37047   4.041  11.140   6.047  0.1278  0.0163 -0.7763
 1016MOL0     C37048   4.022  11.111   5.898 -0.3855 -0.6036 -0.7831
 1016MOL0     O37049   3.880  11.107   5.887  0.1457  0.4994 -0.0489
 1016MOL0     C37050   3.812  11.104   5.759  0.2777 -0.0837 -0.4237
 1016MOL0     C37051   3.673  11.094   5.759  0.5632 -0.7316 -0.0840
 1016MOL0     C37052   3.599  11.128   5.647  0.2264 -0.1557 -0.1280
 1016MOL0     C37053   3.444  11.137   5.673 -0.6888 -0.4800  0.3276
 1016MOL0     C37054   3.672  11.148   5.529 -0.6686  0.4866  0.2240
 1016MOL0     C37055   3.610  11.172   5.399  0.2943 -0.4149 -0.3213
 1016MOL0     O37056   3.687  11.221   5.294 -0.2216  0.3414  0.5984
 1016MOL0     C37057   3.632  11.269   5.173 -0.5623  0.1955 -0.2139
 1016MOL0     C37058   3.724  11.256   5.072 -0.3831 -1.0773 -1.2747
 1016MOL0     C37059   3.686  11.303   4.948 -0.6051  1.2039 -0.0417
 1016MOL0     C37060   3.567  11.356   4.914 -0.2802 -0.4904 -0.5508
 1016MOL0     O37061   3.521  11.399   4.793  0.0922  1.3546  0.1259
 1016MOL0     C37062   3.625  11.433   4.693 -0.4188 -0.0313  0.5564
 1016MOL0     C37063   3.576  11.511   4.573 -0.5593  0.3873  0.2632
 1016MOL0     C37064   3.469  11.426   4.500  0.0801  0.2154 -0.1169
 1016MOL0     C37065   3.431  11.482   4.365 -0.7150 -0.2391 -0.3239
 1016MOL0     C37066   3.343  11.380   4.288 -0.6048 -1.2104  1.1318
 1016MOL0     C37067   3.298  11.449   4.153 -0.4192  0.0985 -0.9175
 1016MOL0     C37068   3.194  11.353   4.096  0.0271 -0.2190  1.0059
 1016MOL0     C37069   3.198  11.372   3.943 -0.2005 -0.0830  0.5191
 1016MOL0    Cl37070   3.057  11.300   3.869 -0.2121  0.2362  0.2545
 1016MOL0     C37071   3.470  11.363   5.019 -0.0147  0.5004  0.5654
 1016MOL0     C37072   3.513  11.323   5.150 -0.1812 -0.2896 -0.0751
 1016MOL0     O37073   3.496  11.133   5.391 -0.1169 -0.8054 -0.2861
 1016MOL0     C37074   3.811  11.140   5.530  0.2802  0.4562 -0.3812
 1016MOL0     C37075   3.884  11.137   5.643 -0.1143 -0.3380  0.0932
 1016MOL0     N37076   4.381  11.333   6.262 -0.6128 -0.4578  0.2500
 1016MOL0     N37077   4.489  11.358   6.328  0.0026 -0.2116  0.2203
 1016MOL0     C37078   5.736  10.886   6.611 -1.1094 -0.2417  0.0081
 1016MOL0     C37079   5.873  10.930   6.621 -0.0425 -0.8095 -0.6596
 1016MOL0     C37080   6.263  11.120   6.543  1.4446 -1.2172  0.5286
 1016MOL0     C37081   6.380  11.067   6.499 -0.0408  0.4683  0.5315
 1016MOL0     C37082   6.498  11.139   6.493  0.8563 -0.5359  0.2643
 1016MOL0     C37083   6.494  11.276   6.516 -0.8463  0.3492 -0.6819
 1016MOL0     O37084   6.618  11.344   6.510  0.2412 -0.2272 -0.1739
 1016MOL0     C37085   6.608  11.484   6.505  0.4340 -0.0796  0.2087
 1016MOL0     C37086   6.741  11.545   6.451  0.7079  0.8571 -1.0323
 1016MOL0     C37087   6.857  11.528   6.554 -1.2082  0.2424 -0.1088
 1016MOL0     C37088   6.982  11.607   6.505  0.2798 -0.0676  0.6162
 1016MOL0     C37089   7.094  11.607   6.597 -0.1286  0.6623  0.2591
 1016MOL0     C37090   7.172  11.596   6.689 -0.0241  0.0713  0.9095
 1016MOL0     C37091   6.382  11.329   6.573  0.8354  0.1827 -0.1053
 1016MOL0     C37092   6.262  11.254   6.588 -0.7263  0.3497 -0.1913
 1016MOL0     H37093   5.824  11.250   6.534  1.4378 -1.2562 -2.7600
 1016MOL0     H37094   5.575  11.182   6.575 -0.6319 -0.2736 -0.2248
 1016MOL0     H37095   5.405  11.086   6.669 -1.6024  1.9990 -1.1007
 1016MOL0     H37096   5.389  11.058   6.490 -1.2825  2.0781  1.4058
 1016MOL0     H37097   5.271  10.851   6.542  0.5012  1.3339 -1.4000
 1016MOL0     H37098   5.248  10.893   6.711  1.4179  1.5066  1.3182
 1016MOL0     H37099   5.135  11.112   6.633  0.0714  0.1163  0.4697
 1016MOL0     H37100   5.167  11.067   6.463  2.0028  0.1733  1.2772
 1016MOL0     H37101   5.057  10.840   6.531  0.2434 -0.6004  0.8496
 1016MOL0     H37102   4.988  10.937   6.666 -0.1398 -0.2868 -0.8887
 1016MOL0     H37103   4.957  11.022   6.373  1.7647  0.3944  0.4259
 1016MOL0     H37104   4.861  10.887   6.426  1.5010 -0.0782 -3.1882
 1016MOL0     H37105   4.784  11.042   6.606  0.1613  1.0729  0.6576
 1016MOL0     H37106   4.892  11.168   6.548 -0.9835 -0.3353 -0.2878
 1016MOL0     H37107   4.753  11.171   6.330  1.4600  0.9217  1.6647
 1016MOL0     H37108   4.644  11.045   6.401  1.2236  0.7607 -2.4807
 1016MOL0     H37109   4.686  11.320   6.499 -0.7875  0.8208 -2.8270
 1016MOL0     H37110   4.592  11.203   6.588  0.1457  1.5985  0.1424
 1016MOL0     H37111   4.393  11.055   6.430  1.3080  0.5204  1.2362
 1016MOL0     H37112   4.179  11.062   6.293  0.5362 -1.5004 -1.6897
 1016MOL0     H37113   4.106  11.231   6.262 -0.8252 -0.6073 -2.3878
 1016MOL0     H37114   4.250  11.049   6.065  0.7152 -0.5266  1.7333
 1016MOL0     H37115   4.236  11.222   6.033  2.7557 -0.9071 -0.0068
 1016MOL0     H37116   3.981  11.230   6.065  1.2024  0.6824 -0.4649
 1016MOL0     H37117   3.987  11.062   6.102  0.2994  0.6355  0.3003
 1016MOL0     H37118   4.073  11.018   5.870  2.9323  0.7339  0.3307
 1016MOL0     H37119   4.069  11.187   5.835 -0.7264 -1.1054 -1.6574
 1016MOL0     H37120   3.629  11.065   5.854 -1.6110 -1.7321 -1.3449
 1016MOL0     H37121   3.413  11.230   5.624  0.4985  0.5588  1.4435
 1016MOL0     H37122   3.383  11.055   5.635  0.0229 -0.0537 -1.8753
 1016MOL0     H37123   3.420  11.154   5.778  3.1212  3.6122  0.8622
 1016MOL0     H37124   3.821  11.211   5.088 -0.1525 -1.1391 -2.6846
 1016MOL0     H37125   3.764  11.299   4.872  0.3092  2.5685  0.7737
 1016MOL0     H37126   3.712  11.489   4.725 -1.0763  0.2243  1.9410
 1016MOL0     H37127   3.662  11.336   4.658 -2.6525  0.5962 -4.5023
 1016MOL0     H37128   3.548  11.610   4.611  0.1289  0.4888  0.5069
 1016MOL0     H37129   3.661  11.526   4.506 -1.6269  3.2642 -0.6047
 1016MOL0     H37130   3.382  11.420   4.565 -1.0312  1.1529 -1.4759
 1016MOL0     H37131   3.519  11.329   4.494 -1.2535 -0.4182 -1.7696
 1016MOL0     H37132   3.386  11.581   4.377 -0.7301 -0.3668  0.7205
 1016MOL0     H37133   3.526  11.490   4.310 -0.0705 -1.4363  0.5727
 1016MOL0     H37134   3.250  11.356   4.341 -2.7657  2.9481 -0.3546
 1016MOL0     H37135   3.390  11.285   4.259 -2.0840 -0.6367 -3.9521
 1016MOL0     H37136   3.262  11.549   4.177  1.7207  0.9514 -1.0185
 1016MOL0     H37137   3.384  11.468   4.088 -2.2376  3.2647 -2.6062
 1016MOL0     H37138   3.099  11.390   4.135  1.2871  3.2197  1.1761
 1016MOL0     H37139   3.206  11.247   4.119  0.2862  0.0944  2.4094
 1016MOL0     H37140   3.290  11.339   3.895  1.0123  0.2369  2.5028
 1016MOL0     H37141   3.195  11.474   3.903  3.5928 -0.6341 -1.6820
 1016MOL0     H37142   3.371  11.406   5.008  1.2396  3.1667 -1.8508
 1016MOL0     H37143   3.437  11.329   5.227  1.5392  1.7101  1.5933
 1016MOL0     H37144   3.864  11.155   5.437 -0.1684  0.8013 -0.5876
 1016MOL0     H37145   3.989  11.164   5.636 -0.6414  1.9107  0.1148
 1016MOL0     H37146   5.714  10.782   6.635 -1.5977 -0.5494 -1.6313
 1016MOL0     H37147   5.952  10.858   6.639  0.2349 -0.5443 -0.8138
 1016MOL0     H37148   6.377  10.966   6.460  0.3618 -0.5685  2.9905
 1016MOL0     H37149   6.593  11.097   6.463 -0.1770 -1.9249 -1.2604
 1016MOL0     H37150   6.522  11.524   6.450  1.0878 -0.0580 -0.8393
 1016MOL0     H37151   6.603  11.508   6.611  2.5403 -2.6328  0.9957
 1016MOL0     H37152   6.725  11.653   6.458 -0.0156  0.7022  5.0160
 1016MOL0     H37153   6.766  11.512   6.350 -1.9461  0.0557 -1.5157
 1016MOL0     H37154   6.888  11.424   6.569 -5.0753 -1.0457 -0.0893
 1016MOL0     H37155   6.816  11.567   6.648 -0.3222  2.3834 -0.5583
 1016MOL0     H37156   6.967  11.715   6.494  0.6780 -0.1977 -1.8547
 1016MOL0     H37157   7.018  11.556   6.415 -1.3229 -0.4969  0.1923
 1016MOL0     H37158   7.234  11.596   6.777  2.8125 -1.5556 -0.9006
 1016MOL0     H37159   6.381  11.427   6.618  0.3250 -0.7047  1.9391
 1016MOL0     H37160   6.169  11.299   6.622 -1.2676  0.2313 -1.4621
 1017MOL0     O37161   0.956   7.971   7.863  0.2070  0.2295  0.7788
 1017MOL0     C37162   1.018   7.997   7.753  0.0242  0.4418 -1.1752
 1017MOL0     O37163   0.976   8.095   7.659  0.5602  0.6858 -0.1431
 1017MOL0     C37164   0.865   8.181   7.682 -0.6166  0.4159  0.5390
 1017MOL0     C37165   0.887   8.319   7.671  0.2496  0.5324 -0.5622
 1017MOL0     C37166   0.775   8.405   7.702 -0.3719  0.2479  0.3819
 1017MOL0     C37167   0.655   8.352   7.733 -0.1330  0.4440 -0.1436
 1017MOL0     O37168   0.551   8.449   7.732 -0.2745 -0.1825  0.3126
 1017MOL0     C37169   0.412   8.413   7.730  0.5885  0.2807 -0.1073
 1017MOL0     C37170   0.356   8.341   7.611  0.0577  0.2498 -0.0749
 1017MOL0     C37171   0.374   8.422   7.486  0.2317  0.2727  0.0892
 1017MOL0     C37172   0.267   8.376   7.372 -0.1251  0.3838 -0.2436
 1017MOL0     C37173   0.242   8.476   7.263  0.0289 -0.1870  0.3433
 1017MOL0     C37174   0.147   8.581   7.303  0.3679  0.3901 -0.4119
 1017MOL0     C37175   0.090   8.676   7.204  0.7171 -0.9163 -0.7900
 1017MOL0     C37176  -0.016   8.619   7.097 -0.8053 -1.1081  1.1178
 1017MOL0     N37177  -0.079   8.724   7.015  0.1537  1.0086  0.6992
 1017MOL0     C37178  -0.025   8.818   6.937 -0.7198 -0.1992  0.4160
 1017MOL0     C37179  -0.132   8.864   6.864  0.5625 -0.8544 -0.4826
 1017MOL0     C37180  -0.132   8.959   6.746 -0.2531  0.2778  0.1613
 1017MOL0     C37181  -0.258   9.045   6.736 -0.4036  0.0344 -0.0120
 1017MOL0     C37182  -0.254   9.154   6.633 -0.7202  0.0792  0.1032
 1017MOL0     C37183  -0.375   9.250   6.649  0.7293  0.3342 -0.1884
 1017MOL0     O37184  -0.504   9.189   6.637 -0.2311  0.3450  0.8424
 1017MOL0     C37185  -0.605   9.279   6.593  0.4737 -0.2207 -0.4723
 1017MOL0     C37186  -0.727   9.224   6.544 -0.0318 -0.3189 -0.0025
 1017MOL0     C37187  -0.843   9.308   6.509  0.5309 -0.3343  0.5921
 1017MOL0     C37188  -0.950   9.238   6.440  1.0730 -0.2614  0.0663
 1017MOL0     C37189  -0.830   9.447   6.527  0.5731  0.3140  0.7375
 1017MOL0     C37190  -0.931   9.544   6.480  0.4556 -0.2415 -0.5782
 1017MOL0     O37191  -0.997   9.528   6.359 -0.0398 -1.0085  0.3446
 1017MOL0     C37192  -1.120   9.583   6.351 -0.6248 -0.0708 -0.8850
 1017MOL0     C37193  -1.213   9.597   6.460 -0.5268 -0.8755 -0.3381
 1017MOL0     C37194  -1.336   9.655   6.435 -0.6726 -0.2955 -0.1269
 1017MOL0     C37195  -1.362   9.720   6.311  0.0617  0.3349  0.2138
 1017MOL0     O37196  -1.480   9.779   6.278  0.0919 -0.3722 -0.3857
 1017MOL0     C37197  -1.585   9.783   6.386 -0.0063 -0.2671 -0.7536
 1017MOL0     C37198  -1.704   9.866   6.336  0.1749 -0.1834 -0.5596
 1017MOL0     C37199  -1.814   9.859   6.442  0.2653 -0.5139 -0.2404
 1017MOL0     C37200  -1.933   9.932   6.381  0.6067  0.7176 -0.1830
 1017MOL0     C37201  -2.059   9.941   6.478 -0.6305  0.4493 -1.0733
 1017MOL0     C37202  -2.016  10.028   6.596  0.1777 -0.5513  0.3897
 1017MOL0     C37203  -2.139  10.047   6.683 -0.3420  0.4928 -0.4150
 1017MOL0     C37204  -2.115  10.116   6.814 -0.5298  0.4114 -0.3806
 1017MOL0    Cl37205  -2.038  10.278   6.816  0.0849 -0.0413  0.0786
 1017MOL0     C37206  -1.271   9.702   6.204 -0.1332 -1.0551 -0.7207
 1017MOL0     C37207  -1.150   9.631   6.226  0.6020 -0.3699 -0.6657
 1017MOL0     O37208  -0.951   9.639   6.553 -0.1433 -0.2726  0.2024
 1017MOL0     C37209  -0.707   9.499   6.583 -0.4700 -0.7652  0.7889
 1017MOL0     C37210  -0.596   9.421   6.614 -0.6158  0.0884 -1.1129
 1017MOL0     N37211  -0.246   8.793   6.908 -0.2752  0.3830  0.6029
 1017MOL0     N37212  -0.217   8.714   7.002  0.4262  0.7920  1.1243
 1017MOL0     C37213   0.637   8.219   7.751 -0.4044  0.3458 -0.0017
 1017MOL0     C37214   0.734   8.131   7.718 -1.5084  0.1294  0.4593
 1017MOL0     C37215   1.154   7.930   7.731 -0.3818  0.0569 -0.0068
 1017MOL0     C37216   1.236   7.946   7.610  0.1542 -0.9729 -0.4001
 1017MOL0     C37217   1.350   7.879   7.592 -1.1991 -0.4473 -0.2023
 1017MOL0     C37218   1.405   7.797   7.691 -0.2779 -0.4031 -0.5381
 1017MOL0     O37219   1.528   7.740   7.675 -0.1557 -0.0529  0.7909
 1017MOL0     C37220   1.591   7.691   7.800  0.0194  0.2162  0.7315
 1017MOL0     C37221   1.741   7.675   7.773 -0.4660 -0.2707  0.4732
 1017MOL0     C37222   1.774   7.567   7.673 -1.1091 -0.0925 -0.9028
 1017MOL0     C37223   1.772   7.624   7.528 -0.6423  0.2109  0.0379
 1017MOL0     C37224   1.887   7.718   7.502 -0.3312  0.0627 -0.2176
 1017MOL0     C37225   1.985   7.786   7.470  0.5501 -0.0262 -0.4340
 1017MOL0     C37226   1.325   7.772   7.807 -0.0022 -0.9445 -0.0734
 1017MOL0     C37227   1.205   7.842   7.827 -0.8689  0.0204 -0.2715
 1017MOL0     H37228   0.974   8.374   7.637  0.5881 -0.0652 -0.6671
 1017MOL0     H37229   0.791   8.512   7.705 -1.6395  0.5261 -1.1678
 1017MOL0     H37230   0.399   8.340   7.810  1.7931  0.4502  0.2709
 1017MOL0     H37231   0.353   8.502   7.752  2.0279  1.2004  0.1984
 1017MOL0     H37232   0.402   8.242   7.615 -1.1461 -0.3475  4.8511
 1017MOL0     H37233   0.250   8.318   7.625  0.0528 -0.0947 -0.6411
 1017MOL0     H37234   0.353   8.522   7.524  0.8273 -0.7992  3.6081
 1017MOL0     H37235   0.478   8.423   7.454  0.5209 -0.1799  0.9748
 1017MOL0     H37236   0.313   8.290   7.324  1.1751  1.2789 -0.6333
 1017MOL0     H37237   0.171   8.347   7.417 -1.5529  0.9180 -2.7426
 1017MOL0     H37238   0.333   8.524   7.227  0.3103  1.3441  2.8758
 1017MOL0     H37239   0.197   8.421   7.179  0.9068  0.2957 -0.4733
 1017MOL0     H37240   0.063   8.528   7.349  0.1189  2.2875  1.5039
 1017MOL0     H37241   0.187   8.641   7.386 -1.1376  1.0183 -0.1032
 1017MOL0     H37242   0.040   8.753   7.263  1.5252 -1.4165  0.6017
 1017MOL0     H37243   0.160   8.728   7.138  1.3930  0.4274  0.9177
 1017MOL0     H37244  -0.098   8.578   7.156 -1.4650  0.5553  1.4108
 1017MOL0     H37245   0.035   8.541   7.040 -1.6327  1.4422 -3.6388
 1017MOL0     H37246   0.079   8.848   6.933 -0.6391 -0.6183 -1.8381
 1017MOL0     H37247  -0.035   9.009   6.741  0.8356 -1.7711 -0.0873
 1017MOL0     H37248  -0.136   8.904   6.652  3.8171  0.3247 -0.2321
 1017MOL0     H37249  -0.275   9.105   6.826 -1.9972  2.0625 -1.5769
 1017MOL0     H37250  -0.344   8.979   6.719 -0.1667 -0.4470  0.6108
 1017MOL0     H37251  -0.255   9.119   6.529 -0.3545  0.6715 -0.1043
 1017MOL0     H37252  -0.166   9.216   6.652 -0.6213 -0.9296  3.6645
 1017MOL0     H37253  -0.367   9.336   6.582 -0.4305  2.3310  2.0773
 1017MOL0     H37254  -0.365   9.301   6.745 -0.4202  0.4499 -0.1087
 1017MOL0     H37255  -0.720   9.116   6.532  0.3114 -0.4316  1.1338
 1017MOL0     H37256  -1.046   9.285   6.462  0.3646 -2.2592  1.6522
 1017MOL0     H37257  -0.930   9.228   6.333  1.1381  2.7449 -0.2810
 1017MOL0     H37258  -0.966   9.138   6.483  2.9150 -0.3513  0.6655
 1017MOL0     H37259  -1.192   9.543   6.552  0.1743 -3.4858 -1.9004
 1017MOL0     H37260  -1.405   9.645   6.519  0.0774 -0.5666  0.4693
 1017MOL0     H37261  -1.621   9.682   6.410  1.0936 -1.1105 -2.4447
 1017MOL0     H37262  -1.546   9.831   6.477 -1.7804  0.3515 -0.2766
 1017MOL0     H37263  -1.673   9.971   6.327 -1.1576  0.4240  1.2791
 1017MOL0     H37264  -1.744   9.841   6.237  0.0332 -3.2199  0.1760
 1017MOL0     H37265  -1.788   9.912   6.534 -3.6552  1.5703 -0.0914
 1017MOL0     H37266  -1.841   9.754   6.455 -4.4140  0.3195 -1.4422
 1017MOL0     H37267  -1.912  10.028   6.333 -0.9968 -0.6832 -4.0391
 1017MOL0     H37268  -1.974   9.873   6.299  0.4512 -0.1893  0.5356
 1017MOL0     H37269  -2.083   9.840   6.512  2.0394  0.0709 -0.0909
 1017MOL0     H37270  -2.144   9.985   6.425 -1.6469  0.9648  0.8728
 1017MOL0     H37271  -1.942   9.975   6.657  2.9778  0.3628 -1.9832
 1017MOL0     H37272  -1.979  10.124   6.558 -3.1399  0.6421 -0.0866
 1017MOL0     H37273  -2.185   9.951   6.707 -1.4898  1.5642  2.0160
 1017MOL0     H37274  -2.214  10.107   6.630  0.2964  0.7391 -1.0528
 1017MOL0     H37275  -2.052  10.054   6.879  0.3072  1.7860  0.1719
 1017MOL0     H37276  -2.208  10.133   6.870 -0.1929  0.4210  0.1883
 1017MOL0     H37277  -1.287   9.750   6.108 -1.6680  0.0701  0.0487
 1017MOL0     H37278  -1.075   9.640   6.148  1.9584 -0.9216  0.5318
 1017MOL0     H37279  -0.695   9.606   6.597  1.6201 -0.6950 -1.0028
 1017MOL0     H37280  -0.506   9.475   6.640  0.0103 -1.2930 -0.2974
 1017MOL0     H37281   0.541   8.172   7.767  1.4076 -5.4656 -3.3194
 1017MOL0     H37282   0.724   8.023   7.718  2.5669 -0.4043 -0.3053
 1017MOL0     H37283   1.198   8.020   7.541 -0.0087 -0.8252 -0.1540
 1017MOL0     H37284   1.414   7.895   7.506  1.3900 -2.3115  1.2489
 1017MOL0     H37285   1.580   7.754   7.889  2.2453  1.8312 -0.0493
 1017MOL0     H37286   1.554   7.590   7.818  3.5662 -1.0447  1.7085
 1017MOL0     H37287   1.787   7.653   7.870  0.7728  0.5209  0.0966
 1017MOL0     H37288   1.774   7.774   7.741  2.0262 -0.7444  1.3784
 1017MOL0     H37289   1.704   7.484   7.684 -0.8684 -0.1139  0.5805
 1017MOL0     H37290   1.865   7.509   7.692 -1.1445 -0.4312 -1.7099
 1017MOL0     H37291   1.671   7.656   7.499 -0.3206  0.0807 -1.2989
 1017MOL0     H37292   1.780   7.552   7.446  0.4733  2.9001 -2.3828
 1017MOL0     H37293   2.074   7.840   7.448  0.5920  0.8062  1.5542
 1017MOL0     H37294   1.367   7.700   7.878  1.8280  0.7650  0.6983
 1017MOL0     H37295   1.150   7.824   7.919  1.6546 -0.1427  1.2980
 1018MOL0     O37296   3.621   1.280   4.747  1.2890 -0.1423  0.3813
 1018MOL0     C37297   3.685   1.244   4.843 -0.5911  0.1279  0.0579
 1018MOL0     O37298   3.650   1.162   4.954  0.0230 -0.5455 -0.6764
 1018MOL0     C37299   3.521   1.115   4.967  0.4782  0.0504  0.3702
 1018MOL0     C37300   3.499   1.017   5.068 -0.2426  1.3074 -0.0131
 1018MOL0     C37301   3.375   0.970   5.093  0.3826  0.3403 -0.5053
 1018MOL0     C37302   3.260   1.015   5.020 -0.1320  0.2900  0.6384
 1018MOL0     O37303   3.139   0.952   5.047 -0.4286 -0.4354 -0.5153
 1018MOL0     C37304   3.020   1.026   5.079 -0.6247  0.0523  0.0291
 1018MOL0     C37305   2.907   0.936   5.056  0.4734 -0.7658 -0.3949
 1018MOL0     C37306   2.785   0.983   5.137  0.1923 -0.3208 -0.0535
 1018MOL0     C37307   2.721   1.105   5.080  0.1409 -0.3809 -0.0527
 1018MOL0     C37308   2.584   1.131   5.153 -0.0141  0.0927 -0.5934
 1018MOL0     C37309   2.549   1.283   5.125  0.6184  0.5809  0.2228
 1018MOL0     C37310   2.404   1.324   5.162 -0.1995 -0.0727 -0.0762
 1018MOL0     C37311   2.354   1.452   5.117 -0.0154  0.1815 -0.4282
 1018MOL0     N37312   2.448   1.566   5.130  0.2783  1.1172  0.6538
 1018MOL0     C37313   2.526   1.621   5.027 -0.3479 -0.1658 -0.3591
 1018MOL0     C37314   2.559   1.747   5.075  0.1567  0.8984 -0.2158
 1018MOL0     C37315   2.647   1.841   5.006  0.8816  0.0644  0.6471
 1018MOL0     C37316   2.561   1.933   4.914  0.1562 -0.4205  0.3217
 1018MOL0     C37317   2.468   2.036   4.984  0.1989  0.5557 -0.2335
 1018MOL0     C37318   2.377   2.087   4.881  0.9822  0.7968 -0.4433
 1018MOL0     O37319   2.291   1.983   4.831 -0.8340  0.8357  0.1882
 1018MOL0     C37320   2.159   2.018   4.798  0.0939 -0.6141  0.2204
 1018MOL0     C37321   2.097   2.146   4.804 -0.1858  0.3796  0.2833
 1018MOL0     C37322   1.957   2.157   4.782 -0.2561 -1.8475 -0.0810
 1018MOL0     C37323   1.908   2.301   4.805  0.3306 -0.7236  0.6855
 1018MOL0     C37324   1.879   2.049   4.737 -0.3194  0.6318 -0.1698
 1018MOL0     C37325   1.726   2.042   4.719 -0.2994 -0.5773 -0.0825
 1018MOL0     O37326   1.688   1.944   4.629  0.0700 -0.0392 -0.3276
 1018MOL0     C37327   1.558   1.903   4.644  0.9019  0.7621 -0.1790
 1018MOL0     C37328   1.523   1.794   4.733 -0.2267 -0.3911  0.4824
 1018MOL0     C37329   1.389   1.767   4.759 -0.7545  0.9632 -0.3163
 1018MOL0     C37330   1.290   1.824   4.682 -0.1219 -0.1822  0.1631
 1018MOL0     O37331   1.158   1.809   4.703  0.0786 -0.2747  0.7852
 1018MOL0     C37332   1.112   1.720   4.803  0.3420  0.0959 -0.0173
 1018MOL0     C37333   0.963   1.718   4.823  0.2045 -0.2062  0.0164
 1018MOL0     C37334   0.893   1.843   4.846 -0.0369 -0.0410 -0.0374
 1018MOL0     C37335   0.743   1.816   4.865 -1.0077 -0.1955  1.0560
 1018MOL0     C37336   0.660   1.940   4.896  0.4973 -0.5153  0.5381
 1018MOL0     C37337   0.515   1.912   4.910  0.1771  0.0410 -0.0736
 1018MOL0     C37338   0.441   2.053   4.923 -1.3683  0.5328  0.6330
 1018MOL0     C37339   0.291   2.030   4.946 -0.3260  0.0923 -0.4071
 1018MOL0    Cl37340   0.189   1.958   4.811 -0.2419  0.6067  0.3846
 1018MOL0     C37341   1.320   1.920   4.580  0.0289 -0.3112 -0.0252
 1018MOL0     C37342   1.454   1.968   4.569  0.3048  0.0531 -0.2465
 1018MOL0     O37343   1.648   2.120   4.776 -0.4729 -0.4680  0.3370
 1018MOL0     C37344   1.952   1.928   4.732  0.3141  0.3059  0.1419
 1018MOL0     C37345   2.083   1.909   4.760 -0.0365 -0.9218  0.3824
 1018MOL0     N37346   2.523   1.759   5.207 -0.2655  0.3214 -0.1666
 1018MOL0     N37347   2.449   1.652   5.232  0.3800  0.2768 -0.6843
 1018MOL0     C37348   3.275   1.117   4.923 -0.1248  0.7941 -0.7302
 1018MOL0     C37349   3.404   1.163   4.901  0.0810  0.7631  0.0401
 1018MOL0     C37350   3.837   1.280   4.833  0.2133 -0.1547 -0.2698
 1018MOL0     C37351   3.895   1.353   4.728  0.3063  0.4813  0.3841
 1018MOL0     C37352   4.029   1.381   4.716 -0.3100 -0.1760  0.5629
 1018MOL0     C37353   4.124   1.330   4.799 -0.1432 -0.2809 -0.3465
 1018MOL0     O37354   4.259   1.358   4.777 -0.1424 -0.3650  0.2249
 1018MOL0     C37355   4.347   1.302   4.875  0.3259 -0.3411 -0.2165
 1018MOL0     C37356   4.483   1.359   4.864 -0.9685 -0.2089 -0.0054
 1018MOL0     C37357   4.500   1.503   4.913 -0.3675 -0.6192  0.8402
 1018MOL0     C37358   4.646   1.544   4.944 -0.1036 -0.7533 -0.4925
 1018MOL0     C37359   4.709   1.464   5.042  0.4498 -0.6486  0.1265
 1018MOL0     C37360   4.770   1.408   5.133  0.4110 -0.6547 -0.2438
 1018MOL0     C37361   4.076   1.244   4.898 -0.4301  1.1511  0.2975
 1018MOL0     C37362   3.940   1.212   4.912  0.8739  0.9808  0.0726
 1018MOL0     H37363   3.577   0.987   5.136 -0.9481 -2.3302 -0.6104
 1018MOL0     H37364   3.357   0.891   5.166 -0.9607  0.3102 -0.8410
 1018MOL0     H37365   3.023   1.064   5.181 -0.6938 -1.4645  0.6212
 1018MOL0     H37366   3.001   1.114   5.018 -0.2848  1.5698  2.0168
 1018MOL0     H37367   2.886   0.934   4.949  1.3729  3.5167 -0.8325
 1018MOL0     H37368   2.932   0.839   5.100 -0.4078 -0.6119  0.4969
 1018MOL0     H37369   2.709   0.904   5.132  0.8244 -0.8967 -1.3460
 1018MOL0     H37370   2.817   0.994   5.241  2.1440 -1.1453 -0.5202
 1018MOL0     H37371   2.783   1.193   5.101 -1.8528  0.7729  1.3739
 1018MOL0     H37372   2.701   1.087   4.974 -2.3620 -1.2922  0.5153
 1018MOL0     H37373   2.496   1.075   5.120 -0.0339 -0.2235 -0.0112
 1018MOL0     H37374   2.598   1.111   5.260  1.2479  0.8290 -0.6076
 1018MOL0     H37375   2.616   1.343   5.187 -0.5918  2.8431 -0.5586
 1018MOL0     H37376   2.561   1.314   5.021 -0.6603 -0.8244 -0.3932
 1018MOL0     H37377   2.333   1.246   5.135 -1.8115  0.6452  1.8331
 1018MOL0     H37378   2.415   1.333   5.271  3.5299  0.3628 -0.3714
 1018MOL0     H37379   2.256   1.476   5.160  0.9141  2.5945  0.5072
 1018MOL0     H37380   2.335   1.438   5.010  1.6094  1.2015 -0.8878
 1018MOL0     H37381   2.541   1.577   4.929 -2.5385  0.7787 -1.1801
 1018MOL0     H37382   2.710   1.895   5.076  0.2190 -0.5179  1.7112
 1018MOL0     H37383   2.710   1.782   4.939  0.6244 -0.6896  1.0575
 1018MOL0     H37384   2.496   1.876   4.847 -1.2819  1.4322  0.0696
 1018MOL0     H37385   2.628   1.987   4.846 -1.3647 -1.2870 -1.9777
 1018MOL0     H37386   2.520   2.119   5.033 -0.3093  0.7396  0.0122
 1018MOL0     H37387   2.415   1.991   5.069  1.7663  1.0860  1.0855
 1018MOL0     H37388   2.437   2.134   4.802  2.9895 -1.0897 -0.1269
 1018MOL0     H37389   2.303   2.151   4.930  0.6384 -0.8905  1.3525
 1018MOL0     H37390   2.155   2.235   4.825  1.0339  0.8580 -4.0977
 1018MOL0     H37391   1.977   2.371   4.758 -1.6689 -0.4062 -2.0703
 1018MOL0     H37392   1.809   2.311   4.759  1.1501 -0.5513 -1.1424
 1018MOL0     H37393   1.899   2.322   4.912  1.9636 -0.0700  0.7096
 1018MOL0     H37394   1.601   1.745   4.791 -0.7211  1.1948  2.5904
 1018MOL0     H37395   1.366   1.688   4.830  0.0687  0.7242 -0.3072
 1018MOL0     H37396   1.142   1.616   4.791 -1.7928 -0.3909 -1.8604
 1018MOL0     H37397   1.153   1.759   4.897 -2.4495  0.3241  1.2013
 1018MOL0     H37398   0.926   1.677   4.729 -0.9674 -3.4456  1.7406
 1018MOL0     H37399   0.937   1.636   4.890  2.5771  0.4866  1.9493
 1018MOL0     H37400   0.905   1.901   4.754  2.9469 -0.5769 -0.0922
 1018MOL0     H37401   0.922   1.900   4.934 -1.2541 -0.1871  0.4741
 1018MOL0     H37402   0.697   1.751   4.790  1.1501  2.5800 -3.0878
 1018MOL0     H37403   0.752   1.759   4.958  1.0042  0.5658  1.3924
 1018MOL0     H37404   0.662   2.010   4.811 -0.3711 -0.2983  0.6864
 1018MOL0     H37405   0.699   1.999   4.980  1.6559 -0.8562  0.2608
 1018MOL0     H37406   0.483   1.855   4.823  4.2347 -0.5825 -1.3393
 1018MOL0     H37407   0.495   1.858   5.003 -0.6225  2.0533  1.0068
 1018MOL0     H37408   0.460   2.110   4.831 -2.0755  1.1190  0.8465
 1018MOL0     H37409   0.485   2.112   5.004  1.7744 -0.3836 -0.2259
 1018MOL0     H37410   0.236   2.121   4.973 -2.8543 -1.8044  1.2850
 1018MOL0     H37411   0.301   1.964   5.033  1.5600  1.2173  0.2801
 1018MOL0     H37412   1.246   1.979   4.526 -0.3414  1.2614  2.0720
 1018MOL0     H37413   1.484   2.056   4.513 -1.5756  1.5745  0.9653
 1018MOL0     H37414   1.908   1.836   4.696  0.4093 -0.1154  1.0869
 1018MOL0     H37415   2.123   1.809   4.753 -1.6722 -1.5086 -4.1529
 1018MOL0     H37416   3.186   1.147   4.868 -0.6111  1.2883  0.2942
 1018MOL0     H37417   3.409   1.248   4.834  2.0294  0.2617 -0.5201
 1018MOL0     H37418   3.832   1.393   4.649  1.5865  1.0074 -0.4156
 1018MOL0     H37419   4.059   1.439   4.629  2.6209 -1.9199  0.2718
 1018MOL0     H37420   4.303   1.334   4.971  2.7492  1.1508  0.4930
 1018MOL0     H37421   4.343   1.193   4.877  1.1661 -0.4268 -2.0215
 1018MOL0     H37422   4.523   1.347   4.762 -2.2663  0.8834 -0.6780
 1018MOL0     H37423   4.547   1.294   4.924 -0.6808  0.1592  0.0835
 1018MOL0     H37424   4.435   1.525   4.998 -3.1010  0.0794 -1.2836
 1018MOL0     H37425   4.462   1.570   4.835 -0.7602 -1.2478  0.4820
 1018MOL0     H37426   4.652   1.652   4.964  4.1635 -0.8609 -0.2961
 1018MOL0     H37427   4.711   1.542   4.856 -2.2469 -2.3992 -2.1251
 1018MOL0     H37428   4.830   1.376   5.216  0.0102 -1.3136 -0.2037
 1018MOL0     H37429   4.146   1.190   4.960 -2.5795  0.3383  2.1547
 1018MOL0     H37430   3.904   1.141   4.986 -0.8454  0.5538 -1.1029
 1019MOL0     O37431   0.378   1.759   7.234  0.2417  0.6937 -0.8944
 1019MOL0     C37432   0.322   1.653   7.269  0.3243 -0.1080  0.5320
 1019MOL0     O37433   0.192   1.624   7.256  0.2541 -0.4733 -1.1661
 1019MOL0     C37434   0.101   1.690   7.173  0.1345 -0.4530  0.1298
 1019MOL0     C37435   0.127   1.773   7.051  0.3393  0.6915 -0.9412
 1019MOL0     C37436   0.028   1.832   6.979 -0.8639  0.8973 -0.0933
 1019MOL0     C37437  -0.110   1.825   7.025 -0.4401  0.0405 -0.9033
 1019MOL0     O37438  -0.206   1.902   6.974  0.3547 -0.1569  0.4412
 1019MOL0     C37439  -0.162   2.029   6.932 -0.1066 -0.5247 -0.5260
 1019MOL0     C37440  -0.278   2.120   6.895 -0.9591 -0.4069 -0.1752
 1019MOL0     C37441  -0.368   2.154   7.020 -0.1318  0.5155 -0.6043
 1019MOL0     C37442  -0.475   2.257   6.995  0.0968 -0.8219  0.6641
 1019MOL0     C37443  -0.524   2.332   7.116  0.1627  0.6662 -0.6254
 1019MOL0     C37444  -0.672   2.372   7.082 -0.3104 -0.3217 -0.3169
 1019MOL0     C37445  -0.785   2.272   7.125 -1.1469 -0.5743 -0.3830
 1019MOL0     C37446  -0.918   2.348   7.112  0.2808 -0.6579 -0.4467
 1019MOL0     N37447  -0.933   2.453   7.216 -0.4381 -0.0724 -0.1846
 1019MOL0     C37448  -0.962   2.430   7.354 -0.3356 -0.0254 -0.5938
 1019MOL0     C37449  -0.975   2.560   7.402  0.2414  0.1121  0.0295
 1019MOL0     C37450  -1.003   2.603   7.546  0.2024  0.9951  0.0095
 1019MOL0     C37451  -1.152   2.612   7.577 -0.1210 -0.2596 -0.0292
 1019MOL0     C37452  -1.233   2.507   7.514  0.3156  0.1527  0.2294
 1019MOL0     C37453  -1.384   2.527   7.550  0.3721 -0.4364 -0.5918
 1019MOL0     O37454  -1.412   2.521   7.697  0.1112 -0.3004 -0.7283
 1019MOL0     C37455  -1.531   2.557   7.749 -0.0675  0.3215 -0.4917
 1019MOL0     C37456  -1.552   2.561   7.888  0.5307 -0.6775 -0.0947
 1019MOL0     C37457  -1.673   2.601   7.943  0.8588  0.2443 -0.0167
 1019MOL0     C37458  -1.691   2.582   8.093 -0.1198 -0.1300 -0.1689
 1019MOL0     C37459  -1.786   2.635   7.856  0.1953  0.2603 -0.4770
 1019MOL0     C37460  -1.926   2.671   7.899 -0.2188  0.6844  0.3724
 1019MOL0     O37461  -2.029   2.641   7.822  0.2537  0.6528 -0.2238
 1019MOL0     C37462  -2.154   2.685   7.860  0.9889 -0.0832  1.3791
 1019MOL0     C37463  -2.252   2.601   7.920  0.0730 -0.1984 -0.5555
 1019MOL0     C37464  -2.378   2.652   7.952 -0.5138 -1.0022  0.4868
 1019MOL0     C37465  -2.410   2.789   7.930  0.0230 -0.4284 -0.2813
 1019MOL0     O37466  -2.528   2.850   7.959  0.7156 -0.3131 -0.4465
 1019MOL0     C37467  -2.634   2.778   8.033 -0.0690  0.1706  0.2874
 1019MOL0     C37468  -2.772   2.852   8.023 -0.1586 -0.2345  0.5099
 1019MOL0     C37469  -2.758   2.998   8.025  0.2696  1.2779  0.0956
 1019MOL0     C37470  -2.895   3.063   7.994 -1.3098  0.7767 -0.1251
 1019MOL0     C37471  -2.911   3.214   8.023  0.1604 -0.3645  0.8562
 1019MOL0     C37472  -2.920   3.259   8.165 -0.1166  0.1037  0.4388
 1019MOL0     C37473  -2.896   3.414   8.174 -0.1523  0.0092 -0.4007
 1019MOL0     C37474  -2.875   3.463   8.315 -0.6265  0.1091 -0.0617
 1019MOL0    Cl37475  -3.031   3.435   8.398  0.4058  0.4653 -0.3643
 1019MOL0     C37476  -2.312   2.870   7.874 -0.8036  0.2567  0.7962
 1019MOL0     C37477  -2.192   2.814   7.830 -0.4610  0.4726 -0.5134
 1019MOL0     O37478  -1.934   2.744   7.999  1.0741 -0.2531  0.1769
 1019MOL0     C37479  -1.769   2.630   7.715  0.3376 -0.4651  0.1765
 1019MOL0     C37480  -1.642   2.588   7.667  0.3243 -0.7105 -0.9873
 1019MOL0     N37481  -0.964   2.650   7.298 -0.2417 -0.1946  0.1517
 1019MOL0     N37482  -0.933   2.582   7.195  0.4789  0.0057  0.4265
 1019MOL0     C37483  -0.137   1.758   7.144 -0.0921  0.7628 -0.5741
 1019MOL0     C37484  -0.032   1.697   7.213 -0.1097  0.3319  0.4315
 1019MOL0     C37485   0.407   1.538   7.305 -0.3349  0.1144  0.4402
 1019MOL0     C37486   0.539   1.526   7.266 -0.0259 -1.2071  0.8187
 1019MOL0     C37487   0.604   1.402   7.278 -0.4868  0.6700 -1.1989
 1019MOL0     C37488   0.536   1.294   7.344  0.2775 -0.4995  0.1639
 1019MOL0     O37489   0.596   1.176   7.378 -0.7886  0.4823 -0.3415
 1019MOL0     C37490   0.731   1.189   7.422 -0.6168  0.0971  0.4706
 1019MOL0     C37491   0.790   1.076   7.500  1.4072  0.5999 -0.1345
 1019MOL0     C37492   0.835   0.962   7.411  0.4465  0.3500  0.1234
 1019MOL0     C37493   0.891   0.844   7.492  0.2854 -0.1439 -0.4761
 1019MOL0     C37494   0.990   0.868   7.594  0.7671  0.2100  0.0410
 1019MOL0     C37495   1.062   0.873   7.687  0.7799 -0.1930 -0.1663
 1019MOL0     C37496   0.411   1.309   7.395 -0.5878 -0.4663 -0.0769
 1019MOL0     C37497   0.341   1.425   7.366  0.3820  0.3775  0.1615
 1019MOL0     H37498   0.228   1.786   7.012  0.3798  0.2912 -0.9707
 1019MOL0     H37499   0.050   1.884   6.886 -0.3113 -0.2635 -0.6255
 1019MOL0     H37500  -0.106   2.067   7.018  0.2412 -0.9437 -0.5645
 1019MOL0     H37501  -0.101   2.032   6.841  0.4884  0.2296 -0.1151
 1019MOL0     H37502  -0.242   2.205   6.837 -0.6843  0.9105  1.8429
 1019MOL0     H37503  -0.332   2.069   6.814  2.7784  0.2379 -3.3143
 1019MOL0     H37504  -0.400   2.061   7.069 -0.2773 -0.0592 -1.7517
 1019MOL0     H37505  -0.290   2.193   7.086 -1.6461  1.1678  0.8681
 1019MOL0     H37506  -0.446   2.336   6.924 -2.1847  0.5633  1.1364
 1019MOL0     H37507  -0.557   2.197   6.954 -0.0261 -0.5959  0.5782
 1019MOL0     H37508  -0.531   2.264   7.202 -0.3713  0.4667 -0.8216
 1019MOL0     H37509  -0.460   2.416   7.146  0.4926  0.2566 -0.1570
 1019MOL0     H37510  -0.689   2.466   7.136 -0.3232 -1.1520  1.1948
 1019MOL0     H37511  -0.691   2.400   6.979 -0.6733  0.0887 -0.1419
 1019MOL0     H37512  -0.771   2.203   7.041  0.2197  0.1624 -0.8002
 1019MOL0     H37513  -0.769   2.231   7.225 -1.0381  1.0124  0.2749
 1019MOL0     H37514  -1.003   2.279   7.102 -1.2112  0.9958  0.3220
 1019MOL0     H37515  -0.928   2.397   7.014  2.0957 -0.7425 -0.7002
 1019MOL0     H37516  -0.971   2.331   7.396 -0.6461 -1.0902 -2.9791
 1019MOL0     H37517  -0.947   2.540   7.615  0.2502 -0.0625 -0.9655
 1019MOL0     H37518  -0.964   2.705   7.560 -2.3528  1.9588  0.7929
 1019MOL0     H37519  -1.188   2.708   7.539 -1.6655 -0.8194 -0.0318
 1019MOL0     H37520  -1.156   2.606   7.686  2.7536  0.9958  0.2297
 1019MOL0     H37521  -1.206   2.405   7.541 -1.4202 -0.9717 -1.9150
 1019MOL0     H37522  -1.225   2.510   7.405  1.0466 -1.4148  0.2098
 1019MOL0     H37523  -1.440   2.444   7.506 -1.8945  1.0087 -0.5837
 1019MOL0     H37524  -1.425   2.617   7.504 -1.4162  1.2059  3.7096
 1019MOL0     H37525  -1.471   2.544   7.958  1.0994  3.5447  0.5511
 1019MOL0     H37526  -1.732   2.671   8.141 -2.0810 -0.6066 -0.8415
 1019MOL0     H37527  -1.766   2.504   8.115 -0.2804 -0.0305 -0.3656
 1019MOL0     H37528  -1.596   2.554   8.140 -0.8118 -2.6372 -0.0834
 1019MOL0     H37529  -2.241   2.495   7.939  0.4736  0.3847  3.2768
 1019MOL0     H37530  -2.442   2.583   8.007 -0.2180 -1.3717  0.3760
 1019MOL0     H37531  -2.652   2.675   8.001 -0.4164  0.7792 -1.5845
 1019MOL0     H37532  -2.608   2.779   8.140 -0.9726 -1.8072  0.5577
 1019MOL0     H37533  -2.824   2.832   7.929 -2.8138 -2.4897  2.2869
 1019MOL0     H37534  -2.842   2.817   8.099  1.4568 -1.0098  1.7121
 1019MOL0     H37535  -2.683   3.040   7.958 -0.3861 -1.2899 -2.4500
 1019MOL0     H37536  -2.733   3.024   8.128  0.7363  0.4955  0.1877
 1019MOL0     H37537  -2.926   3.047   7.891 -1.0504 -0.5030 -0.0271
 1019MOL0     H37538  -2.971   3.016   8.057 -1.1590  0.8027  0.0817
 1019MOL0     H37539  -2.999   3.258   7.976 -0.8166 -2.2290  0.8503
 1019MOL0     H37540  -2.827   3.257   7.968 -0.6344  0.9597  0.6499
 1019MOL0     H37541  -3.024   3.246   8.195  0.4189 -0.7445  2.0252
 1019MOL0     H37542  -2.862   3.203   8.239 -2.6014  0.7192  2.9891
 1019MOL0     H37543  -2.979   3.468   8.127  1.2247  2.0954 -0.5717
 1019MOL0     H37544  -2.804   3.439   8.119 -0.3352  0.6232 -0.4366
 1019MOL0     H37545  -2.841   3.567   8.319  0.4907 -0.1527 -1.9721
 1019MOL0     H37546  -2.794   3.412   8.368 -0.6515 -2.2243 -2.0702
 1019MOL0     H37547  -2.355   2.965   7.845 -3.2276 -0.6701  1.1391
 1019MOL0     H37548  -2.128   2.871   7.762 -1.6636  1.5256 -0.8012
 1019MOL0     H37549  -1.849   2.636   7.641  0.2810  2.2316  0.3628
 1019MOL0     H37550  -1.625   2.562   7.563  1.7148  0.9344 -1.2237
 1019MOL0     H37551  -0.241   1.759   7.175  0.0647  1.1104 -0.0442
 1019MOL0     H37552  -0.058   1.641   7.302 -3.2367  1.6497  0.4724
 1019MOL0     H37553   0.588   1.606   7.212  0.4203 -1.3419  1.0166
 1019MOL0     H37554   0.710   1.407   7.258 -0.3253  0.9147 -0.3052
 1019MOL0     H37555   0.790   1.208   7.332 -0.2359 -2.3848  0.1380
 1019MOL0     H37556   0.744   1.276   7.488  1.4228  1.8004 -1.9578
 1019MOL0     H37557   0.705   1.035   7.556  2.7231  0.0326  1.5209
 1019MOL0     H37558   0.865   1.104   7.573 -0.6629 -1.1135  2.8686
 1019MOL0     H37559   0.919   1.009   7.359  2.2162 -1.2302  1.3938
 1019MOL0     H37560   0.751   0.927   7.351  1.0276  2.9803 -2.4477
 1019MOL0     H37561   0.933   0.770   7.423 -2.0949 -0.5458 -1.6197
 1019MOL0     H37562   0.812   0.781   7.535  2.2450 -1.4783  1.3628
 1019MOL0     H37563   1.132   0.896   7.766  0.7590 -4.7164  1.4663
 1019MOL0     H37564   0.366   1.234   7.457  2.5291 -2.2720  0.2184
 1019MOL0     H37565   0.244   1.448   7.409  0.6272  1.8354 -0.0286
 1020MOL0     O37566   0.106   0.196   2.565 -0.2173  0.2039 -0.1274
 1020MOL0     C37567   0.158   0.253   2.470 -0.9746  0.2517 -0.5056
 1020MOL0     O37568   0.099   0.306   2.362 -0.2736 -0.2364 -0.6417
 1020MOL0     C37569  -0.037   0.325   2.351 -0.1413  0.2039 -0.4532
 1020MOL0     C37570  -0.129   0.248   2.420  0.4538 -0.2237  0.6487
 1020MOL0     C37571  -0.267   0.272   2.403  0.3913  0.1883  0.0921
 1020MOL0     C37572  -0.316   0.364   2.305  0.3036 -0.9131 -0.5730
 1020MOL0     O37573  -0.455   0.392   2.294 -0.0492 -0.4290 -0.8217
 1020MOL0     C37574  -0.512   0.428   2.417  1.4830 -0.4579  0.2634
 1020MOL0     C37575  -0.648   0.491   2.384 -0.3827  0.5905  0.1350
 1020MOL0     C37576  -0.760   0.407   2.333 -0.4371 -0.1311 -0.1499
 1020MOL0     C37577  -0.811   0.292   2.427 -0.8902  0.4917 -0.0495
 1020MOL0     C37578  -0.944   0.233   2.387  0.2539 -0.4321 -0.9266
 1020MOL0     C37579  -0.983   0.137   2.502  0.4306  0.4646  0.6415
 1020MOL0     C37580  -1.115   0.064   2.464  0.5606 -0.0709  0.1975
 1020MOL0     C37581  -1.247   0.151   2.490 -0.0005 -0.5053  0.0989
 1020MOL0     N37582  -1.355   0.072   2.459  0.2176 -0.1258 -0.3909
 1020MOL0     C37583  -1.426   0.004   2.556 -0.6652 -0.1787 -0.4552
 1020MOL0     C37584  -1.533  -0.041   2.483  0.0659  0.6365 -1.0316
 1020MOL0     C37585  -1.637  -0.132   2.539  0.4858  0.5108 -0.2691
 1020MOL0     C37586  -1.781  -0.064   2.563  1.0235  1.0662  0.2593
 1020MOL0     C37587  -1.838  -0.022   2.422 -0.9363 -0.3183 -0.3038
 1020MOL0     C37588  -1.980   0.009   2.411  0.0478 -0.7814  0.1622
 1020MOL0     O37589  -2.037  -0.119   2.430  0.5145  0.8036 -0.2816
 1020MOL0     C37590  -2.175  -0.120   2.428 -0.1439  0.1974  0.2800
 1020MOL0     C37591  -2.258  -0.021   2.364 -0.0027 -0.4519 -0.2401
 1020MOL0     C37592  -2.397  -0.034   2.360 -0.3109 -0.1753 -1.1339
 1020MOL0     C37593  -2.477   0.083   2.296 -0.1909 -0.2048  0.0309
 1020MOL0     C37594  -2.458  -0.154   2.415  0.3306  0.0506 -0.5329
 1020MOL0     C37595  -2.606  -0.176   2.430 -0.1927 -0.2855  0.6063
 1020MOL0     O37596  -2.653  -0.302   2.461  0.0322  0.0098 -0.2160
 1020MOL0     C37597  -2.782  -0.350   2.478 -0.2999  0.3735  0.0913
 1020MOL0     C37598  -2.892  -0.292   2.422  0.0679  0.2930  0.1798
 1020MOL0     C37599  -3.019  -0.343   2.443  0.0455 -0.2788  0.1515
 1020MOL0     C37600  -3.034  -0.458   2.521  0.0991 -0.3212  0.1900
 1020MOL0     O37601  -3.164  -0.505   2.525 -0.5414  0.5975 -0.3179
 1020MOL0     C37602  -3.186  -0.624   2.608 -0.8037 -0.4403 -0.2399
 1020MOL0     C37603  -3.339  -0.662   2.596 -0.3242 -0.6632  0.2892
 1020MOL0     C37604  -3.381  -0.680   2.453  0.5155  0.6513 -0.3031
 1020MOL0     C37605  -3.535  -0.714   2.454  0.1711 -0.2024  0.2440
 1020MOL0     C37606  -3.578  -0.755   2.308 -0.2883  0.2363  0.1776
 1020MOL0     C37607  -3.733  -0.749   2.283  0.3217 -0.1343  0.1413
 1020MOL0     C37608  -3.755  -0.784   2.139  0.6517 -0.4993  0.4166
 1020MOL0     C37609  -3.915  -0.775   2.107 -0.1864  0.2370 -0.1092
 1020MOL0    Cl37610  -3.997  -0.884   2.222 -0.0756  0.1338  0.2193
 1020MOL0     C37611  -2.926  -0.516   2.584 -0.3274  0.5873  0.1690
 1020MOL0     C37612  -2.796  -0.463   2.560  0.0478  0.6971 -0.1580
 1020MOL0     O37613  -2.681  -0.080   2.419 -0.1542 -0.5629  0.6748
 1020MOL0     C37614  -2.375  -0.251   2.475 -0.4378 -0.3634 -0.4942
 1020MOL0     C37615  -2.234  -0.240   2.476  0.0903 -0.6316  0.5765
 1020MOL0     N37616  -1.521   0.009   2.350 -0.0644  0.6098 -0.4750
 1020MOL0     N37617  -1.409   0.065   2.336 -0.6702  0.0262  0.0750
 1020MOL0     C37618  -0.220   0.430   2.223 -0.2587  0.5741 -0.9389
 1020MOL0     C37619  -0.083   0.415   2.252  0.0771 -0.7669 -0.3919
 1020MOL0     C37620   0.304   0.272   2.471  0.2400 -0.1213 -0.2040
 1020MOL0     C37621   0.376   0.200   2.561 -1.3865  0.6707  0.1281
 1020MOL0     C37622   0.513   0.208   2.556  0.0243  0.1702  0.8747
 1020MOL0     C37623   0.590   0.280   2.474  0.0743 -0.0720  0.7246
 1020MOL0     O37624   0.726   0.288   2.472 -0.1080 -0.4593  0.1817
 1020MOL0     C37625   0.807   0.192   2.548  1.1426  0.7380 -0.2486
 1020MOL0     C37626   0.957   0.211   2.517 -0.1925  0.2251 -0.6401
 1020MOL0     C37627   0.993   0.174   2.377  0.2956  0.7076 -0.1995
 1020MOL0     C37628   1.138   0.191   2.347  1.0728  0.3484 -0.0811
 1020MOL0     C37629   1.192   0.083   2.255  0.4390 -0.5723 -0.5369
 1020MOL0     C37630   1.243  -0.004   2.198 -0.1954 -0.3781  0.7958
 1020MOL0     C37631   0.515   0.358   2.387 -0.4930 -0.5662 -0.0052
 1020MOL0     C37632   0.377   0.352   2.377  0.1947 -0.2784 -0.6260
 1020MOL0     H37633  -0.111   0.161   2.483  0.6568  0.2079  1.1907
 1020MOL0     H37634  -0.336   0.232   2.476  0.8653 -0.2282  0.3147
 1020MOL0     H37635  -0.530   0.339   2.479 -0.0753 -0.3894 -0.0492
 1020MOL0     H37636  -0.444   0.491   2.475  2.0806 -0.6241 -0.2453
 1020MOL0     H37637  -0.698   0.538   2.470 -0.1927 -1.8620  1.6823
 1020MOL0     H37638  -0.631   0.568   2.308  1.6925  0.8135  0.7583
 1020MOL0     H37639  -0.848   0.469   2.316 -0.9967 -1.2999 -1.7522
 1020MOL0     H37640  -0.731   0.364   2.237 -0.3278 -0.5353  0.0562
 1020MOL0     H37641  -0.736   0.212   2.427  1.4935  2.5792  0.1275
 1020MOL0     H37642  -0.828   0.341   2.523  1.5899  1.8057 -0.2000
 1020MOL0     H37643  -1.024   0.307   2.378 -1.3183 -1.6266  1.8649
 1020MOL0     H37644  -0.931   0.177   2.293 -0.5426 -1.9858 -0.1640
 1020MOL0     H37645  -0.907   0.063   2.525  0.2377  0.3997  1.0716
 1020MOL0     H37646  -1.003   0.189   2.596 -1.8135 -0.6082  0.8293
 1020MOL0     H37647  -1.117   0.041   2.357 -0.4943  1.5138 -0.1613
 1020MOL0     H37648  -1.127  -0.029   2.521 -0.6906 -1.8279 -2.7295
 1020MOL0     H37649  -1.253   0.244   2.433  0.6424 -0.6483 -0.2195
 1020MOL0     H37650  -1.242   0.175   2.597 -0.5162  1.4146 -0.2671
 1020MOL0     H37651  -1.406  -0.013   2.661  2.5012 -0.5294 -1.0090
 1020MOL0     H37652  -1.643  -0.219   2.472  0.7669  0.1714  0.1479
 1020MOL0     H37653  -1.593  -0.161   2.634  0.1108 -2.5076 -0.9203
 1020MOL0     H37654  -1.780   0.020   2.634  0.6699  0.8157  0.5655
 1020MOL0     H37655  -1.845  -0.145   2.599  0.8594  0.1744 -1.9103
 1020MOL0     H37656  -1.813  -0.103   2.353 -0.0726 -0.5681  0.2858
 1020MOL0     H37657  -1.779   0.064   2.390  0.4218 -1.1386 -0.0819
 1020MOL0     H37658  -1.997   0.052   2.311  3.6754 -0.9428 -0.6555
 1020MOL0     H37659  -2.018   0.078   2.487 -1.2652 -1.8539  0.5113
 1020MOL0     H37660  -2.206   0.065   2.323  0.5136 -0.2669  0.7544
 1020MOL0     H37661  -2.555   0.052   2.227  0.7918  0.1253 -1.2756
 1020MOL0     H37662  -2.532   0.136   2.374 -0.8701  0.2104 -0.7229
 1020MOL0     H37663  -2.411   0.159   2.253  0.4393  0.1129  1.5010
 1020MOL0     H37664  -2.883  -0.210   2.352 -3.2736  1.7685  1.2432
 1020MOL0     H37665  -3.108  -0.292   2.409 -0.3332 -1.2637 -0.3546
 1020MOL0     H37666  -3.145  -0.717   2.568 -1.6840 -2.0727  2.3606
 1020MOL0     H37667  -3.160  -0.603   2.713 -0.0156  0.2996 -0.5712
 1020MOL0     H37668  -3.340  -0.751   2.660  0.8537  0.6218  2.2352
 1020MOL0     H37669  -3.403  -0.587   2.644 -0.2557 -0.0037 -0.6236
 1020MOL0     H37670  -3.335  -0.771   2.414 -2.0343 -0.9864  0.2762
 1020MOL0     H37671  -3.361  -0.590   2.395  0.3939  0.2702 -0.9435
 1020MOL0     H37672  -3.547  -0.800   2.521  0.9313  0.5216  1.3466
 1020MOL0     H37673  -3.586  -0.624   2.490  2.7306  1.8721 -0.9826
 1020MOL0     H37674  -3.528  -0.846   2.275  0.5027  0.3389  1.0563
 1020MOL0     H37675  -3.532  -0.684   2.238 -0.5920  0.2890  0.0273
 1020MOL0     H37676  -3.787  -0.812   2.354 -0.8210  1.5875  0.8883
 1020MOL0     H37677  -3.773  -0.648   2.302 -0.4315  0.5641 -4.1324
 1020MOL0     H37678  -3.716  -0.886   2.124 -0.9204 -1.0993  0.2053
 1020MOL0     H37679  -3.686  -0.721   2.082  1.5211 -1.1596  0.7069
 1020MOL0     H37680  -3.936  -0.811   2.007 -0.8741 -0.2135  0.1915
 1020MOL0     H37681  -3.948  -0.671   2.113 -0.1169  0.2070  1.3528
 1020MOL0     H37682  -2.943  -0.603   2.647 -0.2240  0.9842  0.7571
 1020MOL0     H37683  -2.707  -0.514   2.595  0.6005 -0.3522 -2.8408
 1020MOL0     H37684  -2.425  -0.336   2.521 -0.4397  1.0224  2.3108
 1020MOL0     H37685  -2.156  -0.302   2.518  1.0627 -1.0943 -1.7566
 1020MOL0     H37686  -0.256   0.494   2.143  0.3159  1.4312 -0.5295
 1020MOL0     H37687  -0.018   0.462   2.179 -0.6612 -1.5897 -1.5990
 1020MOL0     H37688   0.331   0.126   2.626 -2.4905 -1.5926 -2.9587
 1020MOL0     H37689   0.561   0.149   2.634  1.1804  1.6584  1.3395
 1020MOL0     H37690   0.787   0.200   2.655  0.3553  6.0925 -0.4832
 1020MOL0     H37691   0.780   0.089   2.521  0.1483  0.7600  0.5638
 1020MOL0     H37692   1.018   0.143   2.577 -1.0169 -1.7376 -1.9244
 1020MOL0     H37693   0.981   0.316   2.534 -0.5418  0.3016 -0.6027
 1020MOL0     H37694   0.926   0.221   2.304 -1.7593 -1.9928 -0.2172
 1020MOL0     H37695   0.962   0.069   2.368 -0.2832  1.0365 -2.6349
 1020MOL0     H37696   1.192   0.211   2.440  0.0458 -0.7157  0.7824
 1020MOL0     H37697   1.136   0.283   2.289 -0.1546 -0.2431 -1.0301
 1020MOL0     H37698   1.303  -0.087   2.166 -1.2090 -1.1930  0.9663
 1020MOL0     H37699   0.579   0.417   2.322 -0.8529 -1.5370 -1.2871
 1020MOL0     H37700   0.326   0.414   2.304  1.6042 -1.4227 -2.6565
 1021MOL0     O37701   2.068   8.998   9.495  0.6872  0.2254  0.4946
 1021MOL0     C37702   2.127   8.924   9.572 -0.0105 -0.5721  0.9584
 1021MOL0     O37703   2.079   8.835   9.655  0.2615  0.6185 -0.1780
 1021MOL0     C37704   1.947   8.837   9.692 -0.4755  0.0113  0.2113
 1021MOL0     C37705   1.909   8.841   9.829  0.0604  0.4372  0.2980
 1021MOL0     C37706   1.779   8.823   9.859 -0.4719 -0.3426 -0.5722
 1021MOL0     C37707   1.682   8.800   9.765 -1.0740  0.3461  0.4379
 1021MOL0     O37708   1.558   8.783   9.811 -0.2126 -0.5404  0.5607
 1021MOL0     C37709   1.448   8.763   9.717  0.1215 -0.3671 -0.7762
 1021MOL0     C37710   1.310   8.751   9.779  0.0133 -0.6622 -0.6041
 1021MOL0     C37711   1.300   8.624   9.868  0.3422  0.7941 -0.4352
 1021MOL0     C37712   1.155   8.623   9.926  0.5047 -0.0246 -0.3183
 1021MOL0     C37713   1.059   8.586   9.814 -0.1301  0.0944  0.3479
 1021MOL0     C37714   0.936   8.520   9.874  0.2622  1.3456 -0.1679
 1021MOL0     C37715   0.860   8.605   9.978  0.3413  0.4639  0.7559
 1021MOL0     C37716   0.754   8.523  10.047  0.1091  0.3293  0.4478
 1021MOL0     N37717   0.652   8.467   9.956  0.0302  0.2625  0.1659
 1021MOL0     C37718   0.547   8.527   9.899  0.8163  0.1653  0.8789
 1021MOL0     C37719   0.481   8.420   9.833 -1.0229  0.1684  0.5447
 1021MOL0     C37720   0.367   8.429   9.746  0.0922  0.1444 -0.5160
 1021MOL0     C37721   0.236   8.424   9.825 -0.0713 -0.5445  0.4695
 1021MOL0     C37722   0.114   8.423   9.730 -1.0951 -0.1212  0.2703
 1021MOL0     C37723  -0.025   8.416   9.800 -0.0775 -0.0837 -0.8197
 1021MOL0     O37724  -0.049   8.511   9.907 -0.1582  0.6839  0.2909
 1021MOL0     C37725  -0.110   8.633   9.900  0.1160 -0.0793 -0.1816
 1021MOL0     C37726  -0.127   8.693  10.016 -0.9565  0.2768 -0.4507
 1021MOL0     C37727  -0.203   8.808  10.026 -0.4026 -0.8682 -0.0820
 1021MOL0     C37728  -0.224   8.864  10.166 -0.1279 -1.4875 -0.7186
 1021MOL0     C37729  -0.265   8.854   9.913 -0.9534 -0.1337 -1.0660
 1021MOL0     C37730  -0.355   8.975   9.915  0.3179 -0.0954 -0.4793
 1021MOL0     O37731  -0.342   9.075  10.006 -0.3597 -0.2412 -0.3396
 1021MOL0     C37732  -0.441   9.169  10.014 -0.1361 -0.0744  1.0858
 1021MOL0     C37733  -0.412   9.305   9.992  0.4982  0.2418 -0.3653
 1021MOL0     C37734  -0.499   9.404  10.013  0.1203 -0.6887 -0.2197
 1021MOL0     C37735  -0.639   9.376  10.040  0.6022 -0.0454  0.1409
 1021MOL0     O37736  -0.727   9.485  10.056 -0.5655 -0.1963  0.1007
 1021MOL0     C37737  -0.864   9.466  10.084 -0.8422 -0.2702  0.0745
 1021MOL0     C37738  -0.937   9.413   9.959  0.0501  0.6470  0.0421
 1021MOL0     C37739  -1.085   9.454   9.967  1.0613  1.1908 -0.3220
 1021MOL0     C37740  -1.166   9.380   9.853 -0.3616 -0.2273 -0.2275
 1021MOL0     C37741  -1.310   9.418   9.841 -0.3925 -0.9647  0.0854
 1021MOL0     C37742  -1.375   9.358   9.728 -0.4713 -0.9905  0.0149
 1021MOL0     C37743  -1.525   9.396   9.736 -0.5601 -0.2669  0.0350
 1021MOL0     C37744  -1.610   9.313   9.828  0.7429  0.0789 -1.1298
 1021MOL0    Cl37745  -1.632   9.153   9.757  0.1393 -0.5882 -0.7337
 1021MOL0     C37746  -0.674   9.239  10.059 -0.5997  0.3761  1.4488
 1021MOL0     C37747  -0.573   9.141  10.054  0.3010  0.3983  0.7285
 1021MOL0     O37748  -0.456   8.950   9.848 -0.3169  0.0041 -0.4428
 1021MOL0     C37749  -0.231   8.795   9.784  1.5176 -0.8608  0.0765
 1021MOL0     C37750  -0.157   8.685   9.783 -0.7444 -0.2468  0.2069
 1021MOL0     N37751   0.551   8.301   9.857 -0.2874  0.2357 -0.0097
 1021MOL0     N37752   0.644   8.330   9.938  0.9658 -0.2595  0.1688
 1021MOL0     C37753   1.718   8.808   9.631  0.4215  0.0465  0.5872
 1021MOL0     C37754   1.854   8.816   9.592 -0.3449 -0.0018 -0.0645
 1021MOL0     C37755   2.277   8.929   9.556  0.3304  0.2640 -0.3360
 1021MOL0     C37756   2.352   8.813   9.605 -0.2050  0.7515  0.0812
 1021MOL0     C37757   2.491   8.795   9.568  0.5604 -0.3813 -1.6598
 1021MOL0     C37758   2.557   8.902   9.504  1.0678 -0.1774 -0.7085
 1021MOL0     O37759   2.689   8.873   9.482  0.2444  0.6331  0.3177
 1021MOL0     C37760   2.774   8.970   9.419  0.2416  0.5680  0.0216
 1021MOL0     C37761   2.792   9.080   9.528 -0.0539 -0.1316 -0.2987
 1021MOL0     C37762   2.917   9.056   9.607  0.0363  0.5470  0.5820
 1021MOL0     C37763   2.873   9.033   9.753  0.8763 -0.1138  0.3137
 1021MOL0     C37764   2.836   9.157   9.823 -1.4125  1.4310  1.3718
 1021MOL0     C37765   2.823   9.259   9.884  0.0391 -0.1613  0.2703
 1021MOL0     C37766   2.486   9.018   9.471 -0.7162  0.4856 -0.4735
 1021MOL0     C37767   2.348   9.025   9.483  0.5692 -0.1931 -0.2941
 1021MOL0     H37768   1.984   8.842   9.908  0.5426  2.2018 -0.1385
 1021MOL0     H37769   1.749   8.826   9.963  2.6783  0.0375  0.4442
 1021MOL0     H37770   1.445   8.840   9.639 -1.4527  0.9875  0.5401
 1021MOL0     H37771   1.463   8.677   9.651  0.0014  0.3615 -1.7825
 1021MOL0     H37772   1.297   8.835   9.849  0.3795 -0.7019 -0.4875
 1021MOL0     H37773   1.235   8.748   9.699 -0.2970  0.8162 -0.3965
 1021MOL0     H37774   1.324   8.538   9.804  1.4363 -0.1527  1.1873
 1021MOL0     H37775   1.379   8.621   9.944  0.3100  0.0243 -0.4188
 1021MOL0     H37776   1.146   8.545  10.002 -1.4160  0.1240 -0.3452
 1021MOL0     H37777   1.132   8.715   9.981  2.9933 -0.2697  1.2994
 1021MOL0     H37778   1.023   8.674   9.759 -0.5369  0.8805  1.8309
 1021MOL0     H37779   1.101   8.522   9.736  0.5493  0.4923  0.3857
 1021MOL0     H37780   0.865   8.496   9.795  0.1382  0.3414  0.2376
 1021MOL0     H37781   0.971   8.429   9.923 -0.6523  0.3504 -1.3052
 1021MOL0     H37782   0.929   8.651  10.049  1.1051  1.8578 -0.7992
 1021MOL0     H37783   0.805   8.672   9.910 -0.8723 -2.4460 -1.3253
 1021MOL0     H37784   0.704   8.576  10.128  2.3319  2.6911  0.4001
 1021MOL0     H37785   0.793   8.435  10.099 -3.3696 -1.9075 -0.3869
 1021MOL0     H37786   0.527   8.634   9.897  3.2011  0.6786 -0.8275
 1021MOL0     H37787   0.371   8.520   9.686  1.2683  0.3192 -0.1886
 1021MOL0     H37788   0.371   8.355   9.665 -0.7284 -1.7684  1.1217
 1021MOL0     H37789   0.217   8.510   9.889 -2.4936 -1.1121  0.6082
 1021MOL0     H37790   0.246   8.335   9.888  2.1329  0.5208  1.7320
 1021MOL0     H37791   0.122   8.338   9.661 -0.0803 -1.5407  2.0573
 1021MOL0     H37792   0.117   8.518   9.675 -0.4620  0.8809  1.9697
 1021MOL0     H37793  -0.050   8.315   9.835 -0.7069 -0.6296 -2.7481
 1021MOL0     H37794  -0.098   8.435   9.721  1.7329  1.4902 -2.2122
 1021MOL0     H37795  -0.084   8.654  10.107 -2.5065  1.1409  0.6984
 1021MOL0     H37796  -0.179   8.964  10.159  0.5682 -1.8483 -1.7461
 1021MOL0     H37797  -0.330   8.878  10.189  0.0912 -1.6581  0.4047
 1021MOL0     H37798  -0.174   8.798  10.237  1.1015  0.6945  0.5477
 1021MOL0     H37799  -0.310   9.323   9.958  1.2504 -0.6248  1.3043
 1021MOL0     H37800  -0.473   9.508  10.001  0.3897 -1.0212 -3.0432
 1021MOL0     H37801  -0.885   9.390  10.160  0.2437 -0.4685  0.1951
 1021MOL0     H37802  -0.905   9.563  10.115  2.0428  0.7123  1.1429
 1021MOL0     H37803  -0.888   9.453   9.870 -1.2021 -2.0415 -1.9886
 1021MOL0     H37804  -0.932   9.304   9.957  3.2589  0.6958  0.0243
 1021MOL0     H37805  -1.075   9.562   9.948  3.1158  0.8339 -1.6115
 1021MOL0     H37806  -1.134   9.436  10.063 -1.4755  2.3159 -1.2986
 1021MOL0     H37807  -1.121   9.403   9.756 -0.0236 -3.6780 -1.0458
 1021MOL0     H37808  -1.158   9.272   9.869 -2.8405 -0.2779  1.2581
 1021MOL0     H37809  -1.303   9.524   9.817 -1.9845 -0.3630  1.9938
 1021MOL0     H37810  -1.357   9.408   9.940 -0.2402 -2.8031  0.0121
 1021MOL0     H37811  -1.325   9.387   9.635 -0.4457  4.7280  1.4748
 1021MOL0     H37812  -1.370   9.249   9.740  0.0699 -0.6860  3.5504
 1021MOL0     H37813  -1.564   9.386   9.634 -0.1852 -1.4224 -0.0127
 1021MOL0     H37814  -1.537   9.502   9.758 -0.1533  0.4975 -3.0581
 1021MOL0     H37815  -1.706   9.365   9.826  1.3241  1.1728 -2.8375
 1021MOL0     H37816  -1.579   9.318   9.933  0.7022 -0.8433 -1.0689
 1021MOL0     H37817  -0.776   9.207  10.078 -0.9930  2.2290  2.7573
 1021MOL0     H37818  -0.593   9.041  10.091  3.0264 -1.0586 -1.3861
 1021MOL0     H37819  -0.258   8.837   9.688  2.8452 -0.4916 -0.1581
 1021MOL0     H37820  -0.133   8.638   9.688 -0.9711 -0.9156  0.4725
 1021MOL0     H37821   1.641   8.788   9.556 -0.1782 -1.2982  1.5142
 1021MOL0     H37822   1.884   8.814   9.488 -3.9711  0.6130 -1.2600
 1021MOL0     H37823   2.296   8.732   9.651  3.2153 -1.7765  0.1650
 1021MOL0     H37824   2.554   8.710   9.593 -0.0529 -0.3420  0.1438
 1021MOL0     H37825   2.873   8.933   9.392  0.4616 -0.0288  1.5496
 1021MOL0     H37826   2.720   9.010   9.333  0.1608  1.7186  0.5782
 1021MOL0     H37827   2.702   9.087   9.590 -0.6511 -0.0989 -1.1466
 1021MOL0     H37828   2.810   9.178   9.482  1.4434  1.0386  2.5708
 1021MOL0     H37829   2.989   9.138   9.593  0.5476 -0.0481 -0.4209
 1021MOL0     H37830   2.963   8.965   9.567 -2.3002 -0.6820  0.5183
 1021MOL0     H37831   2.958   8.993   9.808  1.2800  0.3277  0.0234
 1021MOL0     H37832   2.794   8.958   9.761  0.4950  0.1745 -0.6070
 1021MOL0     H37833   2.807   9.346   9.945 -2.0637 -1.0758  1.1215
 1021MOL0     H37834   2.529   9.102   9.418  2.8280 -1.3474 -0.7990
 1021MOL0     H37835   2.294   9.108   9.440  0.0484 -0.9284 -1.1059
 1022MOL0     O37836   0.904   4.086  10.732  0.2637  0.4621  0.1751
 1022MOL0     C37837   0.946   4.201  10.762 -0.0988  0.4179  0.8792
 1022MOL0     O37838   0.870   4.311  10.765  0.1667  0.3403 -0.0355
 1022MOL0     C37839   0.736   4.293  10.757 -0.4050 -0.3315 -0.0302
 1022MOL0     C37840   0.666   4.308  10.642  0.2734  0.4264  0.0974
 1022MOL0     C37841   0.520   4.312  10.639  0.2311  0.0962  1.5501
 1022MOL0     C37842   0.463   4.289  10.768  0.5352 -0.2720  0.4465
 1022MOL0     O37843   0.327   4.297  10.782  0.2930 -0.7449  0.1118
 1022MOL0     C37844   0.264   4.394  10.700 -0.0566  0.4932 -0.3404
 1022MOL0     C37845   0.119   4.415  10.740 -0.7223  0.2831 -0.0866
 1022MOL0     C37846   0.035   4.288  10.743  1.2509  0.3945  0.0006
 1022MOL0     C37847  -0.117   4.303  10.758  0.1173  0.1391  0.1194
 1022MOL0     C37848  -0.188   4.176  10.792 -0.3180  0.4256  0.5119
 1022MOL0     C37849  -0.339   4.194  10.797  0.1657  0.1001 -0.3981
 1022MOL0     C37850  -0.421   4.063  10.769 -0.2246 -0.0957  0.4218
 1022MOL0     C37851  -0.403   3.954  10.877 -0.3729 -1.1498  0.3626
 1022MOL0     N37852  -0.413   4.008  11.015  0.5419  1.7292  0.2956
 1022MOL0     C37853  -0.531   4.033  11.082  0.2276  0.5406  0.0807
 1022MOL0     C37854  -0.477   4.050  11.212 -0.3436 -0.5324  0.5074
 1022MOL0     C37855  -0.549   4.069  11.337  0.5619  0.4966  0.5331
 1022MOL0     C37856  -0.668   4.173  11.312  0.0057  0.4838 -0.4949
 1022MOL0     C37857  -0.715   4.211  11.457  0.0004  0.4588 -0.4742
 1022MOL0     C37858  -0.833   4.288  11.467  0.8411  0.3727 -0.0704
 1022MOL0     O37859  -0.940   4.204  11.424 -0.3507  0.5936 -0.3440
 1022MOL0     C37860  -1.054   4.260  11.362 -0.3505  0.0884  0.2341
 1022MOL0     C37861  -1.083   4.391  11.383 -0.7417  0.6084  0.4944
 1022MOL0     C37862  -1.205   4.433  11.332  0.3717 -0.8700 -0.1513
 1022MOL0     C37863  -1.257   4.574  11.370 -0.6092 -0.7462 -0.7808
 1022MOL0     C37864  -1.293   4.352  11.250 -0.0812 -0.2700  0.2884
 1022MOL0     C37865  -1.430   4.389  11.202  0.3750  0.0049  0.3069
 1022MOL0     O37866  -1.512   4.280  11.185  0.3692 -0.8161 -0.3048
 1022MOL0     C37867  -1.641   4.305  11.152  0.0564 -0.1387 -1.2427
 1022MOL0     C37868  -1.722   4.371  11.243  0.3199 -0.2808 -0.1867
 1022MOL0     C37869  -1.860   4.389  11.227 -0.1845  0.2734 -0.4960
 1022MOL0     C37870  -1.917   4.358  11.099 -0.3283  0.1270 -0.0365
 1022MOL0     O37871  -2.043   4.403  11.063  0.0130 -0.2889  0.3032
 1022MOL0     C37872  -2.159   4.354  11.145 -0.3551  0.5843  0.7953
 1022MOL0     C37873  -2.285   4.428  11.103 -0.0913  0.4660  0.4544
 1022MOL0     C37874  -2.402   4.363  11.179 -0.0392  0.9864 -0.1372
 1022MOL0     C37875  -2.512   4.464  11.185 -0.0280  1.3521  0.5413
 1022MOL0     C37876  -2.637   4.388  11.231 -0.1464 -0.5614  0.5597
 1022MOL0     C37877  -2.750   4.491  11.250 -1.3075 -0.3516 -0.3540
 1022MOL0     C37878  -2.869   4.411  11.316 -0.6587 -0.0247 -0.3445
 1022MOL0     C37879  -3.011   4.479  11.294 -0.1331  0.1784  0.1895
 1022MOL0    Cl37880  -3.025   4.634  11.354 -0.1965 -0.1676  0.3305
 1022MOL0     C37881  -1.838   4.289  11.009  0.8687 -0.8229 -0.1328
 1022MOL0     C37882  -1.702   4.252  11.036  0.4330 -0.5539 -0.4077
 1022MOL0     O37883  -1.459   4.508  11.184 -0.5191  0.4924  0.1439
 1022MOL0     C37884  -1.253   4.221  11.231  0.7787 -0.0033 -0.2964
 1022MOL0     C37885  -1.135   4.166  11.293  0.7961 -0.2438  0.7414
 1022MOL0     N37886  -0.340   4.041  11.209  0.2875 -1.1987 -0.0941
 1022MOL0     N37887  -0.304   4.017  11.088  0.5994  0.3521 -0.3981
 1022MOL0     C37888   0.539   4.275  10.887 -0.1591 -0.3634 -0.0696
 1022MOL0     C37889   0.677   4.270  10.877 -0.3359 -0.4181 -0.6158
 1022MOL0     C37890   1.100   4.217  10.781 -0.1633  0.4485  0.3749
 1022MOL0     C37891   1.183   4.106  10.752  0.2568 -0.3398  0.1139
 1022MOL0     C37892   1.318   4.124  10.738 -0.4639 -0.2871  0.0203
 1022MOL0     C37893   1.374   4.243  10.774  0.7882  0.3670 -0.2193
 1022MOL0     O37894   1.511   4.250  10.787 -0.1411  0.1314  0.0397
 1022MOL0     C37895   1.577   4.372  10.742 -0.3024 -0.8639 -0.5552
 1022MOL0     C37896   1.734   4.353  10.752  0.3687 -0.2393  0.9196
 1022MOL0     C37897   1.827   4.445  10.663  0.0953  0.4312  0.6489
 1022MOL0     C37898   1.825   4.417  10.510  0.3453  0.9322  0.7993
 1022MOL0     C37899   1.867   4.275  10.486  0.0729  0.3830 -0.5722
 1022MOL0     C37900   1.899   4.162  10.486  0.9867  0.0037 -0.2990
 1022MOL0     C37901   1.292   4.347  10.801 -0.1392 -0.5808  0.6359
 1022MOL0     C37902   1.160   4.339  10.800  0.1411 -0.1099  0.0324
 1022MOL0     H37903   0.735   4.323  10.560  0.6263 -5.5355 -1.1464
 1022MOL0     H37904   0.466   4.321  10.546  0.7126  1.7166  1.3846
 1022MOL0     H37905   0.315   4.489  10.717  0.5882  0.0266  0.4472
 1022MOL0     H37906   0.276   4.376  10.593  0.7675  2.5273 -0.6351
 1022MOL0     H37907   0.117   4.471  10.834  2.3234 -0.5074  0.5441
 1022MOL0     H37908   0.080   4.468  10.652  3.1411  2.5655 -0.6789
 1022MOL0     H37909   0.053   4.240  10.647  2.7165  2.1825 -0.6817
 1022MOL0     H37910   0.080   4.224  10.820  0.2348 -1.0182 -0.5456
 1022MOL0     H37911  -0.136   4.375  10.838 -2.1920 -0.0525 -0.2017
 1022MOL0     H37912  -0.152   4.349  10.666 -0.9406  1.5528  1.1886
 1022MOL0     H37913  -0.166   4.104  10.713 -0.1288  0.7402  0.2753
 1022MOL0     H37914  -0.146   4.128  10.881 -0.3990  0.1621  0.4091
 1022MOL0     H37915  -0.367   4.239  10.893 -2.6077  0.8510 -1.4496
 1022MOL0     H37916  -0.368   4.262  10.716  1.3734 -0.2394 -1.1367
 1022MOL0     H37917  -0.529   4.081  10.764 -0.5461 -1.5999  1.2117
 1022MOL0     H37918  -0.397   4.015  10.674 -0.9173  1.3185 -0.5131
 1022MOL0     H37919  -0.304   3.915  10.853 -0.4693 -1.3295  0.2470
 1022MOL0     H37920  -0.485   3.883  10.859 -2.8482  1.5658  0.1848
 1022MOL0     H37921  -0.634   4.031  11.046 -0.2121  1.5963  1.2235
 1022MOL0     H37922  -0.583   3.970  11.370  1.3502 -0.8459 -2.3925
 1022MOL0     H37923  -0.479   4.119  11.405  1.9387  2.5690 -2.1854
 1022MOL0     H37924  -0.739   4.118  11.250  1.1344 -1.1160 -0.4602
 1022MOL0     H37925  -0.637   4.265  11.263 -1.4839 -0.2444 -2.9714
 1022MOL0     H37926  -0.632   4.272  11.495  0.4523 -1.4822  1.9528
 1022MOL0     H37927  -0.727   4.124  11.522 -1.1620  1.2031  0.3426
 1022MOL0     H37928  -0.834   4.373  11.397  0.2611 -0.1001 -0.6496
 1022MOL0     H37929  -0.849   4.323  11.569 -2.2664  1.7158 -0.9164
 1022MOL0     H37930  -1.013   4.459  11.430  0.1902 -0.7263  1.0936
 1022MOL0     H37931  -1.347   4.569  11.432  0.7451  2.5904  1.7719
 1022MOL0     H37932  -1.174   4.623  11.421  0.8554 -3.8543  0.0385
 1022MOL0     H37933  -1.275   4.634  11.280  0.3610  0.1052 -0.4314
 1022MOL0     H37934  -1.668   4.406  11.331  0.6101 -0.5949 -0.2361
 1022MOL0     H37935  -1.929   4.446  11.289 -1.7274 -1.6652 -0.3459
 1022MOL0     H37936  -2.167   4.249  11.117  1.4993  0.6669 -0.1994
 1022MOL0     H37937  -2.136   4.369  11.251  2.4170  3.8325 -0.0950
 1022MOL0     H37938  -2.268   4.534  11.121  1.5230  0.9740 -3.2343
 1022MOL0     H37939  -2.292   4.405  10.996  1.1570  1.1387  0.2070
 1022MOL0     H37940  -2.373   4.335  11.281  1.9257  3.3352  0.0236
 1022MOL0     H37941  -2.439   4.273  11.129 -1.1189  0.8304  0.9038
 1022MOL0     H37942  -2.499   4.547  11.255 -1.0703  0.8680  1.3424
 1022MOL0     H37943  -2.540   4.502  11.087 -1.6679 -1.3740 -0.1474
 1022MOL0     H37944  -2.610   4.335  11.322  1.5464  0.0153  0.4252
 1022MOL0     H37945  -2.670   4.315  11.156  3.5966 -0.8539 -1.0358
 1022MOL0     H37946  -2.714   4.579  11.305 -4.6573  0.9038  0.0983
 1022MOL0     H37947  -2.786   4.525  11.153 -0.5037  0.0090 -0.5376
 1022MOL0     H37948  -2.847   4.395  11.422 -0.9743  1.0550 -0.1000
 1022MOL0     H37949  -2.872   4.310  11.276  0.0947 -0.1133 -0.1877
 1022MOL0     H37950  -3.092   4.417  11.334  0.5155 -0.1951  0.9294
 1022MOL0     H37951  -3.023   4.483  11.185 -0.2492  3.8746  0.1954
 1022MOL0     H37952  -1.891   4.273  10.916  0.1554  2.4098 -0.4105
 1022MOL0     H37953  -1.642   4.197  10.964 -0.7826  0.0751 -1.9579
 1022MOL0     H37954  -1.311   4.155  11.168  0.0806 -0.9497  1.2845
 1022MOL0     H37955  -1.113   4.060  11.292 -0.1560 -0.4491  0.5677
 1022MOL0     H37956   0.483   4.281  10.980  0.8002  0.3908  0.4802
 1022MOL0     H37957   0.735   4.266  10.969 -0.8118  1.3303 -0.1867
 1022MOL0     H37958   1.134   4.011  10.734 -0.5997  0.4118 -1.9212
 1022MOL0     H37959   1.373   4.041  10.694 -0.1233  0.5229 -1.1364
 1022MOL0     H37960   1.543   4.401  10.642  1.7615 -0.5346 -1.2027
 1022MOL0     H37961   1.549   4.447  10.816 -0.3290 -0.7618 -0.6668
 1022MOL0     H37962   1.755   4.248  10.733 -0.3189 -0.4354  1.2220
 1022MOL0     H37963   1.759   4.367  10.858  2.1782  1.1805  0.3504
 1022MOL0     H37964   1.931   4.431  10.693 -0.5195 -0.6594  2.4100
 1022MOL0     H37965   1.808   4.549  10.691 -1.0822  0.3413  0.2400
 1022MOL0     H37966   1.889   4.491  10.461 -0.0440 -0.4718 -2.0365
 1022MOL0     H37967   1.728   4.433  10.462  1.4818  1.4964 -1.4338
 1022MOL0     H37968   1.918   4.057  10.480 -4.5779 -1.3178 -0.5497
 1022MOL0     H37969   1.336   4.443  10.828  3.6224 -2.1355  0.7323
 1022MOL0     H37970   1.101   4.426  10.827  1.4671 -0.0477  3.0664
 1023MOL0     O37971   5.211   5.733   4.085 -0.2414  0.3019 -0.7193
 1023MOL0     C37972   5.267   5.804   4.008 -0.6541  0.7230  0.8488
 1023MOL0     O37973   5.234   5.929   3.982  0.2297  0.0749 -0.5386
 1023MOL0     C37974   5.115   5.982   4.031  0.1041  0.6215  0.4561
 1023MOL0     C37975   5.127   6.105   4.090 -0.4683 -0.1087 -0.6388
 1023MOL0     C37976   5.013   6.179   4.122 -0.2254 -0.0874  0.2059
 1023MOL0     C37977   4.886   6.118   4.099  1.2036 -0.1096  0.3787
 1023MOL0     O37978   4.778   6.182   4.141  0.7297 -0.4155  0.1192
 1023MOL0     C37979   4.711   6.262   4.047  0.3219  0.3971 -0.6610
 1023MOL0     C37980   4.595   6.200   3.977 -0.1972  0.3071  0.7811
 1023MOL0     C37981   4.485   6.191   4.083 -0.3093 -0.2740  0.2637
 1023MOL0     C37982   4.353   6.140   4.013  0.2036 -0.6329 -0.4279
 1023MOL0     C37983   4.246   6.112   4.118 -0.6174 -0.5590  0.0344
 1023MOL0     C37984   4.118   6.081   4.032 -0.1111  0.8190  0.2227
 1023MOL0     C37985   4.004   6.048   4.128  0.8075 -0.9661  0.0713
 1023MOL0     C37986   3.883   6.007   4.051  0.5913  0.2832  0.2183
 1023MOL0     N37987   3.762   6.019   4.137 -0.7262 -0.2174 -0.2387
 1023MOL0     C37988   3.752   5.945   4.246 -0.2252 -0.1720 -0.9782
 1023MOL0     C37989   3.649   5.991   4.316 -0.3355 -0.3290 -0.4104
 1023MOL0     C37990   3.610   5.941   4.449  0.3840  1.1341 -0.0040
 1023MOL0     C37991   3.470   5.977   4.490 -0.0316 -0.7621  0.6766
 1023MOL0     C37992   3.359   5.927   4.390 -0.8153  0.6899 -0.1937
 1023MOL0     C37993   3.217   5.980   4.432  0.0177 -0.5426  0.1395
 1023MOL0     O37994   3.169   5.909   4.551 -0.5572  0.5285 -0.1924
 1023MOL0     C37995   3.041   5.924   4.591  0.5564  0.0406  0.4544
 1023MOL0     C37996   2.990   5.832   4.684 -0.1167 -0.4951  0.3796
 1023MOL0     C37997   2.856   5.838   4.720  0.2653 -0.5130  0.6018
 1023MOL0     C37998   2.811   5.737   4.830 -0.1233 -0.0977 -0.2639
 1023MOL0     C37999   2.768   5.933   4.655 -0.1687 -0.2181 -1.2643
 1023MOL0     C38000   2.616   5.946   4.683  0.4293  0.2957 -0.1340
 1023MOL0     O38001   2.540   6.011   4.589 -0.2644  0.0077 -0.3387
 1023MOL0     C38002   2.405   6.015   4.606  0.4411 -0.0945  0.0073
 1023MOL0     C38003   2.338   6.120   4.540  0.4660 -0.0041  0.4760
 1023MOL0     C38004   2.201   6.118   4.536 -0.0015 -0.0400  0.0536
 1023MOL0     C38005   2.120   6.013   4.595  0.2018 -0.1118  0.5206
 1023MOL0     O38006   1.984   6.015   4.606  0.1050 -0.2993  0.1483
 1023MOL0     C38007   1.944   6.120   4.696  0.0488  0.2059  0.0682
 1023MOL0     C38008   1.849   6.214   4.628  0.6778 -0.4814  1.1894
 1023MOL0     C38009   1.717   6.144   4.584 -0.1413 -0.6375 -0.2102
 1023MOL0     C38010   1.625   6.233   4.501 -0.3084 -0.7838  0.0186
 1023MOL0     C38011   1.485   6.168   4.485  0.6991  0.5567 -0.2135
 1023MOL0     C38012   1.373   6.242   4.401 -0.0271 -0.0848 -0.2386
 1023MOL0     C38013   1.408   6.279   4.257  0.0029  0.5387 -0.1557
 1023MOL0     C38014   1.299   6.321   4.165  0.0886  0.3894  0.1320
 1023MOL0    Cl38015   1.271   6.503   4.189 -0.1841  0.3401 -0.4984
 1023MOL0     C38016   2.187   5.908   4.648 -0.9796  0.0802  0.3821
 1023MOL0     C38017   2.327   5.901   4.654  0.2078  0.2695 -0.6030
 1023MOL0     O38018   2.569   5.900   4.787  0.1245 -0.0363 -0.0495
 1023MOL0     C38019   2.819   6.021   4.565  0.1597  0.3641  0.2771
 1023MOL0     C38020   2.954   6.020   4.532 -0.5851  0.7530 -0.6039
 1023MOL0     N38021   3.597   6.094   4.245  0.6742  0.8575  0.0590
 1023MOL0     N38022   3.664   6.121   4.136 -0.3336 -0.1712 -0.5164
 1023MOL0     C38023   4.871   5.988   4.050  0.3756 -0.0913 -0.7003
 1023MOL0     C38024   4.988   5.916   4.019  0.6277 -0.3632  0.0841
 1023MOL0     C38025   5.395   5.753   3.954  0.0781  0.3687  0.4753
 1023MOL0     C38026   5.461   5.807   3.843 -0.4294 -0.2733  0.3760
 1023MOL0     C38027   5.582   5.761   3.798 -0.2851  0.8381  0.2044
 1023MOL0     C38028   5.640   5.645   3.859 -0.0110 -0.0106  0.8683
 1023MOL0     O38029   5.755   5.585   3.815 -0.2842 -0.2335  0.4908
 1023MOL0     C38030   5.787   5.601   3.674  0.3100 -0.3780 -0.0692
 1023MOL0     C38031   5.909   5.520   3.632  0.3037 -0.5793 -0.6047
 1023MOL0     C38032   6.031   5.551   3.722 -0.1066  0.2153 -0.0090
 1023MOL0     C38033   6.165   5.519   3.659  0.1207  0.2047 -0.6053
 1023MOL0     C38034   6.270   5.547   3.752 -0.0153 -0.7487  0.1442
 1023MOL0     C38035   6.366   5.556   3.824 -0.1300 -0.0672 -0.5006
 1023MOL0     C38036   5.573   5.582   3.974  0.2064 -0.6971  0.3480
 1023MOL0     C38037   5.459   5.645   4.016 -0.3414  0.1780  0.6882
 1023MOL0     H38038   5.225   6.149   4.098 -0.3922 -0.3073 -0.4685
 1023MOL0     H38039   5.026   6.280   4.159  2.4563  0.0526 -0.8773
 1023MOL0     H38040   4.687   6.356   4.096  0.1513  1.9754 -3.5278
 1023MOL0     H38041   4.781   6.292   3.968  2.2596  1.0054  1.1751
 1023MOL0     H38042   4.557   6.262   3.895 -1.2677 -0.9888  0.2735
 1023MOL0     H38043   4.626   6.100   3.945 -0.7526 -0.7698  3.3612
 1023MOL0     H38044   4.510   6.134   4.173 -2.2067 -1.9540 -0.1952
 1023MOL0     H38045   4.462   6.289   4.125  2.3749 -0.0662  1.4743
 1023MOL0     H38046   4.317   6.215   3.943 -0.9937 -0.3339  0.4674
 1023MOL0     H38047   4.377   6.049   3.957  0.7553 -2.2361  2.1888
 1023MOL0     H38048   4.280   6.023   4.172 -1.6470 -0.3527  1.0674
 1023MOL0     H38049   4.235   6.194   4.189  0.1998 -1.4090  1.1857
 1023MOL0     H38050   4.087   6.170   3.978  1.3816 -0.4671 -3.0177
 1023MOL0     H38051   4.147   6.005   3.959  2.2831  1.8359  0.0257
 1023MOL0     H38052   4.037   5.978   4.205  0.2807  1.0529  2.2610
 1023MOL0     H38053   3.973   6.137   4.184  2.9811 -0.3444  0.3839
 1023MOL0     H38054   3.887   5.902   4.019  0.5362 -0.0500  1.2650
 1023MOL0     H38055   3.868   6.061   3.958  0.1672 -2.1952 -1.2461
 1023MOL0     H38056   3.820   5.864   4.272 -0.2789 -0.9226 -3.0023
 1023MOL0     H38057   3.617   5.832   4.439 -0.4292  0.9207  1.5745
 1023MOL0     H38058   3.678   5.975   4.527 -1.5462 -2.0345  3.3363
 1023MOL0     H38059   3.467   6.086   4.502  2.1038 -0.5720 -0.1370
 1023MOL0     H38060   3.447   5.938   4.589  2.0885 -1.0260  1.1068
 1023MOL0     H38061   3.359   5.818   4.399 -0.3300  0.6130 -1.0225
 1023MOL0     H38062   3.373   5.964   4.288  2.7384  0.4614  0.0707
 1023MOL0     H38063   3.157   5.970   4.341  3.8365 -1.5137 -2.5049
 1023MOL0     H38064   3.210   6.086   4.459 -2.1921 -0.6249  0.0860
 1023MOL0     H38065   3.049   5.759   4.737  0.1298 -0.6139 -0.0581
 1023MOL0     H38066   2.717   5.693   4.795 -0.3541  1.9039 -2.2969
 1023MOL0     H38067   2.881   5.658   4.860 -0.3216 -0.4930 -0.8225
 1023MOL0     H38068   2.781   5.799   4.915  3.2683  1.0751  0.2045
 1023MOL0     H38069   2.390   6.198   4.483 -0.3041  0.8860  0.9704
 1023MOL0     H38070   2.150   6.203   4.490  1.8465  0.4501 -1.2025
 1023MOL0     H38071   1.905   6.071   4.785  2.5912  0.3387  1.3512
 1023MOL0     H38072   2.026   6.182   4.735 -1.3494  1.7490  0.6557
 1023MOL0     H38073   1.817   6.292   4.697  1.4536  1.8714 -0.9368
 1023MOL0     H38074   1.887   6.264   4.538 -2.6741  0.2126  0.0048
 1023MOL0     H38075   1.659   6.106   4.668 -3.1341  4.2094  0.3052
 1023MOL0     H38076   1.738   6.057   4.521 -2.8961 -0.4072 -1.6120
 1023MOL0     H38077   1.611   6.333   4.544 -0.7576  0.7089 -3.3045
 1023MOL0     H38078   1.667   6.255   4.402 -1.5653 -1.0595 -0.6023
 1023MOL0     H38079   1.436   6.166   4.583  2.6474 -1.6858  0.8488
 1023MOL0     H38080   1.487   6.064   4.450 -1.2941 -0.8285  3.2368
 1023MOL0     H38081   1.287   6.174   4.402  0.5258 -0.8259 -1.0834
 1023MOL0     H38082   1.341   6.333   4.453  0.2143  0.5458 -1.1589
 1023MOL0     H38083   1.453   6.187   4.219 -1.0544 -1.0797  2.2237
 1023MOL0     H38084   1.492   6.346   4.279 -2.0026  2.0185  4.3572
 1023MOL0     H38085   1.201   6.275   4.179  0.2034 -0.2952 -1.1861
 1023MOL0     H38086   1.334   6.304   4.063  0.1034 -1.0483  0.3529
 1023MOL0     H38087   2.119   5.831   4.684 -0.5725 -0.6131 -0.3167
 1023MOL0     H38088   2.368   5.809   4.694 -1.2938 -0.2920 -0.3170
 1023MOL0     H38089   2.750   6.090   4.517 -0.4153 -1.3449 -1.4541
 1023MOL0     H38090   2.996   6.095   4.465 -0.8577 -0.7449 -2.5348
 1023MOL0     H38091   4.768   5.956   4.047 -0.6399  2.9626 -1.9879
 1023MOL0     H38092   4.976   5.822   3.966  0.3508  0.1555 -0.7937
 1023MOL0     H38093   5.424   5.883   3.775  3.1437  0.6199 -0.7570
 1023MOL0     H38094   5.627   5.814   3.715 -0.6697 -1.5913 -1.6470
 1023MOL0     H38095   5.701   5.582   3.608 -0.6916 -0.0510  1.0987
 1023MOL0     H38096   5.805   5.705   3.647 -1.8093  0.5352  1.7099
 1023MOL0     H38097   5.942   5.548   3.531 -0.8985  2.6021 -0.2366
 1023MOL0     H38098   5.885   5.414   3.648 -1.7499 -0.2514 -1.2251
 1023MOL0     H38099   6.018   5.485   3.808  3.0231  0.5877  0.8813
 1023MOL0     H38100   6.027   5.656   3.752 -0.2932 -0.6293  3.2978
 1023MOL0     H38101   6.179   5.560   3.559  0.9621 -2.8864 -1.8435
 1023MOL0     H38102   6.160   5.411   3.647 -0.1741 -0.3111  2.9105
 1023MOL0     H38103   6.441   5.574   3.898  1.8772 -0.2573 -2.4156
 1023MOL0     H38104   5.595   5.491   4.029 -0.0639 -0.9956 -0.0368
 1023MOL0     H38105   5.409   5.608   4.105  0.4200 -0.8841  0.6959
 1024MOL0     O38106   1.010   6.183   1.514  0.2250  0.1008 -0.1791
 1024MOL0     C38107   1.088   6.112   1.579  0.0389  0.1421 -0.6119
 1024MOL0     O38108   1.074   6.085   1.710  0.1184  0.0473  0.4882
 1024MOL0     C38109   0.954   6.081   1.779 -0.5549  0.2746  0.5164
 1024MOL0     C38110   0.853   6.175   1.777  0.3086  0.1687  0.1747
 1024MOL0     C38111   0.729   6.157   1.847 -0.0157 -0.2019 -1.2037
 1024MOL0     C38112   0.720   6.053   1.945 -0.0518 -0.0673 -0.0243
 1024MOL0     O38113   0.596   6.042   2.012 -0.0782  0.0114 -0.2391
 1024MOL0     C38114   0.587   5.956   2.126 -0.0054  0.1659  0.2102
 1024MOL0     C38115   0.439   5.970   2.183 -1.0235 -0.3998  0.1071
 1024MOL0     C38116   0.341   5.917   2.083  0.0473  0.1833  0.4112
 1024MOL0     C38117   0.203   5.904   2.153 -0.1943 -0.0517  0.2874
 1024MOL0     C38118   0.093   5.870   2.045 -0.4793 -0.2311  0.4746
 1024MOL0     C38119  -0.040   5.866   2.115  0.1004  0.4189 -0.2287
 1024MOL0     C38120  -0.149   5.790   2.026 -0.2989  0.3298 -0.3873
 1024MOL0     C38121  -0.217   5.888   1.921 -0.2069 -0.0643 -1.1047
 1024MOL0     N38122  -0.337   5.827   1.869 -0.6116  0.8218 -0.5907
 1024MOL0     C38123  -0.446   5.820   1.942 -0.1501 -0.8127 -0.3939
 1024MOL0     C38124  -0.539   5.772   1.866  0.0241 -0.4459  0.2311
 1024MOL0     C38125  -0.680   5.730   1.900  0.5181  0.3757 -0.2266
 1024MOL0     C38126  -0.746   5.640   1.796  0.6150  0.2820 -1.2297
 1024MOL0     C38127  -0.897   5.627   1.831 -0.9572  0.3847  0.5999
 1024MOL0     C38128  -0.970   5.563   1.713 -0.5437 -0.4559  1.3223
 1024MOL0     O38129  -1.107   5.566   1.735  0.3127  0.1316  0.3337
 1024MOL0     C38130  -1.183   5.456   1.701  0.1616 -0.1103  1.3031
 1024MOL0     C38131  -1.144   5.362   1.612 -0.5213  0.1348 -0.1141
 1024MOL0     C38132  -1.219   5.248   1.580 -0.3000  0.2131 -0.9986
 1024MOL0     C38133  -1.160   5.160   1.477  0.5792 -0.3719  0.8021
 1024MOL0     C38134  -1.350   5.238   1.639  0.0700  0.1043 -0.5033
 1024MOL0     C38135  -1.438   5.118   1.638 -0.4262 -0.5368 -0.2689
 1024MOL0     O38136  -1.534   5.106   1.734 -0.3691  0.5471 -0.2063
 1024MOL0     C38137  -1.597   4.978   1.763 -0.3625 -1.2146 -0.0169
 1024MOL0     C38138  -1.524   4.854   1.760 -1.4419  0.9099 -0.6828
 1024MOL0     C38139  -1.592   4.731   1.782  0.0511  0.5851 -0.8904
 1024MOL0     C38140  -1.726   4.740   1.812 -0.1063  0.6172  0.0122
 1024MOL0     O38141  -1.782   4.618   1.834 -0.0520 -0.2975  0.8165
 1024MOL0     C38142  -1.923   4.609   1.825 -0.3016 -0.2342  0.1361
 1024MOL0     C38143  -1.978   4.468   1.810 -0.1954  0.6251  0.4622
 1024MOL0     C38144  -2.129   4.448   1.826 -0.2221  0.0455  0.7594
 1024MOL0     C38145  -2.207   4.549   1.736 -1.2253  0.8575  0.5370
 1024MOL0     C38146  -2.348   4.497   1.725  0.9099  0.5620  0.4761
 1024MOL0     C38147  -2.411   4.474   1.866 -0.7586 -0.2114  0.4857
 1024MOL0     C38148  -2.457   4.608   1.929  0.2249  0.1608  0.1925
 1024MOL0     C38149  -2.494   4.604   2.078  0.0449 -0.4277 -0.0970
 1024MOL0    Cl38150  -2.369   4.541   2.192  0.1328  0.1464  0.1746
 1024MOL0     C38151  -1.791   4.856   1.817  0.5302  0.3822 -0.1073
 1024MOL0     C38152  -1.736   4.976   1.789 -0.4515 -0.1051 -0.2347
 1024MOL0     O38153  -1.408   5.030   1.552 -0.4689  0.2230 -0.2347
 1024MOL0     C38154  -1.392   5.345   1.723 -0.3534 -0.4214 -0.3537
 1024MOL0     C38155  -1.307   5.451   1.753 -0.2559  0.0317 -0.5075
 1024MOL0     N38156  -0.489   5.752   1.734 -0.7410 -0.3822  0.0733
 1024MOL0     N38157  -0.360   5.778   1.742 -0.0274  0.4225  0.3635
 1024MOL0     C38158   0.834   5.973   1.956 -0.0403 -0.0845  0.4380
 1024MOL0     C38159   0.953   5.980   1.881  0.1393  0.4393  0.5027
 1024MOL0     C38160   1.217   6.094   1.507  0.3890 -0.2370  0.3102
 1024MOL0     C38161   1.324   6.028   1.561 -0.3283 -0.0591 -0.0595
 1024MOL0     C38162   1.457   6.021   1.512 -0.6967 -0.1080 -0.0517
 1024MOL0     C38163   1.483   6.088   1.398 -0.2048 -0.6417  0.2701
 1024MOL0     O38164   1.613   6.074   1.355 -0.6571  0.4939 -0.2024
 1024MOL0     C38165   1.656   6.132   1.233 -0.6433  0.5269 -0.0015
 1024MOL0     C38166   1.804   6.091   1.208 -0.1743 -0.0440  0.1915
 1024MOL0     C38167   1.811   5.998   1.092 -0.0033  0.6568  0.3093
 1024MOL0     C38168   1.952   5.942   1.080 -1.3855 -0.1005  0.5895
 1024MOL0     C38169   2.043   6.036   1.020 -1.2866 -0.1274 -0.2945
 1024MOL0     C38170   2.131   6.109   0.978 -0.1134  0.7127  0.3643
 1024MOL0     C38171   1.372   6.150   1.328 -0.4501 -0.3531 -0.7103
 1024MOL0     C38172   1.242   6.155   1.379 -0.5736  0.8580  0.0586
 1024MOL0     H38173   0.869   6.250   1.700 -1.2026 -0.0396 -0.3924
 1024MOL0     H38174   0.635   6.208   1.829 -1.0580 -0.8954  1.6389
 1024MOL0     H38175   0.612   5.852   2.105  1.5183 -0.0604  2.6934
 1024MOL0     H38176   0.657   5.982   2.206  0.5875  2.5378 -0.9836
 1024MOL0     H38177   0.430   5.920   2.280  2.3702 -0.7990  0.3112
 1024MOL0     H38178   0.423   6.077   2.202  0.7105  0.0545 -0.8009
 1024MOL0     H38179   0.327   5.986   1.999 -1.1952 -0.1005  0.3699
 1024MOL0     H38180   0.376   5.824   2.038 -1.1246  0.4841 -1.2269
 1024MOL0     H38181   0.214   5.838   2.239  0.6268 -1.4939 -0.8797
 1024MOL0     H38182   0.172   5.999   2.198 -1.2096 -0.4701  0.4897
 1024MOL0     H38183   0.088   5.947   1.967 -1.5120  2.3790  2.9376
 1024MOL0     H38184   0.109   5.771   2.002  0.2730  0.3968 -0.7501
 1024MOL0     H38185  -0.042   5.812   2.210 -5.5322 -2.3168 -1.4851
 1024MOL0     H38186  -0.064   5.969   2.143  0.3002  0.1420  1.0446
 1024MOL0     H38187  -0.096   5.707   1.980  0.5383  0.6322  0.0117
 1024MOL0     H38188  -0.220   5.742   2.094 -1.6242  0.1133 -1.8644
 1024MOL0     H38189  -0.136   5.897   1.848  0.5171 -2.6795 -0.7277
 1024MOL0     H38190  -0.232   5.984   1.971 -1.2080 -0.2300 -1.0605
 1024MOL0     H38191  -0.460   5.859   2.042  0.5404 -0.2384 -0.5144
 1024MOL0     H38192  -0.698   5.686   1.999 -2.3473 -2.3298 -1.7753
 1024MOL0     H38193  -0.732   5.826   1.898 -1.2463 -0.5323 -3.3865
 1024MOL0     H38194  -0.702   5.540   1.808  0.7900  0.6765  2.3862
 1024MOL0     H38195  -0.727   5.664   1.691 -0.5417 -0.3093 -1.5945
 1024MOL0     H38196  -0.942   5.726   1.844  1.7578  1.7654  0.1780
 1024MOL0     H38197  -0.913   5.557   1.914 -2.2092  1.3714  1.2281
 1024MOL0     H38198  -0.932   5.461   1.702 -0.1343 -0.2973  1.2456
 1024MOL0     H38199  -0.954   5.616   1.618 -1.7214  1.6559  2.2375
 1024MOL0     H38200  -1.044   5.361   1.572 -0.1431  0.0359  0.8008
 1024MOL0     H38201  -1.142   5.069   1.535  0.6255 -2.0453 -1.6513
 1024MOL0     H38202  -1.224   5.130   1.393 -0.7326 -1.1753  2.0488
 1024MOL0     H38203  -1.071   5.203   1.431  2.0259 -1.6127  2.3446
 1024MOL0     H38204  -1.416   4.855   1.751 -1.0071 -4.8592  0.2132
 1024MOL0     H38205  -1.548   4.632   1.770 -1.1519  0.1321 -1.7623
 1024MOL0     H38206  -1.967   4.665   1.909  2.5052  0.1953  1.4352
 1024MOL0     H38207  -1.954   4.649   1.728 -0.1187  2.4807  1.1068
 1024MOL0     H38208  -1.950   4.424   1.714  1.3847  0.3390  1.0110
 1024MOL0     H38209  -1.927   4.408   1.886  1.8415  2.5827  0.7865
 1024MOL0     H38210  -2.147   4.476   1.930 -0.9759  3.4389 -0.1388
 1024MOL0     H38211  -2.155   4.345   1.803 -0.6569  0.5400 -1.1757
 1024MOL0     H38212  -2.204   4.647   1.785  0.5108  2.5109 -2.5392
 1024MOL0     H38213  -2.155   4.535   1.640  0.0863 -4.8227  1.6876
 1024MOL0     H38214  -2.354   4.405   1.667 -2.3041  0.3799  0.9235
 1024MOL0     H38215  -2.410   4.568   1.670  2.0900 -2.0616 -4.8880
 1024MOL0     H38216  -2.501   4.415   1.851 -1.0298  0.8187 -2.4368
 1024MOL0     H38217  -2.351   4.409   1.931 -1.7586  0.7740  2.5126
 1024MOL0     H38218  -2.545   4.635   1.871 -1.5093  0.6513  2.8927
 1024MOL0     H38219  -2.380   4.686   1.924  0.6412 -0.1915  0.8402
 1024MOL0     H38220  -2.588   4.548   2.075 -1.2893  1.6828 -3.1918
 1024MOL0     H38221  -2.531   4.704   2.105  3.5390  1.9692 -3.1425
 1024MOL0     H38222  -1.894   4.866   1.849  0.6440  3.0691 -0.3739
 1024MOL0     H38223  -1.790   5.071   1.786 -0.4345 -0.1196 -1.3436
 1024MOL0     H38224  -1.488   5.340   1.774 -1.4100 -0.1164 -2.2137
 1024MOL0     H38225  -1.332   5.533   1.819 -0.6392 -1.0409  0.7226
 1024MOL0     H38226   0.843   5.903   2.038  0.4845  0.4628  0.8505
 1024MOL0     H38227   1.034   5.910   1.901 -0.4889  0.1351  2.1689
 1024MOL0     H38228   1.295   5.978   1.653  2.9474  0.8862  1.6320
 1024MOL0     H38229   1.532   5.959   1.561 -1.1748 -1.0321 -0.4481
 1024MOL0     H38230   1.581   6.108   1.157 -1.3011 -0.2025  0.8572
 1024MOL0     H38231   1.651   6.242   1.237  3.4025  0.8281  0.9428
 1024MOL0     H38232   1.852   6.050   1.297 -1.7720 -1.1182  0.6071
 1024MOL0     H38233   1.860   6.181   1.180  0.8025 -0.0622  1.9601
 1024MOL0     H38234   1.764   6.041   1.003  1.7903  1.1876 -0.4230
 1024MOL0     H38235   1.738   5.919   1.115  1.0039  0.4344  3.1796
 1024MOL0     H38236   1.943   5.849   1.024  0.1415 -0.0828  0.2523
 1024MOL0     H38237   1.992   5.918   1.179 -2.5713 -1.6960  0.7099
 1024MOL0     H38238   2.201   6.185   0.950  0.0826 -0.0029 -1.1665
 1024MOL0     H38239   1.378   6.199   1.232  0.7545  1.2199  0.1144
 1024MOL0     H38240   1.159   6.196   1.322 -0.6156 -0.3784 -0.8357
  11.31007  11.31007  11.31007
